FOO
135168
    1MOL0     O    1   7.496   2.120   6.371 -0.5315 -0.1481  0.4703
    1MOL0     C    2   7.397   2.039   6.358 -0.5391 -0.0536 -0.0323
    1MOL0     O    3   7.356   1.984   6.242  0.3598 -0.1760 -0.1851
    1MOL0     C    4   7.401   2.019   6.111 -0.1798 -0.8140 -0.9362
    1MOL0     C    5   7.347   1.951   6.007  0.0187  0.1046 -0.2344
    1MOL0     C    6   7.367   1.977   5.874  0.0038  0.5404 -0.4316
    1MOL0     C    7   7.455   2.076   5.837 -0.2530 -0.6348 -0.3084
    1MOL0     O    8   7.479   2.103   5.706  0.4363  0.2948  0.0178
    1MOL0     C    9   7.519   2.001   5.626  0.7575 -0.1114 -0.0540
    1MOL0     C   10   7.610   2.044   5.508 -0.3665 -0.6905 -0.2480
    1MOL0     C   11   7.757   2.068   5.554 -0.0262  0.6111  0.4990
    1MOL0     C   12   7.788   2.137   5.689  0.5443  0.1251  0.2158
    1MOL0     C   13   7.930   2.183   5.673  0.4865  0.0613  0.0372
    1MOL0     C   14   8.045   2.085   5.652 -0.8818  0.1675  0.0115
    1MOL0     C   15   8.192   2.142   5.637 -0.0779  0.5966  0.0944
    1MOL0     C   16   8.261   2.178   5.771 -0.5505  0.1097  0.0253
    1MOL0     N   17   8.408   2.187   5.754  0.0157  0.2365  0.1059
    1MOL0     C   18   8.488   2.249   5.652 -1.0631  1.1248  0.2158
    1MOL0     C   19   8.617   2.245   5.705 -0.2288  0.1056 -0.3652
    1MOL0     C   20   8.743   2.288   5.635  1.0642 -0.3712 -0.3137
    1MOL0     C   21   8.870   2.299   5.724 -1.0192 -1.0438 -0.4273
    1MOL0     C   22   8.998   2.281   5.639  0.4139  0.4850  0.9903
    1MOL0     C   23   9.121   2.337   5.715 -1.1551 -0.1085 -0.1331
    1MOL0     O   24   9.232   2.329   5.634 -0.0474  0.3212  0.1776
    1MOL0     C   25   9.363   2.358   5.678 -0.9573 -0.7446 -0.9718
    1MOL0     C   26   9.390   2.393   5.811  0.1116 -0.3399  1.0686
    1MOL0     C   27   9.521   2.424   5.846 -0.3803  0.2352 -0.6461
    1MOL0     C   28   9.620   2.421   5.751  0.0303  0.2321  0.0118
    1MOL0     C   29   9.760   2.450   5.790  0.6578  0.2659  0.0505
    1MOL0     O   30   9.852   2.452   5.691  0.4430 -0.1897  0.0896
    1MOL0     C   31   9.964   2.534   5.697 -0.2155 -0.4039  0.7418
    1MOL0     C   32  10.091   2.492   5.733  0.7125 -0.1507 -0.8650
    1MOL0     C   33  10.194   2.582   5.727 -0.0445 -0.1041 -0.4932
    1MOL0     C   34  10.176   2.709   5.682 -0.5095 -0.1020 -0.3802
    1MOL0     O   35  10.286   2.792   5.693 -0.8509  0.2560  0.8753
    1MOL0     C   36  10.262   2.936   5.672 -0.1659  0.6340 -0.3926
    1MOL0     C   37  10.381   3.035   5.717  0.5613 -0.4892  0.4071
    1MOL0     C   38  10.325   3.172   5.696  0.6278  0.4020  0.2603
    1MOL0     C   39  10.437   3.267   5.648 -0.1425 -0.1823 -0.3733
    1MOL0     C   40  10.376   3.370   5.556  1.0043 -0.4981 -0.3038
    1MOL0     C   41  10.259   3.453   5.622 -1.1689 -0.2297  0.3545
    1MOL0     C   42  10.233   3.591   5.562 -0.5875  0.0534  0.6530
    1MOL0     C   43  10.092   3.645   5.582  0.3284  1.2504  0.3076
    1MOL0    Cl   44   9.980   3.532   5.513  0.0714  0.2320  0.1351
    1MOL0     C   45  10.058   2.748   5.633 -0.1082 -0.7899  0.4713
    1MOL0     C   46   9.951   2.663   5.630 -0.2305  0.5123 -0.6650
    1MOL0     O   47   9.786   2.479   5.911  0.1398 -0.2573  0.1372
    1MOL0     C   48   9.592   2.386   5.615  0.0426 -0.1662  0.3507
    1MOL0     C   49   9.465   2.350   5.585 -0.5508 -0.1889 -0.5346
    1MOL0     N   50   8.607   2.211   5.841 -0.0548 -0.4170 -0.0962
    1MOL0     N   51   8.486   2.170   5.867 -0.3502  0.2098 -0.4347
    1MOL0     C   52   7.518   2.156   5.940  0.3908  0.2369 -0.3412
    1MOL0     C   53   7.490   2.130   6.073 -0.5265  1.2139  0.3072
    1MOL0     C   54   7.327   2.016   6.482  0.8680  0.0794 -0.6217
    1MOL0     C   55   7.351   2.089   6.598 -0.0545 -0.4828 -0.2237
    1MOL0     C   56   7.275   2.060   6.716 -0.2783 -0.4294  0.0021
    1MOL0     C   57   7.182   1.952   6.718 -0.5563 -1.1040 -0.0885
    1MOL0     O   58   7.106   1.908   6.832 -0.1539  0.4203  0.0908
    1MOL0     C   59   7.119   1.981   6.953  0.7387  0.7065  0.7323
    1MOL0     C   60   7.034   1.923   7.066 -0.3618 -0.6055 -0.1649
    1MOL0     C   61   7.010   2.021   7.179 -1.3658  0.5403 -0.6340
    1MOL0     C   62   6.906   1.962   7.285 -0.6041  0.3774  0.2506
    1MOL0     C   63   6.775   1.918   7.231  0.6442  0.5333 -0.7211
    1MOL0     C   64   6.677   1.873   7.171  0.4313 -0.4026  0.4480
    1MOL0     C   65   7.159   1.893   6.596 -0.0789  0.0631 -0.3757
    1MOL0     C   66   7.222   1.921   6.483  0.6605  0.3808 -0.1709
    1MOL0     H   67   7.279   1.877   6.049  0.5456 -0.4625 -0.3550
    1MOL0     H   68   7.318   1.906   5.808 -0.5851 -0.8260  1.3707
    1MOL0     H   69   7.425   1.967   5.582  0.2615  2.6835 -1.3232
    1MOL0     H   70   7.560   1.926   5.695  2.3654  1.9298  1.3221
    1MOL0     H   71   7.576   2.138   5.463 -1.4791 -1.9084 -2.0976
    1MOL0     H   72   7.615   1.970   5.428 -2.3675 -1.7141  0.5033
    1MOL0     H   73   7.818   2.106   5.473 -1.3861 -1.3961 -1.5868
    1MOL0     H   74   7.801   1.969   5.571 -0.2393 -0.2164 -3.1333
    1MOL0     H   75   7.730   2.226   5.715  1.8739  1.0445  0.1536
    1MOL0     H   76   7.794   2.062   5.768 -1.4555  0.6185  0.8992
    1MOL0     H   77   7.947   2.249   5.758  0.4119  0.6469 -0.4004
    1MOL0     H   78   7.924   2.251   5.588 -0.9084  1.6100  1.3166
    1MOL0     H   79   8.011   2.040   5.559 -0.2340 -0.0579 -0.1222
    1MOL0     H   80   8.048   2.011   5.733 -0.6540  0.1225 -0.0355
    1MOL0     H   81   8.247   2.059   5.590  0.7383 -0.5027  2.8118
    1MOL0     H   82   8.202   2.231   5.575 -0.3197 -0.3214 -1.3132
    1MOL0     H   83   8.238   2.100   5.845  0.9292 -2.0123 -1.6180
    1MOL0     H   84   8.232   2.272   5.817  0.6596 -0.6303  2.4798
    1MOL0     H   85   8.457   2.271   5.550  0.9165 -2.0343 -1.2011
    1MOL0     H   86   8.716   2.374   5.573 -1.9600 -1.3838 -0.5762
    1MOL0     H   87   8.775   2.212   5.563  0.8283  2.2694 -3.4438
    1MOL0     H   88   8.864   2.238   5.815 -0.8613 -0.2926  0.0906
    1MOL0     H   89   8.870   2.400   5.766 -0.2010 -1.3167  0.2555
    1MOL0     H   90   9.022   2.178   5.614  1.3885  1.4839 -2.8557
    1MOL0     H   91   8.991   2.333   5.543  4.1359  0.1785  0.4322
    1MOL0     H   92   9.123   2.269   5.801  0.6761 -2.3967 -1.8487
    1MOL0     H   93   9.115   2.444   5.735  1.9627  0.6599 -2.5241
    1MOL0     H   94   9.302   2.408   5.873 -1.3443 -0.1764 -0.9142
    1MOL0     H   95   9.547   2.452   5.948  1.0787  1.6495 -1.3534
    1MOL0     H   96  10.104   2.392   5.774  1.1155  0.5634  0.8338
    1MOL0     H   97  10.291   2.557   5.769 -0.4401  0.7359  0.9809
    1MOL0     H   98  10.187   2.954   5.750 -1.3741 -1.0287 -1.1144
    1MOL0     H   99  10.219   2.966   5.576  0.9032  0.6606 -0.8789
    1MOL0     H  100  10.467   3.019   5.650 -0.7323  0.0614 -1.4784
    1MOL0     H  101  10.416   3.021   5.819  0.2156  0.1638  0.6239
    1MOL0     H  102  10.280   3.208   5.789  1.0785 -0.1530  0.7030
    1MOL0     H  103  10.249   3.172   5.618  0.7012  1.0496  0.1831
    1MOL0     H  104  10.482   3.311   5.738  0.3522 -1.4243  0.0075
    1MOL0     H  105  10.520   3.219   5.596  0.4075  0.9079 -0.5221
    1MOL0     H  106  10.340   3.326   5.463 -0.8450  0.8510 -0.2819
    1MOL0     H  107  10.460   3.437   5.535  0.7382  0.6219  1.9276
    1MOL0     H  108  10.290   3.468   5.725 -1.1390 -0.4485  0.3783
    1MOL0     H  109  10.171   3.389   5.633 -1.2978  0.0308  0.8420
    1MOL0     H  110  10.297   3.668   5.607 -1.7119  0.8078  1.0380
    1MOL0     H  111  10.273   3.588   5.461  0.7283  2.2448  1.0454
    1MOL0     H  112  10.082   3.748   5.546 -1.5578  0.5106 -1.5234
    1MOL0     H  113  10.069   3.642   5.689 -2.6925 -1.2561 -0.2588
    1MOL0     H  114  10.047   2.837   5.572 -1.1674 -1.0898  0.2099
    1MOL0     H  115   9.861   2.691   5.574 -1.4820 -1.1556  0.4200
    1MOL0     H  116   9.668   2.385   5.537 -0.9986  2.0864 -0.7927
    1MOL0     H  117   9.442   2.309   5.486  2.4391 -0.2595 -1.2991
    1MOL0     H  118   7.580   2.239   5.908  0.4546  0.0659 -0.6706
    1MOL0     H  119   7.534   2.199   6.144 -0.2232  1.0786  0.2550
    1MOL0     H  120   7.431   2.161   6.602  1.4380 -2.1243  2.3823
    1MOL0     H  121   7.293   2.112   6.810  0.5125 -2.2535  0.9114
    1MOL0     H  122   7.093   2.082   6.922 -0.6383  0.3354  0.6121
    1MOL0     H  123   7.224   1.972   6.983  0.8059 -4.2884 -0.0413
    1MOL0     H  124   6.935   1.894   7.030 -0.1209 -2.7109  0.7598
    1MOL0     H  125   7.078   1.835   7.113 -1.3301 -1.7105 -1.2757
    1MOL0     H  126   6.975   2.114   7.134  1.6153  1.8928 -0.3968
    1MOL0     H  127   7.102   2.043   7.235 -1.5179 -1.7703  0.6873
    1MOL0     H  128   6.956   1.878   7.335 -0.3933  0.4541  0.1724
    1MOL0     H  129   6.916   2.029   7.371  0.0726 -1.8497  2.0198
    1MOL0     H  130   6.579   1.834   7.148  0.8136 -1.7203  0.9377
    1MOL0     H  131   7.085   1.814   6.593 -0.0744 -0.2923  3.7886
    1MOL0     H  132   7.198   1.858   6.398  0.7014 -0.2388  0.2654
    2MOL0     O  133   0.731   7.182  10.713  0.1342  0.4415  0.2204
    2MOL0     C  134   0.742   7.235  10.823  0.3957 -0.5475  0.8233
    2MOL0     O  135   0.857   7.292  10.863  0.4656 -0.4938  0.1500
    2MOL0     C  136   0.969   7.303  10.788  0.3766 -0.2401  0.2161
    2MOL0     C  137   0.977   7.386  10.670 -0.1389  0.3444 -1.1820
    2MOL0     C  138   1.096   7.403  10.603 -0.0112  0.2433 -0.1291
    2MOL0     C  139   1.215   7.340  10.648  0.1540  0.7965 -0.0185
    2MOL0     O  140   1.326   7.362  10.585 -0.0179 -0.4452 -0.3165
    2MOL0     C  141   1.428   7.254  10.594 -0.1767 -0.6894  0.2772
    2MOL0     C  142   1.543   7.305  10.502  0.8732  0.2893  0.3844
    2MOL0     C  143   1.670   7.230  10.540  1.0408 -0.3902 -1.1962
    2MOL0     C  144   1.800   7.286  10.476  0.2674  0.4806 -0.3590
    2MOL0     C  145   1.908   7.181  10.482 -0.7052 -0.0420  0.1582
    2MOL0     C  146   2.046   7.249  10.447 -0.0120 -0.2951  0.7286
    2MOL0     C  147   2.142   7.131  10.468 -1.3970  1.2456  0.4852
    2MOL0     C  148   2.288   7.169  10.487  0.2124 -0.5095  0.3400
    2MOL0     N  149   2.333   7.289  10.407  0.2516  0.3348  0.5679
    2MOL0     C  150   2.341   7.425  10.453 -0.3487 -0.0367 -0.7403
    2MOL0     C  151   2.426   7.488  10.370 -0.2839 -1.3810  0.4461
    2MOL0     C  152   2.465   7.636  10.361  0.2773  0.4928  0.3413
    2MOL0     C  153   2.602   7.644  10.422  0.2379 -0.4713  0.2364
    2MOL0     C  154   2.607   7.612  10.575 -0.8095  0.3012  0.3330
    2MOL0     C  155   2.731   7.527  10.620 -0.3485 -0.2813 -0.5134
    2MOL0     O  156   2.846   7.599  10.622 -0.4595  0.0248  0.3307
    2MOL0     C  157   2.960   7.561  10.691  0.4829  0.5442 -0.3812
    2MOL0     C  158   3.086   7.613  10.650 -0.0255 -0.1937  0.5298
    2MOL0     C  159   3.207   7.571  10.701  0.8120  0.6062  0.1619
    2MOL0     C  160   3.204   7.476  10.805  0.6144  0.3018 -0.0973
    2MOL0     C  161   3.327   7.429  10.864  0.0304 -0.5881 -0.1024
    2MOL0     O  162   3.444   7.487  10.808  0.3460 -0.4282 -0.0317
    2MOL0     C  163   3.573   7.452  10.853  0.0940  0.2620 -0.4318
    2MOL0     C  164   3.679   7.482  10.762  0.4307 -0.2023 -0.2438
    2MOL0     C  165   3.813   7.460  10.790 -0.0742 -0.6194 -0.2986
    2MOL0     C  166   3.854   7.410  10.910  1.0279 -0.5936  0.0816
    2MOL0     O  167   3.978   7.409  10.957 -0.1996 -0.1095  0.8108
    2MOL0     C  168   4.040   7.283  10.968  0.2197 -0.2777  0.1532
    2MOL0     C  169   4.178   7.313  11.027  0.1914 -0.2652  0.7075
    2MOL0     C  170   4.249   7.173  11.052  0.2147  0.5151 -0.3408
    2MOL0     C  171   4.388   7.174  11.106 -0.2639 -0.8332  0.1159
    2MOL0     C  172   4.412   7.048  11.191 -0.5493 -0.3489 -0.2713
    2MOL0     C  173   4.557   7.019  11.228 -0.5619  0.4573 -0.2934
    2MOL0     C  174   4.660   7.056  11.118 -0.3230  0.0156  0.0900
    2MOL0     C  175   4.801   7.037  11.153  0.0015  0.7227  0.1678
    2MOL0    Cl  176   4.899   7.078  11.016 -0.2231 -0.0152 -0.0172
    2MOL0     C  177   3.751   7.393  11.007 -0.8276 -0.3115  0.2805
    2MOL0     C  178   3.618   7.406  10.976 -0.0480 -0.7453  0.0798
    2MOL0     O  179   3.329   7.341  10.953 -0.5351 -0.4324  0.5456
    2MOL0     C  180   3.084   7.417  10.846 -1.0182  0.0970 -0.7602
    2MOL0     C  181   2.965   7.453  10.789  0.0365 -0.6884  1.2168
    2MOL0     N  182   2.436   7.402  10.267  0.1240  0.3291 -0.5744
    2MOL0     N  183   2.396   7.280  10.291  0.0767  0.2057  0.3756
    2MOL0     C  184   1.202   7.253  10.762  0.4534  0.4666  0.7520
    2MOL0     C  185   1.080   7.225  10.830  0.0595 -0.9075 -0.8953
    2MOL0     C  186   0.629   7.247  10.907  1.1477  0.1041  0.0226
    2MOL0     C  187   0.638   7.280  11.044  0.3422  0.0709 -0.5494
    2MOL0     C  188   0.522   7.293  11.122  0.8736  0.6846  0.2541
    2MOL0     C  189   0.395   7.255  11.068 -0.3314 -0.3697  0.3251
    2MOL0     O  190   0.284   7.252  11.155  0.0519 -0.3015  0.2570
    2MOL0     C  191   0.151   7.256  11.107  0.4005  0.3102 -0.5097
    2MOL0     C  192   0.058   7.291  11.221 -0.0061  0.5461  0.6311
    2MOL0     C  193   0.029   7.162  11.303 -0.3004  0.4731 -0.6787
    2MOL0     C  194  -0.070   7.183  11.415  1.0227  0.6315 -0.6391
    2MOL0     C  195  -0.210   7.160  11.391  0.0634  0.3818 -0.6909
    2MOL0     C  196  -0.330   7.143  11.377  0.5186 -0.7174 -1.2068
    2MOL0     C  197   0.388   7.204  10.934  0.5176 -1.1707  0.1126
    2MOL0     C  198   0.498   7.221  10.854 -0.3502  0.1680  0.2952
    2MOL0     H  199   0.887   7.427  10.625 -0.9324  0.8216  0.7264
    2MOL0     H  200   1.100   7.465  10.514  2.9675  1.0536  0.4744
    2MOL0     H  201   1.392   7.155  10.564  1.1827 -0.5806 -1.9197
    2MOL0     H  202   1.462   7.253  10.698  2.6986  5.2523 -0.2122
    2MOL0     H  203   1.539   7.414  10.492 -1.1410  0.4610  2.2680
    2MOL0     H  204   1.516   7.286  10.398  1.3094  2.5186 -0.1996
    2MOL0     H  205   1.654   7.130  10.499 -1.2299 -1.2463  1.5224
    2MOL0     H  206   1.686   7.216  10.647 -1.2059 -0.7444 -0.8693
    2MOL0     H  207   1.787   7.319  10.372 -0.9723 -0.5970 -0.5837
    2MOL0     H  208   1.819   7.378  10.531 -0.1147 -1.9232  4.2774
    2MOL0     H  209   1.889   7.093  10.419  2.5789 -1.1832  0.5697
    2MOL0     H  210   1.913   7.154  10.588 -1.3378 -0.1721  0.1614
    2MOL0     H  211   2.075   7.330  10.515 -0.2881 -1.4411  2.2554
    2MOL0     H  212   2.053   7.280  10.342 -3.6961 -1.7667 -0.0909
    2MOL0     H  213   2.105   7.074  10.554 -1.2664  2.6322  1.4993
    2MOL0     H  214   2.136   7.068  10.379 -1.2641  2.6432 -0.5598
    2MOL0     H  215   2.353   7.086  10.461 -0.1985 -0.1637 -1.9465
    2MOL0     H  216   2.311   7.194  10.591 -0.9670  2.2545  0.0187
    2MOL0     H  217   2.312   7.462  10.551  0.0734  0.5944 -0.8468
    2MOL0     H  218   2.399   7.700  10.421 -1.4810  1.2108 -2.2052
    2MOL0     H  219   2.469   7.676  10.260  0.5629  3.4213  1.4225
    2MOL0     H  220   2.646   7.742  10.401 -2.2795  0.5614 -0.5790
    2MOL0     H  221   2.657   7.574  10.359  0.7070 -1.2751  1.4995
    2MOL0     H  222   2.626   7.696  10.643  2.7261 -1.2091  1.4683
    2MOL0     H  223   2.518   7.561  10.613 -0.5323 -0.6871 -0.2897
    2MOL0     H  224   2.744   7.445  10.549  0.0955 -0.1398 -0.5989
    2MOL0     H  225   2.710   7.477  10.716 -3.5406 -1.1771 -1.5403
    2MOL0     H  226   3.080   7.673  10.560  0.3995  0.2619  0.8064
    2MOL0     H  227   3.300   7.613  10.664  0.3243 -0.3057 -2.2880
    2MOL0     H  228   3.643   7.508  10.663 -0.6516 -0.1459  0.1591
    2MOL0     H  229   3.893   7.477  10.718  1.9670  4.7364  2.6588
    2MOL0     H  230   4.046   7.238  10.869 -1.1759 -0.7850  0.2787
    2MOL0     H  231   3.981   7.212  11.027  0.3695 -0.5481 -0.0241
    2MOL0     H  232   4.167   7.376  11.116 -0.1522  1.0075 -0.2251
    2MOL0     H  233   4.243   7.362  10.954 -0.4910 -2.0106 -1.1762
    2MOL0     H  234   4.253   7.113  10.961  0.4477 -0.7090  0.4574
    2MOL0     H  235   4.181   7.120  11.119  0.5449  0.9932  0.3940
    2MOL0     H  236   4.448   7.174  11.015 -1.4722  0.9859 -0.7547
    2MOL0     H  237   4.415   7.262  11.165  2.4365 -1.9928  0.7088
    2MOL0     H  238   4.383   6.962  11.130  1.5088 -1.0706 -0.3144
    2MOL0     H  239   4.344   7.059  11.276 -0.7415 -0.7089 -0.3781
    2MOL0     H  240   4.574   6.913  11.249  2.9068  0.9343 -0.0709
    2MOL0     H  241   4.561   7.082  11.317  0.2141  3.0591 -2.0739
    2MOL0     H  242   4.651   6.985  11.035  2.0146 -0.4884  0.2072
    2MOL0     H  243   4.652   7.162  11.092 -0.2488  0.8196  3.0450
    2MOL0     H  244   4.824   6.937  11.192  1.6765 -0.0604 -2.5190
    2MOL0     H  245   4.824   7.109  11.232  1.0738  0.7782 -0.1739
    2MOL0     H  246   3.786   7.359  11.104  0.7585 -0.7825 -0.4282
    2MOL0     H  247   3.543   7.374  11.048 -0.4584 -2.6071 -1.1071
    2MOL0     H  248   3.067   7.339  10.920 -0.2940  0.8364  0.2224
    2MOL0     H  249   2.877   7.398  10.820 -1.2177 -0.8205 -2.1901
    2MOL0     H  250   1.279   7.183  10.793  0.2786 -1.4037 -2.5848
    2MOL0     H  251   1.076   7.146  10.905  1.0612  0.0528  0.2117
    2MOL0     H  252   0.732   7.295  11.095 -1.2949  1.1026  2.4259
    2MOL0     H  253   0.520   7.308  11.230  0.6952 -0.4635  0.4270
    2MOL0     H  254   0.126   7.162  11.057  1.0659  0.5163 -1.2609
    2MOL0     H  255   0.140   7.330  11.027 -0.5027  0.1046 -0.5906
    2MOL0     H  256   0.104   7.367  11.286  0.5173  2.9499 -2.3225
    2MOL0     H  257  -0.034   7.339  11.186 -0.2651  0.0615  0.6357
    2MOL0     H  258   0.133   7.142  11.328 -0.0233 -1.2324 -2.8740
    2MOL0     H  259  -0.004   7.075  11.246 -0.2899 -2.2192  3.0906
    2MOL0     H  260  -0.051   7.111  11.495 -0.7378  1.7294  0.8651
    2MOL0     H  261  -0.068   7.287  11.446  0.9861 -0.2302  2.5308
    2MOL0     H  262  -0.436   7.133  11.389  0.2755  2.9868  1.6266
    2MOL0     H  263   0.299   7.153  10.898 -2.1301  2.8847  0.2635
    2MOL0     H  264   0.482   7.193  10.750  0.0913 -1.1566  0.5632
    3MOL0     O  265   0.513   2.143   7.528  0.0857  0.0038  0.6317
    3MOL0     C  266   0.573   2.047   7.484  0.9167  0.3531  0.4689
    3MOL0     O  267   0.512   1.915   7.465 -0.2763  0.0073 -0.4432
    3MOL0     C  268   0.376   1.893   7.487 -0.4554 -0.8156  0.1334
    3MOL0     C  269   0.276   1.929   7.394 -0.0501  0.5621 -0.5402
    3MOL0     C  270   0.144   1.888   7.397 -0.8447 -0.6911  0.2105
    3MOL0     C  271   0.106   1.801   7.500  0.2398 -0.8526 -0.5018
    3MOL0     O  272  -0.029   1.755   7.514  0.4505  0.7932  0.0628
    3MOL0     C  273  -0.135   1.836   7.455 -0.2872 -0.4076 -0.2737
    3MOL0     C  274  -0.170   1.784   7.314  0.1779  0.3605 -0.2820
    3MOL0     C  275  -0.318   1.773   7.289 -0.1378  0.3232  0.2611
    3MOL0     C  276  -0.382   1.913   7.244  0.0149 -0.8978  0.7094
    3MOL0     C  277  -0.536   1.913   7.245 -0.0942  0.3568 -0.7643
    3MOL0     C  278  -0.593   2.011   7.353 -0.2425  1.2108  0.4963
    3MOL0     C  279  -0.749   2.010   7.353 -0.6525 -0.3786  0.4854
    3MOL0     C  280  -0.822   2.111   7.439  0.2081 -0.1319 -0.3913
    3MOL0     N  281  -0.817   2.075   7.580  0.1895  0.0723 -0.2347
    3MOL0     C  282  -0.737   2.137   7.669  0.3493  0.0192 -0.1909
    3MOL0     C  283  -0.801   2.122   7.781 -0.4870  0.1013  0.0801
    3MOL0     C  284  -0.772   2.209   7.904  1.2528  0.9585  0.6641
    3MOL0     C  285  -0.852   2.342   7.909 -0.1696 -0.1923  0.6848
    3MOL0     C  286  -1.003   2.333   7.882 -0.2514  0.2926  0.5357
    3MOL0     C  287  -1.035   2.349   7.732  0.0399  0.1141  0.7715
    3MOL0     O  288  -1.161   2.284   7.720  0.1625 -0.7352  0.2437
    3MOL0     C  289  -1.256   2.341   7.637  0.2235  0.4657 -0.2784
    3MOL0     C  290  -1.233   2.394   7.511  0.6353 -0.4443 -0.5622
    3MOL0     C  291  -1.344   2.437   7.431 -0.5901 -0.5291  0.1247
    3MOL0     C  292  -1.477   2.423   7.461 -0.3842 -0.0438  0.4471
    3MOL0     C  293  -1.599   2.452   7.382 -0.1808 -0.5081 -0.2507
    3MOL0     O  294  -1.729   2.426   7.432 -0.4390 -0.3857 -0.3036
    3MOL0     C  295  -1.842   2.459   7.362 -0.7410 -0.2037  0.2695
    3MOL0     C  296  -1.850   2.572   7.279 -0.4679  0.2568 -0.3631
    3MOL0     C  297  -1.984   2.603   7.227  0.1925 -0.7172 -0.0235
    3MOL0     C  298  -2.095   2.519   7.252  0.2342  1.3486  0.1004
    3MOL0     O  299  -2.215   2.562   7.199  0.0924 -0.7354 -0.3303
    3MOL0     C  300  -2.304   2.601   7.303  0.2204 -0.4351 -1.4724
    3MOL0     C  301  -2.433   2.661   7.259  0.0124  0.5069  0.5354
    3MOL0     C  302  -2.447   2.764   7.150 -0.5695  0.0034  0.0988
    3MOL0     C  303  -2.407   2.725   6.999  0.6653  0.0031 -0.3827
    3MOL0     C  304  -2.455   2.840   6.896 -0.4449 -0.0094 -0.0551
    3MOL0     C  305  -2.606   2.822   6.876  0.2095  0.5254 -0.2292
    3MOL0     C  306  -2.662   2.910   6.763  0.1112 -0.7117 -0.3351
    3MOL0     C  307  -2.811   2.871   6.744  0.5212 -0.4341 -0.2337
    3MOL0    Cl  308  -2.919   2.927   6.869  0.0199 -0.2043 -0.0820
    3MOL0     C  309  -2.085   2.410   7.342  0.2023  0.5731  0.5629
    3MOL0     C  310  -1.958   2.383   7.391  0.8212 -0.2086  0.5130
    3MOL0     O  311  -1.572   2.478   7.260 -0.1750 -0.4845 -0.1859
    3MOL0     C  312  -1.505   2.372   7.590 -0.7399  0.1404 -0.7208
    3MOL0     C  313  -1.398   2.327   7.672 -0.1930 -0.0938 -0.0750
    3MOL0     N  314  -0.914   2.034   7.759 -0.6328 -0.7889 -0.6843
    3MOL0     N  315  -0.913   1.995   7.637  0.2806  0.1385 -0.1798
    3MOL0     C  316   0.203   1.761   7.589  0.4116 -0.0599 -0.3289
    3MOL0     C  317   0.337   1.813   7.594  0.3703 -0.5121 -0.1594
    3MOL0     C  318   0.721   2.046   7.458  0.7862 -0.2623 -0.8223
    3MOL0     C  319   0.788   2.175   7.464 -0.0760 -0.0417  0.2950
    3MOL0     C  320   0.927   2.186   7.448  0.0029 -0.3924 -1.3446
    3MOL0     C  321   1.003   2.068   7.435 -0.1017  0.0903 -0.3552
    3MOL0     O  322   1.135   2.073   7.425  0.3077 -0.8906  0.1090
    3MOL0     C  323   1.172   2.141   7.313 -1.2074 -0.4920 -0.1955
    3MOL0     C  324   1.317   2.198   7.317 -0.5599  1.0176 -0.4432
    3MOL0     C  325   1.347   2.270   7.186 -0.7676 -0.1016 -0.0505
    3MOL0     C  326   1.490   2.277   7.167 -0.1017 -0.3250 -0.2983
    3MOL0     C  327   1.566   2.381   7.247  0.0858 -0.3544  1.0700
    3MOL0     C  328   1.625   2.463   7.309  0.1107 -0.4752 -0.5922
    3MOL0     C  329   0.943   1.936   7.439  0.4141 -0.0332 -0.5558
    3MOL0     C  330   0.804   1.926   7.446  0.1415  0.4918 -0.4292
    3MOL0     H  331   0.305   1.988   7.307  1.1624  0.5989 -0.1354
    3MOL0     H  332   0.075   1.937   7.328  2.4968  3.3159 -0.6956
    3MOL0     H  333  -0.121   1.944   7.463 -0.2868 -0.2198 -2.2653
    3MOL0     H  334  -0.222   1.816   7.519  0.1906 -0.3502  0.3943
    3MOL0     H  335  -0.118   1.694   7.282 -0.9813 -1.0906  1.6741
    3MOL0     H  336  -0.135   1.861   7.245 -0.7914  1.6078  0.5731
    3MOL0     H  337  -0.373   1.733   7.375  0.0637 -0.6217 -0.0313
    3MOL0     H  338  -0.340   1.701   7.209  0.1233  0.6922 -0.1437
    3MOL0     H  339  -0.356   1.990   7.317  4.6442 -2.4823  1.0403
    3MOL0     H  340  -0.360   1.940   7.140 -1.1627 -0.1467  0.6264
    3MOL0     H  341  -0.579   1.814   7.259  1.4232 -0.4501 -1.5609
    3MOL0     H  342  -0.553   1.956   7.146  3.4681  4.3825  0.0325
    3MOL0     H  343  -0.566   2.117   7.344 -1.5382  1.4937 -0.4822
    3MOL0     H  344  -0.566   1.978   7.454  1.2574 -0.7727 -0.5037
    3MOL0     H  345  -0.769   2.036   7.248  0.0490 -0.6871  0.2736
    3MOL0     H  346  -0.796   1.915   7.380 -0.9455  0.1575  1.9680
    3MOL0     H  347  -0.925   2.115   7.400  0.0114  0.7191  0.1858
    3MOL0     H  348  -0.783   2.213   7.433  1.7341 -0.6577  0.3350
    3MOL0     H  349  -0.648   2.198   7.655  5.0088 -4.9437  3.5722
    3MOL0     H  350  -0.666   2.228   7.885  1.3470  0.1446  0.3232
    3MOL0     H  351  -0.782   2.147   7.993  2.3147 -0.4288 -0.1368
    3MOL0     H  352  -0.805   2.398   7.828 -0.1566 -3.5632 -1.8719
    3MOL0     H  353  -0.837   2.392   8.004  2.9178 -0.0866  0.2315
    3MOL0     H  354  -1.039   2.237   7.918  0.2930  0.5336  1.7519
    3MOL0     H  355  -1.052   2.417   7.933  1.5706 -0.7169  4.2473
    3MOL0     H  356  -0.961   2.306   7.664  1.0397 -0.1508  1.9860
    3MOL0     H  357  -1.033   2.457   7.715  0.9888  0.3921  2.4166
    3MOL0     H  358  -1.131   2.413   7.480  0.3817 -0.9468 -1.7303
    3MOL0     H  359  -1.319   2.487   7.338 -2.4357 -0.5729 -0.4435
    3MOL0     H  360  -1.768   2.641   7.267  0.7828 -1.0763  0.2341
    3MOL0     H  361  -2.001   2.695   7.173 -1.2486 -1.2460 -0.5283
    3MOL0     H  362  -2.256   2.674   7.369 -3.4993  0.4824  0.4720
    3MOL0     H  363  -2.343   2.513   7.355 -0.2195  1.6987  2.1413
    3MOL0     H  364  -2.483   2.694   7.351  0.9519 -0.1426  1.2983
    3MOL0     H  365  -2.507   2.586   7.227 -0.5048  2.0533 -2.1517
    3MOL0     H  366  -2.376   2.839   7.186 -1.7562 -0.2039  3.2512
    3MOL0     H  367  -2.547   2.807   7.156  0.0712  1.3150  3.2934
    3MOL0     H  368  -2.299   2.716   7.006  1.0631  3.4232 -0.5294
    3MOL0     H  369  -2.454   2.631   6.968  0.9410 -0.3876  0.3604
    3MOL0     H  370  -2.403   2.821   6.801 -0.8772 -0.7009 -0.1552
    3MOL0     H  371  -2.446   2.945   6.926 -2.0929  0.2423 -0.3576
    3MOL0     H  372  -2.657   2.848   6.969  1.8869  1.8171  0.3838
    3MOL0     H  373  -2.623   2.717   6.848  0.8384  0.0590  1.0243
    3MOL0     H  374  -2.648   3.014   6.795 -0.4593 -1.7403  3.8049
    3MOL0     H  375  -2.618   2.891   6.665 -2.6900  1.5199 -2.1900
    3MOL0     H  376  -2.831   2.763   6.746  2.2038 -0.7720  1.4267
    3MOL0     H  377  -2.848   2.918   6.653  0.1789  0.1131  0.1806
    3MOL0     H  378  -2.178   2.356   7.354 -1.3716  3.3497  1.8002
    3MOL0     H  379  -1.934   2.296   7.451  1.8469 -0.7598 -0.6536
    3MOL0     H  380  -1.609   2.364   7.619  0.0521 -1.0051  2.2219
    3MOL0     H  381  -1.421   2.296   7.773 -2.1890  0.0678 -0.4265
    3MOL0     H  382   0.180   1.695   7.672  3.1453  1.0917  1.4649
    3MOL0     H  383   0.392   1.780   7.681  0.8436 -0.2437 -0.3568
    3MOL0     H  384   0.727   2.259   7.495 -0.8790 -0.9606  1.2361
    3MOL0     H  385   0.973   2.284   7.453  1.5017 -1.1385  1.4803
    3MOL0     H  386   1.104   2.225   7.295 -2.6436 -1.2923  1.3042
    3MOL0     H  387   1.166   2.072   7.229  1.3510 -0.2388 -0.6858
    3MOL0     H  388   1.331   2.275   7.394 -1.5973 -0.5879  1.4320
    3MOL0     H  389   1.376   2.112   7.349  0.5793  1.9948  0.1449
    3MOL0     H  390   1.292   2.365   7.187  0.6762  0.7459  1.1372
    3MOL0     H  391   1.305   2.215   7.101 -0.7622  0.5476 -0.4862
    3MOL0     H  392   1.539   2.182   7.189  0.8501  0.6717  2.1997
    3MOL0     H  393   1.504   2.311   7.064 -2.2869 -0.4758 -0.7142
    3MOL0     H  394   1.672   2.525   7.383 -1.9332  0.6348 -0.1481
    3MOL0     H  395   1.005   1.847   7.444  0.7170  0.1868 -0.2465
    3MOL0     H  396   0.752   1.831   7.438 -2.6802  2.0166 -1.6836
    4MOL0     O  397   0.440   4.120   3.371 -0.1211  0.0185 -0.2814
    4MOL0     C  398   0.555   4.133   3.324 -0.6269 -0.4930 -0.0178
    4MOL0     O  399   0.590   4.135   3.191  0.0045 -0.1378  0.7567
    4MOL0     C  400   0.494   4.102   3.089 -0.1264  0.0356 -0.5193
    4MOL0     C  401   0.397   4.006   3.092  0.5436  0.7335  0.1509
    4MOL0     C  402   0.305   3.981   2.989  0.3057 -1.2975  0.2068
    4MOL0     C  403   0.315   4.064   2.871 -0.1047  0.7559  0.6284
    4MOL0     O  404   0.230   4.058   2.758  0.0289 -0.5305  0.5266
    4MOL0     C  405   0.094   4.034   2.792 -0.0079 -0.1321 -0.1056
    4MOL0     C  406  -0.001   4.086   2.678  0.1064 -0.3938  0.4790
    4MOL0     C  407   0.034   4.229   2.623 -0.5997  0.3044 -0.1746
    4MOL0     C  408   0.024   4.344   2.725 -0.4006  0.2736  0.1392
    4MOL0     C  409   0.059   4.473   2.657 -0.1068 -0.8043  0.3070
    4MOL0     C  410   0.090   4.582   2.765 -0.1225  0.1787  1.2421
    4MOL0     C  411   0.162   4.700   2.692  0.0851  0.2646  0.1387
    4MOL0     C  412   0.131   4.829   2.765 -0.6231 -0.0073 -0.1966
    4MOL0     N  413   0.160   4.957   2.692 -0.5105  0.1203  0.4469
    4MOL0     C  414   0.284   5.025   2.702  0.6243 -0.1024 -0.4367
    4MOL0     C  415   0.295   5.085   2.583 -0.0628  0.0072 -0.0390
    4MOL0     C  416   0.409   5.165   2.506  0.8032  0.0260  0.3566
    4MOL0     C  417   0.554   5.117   2.552 -0.1359  0.0732 -0.6550
    4MOL0     C  418   0.660   5.208   2.494  0.7385  0.3017 -0.4284
    4MOL0     C  419   0.792   5.144   2.488 -0.3937 -0.3408 -0.7467
    4MOL0     O  420   0.890   5.247   2.462  0.5725 -0.0714 -0.0555
    4MOL0     C  421   1.022   5.210   2.439 -0.0312  0.6420  0.4622
    4MOL0     C  422   1.072   5.081   2.468 -0.2772  0.1916 -0.5702
    4MOL0     C  423   1.202   5.053   2.437 -0.4806  0.2790 -0.0287
    4MOL0     C  424   1.286   5.150   2.361  0.1267  0.1642 -0.0520
    4MOL0     C  425   1.426   5.134   2.333 -0.1271 -0.0551 -1.2427
    4MOL0     O  426   1.496   5.247   2.319 -0.2747 -0.4379 -0.4313
    4MOL0     C  427   1.632   5.239   2.307  0.6792  1.0105 -0.1545
    4MOL0     C  428   1.684   5.242   2.171  0.4305 -0.1901 -0.0844
    4MOL0     C  429   1.820   5.233   2.153 -0.3892  0.0330 -0.3709
    4MOL0     C  430   1.908   5.203   2.255 -0.1937  0.1851 -0.7447
    4MOL0     O  431   2.044   5.202   2.239 -0.2590 -0.0441 -0.1565
    4MOL0     C  432   2.140   5.258   2.337  0.5476  0.5470  0.2011
    4MOL0     C  433   2.267   5.321   2.266  0.7547  0.8593 -0.3306
    4MOL0     C  434   2.239   5.459   2.197 -0.5447 -0.3763  0.9671
    4MOL0     C  435   2.372   5.504   2.129  0.3809  0.3474  0.9878
    4MOL0     C  436   2.467   5.561   2.232 -0.5865  0.1197 -0.3377
    4MOL0     C  437   2.603   5.496   2.225 -1.0175  0.7352  1.0430
    4MOL0     C  438   2.679   5.514   2.353 -0.4697 -0.0449 -0.5719
    4MOL0     C  439   2.828   5.477   2.365  0.3475 -0.0996  0.3414
    4MOL0    Cl  440   2.870   5.460   2.541 -0.0445  0.0244 -0.1402
    4MOL0     C  441   1.851   5.192   2.385 -0.4957 -0.6761 -0.1093
    4MOL0     C  442   1.720   5.207   2.414 -0.0916  0.1242 -0.0799
    4MOL0     O  443   1.461   5.024   2.303  0.2607 -0.0412 -0.0778
    4MOL0     C  444   1.233   5.278   2.340 -0.2726  0.2753  0.3162
    4MOL0     C  445   1.097   5.304   2.378 -0.7789  0.7128 -0.0442
    4MOL0     N  446   0.178   5.062   2.515  0.2562 -0.2096  0.1659
    4MOL0     N  447   0.095   4.993   2.580  0.0832 -0.2862  0.3845
    4MOL0     C  448   0.418   4.149   2.863 -0.2699  0.5760  0.0109
    4MOL0     C  449   0.509   4.163   2.968 -0.4700  0.3025  0.3838
    4MOL0     C  450   0.667   4.138   3.429  0.7472 -0.8031 -0.2031
    4MOL0     C  451   0.640   4.141   3.563 -0.4651  0.0054 -0.3487
    4MOL0     C  452   0.746   4.169   3.649 -0.2704 -0.5162  0.3952
    4MOL0     C  453   0.885   4.168   3.610  0.5116 -0.1257  0.1607
    4MOL0     O  454   0.990   4.186   3.693  0.3234 -0.3340  0.4966
    4MOL0     C  455   0.974   4.235   3.828  0.1993 -0.6228  0.1258
    4MOL0     C  456   0.955   4.122   3.930 -0.7092 -0.7234  0.5581
    4MOL0     C  457   1.078   4.034   3.953  0.4623  0.6578  0.5680
    4MOL0     C  458   1.089   3.958   4.086 -0.1099  0.1902 -0.2149
    4MOL0     C  459   0.982   3.967   4.173 -0.3715 -0.1196  0.3984
    4MOL0     C  460   0.890   3.994   4.249 -0.4105 -0.0008 -0.0844
    4MOL0     C  461   0.906   4.145   3.475 -0.4107 -0.0495  0.1864
    4MOL0     C  462   0.799   4.141   3.385  0.1616 -0.8279 -0.1868
    4MOL0     H  463   0.380   3.954   3.186  1.3686  0.1585 -0.0027
    4MOL0     H  464   0.225   3.907   2.995  1.0700 -2.3020 -1.3340
    4MOL0     H  465   0.068   4.079   2.888  0.5757  0.5027 -0.2322
    4MOL0     H  466   0.081   3.927   2.814  2.8724 -0.8259 -1.2568
    4MOL0     H  467  -0.103   4.093   2.716 -0.0442 -1.4221  0.2924
    4MOL0     H  468   0.007   4.010   2.600  1.9292  0.7031 -0.4626
    4MOL0     H  469  -0.027   4.252   2.536  1.6732  3.1716 -1.1980
    4MOL0     H  470   0.136   4.227   2.582 -0.4447 -1.0847  0.2123
    4MOL0     H  471  -0.077   4.342   2.767 -0.2011  4.6473  1.3819
    4MOL0     H  472   0.088   4.320   2.810 -1.9545 -0.7094  1.0740
    4MOL0     H  473  -0.020   4.513   2.593  1.0770  1.1454 -0.0140
    4MOL0     H  474   0.142   4.457   2.587 -2.5282 -2.6290 -2.4005
    4MOL0     H  475   0.150   4.537   2.845  1.9998  0.1256 -0.2945
    4MOL0     H  476  -0.006   4.607   2.811  0.1696  2.1462  0.8561
    4MOL0     H  477   0.268   4.675   2.686 -0.3760 -1.5495 -2.7608
    4MOL0     H  478   0.125   4.705   2.589 -0.5241 -2.5116  0.1404
    4MOL0     H  479   0.216   4.819   2.833 -0.0536  0.6600 -0.7952
    4MOL0     H  480   0.031   4.815   2.808 -0.3890 -2.6139 -0.3119
    4MOL0     H  481   0.347   5.023   2.790 -0.3415 -3.0110  0.2969
    4MOL0     H  482   0.395   5.269   2.535  3.9192  0.8435 -0.6906
    4MOL0     H  483   0.397   5.153   2.398  1.1813  0.7283  0.2325
    4MOL0     H  484   0.567   5.014   2.518 -1.0450 -0.6764  1.1625
    4MOL0     H  485   0.564   5.111   2.661 -1.9193  2.1372 -0.3160
    4MOL0     H  486   0.634   5.236   2.391  2.2738  1.0120 -0.6673
    4MOL0     H  487   0.659   5.298   2.557 -0.9598  0.4530 -0.6334
    4MOL0     H  488   0.793   5.077   2.402  0.3068  0.0111 -1.0141
    4MOL0     H  489   0.809   5.092   2.583 -4.6249 -0.1518  0.3169
    4MOL0     H  490   1.010   5.001   2.509 -2.0065  1.8563  0.1939
    4MOL0     H  491   1.224   4.949   2.459 -0.8354  0.1828 -0.1126
    4MOL0     H  492   1.632   5.269   2.080  1.3585  2.2119  0.0152
    4MOL0     H  493   1.872   5.230   2.058 -0.6825  0.9406 -0.5701
    4MOL0     H  494   2.163   5.190   2.419  1.5956  1.5531  0.7608
    4MOL0     H  495   2.083   5.339   2.383  0.9078  1.3489 -0.7222
    4MOL0     H  496   2.315   5.241   2.210 -0.5841  0.0260 -0.3193
    4MOL0     H  497   2.325   5.350   2.354 -0.7452 -2.0308  1.7507
    4MOL0     H  498   2.209   5.533   2.272  1.0006 -1.1387  2.4123
    4MOL0     H  499   2.158   5.450   2.124  0.5842 -1.3075 -0.2171
    4MOL0     H  500   2.407   5.411   2.082  2.0622  1.6735 -0.5570
    4MOL0     H  501   2.344   5.574   2.050  0.3133 -1.1833 -0.3899
    4MOL0     H  502   2.425   5.551   2.332 -0.3616 -3.2061 -0.4648
    4MOL0     H  503   2.474   5.668   2.212 -2.8313  0.0727 -1.7456
    4MOL0     H  504   2.663   5.535   2.143 -0.0898 -0.0746  1.3126
    4MOL0     H  505   2.587   5.389   2.206 -1.9965  0.6927  1.9387
    4MOL0     H  506   2.666   5.619   2.377 -0.8279  0.1345 -1.5173
    4MOL0     H  507   2.622   5.444   2.415 -1.0998 -1.1875 -2.3459
    4MOL0     H  508   2.883   5.555   2.312  2.1420 -0.6689  1.3017
    4MOL0     H  509   2.833   5.378   2.320  0.6899  0.8880 -1.9446
    4MOL0     H  510   1.923   5.179   2.465 -1.2234  3.0528  1.3666
    4MOL0     H  511   1.678   5.182   2.511 -1.0010  0.1412 -0.4614
    4MOL0     H  512   1.299   5.348   2.289  0.8858 -1.8606 -1.2595
    4MOL0     H  513   1.065   5.404   2.352 -2.0812  1.2340  3.1188
    4MOL0     H  514   0.413   4.216   2.778 -0.4411  1.2417  0.5447
    4MOL0     H  515   0.596   4.228   2.968 -1.1510  1.2557 -0.4723
    4MOL0     H  516   0.538   4.132   3.597 -0.6104  1.0820 -0.4695
    4MOL0     H  517   0.714   4.198   3.749  0.6502  4.1926 -0.4629
    4MOL0     H  518   0.888   4.302   3.837  2.0053  1.5742  2.1009
    4MOL0     H  519   1.063   4.293   3.854 -0.9158  2.2569 -1.9133
    4MOL0     H  520   0.930   4.175   4.023  1.3219 -2.3082  2.1102
    4MOL0     H  521   0.868   4.063   3.900 -1.7422  1.1854 -0.4283
    4MOL0     H  522   1.167   4.098   3.945 -0.7104  2.2767 -0.1759
    4MOL0     H  523   1.065   3.954   3.879  1.6523 -0.5640  1.6364
    4MOL0     H  524   1.110   3.857   4.048  2.6605  1.3946 -2.2315
    4MOL0     H  525   1.177   3.981   4.145 -0.8586  0.9559  0.6365
    4MOL0     H  526   0.817   4.005   4.327  0.5381 -1.2687  1.0259
    4MOL0     H  527   1.005   4.110   3.446 -0.9099 -0.3453 -1.2361
    4MOL0     H  528   0.809   4.128   3.278 -1.4314 -0.8714 -0.3569
    5MOL0     O  529   8.719   1.664   0.495 -0.6708  0.0392 -0.0377
    5MOL0     C  530   8.794   1.744   0.439  1.1415  0.2188 -0.2932
    5MOL0     O  531   8.760   1.864   0.391  0.1038  0.2897  0.4773
    5MOL0     C  532   8.636   1.880   0.330  0.3729 -0.0912 -0.8433
    5MOL0     C  533   8.545   1.781   0.293 -0.9334 -0.4852  0.3912
    5MOL0     C  534   8.420   1.815   0.232 -0.2631 -0.3658 -0.4116
    5MOL0     C  535   8.404   1.938   0.190 -0.4658 -0.1942 -0.2694
    5MOL0     O  536   8.300   1.958   0.111  0.2811  0.4756 -0.7768
    5MOL0     C  537   8.281   2.088   0.055 -0.3520 -0.1579 -0.6518
    5MOL0     C  538   8.158   2.081  -0.029  0.2353 -0.5424  0.1024
    5MOL0     C  539   8.153   2.185  -0.141 -0.0299 -0.6556 -0.4967
    5MOL0     C  540   8.078   2.313  -0.105 -0.3855  0.4264 -0.6675
    5MOL0     C  541   7.924   2.305  -0.053 -0.7303  0.2989 -0.3485
    5MOL0     C  542   7.838   2.222  -0.161 -0.0093  0.5765 -0.0232
    5MOL0     C  543   7.688   2.259  -0.154  0.0118  0.9094  0.2851
    5MOL0     C  544   7.650   2.372  -0.238  0.5833  0.8918  0.1466
    5MOL0     N  545   7.504   2.380  -0.264 -0.4434  0.2612 -0.6149
    5MOL0     C  546   7.401   2.412  -0.182  1.3446 -0.0115 -0.0096
    5MOL0     C  547   7.283   2.375  -0.248  0.3716 -0.2307  0.1598
    5MOL0     C  548   7.147   2.398  -0.191 -0.8974  0.4192  0.4185
    5MOL0     C  549   7.106   2.543  -0.207 -1.0745  0.9322  0.9606
    5MOL0     C  550   6.970   2.560  -0.141 -0.0479 -0.5273  0.9720
    5MOL0     C  551   6.919   2.700  -0.182  0.3119  0.0236  0.2223
    5MOL0     O  552   6.844   2.699  -0.297 -0.6664 -0.4622 -0.3234
    5MOL0     C  553   6.706   2.674  -0.290  0.3948 -1.3496 -0.5743
    5MOL0     C  554   6.637   2.638  -0.174 -0.1902  0.5019 -1.3052
    5MOL0     C  555   6.499   2.617  -0.177  0.8843  0.1943  0.6150
    5MOL0     C  556   6.430   2.647  -0.298  0.0956 -0.1517 -0.5493
    5MOL0     C  557   6.276   2.631  -0.300 -0.9610  0.0998 -0.5810
    5MOL0     O  558   6.227   2.601  -0.424  0.4683 -0.1114 -0.2211
    5MOL0     C  559   6.088   2.599  -0.443  0.5956 -0.3479  0.7102
    5MOL0     C  560   6.035   2.511  -0.535  0.5051  0.2477 -0.7910
    5MOL0     C  561   5.896   2.498  -0.555 -0.0096  0.7152  0.3981
    5MOL0     C  562   5.805   2.585  -0.485 -0.2059 -0.7507  0.6033
    5MOL0     O  563   5.681   2.586  -0.536 -0.2988 -0.3260 -0.1766
    5MOL0     C  564   5.580   2.654  -0.470  0.6558  0.0092 -0.6724
    5MOL0     C  565   5.443   2.612  -0.513 -0.6243  0.3010 -0.1076
    5MOL0     C  566   5.412   2.610  -0.658 -0.2565 -1.4716  0.1658
    5MOL0     C  567   5.275   2.559  -0.683 -1.4086 -0.4376  0.5409
    5MOL0     C  568   5.198   2.640  -0.784 -0.2669  0.6362 -0.6449
    5MOL0     C  569   5.063   2.564  -0.814  0.2138  0.1807 -0.3360
    5MOL0     C  570   5.093   2.460  -0.915 -0.2547  0.4555  1.0162
    5MOL0     C  571   4.976   2.419  -0.997  0.6365  0.0474 -0.0687
    5MOL0    Cl  572   4.942   2.569  -1.108 -0.0321  0.0615 -0.1074
    5MOL0     C  573   5.857   2.666  -0.389  0.5400  0.0363  0.4665
    5MOL0     C  574   5.996   2.678  -0.372 -0.8171  0.4615 -0.0850
    5MOL0     O  575   6.209   2.642  -0.195 -0.8508  0.3794  0.0331
    5MOL0     C  576   6.501   2.655  -0.418 -0.5361 -0.0756  0.4546
    5MOL0     C  577   6.638   2.684  -0.411  0.2670 -0.6564  0.1302
    5MOL0     N  578   7.324   2.323  -0.371  0.7191 -0.1650  0.8387
    5MOL0     N  579   7.455   2.326  -0.377  0.2044 -0.0848 -0.5107
    5MOL0     C  580   8.493   2.040   0.214 -0.0791  0.2240  0.3249
    5MOL0     C  581   8.611   2.004   0.281  0.5001  0.1833  0.2291
    5MOL0     C  582   8.927   1.713   0.455 -0.3121  0.3712 -0.7395
    5MOL0     C  583   8.978   1.660   0.572 -0.3653  0.0873 -0.8321
    5MOL0     C  584   9.120   1.636   0.587  0.0730 -0.0936  0.4844
    5MOL0     C  585   9.217   1.673   0.491  0.2117 -0.0419  0.2115
    5MOL0     O  586   9.353   1.668   0.506 -0.1866 -0.6981  0.5854
    5MOL0     C  587   9.397   1.710   0.639 -1.0867  0.3488  0.8197
    5MOL0     C  588   9.552   1.739   0.636  0.7651  0.0982  0.3045
    5MOL0     C  589   9.586   1.875   0.574 -0.1265 -0.1892 -0.2694
    5MOL0     C  590   9.735   1.912   0.568  0.4088  0.5165 -0.3703
    5MOL0     C  591   9.797   1.926   0.700 -0.1244 -0.7923  0.2757
    5MOL0     C  592   9.850   1.954   0.807  1.2625 -0.0939 -0.6207
    5MOL0     C  593   9.161   1.718   0.368 -0.5649 -0.0979 -0.5904
    5MOL0     C  594   9.023   1.738   0.349  0.4979  1.0100  0.5162
    5MOL0     H  595   8.557   1.675   0.315  0.1312 -0.8401 -1.6293
    5MOL0     H  596   8.354   1.738   0.195  1.4948 -1.0569 -2.3110
    5MOL0     H  597   8.369   2.130   0.006  0.5216 -3.2402 -1.9906
    5MOL0     H  598   8.256   2.165   0.128  0.8737  0.3273 -0.7252
    5MOL0     H  599   8.069   2.080   0.035  0.4381 -1.8616  0.4037
    5MOL0     H  600   8.143   1.983  -0.075 -0.7467 -0.1578 -0.4276
    5MOL0     H  601   8.104   2.139  -0.228 -0.9630  0.2881 -0.4920
    5MOL0     H  602   8.253   2.207  -0.180 -1.3692  1.8548 -2.9499
    5MOL0     H  603   8.135   2.366  -0.028  3.7423 -0.9472 -2.5171
    5MOL0     H  604   8.070   2.380  -0.192 -3.6033  0.6787 -0.3067
    5MOL0     H  605   7.883   2.407  -0.053  0.4696  0.8106 -1.7985
    5MOL0     H  606   7.924   2.258   0.046  4.2114  0.5136 -0.0117
    5MOL0     H  607   7.853   2.115  -0.150  1.2102  0.6353 -0.8915
    5MOL0     H  608   7.869   2.241  -0.265 -2.3360  2.4871 -0.4571
    5MOL0     H  609   7.634   2.168  -0.183 -0.5638 -0.5178  5.0244
    5MOL0     H  610   7.659   2.277  -0.050  0.7424  0.2141  0.6218
    5MOL0     H  611   7.700   2.359  -0.334 -1.6334 -0.5448 -0.8908
    5MOL0     H  612   7.680   2.467  -0.192  0.8265  0.4883  0.8401
    5MOL0     H  613   7.400   2.448  -0.080 -2.3615  1.7844 -0.4834
    5MOL0     H  614   7.137   2.375  -0.084 -2.3488  1.6175  0.5719
    5MOL0     H  615   7.085   2.325  -0.244  0.8794 -0.4240 -0.6058
    5MOL0     H  616   7.092   2.559  -0.314 -0.5551 -0.5877  0.6448
    5MOL0     H  617   7.191   2.608  -0.183 -0.6968 -0.5010  4.0421
    5MOL0     H  618   6.895   2.484  -0.166 -2.3886  2.4941 -2.2283
    5MOL0     H  619   6.975   2.573  -0.032 -1.4548  3.5238  0.7162
    5MOL0     H  620   7.011   2.760  -0.184  0.3776 -0.0355  1.0482
    5MOL0     H  621   6.870   2.757  -0.102  2.6650  3.1535 -0.3364
    5MOL0     H  622   6.691   2.634  -0.080  1.0341  1.4748 -1.9235
    5MOL0     H  623   6.433   2.598  -0.093 -1.2606 -0.1785 -1.0494
    5MOL0     H  624   6.099   2.443  -0.590 -0.8119 -1.4361 -0.3358
    5MOL0     H  625   5.852   2.428  -0.625  3.9941 -0.1894 -1.5062
    5MOL0     H  626   5.587   2.763  -0.471  0.5335  0.0190 -1.9617
    5MOL0     H  627   5.590   2.640  -0.362 -2.4528  4.1780  0.4261
    5MOL0     H  628   5.375   2.669  -0.449  0.7227  1.6500  0.1756
    5MOL0     H  629   5.444   2.506  -0.484 -0.5807 -0.2260 -1.9205
    5MOL0     H  630   5.487   2.551  -0.712  2.0940 -0.3912  2.0368
    5MOL0     H  631   5.409   2.716  -0.685  0.3643 -1.1708  1.2060
    5MOL0     H  632   5.300   2.461  -0.725 -0.5380  0.8158 -2.1027
    5MOL0     H  633   5.225   2.545  -0.587  4.1044  0.4448  3.9164
    5MOL0     H  634   5.245   2.657  -0.881 -1.0399 -2.6304 -1.7000
    5MOL0     H  635   5.172   2.740  -0.746  0.1469  0.5132 -0.0267
    5MOL0     H  636   4.979   2.626  -0.848  0.7586  0.9027 -0.3900
    5MOL0     H  637   5.026   2.538  -0.714 -1.4028  2.0963 -0.3682
    5MOL0     H  638   5.163   2.506  -0.986 -0.6346 -0.2385  0.1659
    5MOL0     H  639   5.137   2.374  -0.864  1.9834  2.7830  3.2919
    5MOL0     H  640   4.886   2.397  -0.939  0.4820  2.1638  0.5988
    5MOL0     H  641   4.993   2.332  -1.060 -0.0212  0.9880 -1.6318
    5MOL0     H  642   5.790   2.737  -0.341  1.0730  0.5074  0.5221
    5MOL0     H  643   6.025   2.758  -0.304  1.4574 -1.3149  1.1819
    5MOL0     H  644   6.449   2.666  -0.512  0.3901 -0.8876 -0.1720
    5MOL0     H  645   6.684   2.702  -0.508 -0.6559 -1.5027 -0.4828
    5MOL0     H  646   8.491   2.145   0.186  0.0242  0.5396  1.4338
    5MOL0     H  647   8.690   2.075   0.302  1.8601 -1.3278  0.3947
    5MOL0     H  648   8.922   1.648   0.664 -1.1137 -0.6321 -1.3635
    5MOL0     H  649   9.160   1.600   0.681 -0.6417  0.2063  0.9165
    5MOL0     H  650   9.379   1.626   0.707 -0.2849  1.6562  2.7414
    5MOL0     H  651   9.346   1.796   0.683 -1.5391  0.0374  0.9034
    5MOL0     H  652   9.586   1.752   0.739  1.2856  3.2827 -0.1959
    5MOL0     H  653   9.606   1.655   0.592  0.9124  1.0866 -1.4876
    5MOL0     H  654   9.525   1.944   0.633 -0.3656 -1.9776  1.7087
    5MOL0     H  655   9.559   1.867   0.468  0.9161  0.3886 -0.5898
    5MOL0     H  656   9.783   1.843   0.497 -1.1694 -1.7451  0.6343
    5MOL0     H  657   9.728   2.016   0.537 -2.9559  0.8338  1.0799
    5MOL0     H  658   9.898   1.962   0.902 -1.1913  0.1336  0.6765
    5MOL0     H  659   9.228   1.725   0.283  0.6860  0.9753  0.4262
    5MOL0     H  660   8.990   1.776   0.253 -0.3740 -2.5197 -0.6984
    6MOL0     O  661   4.207   2.611   4.617 -0.0019  0.5196 -0.3985
    6MOL0     C  662   4.280   2.587   4.523  1.3103 -0.1099  0.5615
    6MOL0     O  663   4.232   2.565   4.398 -0.5367  0.7286 -0.3404
    6MOL0     C  664   4.102   2.585   4.358 -0.1982  0.6159 -0.4602
    6MOL0     C  665   4.052   2.495   4.262  0.7874 -1.1082 -0.7486
    6MOL0     C  666   3.921   2.514   4.214  0.3746  0.0114 -0.2688
    6MOL0     C  667   3.845   2.627   4.254 -0.3862  0.6565  0.1623
    6MOL0     O  668   3.720   2.628   4.192  0.0186  0.1576 -0.0334
    6MOL0     C  669   3.654   2.759   4.210  0.9931  0.0189  0.1706
    6MOL0     C  670   3.528   2.766   4.138  0.9741 -0.4550  0.4579
    6MOL0     C  671   3.443   2.896   4.178 -0.3408  0.2288 -0.1342
    6MOL0     C  672   3.303   2.850   4.125  0.5940  0.6374  0.5503
    6MOL0     C  673   3.227   2.982   4.090 -0.1870 -0.3301 -0.9238
    6MOL0     C  674   3.251   3.009   3.942 -0.7154  0.1655 -0.5409
    6MOL0     C  675   3.200   3.154   3.909  0.6384  0.4381  0.3406
    6MOL0     C  676   3.299   3.263   3.949  0.1653  0.2924  0.6728
    6MOL0     N  677   3.425   3.256   3.886 -0.4866  0.1070 -0.3128
    6MOL0     C  678   3.464   3.226   3.759  1.2879 -0.2440  0.3156
    6MOL0     C  679   3.599   3.218   3.758  0.4038 -0.1507 -0.5201
    6MOL0     C  680   3.686   3.184   3.641  0.1602  1.0807  0.2044
    6MOL0     C  681   3.837   3.199   3.647 -0.3122 -0.4762 -0.1266
    6MOL0     C  682   3.910   3.115   3.751 -0.7381 -0.5292  0.0262
    6MOL0     C  683   4.059   3.137   3.751 -0.3216  0.0073  0.4584
    6MOL0     O  684   4.115   3.091   3.629 -0.4533  0.3731 -0.1524
    6MOL0     C  685   4.251   3.094   3.613 -0.7887 -0.3885  0.2909
    6MOL0     C  686   4.297   3.059   3.482 -0.3370  0.5581  0.3162
    6MOL0     C  687   4.431   3.057   3.454  0.3057  0.4270 -0.1986
    6MOL0     C  688   4.529   3.093   3.546  0.8586 -0.9542 -0.0046
    6MOL0     C  689   4.670   3.089   3.516 -0.4354 -0.3164 -0.5023
    6MOL0     O  690   4.759   3.106   3.625 -0.2546 -0.0390  0.1118
    6MOL0     C  691   4.897   3.092   3.610  0.2306  0.5855 -0.6602
    6MOL0     C  692   4.953   2.990   3.528 -0.1199 -0.3944 -1.1619
    6MOL0     C  693   5.090   2.979   3.518  0.2630 -0.9726 -0.0300
    6MOL0     C  694   5.172   3.060   3.594 -0.3161 -0.7619 -0.2729
    6MOL0     O  695   5.310   3.040   3.576 -0.1259  0.1741 -0.0608
    6MOL0     C  696   5.396   3.073   3.686 -0.0742 -0.1963  0.2436
    6MOL0     C  697   5.535   3.010   3.642 -0.1905 -0.4812  0.0644
    6MOL0     C  698   5.632   2.980   3.756 -0.2036  0.2466 -0.0545
    6MOL0     C  699   5.770   2.944   3.695  0.6446  0.1945  0.4515
    6MOL0     C  700   5.876   2.943   3.803 -0.3408  0.8130  0.3849
    6MOL0     C  701   6.015   2.906   3.740  0.0534  0.2615 -0.2245
    6MOL0     C  702   6.133   2.927   3.827  0.2369  0.2807 -0.1735
    6MOL0     C  703   6.255   2.848   3.774 -0.0788 -0.9323 -0.2913
    6MOL0    Cl  704   6.285   2.875   3.608 -0.3352 -0.2712 -0.0718
    6MOL0     C  705   5.120   3.155   3.683  0.5712 -0.5605 -0.0733
    6MOL0     C  706   4.981   3.166   3.693  1.0208  0.0246 -0.5406
    6MOL0     O  707   4.704   3.066   3.397 -0.2565 -0.6389  0.2943
    6MOL0     C  708   4.484   3.126   3.675  0.2829 -0.4667  0.3581
    6MOL0     C  709   4.345   3.130   3.713 -0.5754  0.3997  0.2011
    6MOL0     N  710   3.646   3.241   3.884  0.5785 -0.4304  0.3494
    6MOL0     N  711   3.546   3.258   3.958 -0.5351 -0.0159  1.0135
    6MOL0     C  712   3.898   2.712   4.350  0.5015  0.0468 -0.2665
    6MOL0     C  713   4.027   2.691   4.398  0.7529 -0.4333 -0.3668
    6MOL0     C  714   4.422   2.590   4.549 -0.3595  0.0248  0.1697
    6MOL0     C  715   4.481   2.613   4.680 -0.3755  0.9687  0.5474
    6MOL0     C  716   4.621   2.607   4.698  0.0875 -0.0552  0.5143
    6MOL0     C  717   4.708   2.575   4.592  0.2492  0.0150  1.0662
    6MOL0     O  718   4.844   2.567   4.615  0.6340 -0.1984  0.0288
    6MOL0     C  719   4.918   2.633   4.515 -0.9717 -0.9918  0.3514
    6MOL0     C  720   5.040   2.694   4.588 -0.9644  0.0824 -0.5574
    6MOL0     C  721   5.130   2.588   4.646 -0.2392 -0.3309  0.2505
    6MOL0     C  722   5.274   2.635   4.657  0.4458  0.5736 -0.3045
    6MOL0     C  723   5.370   2.530   4.710 -0.2992 -0.2273  0.7706
    6MOL0     C  724   5.452   2.452   4.755  0.2638  0.4567  0.2783
    6MOL0     C  725   4.648   2.548   4.469 -0.4291 -0.2927 -0.1392
    6MOL0     C  726   4.513   2.567   4.442 -0.1725  0.1593 -0.0218
    6MOL0     H  727   4.117   2.418   4.223  1.5667 -1.0631  0.4298
    6MOL0     H  728   3.869   2.464   4.132 -1.4721  2.0012 -0.3987
    6MOL0     H  729   3.716   2.843   4.179 -1.2447  2.0196  0.7947
    6MOL0     H  730   3.628   2.770   4.316  0.0301 -1.1727  0.0803
    6MOL0     H  731   3.473   2.676   4.164  1.0284 -0.5454  0.2601
    6MOL0     H  732   3.554   2.758   4.032 -0.1659 -1.3470  0.2220
    6MOL0     H  733   3.482   2.983   4.125 -2.1641 -0.1021 -2.1491
    6MOL0     H  734   3.440   2.914   4.285  0.4905  2.6421 -0.4688
    6MOL0     H  735   3.307   2.789   4.034  0.4989  1.2124  0.1586
    6MOL0     H  736   3.242   2.788   4.192 -1.0232  2.7648  1.1541
    6MOL0     H  737   3.267   3.061   4.155 -0.5389 -2.6914  2.4153
    6MOL0     H  738   3.121   2.964   4.108  0.1008 -1.8669 -0.6574
    6MOL0     H  739   3.192   2.934   3.889 -1.0037  0.8234 -1.1741
    6MOL0     H  740   3.358   3.010   3.920 -0.5154  4.7615 -0.3060
    6MOL0     H  741   3.166   3.165   3.806 -1.6755  0.2560  1.0269
    6MOL0     H  742   3.103   3.169   3.958  0.4897  2.4590 -0.4469
    6MOL0     H  743   3.318   3.252   4.056  1.3204 -1.2966  0.3367
    6MOL0     H  744   3.255   3.362   3.935  0.4947  0.8634  3.1755
    6MOL0     H  745   3.398   3.214   3.674  2.8621  2.0496 -1.3627
    6MOL0     H  746   3.650   3.246   3.559 -1.2289  2.0176  1.4636
    6MOL0     H  747   3.658   3.081   3.615 -3.4983  1.8198  0.6285
    6MOL0     H  748   3.865   3.303   3.667  0.5820 -0.6329 -0.5245
    6MOL0     H  749   3.873   3.169   3.548 -1.0478 -2.2574  0.0976
    6MOL0     H  750   3.867   3.126   3.851 -1.4743 -1.4607 -0.1824
    6MOL0     H  751   3.893   3.010   3.727  0.0746 -0.8527  0.8394
    6MOL0     H  752   4.105   3.079   3.832  1.1172 -2.5938 -2.0219
    6MOL0     H  753   4.073   3.245   3.755 -0.0989  0.2115 -3.0154
    6MOL0     H  754   4.226   3.035   3.404  0.6986  2.5778 -1.3628
    6MOL0     H  755   4.459   3.025   3.354 -1.5244 -3.6415  0.3700
    6MOL0     H  756   4.893   2.932   3.459 -2.1940  2.7128 -2.1630
    6MOL0     H  757   5.139   2.909   3.451  0.7548 -0.6383 -0.0225
    6MOL0     H  758   5.357   3.024   3.777  1.4779 -1.6511  0.1620
    6MOL0     H  759   5.406   3.180   3.703  3.6981 -0.5615  1.1924
    6MOL0     H  760   5.585   3.072   3.567 -2.7290  1.2972 -0.2981
    6MOL0     H  761   5.522   2.909   3.604 -1.5308 -0.3922  0.2355
    6MOL0     H  762   5.584   2.898   3.810 -0.9612  0.0045 -1.0655
    6MOL0     H  763   5.629   3.069   3.820 -1.3789 -0.0606  0.3487
    6MOL0     H  764   5.774   2.839   3.665  1.7001 -0.6128  3.1052
    6MOL0     H  765   5.798   3.007   3.610 -0.1851  0.3977  0.3194
    6MOL0     H  766   5.847   2.871   3.881  0.3462 -1.3117 -1.2284
    6MOL0     H  767   5.889   3.043   3.845  4.6023  0.8918 -0.7363
    6MOL0     H  768   6.037   2.976   3.658 -0.3111  1.3983  0.6114
    6MOL0     H  769   6.023   2.804   3.703 -0.2666  0.1455  0.0269
    6MOL0     H  770   6.146   3.035   3.832 -1.6738  0.5563 -0.2885
    6MOL0     H  771   6.107   2.881   3.923  2.9757  0.9522  0.9743
    6MOL0     H  772   6.233   2.743   3.799  1.3678 -1.1972 -0.0662
    6MOL0     H  773   6.347   2.865   3.830  0.5775 -1.0804 -1.3000
    6MOL0     H  774   5.175   3.220   3.750 -0.8367 -1.5108  2.1209
    6MOL0     H  775   4.919   3.222   3.761 -1.5178 -1.4144 -1.5201
    6MOL0     H  776   4.556   3.153   3.752  0.8792 -0.5132 -0.1730
    6MOL0     H  777   4.307   3.168   3.807 -0.6130  0.5395  0.1294
    6MOL0     H  778   3.832   2.786   4.396  1.2546  2.0406 -2.2196
    6MOL0     H  779   4.074   2.762   4.466  0.6886  1.4427 -2.1803
    6MOL0     H  780   4.416   2.622   4.767 -1.3275 -0.5737  0.0443
    6MOL0     H  781   4.661   2.626   4.797 -1.0849 -2.2414  1.4552
    6MOL0     H  782   4.865   2.722   4.479  2.2587  0.2223 -1.8998
    6MOL0     H  783   4.941   2.576   4.424 -1.3305 -1.1580  0.3629
    6MOL0     H  784   5.100   2.760   4.525  0.3243 -0.1176  0.4160
    6MOL0     H  785   5.002   2.752   4.672  0.0488  0.0103 -0.0317
    6MOL0     H  786   5.120   2.507   4.573 -2.0788 -0.4831  0.6099
    6MOL0     H  787   5.109   2.558   4.750  1.3799 -2.4818  0.0287
    6MOL0     H  788   5.309   2.678   4.563  1.2657  2.7530  0.9291
    6MOL0     H  789   5.268   2.719   4.727  2.0365  2.0518 -1.8448
    6MOL0     H  790   5.515   2.381   4.806  0.0197 -0.2177 -0.3411
    6MOL0     H  791   4.705   2.526   4.379 -2.7708 -2.1488 -1.2704
    6MOL0     H  792   4.470   2.541   4.346 -0.5743  1.0291 -0.0886
    7MOL0     O  793   6.331   4.169   9.870  0.0446  0.6000 -0.7618
    7MOL0     C  794   6.238   4.145   9.952  0.0971 -1.0074  0.1757
    7MOL0     O  795   6.107   4.166   9.934 -0.1948 -0.3358 -0.7193
    7MOL0     C  796   6.075   4.259   9.834 -0.0669  0.0552  0.5551
    7MOL0     C  797   5.959   4.240   9.760 -0.2497  0.2574 -0.0306
    7MOL0     C  798   5.911   4.343   9.682 -0.0684 -0.5544 -0.0403
    7MOL0     C  799   5.985   4.458   9.661 -0.3715 -0.5382 -0.1537
    7MOL0     O  800   5.930   4.557   9.586 -0.4966 -0.1514  0.4096
    7MOL0     C  801   5.821   4.634   9.641 -0.1421 -0.2645 -0.0114
    7MOL0     C  802   5.850   4.776   9.697  0.5256 -0.8425  0.0566
    7MOL0     C  803   5.959   4.803   9.805  0.2490  0.3983  0.5375
    7MOL0     C  804   5.937   4.718   9.933  0.5379 -0.1174 -0.3505
    7MOL0     C  805   6.052   4.745  10.027  0.3390  0.4183  0.0690
    7MOL0     C  806   6.036   4.662  10.161  0.5073 -1.0952  0.2254
    7MOL0     C  807   6.140   4.691  10.269 -0.5986 -0.2388 -0.5616
    7MOL0     C  808   6.123   4.616  10.395 -0.1512  0.6530  0.1458
    7MOL0     N  809   6.004   4.661  10.459  0.0385  0.3194  0.5990
    7MOL0     C  810   5.902   4.583  10.512  0.3100  1.8372  0.5732
    7MOL0     C  811   5.807   4.664  10.563 -0.0922  1.6174  0.4316
    7MOL0     C  812   5.677   4.633  10.628 -0.0841  0.3363  0.5126
    7MOL0     C  813   5.575   4.738  10.592  0.0931 -0.2565  1.1270
    7MOL0     C  814   5.513   4.739  10.454  0.6905 -0.8604  0.0105
    7MOL0     C  815   5.401   4.843  10.435  0.1794  0.3007  0.2379
    7MOL0     O  816   5.345   4.815  10.304 -0.3506  0.0182 -0.3116
    7MOL0     C  817   5.231   4.884  10.281  0.6896 -1.0866 -0.3385
    7MOL0     C  818   5.239   5.018  10.236  0.7359  0.0643 -0.9850
    7MOL0     C  819   5.112   5.089  10.224  0.4385  0.5919  0.1111
    7MOL0     C  820   4.986   5.030  10.250  0.3204  1.1591 -0.6436
    7MOL0     C  821   4.864   5.105  10.215  0.0020 -0.0030 -0.8445
    7MOL0     O  822   4.891   5.217  10.145 -0.3553 -0.3608  0.0369
    7MOL0     C  823   4.796   5.302  10.095  0.0891 -0.2758 -0.6592
    7MOL0     C  824   4.774   5.301   9.955 -0.1711  0.4304 -1.2341
    7MOL0     C  825   4.673   5.386   9.896 -0.2816  0.1937  0.0203
    7MOL0     C  826   4.598   5.468   9.977  0.4696  0.5402 -0.8227
    7MOL0     O  827   4.502   5.542   9.922  0.6282  0.3234  0.9139
    7MOL0     C  828   4.405   5.611  10.002 -0.3444 -0.4361  0.8694
    7MOL0     C  829   4.299   5.660   9.907 -0.1330  0.2111 -0.1059
    7MOL0     C  830   4.347   5.777   9.827 -0.1106  0.3911 -0.1948
    7MOL0     C  831   4.256   5.814   9.706  0.9526 -0.3889  0.0152
    7MOL0     C  832   4.274   5.952   9.647 -0.6678 -0.4412 -0.8538
    7MOL0     C  833   4.407   5.941   9.569  0.6799 -0.2659 -0.0398
    7MOL0     C  834   4.439   6.084   9.506 -0.0793  0.8993 -0.9207
    7MOL0     C  835   4.579   6.089   9.452  0.5669  0.1315 -0.1800
    7MOL0    Cl  836   4.615   5.949   9.335 -0.4343 -0.2980  0.5601
    7MOL0     C  837   4.618   5.465  10.118 -0.0357  0.3345 -0.3296
    7MOL0     C  838   4.713   5.386  10.175  0.2266  0.3163  0.5900
    7MOL0     O  839   4.748   5.055  10.228 -0.1063 -0.2964  1.1202
    7MOL0     C  840   4.983   4.892  10.291  0.5373 -0.9758 -0.5581
    7MOL0     C  841   5.107   4.826  10.307 -0.2024 -0.3648  0.4828
    7MOL0     N  842   5.858   4.793  10.555  0.3726 -0.3038  0.9929
    7MOL0     N  843   5.977   4.789  10.490  0.0886 -0.6805 -0.5016
    7MOL0     C  844   6.108   4.473   9.726  0.3270 -0.2604 -0.5452
    7MOL0     C  845   6.152   4.377   9.816 -0.4237  0.8032 -0.8830
    7MOL0     C  846   6.264   4.090  10.091 -0.1008 -0.0387  0.0354
    7MOL0     C  847   6.200   4.144  10.210 -0.7878  0.4790  0.0406
    7MOL0     C  848   6.232   4.072  10.328 -0.3614 -0.7291  1.2859
    7MOL0     C  849   6.313   3.960  10.335  0.3145  0.3028 -0.2271
    7MOL0     O  850   6.334   3.904  10.459 -0.6587  0.8981 -0.0971
    7MOL0     C  851   6.222   3.884  10.547  0.4829 -0.4299 -0.6988
    7MOL0     C  852   6.248   3.763  10.650 -0.0486  0.4853 -0.2878
    7MOL0     C  853   6.391   3.749  10.689 -0.0223  0.2773  0.2694
    7MOL0     C  854   6.462   3.873  10.755  0.4625 -1.0819 -0.1686
    7MOL0     C  855   6.402   3.928  10.879 -0.1211  0.0064  0.3962
    7MOL0     C  856   6.344   3.963  10.977  0.6667  0.3915 -0.3021
    7MOL0     C  857   6.381   3.917  10.224  0.5980  0.0316  0.3143
    7MOL0     C  858   6.353   3.980  10.099 -0.9843 -0.8975 -0.3167
    7MOL0     H  859   5.899   4.150   9.766 -1.7914  1.3170  1.3432
    7MOL0     H  860   5.815   4.328   9.635  0.6810 -0.5714 -1.6399
    7MOL0     H  861   5.774   4.556   9.701 -1.2635 -1.2460 -2.0684
    7MOL0     H  862   5.745   4.659   9.567 -0.7307 -1.2380  0.2481
    7MOL0     H  863   5.763   4.800   9.759  1.3569  0.2099  0.8429
    7MOL0     H  864   5.869   4.842   9.612  2.1164 -3.3187 -1.6519
    7MOL0     H  865   5.978   4.905   9.842  0.3889  1.5356 -2.3974
    7MOL0     H  866   6.043   4.752   9.757 -0.7472  0.1751 -1.0461
    7MOL0     H  867   5.841   4.741   9.979 -0.0902 -2.5059 -0.3362
    7MOL0     H  868   5.936   4.609   9.924 -0.5296 -0.0552 -1.1821
    7MOL0     H  869   6.053   4.851  10.053  0.0049  1.0785 -2.3907
    7MOL0     H  870   6.144   4.722   9.973  1.1475 -0.0538  1.5753
    7MOL0     H  871   6.036   4.555  10.136 -0.6378 -0.7590 -1.3916
    7MOL0     H  872   5.939   4.692  10.202  1.5292  1.1869  1.1456
    7MOL0     H  873   6.235   4.668  10.221 -1.2543  0.2498 -2.1403
    7MOL0     H  874   6.137   4.798  10.290  2.4727 -0.0332 -0.7530
    7MOL0     H  875   6.201   4.637  10.469  0.9033 -2.3980  0.0402
    7MOL0     H  876   6.127   4.509  10.371  3.3803  0.3549  1.4616
    7MOL0     H  877   5.887   4.476  10.502 -0.1054  1.9974 -0.5933
    7MOL0     H  878   5.694   4.634  10.736 -2.1582 -1.8981  0.9448
    7MOL0     H  879   5.645   4.536  10.590  0.7157  0.9717 -1.9812
    7MOL0     H  880   5.621   4.835  10.611  3.2699 -0.8305 -2.4065
    7MOL0     H  881   5.490   4.723  10.660 -1.8192 -3.2130 -1.6016
    7MOL0     H  882   5.589   4.761  10.379  0.9755 -0.1156  0.5047
    7MOL0     H  883   5.472   4.639  10.435  0.2729 -0.8502  0.8135
    7MOL0     H  884   5.445   4.943  10.433  4.6684 -1.4340 -0.0411
    7MOL0     H  885   5.318   4.820  10.502 -0.2681  2.3377  0.4509
    7MOL0     H  886   5.332   5.074  10.234  1.7202 -1.1612  2.6600
    7MOL0     H  887   5.111   5.194  10.195 -3.8283  0.5925 -0.3550
    7MOL0     H  888   4.825   5.218   9.906 -2.6815 -3.9958  2.7595
    7MOL0     H  889   4.639   5.375   9.794 -1.6894  1.8039  0.2737
    7MOL0     H  890   4.446   5.704  10.041  1.9238 -1.6344  1.4831
    7MOL0     H  891   4.364   5.549  10.083 -0.4059  1.3166  2.2310
    7MOL0     H  892   4.210   5.687   9.965 -1.1286  0.3590 -1.6428
    7MOL0     H  893   4.263   5.580   9.842  0.5864  0.1399 -0.4227
    7MOL0     H  894   4.444   5.755   9.781 -0.7512 -0.8204 -1.0269
    7MOL0     H  895   4.342   5.860   9.897 -1.8201 -0.8569  1.2513
    7MOL0     H  896   4.264   5.732   9.634  1.9391 -1.2242  1.0468
    7MOL0     H  897   4.156   5.819   9.748  0.0753 -1.8047 -1.7766
    7MOL0     H  898   4.275   6.021   9.733 -1.2533  1.4211 -2.2655
    7MOL0     H  899   4.190   5.984   9.584 -0.3860 -3.8315 -3.2188
    7MOL0     H  900   4.398   5.872   9.485 -2.6737  1.7275 -1.5404
    7MOL0     H  901   4.488   5.910   9.636 -0.8788 -3.4169  0.5696
    7MOL0     H  902   4.369   6.100   9.423  0.7787  0.4436 -1.7497
    7MOL0     H  903   4.417   6.161   9.581  2.0314  4.3974 -3.5851
    7MOL0     H  904   4.652   6.094   9.534 -0.8141  1.7319  1.0306
    7MOL0     H  905   4.585   6.188   9.407  0.2704  1.7097  2.9760
    7MOL0     H  906   4.558   5.527  10.184 -0.0629 -2.2015  2.2308
    7MOL0     H  907   4.741   5.391  10.280  3.8436 -2.1140 -0.0639
    7MOL0     H  908   4.883   4.852  10.301 -0.9156  2.5152  0.2272
    7MOL0     H  909   5.109   4.721  10.334 -0.7051 -1.0913 -2.0797
    7MOL0     H  910   6.166   4.565   9.719 -0.3523  0.0627 -2.4748
    7MOL0     H  911   6.238   4.417   9.868 -0.8526  3.4460 -2.0809
    7MOL0     H  912   6.142   4.235  10.221 -0.5490  0.5680  0.5562
    7MOL0     H  913   6.186   4.106  10.420  2.8096  3.1192  1.7138
    7MOL0     H  914   6.133   3.859  10.489 -3.4147  3.7356  2.7619
    7MOL0     H  915   6.195   3.969  10.611 -0.3928 -1.5473  0.4758
    7MOL0     H  916   6.188   3.787  10.738 -2.0762  0.6754 -1.6371
    7MOL0     H  917   6.222   3.670  10.599  3.1747 -0.5730 -0.1788
    7MOL0     H  918   6.430   3.727  10.589  2.9100  1.1869  1.1000
    7MOL0     H  919   6.419   3.663  10.751  0.3401 -1.5593 -2.2738
    7MOL0     H  920   6.559   3.833  10.787  1.5212  1.7055  0.3775
    7MOL0     H  921   6.482   3.951  10.681 -1.8699 -0.6004 -0.3732
    7MOL0     H  922   6.279   3.989  11.058 -1.2759  0.8348 -1.9301
    7MOL0     H  923   6.457   3.841  10.239  1.3659  0.8363  0.5708
    7MOL0     H  924   6.422   3.944  10.022  2.9670 -0.1809  2.5578
    8MOL0     O  925   3.915  11.156   0.322 -0.1034 -1.3215 -0.1051
    8MOL0     C  926   3.977  11.223   0.398 -0.1893 -0.9660 -0.6305
    8MOL0     O  927   3.933  11.332   0.458  0.3158 -0.1974  0.1347
    8MOL0     C  928   3.814  11.391   0.414  0.9345  0.0422 -0.4786
    8MOL0     C  929   3.729  11.450   0.510 -0.2401  1.0107 -0.5084
    8MOL0     C  930   3.625  11.537   0.478 -0.3891  0.1754  0.0243
    8MOL0     C  931   3.586  11.545   0.347  0.6526 -0.5285 -0.1158
    8MOL0     O  932   3.486  11.634   0.311 -0.4279  0.8694  0.5531
    8MOL0     C  933   3.382  11.634   0.417 -0.1595  0.4994 -0.3394
    8MOL0     C  934   3.258  11.697   0.355  0.7833  0.5870  0.0884
    8MOL0     C  935   3.182  11.590   0.260  0.8501 -0.9869 -0.2887
    8MOL0     C  936   3.069  11.512   0.324  0.3423 -1.0819 -0.0391
    8MOL0     C  937   3.005  11.405   0.234  0.7575 -0.3903  0.0042
    8MOL0     C  938   2.903  11.459   0.138  0.1474 -0.3636  0.2723
    8MOL0     C  939   2.883  11.366   0.021 -0.1911  0.3424 -0.0979
    8MOL0     C  940   2.794  11.426  -0.089 -0.1982 -0.9169  0.5923
    8MOL0     N  941   2.661  11.476  -0.036  0.1936 -0.0571  0.3591
    8MOL0     C  942   2.573  11.396   0.028  0.5283 -0.5064  0.3449
    8MOL0     C  943   2.497  11.480   0.098  0.1218  0.2964  0.5004
    8MOL0     C  944   2.375  11.446   0.170  0.5773 -0.0256  0.5017
    8MOL0     C  945   2.403  11.337   0.280  0.0597  0.0571  1.2849
    8MOL0     C  946   2.282  11.322   0.363  0.0001 -0.3664 -0.4764
    8MOL0     C  947   2.154  11.271   0.296 -0.7553 -0.1580 -0.0730
    8MOL0     O  948   2.173  11.183   0.187 -0.2474  0.2747  0.1280
    8MOL0     C  949   2.072  11.189   0.097  0.7626 -0.1710  1.3790
    8MOL0     C  950   1.934  11.160   0.135 -0.4973  0.3254  0.0511
    8MOL0     C  951   1.832  11.148   0.044 -0.5238 -0.5370 -0.6498
    8MOL0     C  952   1.864  11.178  -0.090  0.5175 -0.3242 -0.7653
    8MOL0     C  953   1.753  11.183  -0.185  0.5138  0.3742  0.0805
    8MOL0     O  954   1.785  11.156  -0.317 -0.4974 -0.6392 -0.1247
    8MOL0     C  955   1.701  11.221  -0.400 -0.0421 -0.4708 -0.1216
    8MOL0     C  956   1.754  11.343  -0.458  0.0080  0.5678 -0.3262
    8MOL0     C  957   1.671  11.414  -0.543 -0.0105  0.4040  0.1345
    8MOL0     C  958   1.538  11.372  -0.574  0.1216 -0.4382  0.6187
    8MOL0     O  959   1.457  11.437  -0.665 -0.2318 -0.5236 -0.0729
    8MOL0     C  960   1.478  11.575  -0.700 -0.1834  0.0448  0.0028
    8MOL0     C  961   1.361  11.606  -0.794  0.4237 -0.6495 -0.7842
    8MOL0     C  962   1.375  11.734  -0.880  0.0504  0.4860  0.9872
    8MOL0     C  963   1.368  11.859  -0.794  0.1402 -0.2310 -0.4897
    8MOL0     C  964   1.351  11.986  -0.877 -0.2756  0.1851  0.6188
    8MOL0     C  965   1.422  12.102  -0.819  1.2153  0.0121  0.3106
    8MOL0     C  966   1.360  12.138  -0.674 -0.4010 -0.1829  0.5430
    8MOL0     C  967   1.214  12.173  -0.682  0.0698 -0.2891  0.0062
    8MOL0    Cl  968   1.180  12.262  -0.825 -0.3546  0.1107 -0.2227
    8MOL0     C  969   1.496  11.247  -0.527 -0.7255 -0.8866 -0.4219
    8MOL0     C  970   1.586  11.175  -0.450 -0.2899  0.3986  0.0502
    8MOL0     O  971   1.639  11.207  -0.144  0.4012 -0.6733 -0.7760
    8MOL0     C  972   1.992  11.209  -0.138 -0.4668 -0.8408 -1.1792
    8MOL0     C  973   2.099  11.222  -0.040 -0.4592 -0.2635 -0.1309
    8MOL0     N  974   2.533  11.606   0.060 -0.6435  0.8333 -0.7023
    8MOL0     N  975   2.627  11.608  -0.025 -0.7855  1.0271  0.0516
    8MOL0     C  976   3.658  11.475   0.252 -0.5443 -0.5471  0.3660
    8MOL0     C  977   3.769  11.405   0.286 -0.0723  0.0738  0.0323
    8MOL0     C  978   4.120  11.188   0.411  0.6488  0.5162 -1.0382
    8MOL0     C  979   4.203  11.283   0.458  0.3594 -0.7339  0.2825
    8MOL0     C  980   4.340  11.263   0.479  0.6501  0.3237 -0.4496
    8MOL0     C  981   4.392  11.139   0.463 -0.1588  0.5504 -0.1699
    8MOL0     O  982   4.527  11.135   0.475  0.0579 -0.1487 -0.2854
    8MOL0     C  983   4.600  11.051   0.390  0.3720 -0.3416  0.6041
    8MOL0     C  984   4.739  11.108   0.341  0.0039  0.4863 -0.9962
    8MOL0     C  985   4.772  11.037   0.210  0.3250 -0.1454  0.5143
    8MOL0     C  986   4.911  11.058   0.163  0.1759  0.1378 -0.2026
    8MOL0     C  987   5.007  10.973   0.224  0.3536 -0.2490  0.2538
    8MOL0     C  988   5.096  10.919   0.272  0.2243  0.7282 -0.6979
    8MOL0     C  989   4.307  11.036   0.421  0.0579  0.2650  0.4196
    8MOL0     C  990   4.169  11.058   0.401 -0.6198 -0.3688  0.8093
    8MOL0     H  991   3.752  11.435   0.615 -2.4731 -0.5181 -0.1650
    8MOL0     H  992   3.584  11.594   0.561  0.1464 -0.5266  0.7967
    8MOL0     H  993   3.414  11.690   0.506  0.0629 -0.1174 -0.0231
    8MOL0     H  994   3.362  11.535   0.458  2.3215 -0.1081 -0.4592
    8MOL0     H  995   3.285  11.783   0.293 -2.3718  2.1415  0.6881
    8MOL0     H  996   3.187  11.729   0.432 -1.3998 -3.9176  0.2918
    8MOL0     H  997   3.254  11.523   0.213  2.8648  1.8478 -1.5228
    8MOL0     H  998   3.155  11.658   0.179  0.6335  0.9284  1.3295
    8MOL0     H  999   3.123  11.466   0.407  3.5308  1.2620 -0.6259
    8MOL0     H 1000   2.990  11.579   0.358  0.1824 -1.3164  0.0497
    8MOL0     H 1001   2.948  11.330   0.290  0.4105  0.2079  0.4553
    8MOL0     H 1002   3.090  11.365   0.179  0.3350 -0.8823 -0.3076
    8MOL0     H 1003   2.958  11.546   0.101 -2.2927  1.2472  0.1837
    8MOL0     H 1004   2.813  11.489   0.194  2.8144  1.6167  3.9503
    8MOL0     H 1005   2.977  11.340  -0.029 -1.2372 -0.9820 -1.4815
    8MOL0     H 1006   2.824  11.279   0.051 -2.4588  1.9116  0.3090
    8MOL0     H 1007   2.768  11.346  -0.158 -1.7373 -1.3142  1.5923
    8MOL0     H 1008   2.848  11.506  -0.141  1.6443  0.2050  3.9325
    8MOL0     H 1009   2.551  11.292   0.006 -0.6657  0.0089 -1.0459
    8MOL0     H 1010   2.307  11.408   0.094 -0.8715 -0.1995  1.8566
    8MOL0     H 1011   2.322  11.533   0.209 -0.2005 -1.0564  1.7850
    8MOL0     H 1012   2.491  11.367   0.337 -0.0735  1.0027  1.0114
    8MOL0     H 1013   2.429  11.242   0.232 -1.1889 -0.5047  1.6756
    8MOL0     H 1014   2.299  11.254   0.447 -2.0842 -0.1573  0.1680
    8MOL0     H 1015   2.267  11.422   0.404 -0.9520 -0.1972 -1.2110
    8MOL0     H 1016   2.113  11.365   0.259 -1.3530  0.8650  2.8664
    8MOL0     H 1017   2.084  11.227   0.368  0.8783 -1.0312  1.0302
    8MOL0     H 1018   1.914  11.125   0.236  0.4025  1.5455  0.6803
    8MOL0     H 1019   1.735  11.123   0.085  0.1106 -1.8693  0.0745
    8MOL0     H 1020   1.855  11.372  -0.433 -0.0356  0.5110 -0.0810
    8MOL0     H 1021   1.726  11.486  -0.602 -1.4928  0.4907 -1.2193
    8MOL0     H 1022   1.565  11.599  -0.761 -0.3916 -3.1732 -1.7610
    8MOL0     H 1023   1.470  11.644  -0.615 -1.4053 -0.3833  0.2624
    8MOL0     H 1024   1.267  11.606  -0.737  1.4760 -2.4835  1.0930
    8MOL0     H 1025   1.341  11.526  -0.867 -1.6444 -0.6155 -0.3272
    8MOL0     H 1026   1.292  11.748  -0.951  1.9612  1.8240 -1.1241
    8MOL0     H 1027   1.466  11.729  -0.939  0.5148  2.2713  1.4890
    8MOL0     H 1028   1.279  11.847  -0.732 -0.5403 -0.3539 -1.4854
    8MOL0     H 1029   1.447  11.868  -0.718 -0.7513  1.6492  0.2629
    8MOL0     H 1030   1.244  12.008  -0.886 -0.1560  1.2921  1.6771
    8MOL0     H 1031   1.387  11.967  -0.978 -0.3245 -1.0421  0.8167
    8MOL0     H 1032   1.409  12.190  -0.882 -1.6790  0.3966  1.3055
    8MOL0     H 1033   1.526  12.068  -0.816  1.2245 -0.1034 -1.0070
    8MOL0     H 1034   1.373  12.052  -0.607 -0.2738  0.8596  1.8954
    8MOL0     H 1035   1.411  12.228  -0.638 -0.2710 -0.3199  0.6991
    8MOL0     H 1036   1.186  12.232  -0.594 -1.0563  0.0518 -0.5661
    8MOL0     H 1037   1.148  12.087  -0.673 -0.4516  0.3697  5.1069
    8MOL0     H 1038   1.406  11.201  -0.565 -0.9690 -0.7061 -0.0645
    8MOL0     H 1039   1.555  11.081  -0.405  0.7908 -0.8015 -1.6205
    8MOL0     H 1040   2.018  11.227  -0.242  0.0560  1.2596 -0.7478
    8MOL0     H 1041   2.204  11.233  -0.066 -0.3593  0.2488  0.4583
    8MOL0     H 1042   3.630  11.488   0.147  0.8482  1.1535  0.1567
    8MOL0     H 1043   3.821  11.350   0.209  1.7095  0.2085  1.0737
    8MOL0     H 1044   4.166  11.381   0.487  2.3261  0.4313 -0.9039
    8MOL0     H 1045   4.409  11.338   0.517  1.6366  0.5442 -2.5531
    8MOL0     H 1046   4.534  11.022   0.308 -0.1167  1.0847  0.4551
    8MOL0     H 1047   4.632  10.961   0.444  0.0726 -2.3155 -2.3192
    8MOL0     H 1048   4.737  11.217   0.329 -0.9602  0.6559  0.4308
    8MOL0     H 1049   4.819  11.095   0.414 -1.5001 -2.4135  0.3118
    8MOL0     H 1050   4.703  11.072   0.133  1.0256  0.4092  0.1247
    8MOL0     H 1051   4.758  10.929   0.221 -2.6658 -0.1702 -2.1169
    8MOL0     H 1052   4.919  11.031   0.057 -1.4866  0.0524 -0.3228
    8MOL0     H 1053   4.947  11.157   0.192 -0.1491 -0.4864  2.7068
    8MOL0     H 1054   5.183  10.866   0.305  0.0732  1.0148  0.1937
    8MOL0     H 1055   4.343  10.936   0.403  0.9888  0.2407  2.2102
    8MOL0     H 1056   4.108  10.974   0.368 -2.9416  1.3470  0.4301
    9MOL0     O 1057   8.985   7.936   6.932 -0.0767  0.4446 -0.4539
    9MOL0     C 1058   9.045   8.030   6.983  0.3380 -0.5558 -0.0592
    9MOL0     O 1059   8.993   8.105   7.086  0.3989  0.2149  0.4825
    9MOL0     C 1060   8.867   8.081   7.133  0.4144 -0.5311 -0.1164
    9MOL0     C 1061   8.746   8.032   7.070  0.0275 -0.0061 -0.3496
    9MOL0     C 1062   8.628   8.027   7.139  0.3832  0.3862  0.7009
    9MOL0     C 1063   8.610   8.055   7.278  0.1578  0.9573  1.0619
    9MOL0     O 1064   8.487   8.025   7.331 -0.2905 -0.0210  0.2691
    9MOL0     C 1065   8.485   7.977   7.465 -0.2147 -0.2860  0.1559
    9MOL0     C 1066   8.338   7.959   7.492 -0.5951 -0.8258 -0.2601
    9MOL0     C 1067   8.267   7.844   7.415 -0.2912  0.0237 -0.5213
    9MOL0     C 1068   8.118   7.859   7.413 -0.4997  0.8090 -0.7819
    9MOL0     C 1069   8.039   7.731   7.418 -0.3141  0.0571 -0.1232
    9MOL0     C 1070   8.065   7.630   7.541 -0.4451  0.0138  0.0888
    9MOL0     C 1071   7.978   7.511   7.536  0.1815  0.0246 -1.2251
    9MOL0     C 1072   8.013   7.439   7.670  0.3109 -0.0193 -0.0914
    9MOL0     N 1073   7.919   7.342   7.710 -0.9497  0.3949 -0.0543
    9MOL0     C 1074   7.803   7.367   7.784  0.3061  0.1570  0.0324
    9MOL0     C 1075   7.742   7.243   7.799  1.0475  0.2631  1.0471
    9MOL0     C 1076   7.620   7.220   7.879  0.8992  1.4109  1.1407
    9MOL0     C 1077   7.538   7.087   7.844 -0.4523 -0.3490  0.3726
    9MOL0     C 1078   7.482   7.085   7.693 -0.2903 -0.6152  0.5193
    9MOL0     C 1079   7.398   6.972   7.670 -0.0794  0.5211  0.2283
    9MOL0     O 1080   7.291   6.966   7.768  0.0370  0.0641  0.7817
    9MOL0     C 1081   7.177   6.880   7.736  0.2873  0.2650  0.5071
    9MOL0     C 1082   7.061   6.884   7.815 -0.1107 -0.1668  0.1796
    9MOL0     C 1083   6.947   6.808   7.781  0.8537  0.1253 -0.4795
    9MOL0     C 1084   6.954   6.697   7.697 -0.7120  0.2788  0.3384
    9MOL0     C 1085   6.840   6.611   7.676 -0.0657 -0.4277  0.8949
    9MOL0     O 1086   6.724   6.651   7.733 -0.2452 -0.2676  0.0043
    9MOL0     C 1087   6.608   6.611   7.683  0.3187 -1.1809  0.6406
    9MOL0     C 1088   6.582   6.576   7.548 -0.1811 -0.2393  0.5203
    9MOL0     C 1089   6.459   6.532   7.498  0.3926 -0.5301 -0.1987
    9MOL0     C 1090   6.351   6.521   7.594 -0.0896  0.0042  0.3465
    9MOL0     O 1091   6.231   6.454   7.565  0.0755  1.1067  1.1175
    9MOL0     C 1092   6.169   6.505   7.445 -0.1695  0.1725  0.1836
    9MOL0     C 1093   6.166   6.407   7.329 -0.3550 -0.0967 -0.6963
    9MOL0     C 1094   6.093   6.464   7.207 -0.2068 -0.0700 -0.3370
    9MOL0     C 1095   6.049   6.364   7.097  0.2029  0.1250 -1.0128
    9MOL0     C 1096   5.955   6.432   6.992  0.3853 -0.0121 -0.7013
    9MOL0     C 1097   5.999   6.583   6.962  0.7043 -0.2884  0.7789
    9MOL0     C 1098   5.956   6.628   6.826 -0.0762  0.0714  0.2527
    9MOL0     C 1099   5.982   6.776   6.806 -0.2259  0.4403 -0.0077
    9MOL0    Cl 1100   5.959   6.820   6.633  0.1542 -0.3431 -0.2601
    9MOL0     C 1101   6.374   6.554   7.728 -0.3859 -0.1000 -0.0500
    9MOL0     C 1102   6.499   6.608   7.766 -1.3507 -0.5583  0.5443
    9MOL0     O 1103   6.851   6.514   7.600  0.3111  0.3628  0.7912
    9MOL0     C 1104   7.082   6.679   7.631  0.2137 -0.2772 -0.5784
    9MOL0     C 1105   7.184   6.777   7.646  0.1903 -0.7826 -0.6458
    9MOL0     N 1106   7.823   7.155   7.744 -0.0330  0.1106  0.3765
    9MOL0     N 1107   7.928   7.212   7.700 -0.3461 -0.1219 -0.5124
    9MOL0     C 1108   8.728   8.100   7.338 -0.0284  0.1045 -0.1497
    9MOL0     C 1109   8.852   8.111   7.269  0.8200 -0.1877  0.1406
    9MOL0     C 1110   9.185   8.054   6.937  0.6630 -0.2008  0.5381
    9MOL0     C 1111   9.238   7.952   6.853 -0.0896  0.5832 -1.4789
    9MOL0     C 1112   9.367   7.960   6.806 -0.8210 -0.0503 -0.2553
    9MOL0     C 1113   9.453   8.071   6.838  0.6854  0.0769 -0.0950
    9MOL0     O 1114   9.581   8.095   6.778  0.7083 -0.6022 -0.6143
    9MOL0     C 1115   9.650   7.983   6.727  0.1857 -0.6904  0.0746
    9MOL0     C 1116   9.796   8.005   6.681 -0.6597  0.6368  1.0289
    9MOL0     C 1117   9.892   7.958   6.800 -0.1322  0.1454  0.4899
    9MOL0     C 1118  10.028   8.007   6.761 -0.2773 -0.0990 -0.4786
    9MOL0     C 1119  10.065   7.937   6.634 -0.1323  0.2202  0.0864
    9MOL0     C 1120  10.091   7.902   6.520 -0.4770  0.8305 -0.0749
    9MOL0     C 1121   9.407   8.163   6.932 -0.6949 -0.1378  0.2540
    9MOL0     C 1122   9.273   8.160   6.978 -0.0394 -0.3554 -0.0447
    9MOL0     H 1123   8.746   7.996   6.968 -3.4567  0.3875 -0.6091
    9MOL0     H 1124   8.534   8.001   7.092  0.1363 -1.3035  2.0363
    9MOL0     H 1125   8.533   8.048   7.533  1.0933  0.9726 -1.9617
    9MOL0     H 1126   8.523   7.874   7.468 -2.8990 -1.4608 -1.8199
    9MOL0     H 1127   8.283   8.054   7.492 -2.0908 -1.6353  0.8586
    9MOL0     H 1128   8.325   7.934   7.598 -0.4597  2.0676  0.5220
    9MOL0     H 1129   8.306   7.749   7.453  1.7342  1.1364  0.3466
    9MOL0     H 1130   8.286   7.843   7.307 -1.0893 -1.2754 -0.6690
    9MOL0     H 1131   8.091   7.924   7.497  0.4262  1.1792 -0.7639
    9MOL0     H 1132   8.089   7.914   7.324 -1.7245  2.0468  0.3255
    9MOL0     H 1133   8.055   7.672   7.328 -0.5586  0.7858 -0.6595
    9MOL0     H 1134   7.933   7.756   7.423 -0.5366 -1.0258  1.2105
    9MOL0     H 1135   8.048   7.692   7.628  1.5267 -0.8941  1.1880
    9MOL0     H 1136   8.172   7.605   7.537 -0.1957  0.8517  1.1915
    9MOL0     H 1137   7.876   7.548   7.519 -0.5474 -0.7984  0.9948
    9MOL0     H 1138   8.011   7.451   7.451  2.8183  1.4168 -1.2745
    9MOL0     H 1139   8.044   7.506   7.751 -1.0805 -0.0267  0.4778
    9MOL0     H 1140   8.104   7.388   7.637  0.8976  0.6673  0.4205
    9MOL0     H 1141   7.772   7.467   7.813 -0.2082 -0.5334  2.0195
    9MOL0     H 1142   7.548   7.300   7.860 -1.7176 -0.6371  1.7651
    9MOL0     H 1143   7.641   7.225   7.986 -0.0816  0.0855  1.4178
    9MOL0     H 1144   7.449   7.078   7.907 -1.3687 -1.3539 -1.0164
    9MOL0     H 1145   7.604   7.001   7.858 -0.0721 -0.2317 -0.5961
    9MOL0     H 1146   7.417   7.172   7.683  1.3812  0.5310 -0.8744
    9MOL0     H 1147   7.556   7.087   7.613 -1.2425  0.8255 -0.3543
    9MOL0     H 1148   7.459   6.881   7.681  0.4176  1.1587  3.9971
    9MOL0     H 1149   7.353   6.977   7.570 -3.0633 -0.0072  1.4295
    9MOL0     H 1150   7.062   6.960   7.893 -1.9699 -2.1893  2.3434
    9MOL0     H 1151   6.854   6.839   7.826 -0.4273  0.2200 -3.0196
    9MOL0     H 1152   6.663   6.560   7.477 -0.1964 -0.5558  0.5702
    9MOL0     H 1153   6.445   6.498   7.396  2.4104 -2.2037  0.0154
    9MOL0     H 1154   6.212   6.601   7.420 -1.2064  0.0637 -2.2552
    9MOL0     H 1155   6.063   6.525   7.461 -0.2531  0.8379 -1.1258
    9MOL0     H 1156   6.115   6.319   7.371 -1.7455  1.6155  1.4266
    9MOL0     H 1157   6.267   6.372   7.307  0.5998 -0.0824  3.0369
    9MOL0     H 1158   6.154   6.547   7.168  1.4658 -0.9490  0.2886
    9MOL0     H 1159   5.994   6.495   7.240 -1.5853 -2.8129 -1.6536
    9MOL0     H 1160   6.142   6.329   7.051 -0.5083 -4.5260  0.5264
    9MOL0     H 1161   6.004   6.271   7.134  0.0606  0.6073  0.0789
    9MOL0     H 1162   5.850   6.433   7.024  0.9136  3.5600  1.4041
    9MOL0     H 1163   5.980   6.378   6.900  2.4392  0.4582 -0.4715
    9MOL0     H 1164   6.108   6.587   6.969  0.7241  1.1733  0.0573
    9MOL0     H 1165   5.955   6.646   7.040  2.1014  2.7029 -0.6795
    9MOL0     H 1166   6.016   6.572   6.754  0.1773 -2.6974  2.4475
    9MOL0     H 1167   5.849   6.610   6.813  0.0330 -0.5377  0.1701
    9MOL0     H 1168   6.085   6.795   6.837  0.0691  1.0381 -1.2983
    9MOL0     H 1169   5.908   6.830   6.866 -0.0674 -0.9174  1.4811
    9MOL0     H 1170   6.292   6.548   7.799 -0.3592  3.2882  0.4431
    9MOL0     H 1171   6.506   6.651   7.865 -2.7286  3.4758 -0.9230
    9MOL0     H 1172   7.087   6.614   7.544  1.6822 -1.6230  0.4427
    9MOL0     H 1173   7.274   6.754   7.591 -0.4850 -0.9390 -1.7091
    9MOL0     H 1174   8.732   8.136   7.441 -0.5410  1.7016 -0.6496
    9MOL0     H 1175   8.937   8.152   7.322 -1.0027 -0.0955  3.2673
    9MOL0     H 1176   9.170   7.875   6.815 -4.0891  3.6817 -1.2656
    9MOL0     H 1177   9.409   7.885   6.738  3.5962 -0.0481  2.0641
    9MOL0     H 1178   9.585   7.940   6.650 -0.9658  1.3145 -0.1412
    9MOL0     H 1179   9.655   7.902   6.800 -0.9563 -2.0565 -1.3022
    9MOL0     H 1180   9.824   7.956   6.588 -0.0928 -0.6040  1.8211
    9MOL0     H 1181   9.804   8.111   6.658 -1.9486  0.2592 -1.4945
    9MOL0     H 1182   9.900   7.849   6.794  0.4569  0.2388 -0.8619
    9MOL0     H 1183   9.849   7.992   6.895 -4.1615  2.3001 -1.7953
    9MOL0     H 1184  10.033   8.116   6.768  1.2224 -0.2526  2.6015
    9MOL0     H 1185  10.096   7.975   6.841  0.2833  3.2082  0.5384
    9MOL0     H 1186  10.104   7.874   6.418 -0.8984  0.1577  0.0485
    9MOL0     H 1187   9.468   8.249   6.956 -2.0743  0.6353  1.1487
    9MOL0     H 1188   9.238   8.227   7.056 -0.2346 -2.4129  1.7355
   10MOL0     O 1189   3.009   2.233   6.034 -0.2059 -0.2954 -0.2187
   10MOL0     C 1190   3.068   2.327   5.988  0.2309 -1.2771  0.3158
   10MOL0     O 1191   3.003   2.445   5.951  0.3026 -0.0214  0.4236
   10MOL0     C 1192   2.876   2.451   5.985  0.0315  0.7226  0.8084
   10MOL0     C 1193   2.771   2.424   5.891 -0.3305  0.0256  0.1829
   10MOL0     C 1194   2.640   2.422   5.930 -0.4710  0.2018 -0.1394
   10MOL0     C 1195   2.602   2.453   6.061  0.2356 -0.4835 -0.5470
   10MOL0     O 1196   2.478   2.474   6.101 -0.7583  0.1813  0.5582
   10MOL0     C 1197   2.372   2.495   5.999 -0.5184 -0.0355 -0.5777
   10MOL0     C 1198   2.275   2.592   6.070 -1.5776 -0.0739 -0.0957
   10MOL0     C 1199   2.145   2.598   6.005  0.3264  0.3825 -0.3664
   10MOL0     C 1200   2.041   2.678   6.097 -0.3238 -0.2433 -1.0756
   10MOL0     C 1201   1.904   2.712   6.030 -0.7358 -0.0984 -0.7124
   10MOL0     C 1202   1.831   2.833   6.080  0.5638 -0.2124 -0.1788
   10MOL0     C 1203   1.686   2.822   6.039 -0.7918 -0.0113  0.3169
   10MOL0     C 1204   1.607   2.940   6.091 -0.3089 -0.5144  0.1317
   10MOL0     N 1205   1.460   2.928   6.070 -0.4656  0.7344 -0.6970
   10MOL0     C 1206   1.366   2.953   6.169  0.8950  0.1968 -0.5994
   10MOL0     C 1207   1.241   2.938   6.108 -0.1753 -0.3297 -0.8043
   10MOL0     C 1208   1.113   2.950   6.184 -0.0864  0.2588  0.4481
   10MOL0     C 1209   1.009   2.853   6.125  0.2096  0.2540 -0.6607
   10MOL0     C 1210   0.895   2.835   6.227 -0.1105  0.2441  1.0043
   10MOL0     C 1211   0.790   2.741   6.159  0.1653  0.4574  0.4742
   10MOL0     O 1212   0.697   2.823   6.087 -0.2699  0.0585 -0.3442
   10MOL0     C 1213   0.582   2.760   6.043 -0.3381 -0.2601 -0.5907
   10MOL0     C 1214   0.524   2.638   6.092 -0.2428 -0.7164  0.6211
   10MOL0     C 1215   0.383   2.617   6.062  0.5938  0.4834  0.1411
   10MOL0     C 1216   0.307   2.704   5.975 -0.2316 -0.0936 -0.7120
   10MOL0     C 1217   0.176   2.679   5.928 -0.4319  0.4552 -0.2230
   10MOL0     O 1218   0.119   2.771   5.850  0.4059  0.7607 -0.5805
   10MOL0     C 1219  -0.010   2.758   5.799  0.4936 -0.0641  0.3274
   10MOL0     C 1220  -0.088   2.872   5.772  0.8457 -0.1213 -0.5243
   10MOL0     C 1221  -0.207   2.860   5.712 -0.0143 -0.4276 -0.1804
   10MOL0     C 1222  -0.257   2.738   5.673 -0.0555 -0.5740  0.0757
   10MOL0     O 1223  -0.382   2.720   5.618  0.0179  0.2195  0.2328
   10MOL0     C 1224  -0.429   2.817   5.524  0.3287 -0.3615 -0.2918
   10MOL0     C 1225  -0.549   2.767   5.438  0.4226  0.3002 -0.0954
   10MOL0     C 1226  -0.696   2.806   5.473 -0.0445 -0.7095 -0.4863
   10MOL0     C 1227  -0.801   2.747   5.379 -0.6709 -1.4042 -0.5506
   10MOL0     C 1228  -0.821   2.591   5.397  0.2306  0.5632  0.6591
   10MOL0     C 1229  -0.924   2.532   5.301 -0.1144  0.4517  0.4086
   10MOL0     C 1230  -1.072   2.593   5.313 -0.6935  0.2076  0.1215
   10MOL0     C 1231  -1.176   2.510   5.240  0.5605 -0.4350 -0.4089
   10MOL0    Cl 1232  -1.171   2.482   5.064  0.4329 -0.1765  0.0938
   10MOL0     C 1233  -0.179   2.622   5.688 -0.1976 -0.4614  0.8960
   10MOL0     C 1234  -0.052   2.634   5.746 -0.3515 -0.2214 -0.2228
   10MOL0     O 1235   0.127   2.576   5.975  0.4761  0.0193 -0.1162
   10MOL0     C 1236   0.377   2.811   5.915  0.5056  0.4170 -1.2435
   10MOL0     C 1237   0.510   2.833   5.958 -1.0135 -0.1206  0.0018
   10MOL0     N 1238   1.262   2.916   5.976 -0.7095 -0.2288 -0.0457
   10MOL0     N 1239   1.393   2.908   5.953  0.0424  0.8756 -0.1605
   10MOL0     C 1240   2.706   2.490   6.149  0.3132  0.7587  0.1723
   10MOL0     C 1241   2.839   2.488   6.110  0.6571 -1.3228 -0.3629
   10MOL0     C 1242   3.214   2.325   5.971 -0.3404  0.7488  0.0016
   10MOL0     C 1243   3.278   2.403   5.878 -0.4342 -0.3547  0.7393
   10MOL0     C 1244   3.409   2.418   5.860 -0.0408 -0.6669 -0.3404
   10MOL0     C 1245   3.493   2.343   5.941 -0.8570  0.1420  0.0250
   10MOL0     O 1246   3.628   2.347   5.939  0.0422  0.2771  0.0061
   10MOL0     C 1247   3.698   2.425   5.836  1.0980  0.4578 -0.3119
   10MOL0     C 1248   3.841   2.391   5.832  0.2431 -0.3030  0.4035
   10MOL0     C 1249   3.913   2.475   5.715 -0.5208  0.3332 -0.7812
   10MOL0     C 1250   4.054   2.415   5.689 -0.5752 -0.1448 -0.3362
   10MOL0     C 1251   4.144   2.500   5.617  0.3843 -0.1328 -0.4958
   10MOL0     C 1252   4.224   2.565   5.550 -0.5014 -0.3398 -0.0076
   10MOL0     C 1253   3.431   2.245   6.024  0.2252  0.0972  0.1964
   10MOL0     C 1254   3.293   2.232   6.037 -0.0954 -0.0486  0.2150
   10MOL0     H 1255   2.800   2.407   5.788 -1.3476  4.0908 -1.0009
   10MOL0     H 1256   2.568   2.405   5.851  0.6325  1.7812 -1.5661
   10MOL0     H 1257   2.314   2.406   5.974 -1.7167  0.9855 -1.5662
   10MOL0     H 1258   2.412   2.533   5.904 -3.3247  1.2191 -1.3393
   10MOL0     H 1259   2.319   2.692   6.065 -1.8929  0.1631  1.4026
   10MOL0     H 1260   2.259   2.562   6.174  1.1065 -0.5005  0.2696
   10MOL0     H 1261   2.100   2.501   5.981 -1.8975  0.7277  1.9614
   10MOL0     H 1262   2.159   2.651   5.910  0.0747 -0.1736 -0.7193
   10MOL0     H 1263   2.036   2.625   6.192  5.0782  3.6504  1.9747
   10MOL0     H 1264   2.089   2.771   6.130 -3.1153  0.7111  0.6656
   10MOL0     H 1265   1.845   2.620   6.030 -2.1659  0.7459  1.4662
   10MOL0     H 1266   1.915   2.718   5.921  1.8867  2.1287 -0.4471
   10MOL0     H 1267   1.882   2.923   6.045 -1.5607  1.6191  1.1992
   10MOL0     H 1268   1.844   2.829   6.188  0.8014 -3.9839 -0.2059
   10MOL0     H 1269   1.674   2.815   5.931  3.7965 -0.5778 -0.3357
   10MOL0     H 1270   1.649   2.733   6.091  2.4241 -0.9280  1.2964
   10MOL0     H 1271   1.650   3.029   6.045 -0.7871  0.9087  2.2899
   10MOL0     H 1272   1.627   2.952   6.198 -0.3247 -0.5295  0.1363
   10MOL0     H 1273   1.387   2.969   6.274 -1.0025 -3.7590  0.5812
   10MOL0     H 1274   1.074   3.051   6.165 -1.2729 -0.6577 -2.4791
   10MOL0     H 1275   1.128   2.934   6.291 -0.0799  1.3700  0.6265
   10MOL0     H 1276   1.059   2.762   6.092 -1.4770 -0.7527 -0.5603
   10MOL0     H 1277   0.978   2.896   6.029 -0.4429  0.9243 -0.1615
   10MOL0     H 1278   0.946   2.793   6.314 -0.7637  1.6242  2.0859
   10MOL0     H 1279   0.851   2.933   6.248 -0.5284 -0.3164  2.9372
   10MOL0     H 1280   0.734   2.699   6.243  0.1747  2.1656  1.3667
   10MOL0     H 1281   0.832   2.658   6.101  0.4244  1.8611 -1.4206
   10MOL0     H 1282   0.562   2.572   6.170  1.0940  0.8077  1.3198
   10MOL0     H 1283   0.345   2.521   6.094 -0.5540  1.9677  3.8994
   10MOL0     H 1284  -0.045   2.966   5.806 -1.6071  0.4571  1.1971
   10MOL0     H 1285  -0.268   2.949   5.714  2.0447  1.0710  0.6532
   10MOL0     H 1286  -0.352   2.829   5.447 -0.8474  2.5060 -1.1443
   10MOL0     H 1287  -0.457   2.911   5.573 -1.4829  0.1866 -2.2260
   10MOL0     H 1288  -0.547   2.657   5.435 -0.4763  0.2999 -1.2864
   10MOL0     H 1289  -0.519   2.802   5.339  3.2918 -0.7693  0.2872
   10MOL0     H 1290  -0.695   2.915   5.481 -2.8777 -0.5722 -1.2419
   10MOL0     H 1291  -0.718   2.768   5.573  0.6827  1.2395  0.4809
   10MOL0     H 1292  -0.887   2.807   5.407  0.7158  0.8268 -0.8700
   10MOL0     H 1293  -0.787   2.772   5.274 -1.4427 -0.4658 -0.4403
   10MOL0     H 1294  -0.864   2.572   5.495  0.5270 -2.7291  0.2776
   10MOL0     H 1295  -0.729   2.531   5.390  0.7853  1.4614  0.0576
   10MOL0     H 1296  -0.922   2.424   5.319  3.1559  0.9604  4.9713
   10MOL0     H 1297  -0.890   2.557   5.200  0.8194 -1.2533  0.2637
   10MOL0     H 1298  -1.103   2.616   5.415  0.1463  5.0585 -0.4914
   10MOL0     H 1299  -1.066   2.691   5.265  0.4997 -0.1250 -0.4359
   10MOL0     H 1300  -1.268   2.563   5.267  1.7762  0.3977  2.4061
   10MOL0     H 1301  -1.185   2.419   5.300 -1.9282  1.7361  2.8644
   10MOL0     H 1302  -0.219   2.528   5.652  0.2352  0.3130 -1.8097
   10MOL0     H 1303   0.023   2.555   5.744 -0.3645 -0.2394 -1.8331
   10MOL0     H 1304   0.324   2.880   5.849  1.9352  2.9219  0.0460
   10MOL0     H 1305   0.572   2.908   5.910  3.0385 -3.6931 -0.9373
   10MOL0     H 1306   2.680   2.498   6.254  3.7634 -0.0737  1.1936
   10MOL0     H 1307   2.915   2.502   6.187  3.0843 -0.2389 -2.7980
   10MOL0     H 1308   3.226   2.471   5.812  1.0622 -0.8677 -1.0615
   10MOL0     H 1309   3.451   2.484   5.784  2.7590 -0.8714  0.8922
   10MOL0     H 1310   3.676   2.530   5.856 -3.7365 -0.2757 -0.4669
   10MOL0     H 1311   3.660   2.412   5.734 -0.7897  0.5207  0.3419
   10MOL0     H 1312   3.894   2.411   5.926 -1.5427 -2.3436  1.9558
   10MOL0     H 1313   3.868   2.286   5.819  3.3803  0.5221 -0.7585
   10MOL0     H 1314   3.924   2.578   5.750 -0.6743  0.6687 -1.6877
   10MOL0     H 1315   3.848   2.483   5.627 -0.3165  0.2289 -0.9426
   10MOL0     H 1316   4.114   2.390   5.777  0.4879 -2.7768 -1.6982
   10MOL0     H 1317   4.046   2.325   5.627  2.6334  1.1575 -2.9434
   10MOL0     H 1318   4.298   2.623   5.499 -1.6249  0.7740 -0.4055
   10MOL0     H 1319   3.510   2.194   6.080  3.2222  1.0478 -2.8071
   10MOL0     H 1320   3.250   2.161   6.107  1.7063  0.4225  1.8867
   11MOL0     O 1321  10.634  10.963  10.408 -0.4343  0.0649 -0.3880
   11MOL0     C 1322  10.666  10.905  10.511  0.0339 -0.0918  0.6509
   11MOL0     O 1323  10.589  10.829  10.595 -0.2854 -0.1555  0.7801
   11MOL0     C 1324  10.456  10.838  10.592 -0.8574 -0.4618  0.1622
   11MOL0     C 1325  10.393  10.964  10.588  0.4007  0.2875 -0.0231
   11MOL0     C 1326  10.256  10.976  10.596  1.1420 -0.3558  0.9785
   11MOL0     C 1327  10.181  10.860  10.625  0.1100  0.0388  0.1371
   11MOL0     O 1328  10.038  10.859  10.650 -0.5206  0.0589 -0.1391
   11MOL0     C 1329   9.985  10.980  10.704  0.1432  0.2376 -0.4455
   11MOL0     C 1330   9.846  10.935  10.766  0.2824 -0.7092 -0.5214
   11MOL0     C 1331   9.773  11.052  10.835  0.0232 -0.0721 -0.0535
   11MOL0     C 1332   9.727  11.020  10.981 -0.7184  0.9091  0.0719
   11MOL0     C 1333   9.609  11.115  11.019  0.2303  0.1073 -0.4918
   11MOL0     C 1334   9.477  11.069  10.959 -0.3183  0.1580  0.2579
   11MOL0     C 1335   9.359  11.157  10.985  0.3445 -0.4919 -0.3823
   11MOL0     C 1336   9.313  11.151  11.124  0.8219 -0.0889 -0.1393
   11MOL0     N 1337   9.171  11.151  11.144  0.1641  0.5005  0.3742
   11MOL0     C 1338   9.112  11.139  11.269 -0.2011 -0.1774 -0.5013
   11MOL0     C 1339   8.982  11.180  11.245 -1.1114  0.2700  0.2915
   11MOL0     C 1340   8.879  11.210  11.354 -0.5858  0.1012  0.3732
   11MOL0     C 1341   8.831  11.360  11.331 -0.2906  0.3996 -0.6448
   11MOL0     C 1342   8.699  11.347  11.249  0.1424  0.4469  0.0387
   11MOL0     C 1343   8.669  11.483  11.183  0.2318  0.1495  0.2802
   11MOL0     O 1344   8.618  11.578  11.274  0.8008  0.3896  0.5911
   11MOL0     C 1345   8.480  11.594  11.294  0.0226 -0.1469  0.3647
   11MOL0     C 1346   8.391  11.489  11.279  0.7505 -0.2031  0.3493
   11MOL0     C 1347   8.253  11.502  11.305  0.3329 -0.6027  0.0075
   11MOL0     C 1348   8.204  11.620  11.374  0.5811 -0.2972  0.4953
   11MOL0     C 1349   8.066  11.637  11.419 -0.2161  0.2055 -0.7222
   11MOL0     O 1350   8.035  11.753  11.484  0.4824  0.9492 -0.7780
   11MOL0     C 1351   7.904  11.768  11.516  0.2134 -0.5532  0.4475
   11MOL0     C 1352   7.844  11.726  11.638  0.3079 -0.3741  0.0142
   11MOL0     C 1353   7.706  11.748  11.666 -0.5044 -0.5969  0.4017
   11MOL0     C 1354   7.623  11.820  11.579 -0.4876  0.5369 -0.0076
   11MOL0     O 1355   7.498  11.851  11.626 -0.6521  0.2578 -0.0870
   11MOL0     C 1356   7.434  11.955  11.550 -0.3257  0.7408 -0.3177
   11MOL0     C 1357   7.288  11.979  11.612 -0.9073  0.0130  0.2952
   11MOL0     C 1358   7.281  12.114  11.675  0.1365  0.8358  0.0929
   11MOL0     C 1359   7.147  12.131  11.740 -0.1309  0.8802  0.4381
   11MOL0     C 1360   7.091  12.264  11.689  0.2499  0.5746  0.5676
   11MOL0     C 1361   6.932  12.270  11.705  0.2025 -0.0983 -0.0504
   11MOL0     C 1362   6.876  12.412  11.699  0.3794  0.0345 -0.2460
   11MOL0     C 1363   6.720  12.421  11.664 -0.2863 -0.2382  0.4791
   11MOL0    Cl 1364   6.596  12.389  11.791 -0.0600 -0.1458 -0.2345
   11MOL0     C 1365   7.683  11.854  11.459  0.2499 -0.7928  0.9287
   11MOL0     C 1366   7.820  11.828  11.431  0.4972  0.3243 -0.0392
   11MOL0     O 1367   7.982  11.553  11.382 -0.3471  0.5245 -0.3241
   11MOL0     C 1368   8.303  11.713  11.404  0.0282  0.7521 -0.5703
   11MOL0     C 1369   8.433  11.704  11.365  1.0207 -0.4131  0.8223
   11MOL0     N 1370   8.964  11.193  11.109  0.5203 -0.4820 -0.3110
   11MOL0     N 1371   9.075  11.183  11.053  0.5525  0.2961  0.4415
   11MOL0     C 1372  10.236  10.730  10.622 -0.0803 -0.5273 -0.1096
   11MOL0     C 1373  10.377  10.722  10.601  0.0373 -1.4060  0.2272
   11MOL0     C 1374  10.816  10.892  10.530 -1.5772  0.6076 -0.5590
   11MOL0     C 1375  10.862  10.869  10.659  0.0950  0.6506  0.5718
   11MOL0     C 1376  10.998  10.843  10.683  1.2131 -0.3511 -0.0125
   11MOL0     C 1377  11.096  10.858  10.587  0.4856 -1.0156  0.3774
   11MOL0     O 1378  11.229  10.850  10.609 -0.2526  0.2340 -0.4489
   11MOL0     C 1379  11.275  10.837  10.746 -0.2867 -0.5701  0.1782
   11MOL0     C 1380  11.424  10.842  10.762 -0.1491  0.1723  0.6608
   11MOL0     C 1381  11.491  10.748  10.662  0.6635  0.2903  0.0185
   11MOL0     C 1382  11.607  10.665  10.708 -0.2713 -1.1807 -0.6440
   11MOL0     C 1383  11.727  10.753  10.717  0.8384  0.3275 -1.2387
   11MOL0     C 1384  11.808  10.844  10.730 -1.2622  0.1721  0.5068
   11MOL0     C 1385  11.049  10.892  10.455  1.2817 -0.9401 -0.6829
   11MOL0     C 1386  10.914  10.908  10.428 -0.0910  0.4978 -0.4484
   11MOL0     H 1387  10.447  11.057  10.600  0.1274  0.8060 -2.4696
   11MOL0     H 1388  10.212  11.075  10.591  1.7082 -0.1237  0.4592
   11MOL0     H 1389   9.971  11.057  10.628 -0.7239 -0.3661 -0.9123
   11MOL0     H 1390  10.050  11.023  10.780  2.7841 -0.7647 -2.0174
   11MOL0     H 1391   9.850  10.847  10.832 -0.9867 -0.7260 -0.4493
   11MOL0     H 1392   9.782  10.898  10.685  0.3508 -0.1229 -0.8461
   11MOL0     H 1393   9.687  11.080  10.773  1.0846 -0.2572 -1.6362
   11MOL0     H 1394   9.833  11.142  10.841  0.4111 -0.4000  1.5307
   11MOL0     H 1395   9.712  10.913  10.999  1.3116 -0.1720 -3.5815
   11MOL0     H 1396   9.815  11.050  11.039 -0.4202 -0.3187  0.2871
   11MOL0     H 1397   9.629  11.218  10.987  2.7897  0.4596  1.9052
   11MOL0     H 1398   9.606  11.119  11.128  0.4388  1.0155 -0.5084
   11MOL0     H 1399   9.454  10.974  11.009 -3.9490  2.1112  2.7794
   11MOL0     H 1400   9.493  11.066  10.851 -0.2426  4.1030  0.0264
   11MOL0     H 1401   9.377  11.261  10.956 -0.6755 -0.4066 -0.7800
   11MOL0     H 1402   9.279  11.118  10.921  1.7587 -0.4974 -2.2592
   11MOL0     H 1403   9.354  11.226  11.192 -0.5074 -0.2021  0.8319
   11MOL0     H 1404   9.348  11.058  11.168  0.7132  0.1634  0.4959
   11MOL0     H 1405   9.152  11.140  11.370 -2.4657  2.2219  0.4960
   11MOL0     H 1406   8.918  11.196  11.455  1.0947  0.9562 -0.1221
   11MOL0     H 1407   8.796  11.138  11.356  0.1671 -0.8211 -0.5109
   11MOL0     H 1408   8.902  11.420  11.273 -1.1249  1.7937 -0.2654
   11MOL0     H 1409   8.810  11.406  11.428  0.5410  0.3222 -0.4197
   11MOL0     H 1410   8.702  11.281  11.161 -0.0133  1.5034 -0.7884
   11MOL0     H 1411   8.616  11.322  11.315  1.4138 -2.8715  0.5565
   11MOL0     H 1412   8.607  11.470  11.093 -0.9540 -3.5411  1.4575
   11MOL0     H 1413   8.760  11.533  11.147  0.2876  1.4465  2.0797
   11MOL0     H 1414   8.423  11.393  11.238  2.3448  0.6147 -0.3957
   11MOL0     H 1415   8.186  11.422  11.278  0.2157 -0.9924  1.3740
   11MOL0     H 1416   7.901  11.673  11.714  3.5501  1.0982 -1.2037
   11MOL0     H 1417   7.670  11.724  11.766 -3.1817 -0.5754 -0.4789
   11MOL0     H 1418   7.425  11.927  11.445  1.4035 -0.0009 -0.2905
   11MOL0     H 1419   7.505  12.037  11.561 -1.7142  2.0665 -0.7389
   11MOL0     H 1420   7.261  11.895  11.677  4.3885 -1.1659  1.4438
   11MOL0     H 1421   7.215  11.989  11.530  0.3774 -0.3069 -0.9191
   11MOL0     H 1422   7.304  12.188  11.598  0.7821  1.2678  0.6786
   11MOL0     H 1423   7.355  12.118  11.756  0.7912 -3.1473 -0.1295
   11MOL0     H 1424   7.079  12.049  11.715  1.3967 -0.2638 -0.1775
   11MOL0     H 1425   7.148  12.140  11.849 -1.2879  0.6856  0.4738
   11MOL0     H 1426   7.122  12.281  11.585  0.1342  2.2295  0.7694
   11MOL0     H 1427   7.127  12.349  11.747 -0.3353  0.9656  0.3776
   11MOL0     H 1428   6.897  12.220  11.796  0.5984  0.8696  0.6485
   11MOL0     H 1429   6.885  12.216  11.622  0.7217  2.8162 -2.4076
   11MOL0     H 1430   6.891  12.455  11.798 -2.4899  0.4838  0.0824
   11MOL0     H 1431   6.931  12.461  11.618 -0.3667  0.6357 -0.4011
   11MOL0     H 1432   6.712  12.351  11.580  0.1032  1.8174 -1.3577
   11MOL0     H 1433   6.701  12.522  11.626  0.0090  0.3545  1.8491
   11MOL0     H 1434   7.624  11.905  11.384  1.2466 -0.9950 -0.0072
   11MOL0     H 1435   7.871  11.878  11.349 -0.8461 -1.3868 -2.0108
   11MOL0     H 1436   8.272  11.791  11.472 -2.0621  0.0155 -0.6298
   11MOL0     H 1437   8.494  11.789  11.394 -0.0284  0.5390  0.3238
   11MOL0     H 1438  10.179  10.637  10.613  2.9011 -2.5072 -0.0677
   11MOL0     H 1439  10.433  10.629  10.599  2.3944 -0.0717  0.5545
   11MOL0     H 1440  10.787  10.871  10.736  1.4199  2.8191  1.9125
   11MOL0     H 1441  11.013  10.805  10.784 -2.5426  0.0845  0.8768
   11MOL0     H 1442  11.249  10.741  10.792  4.1972 -0.7816  2.8694
   11MOL0     H 1443  11.220  10.916  10.798 -1.4427 -2.0818  1.3799
   11MOL0     H 1444  11.465  10.941  10.740  0.0319  0.4125  1.9555
   11MOL0     H 1445  11.463  10.830  10.864  1.6304 -1.5954 -0.1622
   11MOL0     H 1446  11.517  10.803  10.571  0.6756  0.5307  0.1658
   11MOL0     H 1447  11.425  10.674  10.617 -2.2511  4.2319 -2.9473
   11MOL0     H 1448  11.584  10.613  10.801 -2.1254 -0.0830 -0.4471
   11MOL0     H 1449  11.615  10.590  10.628 -0.9941 -2.0048  0.0476
   11MOL0     H 1450  11.889  10.913  10.735 -1.2547  0.1077  1.3339
   11MOL0     H 1451  11.128  10.905  10.382  0.7727 -0.5832 -1.1828
   11MOL0     H 1452  10.894  10.932  10.324 -1.8705 -1.1966 -0.5607
   12MOL0     O 1453   3.108   2.435   1.561  0.5350 -0.5813  0.0060
   12MOL0     C 1454   3.091   2.358   1.465  0.7047  0.1090  0.6800
   12MOL0     O 1455   2.972   2.305   1.436  0.1796  0.2577 -0.4513
   12MOL0     C 1456   2.850   2.340   1.488 -0.5389 -0.5545 -0.3017
   12MOL0     C 1457   2.816   2.469   1.542 -0.2753  0.2476 -0.5030
   12MOL0     C 1458   2.698   2.489   1.598  0.4485 -0.6128 -0.5594
   12MOL0     C 1459   2.606   2.397   1.620 -0.1212 -0.7606 -0.8102
   12MOL0     O 1460   2.484   2.435   1.668 -0.2496  0.4432  0.3832
   12MOL0     C 1461   2.383   2.332   1.667  0.1870 -0.4183 -0.0276
   12MOL0     C 1462   2.265   2.426   1.687  1.2456 -0.8283  0.0709
   12MOL0     C 1463   2.142   2.339   1.697  0.2757  0.3391 -0.2715
   12MOL0     C 1464   2.006   2.417   1.666 -0.2428 -0.2753 -0.1630
   12MOL0     C 1465   1.893   2.339   1.731 -0.5768  0.2528  0.1702
   12MOL0     C 1466   1.755   2.402   1.714 -0.3075  0.2090 -0.0545
   12MOL0     C 1467   1.651   2.341   1.795  0.5801  0.1397  0.2076
   12MOL0     C 1468   1.518   2.420   1.782 -0.3466 -0.0814 -1.1978
   12MOL0     N 1469   1.400   2.360   1.849 -0.6207 -0.1175  0.7420
   12MOL0     C 1470   1.359   2.364   1.978  0.1841  0.7252  0.5229
   12MOL0     C 1471   1.240   2.305   1.979  0.4500 -0.2121 -1.4644
   12MOL0     C 1472   1.158   2.296   2.105 -1.0031 -0.2723 -0.3096
   12MOL0     C 1473   1.006   2.259   2.069  0.4760 -0.1568 -0.0079
   12MOL0     C 1474   0.919   2.270   2.199  0.0819 -0.3434  0.3200
   12MOL0     C 1475   0.776   2.220   2.186  0.4064  0.3166 -0.0320
   12MOL0     O 1476   0.770   2.078   2.147 -0.6866  0.4393 -0.7952
   12MOL0     C 1477   0.640   2.022   2.129  0.2118 -0.6426 -0.9888
   12MOL0     C 1478   0.524   2.099   2.139  0.8929  0.6726  0.1317
   12MOL0     C 1479   0.393   2.031   2.144 -0.2122 -0.1556 -0.4089
   12MOL0     C 1480   0.376   1.896   2.125 -0.4056 -0.0454 -0.1975
   12MOL0     C 1481   0.241   1.836   2.120 -1.3368  0.8224  0.1373
   12MOL0     O 1482   0.244   1.703   2.106  0.0042 -0.4978  0.2868
   12MOL0     C 1483   0.128   1.640   2.117  0.3904 -0.2503  0.7588
   12MOL0     C 1484   0.127   1.551   2.217  0.4121 -0.4842  0.6511
   12MOL0     C 1485   0.013   1.472   2.235  0.4484  0.0121 -0.1668
   12MOL0     C 1486  -0.107   1.483   2.164 -0.9394 -0.0779  0.7147
   12MOL0     O 1487  -0.221   1.418   2.192 -0.7877  0.1570 -1.0849
   12MOL0     C 1488  -0.222   1.334   2.314  0.5277 -0.1381 -0.5657
   12MOL0     C 1489  -0.366   1.273   2.337 -0.8996 -0.1648  0.4121
   12MOL0     C 1490  -0.396   1.234   2.484 -0.3533  0.2347  0.3444
   12MOL0     C 1491  -0.542   1.236   2.497 -0.8408  0.0582  0.5471
   12MOL0     C 1492  -0.602   1.218   2.640 -0.5097 -0.1373  0.0087
   12MOL0     C 1493  -0.747   1.167   2.658  0.6626  0.4508  0.6075
   12MOL0     C 1494  -0.840   1.281   2.608  0.0966 -0.4239  1.5257
   12MOL0     C 1495  -0.995   1.247   2.611 -0.3958  0.5307  0.9748
   12MOL0    Cl 1496  -1.080   1.300   2.751  0.0976  0.0483 -0.1554
   12MOL0     C 1497  -0.110   1.590   2.070 -0.2821 -1.2297  0.0836
   12MOL0     C 1498   0.005   1.669   2.049 -0.3317  1.0725 -0.2574
   12MOL0     O 1499   0.141   1.905   2.141 -0.5427 -0.4832  0.2862
   12MOL0     C 1500   0.498   1.825   2.123  0.3225 -0.1793  0.0236
   12MOL0     C 1501   0.623   1.881   2.124 -1.3926 -0.8171  0.7145
   12MOL0     N 1502   1.216   2.250   1.856 -0.1384 -0.9018 -0.7241
   12MOL0     N 1503   1.318   2.277   1.777  0.3804  0.7913  0.1327
   12MOL0     C 1504   2.636   2.269   1.572  0.3891  0.0814  0.6011
   12MOL0     C 1505   2.753   2.241   1.512 -0.2775 -0.1973  0.8641
   12MOL0     C 1506   3.198   2.356   1.362  0.3902  0.9446  0.1790
   12MOL0     C 1507   3.309   2.429   1.378 -1.1130  0.1759 -0.7068
   12MOL0     C 1508   3.405   2.425   1.273  0.1468 -1.2106  0.0441
   12MOL0     C 1509   3.389   2.365   1.151 -0.9579 -0.5571 -1.0698
   12MOL0     O 1510   3.480   2.368   1.043 -0.0325 -0.2083 -0.5322
   12MOL0     C 1511   3.609   2.404   1.076  0.0514  1.0721  0.2065
   12MOL0     C 1512   3.700   2.360   0.953  0.3878 -0.6307 -0.7177
   12MOL0     C 1513   3.678   2.429   0.816 -0.2862 -0.3745  1.0809
   12MOL0     C 1514   3.796   2.410   0.716 -0.0183 -0.2857  0.5066
   12MOL0     C 1515   3.928   2.454   0.771 -0.1987  0.1865 -0.8801
   12MOL0     C 1516   4.037   2.483   0.813  0.4846  0.2370 -0.1465
   12MOL0     C 1517   3.280   2.287   1.140  0.4677 -0.6192  0.2739
   12MOL0     C 1518   3.186   2.275   1.244 -0.1337  0.2014  0.1408
   12MOL0     H 1519   2.890   2.548   1.551  1.9754 -2.0185  3.1183
   12MOL0     H 1520   2.665   2.584   1.639  0.5611 -0.6519 -0.3810
   12MOL0     H 1521   2.386   2.260   1.749 -1.4399 -0.4769  0.0220
   12MOL0     H 1522   2.371   2.281   1.572  0.6695  1.1062 -0.9397
   12MOL0     H 1523   2.254   2.502   1.609 -1.4160  1.4389  2.4273
   12MOL0     H 1524   2.273   2.478   1.783 -2.1421  3.3287 -1.5682
   12MOL0     H 1525   2.147   2.300   1.799  4.0900  0.3439 -0.3048
   12MOL0     H 1526   2.159   2.256   1.628  0.0178 -0.5516  0.7149
   12MOL0     H 1527   2.017   2.521   1.697  3.7021 -0.5618 -0.0089
   12MOL0     H 1528   1.992   2.408   1.558 -0.5580  1.0875 -0.2524
   12MOL0     H 1529   1.912   2.325   1.838  2.6311 -1.6143 -0.5290
   12MOL0     H 1530   1.889   2.237   1.692 -2.3813  0.1173  0.6314
   12MOL0     H 1531   1.714   2.389   1.614  1.9020 -2.4673 -0.7474
   12MOL0     H 1532   1.778   2.509   1.720  2.6194 -0.1561 -2.2484
   12MOL0     H 1533   1.622   2.239   1.770 -0.4017 -0.2310  2.5449
   12MOL0     H 1534   1.674   2.337   1.902  0.9264  0.4783  0.1505
   12MOL0     H 1535   1.492   2.428   1.676  1.9780 -1.5035 -1.9518
   12MOL0     H 1536   1.533   2.522   1.818  1.1991 -0.6520 -0.1394
   12MOL0     H 1537   1.415   2.393   2.066 -1.4915  0.5676  1.6757
   12MOL0     H 1538   1.161   2.387   2.165  1.4081 -1.7587  2.0209
   12MOL0     H 1539   1.203   2.217   2.165  0.6978 -1.3357 -2.7920
   12MOL0     H 1540   0.986   2.157   2.034 -0.7405 -0.4265  1.3895
   12MOL0     H 1541   0.969   2.323   1.988 -1.4907 -0.4608  0.5920
   12MOL0     H 1542   0.957   2.213   2.284  1.0666  0.0474  0.1464
   12MOL0     H 1543   0.927   2.377   2.220 -0.5369 -0.2681  0.1783
   12MOL0     H 1544   0.726   2.285   2.114  1.6602 -0.8523 -2.0386
   12MOL0     H 1545   0.734   2.237   2.286  2.8201 -2.1816  1.5623
   12MOL0     H 1546   0.513   2.205   2.156 -1.5466  0.3097  1.3278
   12MOL0     H 1547   0.314   2.101   2.168 -0.1358  0.1973 -1.1533
   12MOL0     H 1548   0.227   1.521   2.248 -1.2214 -4.5772  2.7661
   12MOL0     H 1549   0.019   1.400   2.317  0.6796  2.1667  1.7967
   12MOL0     H 1550  -0.204   1.386   2.409 -3.1744 -1.8183  1.2681
   12MOL0     H 1551  -0.163   1.244   2.296 -0.6902 -1.2827  0.8257
   12MOL0     H 1552  -0.373   1.185   2.273  2.0485  1.3418 -2.2495
   12MOL0     H 1553  -0.441   1.343   2.297 -0.5154 -2.1492 -4.4520
   12MOL0     H 1554  -0.359   1.306   2.557 -1.5685 -1.0103  2.2971
   12MOL0     H 1555  -0.356   1.134   2.506  1.7356  1.3096  1.7643
   12MOL0     H 1556  -0.581   1.332   2.462 -0.7769  0.5316  1.7324
   12MOL0     H 1557  -0.570   1.145   2.444  1.7959 -1.1727  1.0700
   12MOL0     H 1558  -0.596   1.316   2.688  1.7426 -1.3441  2.4645
   12MOL0     H 1559  -0.537   1.150   2.696 -1.0435 -1.2030 -0.6448
   12MOL0     H 1560  -0.770   1.153   2.764  3.8235  0.8425  1.4639
   12MOL0     H 1561  -0.768   1.079   2.597 -2.0586  2.3721 -1.4989
   12MOL0     H 1562  -0.837   1.362   2.681 -0.5339  0.6601  0.3865
   12MOL0     H 1563  -0.821   1.317   2.507  1.4414 -0.9808  1.5635
   12MOL0     H 1564  -1.002   1.139   2.595  0.3725  0.6830 -0.6102
   12MOL0     H 1565  -1.047   1.298   2.529  2.1433  3.1026  0.7624
   12MOL0     H 1566  -0.203   1.617   2.021  0.2849  0.2622 -0.2147
   12MOL0     H 1567   0.003   1.754   1.981 -3.1733  0.0210 -1.6513
   12MOL0     H 1568   0.493   1.716   2.115 -0.7302 -0.2729  1.4265
   12MOL0     H 1569   0.708   1.815   2.123 -2.4696 -2.4460  3.8336
   12MOL0     H 1570   2.556   2.196   1.580 -2.6240  3.1341  0.5507
   12MOL0     H 1571   2.774   2.139   1.480 -0.2298 -0.3884  1.4934
   12MOL0     H 1572   3.310   2.483   1.472 -0.9130 -2.9121  1.2093
   12MOL0     H 1573   3.502   2.462   1.305 -0.5286  1.0883 -0.3659
   12MOL0     H 1574   3.638   2.341   1.161 -1.2595  0.3069  0.1124
   12MOL0     H 1575   3.634   2.506   1.104 -1.7237  1.0585  2.0445
   12MOL0     H 1576   3.805   2.366   0.984  0.9104  2.8748 -2.6191
   12MOL0     H 1577   3.693   2.253   0.929  2.9532 -0.5303 -2.3209
   12MOL0     H 1578   3.676   2.538   0.824 -0.7799 -0.2961 -0.0188
   12MOL0     H 1579   3.584   2.399   0.768 -1.1309  0.3601  2.2248
   12MOL0     H 1580   3.801   2.304   0.686 -0.8132 -0.4172  0.8069
   12MOL0     H 1581   3.775   2.461   0.621 -1.9974 -1.4209  0.2635
   12MOL0     H 1582   4.135   2.503   0.853  0.8564 -4.9669  2.4065
   12MOL0     H 1583   3.252   2.234   1.049  0.2920 -1.8707  1.0346
   12MOL0     H 1584   3.093   2.220   1.237 -1.2352  1.9826  0.1135
   13MOL0     O 1585   1.956   9.832   6.184  0.4108 -0.3715  0.1667
   13MOL0     C 1586   1.958   9.934   6.108 -0.4724 -0.0389 -0.5787
   13MOL0     O 1587   1.855  10.012   6.069 -0.1718 -0.0165  0.2770
   13MOL0     C 1588   1.718   9.983   6.081  0.2690 -0.1317 -0.3092
   13MOL0     C 1589   1.679   9.851   6.092  0.7883  0.1498 -0.0811
   13MOL0     C 1590   1.545   9.830   6.103  0.4611 -0.8909  0.0700
   13MOL0     C 1591   1.446   9.928   6.107  0.2905  0.0185  1.5809
   13MOL0     O 1592   1.322   9.887   6.097  0.4387  0.1916 -0.4094
   13MOL0     C 1593   1.228   9.952   6.183 -0.4487  0.1713  0.1799
   13MOL0     C 1594   1.098   9.956   6.114 -0.6705  0.6419 -0.5707
   13MOL0     C 1595   0.985  10.038   6.176 -0.1489 -0.4972  0.5331
   13MOL0     C 1596   0.845   9.992   6.113  0.3838 -0.0182 -0.1996
   13MOL0     C 1597   0.722  10.043   6.196 -0.2000 -0.1847 -0.4023
   13MOL0     C 1598   0.592   9.967   6.158 -0.2125 -0.4682 -0.5479
   13MOL0     C 1599   0.463  10.043   6.203  0.5466  0.1170  0.0476
   13MOL0     C 1600   0.394   9.961   6.312  0.2009 -0.0764 -0.1053
   13MOL0     N 1601   0.242   9.980   6.320 -0.0405  1.0242 -0.4452
   13MOL0     C 1602   0.147   9.878   6.356 -0.4102 -0.1188 -0.4854
   13MOL0     C 1603   0.034   9.942   6.366  0.8944  0.2078  0.4071
   13MOL0     C 1604  -0.108   9.880   6.375 -1.4565  0.1115 -0.3017
   13MOL0     C 1605  -0.167   9.901   6.524  0.3877  0.2065  0.1964
   13MOL0     C 1606  -0.273   9.795   6.570 -0.5241  1.1104  0.0134
   13MOL0     C 1607  -0.355   9.738   6.456 -0.0566  0.3146  0.1268
   13MOL0     O 1608  -0.449   9.653   6.502  0.0840  0.9083 -0.1985
   13MOL0     C 1609  -0.530   9.568   6.420 -0.3098  0.8799 -1.0641
   13MOL0     C 1610  -0.504   9.551   6.286 -0.7738  0.2308  0.3402
   13MOL0     C 1611  -0.585   9.455   6.212  0.2706 -0.0367 -0.7787
   13MOL0     C 1612  -0.690   9.382   6.274  0.9798 -0.3629  0.6039
   13MOL0     C 1613  -0.771   9.285   6.200  0.7248  0.2841  1.0638
   13MOL0     O 1614  -0.876   9.231   6.266 -0.2450 -0.8486  0.8626
   13MOL0     C 1615  -0.974   9.153   6.207  0.0045 -0.5175 -0.0553
   13MOL0     C 1616  -0.987   9.096   6.080 -0.1090 -0.2503  0.9201
   13MOL0     C 1617  -1.114   9.035   6.049  0.3196  0.3064  0.4342
   13MOL0     C 1618  -1.211   9.014   6.148 -0.1937  0.2829  0.7031
   13MOL0     O 1619  -1.319   8.936   6.126  0.6923  0.7505  0.3872
   13MOL0     C 1620  -1.325   8.827   6.028 -0.2995 -0.5746 -0.7044
   13MOL0     C 1621  -1.379   8.878   5.896  0.7023  0.1320 -0.0572
   13MOL0     C 1622  -1.533   8.908   5.901 -0.3455 -0.0023 -0.0625
   13MOL0     C 1623  -1.583   8.960   5.764 -0.4217  0.3008 -0.7236
   13MOL0     C 1624  -1.726   8.909   5.732 -0.0870  0.0010  0.0919
   13MOL0     C 1625  -1.740   8.758   5.697 -0.0022  0.4349 -0.0657
   13MOL0     C 1626  -1.891   8.724   5.679  0.3559 -0.4053  0.3022
   13MOL0     C 1627  -1.916   8.575   5.690  0.4652  0.2402 -0.4789
   13MOL0    Cl 1628  -1.888   8.506   5.863  0.3505 -0.2188 -0.1840
   13MOL0     C 1629  -1.191   9.066   6.272 -0.1272  0.2314 -0.2562
   13MOL0     C 1630  -1.079   9.140   6.305  0.7487 -0.5028  0.2355
   13MOL0     O 1631  -0.750   9.270   6.080  0.2478 -0.0022  0.0546
   13MOL0     C 1632  -0.711   9.398   6.411 -0.5372 -0.2251 -0.4946
   13MOL0     C 1633  -0.627   9.484   6.485 -0.7195 -0.2112  0.7606
   13MOL0     N 1634   0.049  10.076   6.346 -0.1287  0.7009  0.0735
   13MOL0     N 1635   0.173  10.091   6.317 -0.1167  0.1129  0.4668
   13MOL0     C 1636   1.488  10.059   6.082  0.1769 -0.3302 -0.2386
   13MOL0     C 1637   1.626  10.084   6.060  0.8824  1.0851  0.6554
   13MOL0     C 1638   2.097   9.981   6.070  0.4209  0.3186 -0.9875
   13MOL0     C 1639   2.209   9.902   6.104  0.4108 -0.4163 -0.7895
   13MOL0     C 1640   2.335   9.941   6.079  0.0959 -0.2769  0.0973
   13MOL0     C 1641   2.360  10.059   6.008 -0.0962  0.0815  0.2867
   13MOL0     O 1642   2.483  10.106   5.978 -0.1281 -0.4623 -0.0018
   13MOL0     C 1643   2.608  10.040   6.011  1.0990  0.6289  0.7626
   13MOL0     C 1644   2.729  10.126   5.979  0.2729 -0.4541 -0.0286
   13MOL0     C 1645   2.712  10.198   5.842 -0.1054  0.4086 -0.2593
   13MOL0     C 1646   2.830  10.292   5.829 -0.1252  0.1329 -0.0582
   13MOL0     C 1647   2.964  10.235   5.829 -0.1871  0.6565  0.6642
   13MOL0     C 1648   3.082  10.212   5.808 -0.3001  0.2205 -0.2867
   13MOL0     C 1649   2.245  10.136   5.967 -0.2759  0.7637 -0.1061
   13MOL0     C 1650   2.111  10.096   5.998  0.1310  0.0189 -0.0774
   13MOL0     H 1651   1.754   9.773   6.091  3.5401  2.5761  1.2189
   13MOL0     H 1652   1.519   9.729   6.134 -1.1791 -0.7298 -0.7133
   13MOL0     H 1653   1.266  10.053   6.202  0.3194 -0.0096 -0.3474
   13MOL0     H 1654   1.211   9.893   6.273  1.1476  0.2484  0.5658
   13MOL0     H 1655   1.070   9.850   6.109  1.9381 -0.0998 -1.0628
   13MOL0     H 1656   1.130  10.000   6.020  0.9675 -0.1423 -0.4231
   13MOL0     H 1657   0.998  10.147   6.171  2.7689 -0.7762  0.6580
   13MOL0     H 1658   0.980  10.022   6.284 -0.8104  1.2845  0.8107
   13MOL0     H 1659   0.838  10.043   6.017  4.2973  1.3040  0.0051
   13MOL0     H 1660   0.836   9.885   6.095 -2.5683  0.6865 -4.1150
   13MOL0     H 1661   0.707  10.147   6.167  0.6964  0.9034  2.7322
   13MOL0     H 1662   0.734  10.030   6.304  0.8301 -2.3610 -0.7138
   13MOL0     H 1663   0.581   9.862   6.187 -3.9999  0.1743  0.9441
   13MOL0     H 1664   0.605   9.981   6.050  0.4398 -1.7439 -0.6524
   13MOL0     H 1665   0.495  10.145   6.227 -0.4092  0.8053 -1.4859
   13MOL0     H 1666   0.398  10.058   6.117 -0.6274  1.5086  1.1250
   13MOL0     H 1667   0.426   9.992   6.412 -3.4101  1.9879  0.6048
   13MOL0     H 1668   0.410   9.854   6.301 -3.8991 -1.0082  1.0213
   13MOL0     H 1669   0.183   9.775   6.358 -0.4606 -0.1337  1.9511
   13MOL0     H 1670  -0.088   9.775   6.349  1.3482  0.0494  1.7245
   13MOL0     H 1671  -0.181   9.931   6.311 -2.4465 -0.2975  0.4685
   13MOL0     H 1672  -0.212  10.000   6.525  0.2218  0.1448 -0.7485
   13MOL0     H 1673  -0.077   9.909   6.587  0.2235 -2.7832  0.9946
   13MOL0     H 1674  -0.219   9.709   6.610  0.4808  1.9999  0.5858
   13MOL0     H 1675  -0.331   9.814   6.661 -2.1450 -1.9799 -0.2440
   13MOL0     H 1676  -0.290   9.687   6.384 -2.2423 -2.2172 -0.2102
   13MOL0     H 1677  -0.400   9.821   6.400  1.4994  0.7408 -0.5347
   13MOL0     H 1678  -0.419   9.592   6.232 -1.5097  2.6000  0.8335
   13MOL0     H 1679  -0.561   9.434   6.109  1.1464  2.5253 -1.1783
   13MOL0     H 1680  -0.909   9.097   6.005 -3.1256 -0.5332 -2.4660
   13MOL0     H 1681  -1.121   8.979   5.956  0.2341  0.8580  0.1042
   13MOL0     H 1682  -1.395   8.749   6.062 -4.3356  1.9654 -2.3685
   13MOL0     H 1683  -1.236   8.768   6.008 -0.5795 -0.5368 -2.1828
   13MOL0     H 1684  -1.371   8.795   5.826  3.0303 -3.7186  4.2230
   13MOL0     H 1685  -1.324   8.964   5.857  1.0587 -0.2191 -0.3444
   13MOL0     H 1686  -1.550   8.978   5.983  0.9569 -0.1059  0.3262
   13MOL0     H 1687  -1.585   8.815   5.929  2.3794 -1.5770  0.1770
   13MOL0     H 1688  -1.578   9.070   5.765  2.0350  0.2393 -0.5252
   13MOL0     H 1689  -1.518   8.916   5.688 -0.7718  0.7093 -1.2648
   13MOL0     H 1690  -1.757   8.973   5.649 -0.2411 -0.9731 -0.6216
   13MOL0     H 1691  -1.796   8.924   5.815 -1.3941  1.6746 -1.2395
   13MOL0     H 1692  -1.701   8.698   5.780 -4.1898 -1.2641  0.9362
   13MOL0     H 1693  -1.687   8.736   5.605  1.1375  2.8133 -0.0515
   13MOL0     H 1694  -1.935   8.774   5.766  2.5625  2.0257  0.1246
   13MOL0     H 1695  -1.916   8.767   5.582  0.1491  0.6362  0.8018
   13MOL0     H 1696  -1.852   8.517   5.623  3.5835  0.9834  1.6815
   13MOL0     H 1697  -2.023   8.555   5.672  0.2975  0.3022  0.4211
   13MOL0     H 1698  -1.272   9.043   6.341  1.0311  1.4863  1.6113
   13MOL0     H 1699  -1.063   9.174   6.407 -0.5042 -0.6602  0.4990
   13MOL0     H 1700  -0.767   9.321   6.463 -0.1906 -0.3775 -0.3432
   13MOL0     H 1701  -0.645   9.502   6.590 -1.9365  3.1417  0.0866
   13MOL0     H 1702   1.411  10.132   6.056 -2.7145 -3.7107 -2.1578
   13MOL0     H 1703   1.656  10.186   6.039 -3.6405  2.4869 -0.0773
   13MOL0     H 1704   2.196   9.811   6.162 -0.6582  0.4586  0.3828
   13MOL0     H 1705   2.428   9.895   6.112 -1.4514 -3.0917  0.9033
   13MOL0     H 1706   2.607   9.949   5.950  0.6731  1.1142  0.0270
   13MOL0     H 1707   2.618  10.006   6.115  1.2706 -2.8507 -0.2731
   13MOL0     H 1708   2.755  10.202   6.053 -0.1472 -0.4460  0.1189
   13MOL0     H 1709   2.817  10.061   5.980  2.4236  2.2847  1.5945
   13MOL0     H 1710   2.621  10.258   5.857  1.5799  3.6680 -2.0495
   13MOL0     H 1711   2.712  10.135   5.753  4.0785  0.1871 -0.2682
   13MOL0     H 1712   2.827  10.369   5.750  0.9712  3.2034  2.6749
   13MOL0     H 1713   2.821  10.356   5.917 -0.2128  1.8824 -1.2805
   13MOL0     H 1714   3.184  10.185   5.793  0.1664  1.8485 -0.2924
   13MOL0     H 1715   2.267  10.231   5.919  2.0362  1.4601  2.1215
   13MOL0     H 1716   2.021  10.150   5.969  0.1067 -0.1191 -0.2630
   14MOL0     O 1717   7.064   0.888   3.250  0.1966  0.4316 -0.0434
   14MOL0     C 1718   7.133   0.867   3.152  0.1519  0.8945 -1.5197
   14MOL0     O 1719   7.083   0.810   3.039  0.2635  0.0264 -0.0921
   14MOL0     C 1720   6.957   0.747   3.026 -0.1768 -0.7478  0.2171
   14MOL0     C 1721   6.944   0.613   3.065 -0.1312  0.4100 -0.9750
   14MOL0     C 1722   6.821   0.554   3.088 -0.1119 -0.5026 -0.0676
   14MOL0     C 1723   6.709   0.630   3.054  0.3340  0.9961 -0.5364
   14MOL0     O 1724   6.590   0.553   3.043 -1.0615  0.4577  0.5497
   14MOL0     C 1725   6.466   0.617   2.999 -0.2176  0.1813  0.5452
   14MOL0     C 1726   6.407   0.695   3.120 -0.2297  0.7662  0.0632
   14MOL0     C 1727   6.285   0.780   3.086  0.2364  0.0881 -0.5072
   14MOL0     C 1728   6.182   0.790   3.204 -0.2877 -1.0901  0.1885
   14MOL0     C 1729   6.072   0.895   3.179  0.0374 -1.0126 -0.4998
   14MOL0     C 1730   5.984   0.911   3.305 -0.6298  0.8301 -0.4062
   14MOL0     C 1731   5.903   1.044   3.285 -0.3034 -0.7622 -0.3189
   14MOL0     C 1732   5.790   1.051   3.395  1.3552  0.4505  0.1520
   14MOL0     N 1733   5.699   1.161   3.358 -0.4673 -0.1773  0.5147
   14MOL0     C 1734   5.597   1.147   3.268 -0.5473 -0.6531 -0.2158
   14MOL0     C 1735   5.534   1.271   3.272 -1.0292 -0.5305 -0.0385
   14MOL0     C 1736   5.389   1.292   3.220  0.7470  0.1647  0.3770
   14MOL0     C 1737   5.290   1.293   3.342  0.0476 -0.3833 -0.3878
   14MOL0     C 1738   5.154   1.241   3.294  0.7915 -0.3830 -0.3409
   14MOL0     C 1739   5.071   1.334   3.210 -0.0943  0.0716  0.0443
   14MOL0     O 1740   5.115   1.335   3.072 -0.5975 -0.2029  0.2811
   14MOL0     C 1741   5.039   1.404   2.979  0.1691 -0.8793  0.3263
   14MOL0     C 1742   4.899   1.439   2.993  0.0971 -0.6409 -0.4225
   14MOL0     C 1743   4.828   1.512   2.897  0.0729  0.5467  0.9284
   14MOL0     C 1744   4.890   1.560   2.783  0.2740 -0.0782  0.0918
   14MOL0     C 1745   4.813   1.640   2.687 -0.3167  0.0445 -0.1726
   14MOL0     O 1746   4.681   1.610   2.666 -0.3982  0.3160 -0.7157
   14MOL0     C 1747   4.603   1.667   2.570 -0.0063  0.4938  0.4875
   14MOL0     C 1748   4.473   1.714   2.592 -0.0959 -0.7662 -0.6044
   14MOL0     C 1749   4.394   1.783   2.499 -0.5782  1.0666  0.5078
   14MOL0     C 1750   4.440   1.804   2.373 -0.1080  0.0092 -0.1686
   14MOL0     O 1751   4.355   1.858   2.287 -0.6753 -0.2301 -0.0315
   14MOL0     C 1752   4.315   1.749   2.199  0.0112  0.3642  1.2447
   14MOL0     C 1753   4.173   1.777   2.135  0.7565 -0.1140 -0.6447
   14MOL0     C 1754   4.112   1.643   2.082 -0.7110  0.1441  0.2623
   14MOL0     C 1755   3.964   1.635   2.058  0.2845 -0.7676  0.1001
   14MOL0     C 1756   3.906   1.747   1.970 -0.5665 -0.4195  0.2271
   14MOL0     C 1757   3.750   1.724   1.940 -0.0574 -0.0969 -0.0589
   14MOL0     C 1758   3.682   1.837   1.849 -0.6566  0.3169 -0.2241
   14MOL0     C 1759   3.686   1.793   1.709 -0.4286 -0.2311  0.6583
   14MOL0    Cl 1760   3.606   1.632   1.681 -0.3444 -0.1877  0.0659
   14MOL0     C 1761   4.572   1.754   2.343  0.0417  0.3676  0.3802
   14MOL0     C 1762   4.649   1.690   2.442  0.7210  0.5321  0.4966
   14MOL0     O 1763   4.876   1.718   2.617  0.1025  0.2429  0.4863
   14MOL0     C 1764   5.030   1.527   2.756  0.1134 -0.0916 -0.4566
   14MOL0     C 1765   5.095   1.456   2.860  0.5063  0.2621  0.0530
   14MOL0     N 1766   5.604   1.348   3.367 -0.4527  0.2592 -0.4308
   14MOL0     N 1767   5.703   1.286   3.414 -0.5467 -0.3647  0.7606
   14MOL0     C 1768   6.718   0.764   3.016  0.5887  0.3289  0.5997
   14MOL0     C 1769   6.844   0.831   3.007 -0.4617  0.0288  0.3070
   14MOL0     C 1770   7.273   0.907   3.157 -0.2439 -0.2515 -0.3411
   14MOL0     C 1771   7.342   0.917   3.028 -0.0113  0.5084 -0.0461
   14MOL0     C 1772   7.478   0.957   3.022 -0.1359  0.0492 -0.4014
   14MOL0     C 1773   7.547   0.986   3.146 -0.5507 -0.0605 -0.4737
   14MOL0     O 1774   7.678   1.037   3.152  0.3139 -0.3103  0.5142
   14MOL0     C 1775   7.763   1.028   3.036 -0.8989  0.1227 -0.3443
   14MOL0     C 1776   7.899   1.065   3.080  0.4928 -0.3213 -0.5688
   14MOL0     C 1777   7.996   1.061   2.956  0.6014  0.2150 -0.0647
   14MOL0     C 1778   8.111   1.162   2.967  0.1336 -0.5387 -0.1973
   14MOL0     C 1779   8.075   1.299   2.917 -0.0492  0.1040  0.0385
   14MOL0     C 1780   8.040   1.415   2.896  0.2312 -0.6374 -0.1110
   14MOL0     C 1781   7.480   0.968   3.267  0.1190 -0.0638  1.0068
   14MOL0     C 1782   7.349   0.933   3.270 -0.1390 -1.0605 -0.3814
   14MOL0     H 1783   7.035   0.562   3.093  0.1961  1.5073  0.0746
   14MOL0     H 1784   6.810   0.449   3.115 -3.8378 -0.5946 -1.4338
   14MOL0     H 1785   6.403   0.530   2.983  2.2996 -2.1993  2.5680
   14MOL0     H 1786   6.474   0.674   2.906 -1.7588 -1.5051 -0.6671
   14MOL0     H 1787   6.484   0.752   3.173 -0.1720  0.5806  0.1788
   14MOL0     H 1788   6.376   0.618   3.190  1.5459 -1.1391 -1.0936
   14MOL0     H 1789   6.238   0.739   2.996 -0.3097 -0.2113 -0.0927
   14MOL0     H 1790   6.322   0.880   3.060  4.5248 -1.4281 -0.9766
   14MOL0     H 1791   6.145   0.691   3.234 -2.6188  0.3815  2.5983
   14MOL0     H 1792   6.241   0.830   3.286 -0.8017  1.4535 -0.5789
   14MOL0     H 1793   6.002   0.867   3.099 -1.1190  0.2694  0.0205
   14MOL0     H 1794   6.118   0.987   3.142 -2.3758 -0.5618 -2.7406
   14MOL0     H 1795   6.044   0.913   3.396  2.4770  0.8312 -2.2893
   14MOL0     H 1796   5.911   0.830   3.306  0.3951 -0.1161  0.8311
   14MOL0     H 1797   5.964   1.134   3.292 -2.1124  0.4743  0.0058
   14MOL0     H 1798   5.861   1.045   3.184  1.9538  1.6384 -1.3538
   14MOL0     H 1799   5.827   1.062   3.497  0.4605 -0.5673  0.6038
   14MOL0     H 1800   5.732   0.958   3.392  0.7006  0.8699 -1.3128
   14MOL0     H 1801   5.569   1.061   3.208  1.9177  0.5372 -3.3318
   14MOL0     H 1802   5.374   1.218   3.141 -0.7475  3.2190 -2.4907
   14MOL0     H 1803   5.385   1.388   3.168  0.7323 -0.7813 -1.4580
   14MOL0     H 1804   5.279   1.390   3.392  0.8881 -1.4007  1.9295
   14MOL0     H 1805   5.330   1.216   3.409 -2.0752 -1.0959  0.1373
   14MOL0     H 1806   5.154   1.138   3.257  0.5638 -0.9818  1.2333
   14MOL0     H 1807   5.101   1.237   3.389 -1.4147  2.4324 -1.3154
   14MOL0     H 1808   5.069   1.439   3.238  0.2203  0.6598 -1.9989
   14MOL0     H 1809   4.966   1.304   3.220  0.1982 -1.8809 -1.8981
   14MOL0     H 1810   4.845   1.417   3.084 -1.2925  2.9706 -0.2388
   14MOL0     H 1811   4.723   1.537   2.913 -0.0005  0.9718 -0.1103
   14MOL0     H 1812   4.426   1.689   2.687  0.0011 -2.8854 -1.0835
   14MOL0     H 1813   4.293   1.815   2.520 -0.4927  0.4842  1.9192
   14MOL0     H 1814   4.312   1.651   2.248  1.7656 -0.8657 -0.9152
   14MOL0     H 1815   4.399   1.748   2.130 -1.4881 -2.4265 -0.7574
   14MOL0     H 1816   4.178   1.840   2.046  0.9620  0.1132 -0.4733
   14MOL0     H 1817   4.112   1.818   2.216  0.5965 -0.9690 -0.3217
   14MOL0     H 1818   4.139   1.555   2.142 -1.1748 -1.3240 -1.5994
   14MOL0     H 1819   4.159   1.621   1.986 -0.7845 -1.4755  0.5695
   14MOL0     H 1820   3.944   1.535   2.017  0.7945 -0.6084 -0.5596
   14MOL0     H 1821   3.923   1.642   2.159 -1.0986 -0.9960 -0.4268
   14MOL0     H 1822   3.960   1.759   1.876  0.1246  2.8382  0.9351
   14MOL0     H 1823   3.924   1.842   2.021  3.2051 -1.1734  0.5929
   14MOL0     H 1824   3.697   1.738   2.035 -1.0882  1.1937 -0.7878
   14MOL0     H 1825   3.731   1.617   1.927  1.3510 -0.3349 -0.3878
   14MOL0     H 1826   3.578   1.839   1.882 -0.2503 -1.1596  1.2186
   14MOL0     H 1827   3.729   1.935   1.864 -0.9341  0.7378 -1.9056
   14MOL0     H 1828   3.791   1.788   1.679  0.0251  0.8506  1.9677
   14MOL0     H 1829   3.641   1.869   1.644  2.3475  2.3952  1.5291
   14MOL0     H 1830   4.609   1.762   2.241  3.8750 -0.9992  1.4967
   14MOL0     H 1831   4.746   1.643   2.431  0.2421 -0.1434 -1.3010
   14MOL0     H 1832   5.085   1.560   2.668 -1.2708  2.0799 -0.5751
   14MOL0     H 1833   5.202   1.438   2.850  0.9023  0.7136  2.7005
   14MOL0     H 1834   6.627   0.821   2.998 -0.7961 -1.3744  1.9280
   14MOL0     H 1835   6.848   0.935   2.977 -0.7686 -0.7126 -2.6501
   14MOL0     H 1836   7.282   0.897   2.940 -0.4501 -1.4764  0.6617
   14MOL0     H 1837   7.532   0.975   2.929 -0.1735 -1.9314 -0.8550
   14MOL0     H 1838   7.726   1.087   2.952  0.2418 -2.5290 -2.8725
   14MOL0     H 1839   7.754   0.924   3.004  0.8342  0.2947 -1.5225
   14MOL0     H 1840   7.895   1.161   3.131 -0.0095 -0.9964  0.7206
   14MOL0     H 1841   7.934   0.991   3.154 -0.7622  1.0624  1.5088
   14MOL0     H 1842   7.938   1.081   2.865 -0.8366  1.0421  0.9952
   14MOL0     H 1843   8.043   0.962   2.959  1.5719  0.6766  0.3188
   14MOL0     H 1844   8.141   1.166   3.072 -0.3994 -0.9166 -0.0266
   14MOL0     H 1845   8.202   1.125   2.917  1.0132  1.0845  0.1396
   14MOL0     H 1846   8.004   1.515   2.882 -0.6359 -0.6991  1.4217
   14MOL0     H 1847   7.534   0.986   3.359  3.5487  1.2443 -1.0798
   14MOL0     H 1848   7.299   0.925   3.366  1.9205 -0.9728  0.7389
   15MOL0     O 1849   7.970  10.508   4.707 -0.0238  0.2610  0.2252
   15MOL0     C 1850   7.986  10.392   4.667  0.8411  0.1200 -0.6026
   15MOL0     O 1851   7.888  10.304   4.626  0.3738 -0.7515 -0.0011
   15MOL0     C 1852   7.757  10.308   4.665  0.5088 -0.4503 -0.2801
   15MOL0     C 1853   7.676  10.423   4.681  0.6777 -0.6206  0.0375
   15MOL0     C 1854   7.541  10.413   4.731 -0.9017 -0.6389 -0.7812
   15MOL0     C 1855   7.492  10.284   4.756 -0.0991 -0.1155  0.9220
   15MOL0     O 1856   7.366  10.268   4.816 -0.2261 -0.0240 -0.0253
   15MOL0     C 1857   7.257  10.344   4.753  0.1732  0.8094 -0.9754
   15MOL0     C 1858   7.137  10.255   4.746  0.0550 -0.3939  0.3017
   15MOL0     C 1859   7.172  10.132   4.670  0.0192  0.4301 -0.1509
   15MOL0     C 1860   7.048  10.048   4.658  0.7287  0.2928  0.1247
   15MOL0     C 1861   7.074   9.932   4.570 -0.2796  0.9605 -0.4132
   15MOL0     C 1862   7.067   9.963   4.420 -0.2354 -0.8031 -0.0815
   15MOL0     C 1863   7.054   9.833   4.332 -0.5081  0.0425 -0.1705
   15MOL0     C 1864   7.047   9.883   4.188  0.5352  0.1513 -0.4127
   15MOL0     N 1865   6.991   9.785   4.099  0.6122  0.3556  0.9582
   15MOL0     C 1866   7.050   9.666   4.062  0.2129 -1.3918 -0.5172
   15MOL0     C 1867   6.966   9.604   3.978 -0.2762  0.9863  0.1077
   15MOL0     C 1868   6.980   9.469   3.923 -0.2673 -0.1775 -0.2179
   15MOL0     C 1869   7.006   9.357   4.032  1.0801  0.3630  0.2813
   15MOL0     C 1870   6.897   9.336   4.137  0.5343 -0.2705  0.3715
   15MOL0     C 1871   6.771   9.284   4.078  0.0073 -0.0477 -0.2257
   15MOL0     O 1872   6.787   9.175   3.991 -0.5728 -0.3387  0.3378
   15MOL0     C 1873   6.667   9.120   3.955 -0.3208 -0.2823  0.5074
   15MOL0     C 1874   6.679   9.037   3.840  0.1543 -0.7024  0.2934
   15MOL0     C 1875   6.566   8.975   3.789  0.9449 -0.7083 -0.6145
   15MOL0     C 1876   6.436   8.993   3.838  0.3405 -0.4573 -0.4933
   15MOL0     C 1877   6.321   8.938   3.769 -0.3147  0.3559 -0.2465
   15MOL0     O 1878   6.340   8.853   3.671 -0.2519  0.9717  0.6798
   15MOL0     C 1879   6.238   8.772   3.651  0.5198  0.0013 -0.4799
   15MOL0     C 1880   6.181   8.777   3.516  0.3093  0.5882 -0.1232
   15MOL0     C 1881   6.069   8.692   3.486  0.1877 -0.7096 -0.5360
   15MOL0     C 1882   6.033   8.604   3.580 -0.4039 -0.2931  0.6978
   15MOL0     O 1883   5.935   8.525   3.518 -0.0241  0.4926  0.1559
   15MOL0     C 1884   5.880   8.411   3.583 -0.0361 -0.4802 -0.0894
   15MOL0     C 1885   5.724   8.397   3.554 -0.2727 -0.8275 -0.0874
   15MOL0     C 1886   5.633   8.416   3.674  0.1450  0.5628 -0.2857
   15MOL0     C 1887   5.498   8.356   3.646  0.2563 -0.3495  0.1846
   15MOL0     C 1888   5.395   8.372   3.764 -0.3734  0.6141 -0.4223
   15MOL0     C 1889   5.267   8.288   3.732 -0.2490 -0.2746  0.6525
   15MOL0     C 1890   5.179   8.307   3.859 -0.1941 -0.2013 -0.2512
   15MOL0     C 1891   5.036   8.246   3.845  0.7126  0.3629 -0.3831
   15MOL0    Cl 1892   4.918   8.324   3.954 -0.1344  0.3091 -0.0222
   15MOL0     C 1893   6.083   8.598   3.708 -0.6238 -0.5361 -0.7707
   15MOL0     C 1894   6.187   8.685   3.744  0.2606  0.4631  0.4296
   15MOL0     O 1895   6.211   8.974   3.812  0.1408 -0.5251 -0.2268
   15MOL0     C 1896   6.427   9.075   3.953  0.0587 -0.1663 -0.1210
   15MOL0     C 1897   6.539   9.144   4.011  1.4069  0.6283  0.0195
   15MOL0     N 1898   6.848   9.682   3.973  0.7754 -0.0488 -0.5345
   15MOL0     N 1899   6.865   9.791   4.042 -0.0974  0.0272  0.8040
   15MOL0     C 1900   7.560  10.175   4.712  0.7492  0.0436  0.0356
   15MOL0     C 1901   7.690  10.189   4.678  0.6045  1.0699  0.4635
   15MOL0     C 1902   8.117  10.343   4.618 -0.5112 -0.1919  0.7061
   15MOL0     C 1903   8.235  10.416   4.654  0.2176 -0.3765 -0.5985
   15MOL0     C 1904   8.358  10.383   4.611 -0.5393  0.3984  0.1518
   15MOL0     C 1905   8.379  10.272   4.522  0.9378 -0.3684 -0.0391
   15MOL0     O 1906   8.494  10.238   4.456  0.2852  0.5263 -0.0511
   15MOL0     C 1907   8.617  10.314   4.470 -0.7522 -0.4539 -0.3613
   15MOL0     C 1908   8.650  10.351   4.327  0.4521 -1.2148 -0.1474
   15MOL0     C 1909   8.782  10.432   4.321 -0.1273  0.7366  0.3296
   15MOL0     C 1910   8.892  10.365   4.238  0.8478 -0.2880  0.0648
   15MOL0     C 1911   8.997  10.324   4.325 -0.1848 -0.9052 -0.1778
   15MOL0     C 1912   9.098  10.304   4.389 -0.5220 -0.7861  0.2913
   15MOL0     C 1913   8.266  10.199   4.484 -0.4085  0.0938 -0.0826
   15MOL0     C 1914   8.142  10.231   4.530  1.2094 -0.0447  0.2141
   15MOL0     H 1915   7.718  10.520   4.655 -0.9802  1.3271  3.8894
   15MOL0     H 1916   7.495  10.509   4.750  1.0170  0.1745 -0.0257
   15MOL0     H 1917   7.291  10.360   4.650 -0.3857  2.3792 -0.9464
   15MOL0     H 1918   7.240  10.437   4.809 -1.3148  0.5856 -1.0101
   15MOL0     H 1919   7.064  10.310   4.686  2.3789  2.8411  0.2188
   15MOL0     H 1920   7.100  10.240   4.848 -1.4448  2.3847  0.2640
   15MOL0     H 1921   7.227  10.057   4.727 -1.0720  1.5266  2.4846
   15MOL0     H 1922   7.217  10.160   4.574  0.8798 -0.4042  0.0010
   15MOL0     H 1923   7.020  10.015   4.758  1.1134 -0.5266 -0.0269
   15MOL0     H 1924   6.963  10.101   4.615  0.1518 -0.2094  0.6276
   15MOL0     H 1925   6.996   9.857   4.586  0.8977 -0.7644 -2.1551
   15MOL0     H 1926   7.168   9.883   4.598  0.4374  0.8028 -2.7914
   15MOL0     H 1927   7.161  10.010   4.387 -1.1759  0.6378 -0.7995
   15MOL0     H 1928   6.975  10.021   4.408  0.3696  0.8869  2.6673
   15MOL0     H 1929   7.147   9.775   4.342  0.5217  1.3624 -1.4876
   15MOL0     H 1930   6.961   9.788   4.367 -1.2023  1.0301 -0.7404
   15MOL0     H 1931   7.145   9.911   4.149  0.9557 -0.3322  0.2801
   15MOL0     H 1932   6.989   9.976   4.189  3.4043  2.1020  1.8507
   15MOL0     H 1933   7.137   9.624   4.112  0.3372 -0.7588 -0.1751
   15MOL0     H 1934   7.067   9.484   3.858  2.0995  0.8989  2.9458
   15MOL0     H 1935   6.895   9.438   3.861  0.4212 -2.3647 -0.1424
   15MOL0     H 1936   7.101   9.358   4.087  0.4962 -0.3365  1.3462
   15MOL0     H 1937   7.029   9.259   3.989 -0.5980 -1.1766  2.6702
   15MOL0     H 1938   6.933   9.266   4.213  3.1921 -0.7252 -1.2012
   15MOL0     H 1939   6.884   9.426   4.197 -3.6872 -1.0658  0.9471
   15MOL0     H 1940   6.722   9.365   4.024 -0.9420 -0.8421 -0.5876
   15MOL0     H 1941   6.695   9.257   4.152 -0.1710 -0.6461 -0.6197
   15MOL0     H 1942   6.774   9.013   3.794  1.1639  3.3128 -0.1559
   15MOL0     H 1943   6.589   8.921   3.698 -1.2620 -5.8664  1.4879
   15MOL0     H 1944   6.232   8.840   3.444  0.3161  1.4948  0.6540
   15MOL0     H 1945   6.013   8.699   3.394 -0.5134  1.0075 -0.0252
   15MOL0     H 1946   5.887   8.421   3.692 -1.2537 -1.4472  0.1024
   15MOL0     H 1947   5.926   8.315   3.556  0.7845 -0.0044 -0.4151
   15MOL0     H 1948   5.706   8.294   3.521  1.7840 -0.5320 -2.4245
   15MOL0     H 1949   5.684   8.454   3.469 -0.2509 -1.7229 -0.7137
   15MOL0     H 1950   5.616   8.522   3.695  0.3957  0.3940  0.8675
   15MOL0     H 1951   5.677   8.361   3.758 -0.0594  1.1491  0.2216
   15MOL0     H 1952   5.459   8.405   3.556 -3.2774 -0.7423  1.3610
   15MOL0     H 1953   5.510   8.253   3.609 -2.0470  0.1881 -2.3891
   15MOL0     H 1954   5.373   8.479   3.773 -0.0588  0.5945  0.7668
   15MOL0     H 1955   5.432   8.333   3.859  1.9356  0.4304 -1.3126
   15MOL0     H 1956   5.289   8.182   3.721 -0.0608 -0.1731 -0.0180
   15MOL0     H 1957   5.233   8.334   3.638 -3.1900  3.0942  3.1087
   15MOL0     H 1958   5.234   8.269   3.945 -3.3531 -2.2261  1.0142
   15MOL0     H 1959   5.177   8.417   3.855 -3.3951 -0.1650 -0.5837
   15MOL0     H 1960   5.046   8.139   3.862  3.1096  0.6169  0.0586
   15MOL0     H 1961   4.997   8.270   3.746 -0.7038  1.4642  0.4004
   15MOL0     H 1962   6.048   8.522   3.777 -2.1942 -1.3401 -2.3632
   15MOL0     H 1963   6.245   8.684   3.837  2.4812 -1.0292 -0.8705
   15MOL0     H 1964   6.335   9.105   4.003  0.3843 -0.2856  0.5736
   15MOL0     H 1965   6.520   9.221   4.085 -0.1624  4.5795 -4.0242
   15MOL0     H 1966   7.509  10.079   4.706 -0.6378  0.8186 -1.5285
   15MOL0     H 1967   7.751  10.103   4.652 -0.6917 -0.4698  2.1578
   15MOL0     H 1968   8.227  10.498   4.725 -0.3059 -0.9048 -0.0469
   15MOL0     H 1969   8.446  10.436   4.646  0.0403  0.1947 -0.9439
   15MOL0     H 1970   8.707  10.259   4.499  1.5744  4.2382  2.4643
   15MOL0     H 1971   8.620  10.397   4.542  1.2745  3.4450 -4.4876
   15MOL0     H 1972   8.661  10.263   4.263  2.1599 -2.3435  1.5820
   15MOL0     H 1973   8.575  10.414   4.279 -0.0306 -0.4448  1.5465
   15MOL0     H 1974   8.814  10.455   4.423  0.1017 -2.3615  1.0584
   15MOL0     H 1975   8.770  10.526   4.266 -0.5802  0.5720  0.1375
   15MOL0     H 1976   8.853  10.289   4.169  0.6510  1.2317 -1.5533
   15MOL0     H 1977   8.940  10.439   4.174  1.7314 -0.8967  0.0014
   15MOL0     H 1978   9.169  10.305   4.469  0.2840  0.3197 -0.4126
   15MOL0     H 1979   8.275  10.115   4.416 -0.7010 -0.7317  0.8727
   15MOL0     H 1980   8.058  10.169   4.498 -0.3961  1.0330  2.1116
   16MOL0     O 1981   8.792   8.898   1.942  0.9925  0.2982  0.4251
   16MOL0     C 1982   8.768   9.009   1.897 -0.2171 -0.1316  0.1760
   16MOL0     O 1983   8.850   9.120   1.908  0.1793 -0.3071 -0.5116
   16MOL0     C 1984   8.970   9.127   1.982  0.5479  0.3099 -0.2585
   16MOL0     C 1985   8.984   9.245   2.051 -0.6138 -0.4332 -0.2104
   16MOL0     C 1986   9.098   9.269   2.133  0.2190 -0.4946  1.0336
   16MOL0     C 1987   9.205   9.176   2.130 -1.8056  0.1218  0.5881
   16MOL0     O 1988   9.317   9.211   2.207  0.3815  0.1300  0.0966
   16MOL0     C 1989   9.433   9.131   2.192  0.4783 -0.1548  0.4242
   16MOL0     C 1990   9.538   9.198   2.281  0.4159  0.2269 -0.2357
   16MOL0     C 1991   9.599   9.318   2.209  0.5049  0.4761  0.2956
   16MOL0     C 1992   9.690   9.403   2.297  0.2119  0.3154 -0.9643
   16MOL0     C 1993   9.726   9.541   2.238 -0.6404  0.1664  0.3634
   16MOL0     C 1994   9.821   9.545   2.120 -0.5603  0.1432  0.4136
   16MOL0     C 1995   9.971   9.496   2.138 -0.1187 -0.0758 -0.2085
   16MOL0     C 1996  10.045   9.480   2.011  0.4728 -0.0832  0.6630
   16MOL0     N 1997  10.165   9.391   2.035 -0.3405 -0.2759  0.6050
   16MOL0     C 1998  10.153   9.252   2.038 -0.2111  0.7658  0.2329
   16MOL0     C 1999  10.266   9.205   1.977 -1.0050 -0.1781  1.1637
   16MOL0     C 2000  10.317   9.072   1.950  0.0490  0.3448 -0.2907
   16MOL0     C 2001  10.215   8.959   1.977 -0.5965  0.5100  0.9364
   16MOL0     C 2002  10.228   8.846   1.873  0.6666  0.7899  0.9052
   16MOL0     C 2003  10.130   8.733   1.886  0.2163  0.4315 -0.6031
   16MOL0     O 2004  10.144   8.677   2.020  0.1649 -0.5692  0.9099
   16MOL0     C 2005  10.032   8.620   2.067 -0.2531  0.6563  0.8222
   16MOL0     C 2006   9.933   8.562   1.985  0.0842 -0.1119  0.2253
   16MOL0     C 2007   9.813   8.508   2.035 -0.6795  0.0074  0.3360
   16MOL0     C 2008   9.794   8.499   2.168 -0.8190  0.0968 -0.3122
   16MOL0     C 2009   9.674   8.421   2.223 -0.3193  0.0996  0.2693
   16MOL0     O 2010   9.581   8.375   2.140 -0.6186  0.3749  0.3179
   16MOL0     C 2011   9.466   8.313   2.183 -0.0749 -0.2300 -0.9473
   16MOL0     C 2012   9.450   8.241   2.300  0.0382  0.4866 -0.5227
   16MOL0     C 2013   9.324   8.183   2.328  0.6956  0.5547  0.2121
   16MOL0     C 2014   9.207   8.203   2.246 -0.8155 -0.1556 -0.3068
   16MOL0     O 2015   9.091   8.136   2.283  0.3994  0.8402 -0.0239
   16MOL0     C 2016   8.969   8.158   2.218  0.3451  0.1823  0.0923
   16MOL0     C 2017   8.858   8.072   2.285  0.5892  0.6218  0.5756
   16MOL0     C 2018   8.714   8.113   2.242  0.5035  0.2968  0.3164
   16MOL0     C 2019   8.655   8.016   2.142  0.0724 -0.1679  1.1097
   16MOL0     C 2020   8.502   8.036   2.101  0.0666 -0.3359 -0.8774
   16MOL0     C 2021   8.451   7.928   2.007  0.4485  0.2162  0.0553
   16MOL0     C 2022   8.292   7.917   1.996 -0.0508 -0.2773 -0.8820
   16MOL0     C 2023   8.256   7.837   1.872 -0.5853 -0.0886  0.1725
   16MOL0    Cl 2024   8.086   7.843   1.859 -0.2077  0.3251  0.3694
   16MOL0     C 2025   9.228   8.279   2.130 -0.2573 -0.1430 -0.1070
   16MOL0     C 2026   9.356   8.331   2.100 -0.5016 -0.7292 -0.8508
   16MOL0     O 2027   9.666   8.423   2.351 -0.2377 -0.2843  0.2737
   16MOL0     C 2028   9.895   8.548   2.248 -0.1357  0.6484  0.5117
   16MOL0     C 2029  10.010   8.602   2.199 -0.1819 -0.3994 -0.2375
   16MOL0     N 2030  10.333   9.320   1.926  0.3848  0.9233  0.3539
   16MOL0     N 2031  10.284   9.422   1.975 -0.6795  0.3863 -0.4211
   16MOL0     C 2032   9.178   9.052   2.063  0.6276 -0.2082  0.0405
   16MOL0     C 2033   9.060   9.025   1.990 -1.0425 -0.1223  0.1953
   16MOL0     C 2034   8.634   9.029   1.839 -0.5415 -0.0023 -0.2698
   16MOL0     C 2035   8.607   9.137   1.754  0.4045 -0.3524  0.5173
   16MOL0     C 2036   8.482   9.145   1.693 -0.1073  0.4562  0.1373
   16MOL0     C 2037   8.382   9.060   1.728 -0.4295 -0.6024  0.4357
   16MOL0     O 2038   8.264   9.060   1.654  0.2043 -0.5561  0.2253
   16MOL0     C 2039   8.175   8.957   1.679  0.0485 -0.0197 -1.1963
   16MOL0     C 2040   8.045   8.981   1.605  0.0633 -0.7005  0.1094
   16MOL0     C 2041   7.952   8.867   1.625  0.3843 -0.3296  0.9878
   16MOL0     C 2042   7.885   8.853   1.771 -0.5511 -0.4287 -0.2202
   16MOL0     C 2043   7.780   8.752   1.763 -0.2976  0.0200 -0.5321
   16MOL0     C 2044   7.714   8.655   1.732  0.8376  0.2303 -0.2876
   16MOL0     C 2045   8.411   8.962   1.822  0.1140  0.6125  1.3438
   16MOL0     C 2046   8.535   8.944   1.878  0.6381  0.4675  0.3840
   16MOL0     H 2047   8.901   9.315   2.062 -3.0416 -3.1564 -0.1077
   16MOL0     H 2048   9.095   9.370   2.173  2.8535 -1.2026  3.3479
   16MOL0     H 2049   9.471   9.131   2.089 -3.1350  0.1997 -1.0508
   16MOL0     H 2050   9.416   9.028   2.223 -1.1181  0.6485  2.4298
   16MOL0     H 2051   9.623   9.131   2.296  1.1144  1.1016 -0.1867
   16MOL0     H 2052   9.486   9.233   2.371  2.8062  2.2499  0.4681
   16MOL0     H 2053   9.519   9.379   2.166 -0.4098 -1.0765 -0.2457
   16MOL0     H 2054   9.648   9.276   2.121 -0.1189  2.1223 -0.8924
   16MOL0     H 2055   9.620   9.419   2.379  0.1124 -5.0585  0.4180
   16MOL0     H 2056   9.780   9.354   2.337  0.1164 -2.9445 -4.1188
   16MOL0     H 2057   9.767   9.606   2.316  0.1017  0.6568 -0.4252
   16MOL0     H 2058   9.631   9.585   2.204 -1.9895 -3.4234 -0.9555
   16MOL0     H 2059   9.834   9.649   2.089  0.9370  0.0500  0.6557
   16MOL0     H 2060   9.759   9.491   2.048 -0.9512 -0.7598  1.4020
   16MOL0     H 2061  10.033   9.569   2.191  0.8516 -1.2102  0.2737
   16MOL0     H 2062   9.973   9.410   2.206 -4.9931  0.0232  0.4051
   16MOL0     H 2063  10.065   9.583   1.980  1.2812 -0.1152  1.0490
   16MOL0     H 2064   9.997   9.428   1.928  0.6726  0.2843  0.3139
   16MOL0     H 2065  10.079   9.185   2.081  1.7070 -3.1847 -2.0246
   16MOL0     H 2066  10.405   9.055   2.013 -1.3931 -1.0795  1.4275
   16MOL0     H 2067  10.339   9.070   1.842 -1.8141 -2.6125 -0.7362
   16MOL0     H 2068  10.112   8.996   1.970 -1.6538 -2.4557 -1.0653
   16MOL0     H 2069  10.231   8.922   2.079  3.5209 -0.3855  0.1323
   16MOL0     H 2070  10.211   8.886   1.772 -3.1002 -3.1742 -0.3515
   16MOL0     H 2071  10.328   8.802   1.864 -0.5267 -1.7015 -1.4619
   16MOL0     H 2072  10.141   8.655   1.810  2.1957  2.6023 -2.7636
   16MOL0     H 2073  10.026   8.760   1.865 -0.1013 -1.1636 -1.2419
   16MOL0     H 2074   9.956   8.562   1.879  0.3955  0.7516  0.2830
   16MOL0     H 2075   9.733   8.466   1.975  1.2271  0.4016 -2.7242
   16MOL0     H 2076   9.524   8.227   2.378  0.5311  1.0734 -0.8832
   16MOL0     H 2077   9.320   8.113   2.411  1.8483  0.5530  0.2793
   16MOL0     H 2078   8.983   8.130   2.113 -2.8957  1.6437 -0.8648
   16MOL0     H 2079   8.946   8.265   2.217 -0.6103 -0.0137 -0.3670
   16MOL0     H 2080   8.860   8.094   2.392 -1.7322  0.0058  0.7937
   16MOL0     H 2081   8.892   7.971   2.260  2.0758  2.1053 -4.6502
   16MOL0     H 2082   8.704   8.213   2.200  0.1032 -0.2330 -0.8933
   16MOL0     H 2083   8.648   8.095   2.328 -0.9374 -2.7937 -1.2557
   16MOL0     H 2084   8.713   8.023   2.049 -0.0708 -2.0459  0.8365
   16MOL0     H 2085   8.665   7.914   2.180  0.1681 -1.2497 -1.5758
   16MOL0     H 2086   8.486   8.135   2.057 -0.4270  0.7821  1.6906
   16MOL0     H 2087   8.446   8.024   2.194  0.6871  0.0211 -0.4529
   16MOL0     H 2088   8.477   7.828   2.043  1.8625  0.0689 -1.2454
   16MOL0     H 2089   8.488   7.938   1.904 -0.0061  1.7663  0.0078
   16MOL0     H 2090   8.252   7.854   2.076 -0.0110 -0.3725 -0.9376
   16MOL0     H 2091   8.246   8.016   1.996 -0.8087 -0.5510  1.5936
   16MOL0     H 2092   8.287   7.733   1.886 -0.7112 -0.3348 -1.2185
   16MOL0     H 2093   8.301   7.889   1.787  3.6478  2.0725  3.3603
   16MOL0     H 2094   9.145   8.299   2.063  0.6511  0.0369 -1.2311
   16MOL0     H 2095   9.369   8.391   2.010 -3.0152  0.1861 -0.6882
   16MOL0     H 2096   9.881   8.555   2.356  1.1618  3.0810  0.5862
   16MOL0     H 2097  10.086   8.649   2.261 -0.4627  1.7742 -1.4555
   16MOL0     H 2098   9.260   8.981   2.070  0.9894 -0.0061 -1.6530
   16MOL0     H 2099   9.048   8.942   1.921 -1.5263 -0.2450  0.4248
   16MOL0     H 2100   8.676   9.216   1.725 -2.6404  2.1416 -0.5678
   16MOL0     H 2101   8.450   9.216   1.617  0.3844 -0.2623 -0.7738
   16MOL0     H 2102   8.152   8.953   1.786  0.6143  0.5326 -1.0564
   16MOL0     H 2103   8.221   8.861   1.653 -0.6779 -1.1307  1.2980
   16MOL0     H 2104   8.001   9.075   1.639 -1.0653 -1.4230  0.7196
   16MOL0     H 2105   8.074   8.989   1.500  0.5083  0.4473  0.3135
   16MOL0     H 2106   8.010   8.779   1.598 -0.6655 -1.1795  1.4238
   16MOL0     H 2107   7.868   8.877   1.556  1.3488  1.5113 -0.0023
   16MOL0     H 2108   7.967   8.824   1.836 -1.7519  0.4863  1.7997
   16MOL0     H 2109   7.842   8.944   1.814  0.4648 -0.2000  0.3176
   16MOL0     H 2110   7.664   8.564   1.706  0.2762  0.5612 -0.3945
   16MOL0     H 2111   8.336   8.890   1.854 -0.8541  1.0924  0.2242
   16MOL0     H 2112   8.554   8.858   1.941  2.7169 -0.1846 -1.0310
   17MOL0     O 2113   3.964   8.558   4.599  0.1669 -0.4944 -0.3339
   17MOL0     C 2114   4.074   8.606   4.570  0.8226 -0.8593  0.3626
   17MOL0     O 2115   4.122   8.720   4.619 -0.4168 -0.0995 -0.6823
   17MOL0     C 2116   4.035   8.806   4.677  0.5818 -0.5394  0.0109
   17MOL0     C 2117   3.901   8.836   4.635  0.4208 -0.8497  0.1070
   17MOL0     C 2118   3.829   8.931   4.691 -0.1112 -0.4569 -0.6184
   17MOL0     C 2119   3.878   9.009   4.798 -1.1023 -1.0034 -0.4125
   17MOL0     O 2120   3.791   9.103   4.852 -0.0548  0.4317 -0.0969
   17MOL0     C 2121   3.858   9.211   4.913 -0.1982  0.1724  0.6689
   17MOL0     C 2122   3.756   9.289   4.986 -0.3039  0.4662 -0.2013
   17MOL0     C 2123   3.629   9.323   4.913 -0.7020 -0.9878  0.1993
   17MOL0     C 2124   3.557   9.427   5.001 -0.2778  0.3572 -0.1400
   17MOL0     C 2125   3.423   9.475   4.934 -0.4006 -0.2087  0.2013
   17MOL0     C 2126   3.426   9.547   4.791  0.3883  0.7837 -0.1905
   17MOL0     C 2127   3.296   9.537   4.718 -1.2190  0.1011 -0.0021
   17MOL0     C 2128   3.194   9.647   4.759 -0.9042  0.0506  0.2339
   17MOL0     N 2129   3.137   9.643   4.902  0.8651 -0.3774  0.4513
   17MOL0     C 2130   3.056   9.549   4.947  0.5490  0.7696 -0.2904
   17MOL0     C 2131   3.028   9.585   5.074 -0.4519  0.8181 -0.6019
   17MOL0     C 2132   2.933   9.504   5.160  0.3923 -0.7384  0.1697
   17MOL0     C 2133   2.791   9.538   5.123  0.3672 -0.2124 -0.0379
   17MOL0     C 2134   2.700   9.439   5.198  0.1186 -0.1168  0.2587
   17MOL0     C 2135   2.569   9.495   5.210  0.1693 -1.2206 -0.1364
   17MOL0     O 2136   2.509   9.524   5.084 -0.4428  0.0487 -0.1514
   17MOL0     C 2137   2.379   9.568   5.088 -0.2810 -0.2268  0.5368
   17MOL0     C 2138   2.313   9.620   5.203 -0.2032  0.3296  0.1119
   17MOL0     C 2139   2.176   9.632   5.195 -0.1347 -0.7146  0.5667
   17MOL0     C 2140   2.104   9.606   5.080  0.3294  0.7088 -0.2167
   17MOL0     C 2141   1.954   9.598   5.089 -0.4636  0.6193 -0.6056
   17MOL0     O 2142   1.889   9.533   4.989  0.4025 -0.5544 -0.6206
   17MOL0     C 2143   1.764   9.485   5.011 -0.0550  0.3602  0.8659
   17MOL0     C 2144   1.739   9.344   5.022  0.2927  0.0867  0.8323
   17MOL0     C 2145   1.612   9.290   5.054 -0.0497  0.3013 -0.1177
   17MOL0     C 2146   1.501   9.376   5.058 -0.0808 -0.3745  0.4768
   17MOL0     O 2147   1.380   9.336   5.091  0.1987 -0.1736 -0.3281
   17MOL0     C 2148   1.322   9.210   5.060  0.3480  0.9212  0.4480
   17MOL0     C 2149   1.171   9.204   5.067  0.4647  0.1050 -0.2242
   17MOL0     C 2150   1.119   9.201   5.207 -0.7460  0.5015  0.4418
   17MOL0     C 2151   0.965   9.185   5.207 -0.1633 -0.4277  0.5899
   17MOL0     C 2152   0.905   9.068   5.128 -1.4160  0.2408 -0.3846
   17MOL0     C 2153   0.749   9.073   5.119 -0.8676  0.0577  0.6953
   17MOL0     C 2154   0.685   9.072   5.254 -0.4549 -0.4462 -0.2578
   17MOL0     C 2155   0.540   9.038   5.257  0.9461 -0.1890 -0.0572
   17MOL0    Cl 2156   0.459   9.123   5.128  0.6077 -0.3509 -0.0166
   17MOL0     C 2157   1.527   9.515   5.051  0.2129  1.3210  0.8840
   17MOL0     C 2158   1.651   9.574   5.027  0.6459  0.1538 -0.4154
   17MOL0     O 2159   1.901   9.645   5.192  0.5535  0.0178 -0.1821
   17MOL0     C 2160   2.168   9.569   4.961 -0.5178  0.3270  0.1147
   17MOL0     C 2161   2.301   9.548   4.970 -0.7116  0.9870  0.2533
   17MOL0     N 2162   3.092   9.700   5.098  0.8538  0.4697  0.3542
   17MOL0     N 2163   3.154   9.737   4.989  0.0063  0.0083  0.0529
   17MOL0     C 2164   4.013   8.978   4.837 -0.0495 -0.3172 -0.8715
   17MOL0     C 2165   4.082   8.870   4.794 -0.4021  0.2919 -0.0645
   17MOL0     C 2166   4.148   8.539   4.465 -0.0653  0.5211 -0.2581
   17MOL0     C 2167   4.100   8.423   4.399  0.1209 -0.1542 -0.6104
   17MOL0     C 2168   4.167   8.368   4.289  0.3586  0.1953  0.1073
   17MOL0     C 2169   4.292   8.419   4.251 -0.4478 -0.9200 -0.3131
   17MOL0     O 2170   4.355   8.370   4.139 -0.7333 -1.3675  0.5919
   17MOL0     C 2171   4.492   8.398   4.122 -0.1645  0.3100  0.4726
   17MOL0     C 2172   4.521   8.528   4.045 -0.9645  0.1348  0.6270
   17MOL0     C 2173   4.470   8.507   3.903  0.5533  0.1202  0.4973
   17MOL0     C 2174   4.555   8.414   3.811  0.5670 -0.0454 -0.7941
   17MOL0     C 2175   4.536   8.437   3.672 -0.2737  0.5713  0.1311
   17MOL0     C 2176   4.502   8.480   3.560 -0.6425  0.3009 -0.5797
   17MOL0     C 2177   4.354   8.521   4.333  0.6408  0.3803  0.0826
   17MOL0     C 2178   4.280   8.585   4.429 -0.6690  0.0784  0.1591
   17MOL0     H 2179   3.855   8.776   4.557  0.7354  0.1273 -0.8557
   17MOL0     H 2180   3.728   8.940   4.652 -1.1264  3.2917  2.2998
   17MOL0     H 2181   3.912   9.273   4.841  0.8675 -1.0897  0.3353
   17MOL0     H 2182   3.921   9.175   4.995 -1.0455 -2.3808  0.2614
   17MOL0     H 2183   3.815   9.380   5.004  1.2201 -0.0561 -2.1404
   17MOL0     H 2184   3.730   9.228   5.072 -1.4872 -1.6814 -1.9644
   17MOL0     H 2185   3.560   9.242   4.890 -0.0698 -1.5075  0.1008
   17MOL0     H 2186   3.653   9.355   4.811  0.0866 -2.2872 -0.0450
   17MOL0     H 2187   3.529   9.388   5.099 -0.1906  0.4951 -0.0603
   17MOL0     H 2188   3.628   9.511   5.006 -0.4821  0.4363  2.7948
   17MOL0     H 2189   3.373   9.542   5.004 -1.3524 -1.7161  1.0225
   17MOL0     H 2190   3.363   9.384   4.937  0.5835 -0.8836  0.1642
   17MOL0     H 2191   3.497   9.492   4.729  1.7413  1.4966  0.6788
   17MOL0     H 2192   3.466   9.649   4.799  3.1799 -0.0361 -2.1827
   17MOL0     H 2193   3.307   9.552   4.610  0.7280 -2.9657 -0.3487
   17MOL0     H 2194   3.254   9.437   4.730 -0.6405 -0.1507 -0.0258
   17MOL0     H 2195   3.107   9.638   4.693 -0.6843  0.2291 -0.0867
   17MOL0     H 2196   3.227   9.747   4.729 -0.4810 -1.2122 -4.2533
   17MOL0     H 2197   3.007   9.470   4.891 -0.5487  1.5303 -0.4497
   17MOL0     H 2198   2.955   9.538   5.261  0.1886 -2.7109  0.9180
   17MOL0     H 2199   2.955   9.397   5.153  1.4547 -0.5614  0.6283
   17MOL0     H 2200   2.777   9.525   5.015  0.2667  1.2219 -0.2161
   17MOL0     H 2201   2.776   9.644   5.145  1.2938 -0.1207  0.1705
   17MOL0     H 2202   2.690   9.349   5.136 -0.8832 -0.7681  1.3298
   17MOL0     H 2203   2.738   9.410   5.296  3.3464  0.8839 -0.5851
   17MOL0     H 2204   2.570   9.579   5.280 -0.5931  1.0233 -2.6581
   17MOL0     H 2205   2.505   9.416   5.250 -1.5995 -1.6318 -3.4668
   17MOL0     H 2206   2.377   9.648   5.285  0.8012 -0.7452 -0.2782
   17MOL0     H 2207   2.123   9.661   5.285  1.2808  0.5963  1.0259
   17MOL0     H 2208   1.816   9.271   4.999 -0.8303 -1.2284  1.1638
   17MOL0     H 2209   1.587   9.188   5.081 -3.4884  0.5583 -1.8372
   17MOL0     H 2210   1.368   9.144   5.134 -0.3380 -1.1062 -0.8428
   17MOL0     H 2211   1.353   9.175   4.961  0.8789 -0.3761  1.0464
   17MOL0     H 2212   1.143   9.116   5.009 -1.1771  0.6136 -0.2525
   17MOL0     H 2213   1.141   9.294   5.012  1.3848  0.3559 -0.3385
   17MOL0     H 2214   1.157   9.288   5.262  2.1706 -0.4152  0.0481
   17MOL0     H 2215   1.166   9.117   5.259 -2.2138  0.3663  1.6346
   17MOL0     H 2216   0.926   9.188   5.310  1.4748  1.7268  1.2233
   17MOL0     H 2217   0.926   9.279   5.169  0.2383  0.7489  2.8888
   17MOL0     H 2218   0.940   8.977   5.177 -2.1629  0.7142  1.0605
   17MOL0     H 2219   0.947   9.071   5.027 -1.2540  3.4072 -0.3332
   17MOL0     H 2220   0.713   8.994   5.053  4.1703 -0.3011 -2.1397
   17MOL0     H 2221   0.726   9.168   5.070  1.5714 -0.5447 -1.8792
   17MOL0     H 2222   0.744   9.008   5.321 -0.0615  1.6259  1.4987
   17MOL0     H 2223   0.701   9.171   5.298  0.2075 -1.4527  1.9568
   17MOL0     H 2224   0.491   9.069   5.351 -2.5942 -1.7431 -1.2032
   17MOL0     H 2225   0.528   8.930   5.242  0.1549  0.2877 -3.6857
   17MOL0     H 2226   1.448   9.586   5.076  1.1393  2.1490  1.5305
   17MOL0     H 2227   1.668   9.681   5.028 -0.2838  0.3167 -1.0492
   17MOL0     H 2228   2.109   9.533   4.877 -2.1077 -0.1913  1.3998
   17MOL0     H 2229   2.344   9.493   4.887 -2.9477  0.8304 -0.9085
   17MOL0     H 2230   4.050   9.017   4.931 -0.5243 -2.6547  0.3607
   17MOL0     H 2231   4.176   8.838   4.837 -0.4410  0.9409  0.5343
   17MOL0     H 2232   4.008   8.372   4.427 -0.5626  1.3070 -0.0582
   17MOL0     H 2233   4.120   8.293   4.226  2.2148 -0.5453 -0.4861
   17MOL0     H 2234   4.532   8.315   4.064 -0.6559  1.2431 -1.2830
   17MOL0     H 2235   4.550   8.392   4.214  0.1754 -2.0547  0.1572
   17MOL0     H 2236   4.467   8.612   4.090  0.5995  1.8778 -0.5635
   17MOL0     H 2237   4.629   8.542   4.035 -0.9105 -0.3729  0.4735
   17MOL0     H 2238   4.488   8.602   3.852  4.5283 -2.5205 -3.7915
   17MOL0     H 2239   4.363   8.482   3.901  1.3452 -4.2937  1.7878
   17MOL0     H 2240   4.662   8.420   3.832  0.1199  0.7358  1.6121
   17MOL0     H 2241   4.531   8.309   3.830 -1.3654  0.7018  1.4233
   17MOL0     H 2242   4.464   8.518   3.467  3.3425  0.3556 -2.3721
   17MOL0     H 2243   4.452   8.565   4.321  1.8690 -1.6697  1.8611
   17MOL0     H 2244   4.331   8.665   4.480  4.2884 -3.2428  1.1104
   18MOL0     O 2245   1.947   0.989   2.115  0.0983 -0.3349  0.0474
   18MOL0     C 2246   1.887   0.990   2.225 -0.1295  0.6854 -0.7376
   18MOL0     O 2247   1.757   0.957   2.252 -0.0637  0.3557 -0.2363
   18MOL0     C 2248   1.675   0.909   2.148 -0.5749  0.3969 -0.2306
   18MOL0     C 2249   1.536   0.942   2.136  0.1050 -0.2238 -0.0502
   18MOL0     C 2250   1.462   0.902   2.030  0.7830  0.2987  0.5197
   18MOL0     C 2251   1.506   0.795   1.951  0.1231  0.3331 -0.2183
   18MOL0     O 2252   1.426   0.736   1.852 -0.2083  0.8811 -0.1104
   18MOL0     C 2253   1.321   0.817   1.804 -0.0457 -0.2295  1.2135
   18MOL0     C 2254   1.264   0.763   1.675  0.5709  0.3354  0.8959
   18MOL0     C 2255   1.132   0.820   1.631 -0.0221 -0.2261 -0.3595
   18MOL0     C 2256   1.076   0.775   1.497  0.8905  0.4857 -0.4570
   18MOL0     C 2257   0.930   0.823   1.472  0.0232  0.7987  0.2603
   18MOL0     C 2258   0.908   0.858   1.319 -1.5216 -0.2186  0.1530
   18MOL0     C 2259   0.764   0.849   1.283  0.1973  0.0508  0.4297
   18MOL0     C 2260   0.730   0.903   1.141  0.1956 -0.1783  0.4396
   18MOL0     N 2261   0.769   0.813   1.040 -0.0302  0.3125  0.4308
   18MOL0     C 2262   0.723   0.687   1.024 -0.0074  0.5210 -0.3905
   18MOL0     C 2263   0.789   0.632   0.927 -1.2857 -0.1707  0.2346
   18MOL0     C 2264   0.786   0.484   0.919 -0.1524 -1.0032 -0.6246
   18MOL0     C 2265   0.650   0.428   0.942  0.6645 -0.3876 -0.2766
   18MOL0     C 2266   0.645   0.280   0.902  0.9173  0.1781 -0.1220
   18MOL0     C 2267   0.526   0.213   0.950  0.3554  1.1525  0.0302
   18MOL0     O 2268   0.412   0.277   0.890 -0.3361  0.1860 -0.4058
   18MOL0     C 2269   0.288   0.220   0.897 -0.5448 -0.5720  0.1654
   18MOL0     C 2270   0.271   0.091   0.935 -0.0459 -0.0116 -0.5146
   18MOL0     C 2271   0.146   0.035   0.930 -0.2988  0.9315  0.5987
   18MOL0     C 2272   0.040   0.111   0.881  0.1607  0.3768  0.4870
   18MOL0     C 2273  -0.102   0.053   0.890 -0.3792  0.0562 -0.4603
   18MOL0     O 2274  -0.125  -0.061   0.974  0.7142  0.4114 -0.1374
   18MOL0     C 2275  -0.242  -0.122   1.005 -0.1974 -1.1000  0.0973
   18MOL0     C 2276  -0.231  -0.190   1.127 -0.6371 -0.3098  0.2223
   18MOL0     C 2277  -0.341  -0.260   1.171  0.6772  0.3250  0.5651
   18MOL0     C 2278  -0.466  -0.265   1.101  0.0156 -0.4380 -0.6066
   18MOL0     O 2279  -0.579  -0.319   1.160 -0.3355  0.0464 -0.5207
   18MOL0     C 2280  -0.695  -0.348   1.085 -0.3344  0.3608  0.9066
   18MOL0     C 2281  -0.784  -0.455   1.153  0.0157 -0.3551 -0.2897
   18MOL0     C 2282  -0.741  -0.591   1.099 -0.8404 -0.5425  0.1239
   18MOL0     C 2283  -0.840  -0.699   1.150  0.1974  0.2224  0.1630
   18MOL0     C 2284  -0.812  -0.826   1.066 -0.9412 -0.6540  0.4517
   18MOL0     C 2285  -0.695  -0.910   1.131 -0.1672 -0.5064 -0.1593
   18MOL0     C 2286  -0.650  -1.028   1.045 -0.8418 -0.2558 -0.5755
   18MOL0     C 2287  -0.533  -1.104   1.115  0.2510 -0.5484  0.1048
   18MOL0    Cl 2288  -0.588  -1.143   1.288 -0.1594 -0.6869  0.1507
   18MOL0     C 2289  -0.477  -0.172   0.995  0.0634  0.2710 -0.2168
   18MOL0     C 2290  -0.371  -0.102   0.940  0.0771  0.4398 -0.8897
   18MOL0     O 2291  -0.190   0.109   0.827 -0.1877  0.1834  0.3944
   18MOL0     C 2292   0.058   0.243   0.831  1.4730  0.0694 -0.3324
   18MOL0     C 2293   0.181   0.298   0.846 -0.9871  0.4336  0.1980
   18MOL0     N 2294   0.869   0.731   0.875  0.3415 -0.0325  0.5126
   18MOL0     N 2295   0.859   0.839   0.942 -0.3589 -0.2645 -0.3028
   18MOL0     C 2296   1.642   0.751   1.965  0.0698 -0.0005  0.6563
   18MOL0     C 2297   1.725   0.806   2.060  0.8697 -0.4409 -0.3596
   18MOL0     C 2298   1.967   1.070   2.328  0.0615  0.4372  0.6648
   18MOL0     C 2299   2.100   1.122   2.304 -0.2094 -0.5059 -0.0702
   18MOL0     C 2300   2.172   1.177   2.412 -0.0295  0.0824  0.3301
   18MOL0     C 2301   2.118   1.181   2.541 -0.9810  0.0021 -0.1027
   18MOL0     O 2302   2.178   1.243   2.654 -0.1844  0.5312 -0.0003
   18MOL0     C 2303   2.290   1.326   2.637 -0.6515 -0.6719  0.4545
   18MOL0     C 2304   2.258   1.459   2.569 -0.2247 -0.1218  0.2377
   18MOL0     C 2305   2.313   1.590   2.641  0.4672 -0.1885  0.0741
   18MOL0     C 2306   2.315   1.723   2.563 -0.1358  0.4098  0.1700
   18MOL0     C 2307   2.391   1.827   2.632 -0.0672 -0.5223  0.1906
   18MOL0     C 2308   2.465   1.917   2.673  0.3162 -0.6089 -0.1591
   18MOL0     C 2309   1.991   1.135   2.565  1.1652  0.2980 -0.1884
   18MOL0     C 2310   1.915   1.075   2.459 -0.8051  0.1452 -0.0869
   18MOL0     H 2311   1.498   1.016   2.206 -1.6751 -1.9278  0.8724
   18MOL0     H 2312   1.365   0.950   2.023  0.0044 -1.3259 -0.6159
   18MOL0     H 2313   1.350   0.920   1.784  0.3294 -0.0665  2.5077
   18MOL0     H 2314   1.243   0.820   1.880 -1.1042  0.1305  0.1430
   18MOL0     H 2315   1.249   0.655   1.684 -1.0653  0.1669 -2.3396
   18MOL0     H 2316   1.337   0.776   1.594  0.1801  0.7587  0.6095
   18MOL0     H 2317   1.141   0.927   1.648  1.0058 -0.4527  0.6562
   18MOL0     H 2318   1.060   0.773   1.699 -0.2370 -2.9393 -2.2722
   18MOL0     H 2319   1.139   0.803   1.412 -0.7482 -0.0971 -1.9049
   18MOL0     H 2320   1.070   0.666   1.490 -1.0715  0.6541 -2.3343
   18MOL0     H 2321   0.900   0.908   1.535  1.0725  0.3386  1.4406
   18MOL0     H 2322   0.870   0.735   1.497 -0.3135  0.4316 -1.7341
   18MOL0     H 2323   0.964   0.790   1.254 -3.2700  0.1996 -1.9119
   18MOL0     H 2324   0.938   0.963   1.317 -2.0141 -0.0325  1.4768
   18MOL0     H 2325   0.734   0.744   1.289  0.8037 -0.1971 -0.6776
   18MOL0     H 2326   0.703   0.897   1.360  1.4621  0.6909  1.0600
   18MOL0     H 2327   0.767   1.003   1.118 -1.0883 -0.0475 -1.1893
   18MOL0     H 2328   0.621   0.911   1.132  0.3772  2.0186 -0.4115
   18MOL0     H 2329   0.647   0.640   1.085 -1.1848  0.5517 -1.7589
   18MOL0     H 2330   0.863   0.425   0.970  1.1472  2.3553  1.6636
   18MOL0     H 2331   0.793   0.461   0.812  1.2547 -3.8669 -0.0294
   18MOL0     H 2332   0.581   0.495   0.889 -1.4319 -0.9529  1.6043
   18MOL0     H 2333   0.618   0.425   1.046 -1.4970  3.0705 -0.6567
   18MOL0     H 2334   0.648   0.280   0.792 -0.3145  0.4190 -0.1706
   18MOL0     H 2335   0.739   0.231   0.928  0.4554 -0.2532  0.7560
   18MOL0     H 2336   0.509   0.217   1.057  1.1834 -2.5887  0.4529
   18MOL0     H 2337   0.537   0.106   0.928  1.6184  0.7557  2.3549
   18MOL0     H 2338   0.355   0.038   0.977  0.8724  1.6013 -0.2153
   18MOL0     H 2339   0.135  -0.061   0.978 -1.1972  0.6141 -0.1907
   18MOL0     H 2340  -0.139  -0.176   1.183 -0.1750  1.1469 -0.8428
   18MOL0     H 2341  -0.321  -0.308   1.266  3.8634  2.2858  1.0525
   18MOL0     H 2342  -0.676  -0.377   0.981 -1.3113 -0.7555  1.0215
   18MOL0     H 2343  -0.754  -0.257   1.077 -0.4087  0.2313 -0.2997
   18MOL0     H 2344  -0.891  -0.436   1.139  0.0168 -1.4975 -2.1278
   18MOL0     H 2345  -0.764  -0.455   1.261 -1.5545  1.3588  0.0511
   18MOL0     H 2346  -0.633  -0.601   1.114  0.0821 -0.1035 -4.5243
   18MOL0     H 2347  -0.754  -0.581   0.990 -1.8629 -1.9770  0.0821
   18MOL0     H 2348  -0.837  -0.724   1.256  0.6442  0.6579  0.2546
   18MOL0     H 2349  -0.938  -0.655   1.130  1.4281  2.9349 -0.2998
   18MOL0     H 2350  -0.788  -0.808   0.961  0.5396 -0.2936  0.8268
   18MOL0     H 2351  -0.905  -0.883   1.072 -1.5267  0.1054 -0.9846
   18MOL0     H 2352  -0.728  -0.941   1.230  3.4668  0.2493  1.4426
   18MOL0     H 2353  -0.605  -0.847   1.136 -0.7635  0.6845 -2.6836
   18MOL0     H 2354  -0.729  -1.104   1.057 -0.9708  0.0654  0.7529
   18MOL0     H 2355  -0.638  -0.998   0.940 -0.3121 -0.2927 -0.5279
   18MOL0     H 2356  -0.442  -1.043   1.115  0.7334 -1.2501  1.2226
   18MOL0     H 2357  -0.519  -1.197   1.059 -0.5856 -0.2801 -0.5637
   18MOL0     H 2358  -0.576  -0.170   0.949  0.4714  1.6085 -1.0705
   18MOL0     H 2359  -0.383  -0.026   0.863  1.3428  0.2869 -1.2655
   18MOL0     H 2360  -0.021   0.308   0.794  2.6780  0.1822 -2.8638
   18MOL0     H 2361   0.199   0.401   0.816 -0.3055 -0.3347 -2.2487
   18MOL0     H 2362   1.679   0.679   1.893  1.4530  0.1055  1.2243
   18MOL0     H 2363   1.830   0.777   2.069  0.5295 -1.9670 -0.9682
   18MOL0     H 2364   2.150   1.122   2.207 -0.5878  0.7554 -0.2838
   18MOL0     H 2365   2.270   1.223   2.409  0.6133 -1.1971 -3.3101
   18MOL0     H 2366   2.374   1.285   2.579 -1.5348 -0.8916 -0.7025
   18MOL0     H 2367   2.339   1.350   2.732  1.8423 -3.0065 -0.0942
   18MOL0     H 2368   2.286   1.463   2.463 -1.4825  0.9671 -0.0763
   18MOL0     H 2369   2.151   1.480   2.573  0.2014  2.3903  0.1272
   18MOL0     H 2370   2.414   1.577   2.683 -0.3633 -0.2840  2.1427
   18MOL0     H 2371   2.255   1.613   2.731 -1.9289 -3.0528 -0.5804
   18MOL0     H 2372   2.347   1.707   2.459 -2.3736 -2.8387 -0.1490
   18MOL0     H 2373   2.207   1.740   2.560 -0.5279 -1.9024 -0.0573
   18MOL0     H 2374   2.538   1.982   2.716  1.6827  0.3393 -3.6420
   18MOL0     H 2375   1.934   1.137   2.658  0.0836 -2.8118 -0.6783
   18MOL0     H 2376   1.810   1.052   2.474 -0.4057 -1.4568  0.4898
   19MOL0     O 2377   6.265   9.432   9.116  0.1812 -0.2610 -0.3954
   19MOL0     C 2378   6.204   9.368   9.032  0.1878 -0.3893 -0.0149
   19MOL0     O 2379   6.242   9.246   8.989  0.2373  0.5051  0.2383
   19MOL0     C 2380   6.356   9.192   9.040  0.0763  0.1449 -0.1570
   19MOL0     C 2381   6.475   9.192   8.964  0.5758 -0.0453 -0.5204
   19MOL0     C 2382   6.598   9.153   9.017 -0.5295  0.6112 -0.5334
   19MOL0     C 2383   6.610   9.108   9.138 -0.2358 -0.3680  0.1563
   19MOL0     O 2384   6.718   9.050   9.196 -0.5297  0.2839 -0.3312
   19MOL0     C 2385   6.846   9.085   9.147  0.1755  0.2978  0.0801
   19MOL0     C 2386   6.937   9.002   9.232 -0.3473  0.5647  0.5673
   19MOL0     C 2387   7.080   8.992   9.178 -0.5540  0.4647  0.7211
   19MOL0     C 2388   7.155   8.872   9.249 -0.4391 -0.4945 -0.1516
   19MOL0     C 2389   7.132   8.742   9.167 -0.3186 -1.2758 -0.5619
   19MOL0     C 2390   7.129   8.613   9.249  0.3389 -1.4062 -0.9739
   19MOL0     C 2391   7.184   8.489   9.173  0.3413 -0.2247 -0.7016
   19MOL0     C 2392   7.104   8.454   9.043  0.1144  0.7252 -0.1402
   19MOL0     N 2393   6.958   8.457   9.063 -0.1997  0.5372  0.2333
   19MOL0     C 2394   6.868   8.536   8.988 -0.9398  0.9151  0.1754
   19MOL0     C 2395   6.745   8.508   9.037 -0.3660  0.0762 -0.0243
   19MOL0     C 2396   6.612   8.562   8.979  0.0079 -0.4506 -0.5147
   19MOL0     C 2397   6.604   8.717   9.012 -0.1537  0.3283  1.1717
   19MOL0     C 2398   6.466   8.765   9.005  0.8862  0.1455  0.2887
   19MOL0     C 2399   6.388   8.709   9.119  0.8805 -0.5672 -0.8038
   19MOL0     O 2400   6.332   8.586   9.083  0.4031  0.0565 -0.0171
   19MOL0     C 2401   6.202   8.581   9.032  0.3793 -0.4674  0.2294
   19MOL0     C 2402   6.132   8.687   8.976 -0.2559  0.8357 -0.7610
   19MOL0     C 2403   6.005   8.662   8.935  0.3626 -0.5479  0.3265
   19MOL0     C 2404   5.941   8.535   8.943 -0.2731  0.0724  0.4229
   19MOL0     C 2405   5.801   8.523   8.902  0.2746  0.1417  0.8550
   19MOL0     O 2406   5.727   8.636   8.881  0.7229 -0.2864 -0.9565
   19MOL0     C 2407   5.585   8.624   8.875 -0.0192  0.5101  0.7104
   19MOL0     C 2408   5.506   8.637   8.988  0.4954 -0.8815 -0.4039
   19MOL0     C 2409   5.367   8.609   8.988 -0.4721  0.4732 -0.8566
   19MOL0     C 2410   5.307   8.604   8.862 -0.0011 -0.2929 -0.0750
   19MOL0     O 2411   5.167   8.599   8.853  0.3869 -0.4015  0.0009
   19MOL0     C 2412   5.094   8.642   8.965  0.4049  0.0779 -0.4859
   19MOL0     C 2413   4.947   8.690   8.948  0.7897 -0.8260  0.3535
   19MOL0     C 2414   4.946   8.833   8.888 -0.3929 -0.4833  0.2379
   19MOL0     C 2415   4.803   8.881   8.837  0.1117  0.0764 -0.6743
   19MOL0     C 2416   4.795   9.030   8.844  0.5706 -0.8446 -0.7458
   19MOL0     C 2417   4.654   9.065   8.879  0.4437  0.0209  0.1072
   19MOL0     C 2418   4.623   9.212   8.842  0.3231 -0.3129 -0.5700
   19MOL0     C 2419   4.496   9.263   8.907 -0.8930 -0.3254 -0.2564
   19MOL0    Cl 2420   4.497   9.246   9.087  0.2530 -0.6350 -0.0296
   19MOL0     C 2421   5.382   8.605   8.748 -0.2934 -0.1473 -0.7011
   19MOL0     C 2422   5.526   8.601   8.747 -0.0138  0.0928 -0.4962
   19MOL0     O 2423   5.746   8.410   8.893  0.3506 -1.0501 -0.9718
   19MOL0     C 2424   6.017   8.427   8.990 -0.0036  0.1274  0.4209
   19MOL0     C 2425   6.148   8.447   9.034 -0.9782 -0.5425 -0.2278
   19MOL0     N 2426   6.765   8.402   9.129 -0.6762  0.6975  0.1797
   19MOL0     N 2427   6.896   8.374   9.149  0.1874  0.3512 -0.6673
   19MOL0     C 2428   6.497   9.104   9.217 -0.3454  1.1048  0.1365
   19MOL0     C 2429   6.370   9.144   9.172 -0.5479 -1.0413 -0.3410
   19MOL0     C 2430   6.097   9.436   8.964 -0.5757  1.2658 -0.7264
   19MOL0     C 2431   6.034   9.370   8.851  0.0933  0.0316  0.3731
   19MOL0     C 2432   5.915   9.425   8.791  0.1577  0.4828  0.9014
   19MOL0     C 2433   5.872   9.557   8.829 -0.0271 -0.4442  0.2523
   19MOL0     O 2434   5.765   9.620   8.770  0.3237  0.3026 -0.0174
   19MOL0     C 2435   5.703   9.555   8.666 -0.0309 -0.0239  0.4099
   19MOL0     C 2436   5.597   9.645   8.595 -1.0062 -0.0456 -0.9701
   19MOL0     C 2437   5.483   9.654   8.691  0.9441 -0.8002 -0.6197
   19MOL0     C 2438   5.360   9.731   8.638  0.0938  0.3210  0.1669
   19MOL0     C 2439   5.291   9.654   8.535  0.0087 -0.0539 -0.0297
   19MOL0     C 2440   5.245   9.587   8.452  0.8678  0.6489 -0.0249
   19MOL0     C 2441   5.931   9.615   8.933 -0.1295 -0.3859 -0.6387
   19MOL0     C 2442   6.036   9.554   9.006  0.0555  0.1415  0.0659
   19MOL0     H 2443   6.467   9.218   8.859 -0.1261 -1.0001 -0.7187
   19MOL0     H 2444   6.680   9.139   8.948 -0.5182  0.7656 -0.5522
   19MOL0     H 2445   6.860   9.193   9.156 -1.3355  0.6346 -1.0538
   19MOL0     H 2446   6.857   9.055   9.042 -3.7368 -1.2099 -0.0778
   19MOL0     H 2447   6.898   8.904   9.260 -3.9482  2.2101  1.8837
   19MOL0     H 2448   6.933   9.061   9.324 -2.7861 -2.7207  2.7792
   19MOL0     H 2449   7.142   9.082   9.188  2.0848 -1.3523  1.8205
   19MOL0     H 2450   7.065   8.974   9.071 -1.8093 -1.8617  1.2131
   19MOL0     H 2451   7.261   8.895   9.231 -0.6807  0.4581 -0.4466
   19MOL0     H 2452   7.131   8.863   9.355 -1.8481  0.4089 -0.3595
   19MOL0     H 2453   7.214   8.747   9.095  0.8415  0.3790  0.7919
   19MOL0     H 2454   7.048   8.747   9.097 -0.8807 -0.8162  0.1279
   19MOL0     H 2455   7.024   8.596   9.275 -0.0874  1.8212 -0.1381
   19MOL0     H 2456   7.176   8.628   9.347 -1.5089  0.1844 -0.2521
   19MOL0     H 2457   7.287   8.519   9.155  0.8482  2.1439  4.4176
   19MOL0     H 2458   7.176   8.404   9.243 -0.0060 -0.6152 -1.2090
   19MOL0     H 2459   7.135   8.352   9.019  2.2661  1.0563  1.0327
   19MOL0     H 2460   7.124   8.520   8.959 -1.0939 -0.6987 -1.6155
   19MOL0     H 2461   6.900   8.610   8.915 -2.0622 -0.4708 -1.8067
   19MOL0     H 2462   6.524   8.505   9.011 -1.2075  0.5143 -1.9966
   19MOL0     H 2463   6.622   8.544   8.872  2.4922  1.0847 -0.6035
   19MOL0     H 2464   6.671   8.765   8.940 -2.4330 -0.2251 -1.4650
   19MOL0     H 2465   6.641   8.732   9.114  0.1502 -0.7727  1.2366
   19MOL0     H 2466   6.469   8.874   9.014 -1.8916  0.2998  0.2253
   19MOL0     H 2467   6.429   8.733   8.908  1.1082  4.0180 -1.2730
   19MOL0     H 2468   6.313   8.781   9.155 -0.4474 -1.2344 -2.1335
   19MOL0     H 2469   6.452   8.690   9.205  0.7799 -1.7707 -0.9751
   19MOL0     H 2470   6.165   8.790   8.962  1.4760 -0.0138 -3.8789
   19MOL0     H 2471   5.935   8.736   8.898 -0.8489 -2.0445 -0.4805
   19MOL0     H 2472   5.554   8.655   9.084 -1.0700  0.1733  0.2309
   19MOL0     H 2473   5.314   8.601   9.082  3.3749 -0.1355  1.4622
   19MOL0     H 2474   5.146   8.721   9.020 -0.2737 -0.3714  0.8531
   19MOL0     H 2475   5.089   8.555   9.031  0.1916 -1.5962 -2.5954
   19MOL0     H 2476   4.896   8.703   9.044  1.0128 -1.7060  0.5921
   19MOL0     H 2477   4.888   8.623   8.885 -0.7460  0.5957  0.1958
   19MOL0     H 2478   5.017   8.850   8.806 -2.9532  1.0546 -1.8135
   19MOL0     H 2479   4.984   8.906   8.961 -0.8098 -1.5041  1.5103
   19MOL0     H 2480   4.782   8.869   8.730  0.2665 -2.2549 -0.4870
   19MOL0     H 2481   4.723   8.837   8.897  1.6741 -1.2109  0.5399
   19MOL0     H 2482   4.813   9.064   8.742 -0.9832 -0.1242 -0.8104
   19MOL0     H 2483   4.858   9.072   8.923 -0.9758  0.7854 -0.2992
   19MOL0     H 2484   4.630   9.045   8.984 -2.0537  0.4004 -0.3285
   19MOL0     H 2485   4.585   8.999   8.827 -1.4911  1.3095  0.9000
   19MOL0     H 2486   4.706   9.280   8.861  1.8491 -2.7573  2.4843
   19MOL0     H 2487   4.617   9.210   8.733  2.5389 -0.0824 -0.7359
   19MOL0     H 2488   4.407   9.209   8.873 -1.3867  0.8990 -0.9633
   19MOL0     H 2489   4.481   9.369   8.884 -0.6531 -0.6855 -2.2185
   19MOL0     H 2490   5.335   8.599   8.651 -2.8222  5.0309 -0.1004
   19MOL0     H 2491   5.582   8.588   8.654 -1.2422 -2.2438 -0.9941
   19MOL0     H 2492   5.978   8.326   8.979 -0.1784  0.3494 -1.2688
   19MOL0     H 2493   6.207   8.364   9.072 -2.5461 -1.5727  0.0614
   19MOL0     H 2494   6.511   9.062   9.316 -2.4083 -2.2875 -0.8616
   19MOL0     H 2495   6.285   9.159   9.238 -1.2644 -2.5494 -0.8706
   19MOL0     H 2496   6.081   9.280   8.814  0.8987 -0.0340  1.5303
   19MOL0     H 2497   5.860   9.370   8.715  1.3390  0.0997  0.2964
   19MOL0     H 2498   5.650   9.471   8.710 -2.9854  0.4889 -1.8476
   19MOL0     H 2499   5.781   9.535   8.591  0.9036  0.9429  1.0877
   19MOL0     H 2500   5.635   9.744   8.566  0.1855  0.3098  1.5111
   19MOL0     H 2501   5.561   9.591   8.508 -2.1057 -1.3346  0.2420
   19MOL0     H 2502   5.518   9.698   8.785  2.6309 -3.8041  0.2892
   19MOL0     H 2503   5.461   9.551   8.721 -0.5919 -0.9729 -2.1740
   19MOL0     H 2504   5.297   9.769   8.719 -1.2227  0.9560 -1.1184
   19MOL0     H 2505   5.406   9.816   8.587  3.9078 -1.1927  0.7080
   19MOL0     H 2506   5.185   9.540   8.376 -0.3171  1.8562  0.1211
   19MOL0     H 2507   5.897   9.713   8.964  3.8099  1.3062 -0.9522
   19MOL0     H 2508   6.082   9.617   9.081 -1.6570  2.7134 -0.9007
   20MOL0     O 2509  10.589   3.684  10.276  0.4960  0.0318 -0.1762
   20MOL0     C 2510  10.583   3.595  10.360  0.3917  0.4898  0.1915
   20MOL0     O 2511  10.474   3.536  10.413 -0.2641  0.1212  0.9278
   20MOL0     C 2512  10.368   3.608  10.376 -0.3043 -0.0908  0.0234
   20MOL0     C 2513  10.327   3.712  10.468  0.0433  0.5167 -0.8992
   20MOL0     C 2514  10.216   3.787  10.443  0.5959  0.2151  0.0824
   20MOL0     C 2515  10.140   3.757  10.322  0.4613  0.8060  0.0020
   20MOL0     O 2516  10.025   3.830  10.305 -0.3338  0.5246  0.1994
   20MOL0     C 2517   9.928   3.792  10.207  0.0926  0.1560 -0.4197
   20MOL0     C 2518   9.814   3.893  10.198  0.3317  0.0560 -0.5726
   20MOL0     C 2519   9.699   3.863  10.105 -0.1054  0.4216 -0.5096
   20MOL0     C 2520   9.622   3.730  10.148 -0.4671  0.4858 -0.0379
   20MOL0     C 2521   9.528   3.680  10.041  0.4444  0.4544 -0.0274
   20MOL0     C 2522   9.424   3.787   9.998 -1.1675  0.1558 -0.6640
   20MOL0     C 2523   9.301   3.739   9.920 -0.8112 -0.5282 -0.3688
   20MOL0     C 2524   9.216   3.852   9.878  0.5603  0.1815 -0.4764
   20MOL0     N 2525   9.104   3.797   9.788  0.3528  0.6145 -0.5683
   20MOL0     C 2526   9.104   3.791   9.647 -1.0882  0.4069  0.6797
   20MOL0     C 2527   8.992   3.722   9.618  0.5493 -0.5698  0.5233
   20MOL0     C 2528   8.949   3.737   9.468 -0.2120  0.5581 -0.3488
   20MOL0     C 2529   8.801   3.757   9.461  0.3650 -0.0991  0.5999
   20MOL0     C 2530   8.736   3.800   9.326 -0.5475 -0.0555 -0.0069
   20MOL0     C 2531   8.741   3.683   9.223  0.3858  0.3906  0.0196
   20MOL0     O 2532   8.641   3.711   9.117  0.0846  0.4183  0.2041
   20MOL0     C 2533   8.545   3.622   9.084 -0.0313  0.6189  0.3127
   20MOL0     C 2534   8.474   3.637   8.966  0.2247 -0.4790 -0.2627
   20MOL0     C 2535   8.390   3.538   8.922  0.0799  1.0685 -0.4138
   20MOL0     C 2536   8.343   3.443   9.017 -0.1537 -0.2380 -0.5024
   20MOL0     C 2537   8.235   3.355   8.980 -0.0830  0.9816 -0.5664
   20MOL0     O 2538   8.224   3.245   9.066  0.2107 -0.5363 -0.6984
   20MOL0     C 2539   8.102   3.179   9.047 -1.0345  0.7294  0.5546
   20MOL0     C 2540   8.081   3.082   8.945 -0.2842 -0.0686 -0.2479
   20MOL0     C 2541   7.963   2.998   8.937 -0.2000  0.3493  0.0785
   20MOL0     C 2542   7.863   3.030   9.037 -0.0192  0.6297  0.1226
   20MOL0     O 2543   7.736   2.975   9.042 -0.1540  0.2729 -0.1452
   20MOL0     C 2544   7.675   2.901   8.939  0.5577  0.8247 -0.0648
   20MOL0     C 2545   7.522   2.888   8.964  0.5295  0.2341 -0.2142
   20MOL0     C 2546   7.435   3.003   8.913 -0.2147 -0.1983 -0.2577
   20MOL0     C 2547   7.286   2.963   8.912  0.1665  0.2695 -0.0412
   20MOL0     C 2548   7.210   3.065   8.823  1.4140 -0.2116 -0.5591
   20MOL0     C 2549   7.065   3.027   8.801  1.2755 -0.3714 -0.0847
   20MOL0     C 2550   7.014   3.112   8.694 -0.9021 -0.2653 -0.2119
   20MOL0     C 2551   6.866   3.136   8.722 -0.2186 -0.9250  0.4613
   20MOL0    Cl 2552   6.843   3.225   8.879 -0.5190 -0.2079 -0.0422
   20MOL0     C 2553   7.885   3.124   9.139 -0.9954  0.9101  0.4663
   20MOL0     C 2554   8.009   3.201   9.141 -0.5170 -0.3897 -0.3318
   20MOL0     O 2555   8.160   3.384   8.881 -1.0290  0.2351 -0.6225
   20MOL0     C 2556   8.396   3.442   9.147 -0.0114  0.2354  0.0184
   20MOL0     C 2557   8.500   3.526   9.180 -1.1361  0.3036 -0.1532
   20MOL0     N 2558   8.929   3.685   9.738 -0.1187 -1.4484 -0.0656
   20MOL0     N 2559   8.990   3.743   9.835  0.2767 -0.3069  0.0723
   20MOL0     C 2560  10.178   3.652  10.234 -0.8205 -0.1815 -0.2923
   20MOL0     C 2561  10.286   3.570  10.266  0.6363 -0.0198 -0.3220
   20MOL0     C 2562  10.710   3.542  10.405  0.4611  0.3683  0.6789
   20MOL0     C 2563  10.727   3.447  10.514  0.7296 -0.4274 -0.6282
   20MOL0     C 2564  10.853   3.403  10.551  0.4387  0.4102 -0.1000
   20MOL0     C 2565  10.963   3.431  10.472  0.1341 -0.3775  0.0518
   20MOL0     O 2566  11.092   3.398  10.499 -0.3864  0.0927  0.0033
   20MOL0     C 2567  11.135   3.317  10.614 -0.5471 -0.5274  1.0050
   20MOL0     C 2568  11.274   3.264  10.558  0.5710 -0.4358 -0.3586
   20MOL0     C 2569  11.348   3.168  10.661  0.8685 -0.7893 -0.5082
   20MOL0     C 2570  11.473   3.100  10.615 -0.1721 -1.3700  0.4676
   20MOL0     C 2571  11.579   3.194  10.591  0.1099 -0.2999  1.1219
   20MOL0     C 2572  11.665   3.279  10.585  0.4020  0.2568  0.6358
   20MOL0     C 2573  10.942   3.502  10.362  0.1743 -0.3028  0.7176
   20MOL0     C 2574  10.825   3.571  10.326 -0.8920  0.1671  0.1552
   20MOL0     H 2575  10.389   3.709  10.556 -1.4510  1.8015  0.2495
   20MOL0     H 2576  10.187   3.861  10.517  1.3487 -0.2732  0.8802
   20MOL0     H 2577   9.891   3.691  10.231  2.1283 -1.3666 -3.1445
   20MOL0     H 2578   9.979   3.795  10.111 -0.4440  1.3262 -0.6867
   20MOL0     H 2579   9.849   3.995  10.177 -1.4499  0.5241 -1.5017
   20MOL0     H 2580   9.780   3.889  10.302  3.5872 -1.7756  0.5536
   20MOL0     H 2581   9.732   3.826  10.008 -2.1584  0.5432 -1.3214
   20MOL0     H 2582   9.635   3.951  10.090  0.9205  1.2261 -0.2312
   20MOL0     H 2583   9.699   3.652  10.155  0.3682  1.3278  0.5294
   20MOL0     H 2584   9.560   3.747  10.237  1.1603  0.3340  1.1801
   20MOL0     H 2585   9.488   3.581  10.068  0.1175  1.1480  2.2192
   20MOL0     H 2586   9.582   3.659   9.948  0.9471 -0.5481  0.4785
   20MOL0     H 2587   9.467   3.878   9.956 -2.1233  0.7630 -0.3514
   20MOL0     H 2588   9.384   3.824  10.093 -1.3228  0.4818 -0.8526
   20MOL0     H 2589   9.343   3.686   9.834 -2.5498 -1.9860 -0.3741
   20MOL0     H 2590   9.244   3.667   9.981  0.6168  0.1385  1.8949
   20MOL0     H 2591   9.269   3.923   9.813 -0.1015  1.5899  0.4829
   20MOL0     H 2592   9.173   3.907   9.962  1.2419  0.4109 -0.2715
   20MOL0     H 2593   9.185   3.825   9.584  1.1367 -4.9383  0.1685
   20MOL0     H 2594   8.979   3.642   9.422 -0.5019 -0.3059  1.1543
   20MOL0     H 2595   9.000   3.818   9.416  1.2791 -1.1576 -1.6533
   20MOL0     H 2596   8.768   3.830   9.535  0.6198 -0.8363  1.4591
   20MOL0     H 2597   8.741   3.667   9.479  0.8441 -0.4372  0.5247
   20MOL0     H 2598   8.629   3.819   9.342 -0.2059  0.8470  1.3425
   20MOL0     H 2599   8.779   3.892   9.286 -1.4959  1.8052  2.9760
   20MOL0     H 2600   8.720   3.587   9.271 -0.0219  0.2858 -0.3621
   20MOL0     H 2601   8.839   3.667   9.178  3.1102  0.4241  5.1278
   20MOL0     H 2602   8.504   3.711   8.893 -2.9657  5.2874  3.5209
   20MOL0     H 2603   8.363   3.546   8.817  0.9907  1.4115 -0.6281
   20MOL0     H 2604   8.156   3.069   8.868  1.3887 -1.9543  1.5732
   20MOL0     H 2605   7.953   2.912   8.871  3.0113 -0.2397  0.2091
   20MOL0     H 2606   7.722   2.803   8.929 -1.2089  0.0610 -1.5375
   20MOL0     H 2607   7.684   2.951   8.841  0.2226  0.7627 -0.1278
   20MOL0     H 2608   7.510   2.886   9.073  0.7537 -0.7921 -0.2025
   20MOL0     H 2609   7.489   2.791   8.926 -0.5907 -0.3402  1.9890
   20MOL0     H 2610   7.462   3.028   8.810 -0.9387  0.5944 -0.2612
   20MOL0     H 2611   7.454   3.097   8.966  1.6920 -1.0530  0.7136
   20MOL0     H 2612   7.276   2.864   8.868 -1.7065  1.0029 -1.3810
   20MOL0     H 2613   7.245   2.963   9.014  2.0013 -1.3639  0.7626
   20MOL0     H 2614   7.245   3.058   8.720 -2.0573  3.0586 -2.1684
   20MOL0     H 2615   7.215   3.167   8.863  0.9070  0.6858 -2.6961
   20MOL0     H 2616   7.021   3.045   8.900 -0.4715  1.8782 -1.1870
   20MOL0     H 2617   7.050   2.920   8.785 -1.6602 -0.0017 -0.4959
   20MOL0     H 2618   7.064   3.209   8.693  0.0921 -0.7118  1.8714
   20MOL0     H 2619   7.029   3.056   8.601  1.1640 -3.4438  1.8375
   20MOL0     H 2620   6.823   3.035   8.721  1.8026 -1.8995 -2.3444
   20MOL0     H 2621   6.829   3.189   8.634  0.3047 -1.5974 -0.1808
   20MOL0     H 2622   7.800   3.137   9.206 -1.4926  2.1100 -0.3590
   20MOL0     H 2623   8.024   3.276   9.218 -2.8064 -0.4952  0.3027
   20MOL0     H 2624   8.370   3.366   9.220 -1.0581 -0.8754 -1.4537
   20MOL0     H 2625   8.546   3.503   9.276  1.4931 -1.4858 -1.7149
   20MOL0     H 2626  10.110   3.611  10.160  1.2237 -0.6090 -2.0505
   20MOL0     H 2627  10.307   3.490  10.196  1.2745  0.3057 -0.5033
   20MOL0     H 2628  10.638   3.413  10.568  1.4059 -0.2093  0.6740
   20MOL0     H 2629  10.850   3.347  10.644  1.2491  2.7217  1.4003
   20MOL0     H 2630  11.063   3.241  10.646 -1.6857 -0.5307 -1.3825
   20MOL0     H 2631  11.162   3.379  10.700  0.5010 -1.5610  1.4524
   20MOL0     H 2632  11.255   3.217  10.460 -0.3060  0.1619 -0.4889
   20MOL0     H 2633  11.338   3.352  10.549 -1.5384  1.1504 -0.4244
   20MOL0     H 2634  11.268   3.106  10.702 -0.5323  1.5539  0.5424
   20MOL0     H 2635  11.366   3.230  10.750 -0.7163 -0.9650 -0.0267
   20MOL0     H 2636  11.510   3.041  10.699 -0.0086  1.8120  2.7801
   20MOL0     H 2637  11.449   3.048  10.521  1.6774 -2.0004  0.2959
   20MOL0     H 2638  11.737   3.357  10.594  0.5533  0.2670 -0.5995
   20MOL0     H 2639  11.027   3.519  10.298  0.1994  0.1155  0.8606
   20MOL0     H 2640  10.823   3.650  10.252 -0.2172  0.8408  0.8384
   21MOL0     O 2641   1.925   5.317   6.804 -1.1108 -0.4393 -0.3026
   21MOL0     C 2642   1.985   5.411   6.853  0.0156 -0.1023 -0.6077
   21MOL0     O 2643   2.082   5.484   6.792  0.1086 -0.0553 -0.2603
   21MOL0     C 2644   2.115   5.453   6.664 -0.6225  0.2355 -0.7762
   21MOL0     C 2645   2.237   5.392   6.639  0.3101  0.0445 -0.1075
   21MOL0     C 2646   2.274   5.356   6.512 -0.1550  0.5726  0.8063
   21MOL0     C 2647   2.174   5.347   6.401 -0.3496  0.2769 -0.0347
   21MOL0     O 2648   2.215   5.311   6.273  0.3820 -0.8978  0.0139
   21MOL0     C 2649   2.122   5.232   6.199 -0.1636 -0.7438 -0.1889
   21MOL0     C 2650   2.193   5.129   6.113 -0.1796  0.5523 -0.0733
   21MOL0     C 2651   2.117   5.071   6.004 -0.2737 -0.4285  0.2465
   21MOL0     C 2652   2.205   4.968   5.940  0.2081  0.0622 -0.5032
   21MOL0     C 2653   2.172   4.935   5.792 -0.6693  0.1344  0.1024
   21MOL0     C 2654   2.028   4.885   5.766  0.0742  1.0156 -0.8442
   21MOL0     C 2655   1.995   4.860   5.622 -0.1166 -0.2253  0.5556
   21MOL0     C 2656   1.863   4.768   5.616  0.2738 -0.5241  0.5721
   21MOL0     N 2657   1.781   4.801   5.498 -0.0264 -0.0999 -0.2965
   21MOL0     C 2658   1.719   4.919   5.480 -0.1663  0.6774 -0.8631
   21MOL0     C 2659   1.703   4.930   5.348  0.0962  0.1344  1.2774
   21MOL0     C 2660   1.659   5.054   5.267 -0.7226  0.9778  0.3229
   21MOL0     C 2661   1.506   5.064   5.281  0.4971 -0.1072 -0.4014
   21MOL0     C 2662   1.452   5.164   5.182  0.5970  0.4483 -0.8181
   21MOL0     C 2663   1.295   5.198   5.199 -0.1251 -0.1680  0.2493
   21MOL0     O 2664   1.261   5.307   5.112  0.1619 -0.4815 -0.0230
   21MOL0     C 2665   1.141   5.370   5.108  0.5919  0.2789 -0.4115
   21MOL0     C 2666   1.111   5.464   5.011  0.7350 -0.2701  0.0108
   21MOL0     C 2667   0.986   5.524   5.003  1.4167  0.3186  1.0123
   21MOL0     C 2668   0.880   5.486   5.086 -0.5182  0.7569  0.1482
   21MOL0     C 2669   0.753   5.558   5.089  0.2125 -0.6294 -0.5167
   21MOL0     O 2670   0.733   5.638   4.978 -0.0584  0.3653  0.3908
   21MOL0     C 2671   0.615   5.708   4.957  0.0189 -0.8077 -0.2292
   21MOL0     C 2672   0.491   5.648   4.970 -0.5122 -0.5866  0.6280
   21MOL0     C 2673   0.377   5.725   4.969  0.6110 -0.6760  0.2419
   21MOL0     C 2674   0.381   5.868   4.954  0.1398 -0.4828  0.0963
   21MOL0     O 2675   0.271   5.944   4.948  0.6074  0.6422  0.5043
   21MOL0     C 2676   0.232   5.974   4.812  0.1870 -0.7552  0.4279
   21MOL0     C 2677   0.081   5.979   4.774 -0.7229  0.3442 -0.4496
   21MOL0     C 2678  -0.010   6.002   4.894  0.0272 -0.5573  0.6320
   21MOL0     C 2679  -0.162   5.991   4.855 -1.7382 -1.0633 -0.1686
   21MOL0     C 2680  -0.241   6.002   4.983 -0.3464  0.5564  0.7927
   21MOL0     C 2681  -0.390   6.014   4.944 -0.1008 -0.0410 -0.3033
   21MOL0     C 2682  -0.449   5.888   4.884 -1.3072 -0.6587 -0.1637
   21MOL0     C 2683  -0.597   5.866   4.856 -0.6369 -0.8197  0.2728
   21MOL0    Cl 2684  -0.671   6.011   4.776  0.5638  0.0138  0.0013
   21MOL0     C 2685   0.508   5.920   4.925 -0.0228  0.2483 -0.3229
   21MOL0     C 2686   0.622   5.845   4.927 -0.4149 -0.2671  0.4141
   21MOL0     O 2687   0.667   5.514   5.166  0.3045 -0.3957 -0.2195
   21MOL0     C 2688   0.908   5.377   5.172  0.3984  0.1929  0.7918
   21MOL0     C 2689   1.034   5.314   5.170  0.3324  0.6760 -0.2972
   21MOL0     N 2690   1.737   4.809   5.285  0.3420  0.8795  0.5024
   21MOL0     N 2691   1.786   4.736   5.382 -0.4048  0.1329 -0.1110
   21MOL0     C 2692   2.044   5.406   6.433 -0.5864 -0.5718  0.7684
   21MOL0     C 2693   2.023   5.471   6.565  0.0086  0.8055 -0.1998
   21MOL0     C 2694   1.962   5.433   6.996  0.2169 -0.1382 -0.4732
   21MOL0     C 2695   1.977   5.556   7.059 -0.1426 -0.5323  0.5425
   21MOL0     C 2696   1.925   5.574   7.187  0.0500 -0.8744  0.1343
   21MOL0     C 2697   1.868   5.468   7.258 -0.2603  0.5797 -0.2196
   21MOL0     O 2698   1.806   5.493   7.383  0.1928  0.1252  0.2627
   21MOL0     C 2699   1.662   5.471   7.387  1.3111 -0.0641  0.2078
   21MOL0     C 2700   1.629   5.488   7.536  0.5687  0.2944  0.5365
   21MOL0     C 2701   1.476   5.474   7.560  0.1461 -0.0295  0.4538
   21MOL0     C 2702   1.388   5.560   7.477  0.1349 -0.3615  0.1068
   21MOL0     C 2703   1.248   5.561   7.523 -0.7224 -0.0229 -1.1629
   21MOL0     C 2704   1.131   5.571   7.545 -0.1150  0.2429 -0.1583
   21MOL0     C 2705   1.858   5.343   7.206  0.2812 -0.3325  0.5623
   21MOL0     C 2706   1.896   5.329   7.069 -0.5236 -0.0939  0.1942
   21MOL0     H 2707   2.313   5.394   6.717 -0.3477 -2.4795  0.6801
   21MOL0     H 2708   2.377   5.324   6.496 -0.3958 -0.4527  1.1993
   21MOL0     H 2709   2.065   5.293   6.129  0.2248 -1.6104 -1.2907
   21MOL0     H 2710   2.061   5.185   6.277  2.4034 -1.5684  1.4340
   21MOL0     H 2711   2.226   5.054   6.186 -2.7968 -0.6956 -0.0553
   21MOL0     H 2712   2.283   5.178   6.075  0.5276 -0.7530 -0.1686
   21MOL0     H 2713   2.094   5.148   5.929 -0.2663  0.6834  1.3520
   21MOL0     H 2714   2.025   5.027   6.043 -0.9945  1.4584  0.7986
   21MOL0     H 2715   2.306   5.009   5.943  1.2539 -2.3720  1.4369
   21MOL0     H 2716   2.197   4.876   5.999  3.8404 -1.4376 -2.0391
   21MOL0     H 2717   2.246   4.870   5.744 -0.3241  0.7015 -0.1406
   21MOL0     H 2718   2.178   5.028   5.736  0.4765 -0.1813 -0.3332
   21MOL0     H 2719   1.962   4.952   5.822  1.4905  0.5855  1.4746
   21MOL0     H 2720   2.015   4.789   5.817 -1.1543  1.6876  0.1793
   21MOL0     H 2721   1.972   4.954   5.572  1.1015 -1.5764 -2.8369
   21MOL0     H 2722   2.078   4.808   5.575 -0.4572  2.0052 -2.8036
   21MOL0     H 2723   1.790   4.772   5.698 -2.1860 -2.8126 -1.2900
   21MOL0     H 2724   1.895   4.663   5.616 -0.5159 -0.7960  2.2984
   21MOL0     H 2725   1.696   4.999   5.549 -1.5524  0.1714 -0.7054
   21MOL0     H 2726   1.683   5.034   5.162 -0.2117 -2.5759  1.0073
   21MOL0     H 2727   1.706   5.144   5.306  0.1818  1.2444 -1.2875
   21MOL0     H 2728   1.487   5.092   5.385  4.2725 -3.3471  1.4457
   21MOL0     H 2729   1.469   4.962   5.263  1.9419 -0.8476  0.6095
   21MOL0     H 2730   1.514   5.252   5.201  2.0319 -0.8502  0.8988
   21MOL0     H 2731   1.466   5.131   5.079 -4.1110  2.0410 -2.2191
   21MOL0     H 2732   1.277   5.239   5.298 -1.6572 -2.3806  0.9590
   21MOL0     H 2733   1.227   5.113   5.186  1.3515 -1.4325  0.3775
   21MOL0     H 2734   1.181   5.498   4.936 -1.6087  1.9083 -1.3618
   21MOL0     H 2735   0.952   5.600   4.933 -1.9802  0.0576  2.2066
   21MOL0     H 2736   0.489   5.541   4.989  3.9336 -1.4213 -2.1771
   21MOL0     H 2737   0.284   5.671   4.983 -0.2571  0.7954  0.2985
   21MOL0     H 2738   0.268   5.896   4.744 -2.1100 -0.2107 -1.5469
   21MOL0     H 2739   0.282   6.067   4.783  1.7763 -2.4828 -3.0429
   21MOL0     H 2740   0.059   5.887   4.721  0.8810  0.3913 -1.2407
   21MOL0     H 2741   0.074   6.070   4.714  2.1189 -0.3238 -1.9516
   21MOL0     H 2742   0.014   6.104   4.926  2.5051  0.4566 -3.6558
   21MOL0     H 2743   0.002   5.927   4.973 -1.1637 -2.7559 -1.1535
   21MOL0     H 2744  -0.181   6.077   4.790  0.6674 -0.0322  0.3960
   21MOL0     H 2745  -0.170   5.902   4.792 -1.0504  0.4235 -2.4709
   21MOL0     H 2746  -0.214   6.093   5.037  0.3282  1.9590 -1.7421
   21MOL0     H 2747  -0.220   5.920   5.053  4.3523 -0.2742 -1.1714
   21MOL0     H 2748  -0.413   6.103   4.883 -3.3229 -1.0466 -0.7280
   21MOL0     H 2749  -0.445   6.035   5.036 -1.3445 -1.2352 -0.7423
   21MOL0     H 2750  -0.392   5.872   4.793 -1.1677 -0.1452 -0.1712
   21MOL0     H 2751  -0.436   5.800   4.949  0.5917  0.5811  1.2393
   21MOL0     H 2752  -0.653   5.855   4.949  1.2483  1.5275  1.8007
   21MOL0     H 2753  -0.605   5.773   4.799  1.0647 -0.0269 -1.3612
   21MOL0     H 2754   0.529   6.025   4.906  0.6196 -0.1019 -1.7399
   21MOL0     H 2755   0.722   5.884   4.916 -0.2104 -0.5931  1.0657
   21MOL0     H 2756   0.840   5.329   5.241 -1.4333  2.9177  1.0267
   21MOL0     H 2757   1.026   5.225   5.233  2.3988  2.3795  2.5977
   21MOL0     H 2758   1.963   5.415   6.361 -0.6091 -0.4498  0.8100
   21MOL0     H 2759   1.933   5.531   6.573 -0.8181 -0.6513  2.9378
   21MOL0     H 2760   2.017   5.640   7.004 -0.6933 -0.0049  0.9389
   21MOL0     H 2761   1.927   5.676   7.224 -0.6137 -0.5161 -0.7833
   21MOL0     H 2762   1.626   5.376   7.347 -3.8258  1.1248  1.3473
   21MOL0     H 2763   1.603   5.543   7.330  0.1815 -1.7191 -0.8008
   21MOL0     H 2764   1.678   5.403   7.584 -1.6076  0.2399  2.8079
   21MOL0     H 2765   1.663   5.582   7.580 -0.1750 -0.1032  1.9969
   21MOL0     H 2766   1.458   5.504   7.664 -0.5604  3.1910 -0.4778
   21MOL0     H 2767   1.447   5.369   7.550 -0.7696  0.3882 -1.9383
   21MOL0     H 2768   1.443   5.655   7.489 -0.3512  0.2059 -1.7281
   21MOL0     H 2769   1.394   5.521   7.375  1.4117  0.4020 -0.1394
   21MOL0     H 2770   1.028   5.582   7.571 -0.9484 -2.3619 -1.9453
   21MOL0     H 2771   1.824   5.257   7.263 -2.7988 -0.6989 -1.5947
   21MOL0     H 2772   1.886   5.235   7.015  0.7844 -1.9025  2.8842
   22MOL0     O 2773  10.305   2.927   3.927 -0.0960  0.1465 -1.1418
   22MOL0     C 2774  10.396   2.842   3.917  0.9116  0.5018 -0.0863
   22MOL0     O 2775  10.387   2.715   3.851  0.3855 -0.2664  0.6045
   22MOL0     C 2776  10.272   2.681   3.780  0.9327 -0.3641 -0.0786
   22MOL0     C 2777  10.228   2.779   3.694 -0.4124 -0.4319  0.2100
   22MOL0     C 2778  10.105   2.761   3.629  0.6003 -0.4159  0.4536
   22MOL0     C 2779  10.030   2.642   3.644  0.0131 -0.6284 -0.4538
   22MOL0     O 2780   9.913   2.606   3.579  0.6201  0.6703  0.3865
   22MOL0     C 2781   9.889   2.655   3.444  0.0091 -0.7531  0.5612
   22MOL0     C 2782   9.737   2.649   3.423 -0.5014 -0.5841 -0.3611
   22MOL0     C 2783   9.689   2.722   3.294  0.5903  0.0083  0.2113
   22MOL0     C 2784   9.537   2.706   3.275 -0.1958 -0.9445  0.4873
   22MOL0     C 2785   9.477   2.830   3.218  0.3069 -0.6805 -0.0358
   22MOL0     C 2786   9.323   2.832   3.205 -0.2084  0.5354  0.3137
   22MOL0     C 2787   9.265   2.727   3.106 -0.0073 -0.1809  0.1982
   22MOL0     C 2788   9.169   2.632   3.172  0.1695  0.5258 -1.0529
   22MOL0     N 2789   9.068   2.691   3.261 -0.4886 -1.2557  0.1118
   22MOL0     C 2790   8.991   2.806   3.238 -0.5360  0.6463 -0.1771
   22MOL0     C 2791   8.938   2.830   3.361  0.3669  0.6701  0.3419
   22MOL0     C 2792   8.848   2.944   3.392  0.0560 -0.8552 -1.2924
   22MOL0     C 2793   8.700   2.934   3.357  0.3338  0.1163  0.1124
   22MOL0     C 2794   8.615   2.906   3.485  0.7058 -0.7045  0.0902
   22MOL0     C 2795   8.474   2.909   3.439  0.6221  1.0431 -0.1909
   22MOL0     O 2796   8.431   3.028   3.371  0.1088 -0.1922  1.6413
   22MOL0     C 2797   8.296   3.044   3.348 -0.1624 -0.3480  0.1062
   22MOL0     C 2798   8.253   3.167   3.305 -0.0520  0.3863  0.3186
   22MOL0     C 2799   8.120   3.193   3.273  0.3968  0.0251 -0.0708
   22MOL0     C 2800   8.030   3.078   3.280  0.2237  0.2290  0.2586
   22MOL0     C 2801   7.886   3.092   3.240  0.9706  0.8055 -0.5585
   22MOL0     O 2802   7.792   2.994   3.280  0.0398 -0.4698  0.6587
   22MOL0     C 2803   7.673   2.997   3.213  0.3234 -0.4263 -0.2001
   22MOL0     C 2804   7.662   2.991   3.075  0.3848  0.0931  0.6026
   22MOL0     C 2805   7.546   2.991   2.997 -0.0580  0.6538 -0.9820
   22MOL0     C 2806   7.431   2.985   3.076  0.0115 -0.5667  0.5701
   22MOL0     O 2807   7.307   2.995   3.012  0.4990  0.5703  0.4037
   22MOL0     C 2808   7.289   3.024   2.874  0.4537  0.2222  0.2420
   22MOL0     C 2809   7.137   3.044   2.843  0.0801  0.9052 -0.2498
   22MOL0     C 2810   7.073   3.134   2.951 -0.1200 -0.0731  0.2027
   22MOL0     C 2811   6.928   3.157   2.920  0.3144  0.4672 -0.2957
   22MOL0     C 2812   6.830   3.032   2.912  0.4159  0.2702  0.1413
   22MOL0     C 2813   6.820   2.937   3.040  1.1593 -0.6799  1.0063
   22MOL0     C 2814   6.743   2.807   3.014 -0.3431  0.2905  1.3308
   22MOL0     C 2815   6.820   2.684   2.959 -0.1588 -0.7595 -0.5797
   22MOL0    Cl 2816   6.818   2.680   2.782  0.1698  0.4352  0.0186
   22MOL0     C 2817   7.433   2.984   3.211  0.5851  0.3159 -0.0634
   22MOL0     C 2818   7.548   2.999   3.283 -0.9068 -0.0671  0.4642
   22MOL0     O 2819   7.870   3.178   3.155 -0.3968 -0.3896 -0.2588
   22MOL0     C 2820   8.073   2.957   3.317 -1.2600  0.4785 -0.3697
   22MOL0     C 2821   8.206   2.936   3.359  0.7974 -0.2863  0.6184
   22MOL0     N 2822   8.966   2.730   3.453  0.2816 -0.5956  0.1083
   22MOL0     N 2823   9.051   2.654   3.391  0.4149  0.3258 -0.1664
   22MOL0     C 2824  10.082   2.539   3.728  0.7462  0.6009 -0.0721
   22MOL0     C 2825  10.206   2.560   3.793 -0.1518 -0.3181  0.3846
   22MOL0     C 2826  10.532   2.877   3.972  0.0711  0.0835 -0.5331
   22MOL0     C 2827  10.578   3.008   3.978  0.5616 -0.3195  1.0794
   22MOL0     C 2828  10.701   3.042   4.027 -0.9219 -0.1105 -0.8496
   22MOL0     C 2829  10.785   2.950   4.089  0.6945 -0.3073 -0.2650
   22MOL0     O 2830  10.893   2.998   4.155 -0.1868 -0.5475 -0.3663
   22MOL0     C 2831  10.987   2.905   4.197  0.5437 -0.4792 -0.2951
   22MOL0     C 2832  11.099   2.967   4.279 -0.3204 -0.9967  0.1325
   22MOL0     C 2833  11.199   2.859   4.336  0.6103 -0.6357  0.0310
   22MOL0     C 2834  11.234   2.758   4.225 -0.1785 -0.6773 -0.3521
   22MOL0     C 2835  11.371   2.706   4.241  0.0317  0.5680 -0.2070
   22MOL0     C 2836  11.489   2.669   4.240 -0.0674  0.1168  0.2746
   22MOL0     C 2837  10.753   2.807   4.070  0.0228 -0.1146  0.2314
   22MOL0     C 2838  10.628   2.775   4.015 -0.2075 -0.2373 -0.1223
   22MOL0     H 2839  10.284   2.871   3.688  0.5028 -1.0641 -1.2663
   22MOL0     H 2840  10.067   2.835   3.559 -0.5403 -2.2586 -0.9662
   22MOL0     H 2841   9.938   2.588   3.372 -1.7478 -1.1728 -0.3247
   22MOL0     H 2842   9.923   2.757   3.426  0.3904 -0.4936  2.5273
   22MOL0     H 2843   9.673   2.673   3.508 -2.9475 -2.4406 -1.5614
   22MOL0     H 2844   9.705   2.547   3.402 -1.3424 -0.1940 -1.0164
   22MOL0     H 2845   9.735   2.676   3.206  2.4185  1.8242  0.1238
   22MOL0     H 2846   9.720   2.827   3.302  0.1756  0.1115  0.5078
   22MOL0     H 2847   9.516   2.624   3.205 -2.2332  1.1929 -1.5733
   22MOL0     H 2848   9.498   2.687   3.375  0.1249  0.9808  1.0202
   22MOL0     H 2849   9.512   2.857   3.118 -0.5363  1.5525  0.2338
   22MOL0     H 2850   9.499   2.910   3.288 -1.8532  0.8160 -0.9700
   22MOL0     H 2851   9.279   2.930   3.186  0.8656  0.9114 -0.3033
   22MOL0     H 2852   9.293   2.812   3.309 -0.2139  1.9956  0.6134
   22MOL0     H 2853   9.215   2.773   3.021  1.1289  2.0502  0.6527
   22MOL0     H 2854   9.343   2.662   3.068 -2.3480 -1.8981 -1.9821
   22MOL0     H 2855   9.229   2.569   3.239 -0.9977  0.1601 -0.3196
   22MOL0     H 2856   9.111   2.563   3.110  0.5785  0.1763 -1.0568
   22MOL0     H 2857   8.984   2.859   3.143  1.7216  1.3308 -0.0029
   22MOL0     H 2858   8.891   3.034   3.347  0.3424 -0.5215 -0.3713
   22MOL0     H 2859   8.852   2.957   3.501  2.2571 -0.7753 -1.3520
   22MOL0     H 2860   8.683   2.857   3.281  1.8430  0.4965 -0.6699
   22MOL0     H 2861   8.675   3.028   3.309  1.9935 -0.6169 -2.4156
   22MOL0     H 2862   8.646   2.813   3.533  0.5252 -1.8075 -1.8213
   22MOL0     H 2863   8.618   2.988   3.558 -0.7129 -2.0412  1.7507
   22MOL0     H 2864   8.415   2.892   3.530  1.1494  3.8223  0.7894
   22MOL0     H 2865   8.481   2.825   3.370  2.9252 -0.1590  1.3527
   22MOL0     H 2866   8.326   3.247   3.305  1.7655 -1.2168 -0.2243
   22MOL0     H 2867   8.077   3.291   3.259  0.7583  0.5085  1.8523
   22MOL0     H 2868   7.753   2.991   3.016  0.3252 -2.4414  0.3962
   22MOL0     H 2869   7.551   2.988   2.889  2.3740  1.6848 -0.9632
   22MOL0     H 2870   7.315   2.935   2.815  0.0047  1.2625 -1.6231
   22MOL0     H 2871   7.351   3.111   2.853  0.5799  0.0207 -0.2565
   22MOL0     H 2872   7.082   2.949   2.851  1.6069  0.0352  0.2861
   22MOL0     H 2873   7.115   3.076   2.740 -0.2112  0.8276 -0.2144
   22MOL0     H 2874   7.130   3.227   2.955 -1.4629  0.7456  0.8438
   22MOL0     H 2875   7.082   3.081   3.046 -0.9435 -2.2783 -0.8657
   22MOL0     H 2876   6.887   3.226   2.993 -2.3175 -1.6831  0.4275
   22MOL0     H 2877   6.914   3.195   2.818 -3.8455 -2.6847 -1.2225
   22MOL0     H 2878   6.853   2.975   2.821  2.3581  4.0252 -1.9388
   22MOL0     H 2879   6.726   3.062   2.897  0.7193  2.2252  1.5959
   22MOL0     H 2880   6.760   2.993   3.112  1.9192  1.3747  0.1165
   22MOL0     H 2881   6.916   2.915   3.087  1.6730 -1.3401 -0.3074
   22MOL0     H 2882   6.701   2.767   3.107  1.5747 -0.3167  1.9797
   22MOL0     H 2883   6.656   2.823   2.949  1.9078  0.2954 -1.9599
   22MOL0     H 2884   6.775   2.594   3.001  1.8138 -2.4547 -1.9126
   22MOL0     H 2885   6.924   2.688   2.993  1.4146 -1.2384 -4.6797
   22MOL0     H 2886   7.336   2.991   3.260  0.0922  2.5888 -1.2311
   22MOL0     H 2887   7.543   3.012   3.391  1.0990 -0.9754  0.7051
   22MOL0     H 2888   8.010   2.869   3.311  0.3004 -0.7725  0.6987
   22MOL0     H 2889   8.224   2.831   3.381 -1.2668 -0.9033 -0.4438
   22MOL0     H 2890  10.024   2.447   3.736  0.5018  0.7734  0.1465
   22MOL0     H 2891  10.235   2.482   3.861 -0.0709 -1.5075 -0.9647
   22MOL0     H 2892  10.507   3.079   3.939  1.3149  0.2978  0.7969
   22MOL0     H 2893  10.720   3.147   4.045  1.5591 -0.5060 -0.7459
   22MOL0     H 2894  11.025   2.847   4.112  0.2424 -1.0063 -0.0755
   22MOL0     H 2895  10.926   2.832   4.249 -1.0551  0.5608 -0.6509
   22MOL0     H 2896  11.160   3.044   4.231 -1.3461 -0.1666  0.1107
   22MOL0     H 2897  11.050   3.028   4.356  0.7297  0.8420 -0.5765
   22MOL0     H 2898  11.153   2.811   4.423  0.5924 -0.2595  0.2340
   22MOL0     H 2899  11.281   2.916   4.381  0.7514 -0.6509 -0.2103
   22MOL0     H 2900  11.157   2.681   4.231 -0.7843  0.0325  2.6162
   22MOL0     H 2901  11.228   2.796   4.123 -1.0639  1.0730  0.3113
   22MOL0     H 2902  11.591   2.640   4.229  0.4799  0.1766  3.8225
   22MOL0     H 2903  10.824   2.736   4.112  2.1731  2.1443  0.6864
   22MOL0     H 2904  10.607   2.669   4.013 -2.6818  0.1990 -0.7595
   23MOL0     O 2905   6.821   7.170   4.175 -0.2913  0.3525 -0.6581
   23MOL0     C 2906   6.864   7.069   4.123 -0.7514 -0.0739  0.0695
   23MOL0     O 2907   7.000   7.036   4.106 -0.3210 -0.2401 -0.2062
   23MOL0     C 2908   7.108   7.126   4.146  0.2561  0.1047 -0.6434
   23MOL0     C 2909   7.212   7.154   4.068 -0.0925 -0.0189  0.0697
   23MOL0     C 2910   7.321   7.226   4.125  0.0853 -0.7729 -0.1819
   23MOL0     C 2911   7.324   7.260   4.266  0.1494  0.2430  0.3688
   23MOL0     O 2912   7.443   7.291   4.339 -0.1727 -0.4452  0.5484
   23MOL0     C 2913   7.555   7.354   4.268 -0.5336  0.1858 -0.4811
   23MOL0     C 2914   7.626   7.443   4.373 -0.3631  0.4823 -0.5792
   23MOL0     C 2915   7.549   7.578   4.379  0.2666  0.1262  0.1768
   23MOL0     C 2916   7.630   7.671   4.474  0.3909 -0.5847  0.2402
   23MOL0     C 2917   7.611   7.821   4.428  0.2315 -0.4812  0.0242
   23MOL0     C 2918   7.465   7.873   4.416  0.4936 -0.0184 -0.0697
   23MOL0     C 2919   7.463   8.020   4.398 -0.1660 -0.5018  0.3379
   23MOL0     C 2920   7.326   8.093   4.391  0.3296  0.3748  0.1353
   23MOL0     N 2921   7.248   8.053   4.273 -0.4988  0.9276 -0.6975
   23MOL0     C 2922   7.113   8.070   4.246 -0.4073  0.5002 -0.6656
   23MOL0     C 2923   7.084   8.009   4.132  0.2293 -0.1120  0.2497
   23MOL0     C 2924   6.946   7.986   4.082 -0.2248  0.2001  0.2856
   23MOL0     C 2925   6.921   8.080   3.963  0.1611 -0.6976  0.0296
   23MOL0     C 2926   6.777   8.089   3.914 -0.1319  0.3439 -0.1033
   23MOL0     C 2927   6.769   8.178   3.799  0.1486  0.2773 -0.0221
   23MOL0     O 2928   6.793   8.107   3.679 -0.5838  0.5180  0.0598
   23MOL0     C 2929   6.704   8.030   3.601 -0.6202 -0.3049 -0.7486
   23MOL0     C 2930   6.739   7.995   3.472 -0.9429  0.4554  0.0496
   23MOL0     C 2931   6.657   7.916   3.388  0.0163 -0.6456  0.7765
   23MOL0     C 2932   6.530   7.880   3.430 -0.5865  0.4223 -0.2317
   23MOL0     C 2933   6.441   7.795   3.340 -0.1540  0.1002 -0.5826
   23MOL0     O 2934   6.484   7.772   3.213 -0.1336 -0.2241  0.6398
   23MOL0     C 2935   6.404   7.690   3.137  0.5396  0.1427 -0.0323
   23MOL0     C 2936   6.428   7.555   3.125 -0.8078 -0.0249  1.1379
   23MOL0     C 2937   6.348   7.463   3.059 -0.0752 -0.0716  1.0395
   23MOL0     C 2938   6.239   7.514   2.984  0.2745 -0.5376 -0.5888
   23MOL0     O 2939   6.164   7.443   2.905  0.3375 -0.2703  0.2214
   23MOL0     C 2940   6.181   7.302   2.912  0.0111 -0.1299  0.2380
   23MOL0     C 2941   6.071   7.237   2.838 -0.0148  0.0702 -0.3875
   23MOL0     C 2942   5.938   7.311   2.833  1.4469 -0.2447  0.8740
   23MOL0     C 2943   5.839   7.265   2.728 -0.0109 -0.6721  0.3705
   23MOL0     C 2944   5.720   7.366   2.697 -0.2213 -0.0825 -0.2139
   23MOL0     C 2945   5.625   7.373   2.808 -0.0979  0.4009  0.8522
   23MOL0     C 2946   5.507   7.449   2.780  0.6147  0.8327  0.1507
   23MOL0     C 2947   5.398   7.380   2.684  1.3422 -0.7539 -1.3870
   23MOL0    Cl 2948   5.244   7.472   2.706  0.1126 -0.2505  0.0081
   23MOL0     C 2949   6.210   7.658   2.996  0.3732  0.1266  0.7157
   23MOL0     C 2950   6.287   7.740   3.078  0.3882 -0.1157 -0.0085
   23MOL0     O 2951   6.341   7.748   3.388 -0.0382 -0.2251  0.3925
   23MOL0     C 2952   6.485   7.936   3.546 -0.3356  0.0720 -0.5413
   23MOL0     C 2953   6.579   8.004   3.637  0.1351  0.1397 -0.3126
   23MOL0     N 2954   7.196   7.958   4.077  0.0396  0.0367 -0.5258
   23MOL0     N 2955   7.292   7.984   4.164  0.0283 -0.4084  0.7158
   23MOL0     C 2956   7.216   7.225   4.342 -0.8176  0.0478  0.0923
   23MOL0     C 2957   7.111   7.159   4.284 -0.4470  0.0922  0.2841
   23MOL0     C 2958   6.769   6.960   4.083  1.1778 -0.4533  0.9894
   23MOL0     C 2959   6.809   6.838   4.016 -0.3745 -0.5499  0.0828
   23MOL0     C 2960   6.711   6.754   3.974 -0.6783 -0.6081  0.4765
   23MOL0     C 2961   6.572   6.775   3.992 -0.3316  0.8077  0.6883
   23MOL0     O 2962   6.494   6.674   3.954  0.0881 -0.0447  0.2412
   23MOL0     C 2963   6.350   6.677   3.975  0.8963 -0.1359 -0.1078
   23MOL0     C 2964   6.268   6.782   3.889 -0.0324  0.3860 -0.0609
   23MOL0     C 2965   6.119   6.739   3.876 -0.0872  0.9431 -0.3137
   23MOL0     C 2966   6.030   6.848   3.813  0.0883  0.3620  0.0109
   23MOL0     C 2967   6.066   6.883   3.677 -0.4233 -0.4928  0.4913
   23MOL0     C 2968   6.108   6.922   3.569  0.1291  0.1930  1.1065
   23MOL0     C 2969   6.529   6.883   4.061 -0.3697  0.4820 -0.1063
   23MOL0     C 2970   6.629   6.977   4.109 -0.4853  0.3072  0.4091
   23MOL0     H 2971   7.222   7.129   3.963  0.3989  2.4256 -0.5405
   23MOL0     H 2972   7.396   7.260   4.054 -1.5894  0.9380 -1.2557
   23MOL0     H 2973   7.529   7.423   4.186  0.6169 -1.9548 -2.7778
   23MOL0     H 2974   7.619   7.274   4.229  1.4964  1.6411 -0.2677
   23MOL0     H 2975   7.730   7.459   4.344  1.0065 -3.3285  1.4556
   23MOL0     H 2976   7.630   7.384   4.465 -1.5539 -0.8312 -1.3358
   23MOL0     H 2977   7.448   7.557   4.416 -0.1976  0.9471 -0.5748
   23MOL0     H 2978   7.546   7.617   4.276 -0.5828 -5.9878 -2.5565
   23MOL0     H 2979   7.606   7.657   4.579  0.0547 -0.9540  0.1163
   23MOL0     H 2980   7.735   7.641   4.472  1.4832  2.6599  1.9030
   23MOL0     H 2981   7.655   7.839   4.330 -3.0160 -1.3233 -1.7324
   23MOL0     H 2982   7.667   7.886   4.495  2.5377  1.4772 -3.4816
   23MOL0     H 2983   7.425   7.844   4.514  1.6481  0.1247  0.4545
   23MOL0     H 2984   7.408   7.830   4.333 -1.3575  1.0605  0.5767
   23MOL0     H 2985   7.528   8.067   4.472  1.7725 -3.5783  0.7958
   23MOL0     H 2986   7.503   8.032   4.298 -2.8108 -4.6380 -1.5134
   23MOL0     H 2987   7.349   8.200   4.383  0.3175  0.3403 -0.4359
   23MOL0     H 2988   7.266   8.071   4.479  0.2295  0.5424  0.1104
   23MOL0     H 2989   7.029   8.110   4.303 -1.9635 -1.0480 -1.7743
   23MOL0     H 2990   6.878   7.994   4.168 -1.5241 -0.8340 -0.6013
   23MOL0     H 2991   6.942   7.883   4.046 -1.6166  0.6274 -0.8824
   23MOL0     H 2992   6.981   8.047   3.877 -1.3588 -1.2626 -0.8553
   23MOL0     H 2993   6.960   8.179   3.990  1.7363 -0.3732 -2.9458
   23MOL0     H 2994   6.754   7.988   3.877  2.1182  0.1133 -0.9710
   23MOL0     H 2995   6.709   8.118   3.995 -0.1875 -0.4612  0.1536
   23MOL0     H 2996   6.832   8.267   3.798 -0.5802  0.8564 -2.7505
   23MOL0     H 2997   6.666   8.216   3.795  0.2986  0.7241  0.3791
   23MOL0     H 2998   6.837   8.009   3.428 -0.1442 -2.5110  0.6574
   23MOL0     H 2999   6.690   7.878   3.292 -2.8888 -0.2543 -0.5047
   23MOL0     H 3000   6.515   7.505   3.167 -0.0800 -0.1626 -0.4741
   23MOL0     H 3001   6.371   7.358   3.073 -1.2730  0.0363  5.2146
   23MOL0     H 3002   6.165   7.272   3.016  0.6740 -2.1476 -0.1979
   23MOL0     H 3003   6.277   7.262   2.878  0.5568 -0.2316  1.7931
   23MOL0     H 3004   6.047   7.140   2.884  0.2336 -0.8425 -2.0955
   23MOL0     H 3005   6.109   7.218   2.737 -0.7429 -0.4136 -0.5783
   23MOL0     H 3006   5.962   7.412   2.800  1.0318 -0.1729  0.7756
   23MOL0     H 3007   5.892   7.315   2.932 -1.0229  3.5182 -0.2048
   23MOL0     H 3008   5.900   7.248   2.638  1.1445 -0.1543  1.0406
   23MOL0     H 3009   5.810   7.161   2.747  1.7336 -1.5638 -1.4060
   23MOL0     H 3010   5.675   7.330   2.604  0.9067 -0.1467 -0.7460
   23MOL0     H 3011   5.751   7.470   2.683 -2.2924  1.1812  3.1653
   23MOL0     H 3012   5.668   7.409   2.901  1.3242  1.8440 -0.3034
   23MOL0     H 3013   5.585   7.273   2.830  0.0455  0.3098  0.7113
   23MOL0     H 3014   5.466   7.464   2.880  2.5913 -0.4973  1.2178
   23MOL0     H 3015   5.530   7.543   2.730 -0.3547 -0.9410 -4.0576
   23MOL0     H 3016   5.383   7.276   2.715  0.4696  0.0077  0.9072
   23MOL0     H 3017   5.429   7.395   2.580  0.5296  3.4406 -1.1974
   23MOL0     H 3018   6.130   7.701   2.937 -1.0005 -0.1231  2.3337
   23MOL0     H 3019   6.257   7.843   3.099 -0.4437 -0.2934 -0.2835
   23MOL0     H 3020   6.384   7.907   3.571 -1.5505  2.9352 -1.6613
   23MOL0     H 3021   6.533   8.052   3.723  1.9837  1.6897 -0.1050
   23MOL0     H 3022   7.209   7.241   4.449 -3.9696  1.3837 -0.1976
   23MOL0     H 3023   7.024   7.134   4.344  1.3202  1.2254  3.5877
   23MOL0     H 3024   6.910   6.809   3.990  0.0122  0.2437  0.6518
   23MOL0     H 3025   6.741   6.663   3.924  0.9950 -1.4432  2.7877
   23MOL0     H 3026   6.314   6.695   4.077 -0.7971  1.1092 -0.8814
   23MOL0     H 3027   6.322   6.575   3.950  1.4418 -1.5582  4.2782
   23MOL0     H 3028   6.278   6.885   3.925 -1.0967  0.7769 -0.8246
   23MOL0     H 3029   6.319   6.796   3.794 -0.2502  4.6946  0.2682
   23MOL0     H 3030   6.076   6.718   3.974  0.3078 -1.7554 -0.6472
   23MOL0     H 3031   6.110   6.644   3.822  0.2285  1.3917 -1.1761
   23MOL0     H 3032   5.927   6.815   3.802 -0.0087  0.3192  0.9526
   23MOL0     H 3033   6.026   6.938   3.875 -2.3563 -0.3503  1.0110
   23MOL0     H 3034   6.126   6.961   3.471  0.2899  1.5780  1.6552
   23MOL0     H 3035   6.424   6.898   4.083 -0.0922 -0.8124  2.5828
   23MOL0     H 3036   6.592   7.068   4.155 -1.5847  0.5011 -0.7970
   24MOL0     O 3037   4.999   9.444   2.009 -0.1790  0.2445  0.4677
   24MOL0     C 3038   4.908   9.471   2.091  0.7310 -0.2318 -0.6071
   24MOL0     O 3039   4.832   9.583   2.089  0.1254  0.2918 -0.0222
   24MOL0     C 3040   4.879   9.687   2.012 -0.4655 -0.5239 -0.3946
   24MOL0     C 3041   4.787   9.762   1.940 -0.6447 -0.2722 -1.0623
   24MOL0     C 3042   4.815   9.874   1.857  0.8025 -0.0148 -0.0032
   24MOL0     C 3043   4.954   9.909   1.846 -0.0282  0.1083 -0.2341
   24MOL0     O 3044   4.981  10.033   1.787 -0.3271  0.2475  0.4058
   24MOL0     C 3045   5.117  10.068   1.763 -0.0834  0.7007 -0.6689
   24MOL0     C 3046   5.119  10.211   1.712  0.2934  0.6046 -0.5075
   24MOL0     C 3047   5.088  10.218   1.565 -0.7725 -1.0048  0.7343
   24MOL0     C 3048   5.098  10.368   1.518 -0.3424 -0.0285  0.2866
   24MOL0     C 3049   5.085  10.368   1.366  0.2226 -0.0935 -0.2959
   24MOL0     C 3050   5.122  10.510   1.309  0.5694  0.8424 -0.3158
   24MOL0     C 3051   5.069  10.514   1.165  0.1118 -0.4466 -0.1297
   24MOL0     C 3052   5.151  10.416   1.078  0.3848 -0.2132 -0.8343
   24MOL0     N 3053   5.132  10.454   0.945 -0.3442 -0.0465  0.6136
   24MOL0     C 3054   5.018  10.441   0.870  0.3724 -0.7080 -0.2074
   24MOL0     C 3055   5.039  10.484   0.744  0.5072  0.2742 -1.1857
   24MOL0     C 3056   4.951  10.464   0.622  0.6952  0.4578 -0.3635
   24MOL0     C 3057   4.962  10.582   0.523  0.6732 -0.0011  0.6947
   24MOL0     C 3058   4.921  10.570   0.379  0.3046  0.0773  0.1430
   24MOL0     C 3059   4.770  10.535   0.368 -0.1338 -0.9426  0.0374
   24MOL0     O 3060   4.695  10.638   0.430 -0.1317  0.1624  0.0824
   24MOL0     C 3061   4.561  10.622   0.420 -1.0666  0.3539  0.6928
   24MOL0     C 3062   4.508  10.662   0.299  0.3689  0.1100  0.3134
   24MOL0     C 3063   4.368  10.629   0.279  0.3797  0.7529  1.3199
   24MOL0     C 3064   4.289  10.583   0.383 -0.2332  0.8670 -0.3006
   24MOL0     C 3065   4.142  10.548   0.361 -0.9899  0.2982 -0.2886
   24MOL0     O 3066   4.074  10.626   0.267  0.0507 -0.1272  0.4340
   24MOL0     C 3067   3.937  10.634   0.272 -0.1155  0.1091  0.2661
   24MOL0     C 3068   3.867  10.766   0.274  0.1494  0.8406  0.3715
   24MOL0     C 3069   3.728  10.778   0.291  0.6356  0.0769  0.2970
   24MOL0     C 3070   3.646  10.662   0.293 -0.7587  0.7308 -0.1473
   24MOL0     O 3071   3.515  10.674   0.337 -0.4340  0.2175 -0.1844
   24MOL0     C 3072   3.458  10.808   0.361  0.0066 -0.6752 -0.4809
   24MOL0     C 3073   3.336  10.783   0.447  0.3439 -0.6547  0.1659
   24MOL0     C 3074   3.223  10.705   0.374 -0.2915 -0.2909  0.3828
   24MOL0     C 3075   3.103  10.688   0.467  1.2634  0.2935 -0.2474
   24MOL0     C 3076   2.979  10.619   0.396  1.0618  0.0896 -0.1095
   24MOL0     C 3077   2.872  10.561   0.488  0.0599 -0.5177  1.0843
   24MOL0     C 3078   2.760  10.499   0.403  0.4204  0.2137  0.7460
   24MOL0     C 3079   2.668  10.422   0.503 -0.7185 -0.2885  0.7724
   24MOL0    Cl 3080   2.746  10.266   0.529 -0.0874  0.5134 -0.2097
   24MOL0     C 3081   3.710  10.540   0.257  0.7172 -0.1481  0.7743
   24MOL0     C 3082   3.852  10.524   0.257  0.1183  0.2682  0.3874
   24MOL0     O 3083   4.087  10.479   0.448 -0.2650  0.3390 -0.0166
   24MOL0     C 3084   4.355  10.539   0.499  0.6274  0.4408 -0.2335
   24MOL0     C 3085   4.491  10.558   0.521  0.2456 -0.0619  0.1770
   24MOL0     N 3086   5.179  10.507   0.740  0.2603 -0.5286 -0.3225
   24MOL0     N 3087   5.231  10.483   0.856  0.3698 -0.2460  0.2372
   24MOL0     C 3088   5.054   9.830   1.906 -1.2610  0.3464  0.9362
   24MOL0     C 3089   5.013   9.726   1.989 -0.3099  0.0756  0.1087
   24MOL0     C 3090   4.879   9.383   2.198  0.4802 -0.3897  0.0668
   24MOL0     C 3091   4.746   9.347   2.232 -1.2251 -0.1095  0.0864
   24MOL0     C 3092   4.709   9.247   2.318  0.4983 -0.7737  0.6059
   24MOL0     C 3093   4.812   9.196   2.397  0.7703  0.6230  0.3384
   24MOL0     O 3094   4.793   9.103   2.494  0.1560  1.2505 -0.5851
   24MOL0     C 3095   4.683   9.014   2.503 -0.3743 -0.6688 -0.1000
   24MOL0     C 3096   4.727   8.869   2.504  0.7220 -0.6534 -1.3711
   24MOL0     C 3097   4.613   8.781   2.577 -1.1269  0.4066 -0.3585
   24MOL0     C 3098   4.645   8.633   2.583 -0.7508  0.0467  0.2840
   24MOL0     C 3099   4.558   8.543   2.671 -0.4275  0.0310  1.2629
   24MOL0     C 3100   4.488   8.485   2.752 -0.2005  0.5088  0.0108
   24MOL0     C 3101   4.940   9.244   2.378  0.6328 -0.1907 -0.0574
   24MOL0     C 3102   4.973   9.331   2.276 -0.7777  0.2983  0.6601
   24MOL0     H 3103   4.688   9.720   1.926 -0.5007 -1.4072  0.8932
   24MOL0     H 3104   4.736   9.924   1.802  0.3420  2.5955  2.8020
   24MOL0     H 3105   5.155  10.003   1.683  1.2137  1.2993 -0.5631
   24MOL0     H 3106   5.177  10.050   1.852 -0.9543 -1.6123 -0.4667
   24MOL0     H 3107   5.219  10.247   1.741  0.8570 -1.4268  0.2585
   24MOL0     H 3108   5.048  10.280   1.759  1.4380  2.8472 -1.8800
   24MOL0     H 3109   4.988  10.187   1.535 -0.6051  1.1096 -2.4393
   24MOL0     H 3110   5.150  10.145   1.510 -1.0665 -0.2127 -0.6905
   24MOL0     H 3111   5.017  10.432   1.556  0.2802  1.2323 -0.4249
   24MOL0     H 3112   5.189  10.423   1.544 -1.5363  1.2935  1.9197
   24MOL0     H 3113   4.992  10.321   1.332  0.0856 -3.0086  3.4552
   24MOL0     H 3114   5.159  10.293   1.337 -1.6599 -2.6516  1.0717
   24MOL0     H 3115   5.230  10.521   1.299  1.3112 -2.9063  1.4785
   24MOL0     H 3116   5.076  10.592   1.366  0.8033  0.3864  0.5535
   24MOL0     H 3117   4.962  10.492   1.163  0.0041 -0.3381  1.8992
   24MOL0     H 3118   5.083  10.618   1.136  2.3885 -0.7885 -0.5153
   24MOL0     H 3119   5.122  10.313   1.096 -1.8392  0.1208 -2.0847
   24MOL0     H 3120   5.256  10.428   1.106 -0.0769 -0.8131  1.2591
   24MOL0     H 3121   4.925  10.402   0.909 -0.6496  2.6190  1.0705
   24MOL0     H 3122   4.847  10.440   0.644 -0.3396  2.7475 -2.3795
   24MOL0     H 3123   4.988  10.370   0.579  0.9403 -0.2010  1.1861
   24MOL0     H 3124   5.066  10.617   0.524  0.9098 -0.6472  2.3747
   24MOL0     H 3125   4.898  10.660   0.565 -1.2923 -1.7140  1.0315
   24MOL0     H 3126   4.955  10.659   0.325  2.3061 -1.0133 -0.4883
   24MOL0     H 3127   4.986  10.499   0.328 -1.0823 -0.1837 -1.2913
   24MOL0     H 3128   4.751  10.438   0.413 -0.0339 -0.1022  1.9943
   24MOL0     H 3129   4.740  10.533   0.263  1.0622 -0.1665 -0.3335
   24MOL0     H 3130   4.557  10.703   0.211 -2.8387  0.6667 -1.3623
   24MOL0     H 3131   4.326  10.647   0.181  0.5810  0.2937  1.1468
   24MOL0     H 3132   3.925  10.858   0.267 -1.6746  2.1684  1.6356
   24MOL0     H 3133   3.670  10.868   0.307 -2.1233 -1.4052 -0.7052
   24MOL0     H 3134   3.434  10.853   0.264  0.0306  1.2933  0.3773
   24MOL0     H 3135   3.524  10.865   0.427  2.2793 -0.3992 -2.8598
   24MOL0     H 3136   3.289  10.880   0.465  0.4260 -0.6780  0.5071
   24MOL0     H 3137   3.352  10.752   0.551 -2.8731  2.0302  1.6351
   24MOL0     H 3138   3.256  10.606   0.341  0.9559  0.1088  0.3795
   24MOL0     H 3139   3.205  10.770   0.287  3.1018  0.1466 -0.1224
   24MOL0     H 3140   3.129  10.638   0.561  0.2951 -1.6504 -0.9698
   24MOL0     H 3141   3.062  10.787   0.493  1.3817 -0.1053  1.5915
   24MOL0     H 3142   3.010  10.530   0.339  0.2341 -0.8413  0.8528
   24MOL0     H 3143   2.931  10.690   0.328  2.6598  1.5220  0.1815
   24MOL0     H 3144   2.821  10.633   0.552 -0.3707  0.7315 -0.5966
   24MOL0     H 3145   2.915  10.478   0.544  0.0542 -0.7201  0.7906
   24MOL0     H 3146   2.694  10.575   0.360 -1.6065 -1.2356  1.1210
   24MOL0     H 3147   2.800  10.445   0.317  0.4688  3.2491 -1.2987
   24MOL0     H 3148   2.575  10.409   0.446  0.7682 -1.9309 -1.4504
   24MOL0     H 3149   2.642  10.472   0.597  1.4066 -3.4039  3.2292
   24MOL0     H 3150   3.642  10.456   0.243  0.2997 -0.6552  4.6404
   24MOL0     H 3151   3.888  10.421   0.256  0.7217  0.4734 -0.4659
   24MOL0     H 3152   4.308  10.491   0.585  4.7009  1.6648  3.0372
   24MOL0     H 3153   4.552  10.527   0.605  0.9632 -0.3456 -0.4432
   24MOL0     H 3154   5.160   9.841   1.887 -1.6520  1.4634 -0.8566
   24MOL0     H 3155   5.085   9.661   2.038  1.2204  0.9904 -0.8514
   24MOL0     H 3156   4.663   9.399   2.184 -0.9970  0.1072 -0.0739
   24MOL0     H 3157   4.605   9.218   2.330  0.3950 -0.4486  0.5136
   24MOL0     H 3158   4.615   9.027   2.418  0.3908  1.6831 -0.4402
   24MOL0     H 3159   4.636   9.039   2.598  1.1314  0.7611  0.3180
   24MOL0     H 3160   4.737   8.821   2.406 -1.3525 -0.8443 -1.5294
   24MOL0     H 3161   4.821   8.865   2.560  0.8748 -1.1623 -1.6558
   24MOL0     H 3162   4.515   8.799   2.532 -1.6354  2.6891  1.4652
   24MOL0     H 3163   4.593   8.809   2.681 -1.0628 -0.3751 -0.1279
   24MOL0     H 3164   4.650   8.611   2.476 -2.6301  4.9755 -1.1087
   24MOL0     H 3165   4.743   8.633   2.633 -1.1134  1.9560  1.0832
   24MOL0     H 3166   4.423   8.422   2.810  0.1499 -1.3871 -1.5285
   24MOL0     H 3167   5.015   9.203   2.445 -0.6430 -2.1453  0.2556
   24MOL0     H 3168   5.078   9.358   2.268 -0.8254 -0.1195 -2.5010
   25MOL0     O 3169   7.098   9.893   1.959  0.1322  0.0360 -0.4931
   25MOL0     C 3170   7.064   9.811   2.045  0.6871  0.1041  0.0120
   25MOL0     O 3171   7.152   9.751   2.126 -0.1090  0.6176 -0.4213
   25MOL0     C 3172   7.285   9.757   2.099  0.0363 -0.9893 -0.8562
   25MOL0     C 3173   7.371   9.717   2.205 -0.4734 -0.1466 -0.3403
   25MOL0     C 3174   7.515   9.743   2.195 -0.4204 -0.5017  0.5360
   25MOL0     C 3175   7.577   9.786   2.081 -0.5902  0.2488 -0.3042
   25MOL0     O 3176   7.712   9.794   2.060 -0.5523 -0.4114 -0.0975
   25MOL0     C 3177   7.786   9.680   2.063  0.0559  0.3419 -0.4236
   25MOL0     C 3178   7.939   9.720   2.059  0.4971 -0.6212  0.1106
   25MOL0     C 3179   8.032   9.596   2.060 -0.1775  0.0303  0.8874
   25MOL0     C 3180   8.184   9.627   2.082  0.5695 -0.6540  0.9127
   25MOL0     C 3181   8.267   9.504   2.075  0.7792  0.3741  0.0907
   25MOL0     C 3182   8.414   9.535   2.072  0.9645 -0.4226  0.1363
   25MOL0     C 3183   8.490   9.395   2.052  0.0020 -0.4374  0.3211
   25MOL0     C 3184   8.631   9.410   2.010  0.4301  0.0093  0.4151
   25MOL0     N 3185   8.708   9.466   2.125 -0.1558 -0.1150  0.8045
   25MOL0     C 3186   8.692   9.418   2.256  0.7516  0.1946  0.3532
   25MOL0     C 3187   8.769   9.495   2.333 -0.8367  0.1606  0.3972
   25MOL0     C 3188   8.796   9.472   2.483 -0.8800 -0.0474  0.7174
   25MOL0     C 3189   8.668   9.454   2.562  0.2826 -0.3471  1.1931
   25MOL0     C 3190   8.593   9.589   2.558  0.1889  0.0120  0.4958
   25MOL0     C 3191   8.439   9.580   2.572  0.3905 -0.9870 -0.1137
   25MOL0     O 3192   8.381   9.518   2.462  0.9820 -0.0708  0.4870
   25MOL0     C 3193   8.242   9.520   2.470 -0.5135  0.1980  0.4830
   25MOL0     C 3194   8.180   9.643   2.445  0.1768 -0.0148 -0.7511
   25MOL0     C 3195   8.040   9.649   2.451 -0.4289 -0.0047 -0.0684
   25MOL0     C 3196   7.963   9.536   2.474  0.7488 -0.3574 -0.8772
   25MOL0     C 3197   7.815   9.539   2.466  0.0442 -0.6608  0.4902
   25MOL0     O 3198   7.757   9.425   2.426  0.2260 -0.2395 -0.6327
   25MOL0     C 3199   7.621   9.413   2.404 -0.5051 -0.9453  1.0396
   25MOL0     C 3200   7.521   9.465   2.492 -0.1276 -0.1164  0.4977
   25MOL0     C 3201   7.395   9.450   2.454 -0.9380 -0.3163 -0.2363
   25MOL0     C 3202   7.357   9.386   2.340 -0.0911 -0.7394  0.3325
   25MOL0     O 3203   7.226   9.380   2.299 -0.9597  0.7976  0.1311
   25MOL0     C 3204   7.196   9.352   2.162 -0.0931  0.1219  0.2195
   25MOL0     C 3205   7.051   9.362   2.130  0.3610 -0.2877  0.2050
   25MOL0     C 3206   6.954   9.318   2.241  0.2057  0.4492  0.5491
   25MOL0     C 3207   6.804   9.346   2.213  0.1783 -0.0812 -0.8465
   25MOL0     C 3208   6.729   9.256   2.118  0.1087  1.4959  0.1877
   25MOL0     C 3209   6.734   9.103   2.164 -0.1933 -0.4378 -0.8012
   25MOL0     C 3210   6.599   9.030   2.153  0.0731  0.5188 -0.5186
   25MOL0     C 3211   6.614   8.883   2.112  0.2521  0.2245 -0.7491
   25MOL0    Cl 3212   6.459   8.804   2.082  0.4544  0.1016  0.0180
   25MOL0     C 3213   7.458   9.335   2.256  0.2054 -0.0440  0.6983
   25MOL0     C 3214   7.586   9.355   2.292  0.1911  0.0087  0.2144
   25MOL0     O 3215   7.760   9.644   2.489  0.6735  0.5162  1.8769
   25MOL0     C 3216   8.023   9.420   2.505 -1.0275  0.3167 -0.3168
   25MOL0     C 3217   8.166   9.406   2.489  0.3293 -0.3776 -0.0477
   25MOL0     N 3218   8.822   9.595   2.245 -0.2444 -0.4065 -0.1553
   25MOL0     N 3219   8.778   9.580   2.128 -0.0404  0.0474  0.3570
   25MOL0     C 3220   7.494   9.811   1.977  0.2495  0.1957 -0.6696
   25MOL0     C 3221   7.352   9.795   1.986  0.2078 -0.2750 -0.1522
   25MOL0     C 3222   6.927   9.795   2.090 -0.6695  0.8273  1.1082
   25MOL0     C 3223   6.827   9.867   2.027 -0.2311 -1.0995 -0.1360
   25MOL0     C 3224   6.690   9.857   2.057  0.1099 -0.1737  0.9265
   25MOL0     C 3225   6.645   9.776   2.165 -0.6603 -0.1917  1.4186
   25MOL0     O 3226   6.512   9.798   2.183  0.2820 -0.2686 -0.8899
   25MOL0     C 3227   6.442   9.729   2.297 -0.3746 -0.5009 -0.2907
   25MOL0     C 3228   6.427   9.582   2.262  0.5465  0.5092 -0.6766
   25MOL0     C 3229   6.325   9.527   2.367  0.1552 -0.1696  1.0534
   25MOL0     C 3230   6.369   9.544   2.517  0.5710  0.8570 -0.4397
   25MOL0     C 3231   6.500   9.485   2.544 -0.1954 -0.4727 -0.7975
   25MOL0     C 3232   6.614   9.467   2.583  0.0437  0.0522  0.3499
   25MOL0     C 3233   6.743   9.701   2.234  0.1061 -0.5078 -0.5296
   25MOL0     C 3234   6.886   9.709   2.192  0.1168 -0.0720  1.0754
   25MOL0     H 3235   7.332   9.674   2.297  2.0786  1.6520  1.7608
   25MOL0     H 3236   7.571   9.717   2.285  1.7812  5.7240  1.4301
   25MOL0     H 3237   7.756   9.607   1.987  2.4121 -1.7933  0.5138
   25MOL0     H 3238   7.777   9.632   2.161 -2.1895 -0.2036 -0.8498
   25MOL0     H 3239   7.969   9.762   2.155  3.0598 -0.3211 -0.7363
   25MOL0     H 3240   7.976   9.782   1.977 -2.3176 -0.5847 -1.2779
   25MOL0     H 3241   8.007   9.545   1.967 -0.5166  1.9256 -0.1219
   25MOL0     H 3242   8.004   9.516   2.129 -0.6127 -1.3938 -0.8942
   25MOL0     H 3243   8.215   9.697   2.005 -1.4375  1.3368  1.8234
   25MOL0     H 3244   8.200   9.663   2.184 -0.1695 -2.5744  1.7574
   25MOL0     H 3245   8.244   9.450   1.983 -1.0875 -1.1842  1.3676
   25MOL0     H 3246   8.249   9.431   2.155  2.5060 -0.2337 -0.0382
   25MOL0     H 3247   8.451   9.587   2.160  2.6070  0.3021 -0.9313
   25MOL0     H 3248   8.430   9.596   1.982  2.8364 -2.1715 -0.8183
   25MOL0     H 3249   8.475   9.332   2.140 -0.3073 -1.6086 -0.5575
   25MOL0     H 3250   8.446   9.345   1.966  0.0820 -1.4647  0.8578
   25MOL0     H 3251   8.647   9.463   1.916  0.7302 -0.8607 -0.0347
   25MOL0     H 3252   8.674   9.310   1.999  2.4833  0.4380  3.4154
   25MOL0     H 3253   8.630   9.335   2.289  2.5815  0.2626  4.6622
   25MOL0     H 3254   8.844   9.560   2.525 -1.2372  0.1380  0.7461
   25MOL0     H 3255   8.874   9.397   2.496  0.4794  1.0304 -0.8057
   25MOL0     H 3256   8.700   9.429   2.664  3.4603 -0.9815  0.1457
   25MOL0     H 3257   8.605   9.373   2.525  0.3441  0.3960 -0.6395
   25MOL0     H 3258   8.633   9.659   2.632 -0.6804  2.6889 -1.4237
   25MOL0     H 3259   8.609   9.637   2.461  1.0747 -2.3536 -0.5886
   25MOL0     H 3260   8.406   9.684   2.571  1.4066 -0.6505  0.0893
   25MOL0     H 3261   8.418   9.533   2.669  0.8987 -0.1972  0.3854
   25MOL0     H 3262   8.230   9.738   2.427 -1.6646  1.4044  1.0402
   25MOL0     H 3263   8.001   9.749   2.437  0.4590  0.5616  1.2771
   25MOL0     H 3264   7.536   9.522   2.583  2.8947 -3.3934  2.3048
   25MOL0     H 3265   7.315   9.495   2.511 -0.1047  0.3224  0.4572
   25MOL0     H 3266   7.234   9.250   2.159  2.0714  0.7842  2.3106
   25MOL0     H 3267   7.256   9.423   2.104 -1.7161  0.8479 -0.6459
   25MOL0     H 3268   7.035   9.303   2.039  0.9024  1.4658 -1.1012
   25MOL0     H 3269   7.034   9.466   2.099  0.6936 -1.1485 -3.2641
   25MOL0     H 3270   6.997   9.368   2.329  1.1947  1.9153 -0.7103
   25MOL0     H 3271   6.965   9.213   2.267  0.9436  0.0969 -1.1147
   25MOL0     H 3272   6.746   9.340   2.305  2.1881 -1.8613  0.4084
   25MOL0     H 3273   6.790   9.450   2.183 -0.7798  1.1348  3.2372
   25MOL0     H 3274   6.762   9.252   2.014 -1.5603 -0.0934 -0.3401
   25MOL0     H 3275   6.630   9.302   2.111  0.5812  2.6483  0.9253
   25MOL0     H 3276   6.750   9.107   2.272  2.6581  0.8583 -1.1732
   25MOL0     H 3277   6.817   9.054   2.113  1.0161  1.2185 -0.5061
   25MOL0     H 3278   6.548   9.036   2.249 -1.4024  1.9979 -1.3512
   25MOL0     H 3279   6.536   9.075   2.076 -1.4705 -1.1122 -0.2689
   25MOL0     H 3280   6.664   8.829   2.193 -2.7265 -5.2536 -2.0132
   25MOL0     H 3281   6.678   8.866   2.025 -2.3831  1.2191 -3.0456
   25MOL0     H 3282   7.447   9.286   2.160 -0.4152 -0.3187  0.9048
   25MOL0     H 3283   7.673   9.330   2.233  0.5543 -2.1985  1.5598
   25MOL0     H 3284   7.972   9.337   2.552  0.5864  0.6611  2.2821
   25MOL0     H 3285   8.208   9.307   2.504 -1.6887 -1.3056 -0.2316
   25MOL0     H 3286   7.546   9.851   1.891 -0.8321 -0.8033 -1.8189
   25MOL0     H 3287   7.299   9.827   1.896  1.8190 -1.6033 -1.6428
   25MOL0     H 3288   6.855   9.940   1.951 -0.5015 -0.2234  0.5929
   25MOL0     H 3289   6.615   9.924   2.017 -0.4152  0.1717  2.4240
   25MOL0     H 3290   6.342   9.771   2.304 -0.6814 -0.9776 -1.5038
   25MOL0     H 3291   6.496   9.746   2.390 -0.9592 -1.3483  0.2257
   25MOL0     H 3292   6.385   9.573   2.162  2.0436 -0.0122 -1.2721
   25MOL0     H 3293   6.525   9.534   2.266  1.3936  2.2291  0.2092
   25MOL0     H 3294   6.313   9.420   2.348  0.8013 -0.4380  2.0683
   25MOL0     H 3295   6.221   9.560   2.355  0.6286  1.2615  0.6854
   25MOL0     H 3296   6.372   9.650   2.542 -2.9921  0.6947  1.2419
   25MOL0     H 3297   6.289   9.495   2.573  0.1675  0.7586 -1.1025
   25MOL0     H 3298   6.713   9.450   2.620  0.5422 -1.7144 -1.6329
   25MOL0     H 3299   6.725   9.642   2.323 -3.4225  1.2947  0.1353
   25MOL0     H 3300   6.960   9.645   2.239 -0.4225 -0.6756  1.1147
   26MOL0     O 3301   9.247   7.835   0.629 -0.6983  0.2400  0.7140
   26MOL0     C 3302   9.162   7.764   0.681  0.0357  0.3458 -0.7891
   26MOL0     O 3303   9.191   7.655   0.763  0.2475 -0.6206 -0.1501
   26MOL0     C 3304   9.320   7.658   0.807 -0.0152 -0.6172 -0.0525
   26MOL0     C 3305   9.418   7.611   0.717 -0.0995 -0.1948 -0.0134
   26MOL0     C 3306   9.546   7.591   0.772 -0.4724  0.4897 -0.3378
   26MOL0     C 3307   9.584   7.629   0.901 -0.4943 -0.3718 -0.0294
   26MOL0     O 3308   9.695   7.602   0.971  0.8129  0.2670  0.3717
   26MOL0     C 3309   9.815   7.591   0.896 -0.9196 -0.4866 -0.4595
   26MOL0     C 3310   9.934   7.576   0.992 -0.2065  0.6395  0.2063
   26MOL0     C 3311  10.071   7.614   0.933  0.0796 -0.2563  0.5602
   26MOL0     C 3312  10.199   7.555   1.006  0.6675  0.5460 -0.1029
   26MOL0     C 3313  10.245   7.643   1.120  0.3652  0.7884  0.0525
   26MOL0     C 3314  10.335   7.564   1.227  0.1300 -0.8866 -0.2572
   26MOL0     C 3315  10.457   7.485   1.164  0.5570 -0.8248 -0.1791
   26MOL0     C 3316  10.536   7.571   1.071  0.6521  0.1978 -0.0872
   26MOL0     N 3317  10.657   7.502   1.040  0.6008 -0.7358 -0.0878
   26MOL0     C 3318  10.767   7.508   1.117 -0.7317 -0.6274 -0.1399
   26MOL0     C 3319  10.868   7.446   1.048 -0.2499 -0.6064  0.2953
   26MOL0     C 3320  11.009   7.426   1.098 -0.5380  0.5869  0.6524
   26MOL0     C 3321  11.092   7.544   1.102 -1.2420 -0.3071 -0.2973
   26MOL0     C 3322  11.223   7.528   1.182  0.4745 -0.0320  0.5907
   26MOL0     C 3323  11.343   7.453   1.119 -0.4376 -0.1104  0.3183
   26MOL0     O 3324  11.404   7.543   1.033 -0.2779  0.1380 -0.1251
   26MOL0     C 3325  11.519   7.501   0.961 -1.1111 -0.9561  0.5463
   26MOL0     C 3326  11.600   7.608   0.915  0.2950 -0.5843  0.2059
   26MOL0     C 3327  11.725   7.583   0.848  1.1050 -0.9839  0.7925
   26MOL0     C 3328  11.777   7.456   0.841 -0.1748  1.1830 -0.1833
   26MOL0     C 3329  11.913   7.423   0.789  0.3642 -0.8117  0.0367
   26MOL0     O 3330  12.003   7.525   0.778 -0.9320 -0.5720  0.6476
   26MOL0     C 3331  12.113   7.513   0.706 -0.6808  1.2783  1.0137
   26MOL0     C 3332  12.110   7.461   0.577 -0.9279 -0.1292  0.9334
   26MOL0     C 3333  12.234   7.467   0.501  1.1107 -1.1743  0.3222
   26MOL0     C 3334  12.339   7.541   0.546 -0.2193 -0.4371 -0.4676
   26MOL0     O 3335  12.458   7.541   0.474  0.2605  0.9222 -0.0998
   26MOL0     C 3336  12.457   7.529   0.334 -0.1067 -0.7588  0.0605
   26MOL0     C 3337  12.606   7.546   0.296  0.5391  0.5643 -0.4029
   26MOL0     C 3338  12.641   7.510   0.144 -0.0096 -0.4026  0.5824
   26MOL0     C 3339  12.786   7.560   0.130  0.0917  0.2832  0.5253
   26MOL0     C 3340  12.828   7.540  -0.017 -0.3967 -0.3515 -0.8874
   26MOL0     C 3341  12.976   7.567  -0.035 -0.3125 -0.1810  0.1894
   26MOL0     C 3342  13.010   7.555  -0.181 -0.2392 -0.5351 -0.7250
   26MOL0     C 3343  13.153   7.615  -0.213 -0.3167  0.0937 -0.0669
   26MOL0    Cl 3344  13.285   7.561  -0.091 -0.0337 -0.3564  0.1260
   26MOL0     C 3345  12.342   7.589   0.678  0.6326  0.4198  0.3149
   26MOL0     C 3346  12.235   7.570   0.756  0.5412  0.5679  0.2138
   26MOL0     O 3347  11.931   7.307   0.750  0.0977 -0.2115  0.3311
   26MOL0     C 3348  11.687   7.359   0.885 -0.0083  0.8628 -0.1853
   26MOL0     C 3349  11.564   7.369   0.945 -0.2393 -0.1506 -0.7169
   26MOL0     N 3350  10.811   7.387   0.939 -0.4721 -0.2626  0.4420
   26MOL0     N 3351  10.687   7.426   0.928  0.6908  0.4665  0.4322
   26MOL0     C 3352   9.481   7.667   0.979  1.0907 -0.9546  0.6087
   26MOL0     C 3353   9.345   7.696   0.928  0.1235  0.3736 -0.4737
   26MOL0     C 3354   9.019   7.783   0.659  0.0634 -0.0511 -0.3532
   26MOL0     C 3355   8.927   7.699   0.727 -0.2104 -0.3527 -0.0378
   26MOL0     C 3356   8.790   7.691   0.694  0.4030 -0.1449 -0.0586
   26MOL0     C 3357   8.739   7.764   0.581  0.3185  0.8005  0.1302
   26MOL0     O 3358   8.605   7.744   0.552 -0.3745 -0.5400  0.0697
   26MOL0     C 3359   8.549   7.810   0.439  0.6691  0.5218 -0.2031
   26MOL0     C 3360   8.403   7.762   0.416  0.6148 -0.1796 -0.4595
   26MOL0     C 3361   8.387   7.631   0.350  0.3988  1.0221  0.2715
   26MOL0     C 3362   8.427   7.514   0.445 -0.1540  0.5870 -0.0019
   26MOL0     C 3363   8.403   7.380   0.387  0.2678  0.0917 -0.4063
   26MOL0     C 3364   8.398   7.272   0.333 -0.1023  0.5363  0.9567
   26MOL0     C 3365   8.831   7.839   0.511 -0.1148  0.2951 -0.5123
   26MOL0     C 3366   8.967   7.845   0.545  0.1680  1.0919  0.7588
   26MOL0     H 3367   9.388   7.578   0.618 -0.4384 -3.3083  1.0187
   26MOL0     H 3368   9.621   7.542   0.710 -2.1552 -3.5945  0.5216
   26MOL0     H 3369   9.835   7.688   0.850  0.9989  0.6153  2.3950
   26MOL0     H 3370   9.829   7.510   0.824  1.1449 -0.4000 -0.1961
   26MOL0     H 3371   9.939   7.472   1.026 -0.8492  0.5814  0.1360
   26MOL0     H 3372   9.918   7.635   1.083  1.0528 -0.4662  1.1798
   26MOL0     H 3373  10.086   7.722   0.935  0.0717 -0.0612 -3.3203
   26MOL0     H 3374  10.075   7.593   0.826 -1.2616  1.5679  0.1069
   26MOL0     H 3375  10.173   7.456   1.045  3.0382  0.8854  2.6976
   26MOL0     H 3376  10.280   7.553   0.933 -1.3055  0.0154 -2.4162
   26MOL0     H 3377  10.158   7.681   1.175  0.8199 -0.4376  1.7054
   26MOL0     H 3378  10.302   7.732   1.090  1.2034  0.7503  1.4158
   26MOL0     H 3379  10.274   7.502   1.293 -1.6184  0.9024 -0.0986
   26MOL0     H 3380  10.383   7.642   1.287  0.3230 -1.6520  0.6037
   26MOL0     H 3381  10.525   7.457   1.245 -2.6708 -3.4157  1.9362
   26MOL0     H 3382  10.418   7.400   1.108  2.6492 -0.8122 -1.7564
   26MOL0     H 3383  10.549   7.670   1.116 -3.3212 -0.3149  2.7000
   26MOL0     H 3384  10.478   7.591   0.981  2.8590  0.8379 -1.4299
   26MOL0     H 3385  10.786   7.552   1.214  2.3061 -0.8480 -0.5409
   26MOL0     H 3386  11.065   7.365   1.027  0.5029  1.2081  0.9150
   26MOL0     H 3387  11.001   7.376   1.195  0.1849  0.4009  0.6204
   26MOL0     H 3388  11.032   7.631   1.128 -5.2011 -2.4324 -1.4032
   26MOL0     H 3389  11.117   7.571   0.999 -0.5575 -0.6449 -0.2258
   26MOL0     H 3390  11.272   7.623   1.203  1.4418 -0.8022  1.9559
   26MOL0     H 3391  11.192   7.484   1.278 -0.0566  1.6949  1.2445
   26MOL0     H 3392  11.312   7.361   1.069 -0.0339  1.1641 -2.4448
   26MOL0     H 3393  11.409   7.421   1.200 -1.1224  2.6581  2.1136
   26MOL0     H 3394  11.566   7.708   0.942  3.1952  0.7236 -0.5985
   26MOL0     H 3395  11.785   7.669   0.821 -4.6021  2.4975 -3.1095
   26MOL0     H 3396  12.022   7.408   0.543  0.4655 -1.9998  0.0976
   26MOL0     H 3397  12.232   7.411   0.408 -1.7946 -0.8524  0.0915
   26MOL0     H 3398  12.381   7.596   0.291 -1.5973 -2.0652  0.5497
   26MOL0     H 3399  12.422   7.429   0.305 -3.8161 -0.4354  2.6400
   26MOL0     H 3400  12.668   7.492   0.369 -0.0278  1.4600  0.7879
   26MOL0     H 3401  12.629   7.652   0.311  1.1179  0.4724 -0.6178
   26MOL0     H 3402  12.578   7.574   0.082  0.8200  0.4304  0.5765
   26MOL0     H 3403  12.627   7.404   0.120  0.7671  0.0917 -2.4647
   26MOL0     H 3404  12.787   7.668   0.147 -2.8669  0.5774 -0.5372
   26MOL0     H 3405  12.850   7.508   0.201  3.2471  1.1847 -1.4665
   26MOL0     H 3406  12.789   7.615  -0.086  4.2724  0.3867 -3.1744
   26MOL0     H 3407  12.812   7.440  -0.057  2.0227 -0.4124 -1.9125
   26MOL0     H 3408  13.033   7.496   0.025 -1.8714 -1.3233  0.3609
   26MOL0     H 3409  13.005   7.669  -0.007  0.0620 -0.3764  0.5182
   26MOL0     H 3410  12.999   7.452  -0.216 -2.4355 -1.2587  1.7219
   26MOL0     H 3411  12.943   7.623  -0.234 -1.1705 -1.0572 -0.2554
   26MOL0     H 3412  13.152   7.724  -0.222 -1.9553  0.0564 -0.8516
   26MOL0     H 3413  13.180   7.594  -0.317 -3.1098  3.1168 -1.5847
   26MOL0     H 3414  12.425   7.655   0.701  0.6142  0.1417  1.2124
   26MOL0     H 3415  12.231   7.618   0.853 -0.9138  0.5388  0.1905
   26MOL0     H 3416  11.721   7.256   0.877  0.3448  0.6365  2.8009
   26MOL0     H 3417  11.510   7.284   0.985  0.6435 -0.5979 -0.4254
   26MOL0     H 3418   9.496   7.669   1.086  0.8662 -1.6569  0.6603
   26MOL0     H 3419   9.283   7.727   1.011 -0.6799 -0.8047 -0.6197
   26MOL0     H 3420   8.962   7.643   0.813  1.6981  3.5109  1.9393
   26MOL0     H 3421   8.722   7.635   0.756 -1.4946  2.0963 -0.0283
   26MOL0     H 3422   8.610   7.793   0.350 -0.3032 -0.1581 -0.7697
   26MOL0     H 3423   8.558   7.915   0.470  1.6790  0.4320 -0.1832
   26MOL0     H 3424   8.339   7.771   0.505 -0.6808 -4.0684 -0.8089
   26MOL0     H 3425   8.355   7.840   0.356 -2.9653 -1.6446  0.2125
   26MOL0     H 3426   8.431   7.628   0.251  1.3055 -0.5431  0.6905
   26MOL0     H 3427   8.281   7.607   0.337  1.0678 -1.2437 -1.4635
   26MOL0     H 3428   8.529   7.524   0.484 -0.6636 -0.2577  1.6377
   26MOL0     H 3429   8.362   7.513   0.532 -0.4985 -0.9421 -0.2334
   26MOL0     H 3430   8.395   7.178   0.281 -3.2668  0.6265  0.7573
   26MOL0     H 3431   8.796   7.884   0.419  0.9945  2.8177  0.2314
   26MOL0     H 3432   9.024   7.893   0.466  1.5216 -4.1937 -1.9552
   27MOL0     O 3433   2.691   2.369   9.843  0.3751  0.5762 -0.1760
   27MOL0     C 3434   2.679   2.460   9.760  0.1723 -0.5081  0.1482
   27MOL0     O 3435   2.631   2.452   9.633 -0.3811 -1.0228 -0.1532
   27MOL0     C 3436   2.576   2.334   9.579 -0.5197  0.0383 -0.1792
   27MOL0     C 3437   2.442   2.309   9.598 -0.4302 -0.0318 -0.5251
   27MOL0     C 3438   2.377   2.199   9.542 -0.3092  0.2129  0.0095
   27MOL0     C 3439   2.450   2.091   9.476 -0.9510  0.0748 -0.6480
   27MOL0     O 3440   2.378   1.987   9.430 -0.3936  1.0155  0.0444
   27MOL0     C 3441   2.434   1.875   9.345 -0.7885 -0.3010  0.0632
   27MOL0     C 3442   2.418   1.913   9.199  0.8688  0.4585 -0.0290
   27MOL0     C 3443   2.268   1.941   9.158 -0.9850 -0.2711 -0.4113
   27MOL0     C 3444   2.257   1.962   9.003 -0.0078 -0.6003  0.3459
   27MOL0     C 3445   2.115   2.004   8.975  0.3532  0.1469 -0.5772
   27MOL0     C 3446   2.076   2.000   8.823 -0.0692 -0.1514  0.1569
   27MOL0     C 3447   2.050   1.858   8.783 -0.1226 -1.5069  0.5583
   27MOL0     C 3448   1.919   1.806   8.836 -0.1529 -0.9659 -0.4793
   27MOL0     N 3449   1.881   1.673   8.790  0.0409  0.4314 -0.1173
   27MOL0     C 3450   1.960   1.561   8.822 -0.3539  0.9432  0.5908
   27MOL0     C 3451   1.929   1.471   8.722  0.3173 -0.6265  0.5792
   27MOL0     C 3452   1.991   1.337   8.697  0.2487  0.0326  0.3544
   27MOL0     C 3453   1.979   1.265   8.558 -0.4120 -0.0516 -0.0848
   27MOL0     C 3454   1.843   1.197   8.535  0.4684  0.2710  0.4265
   27MOL0     C 3455   1.781   1.225   8.401 -0.1304  0.4747  0.4918
   27MOL0     O 3456   1.657   1.156   8.402 -0.6015 -0.0918  0.4028
   27MOL0     C 3457   1.543   1.186   8.320  0.3449  0.3270  0.2236
   27MOL0     C 3458   1.443   1.081   8.312 -1.1232 -0.2891  0.1492
   27MOL0     C 3459   1.336   1.108   8.224  0.1265 -0.7319 -0.0210
   27MOL0     C 3460   1.321   1.239   8.151  0.3367  0.1881 -0.3136
   27MOL0     C 3461   1.192   1.264   8.071  0.5156 -0.7014  0.2708
   27MOL0     O 3462   1.083   1.178   8.094  0.0181 -0.8922  0.0048
   27MOL0     C 3463   0.974   1.198   8.030 -0.7034 -0.6579  0.7774
   27MOL0     C 3464   0.951   1.130   7.915  0.4193 -0.5019  0.6011
   27MOL0     C 3465   0.825   1.136   7.858  0.4512  1.3169 -0.6183
   27MOL0     C 3466   0.712   1.198   7.921 -1.4426  0.7871 -0.0617
   27MOL0     O 3467   0.592   1.161   7.872  0.4709  0.4901  0.0664
   27MOL0     C 3468   0.475   1.236   7.919  0.3391  0.0969  0.2951
   27MOL0     C 3469   0.349   1.211   7.828  1.1893 -0.1872  0.2035
   27MOL0     C 3470   0.237   1.302   7.858 -0.2987  0.1405 -0.0602
   27MOL0     C 3471   0.134   1.299   7.752 -0.2621  0.2102  0.5472
   27MOL0     C 3472  -0.013   1.311   7.810 -0.1020  0.2179 -0.1996
   27MOL0     C 3473  -0.071   1.165   7.849  0.1838 -0.4713  0.5011
   27MOL0     C 3474  -0.213   1.181   7.905 -0.4447 -1.0876 -0.0271
   27MOL0     C 3475  -0.291   1.049   7.921  0.8086 -1.1360 -0.0666
   27MOL0    Cl 3476  -0.189   0.931   8.011  0.0765  0.1871 -0.1352
   27MOL0     C 3477   0.746   1.262   8.035  0.0459  0.0393  0.4069
   27MOL0     C 3478   0.872   1.267   8.091  0.3742  0.3184  0.2477
   27MOL0     O 3479   1.202   1.347   7.975 -0.5907 -0.9389 -0.3516
   27MOL0     C 3480   1.428   1.333   8.151  0.3155  0.1772 -0.0350
   27MOL0     C 3481   1.540   1.298   8.230 -0.3329 -0.2075  0.1839
   27MOL0     N 3482   1.848   1.534   8.630  0.3345  0.4910 -0.4093
   27MOL0     N 3483   1.813   1.647   8.677 -0.8502 -0.4761  0.3412
   27MOL0     C 3484   2.586   2.114   9.470 -0.7810 -0.4184  0.7526
   27MOL0     C 3485   2.650   2.242   9.509 -0.7775  0.3681  0.2903
   27MOL0     C 3486   2.726   2.595   9.805  0.8470  0.4929  0.2445
   27MOL0     C 3487   2.819   2.609   9.913  0.0552  0.8500 -0.0159
   27MOL0     C 3488   2.870   2.734   9.946  0.0731  0.1492  0.2797
   27MOL0     C 3489   2.827   2.847   9.885  0.1242 -0.4363  0.2696
   27MOL0     O 3490   2.868   2.976   9.904  0.4074 -0.6395  0.3729
   27MOL0     C 3491   2.996   2.992   9.972  0.3083  0.2520 -0.4961
   27MOL0     C 3492   3.072   3.110   9.931 -0.2405 -1.2215 -1.0017
   27MOL0     C 3493   3.191   3.110  10.022 -0.4654  0.8680 -0.6570
   27MOL0     C 3494   3.301   3.208   9.981 -1.1021 -0.4285 -0.1411
   27MOL0     C 3495   3.376   3.157   9.867  0.6018  0.2474 -0.7137
   27MOL0     C 3496   3.455   3.118   9.781 -0.0838 -0.7350 -0.9901
   27MOL0     C 3497   2.723   2.837   9.789 -0.7308  0.4996  0.5057
   27MOL0     C 3498   2.672   2.710   9.759 -0.0910 -1.2768 -0.5619
   27MOL0     H 3499   2.379   2.375   9.657 -0.7050 -0.9078  0.1815
   27MOL0     H 3500   2.270   2.184   9.547 -0.3294 -0.9303 -2.1611
   27MOL0     H 3501   2.379   1.787   9.380  0.4910 -0.2302  2.5037
   27MOL0     H 3502   2.534   1.855   9.383 -1.8808 -3.0460  1.8235
   27MOL0     H 3503   2.469   1.837   9.139  2.5967 -1.6198  3.7040
   27MOL0     H 3504   2.473   2.007   9.188  3.8120 -0.9636  1.4716
   27MOL0     H 3505   2.239   2.028   9.218 -2.1547 -3.4383  4.0869
   27MOL0     H 3506   2.194   1.865   9.182 -2.2024  0.5828 -1.2899
   27MOL0     H 3507   2.325   2.043   8.976 -2.8909  1.3435 -1.6451
   27MOL0     H 3508   2.290   1.875   8.945  2.4047  0.6834 -0.3542
   27MOL0     H 3509   2.098   2.101   9.023 -2.1717 -1.3116  1.8133
   27MOL0     H 3510   2.053   1.934   9.032  1.4895 -1.3294 -1.0874
   27MOL0     H 3511   2.159   2.038   8.762  0.7994  0.2917  1.5692
   27MOL0     H 3512   1.988   2.063   8.810  0.6597  0.7786 -0.3718
   27MOL0     H 3513   2.050   1.861   8.674 -0.6738 -3.3914  0.4592
   27MOL0     H 3514   2.141   1.801   8.803  0.6045 -0.8917 -0.8133
   27MOL0     H 3515   1.840   1.875   8.805  0.0267 -0.4013  0.2825
   27MOL0     H 3516   1.922   1.808   8.945 -2.2497  1.0650 -0.3733
   27MOL0     H 3517   2.024   1.546   8.908 -0.1771 -2.6328 -0.0146
   27MOL0     H 3518   1.945   1.269   8.768 -3.1779  1.3801 -0.3857
   27MOL0     H 3519   2.097   1.348   8.722  0.4437  2.2606 -1.0808
   27MOL0     H 3520   2.060   1.194   8.546  0.5947  1.1789 -0.8123
   27MOL0     H 3521   2.000   1.345   8.486  2.8535 -0.8983 -0.1919
   27MOL0     H 3522   1.846   1.088   8.543  0.9752  0.3517  1.5910
   27MOL0     H 3523   1.774   1.231   8.613 -1.5555 -2.1921 -0.1759
   27MOL0     H 3524   1.854   1.187   8.328 -1.6240 -1.4436 -0.1119
   27MOL0     H 3525   1.766   1.332   8.390  0.7298  0.6939  1.2958
   27MOL0     H 3526   1.464   0.991   8.369  3.6645  0.9262  0.7168
   27MOL0     H 3527   1.270   1.025   8.202  0.8072 -1.3641  0.2950
   27MOL0     H 3528   1.021   1.067   7.861  1.0622 -0.2867  1.1631
   27MOL0     H 3529   0.803   1.084   7.766  0.8037  1.0770 -0.5666
   27MOL0     H 3530   0.493   1.343   7.932 -1.3585  0.2506  1.8825
   27MOL0     H 3531   0.462   1.206   8.024 -0.1263 -0.9853 -0.0600
   27MOL0     H 3532   0.322   1.105   7.830  1.2946 -0.3028 -1.9427
   27MOL0     H 3533   0.390   1.228   7.728 -1.6666  1.5890 -0.7942
   27MOL0     H 3534   0.274   1.405   7.854  0.6189 -0.2245 -1.6512
   27MOL0     H 3535   0.193   1.286   7.957 -0.4600 -0.7883 -0.2711
   27MOL0     H 3536   0.141   1.386   7.685 -2.8792 -0.8869 -1.3387
   27MOL0     H 3537   0.150   1.202   7.703  1.6194  2.1379 -3.0855
   27MOL0     H 3538  -0.079   1.357   7.736  1.5605  0.9880 -1.2648
   27MOL0     H 3539  -0.010   1.371   7.901  0.4103 -0.7963  0.4616
   27MOL0     H 3540  -0.003   1.132   7.928  0.4503  0.5148  0.6930
   27MOL0     H 3541  -0.061   1.096   7.766  3.5846  0.1145  0.2728
   27MOL0     H 3542  -0.217   1.227   8.004 -0.6672  0.3278 -0.6791
   27MOL0     H 3543  -0.268   1.241   7.833  0.5216  0.1873  0.2433
   27MOL0     H 3544  -0.325   1.004   7.828 -4.1771 -1.2479  1.5080
   27MOL0     H 3545  -0.384   1.065   7.978  1.0108  1.0895 -0.2925
   27MOL0     H 3546   0.669   1.312   8.093 -1.1029 -2.9720  1.6827
   27MOL0     H 3547   0.891   1.314   8.187  2.0719  1.9926 -0.8318
   27MOL0     H 3548   1.420   1.424   8.092  2.3190 -0.1776 -0.9278
   27MOL0     H 3549   1.617   1.371   8.250  1.1301 -1.4521 -0.7350
   27MOL0     H 3550   2.652   2.041   9.424  1.3531  0.9555  1.4985
   27MOL0     H 3551   2.756   2.260   9.493 -0.8889  0.4030 -0.4214
   27MOL0     H 3552   2.858   2.528   9.973  4.1408  1.7356 -1.1379
   27MOL0     H 3553   2.939   2.743  10.030  1.4940 -0.1253 -0.8113
   27MOL0     H 3554   3.057   2.903   9.954 -1.0358 -1.1510  1.5505
   27MOL0     H 3555   2.968   3.000  10.077 -2.5731 -1.5032 -1.0267
   27MOL0     H 3556   3.107   3.109   9.828  2.6725  2.6825 -0.2932
   27MOL0     H 3557   3.011   3.196   9.958 -1.3896 -2.9436  2.6485
   27MOL0     H 3558   3.230   3.010  10.042  0.8011  2.0199  3.8891
   27MOL0     H 3559   3.168   3.164  10.114  0.6621  1.2753 -0.6067
   27MOL0     H 3560   3.253   3.303   9.957 -0.2123 -0.3252 -1.6454
   27MOL0     H 3561   3.374   3.220  10.062  0.8149 -2.3990 -1.4432
   27MOL0     H 3562   3.536   3.097   9.713  0.5675  1.1263 -0.8305
   27MOL0     H 3563   2.681   2.921   9.735 -0.9314  0.7155  1.0004
   27MOL0     H 3564   2.583   2.708   9.696  0.5450 -0.9777 -1.4978
   28MOL0     O 3565   2.911   3.160   8.081 -0.7023 -0.7605  0.2959
   28MOL0     C 3566   2.844   3.264   8.088  0.0398  0.3900  0.1652
   28MOL0     O 3567   2.883   3.381   8.137  0.0213 -0.0795 -0.0508
   28MOL0     C 3568   3.003   3.383   8.201 -1.8899 -1.3987  0.2351
   28MOL0     C 3569   3.009   3.356   8.334 -0.0153  0.4194 -0.1356
   28MOL0     C 3570   3.128   3.362   8.405  0.6768 -1.2871 -0.9656
   28MOL0     C 3571   3.239   3.408   8.340  0.2656 -0.4953  0.2248
   28MOL0     O 3572   3.355   3.412   8.415  0.5706 -0.4058 -0.4327
   28MOL0     C 3573   3.469   3.475   8.367  0.4042 -0.5056 -0.2540
   28MOL0     C 3574   3.587   3.476   8.461 -0.1289  0.0621 -0.4311
   28MOL0     C 3575   3.704   3.570   8.432 -0.5766  0.3754  0.5420
   28MOL0     C 3576   3.814   3.562   8.544 -0.5303 -0.0042 -0.3556
   28MOL0     C 3577   3.768   3.622   8.679 -0.2953  0.5863  0.5207
   28MOL0     C 3578   3.893   3.638   8.766  0.4585 -0.6736 -0.0101
   28MOL0     C 3579   3.848   3.697   8.899 -0.5066 -0.0540  0.7608
   28MOL0     C 3580   3.963   3.711   9.008 -1.5355  0.7075  0.5183
   28MOL0     N 3581   4.092   3.749   8.937 -1.1043  0.0854 -0.2483
   28MOL0     C 3582   4.130   3.874   8.895  0.3726  0.2492 -0.0680
   28MOL0     C 3583   4.252   3.867   8.834 -0.2502  0.3827  0.6617
   28MOL0     C 3584   4.339   3.970   8.772 -0.2558  0.1979 -0.0345
   28MOL0     C 3585   4.381   4.078   8.869  0.0662  0.1145  0.1772
   28MOL0     C 3586   4.270   4.193   8.882 -0.1445  0.3811  0.8199
   28MOL0     C 3587   4.312   4.295   8.991 -0.1502 -0.3993  0.4868
   28MOL0     O 3588   4.197   4.352   9.053  0.3525  0.5279  0.0027
   28MOL0     C 3589   4.099   4.405   8.972  0.2777 -0.1893  0.2653
   28MOL0     C 3590   3.971   4.392   9.026  0.2469  0.0946  0.1680
   28MOL0     C 3591   3.863   4.450   8.964  0.8089  0.3533 -1.6029
   28MOL0     C 3592   3.873   4.524   8.847 -0.3124 -0.1843 -0.9954
   28MOL0     C 3593   3.750   4.587   8.790  0.6207 -0.0652  0.2562
   28MOL0     O 3594   3.629   4.561   8.856  0.1078  0.3772  0.3013
   28MOL0     C 3595   3.522   4.628   8.811 -1.0203  0.5021 -0.1295
   28MOL0     C 3596   3.504   4.762   8.809  0.6675 -0.0784  1.3125
   28MOL0     C 3597   3.386   4.820   8.777 -0.3706 -0.7830  0.4747
   28MOL0     C 3598   3.271   4.743   8.758 -0.6183  0.0254 -0.1559
   28MOL0     O 3599   3.156   4.804   8.737  0.2776 -0.2180  0.6741
   28MOL0     C 3600   3.042   4.724   8.726  0.6972 -0.1328 -0.6616
   28MOL0     C 3601   2.926   4.831   8.727 -0.4360 -0.7705 -0.2035
   28MOL0     C 3602   2.800   4.763   8.690 -0.7155  0.8715 -0.4950
   28MOL0     C 3603   2.680   4.856   8.708 -0.0788 -0.8778  0.2561
   28MOL0     C 3604   2.549   4.788   8.697  0.4102  0.2528 -0.3461
   28MOL0     C 3605   2.433   4.891   8.696 -0.6441  1.2182  0.2222
   28MOL0     C 3606   2.307   4.811   8.703  0.4271  0.4578 -0.8329
   28MOL0     C 3607   2.192   4.898   8.739  0.6395  0.2175 -0.5574
   28MOL0    Cl 3608   2.209   5.052   8.676  0.0568  0.6864  0.2133
   28MOL0     C 3609   3.290   4.606   8.770 -0.2463 -0.3008  0.6175
   28MOL0     C 3610   3.412   4.550   8.793  0.3427  0.8364  0.3872
   28MOL0     O 3611   3.763   4.672   8.700 -0.2743 -0.3070  0.2976
   28MOL0     C 3612   4.001   4.546   8.792  0.7380  0.3236 -0.0217
   28MOL0     C 3613   4.109   4.487   8.857  0.2507 -0.5707  0.3553
   28MOL0     N 3614   4.291   3.736   8.846 -0.7250 -0.3556  0.0433
   28MOL0     N 3615   4.194   3.659   8.906 -0.6487 -0.5189  0.5595
   28MOL0     C 3616   3.232   3.429   8.200 -0.1477 -0.5434 -0.0575
   28MOL0     C 3617   3.112   3.423   8.129 -0.5633  1.2993 -0.2223
   28MOL0     C 3618   2.703   3.257   8.029  0.2947 -0.3918  0.0807
   28MOL0     C 3619   2.641   3.147   7.966  0.6754  0.1254 -1.1383
   28MOL0     C 3620   2.509   3.147   7.914 -0.3052  0.6013  0.1522
   28MOL0     C 3621   2.439   3.271   7.910 -0.4577  0.3362  0.0933
   28MOL0     O 3622   2.323   3.272   7.831 -0.2701  0.0743 -0.4708
   28MOL0     C 3623   2.282   3.401   7.791 -0.2588 -0.8996  1.1494
   28MOL0     C 3624   2.172   3.396   7.688  0.3652 -0.4363 -0.1175
   28MOL0     C 3625   2.079   3.279   7.713 -0.9809 -0.1614 -0.1645
   28MOL0     C 3626   1.941   3.293   7.633  0.4467  0.4944  0.4920
   28MOL0     C 3627   1.847   3.181   7.650  0.6828  0.5191 -0.3756
   28MOL0     C 3628   1.779   3.089   7.628 -0.2891 -0.0221  0.3851
   28MOL0     C 3629   2.496   3.380   7.974 -0.7869  0.3495  1.0672
   28MOL0     C 3630   2.620   3.372   8.038 -0.3718 -0.1128 -0.3980
   28MOL0     H 3631   2.910   3.333   8.371 -1.1202 -2.5842 -4.2502
   28MOL0     H 3632   3.145   3.355   8.512  3.1399 -2.7092 -1.3617
   28MOL0     H 3633   3.447   3.578   8.337  1.2638  0.2567  1.6038
   28MOL0     H 3634   3.506   3.424   8.277  1.3478  0.2165 -0.2904
   28MOL0     H 3635   3.629   3.376   8.467 -1.4465 -0.4582  0.2986
   28MOL0     H 3636   3.544   3.494   8.560  0.9603  0.7407 -0.0591
   28MOL0     H 3637   3.670   3.672   8.412 -1.3039  0.2204  0.9571
   28MOL0     H 3638   3.752   3.540   8.339  1.4297  0.3971  1.5147
   28MOL0     H 3639   3.838   3.457   8.562 -1.7517 -0.1420  0.5197
   28MOL0     H 3640   3.903   3.605   8.496  0.6644 -0.7440  1.1091
   28MOL0     H 3641   3.695   3.554   8.723  1.4610 -0.7077  1.5785
   28MOL0     H 3642   3.702   3.708   8.663 -2.2656 -0.9600 -0.0736
   28MOL0     H 3643   3.964   3.707   8.718 -0.0765 -0.5651 -0.6606
   28MOL0     H 3644   3.949   3.544   8.779  0.7772 -0.2074  2.4801
   28MOL0     H 3645   3.802   3.796   8.892 -1.3880 -0.4868  0.3527
   28MOL0     H 3646   3.763   3.641   8.939 -1.6382 -0.0460 -1.4834
   28MOL0     H 3647   3.984   3.612   9.051  2.3679  0.4236 -1.5474
   28MOL0     H 3648   3.939   3.782   9.087 -0.5598 -1.5311  2.9853
   28MOL0     H 3649   4.068   3.960   8.918 -1.2311 -1.3556  1.9557
   28MOL0     H 3650   4.271   4.014   8.698 -0.6123 -0.1088  0.1080
   28MOL0     H 3651   4.428   3.929   8.723  1.3893  0.5589  2.4986
   28MOL0     H 3652   4.474   4.128   8.839  0.8363  1.8099  4.5085
   28MOL0     H 3653   4.400   4.028   8.965 -3.6827  2.7521  2.6013
   28MOL0     H 3654   4.269   4.240   8.783  0.2754 -1.3372 -0.0501
   28MOL0     H 3655   4.174   4.149   8.910 -1.0808  2.0770  0.3887
   28MOL0     H 3656   4.375   4.375   8.951 -1.3519  1.5400  2.2869
   28MOL0     H 3657   4.372   4.248   9.069 -0.0268 -0.4954  0.3355
   28MOL0     H 3658   3.965   4.330   9.115 -2.9283 -1.6001 -1.0806
   28MOL0     H 3659   3.763   4.440   9.004  0.8601 -0.6957 -1.7288
   28MOL0     H 3660   3.590   4.824   8.830 -0.4211  2.1976 -0.4633
   28MOL0     H 3661   3.389   4.929   8.772  0.8790 -0.8071  0.4383
   28MOL0     H 3662   3.028   4.661   8.815  1.0047  1.1917  0.3588
   28MOL0     H 3663   3.035   4.660   8.638 -1.4873 -1.0688  0.1221
   28MOL0     H 3664   2.949   4.908   8.652  0.3369 -1.6799 -0.9352
   28MOL0     H 3665   2.921   4.877   8.826 -1.5784 -0.3590 -0.4386
   28MOL0     H 3666   2.798   4.679   8.760  4.2429  2.8039  2.4671
   28MOL0     H 3667   2.791   4.715   8.592 -0.5825 -0.5591  0.1665
   28MOL0     H 3668   2.672   4.910   8.803  0.1248  0.2196 -0.3310
   28MOL0     H 3669   2.696   4.943   8.643 -1.2810 -0.2218  0.8003
   28MOL0     H 3670   2.541   4.715   8.778 -4.2171  2.0601  1.1597
   28MOL0     H 3671   2.535   4.734   8.604  1.5433  0.1844 -0.4861
   28MOL0     H 3672   2.437   4.947   8.602  1.7419  1.8258  0.6167
   28MOL0     H 3673   2.447   4.955   8.783 -2.3933  0.8517  0.8099
   28MOL0     H 3674   2.290   4.768   8.603 -0.1621  0.0180 -0.5528
   28MOL0     H 3675   2.314   4.725   8.770  0.3052 -2.1945 -3.9552
   28MOL0     H 3676   2.188   4.905   8.848  0.9506 -0.2516 -0.5123
   28MOL0     H 3677   2.096   4.853   8.711  1.1079  0.6439 -3.1799
   28MOL0     H 3678   3.203   4.543   8.758 -1.4583  1.3728  0.1134
   28MOL0     H 3679   3.420   4.442   8.793 -0.9355  0.6535 -2.8773
   28MOL0     H 3680   4.006   4.614   8.707 -0.3374 -0.1969 -0.5162
   28MOL0     H 3681   4.207   4.485   8.809 -1.6888  1.0159 -4.1967
   28MOL0     H 3682   3.319   3.462   8.143 -1.7138  2.4702 -0.9488
   28MOL0     H 3683   3.109   3.440   8.022  0.1620 -0.3992 -0.5576
   28MOL0     H 3684   2.693   3.052   7.967  2.6336  1.1384 -0.8101
   28MOL0     H 3685   2.469   3.064   7.855  3.1632  0.4544 -2.3264
   28MOL0     H 3686   2.358   3.459   7.738 -0.2593  0.1309  2.2243
   28MOL0     H 3687   2.236   3.457   7.874 -1.4584 -2.3165  1.4751
   28MOL0     H 3688   2.126   3.495   7.697 -0.9527 -0.7888 -2.1890
   28MOL0     H 3689   2.212   3.377   7.588  2.2184  0.3526  0.4372
   28MOL0     H 3690   2.059   3.265   7.820  0.4165 -0.4660  0.0752
   28MOL0     H 3691   2.124   3.186   7.677  0.0329 -0.1347  0.9508
   28MOL0     H 3692   1.887   3.385   7.659 -2.4613 -1.0583  0.4045
   28MOL0     H 3693   1.972   3.303   7.529 -1.2122  2.2242  0.0983
   28MOL0     H 3694   1.717   3.004   7.605  1.5141 -1.0177 -1.0795
   28MOL0     H 3695   2.438   3.472   7.972 -3.1320 -0.9725 -2.6450
   28MOL0     H 3696   2.662   3.462   8.082  1.3999 -0.2681 -1.6913
   29MOL0     O 3697   7.814   5.837   6.889  0.0169 -0.7009 -0.2219
   29MOL0     C 3698   7.790   5.955   6.853 -0.1512  0.2425 -0.1458
   29MOL0     O 3699   7.671   5.998   6.789  0.3827  0.5929 -0.7631
   29MOL0     C 3700   7.576   5.913   6.756 -0.1444  0.0832  0.2422
   29MOL0     C 3701   7.593   5.775   6.729  0.8146  0.3551 -0.0303
   29MOL0     C 3702   7.479   5.693   6.693 -0.1659 -0.3434 -0.0297
   29MOL0     C 3703   7.349   5.744   6.686 -0.8367 -0.1592  0.0474
   29MOL0     O 3704   7.230   5.674   6.675 -1.2987 -0.0056 -1.1394
   29MOL0     C 3705   7.245   5.534   6.686 -0.2609  0.5686 -0.3261
   29MOL0     C 3706   7.098   5.500   6.717 -0.1141 -0.8862 -0.6497
   29MOL0     C 3707   7.032   5.483   6.577 -0.4270 -0.3567  0.3650
   29MOL0     C 3708   6.888   5.446   6.599  0.1595  0.7105 -0.1607
   29MOL0     C 3709   6.827   5.425   6.460 -0.8088  0.0504 -0.2173
   29MOL0     C 3710   6.670   5.444   6.462 -0.1922 -0.7773 -0.4612
   29MOL0     C 3711   6.620   5.449   6.319 -0.1094  0.0762  1.1811
   29MOL0     C 3712   6.461   5.457   6.309  0.6445  0.7950  0.0538
   29MOL0     N 3713   6.423   5.485   6.169  0.4311 -0.3769  0.5779
   29MOL0     C 3714   6.339   5.579   6.117 -0.1740 -0.2775  0.2593
   29MOL0     C 3715   6.316   5.553   5.983  0.5054  0.2010  0.0974
   29MOL0     C 3716   6.234   5.642   5.893 -0.0797  0.2284  0.3398
   29MOL0     C 3717   6.085   5.658   5.919 -1.0664 -0.5540 -0.9322
   29MOL0     C 3718   6.030   5.775   5.844 -0.4820  1.3920  0.7319
   29MOL0     C 3719   5.892   5.800   5.886  0.5088  0.0492 -0.2232
   29MOL0     O 3720   5.874   5.933   5.836 -0.0414 -0.0988 -0.7214
   29MOL0     C 3721   5.765   6.010   5.864 -0.0032  0.5201 -0.1378
   29MOL0     C 3722   5.640   5.953   5.885 -0.9039 -0.4356 -0.5799
   29MOL0     C 3723   5.526   6.032   5.908 -0.2195  0.0478 -0.8238
   29MOL0     C 3724   5.530   6.164   5.900  0.6647  0.6551  0.3684
   29MOL0     C 3725   5.399   6.242   5.884 -1.0571 -0.9153  0.5246
   29MOL0     O 3726   5.283   6.183   5.916 -0.0491  0.2954 -0.4144
   29MOL0     C 3727   5.169   6.249   5.920  0.4685 -1.0457  0.2839
   29MOL0     C 3728   5.116   6.294   6.042 -0.0136 -0.0463  0.7804
   29MOL0     C 3729   4.989   6.345   6.052  0.6560  0.5755  0.4570
   29MOL0     C 3730   4.917   6.369   5.928  1.5427  0.3663 -0.1034
   29MOL0     O 3731   4.778   6.415   5.920 -0.4193  0.4930  0.6691
   29MOL0     C 3732   4.709   6.488   6.020  0.7065  0.4600  0.4088
   29MOL0     C 3733   4.559   6.484   5.981 -0.1404  0.8237 -0.2734
   29MOL0     C 3734   4.469   6.539   6.099 -0.1223  1.4035  0.1924
   29MOL0     C 3735   4.349   6.447   6.124 -0.2373 -0.3865  0.7364
   29MOL0     C 3736   4.261   6.506   6.238 -0.1983 -0.0985 -0.0913
   29MOL0     C 3737   4.126   6.439   6.224 -0.0289  0.9569 -0.9565
   29MOL0     C 3738   4.023   6.521   6.313 -1.4476  0.0665  0.3316
   29MOL0     C 3739   3.984   6.659   6.241  0.3327 -0.1733 -0.7526
   29MOL0    Cl 3740   3.871   6.758   6.329  0.4714  0.3085  0.0952
   29MOL0     C 3741   4.981   6.356   5.811  0.0268 -0.0284 -0.4485
   29MOL0     C 3742   5.100   6.281   5.800 -0.2146 -0.7648 -0.0654
   29MOL0     O 3743   5.409   6.364   5.852 -0.1765 -0.3915 -0.1901
   29MOL0     C 3744   5.656   6.221   5.890 -0.4400 -0.2230  0.5137
   29MOL0     C 3745   5.777   6.153   5.855 -0.6069 -0.1086  0.6359
   29MOL0     N 3746   6.366   5.428   5.958 -0.1579  0.0882  0.4350
   29MOL0     N 3747   6.434   5.392   6.069  0.1840 -0.5545  0.1515
   29MOL0     C 3748   7.333   5.879   6.695 -0.6063 -0.3001  0.0612
   29MOL0     C 3749   7.448   5.961   6.729  1.0912  0.2502 -0.0505
   29MOL0     C 3750   7.896   6.064   6.854 -0.0955  0.0206  0.2302
   29MOL0     C 3751   7.884   6.187   6.782  1.2013 -0.0733 -0.0174
   29MOL0     C 3752   7.978   6.286   6.777  0.1197 -0.3081 -0.3044
   29MOL0     C 3753   8.089   6.270   6.854  0.8407  0.3799  0.1404
   29MOL0     O 3754   8.166   6.379   6.868  0.7732 -0.0280  0.5165
   29MOL0     C 3755   8.294   6.367   6.939 -0.7426  0.2161  0.5547
   29MOL0     C 3756   8.360   6.504   6.935  0.3918 -0.4462  0.6605
   29MOL0     C 3757   8.499   6.516   7.008  1.0394  0.0862  0.9338
   29MOL0     C 3758   8.580   6.386   6.996  0.8550 -0.9301  0.9175
   29MOL0     C 3759   8.654   6.382   6.862 -0.1528  1.2454 -0.1889
   29MOL0     C 3760   8.728   6.389   6.760  1.0756 -0.0021 -0.9072
   29MOL0     C 3761   8.113   6.153   6.923  0.5238 -0.5960  0.3735
   29MOL0     C 3762   8.016   6.049   6.925  0.7203 -0.0030  0.8872
   29MOL0     H 3763   7.691   5.729   6.721 -0.2650 -1.7127 -3.6258
   29MOL0     H 3764   7.485   5.586   6.676 -1.2688 -0.6653  1.4745
   29MOL0     H 3765   7.306   5.503   6.771  0.3510 -1.3090 -1.3646
   29MOL0     H 3766   7.286   5.488   6.595  1.2835 -1.0279  1.0944
   29MOL0     H 3767   7.037   5.574   6.769 -3.3008 -1.1290 -3.6608
   29MOL0     H 3768   7.092   5.422   6.794 -1.0039  1.6547  2.0163
   29MOL0     H 3769   7.088   5.410   6.517 -1.7643 -0.6112 -0.6128
   29MOL0     H 3770   7.034   5.583   6.533 -2.7539  0.9164  2.8709
   29MOL0     H 3771   6.880   5.353   6.655 -0.2415 -0.2266 -1.7082
   29MOL0     H 3772   6.831   5.525   6.648 -0.6483  0.4530 -0.6567
   29MOL0     H 3773   6.846   5.326   6.418 -1.7092  0.5842 -1.9528
   29MOL0     H 3774   6.867   5.489   6.381 -0.3091  1.6159  1.2427
   29MOL0     H 3775   6.635   5.533   6.516 -1.0001 -2.0801  1.2685
   29MOL0     H 3776   6.627   5.352   6.502 -0.4927 -1.2356 -1.7918
   29MOL0     H 3777   6.662   5.536   6.267 -0.0747 -0.8277 -0.3721
   29MOL0     H 3778   6.667   5.378   6.251 -0.1503  2.5581 -1.7036
   29MOL0     H 3779   6.433   5.541   6.374 -0.0486  2.2017 -1.9421
   29MOL0     H 3780   6.412   5.361   6.325  2.8987 -0.5545 -0.7590
   29MOL0     H 3781   6.316   5.672   6.168  0.9560 -0.0677  0.4078
   29MOL0     H 3782   6.250   5.608   5.790 -0.9458 -2.2153  0.9453
   29MOL0     H 3783   6.285   5.736   5.915 -0.1844  0.5546 -0.7386
   29MOL0     H 3784   6.072   5.686   6.024  1.5841 -1.6215 -0.2319
   29MOL0     H 3785   6.036   5.561   5.908  2.1221 -2.2854 -1.0524
   29MOL0     H 3786   6.086   5.867   5.865  2.7020 -0.2089 -0.2214
   29MOL0     H 3787   6.042   5.759   5.737 -1.4220  1.8419  0.5516
   29MOL0     H 3788   5.891   5.799   5.995  0.7562  0.6373 -0.2135
   29MOL0     H 3789   5.818   5.726   5.854 -1.2563  0.6184  2.2571
   29MOL0     H 3790   5.610   5.849   5.876 -1.9290 -0.0748 -1.6074
   29MOL0     H 3791   5.437   5.969   5.908 -0.1906 -0.0568  0.9677
   29MOL0     H 3792   5.172   6.293   6.135  0.8034  1.2240  0.3276
   29MOL0     H 3793   4.938   6.368   6.145 -0.4770 -2.9354  0.8419
   29MOL0     H 3794   4.754   6.585   6.042 -1.7790  1.0987  3.4785
   29MOL0     H 3795   4.718   6.433   6.114  1.6853 -1.0724 -0.5385
   29MOL0     H 3796   4.528   6.384   5.950  0.4644  0.6418 -0.2909
   29MOL0     H 3797   4.547   6.536   5.886  0.5027  1.0547 -0.2309
   29MOL0     H 3798   4.430   6.640   6.079 -2.7975  0.6353  1.0424
   29MOL0     H 3799   4.526   6.541   6.192 -1.8841 -2.3188  1.5478
   29MOL0     H 3800   4.292   6.443   6.031  1.0199  0.8663 -0.1346
   29MOL0     H 3801   4.383   6.347   6.151 -3.5808 -1.7908  0.2195
   29MOL0     H 3802   4.254   6.615   6.231 -0.7200  0.0051  1.5772
   29MOL0     H 3803   4.311   6.469   6.328 -1.6451 -1.6967  0.1082
   29MOL0     H 3804   4.132   6.341   6.272  2.1997  0.0171 -2.9111
   29MOL0     H 3805   4.090   6.433   6.121 -2.5025 -0.4104 -0.0918
   29MOL0     H 3806   3.932   6.463   6.330 -1.2580 -0.6470 -1.0018
   29MOL0     H 3807   4.061   6.529   6.416 -1.0570 -2.0094  0.3846
   29MOL0     H 3808   3.932   6.636   6.147 -0.6270 -0.6173 -0.1255
   29MOL0     H 3809   4.066   6.731   6.234 -0.9157  1.8480  2.7772
   29MOL0     H 3810   4.918   6.380   5.726 -1.8029 -2.0807  0.2464
   29MOL0     H 3811   5.153   6.270   5.707 -3.5918 -0.8062 -2.1556
   29MOL0     H 3812   5.665   6.328   5.903 -3.3748  0.4436 -1.9028
   29MOL0     H 3813   5.868   6.209   5.836  0.0759 -1.1757  0.6774
   29MOL0     H 3814   7.233   5.920   6.690  0.3665  2.0447 -3.9881
   29MOL0     H 3815   7.436   6.067   6.748  1.1174  0.4848 -1.2649
   29MOL0     H 3816   7.791   6.200   6.727  1.3683  0.8433 -0.1064
   29MOL0     H 3817   7.951   6.384   6.738  0.2889 -0.1043  0.0871
   29MOL0     H 3818   8.354   6.297   6.880 -0.2897  0.6336  0.5049
   29MOL0     H 3819   8.288   6.338   7.044  0.8404  2.6774  1.4064
   29MOL0     H 3820   8.380   6.531   6.831 -2.5373 -2.0639 -0.4257
   29MOL0     H 3821   8.282   6.575   6.965  0.8935  1.2558 -1.7545
   29MOL0     H 3822   8.488   6.532   7.115 -1.3755 -4.3787  1.5873
   29MOL0     H 3823   8.554   6.596   6.959 -0.9814  0.4442 -0.9472
   29MOL0     H 3824   8.644   6.398   7.085  0.9026 -0.2814  0.8044
   29MOL0     H 3825   8.525   6.292   7.003 -1.2254  0.2208  0.9424
   29MOL0     H 3826   8.806   6.398   6.688  2.5233  2.3726  0.8181
   29MOL0     H 3827   8.202   6.136   6.983 -0.5873 -1.4403  1.8669
   29MOL0     H 3828   8.045   5.957   6.975 -1.0660 -1.0165  0.1761
   30MOL0     O 3829   3.682   2.078   3.278 -0.4189 -0.4607 -0.5721
   30MOL0     C 3830   3.692   1.998   3.190 -0.7927 -0.4787 -0.0128
   30MOL0     O 3831   3.805   1.969   3.124 -0.4092  0.2623  0.4498
   30MOL0     C 3832   3.921   2.021   3.172 -0.8258 -0.8826  0.6174
   30MOL0     C 3833   3.992   1.952   3.264 -0.4611 -0.4489  0.3122
   30MOL0     C 3834   4.115   1.999   3.312 -0.1865 -0.0382  0.3843
   30MOL0     C 3835   4.173   2.121   3.275 -0.0666  0.2697 -0.0095
   30MOL0     O 3836   4.298   2.157   3.321  0.9654 -0.5820  0.5296
   30MOL0     C 3837   4.397   2.081   3.250 -0.5837 -0.2920  0.0783
   30MOL0     C 3838   4.540   2.146   3.272 -0.2762 -0.3419 -0.3639
   30MOL0     C 3839   4.590   2.124   3.421 -1.1480 -0.1461  0.5840
   30MOL0     C 3840   4.719   2.204   3.447 -0.2325 -0.0924  0.0715
   30MOL0     C 3841   4.775   2.176   3.591  0.4452  0.4260 -0.5723
   30MOL0     C 3842   4.927   2.211   3.589  0.9311  0.2143 -0.2344
   30MOL0     C 3843   4.994   2.168   3.719  0.4805 -0.3043 -0.6289
   30MOL0     C 3844   5.141   2.200   3.711  0.0308 -0.0084 -0.3912
   30MOL0     N 3845   5.230   2.172   3.830  0.2683 -0.6877  0.1608
   30MOL0     C 3846   5.357   2.116   3.817 -0.1734 -0.7725  0.3827
   30MOL0     C 3847   5.411   2.129   3.938 -0.4890 -0.1301  0.1907
   30MOL0     C 3848   5.555   2.084   3.963 -0.2415 -0.1187  0.6434
   30MOL0     C 3849   5.649   2.204   3.977  1.3312  0.2721 -0.0092
   30MOL0     C 3850   5.785   2.152   3.926 -0.9755  0.0872 -0.0061
   30MOL0     C 3851   5.870   2.269   3.919 -0.5943 -0.8918  0.1811
   30MOL0     O 3852   6.002   2.232   3.884 -0.9262 -1.0923  0.2220
   30MOL0     C 3853   6.096   2.216   3.987  0.6292 -0.0256  0.2200
   30MOL0     C 3854   6.071   2.218   4.126  0.4476 -0.6251 -0.4736
   30MOL0     C 3855   6.163   2.179   4.212 -0.9067 -0.1429 -1.0807
   30MOL0     C 3856   6.298   2.157   4.175  0.0726  0.0266 -0.0128
   30MOL0     C 3857   6.402   2.123   4.270 -0.0878  1.0667 -0.3328
   30MOL0     O 3858   6.358   2.047   4.371 -0.3655 -0.4949  0.0854
   30MOL0     C 3859   6.441   1.974   4.451  0.1720  0.1822 -0.5983
   30MOL0     C 3860   6.380   1.856   4.487 -0.0300 -0.2773  0.5133
   30MOL0     C 3861   6.431   1.771   4.588  0.1111 -0.1816  0.2573
   30MOL0     C 3862   6.556   1.813   4.645  0.0185  0.2610  0.0285
   30MOL0     O 3863   6.596   1.739   4.748 -0.9507  0.5652 -0.3762
   30MOL0     C 3864   6.665   1.809   4.859  0.7719  0.4629  0.0730
   30MOL0     C 3865   6.730   1.724   4.969 -0.6691  0.0624  0.4658
   30MOL0     C 3866   6.833   1.805   5.044 -0.0390  0.6689  0.3589
   30MOL0     C 3867   6.935   1.715   5.115  0.8602 -1.0731  0.5006
   30MOL0     C 3868   7.015   1.797   5.224 -0.7942  0.1660  0.1730
   30MOL0     C 3869   7.091   1.912   5.166  0.2409 -0.3852  0.5401
   30MOL0     C 3870   7.170   1.986   5.270 -0.5834  0.1942  0.2367
   30MOL0     C 3871   7.255   2.097   5.198  0.5521 -0.9819 -0.0749
   30MOL0    Cl 3872   7.337   2.196   5.319  0.2931  0.0764 -0.1801
   30MOL0     C 3873   6.619   1.934   4.608  0.4890  0.8267 -0.0056
   30MOL0     C 3874   6.551   2.015   4.514  0.1666  0.3977  0.5249
   30MOL0     O 3875   6.520   2.144   4.238 -1.1045 -0.7137 -0.3810
   30MOL0     C 3876   6.332   2.159   4.037  0.2574 -0.3234 -0.0412
   30MOL0     C 3877   6.226   2.190   3.946  0.6415  0.0323 -0.2345
   30MOL0     N 3878   5.326   2.197   4.020  0.5825 -0.1195  0.4731
   30MOL0     N 3879   5.220   2.215   3.956  0.5909 -0.5108  0.2053
   30MOL0     C 3880   4.104   2.193   3.170 -0.3175  0.2807  0.5611
   30MOL0     C 3881   3.984   2.139   3.115 -0.3114  1.0520  0.1443
   30MOL0     C 3882   3.566   1.943   3.138  0.0358  0.9925  0.6681
   30MOL0     C 3883   3.563   1.843   3.040  0.6485 -0.1266  0.5440
   30MOL0     C 3884   3.451   1.808   2.974  0.4253 -0.2057  0.1173
   30MOL0     C 3885   3.331   1.870   3.005 -0.4365  0.2117  0.5480
   30MOL0     O 3886   3.208   1.847   2.956 -0.3099  0.6349  0.4223
   30MOL0     C 3887   3.206   1.763   2.835  0.6405  0.4963  0.4442
   30MOL0     C 3888   3.064   1.748   2.774 -0.0566  0.4377  0.4717
   30MOL0     C 3889   3.016   1.882   2.716  0.0096  0.1533 -0.0102
   30MOL0     C 3890   2.880   1.868   2.644 -1.0191 -0.5376 -0.5731
   30MOL0     C 3891   2.891   1.792   2.518 -0.7241  0.3606 -0.8909
   30MOL0     C 3892   2.890   1.732   2.410  0.6980  0.0316  0.6352
   30MOL0     C 3893   3.327   1.961   3.106  0.5225 -0.1779  0.2588
   30MOL0     C 3894   3.442   1.999   3.169 -0.5842 -0.8877 -0.0188
   30MOL0     H 3895   3.959   1.861   3.313  0.9681 -1.4919 -0.5618
   30MOL0     H 3896   4.171   1.944   3.388 -0.1217 -0.0799  0.3064
   30MOL0     H 3897   4.383   2.071   3.142  3.5400 -0.1527 -0.6249
   30MOL0     H 3898   4.402   1.977   3.284 -1.3587  0.2337  1.9627
   30MOL0     H 3899   4.524   2.253   3.257 -0.7771 -0.5144 -1.1442
   30MOL0     H 3900   4.608   2.099   3.200 -1.3162 -0.3651 -1.3734
   30MOL0     H 3901   4.618   2.019   3.432 -0.3079  0.2117  2.1806
   30MOL0     H 3902   4.509   2.143   3.493 -1.8049  0.8606 -0.3770
   30MOL0     H 3903   4.786   2.185   3.363  1.1451  1.1820  0.8334
   30MOL0     H 3904   4.681   2.307   3.447 -1.2767 -0.4661 -0.1196
   30MOL0     H 3905   4.753   2.070   3.610 -1.3808  0.7296 -0.8053
   30MOL0     H 3906   4.723   2.234   3.668  1.5810  2.1685 -1.0636
   30MOL0     H 3907   4.937   2.320   3.581  2.5809  0.3153  2.1001
   30MOL0     H 3908   4.973   2.166   3.501 -0.5810 -3.7942  0.8004
   30MOL0     H 3909   4.947   2.224   3.801  2.1777  1.5203 -0.8055
   30MOL0     H 3910   4.983   2.062   3.739  1.7402 -0.2573  0.4446
   30MOL0     H 3911   5.153   2.306   3.686 -1.2100  0.1594 -0.3441
   30MOL0     H 3912   5.180   2.156   3.619  0.5505  0.0994 -0.2280
   30MOL0     H 3913   5.402   2.075   3.727  1.6219  1.6537  0.0534
   30MOL0     H 3914   5.591   2.012   3.889 -0.9699 -1.4405  1.5308
   30MOL0     H 3915   5.550   2.030   4.058 -1.5683 -0.8203  0.2013
   30MOL0     H 3916   5.663   2.238   4.080  2.9708 -2.1495  0.6473
   30MOL0     H 3917   5.605   2.285   3.918  1.9426  0.7570  0.1863
   30MOL0     H 3918   5.826   2.078   3.996  2.2547 -0.0528 -1.8463
   30MOL0     H 3919   5.770   2.103   3.829 -0.9367 -0.8964  0.4716
   30MOL0     H 3920   5.853   2.323   4.013  0.9546  1.2950 -0.7161
   30MOL0     H 3921   5.843   2.348   3.848 -0.3936  0.0567  1.1337
   30MOL0     H 3922   5.979   2.246   4.176  2.9850  1.6171  3.5007
   30MOL0     H 3923   6.135   2.175   4.317  2.7930  1.7265  0.1537
   30MOL0     H 3924   6.292   1.840   4.425  1.0529  0.9534 -1.4275
   30MOL0     H 3925   6.378   1.681   4.620 -1.8007  1.3290  1.6156
   30MOL0     H 3926   6.599   1.885   4.902  1.3947  2.1408 -1.7419
   30MOL0     H 3927   6.753   1.860   4.817  1.9836 -3.0535 -2.1435
   30MOL0     H 3928   6.779   1.646   4.910 -2.6935  0.6256 -2.1982
   30MOL0     H 3929   6.655   1.681   5.036 -1.8076 -0.1714 -0.9002
   30MOL0     H 3930   6.787   1.857   5.128  0.4163 -2.0476  2.4244
   30MOL0     H 3931   6.892   1.869   4.977 -1.8853  1.6966 -0.3754
   30MOL0     H 3932   6.875   1.636   5.161  0.4695 -2.0936 -1.6276
   30MOL0     H 3933   7.001   1.670   5.040  0.7388 -0.5140  0.0527
   30MOL0     H 3934   7.073   1.720   5.275 -0.9152 -2.5675 -3.3687
   30MOL0     H 3935   6.958   1.843   5.305  1.3198  0.1318  1.7477
   30MOL0     H 3936   7.011   1.978   5.130  1.4567  1.6858  1.4889
   30MOL0     H 3937   7.148   1.882   5.077 -0.8671 -1.7090  0.2334
   30MOL0     H 3938   7.099   2.034   5.338 -0.0179  1.7865 -0.2300
   30MOL0     H 3939   7.231   1.913   5.324 -0.6235 -1.8998 -2.3765
   30MOL0     H 3940   7.194   2.159   5.132 -0.1729 -1.3709  0.2137
   30MOL0     H 3941   7.335   2.057   5.134  0.7622 -0.7902  0.0644
   30MOL0     H 3942   6.711   1.970   4.654  1.3926 -0.2473 -0.9085
   30MOL0     H 3943   6.580   2.120   4.504  0.2107  0.5664  2.1499
   30MOL0     H 3944   6.436   2.160   4.004  0.0780 -2.3607 -0.8354
   30MOL0     H 3945   6.259   2.200   3.843  1.8439 -0.9290  0.0377
   30MOL0     H 3946   4.153   2.285   3.138  0.2554  0.7879  2.7568
   30MOL0     H 3947   3.923   2.185   3.038  0.9635 -0.6024 -1.9904
   30MOL0     H 3948   3.656   1.793   3.018 -0.1508 -0.8876 -1.2893
   30MOL0     H 3949   3.449   1.726   2.903  0.3003  0.4105 -0.6037
   30MOL0     H 3950   3.247   1.662   2.841 -1.3555 -0.3014  1.6735
   30MOL0     H 3951   3.255   1.806   2.747  1.3049 -0.0376  0.5396
   30MOL0     H 3952   3.079   1.683   2.687 -0.2098  2.0306 -0.7865
   30MOL0     H 3953   2.984   1.711   2.839  0.0316  2.0580  1.5571
   30MOL0     H 3954   3.091   1.919   2.646  1.4685 -3.3961 -0.5221
   30MOL0     H 3955   2.998   1.956   2.795  1.3691 -0.3324  0.7887
   30MOL0     H 3956   2.798   1.823   2.700 -1.0286 -3.4243 -2.6682
   30MOL0     H 3957   2.857   1.972   2.618 -0.7561 -1.0081 -2.8978
   30MOL0     H 3958   2.873   1.674   2.322 -5.6837  3.4913 -1.0061
   30MOL0     H 3959   3.243   2.021   3.140 -0.6720 -0.9189 -1.2595
   30MOL0     H 3960   3.444   2.070   3.251 -0.9263  0.5764 -1.2314
   31MOL0     O 3961   5.673   6.148   6.263  0.1442 -0.6721 -0.3275
   31MOL0     C 3962   5.724   6.040   6.267  0.5520  1.5515  0.0790
   31MOL0     O 3963   5.641   5.921   6.277  0.1152  0.1252 -0.1353
   31MOL0     C 3964   5.502   5.931   6.264 -0.6718 -0.2888 -0.3000
   31MOL0     C 3965   5.431   5.811   6.235  0.1238 -0.2424 -0.3416
   31MOL0     C 3966   5.296   5.808   6.229  0.7571  0.4626  0.7985
   31MOL0     C 3967   5.217   5.911   6.256  0.8507  0.3010  0.3636
   31MOL0     O 3968   5.077   5.884   6.258 -0.7807 -0.3137 -0.4001
   31MOL0     C 3969   5.008   5.963   6.160 -0.0049  0.5302 -1.1993
   31MOL0     C 3970   4.861   5.928   6.185  0.2211  0.0983  0.2864
   31MOL0     C 3971   4.770   6.031   6.108  0.6221 -0.1179  0.6912
   31MOL0     C 3972   4.627   5.993   6.114  0.1548 -0.1263  0.0011
   31MOL0     C 3973   4.545   6.119   6.084  1.2577  1.0194 -0.7967
   31MOL0     C 3974   4.403   6.091   6.025  0.3555  0.4578  0.2996
   31MOL0     C 3975   4.306   6.047   6.139 -1.7001  0.3566  0.1393
   31MOL0     C 3976   4.242   5.900   6.124  0.8268 -0.4953 -0.2193
   31MOL0     N 3977   4.098   5.899   6.074  0.1180 -0.5286  0.6288
   31MOL0     C 3978   3.981   5.889   6.143 -0.0518 -0.5151  0.0051
   31MOL0     C 3979   3.884   5.900   6.059  0.3012 -0.2043  0.4522
   31MOL0     C 3980   3.740   5.889   6.090  0.1977  0.0353  1.0868
   31MOL0     C 3981   3.694   5.978   6.210 -0.2400  0.4895  0.1138
   31MOL0     C 3982   3.734   6.133   6.202 -0.6670  0.9699 -0.1866
   31MOL0     C 3983   3.710   6.196   6.058 -0.5546 -0.0833  0.7734
   31MOL0     O 3984   3.575   6.218   6.032 -0.2216  0.3431  0.0695
   31MOL0     C 3985   3.509   6.315   6.104  0.2090  0.1267  1.4799
   31MOL0     C 3986   3.372   6.305   6.107 -0.1070 -0.9858 -0.5518
   31MOL0     C 3987   3.288   6.398   6.173  0.3124 -0.3389  0.5862
   31MOL0     C 3988   3.342   6.511   6.236 -0.5759 -0.1657  0.7290
   31MOL0     C 3989   3.261   6.608   6.304  0.7349 -0.7790  0.0039
   31MOL0     O 3990   3.327   6.704   6.372  1.1467  0.3012  0.1989
   31MOL0     C 3991   3.272   6.786   6.470 -0.3418 -0.1875  0.6716
   31MOL0     C 3992   3.143   6.829   6.468  0.0462 -0.2793 -0.6218
   31MOL0     C 3993   3.099   6.932   6.561  0.2418  0.0322 -0.2812
   31MOL0     C 3994   3.181   6.982   6.656  0.1353 -0.3277 -1.2747
   31MOL0     O 3995   3.123   7.076   6.737 -0.2051 -0.1137  0.3889
   31MOL0     C 3996   3.214   7.173   6.798  1.0080 -0.0631 -0.9978
   31MOL0     C 3997   3.138   7.301   6.850 -0.5211  0.9440  0.8014
   31MOL0     C 3998   3.035   7.263   6.958  0.6630  0.5524  0.3084
   31MOL0     C 3999   3.099   7.222   7.092 -0.2474 -0.7301  1.1742
   31MOL0     C 4000   2.992   7.178   7.190 -0.4385 -0.2581 -0.1948
   31MOL0     C 4001   2.888   7.292   7.219  0.1853 -0.2715 -0.5544
   31MOL0     C 4002   2.848   7.291   7.365  0.3671 -0.3663 -0.4653
   31MOL0     C 4003   2.959   7.345   7.461 -0.1127  0.5118  0.1146
   31MOL0    Cl 4004   3.014   7.512   7.421  0.2153 -0.0583  0.1452
   31MOL0     C 4005   3.318   6.934   6.649  0.4343 -0.3095 -0.2912
   31MOL0     C 4006   3.360   6.837   6.563  0.4688 -0.4816  0.5622
   31MOL0     O 4007   3.136   6.594   6.290 -0.4390 -0.3360 -0.3450
   31MOL0     C 4008   3.481   6.529   6.229 -0.3262  0.2271  0.1700
   31MOL0     C 4009   3.561   6.424   6.171  0.6264 -0.3501  0.7782
   31MOL0     N 4010   3.941   5.928   5.941  0.4476 -0.2580  0.0646
   31MOL0     N 4011   4.073   5.917   5.940 -0.1741  1.2071  1.1924
   31MOL0     C 4012   5.276   6.029   6.289 -0.6810  0.5288 -0.2625
   31MOL0     C 4013   5.418   6.044   6.293  0.4876  0.3123  0.0560
   31MOL0     C 4014   5.869   6.025   6.237 -1.2863 -0.3305  0.6705
   31MOL0     C 4015   5.938   6.123   6.154  0.5982 -0.5565 -0.3675
   31MOL0     C 4016   6.069   6.108   6.126 -0.2863 -0.2933 -0.3214
   31MOL0     C 4017   6.142   5.992   6.170 -0.0356 -0.1771 -0.9400
   31MOL0     O 4018   6.279   5.979   6.156 -0.3766 -0.3717 -0.1003
   31MOL0     C 4019   6.360   5.953   6.271  0.2087  0.1333 -0.5726
   31MOL0     C 4020   6.497   6.002   6.224  1.0913  0.0223 -0.1341
   31MOL0     C 4021   6.608   5.990   6.326 -0.2136 -0.0332 -0.1508
   31MOL0     C 4022   6.675   5.857   6.321 -0.0216 -0.5517  0.7189
   31MOL0     C 4023   6.818   5.854   6.362  0.8827  0.6754 -0.3856
   31MOL0     C 4024   6.933   5.839   6.395 -0.2964 -0.0163  0.5754
   31MOL0     C 4025   6.070   5.896   6.246 -0.7643 -0.2646 -0.8148
   31MOL0     C 4026   5.939   5.908   6.276 -0.2656 -0.3739 -0.6157
   31MOL0     H 4027   5.484   5.717   6.224  2.1744  0.7150  0.7085
   31MOL0     H 4028   5.256   5.709   6.214 -1.3503  1.1665  1.4843
   31MOL0     H 4029   5.043   5.932   6.062 -0.9322 -3.9993 -0.2925
   31MOL0     H 4030   5.022   6.070   6.179 -0.7838  0.5163 -0.4926
   31MOL0     H 4031   4.847   5.945   6.292  3.2430 -2.1656  1.1684
   31MOL0     H 4032   4.846   5.824   6.156  0.2018  0.1802 -0.0011
   31MOL0     H 4033   4.785   6.031   6.000 -0.9673 -4.4346  0.2557
   31MOL0     H 4034   4.796   6.132   6.141  1.8254  0.7932 -2.7021
   31MOL0     H 4035   4.609   5.906   6.050 -0.4094 -0.6018  0.7891
   31MOL0     H 4036   4.599   5.957   6.213  0.4023 -0.0419  0.1031
   31MOL0     H 4037   4.591   6.175   6.002 -0.3590  1.6289 -1.3432
   31MOL0     H 4038   4.545   6.174   6.178  0.0711  0.5117 -0.4791
   31MOL0     H 4039   4.411   6.010   5.952  0.3863  0.0425  0.7638
   31MOL0     H 4040   4.360   6.176   5.971 -3.7235 -2.4495 -1.5311
   31MOL0     H 4041   4.367   6.053   6.230 -0.5633  0.0851 -0.5838
   31MOL0     H 4042   4.226   6.122   6.142 -3.0389 -0.9899 -0.3508
   31MOL0     H 4043   4.241   5.839   6.214 -0.4846 -2.4886 -1.5007
   31MOL0     H 4044   4.301   5.844   6.051 -0.9595  0.6709 -2.7467
   31MOL0     H 4045   3.974   5.857   6.247  2.7911  0.0622  0.4391
   31MOL0     H 4046   3.714   5.784   6.106 -2.9582  0.2232 -1.6635
   31MOL0     H 4047   3.683   5.921   6.002 -0.7676 -1.4411  1.1349
   31MOL0     H 4048   3.754   5.940   6.293 -0.0688 -0.1337 -0.2864
   31MOL0     H 4049   3.587   5.962   6.222 -0.3187  1.2142  0.4505
   31MOL0     H 4050   3.683   6.186   6.284 -2.5226 -1.2364  0.2048
   31MOL0     H 4051   3.841   6.138   6.221 -1.0240  1.9308  1.9449
   31MOL0     H 4052   3.740   6.129   5.977 -0.6985  0.6010  0.1445
   31MOL0     H 4053   3.766   6.290   6.053 -0.7261  0.6279  6.0493
   31MOL0     H 4054   3.319   6.224   6.059 -0.6520 -1.1390  0.2922
   31MOL0     H 4055   3.181   6.391   6.155  0.7495  2.1062 -4.9899
   31MOL0     H 4056   3.065   6.791   6.404  0.6006 -3.4035  0.3789
   31MOL0     H 4057   3.004   6.983   6.557  0.1996  0.3652  2.6683
   31MOL0     H 4058   3.296   7.200   6.730  1.2132  0.0916 -0.6920
   31MOL0     H 4059   3.261   7.130   6.887  0.4207  1.1522 -0.0667
   31MOL0     H 4060   3.077   7.347   6.772  2.5047  2.3584 -0.8997
   31MOL0     H 4061   3.205   7.373   6.895 -0.9205  2.2979 -0.6856
   31MOL0     H 4062   2.976   7.175   6.930 -1.1956  1.3412  1.5535
   31MOL0     H 4063   2.957   7.339   6.964  0.8000  0.6147  1.7309
   31MOL0     H 4064   3.169   7.141   7.071 -0.2338 -0.2687 -0.7654
   31MOL0     H 4065   3.168   7.299   7.126  1.6955 -0.5336 -2.6369
   31MOL0     H 4066   3.055   7.143   7.272  0.3276  1.4062 -0.0380
   31MOL0     H 4067   2.947   7.095   7.135 -0.4830 -0.1555 -0.3130
   31MOL0     H 4068   2.803   7.271   7.153 -0.3241 -0.7568  0.2426
   31MOL0     H 4069   2.923   7.391   7.189 -0.1497 -0.6413 -2.2864
   31MOL0     H 4070   2.751   7.339   7.380 -0.6763 -2.5715  0.1284
   31MOL0     H 4071   2.833   7.189   7.401  0.0947 -0.5958 -1.2219
   31MOL0     H 4072   3.044   7.276   7.469 -0.6029  0.0030  1.2004
   31MOL0     H 4073   2.916   7.346   7.562 -1.6759 -0.5636 -0.5200
   31MOL0     H 4074   3.394   6.996   6.697 -1.9051  1.6390  1.1693
   31MOL0     H 4075   3.465   6.811   6.553  0.9133  1.1970  0.5344
   31MOL0     H 4076   3.526   6.617   6.272 -1.1909  0.5246  0.4982
   31MOL0     H 4077   3.669   6.439   6.169  0.2453  3.2198 -1.4089
   31MOL0     H 4078   5.219   6.120   6.308 -2.0264 -0.0414 -1.4045
   31MOL0     H 4079   5.458   6.139   6.326  0.1043  0.5185 -0.0659
   31MOL0     H 4080   5.886   6.213   6.121 -1.5205 -1.3636  0.5812
   31MOL0     H 4081   6.124   6.183   6.070 -2.4738  0.6084 -1.3695
   31MOL0     H 4082   6.367   5.848   6.300  1.6987  0.8481  2.0468
   31MOL0     H 4083   6.325   6.013   6.356  0.3295 -2.1561  1.1804
   31MOL0     H 4084   6.525   5.951   6.131  0.4355  0.9955 -0.8786
   31MOL0     H 4085   6.487   6.105   6.188  4.0280  0.3517 -0.3165
   31MOL0     H 4086   6.581   6.017   6.429  0.6909  1.1371 -0.1934
   31MOL0     H 4087   6.689   6.057   6.294 -0.4352 -0.3700 -1.4437
   31MOL0     H 4088   6.624   5.783   6.383 -1.2002 -0.3100  0.0715
   31MOL0     H 4089   6.677   5.829   6.215 -2.8257  1.1795  0.0966
   31MOL0     H 4090   7.038   5.846   6.416 -0.4361  0.2554  1.1765
   31MOL0     H 4091   6.120   5.805   6.279 -3.3533 -1.4689 -0.0158
   31MOL0     H 4092   5.886   5.832   6.333  0.9197 -1.9005 -1.4505
   32MOL0     O 4093   2.513   7.953  10.591 -0.0973 -0.0531 -0.6030
   32MOL0     C 4094   2.573   7.999  10.495  0.0451  0.2316  0.0061
   32MOL0     O 4095   2.512   8.083  10.404  0.7415  0.4767  1.0714
   32MOL0     C 4096   2.376   8.108  10.420  1.1282 -0.9073  0.0626
   32MOL0     C 4097   2.286   8.019  10.360 -1.2622 -0.4178  0.7070
   32MOL0     C 4098   2.158   8.055  10.330 -0.3525  0.6367  0.1505
   32MOL0     C 4099   2.104   8.169  10.395 -0.1051  0.0759  0.1512
   32MOL0     O 4100   1.967   8.206  10.375 -0.7988  0.0516 -0.1766
   32MOL0     C 4101   1.888   8.123  10.297  0.1407  1.0656  0.0560
   32MOL0     C 4102   1.740   8.165  10.294  0.0233 -0.0770  0.1366
   32MOL0     C 4103   1.679   8.186  10.430  0.5073  0.8132 -0.4024
   32MOL0     C 4104   1.527   8.185  10.440 -0.6188  0.7670 -0.1645
   32MOL0     C 4105   1.474   8.224  10.587  0.4492  0.4408  0.2875
   32MOL0     C 4106   1.320   8.247  10.598  0.0037 -0.4256 -0.0540
   32MOL0     C 4107   1.279   8.273  10.749 -1.0929 -0.4780  0.4719
   32MOL0     C 4108   1.332   8.412  10.794 -0.0572  0.1419 -0.5604
   32MOL0     N 4109   1.240   8.474  10.888 -0.3876  1.0041  0.2481
   32MOL0     C 4110   1.235   8.444  11.027  0.5955  1.0339  0.2190
   32MOL0     C 4111   1.117   8.497  11.074 -0.6568  0.1100  0.4674
   32MOL0     C 4112   1.062   8.482  11.213 -0.6154 -0.1616  0.6122
   32MOL0     C 4113   1.115   8.349  11.282 -0.2911  0.0371 -0.0323
   32MOL0     C 4114   1.054   8.330  11.422 -0.3744  0.7823 -0.3145
   32MOL0     C 4115   1.115   8.421  11.524 -0.4821  0.7734 -0.1472
   32MOL0     O 4116   1.098   8.386  11.667  0.1085  0.6031  0.1344
   32MOL0     C 4117   0.974   8.407  11.727 -0.2673  0.5177 -0.3968
   32MOL0     C 4118   0.853   8.445  11.658 -0.5708 -0.2152  0.1670
   32MOL0     C 4119   0.727   8.450  11.729 -0.9016  0.7372  0.7947
   32MOL0     C 4120   0.720   8.423  11.863 -0.1041  0.2072  0.2670
   32MOL0     C 4121   0.594   8.441  11.931  0.5272  0.7709 -0.1416
   32MOL0     O 4122   0.490   8.475  11.851 -0.6688  0.0792  0.9685
   32MOL0     C 4123   0.365   8.491  11.893 -0.4619  0.4306 -0.1587
   32MOL0     C 4124   0.277   8.574  11.817 -0.2145 -0.5402  0.9304
   32MOL0     C 4125   0.138   8.596  11.849  0.9268 -0.1404  0.4487
   32MOL0     C 4126   0.089   8.517  11.959  0.1166  0.4620 -0.9707
   32MOL0     O 4127  -0.043   8.522  12.001 -0.9004  0.1261  0.1009
   32MOL0     C 4128  -0.129   8.410  11.983  1.3233  0.7575  0.7641
   32MOL0     C 4129  -0.240   8.427  11.881 -0.2895 -0.0361 -0.1539
   32MOL0     C 4130  -0.193   8.484  11.751 -0.5920  0.1025  0.2594
   32MOL0     C 4131  -0.292   8.440  11.631  0.6603  0.8204 -0.0611
   32MOL0     C 4132  -0.443   8.486  11.654  0.3049 -0.5767  0.6169
   32MOL0     C 4133  -0.441   8.639  11.638  0.2692 -0.2481  0.0947
   32MOL0     C 4134  -0.542   8.717  11.727 -0.1163  0.3711 -0.2541
   32MOL0     C 4135  -0.684   8.696  11.689  0.2328  0.6915  0.8999
   32MOL0    Cl 4136  -0.730   8.545  11.775  0.0682 -0.5181  0.1903
   32MOL0     C 4137   0.182   8.444  12.043  0.2073  0.1583 -0.2091
   32MOL0     C 4138   0.317   8.430  12.012  0.2231  0.2806  0.2424
   32MOL0     O 4139   0.583   8.428  12.052 -0.1933 -0.1998  0.2946
   32MOL0     C 4140   0.844   8.393  11.932  1.3597  0.1377  0.0723
   32MOL0     C 4141   0.961   8.379  11.868 -0.0023  0.4883 -0.1628
   32MOL0     N 4142   1.072   8.579  10.967  0.2716 -0.0178  0.3879
   32MOL0     N 4143   1.153   8.567  10.861  0.5288  0.4442  0.4728
   32MOL0     C 4144   2.192   8.253  10.459 -0.9695  0.9815  0.1759
   32MOL0     C 4145   2.327   8.229  10.474 -0.3486 -0.9135 -0.3343
   32MOL0     C 4146   2.719   7.986  10.489 -0.8518 -0.4390 -0.6886
   32MOL0     C 4147   2.794   7.938  10.600 -0.5894  0.3382 -0.3869
   32MOL0     C 4148   2.931   7.919  10.584  0.2439  0.1473 -0.0343
   32MOL0     C 4149   2.994   7.958  10.468 -0.5449  0.0522 -0.5004
   32MOL0     O 4150   3.129   7.949  10.460  0.3676  0.0796  0.1446
   32MOL0     C 4151   3.213   7.957  10.581  0.0089 -0.6201  0.0526
   32MOL0     C 4152   3.361   7.986  10.547  0.2898 -0.5716 -0.0853
   32MOL0     C 4153   3.419   7.863  10.480  0.4185 -0.1258  0.0644
   32MOL0     C 4154   3.561   7.873  10.426  1.4239  0.6706  0.4249
   32MOL0     C 4155   3.654   7.941  10.521  0.7107 -0.0056 -0.8115
   32MOL0     C 4156   3.723   7.983  10.610  0.2756 -0.3759  0.2584
   32MOL0     C 4157   2.921   7.983  10.350 -0.8815  0.0867 -0.9557
   32MOL0     C 4158   2.787   7.991  10.365 -0.9131 -0.1368  0.2893
   32MOL0     H 4159   2.333   7.929  10.321  1.6292  0.5061  1.7979
   32MOL0     H 4160   2.097   7.986  10.272  1.8578 -2.3218  1.1565
   32MOL0     H 4161   1.898   8.021  10.335 -3.1817  0.6500  0.1376
   32MOL0     H 4162   1.910   8.133  10.190 -1.4404  3.4410 -0.1136
   32MOL0     H 4163   1.693   8.083  10.240 -0.3822  0.9292 -1.0888
   32MOL0     H 4164   1.721   8.251  10.229  0.7034 -0.1593 -0.1826
   32MOL0     H 4165   1.716   8.284  10.461 -2.9110  2.0850  0.1093
   32MOL0     H 4166   1.716   8.115  10.504 -1.6047  1.6520  1.5967
   32MOL0     H 4167   1.492   8.248  10.357  0.0296  1.8385  0.3571
   32MOL0     H 4168   1.483   8.088  10.414 -1.0268  0.6435  0.9177
   32MOL0     H 4169   1.526   8.305  10.639 -1.2497  0.6993  1.6880
   32MOL0     H 4170   1.489   8.140  10.655 -2.3827 -1.7967 -1.6101
   32MOL0     H 4171   1.270   8.156  10.565  0.9061 -0.6253 -0.8948
   32MOL0     H 4172   1.297   8.332  10.534  1.5668 -0.2200 -0.3976
   32MOL0     H 4173   1.170   8.264  10.754 -1.1383 -1.7058 -1.7436
   32MOL0     H 4174   1.325   8.193  10.807  2.5592 -3.1787 -5.2990
   32MOL0     H 4175   1.337   8.484  10.713 -0.5919 -0.1901 -0.8986
   32MOL0     H 4176   1.424   8.405  10.852  0.3249 -0.3592 -1.2165
   32MOL0     H 4177   1.307   8.376  11.071 -1.0890 -2.2220 -1.6231
   32MOL0     H 4178   0.953   8.485  11.215 -0.6182 -0.4151  1.2486
   32MOL0     H 4179   1.106   8.571  11.258  1.4553  0.0352 -1.6036
   32MOL0     H 4180   1.223   8.348  11.296 -0.4078  0.4183  0.9114
   32MOL0     H 4181   1.087   8.259  11.226  0.3012 -0.0638 -0.1728
   32MOL0     H 4182   0.947   8.349  11.416 -0.3535  0.5813 -1.5595
   32MOL0     H 4183   1.076   8.226  11.448  0.3139  0.7740 -0.8985
   32MOL0     H 4184   1.073   8.522  11.511 -2.8749  0.2970  2.7301
   32MOL0     H 4185   1.222   8.411  11.507 -0.4466 -0.1659  0.5913
   32MOL0     H 4186   0.843   8.471  11.553  1.1095 -0.6583 -0.1466
   32MOL0     H 4187   0.649   8.481  11.660  0.2721  3.4358  0.5387
   32MOL0     H 4188   0.308   8.620  11.724 -1.2910  0.9230  1.2623
   32MOL0     H 4189   0.069   8.657  11.792  3.1378  2.2871  0.1725
   32MOL0     H 4190  -0.180   8.381  12.076  2.1695  1.1263  1.3484
   32MOL0     H 4191  -0.054   8.336  11.957  2.1953  1.7767  0.3270
   32MOL0     H 4192  -0.321   8.485  11.926  1.7710  3.2748 -0.3907
   32MOL0     H 4193  -0.286   8.328  11.869  0.9383 -0.7968  1.1910
   32MOL0     H 4194  -0.087   8.465  11.732 -0.5152  0.6852  0.0667
   32MOL0     H 4195  -0.209   8.591  11.765  1.9074  0.1333  4.6124
   32MOL0     H 4196  -0.260   8.496  11.542  1.2241 -2.4005 -2.0706
   32MOL0     H 4197  -0.279   8.335  11.605  0.4255  0.3009  1.8047
   32MOL0     H 4198  -0.470   8.460  11.756  2.7041  0.2801  1.5498
   32MOL0     H 4199  -0.520   8.445  11.588 -1.4009  1.3416  1.3037
   32MOL0     H 4200  -0.467   8.652  11.532 -1.1817 -1.1727  0.3044
   32MOL0     H 4201  -0.348   8.695  11.654 -0.8416  1.1943  2.0375
   32MOL0     H 4202  -0.534   8.691  11.833 -2.7994  1.9735  0.4370
   32MOL0     H 4203  -0.520   8.824  11.727 -1.7833  0.7573  0.5149
   32MOL0     H 4204  -0.707   8.690  11.582 -1.4098  0.8238  1.2162
   32MOL0     H 4205  -0.749   8.779  11.717 -0.7116  1.0284 -1.9159
   32MOL0     H 4206   0.144   8.398  12.134  1.0066 -2.4014 -1.0934
   32MOL0     H 4207   0.373   8.367  12.081  2.2122  1.5760 -0.0913
   32MOL0     H 4208   0.848   8.391  12.041 -1.1967  0.3298  0.2273
   32MOL0     H 4209   1.046   8.339  11.922  0.1431 -1.1574 -1.5128
   32MOL0     H 4210   2.159   8.341  10.513 -2.2607 -0.5925  2.0449
   32MOL0     H 4211   2.388   8.303  10.525 -1.3545  0.9804 -1.7732
   32MOL0     H 4212   2.759   7.906  10.698 -1.5996  0.9614 -0.5324
   32MOL0     H 4213   2.978   7.884  10.675 -1.5265  3.3061  2.3081
   32MOL0     H 4214   3.206   7.859  10.629 -0.8167 -1.6849 -2.1297
   32MOL0     H 4215   3.176   8.037  10.646 -3.3498 -0.9681 -1.2411
   32MOL0     H 4216   3.353   8.074  10.482 -3.4329  0.9119  2.1207
   32MOL0     H 4217   3.413   8.012  10.639  0.0318  4.0983 -1.0230
   32MOL0     H 4218   3.356   7.838  10.394 -0.3793 -2.4528  1.2421
   32MOL0     H 4219   3.418   7.781  10.552  1.1663  1.1718  1.6066
   32MOL0     H 4220   3.598   7.776  10.390 -1.2040 -0.3303  0.1756
   32MOL0     H 4221   3.557   7.943  10.342 -0.4723 -0.1320 -0.2168
   32MOL0     H 4222   3.797   8.005  10.684  0.1001 -3.3320  1.4675
   32MOL0     H 4223   2.977   7.997  10.258  2.0489 -2.2783  0.2966
   32MOL0     H 4224   2.720   8.017  10.284 -1.4686  2.3955  1.4603
   33MOL0     O 4225  11.163   1.959   4.222 -0.0283  0.0710 -1.0664
   33MOL0     C 4226  11.166   1.971   4.104 -0.3854 -0.5546 -0.1798
   33MOL0     O 4227  11.060   1.951   4.014 -0.0990  0.4654 -0.2118
   33MOL0     C 4228  10.933   1.941   4.071  0.2099  0.0812 -0.6596
   33MOL0     C 4229  10.867   2.029   4.160  0.4563 -0.1588 -0.3203
   33MOL0     C 4230  10.741   2.006   4.218 -0.5823 -0.3041 -0.3157
   33MOL0     C 4231  10.676   1.891   4.188 -0.1260  1.1177  0.0144
   33MOL0     O 4232  10.559   1.845   4.245  0.0815 -0.2082 -0.1078
   33MOL0     C 4233  10.450   1.930   4.290  0.3594 -0.2330  0.1303
   33MOL0     C 4234  10.311   1.874   4.250 -0.1824 -0.4437 -0.6724
   33MOL0     C 4235  10.188   1.968   4.283  0.2844 -0.1292  0.2292
   33MOL0     C 4236  10.066   1.892   4.253  0.1449 -0.2808 -0.4029
   33MOL0     C 4237   9.955   1.973   4.319 -0.1565 -0.1572  0.3161
   33MOL0     C 4238   9.825   1.895   4.316 -0.1452 -0.7676  0.2381
   33MOL0     C 4239   9.732   1.959   4.422 -0.8013 -0.1523  0.9195
   33MOL0     C 4240   9.599   1.879   4.426 -0.2455 -0.5019 -0.1661
   33MOL0     N 4241   9.527   1.862   4.300 -0.2789 -0.1185  0.2477
   33MOL0     C 4242   9.520   1.746   4.229  0.2026 -0.0076 -0.1394
   33MOL0     C 4243   9.445   1.762   4.124 -1.0553 -0.7691  0.5219
   33MOL0     C 4244   9.407   1.672   4.015  1.4797 -0.2240 -0.2395
   33MOL0     C 4245   9.290   1.587   4.071 -0.2391  0.1827 -0.1936
   33MOL0     C 4246   9.243   1.483   3.974  0.3616 -0.0664  0.3956
   33MOL0     C 4247   9.129   1.398   4.032  0.3186  0.1907  0.6810
   33MOL0     O 4248   9.004   1.479   4.045 -0.5383  0.0132 -0.4547
   33MOL0     C 4249   8.889   1.423   4.095  0.2744 -0.2949 -0.8673
   33MOL0     C 4250   8.780   1.511   4.110  0.0245 -0.2578  0.6616
   33MOL0     C 4251   8.651   1.466   4.134 -0.6668  0.3693  0.4452
   33MOL0     C 4252   8.635   1.325   4.146 -0.8621  0.9233 -0.5196
   33MOL0     C 4253   8.499   1.273   4.163 -0.2614  1.0256 -0.8086
   33MOL0     O 4254   8.400   1.357   4.127 -0.0327 -0.3248  0.3736
   33MOL0     C 4255   8.263   1.324   4.144 -0.0650  0.5167  0.6239
   33MOL0     C 4256   8.175   1.357   4.034  0.3294 -0.1477  0.5191
   33MOL0     C 4257   8.036   1.332   4.048 -0.3103  0.3362 -0.4024
   33MOL0     C 4258   7.989   1.283   4.168  0.9724 -0.0880  0.1578
   33MOL0     O 4259   7.846   1.276   4.173  0.1479  0.2160 -0.0712
   33MOL0     C 4260   7.784   1.273   4.306  0.4010  0.2996 -0.7316
   33MOL0     C 4261   7.637   1.315   4.294 -1.4914 -0.4244 -0.8968
   33MOL0     C 4262   7.568   1.204   4.223  0.3234  0.1880  0.5762
   33MOL0     C 4263   7.416   1.250   4.193 -0.3669  0.2256 -0.6247
   33MOL0     C 4264   7.347   1.152   4.089  0.1050 -0.4565 -0.8432
   33MOL0     C 4265   7.201   1.192   4.068  0.8119  0.4624 -0.1142
   33MOL0     C 4266   7.137   1.093   3.969 -0.5888 -0.5022 -0.3430
   33MOL0     C 4267   6.983   1.125   3.939 -0.2612 -0.6069  0.0863
   33MOL0    Cl 4268   6.885   1.103   4.088  0.1460 -0.2454 -0.4604
   33MOL0     C 4269   8.071   1.248   4.274 -0.6127  0.3172  0.1996
   33MOL0     C 4270   8.211   1.265   4.255 -0.2287 -0.2177 -0.3199
   33MOL0     O 4271   8.484   1.165   4.219  0.5844  0.0677  0.0425
   33MOL0     C 4272   8.749   1.239   4.145  0.5111  1.1179  0.6073
   33MOL0     C 4273   8.871   1.288   4.109 -0.7314 -0.8020 -0.1788
   33MOL0     N 4274   9.422   1.900   4.117  0.8450  0.3474  0.0771
   33MOL0     N 4275   9.486   1.959   4.217  0.3226 -0.1521  0.0522
   33MOL0     C 4276  10.740   1.800   4.101  0.0188 -0.2867 -0.7227
   33MOL0     C 4277  10.857   1.824   4.036 -0.2039  0.1390 -0.9130
   33MOL0     C 4278  11.293   1.975   4.037  0.2024 -0.1823 -0.2900
   33MOL0     C 4279  11.300   2.026   3.911 -0.4668  0.2495  0.5845
   33MOL0     C 4280  11.417   2.027   3.838 -0.1138  0.5370 -0.0755
   33MOL0     C 4281  11.532   1.973   3.895 -1.1612 -0.9352 -0.1198
   33MOL0     O 4282  11.644   1.981   3.815 -0.7434 -0.3118  0.2861
   33MOL0     C 4283  11.774   1.928   3.851 -0.5174  0.1288  0.3906
   33MOL0     C 4284  11.841   2.043   3.928  0.0275 -0.4361  0.6349
   33MOL0     C 4285  11.925   2.142   3.836  0.2260  0.1543 -0.6396
   33MOL0     C 4286  11.960   2.272   3.915  0.0224  0.2441  0.3070
   33MOL0     C 4287  12.094   2.259   3.985 -0.0979 -0.0815 -0.0679
   33MOL0     C 4288  12.207   2.258   4.036  0.0620 -1.0984 -0.0048
   33MOL0     C 4289  11.538   1.941   4.036 -0.6095  0.8361  0.6947
   33MOL0     C 4290  11.414   1.942   4.106  0.3245 -0.0299 -0.2610
   33MOL0     H 4291  10.910   2.124   4.189  0.4755 -0.3753  0.3836
   33MOL0     H 4292  10.699   2.073   4.292 -1.2694 -0.9148 -0.1421
   33MOL0     H 4293  10.456   2.032   4.251  0.5022 -1.1724 -2.5180
   33MOL0     H 4294  10.460   1.925   4.399 -1.3255 -1.2958  0.2704
   33MOL0     H 4295  10.297   1.775   4.294  2.1021  1.0095  3.9530
   33MOL0     H 4296  10.329   1.880   4.142 -0.2486  1.1108 -0.6279
   33MOL0     H 4297  10.190   2.059   4.222  1.4749 -1.4765 -1.9040
   33MOL0     H 4298  10.198   2.007   4.385 -1.5830 -1.7244  1.0832
   33MOL0     H 4299  10.051   1.891   4.145 -1.1280  1.5591 -0.2892
   33MOL0     H 4300  10.061   1.792   4.296  0.3792  0.3095  1.0721
   33MOL0     H 4301   9.937   2.066   4.264 -1.6924 -2.8739 -4.3457
   33MOL0     H 4302   9.983   1.989   4.423  1.8183 -4.1247  0.6004
   33MOL0     H 4303   9.836   1.789   4.343  0.2965 -0.2241  2.3961
   33MOL0     H 4304   9.789   1.907   4.214  0.1538 -1.4134  0.0504
   33MOL0     H 4305   9.781   1.947   4.519 -0.2100  0.4760  0.7025
   33MOL0     H 4306   9.713   2.064   4.397 -0.2392  0.2977  2.2666
   33MOL0     H 4307   9.542   1.921   4.509  0.8526  1.6327 -0.4124
   33MOL0     H 4308   9.622   1.778   4.459  2.8634 -0.7551 -2.6474
   33MOL0     H 4309   9.579   1.661   4.263  2.6992  0.4531 -2.8809
   33MOL0     H 4310   9.480   1.600   3.976 -0.3407 -0.9410 -2.5323
   33MOL0     H 4311   9.378   1.725   3.923 -0.3634 -1.9592 -0.7328
   33MOL0     H 4312   9.209   1.656   4.095  2.1011  3.3433 -0.6996
   33MOL0     H 4313   9.328   1.534   4.159  0.0449  2.0555  0.8666
   33MOL0     H 4314   9.227   1.549   3.888  2.9800  2.5637  1.7157
   33MOL0     H 4315   9.333   1.422   3.960  2.5972  2.4989  2.4924
   33MOL0     H 4316   9.153   1.368   4.134 -0.3480  0.0054  0.7881
   33MOL0     H 4317   9.110   1.312   3.968 -1.9991  1.9084 -1.0972
   33MOL0     H 4318   8.791   1.618   4.102 -1.1688 -0.1942 -0.5189
   33MOL0     H 4319   8.567   1.535   4.144 -1.4826 -0.3807 -0.9744
   33MOL0     H 4320   8.221   1.381   3.939  2.0407 -3.7121  0.2677
   33MOL0     H 4321   7.968   1.346   3.965  1.0093 -0.7987 -1.7288
   33MOL0     H 4322   7.842   1.334   4.375 -0.3059 -0.5259  0.6386
   33MOL0     H 4323   7.781   1.171   4.345 -3.2236  0.0059 -1.4549
   33MOL0     H 4324   7.648   1.405   4.233 -0.5153  0.0663 -0.0380
   33MOL0     H 4325   7.592   1.339   4.390  2.2409  0.2345  0.8835
   33MOL0     H 4326   7.559   1.107   4.273  1.4226 -0.1059  0.2287
   33MOL0     H 4327   7.614   1.177   4.127 -0.1438 -2.7182  1.0719
   33MOL0     H 4328   7.360   1.236   4.287  0.3014 -4.9788 -0.7010
   33MOL0     H 4329   7.411   1.354   4.160 -0.2864  2.0964  4.3938
   33MOL0     H 4330   7.353   1.050   4.128  1.0727 -0.0250  0.2189
   33MOL0     H 4331   7.403   1.151   3.995  1.5519 -0.3332 -0.0176
   33MOL0     H 4332   7.196   1.294   4.029  1.0952  1.3212  1.9811
   33MOL0     H 4333   7.146   1.191   4.163 -0.1487 -0.5560 -0.6519
   33MOL0     H 4334   7.191   1.103   3.874 -0.8987  0.0225 -0.4632
   33MOL0     H 4335   7.166   0.991   3.998  4.0655  0.8979  0.8004
   33MOL0     H 4336   6.957   1.045   3.869  0.1371 -2.4927  1.9823
   33MOL0     H 4337   6.957   1.216   3.884 -1.1313 -1.1099 -0.3652
   33MOL0     H 4338   8.035   1.207   4.367  1.7467 -0.0856  1.0166
   33MOL0     H 4339   8.282   1.252   4.336 -3.6919 -1.4126  2.8169
   33MOL0     H 4340   8.746   1.130   4.149  0.0603  0.7343 -4.3095
   33MOL0     H 4341   8.954   1.218   4.108 -0.1089 -0.0830 -0.1008
   33MOL0     H 4342  10.685   1.709   4.080 -1.0462 -0.2410  1.6527
   33MOL0     H 4343  10.903   1.754   3.967  1.3698  1.9211 -1.7759
   33MOL0     H 4344  11.216   2.067   3.856  1.1543  2.3118 -0.4758
   33MOL0     H 4345  11.419   2.080   3.744 -0.6583  0.6151 -0.0403
   33MOL0     H 4346  11.839   1.902   3.766  1.0860 -1.4014  1.9989
   33MOL0     H 4347  11.773   1.838   3.913 -0.4464  0.5265  0.9679
   33MOL0     H 4348  11.767   2.090   3.994 -3.7332 -3.9702 -0.6592
   33MOL0     H 4349  11.911   1.996   3.997 -1.6313 -2.9282  0.7294
   33MOL0     H 4350  11.883   2.154   3.735  1.6733  0.1804 -1.2703
   33MOL0     H 4351  12.020   2.098   3.804  0.0654  0.7638 -2.0585
   33MOL0     H 4352  11.960   2.352   3.839  0.4814  0.1331  0.1848
   33MOL0     H 4353  11.886   2.282   3.995 -0.8967  0.4760 -0.5505
   33MOL0     H 4354  12.309   2.252   4.066  0.2294  0.5073 -0.1201
   33MOL0     H 4355  11.636   1.920   4.078 -1.8840 -0.0027  3.4351
   33MOL0     H 4356  11.409   1.894   4.204  1.3193 -3.2568 -1.6349
   34MOL0     O 4357   1.474   2.243   1.471  0.7582 -0.1924  0.0676
   34MOL0     C 4358   1.420   2.154   1.400 -0.5869  0.6538 -0.1725
   34MOL0     O 4359   1.489   2.038   1.367 -0.4663  0.5120 -0.0176
   34MOL0     C 4360   1.612   2.015   1.423 -0.0104  0.9520  1.1492
   34MOL0     C 4361   1.649   2.027   1.556 -0.6752 -0.2942  0.8036
   34MOL0     C 4362   1.781   2.001   1.594  0.5455 -0.4202 -0.3114
   34MOL0     C 4363   1.879   1.953   1.502 -0.0866 -0.0811 -0.0962
   34MOL0     O 4364   2.005   1.920   1.547  0.0828  0.5144  0.3649
   34MOL0     C 4365   2.059   1.796   1.510  0.2368  0.4286 -0.1337
   34MOL0     C 4366   1.968   1.671   1.529  0.3375 -0.2063 -0.3119
   34MOL0     C 4367   1.938   1.625   1.674 -1.0257 -0.1566 -0.3572
   34MOL0     C 4368   1.827   1.511   1.694 -0.0600  0.1291 -0.1728
   34MOL0     C 4369   1.688   1.545   1.636  0.5407 -0.8686 -0.3065
   34MOL0     C 4370   1.627   1.650   1.726  0.2515  1.2955 -0.1224
   34MOL0     C 4371   1.500   1.720   1.676 -0.4321 -0.2905  0.5312
   34MOL0     C 4372   1.366   1.659   1.717 -0.3113  0.7227  0.3097
   34MOL0     N 4373   1.242   1.729   1.693  0.3781  0.4902  0.2781
   34MOL0     C 4374   1.225   1.865   1.697 -0.4319  0.5771 -0.9075
   34MOL0     C 4375   1.091   1.883   1.699  0.4257  1.0460 -0.1383
   34MOL0     C 4376   1.016   2.015   1.733 -0.6410  1.4195 -0.3133
   34MOL0     C 4377   0.874   2.032   1.678 -0.0544  0.7569  0.1840
   34MOL0     C 4378   0.776   1.926   1.736  0.1609 -0.0155  0.0809
   34MOL0     C 4379   0.626   1.941   1.705  0.1752 -0.0021 -0.2093
   34MOL0     O 4380   0.559   1.815   1.706  0.1675  0.4040 -0.1222
   34MOL0     C 4381   0.422   1.819   1.717 -0.7554  0.3663  0.3358
   34MOL0     C 4382   0.329   1.903   1.654  0.3915  0.0858 -0.4042
   34MOL0     C 4383   0.190   1.872   1.652  0.1809  0.0005  0.2123
   34MOL0     C 4384   0.149   1.753   1.724  0.2587 -0.2441  0.0926
   34MOL0     C 4385   0.002   1.720   1.733  0.3620  1.0624  0.1980
   34MOL0     O 4386  -0.092   1.804   1.690  0.7960 -0.5440 -0.4584
   34MOL0     C 4387  -0.211   1.750   1.651  0.5680 -0.1066  0.1860
   34MOL0     C 4388  -0.219   1.697   1.527  0.0520 -0.5080  1.2539
   34MOL0     C 4389  -0.341   1.629   1.492 -0.0439  0.3393 -0.2120
   34MOL0     C 4390  -0.447   1.611   1.582 -0.6070  0.1803  0.1544
   34MOL0     O 4391  -0.564   1.548   1.555  0.5397 -0.6650 -0.3014
   34MOL0     C 4392  -0.583   1.488   1.421 -0.5548 -1.2100 -0.5250
   34MOL0     C 4393  -0.720   1.431   1.400 -0.0306 -0.5158 -0.3058
   34MOL0     C 4394  -0.844   1.515   1.442  0.6057  0.7779 -0.9126
   34MOL0     C 4395  -0.970   1.442   1.412 -0.7352  0.1181 -0.6515
   34MOL0     C 4396  -1.083   1.528   1.473  0.0759  0.4170 -0.9411
   34MOL0     C 4397  -1.226   1.475   1.445 -0.3601  0.0091  0.0995
   34MOL0     C 4398  -1.338   1.558   1.502  0.2833 -0.3363 -0.1546
   34MOL0     C 4399  -1.473   1.545   1.437  1.2162 -0.2967  0.6585
   34MOL0    Cl 4400  -1.525   1.372   1.434 -0.0583  0.1749  0.1029
   34MOL0     C 4401  -0.439   1.669   1.705 -0.3040  0.0544  0.2672
   34MOL0     C 4402  -0.324   1.742   1.739  0.1185  0.1166  0.0313
   34MOL0     O 4403  -0.018   1.597   1.755 -0.7311 -0.3110  0.9998
   34MOL0     C 4404   0.251   1.676   1.791 -0.4959 -0.1722 -0.0817
   34MOL0     C 4405   0.387   1.698   1.766 -0.5614  0.4679 -0.1195
   34MOL0     N 4406   1.032   1.755   1.682 -0.7080 -0.7190 -0.2220
   34MOL0     N 4407   1.128   1.673   1.674  0.5300 -0.4435  0.2125
   34MOL0     C 4408   1.827   1.922   1.376 -0.6179 -0.4929  0.4706
   34MOL0     C 4409   1.706   1.962   1.333  0.2120 -1.2551 -0.4125
   34MOL0     C 4410   1.277   2.172   1.362 -0.0017 -0.9503 -0.1908
   34MOL0     C 4411   1.198   2.291   1.402 -0.8907  0.9924  1.2351
   34MOL0     C 4412   1.071   2.300   1.363  0.1882 -0.1937  0.0608
   34MOL0     C 4413   1.013   2.200   1.287  0.1034 -0.6956 -0.1891
   34MOL0     O 4414   0.877   2.197   1.258 -0.3532 -0.0063  0.5215
   34MOL0     C 4415   0.790   2.297   1.313  0.6194 -0.0361  0.1433
   34MOL0     C 4416   0.637   2.282   1.251 -0.0707  0.3913 -0.3353
   34MOL0     C 4417   0.543   2.364   1.338  0.2325  0.7658  0.5815
   34MOL0     C 4418   0.402   2.353   1.270  0.7298  0.1814  0.6498
   34MOL0     C 4419   0.336   2.223   1.278  0.1949  1.0950 -0.1311
   34MOL0     C 4420   0.286   2.111   1.276  0.1455  0.1140 -0.3438
   34MOL0     C 4421   1.090   2.093   1.235 -0.5426 -1.0855  0.0880
   34MOL0     C 4422   1.220   2.079   1.278  0.7402  0.2054  0.2847
   34MOL0     H 4423   1.567   2.043   1.624 -0.4571  0.2163  0.9479
   34MOL0     H 4424   1.805   2.027   1.697 -1.6532 -2.8255  0.9326
   34MOL0     H 4425   2.142   1.789   1.581 -2.0390 -1.1915  2.5818
   34MOL0     H 4426   2.107   1.798   1.412 -0.7733 -2.2765 -0.7748
   34MOL0     H 4427   2.015   1.582   1.487  0.2124 -0.2468 -0.3691
   34MOL0     H 4428   1.873   1.683   1.475  0.3208 -1.5552 -0.6173
   34MOL0     H 4429   1.911   1.711   1.736  0.8040  0.3789 -0.2640
   34MOL0     H 4430   2.035   1.587   1.705  0.6939  1.7446 -3.0045
   34MOL0     H 4431   1.854   1.413   1.655 -0.9895 -0.9092  1.6571
   34MOL0     H 4432   1.815   1.490   1.800 -1.4815 -2.7950 -0.8147
   34MOL0     H 4433   1.615   1.464   1.636  0.4960 -0.8656  1.3027
   34MOL0     H 4434   1.701   1.586   1.535  3.0040 -1.9263 -0.4856
   34MOL0     H 4435   1.698   1.733   1.729  0.4021  1.1472  0.8225
   34MOL0     H 4436   1.604   1.611   1.826 -0.1691  1.4988 -0.1339
   34MOL0     H 4437   1.492   1.819   1.721  0.1943  0.5630 -1.1568
   34MOL0     H 4438   1.514   1.744   1.570 -0.6971 -1.9609  0.0947
   34MOL0     H 4439   1.359   1.638   1.824  2.3378 -0.9726  0.2509
   34MOL0     H 4440   1.359   1.564   1.663  3.3860  0.2672  0.3488
   34MOL0     H 4441   1.303   1.940   1.706 -1.2116  1.7305 -2.9878
   34MOL0     H 4442   1.072   2.098   1.688 -0.2756  0.5250 -1.5615
   34MOL0     H 4443   1.009   2.012   1.842 -2.7834 -0.6856 -0.4303
   34MOL0     H 4444   0.873   2.033   1.568 -0.0655  4.8012  0.0593
   34MOL0     H 4445   0.836   2.133   1.699 -0.1918  0.9547 -0.9199
   34MOL0     H 4446   0.794   1.830   1.686 -4.5018 -0.8781 -0.3867
   34MOL0     H 4447   0.799   1.914   1.842  3.4139 -1.5064 -0.6672
   34MOL0     H 4448   0.605   1.990   1.609  2.9046 -1.2705 -1.5481
   34MOL0     H 4449   0.586   1.998   1.789  3.3836  2.0036  0.1451
   34MOL0     H 4450   0.356   1.992   1.598  1.9084  1.1466  1.8695
   34MOL0     H 4451   0.122   1.937   1.597 -2.7161 -1.3255  1.9867
   34MOL0     H 4452  -0.151   1.712   1.444 -2.0532  0.9287 -0.3330
   34MOL0     H 4453  -0.360   1.592   1.392  1.4201 -0.4960 -0.2016
   34MOL0     H 4454  -0.510   1.407   1.410  1.0333  0.1431 -0.3401
   34MOL0     H 4455  -0.581   1.556   1.335  0.8280 -2.5062 -1.5842
   34MOL0     H 4456  -0.716   1.342   1.463  0.7921 -0.0054  0.3961
   34MOL0     H 4457  -0.725   1.408   1.293  0.4871  0.7388 -0.6205
   34MOL0     H 4458  -0.843   1.598   1.370  0.9937 -0.0132 -1.8548
   34MOL0     H 4459  -0.836   1.537   1.549  0.3184  0.0887 -0.7438
   34MOL0     H 4460  -0.984   1.433   1.304 -1.1784 -1.6350 -0.4771
   34MOL0     H 4461  -0.971   1.337   1.442  1.9479 -1.2926 -4.5755
   34MOL0     H 4462  -1.070   1.632   1.442  2.8764  0.4611  0.0566
   34MOL0     H 4463  -1.067   1.538   1.581  2.8504  0.0146 -1.2426
   34MOL0     H 4464  -1.238   1.374   1.485  1.4978  0.2173  1.2853
   34MOL0     H 4465  -1.241   1.472   1.336 -0.7027 -0.1461  0.1470
   34MOL0     H 4466  -1.354   1.536   1.608  1.6242 -2.1994 -0.2893
   34MOL0     H 4467  -1.316   1.665   1.499  1.5750 -0.6042 -2.1812
   34MOL0     H 4468  -1.470   1.581   1.333 -1.4788 -0.6319  0.4083
   34MOL0     H 4469  -1.549   1.608   1.485  2.5346  1.1659  0.9270
   34MOL0     H 4470  -0.521   1.675   1.775 -1.2108  4.2481 -0.9010
   34MOL0     H 4471  -0.309   1.775   1.842  3.5131  0.8021 -0.5696
   34MOL0     H 4472   0.219   1.596   1.857 -1.4446  1.9381  2.1758
   34MOL0     H 4473   0.464   1.633   1.807  1.7937  1.9912 -1.8903
   34MOL0     H 4474   1.883   1.866   1.302 -1.7702 -3.1807  1.4815
   34MOL0     H 4475   1.660   1.944   1.236 -3.0396 -0.3053  0.8048
   34MOL0     H 4476   1.261   2.357   1.461  1.8838 -0.9599  0.7219
   34MOL0     H 4477   1.014   2.389   1.386  2.5866  1.0509  1.4523
   34MOL0     H 4478   0.821   2.401   1.294  1.2500 -0.0084  1.2479
   34MOL0     H 4479   0.784   2.289   1.422 -0.6549 -0.5305  0.0540
   34MOL0     H 4480   0.654   2.318   1.150  1.8057 -0.4558 -0.3594
   34MOL0     H 4481   0.600   2.179   1.241 -1.8194  0.9321  0.2040
   34MOL0     H 4482   0.591   2.460   1.319  1.6643 -0.5820 -3.9233
   34MOL0     H 4483   0.522   2.334   1.441 -0.8973  0.4789  0.2825
   34MOL0     H 4484   0.334   2.423   1.319 -0.2674 -0.3372  0.0397
   34MOL0     H 4485   0.422   2.371   1.164  0.5076 -1.2580  0.3431
   34MOL0     H 4486   0.231   2.019   1.282  0.5472 -0.3183 -2.4242
   34MOL0     H 4487   1.047   2.029   1.159 -3.2425  2.0723 -1.3081
   34MOL0     H 4488   1.284   2.007   1.228  2.2685  0.7328  1.4428
   35MOL0     O 4489   4.935   5.648   7.979  0.0589 -0.5715  1.3207
   35MOL0     C 4490   4.994   5.718   7.896 -0.4710 -0.3512  0.8831
   35MOL0     O 4491   4.942   5.771   7.782 -0.1826 -0.6863 -0.3650
   35MOL0     C 4492   4.807   5.809   7.786 -0.3119 -0.2275  1.2434
   35MOL0     C 4493   4.745   5.807   7.665  0.0906  0.0396 -0.1278
   35MOL0     C 4494   4.606   5.830   7.655  0.2724  0.3730  0.0520
   35MOL0     C 4495   4.527   5.855   7.759  0.2816 -0.2767 -0.5149
   35MOL0     O 4496   4.395   5.885   7.726  0.2193 -0.3777 -0.8666
   35MOL0     C 4497   4.292   5.855   7.817  0.1499 -0.3835  0.4654
   35MOL0     C 4498   4.152   5.905   7.783 -0.2703  1.2351  0.9340
   35MOL0     C 4499   4.101   5.839   7.647  0.1159 -0.2549 -0.4111
   35MOL0     C 4500   3.986   5.912   7.591  0.8062  0.4485  0.1350
   35MOL0     C 4501   3.941   5.849   7.450 -0.0594 -0.1665  0.5591
   35MOL0     C 4502   3.803   5.796   7.452  0.3144 -0.3245 -0.0893
   35MOL0     C 4503   3.755   5.750   7.309  0.0725  0.5407  0.0863
   35MOL0     C 4504   3.625   5.689   7.319 -0.0690 -0.1559 -0.7898
   35MOL0     N 4505   3.610   5.561   7.394 -0.0515  0.5874 -0.3222
   35MOL0     C 4506   3.614   5.520   7.529  0.0400 -0.3239  0.1725
   35MOL0     C 4507   3.590   5.389   7.532 -0.1318  0.2502  0.3032
   35MOL0     C 4508   3.589   5.293   7.647  0.7882  0.0074  0.8320
   35MOL0     C 4509   3.453   5.238   7.672 -0.4613  0.0049 -0.5877
   35MOL0     C 4510   3.467   5.118   7.767  0.0613 -0.3998  0.7019
   35MOL0     C 4511   3.320   5.089   7.817 -0.7553 -0.3027  0.2722
   35MOL0     O 4512   3.215   5.089   7.712 -0.7332 -0.4976 -0.1694
   35MOL0     C 4513   3.090   5.049   7.737 -0.4400  0.1637  0.4541
   35MOL0     C 4514   3.040   4.995   7.859 -0.2574  0.2529 -0.2351
   35MOL0     C 4515   2.901   4.970   7.866  0.4051  0.4385  0.5656
   35MOL0     C 4516   2.816   4.995   7.755 -0.0042  0.3393  0.0376
   35MOL0     C 4517   2.670   4.961   7.752 -0.5397 -0.4459  0.0775
   35MOL0     O 4518   2.604   4.958   7.637  0.6912  0.2608 -0.0086
   35MOL0     C 4519   2.467   4.945   7.625 -0.1464  0.8232 -0.4314
   35MOL0     C 4520   2.369   4.957   7.732  0.0604  0.2757 -0.5958
   35MOL0     C 4521   2.226   4.941   7.708  0.2796  1.2492 -0.2997
   35MOL0     C 4522   2.183   4.920   7.575  0.1377 -0.0392  0.1534
   35MOL0     O 4523   2.045   4.928   7.545 -0.0180  0.2256 -0.6735
   35MOL0     C 4524   2.006   4.979   7.418  0.0795  0.8818  1.2543
   35MOL0     C 4525   1.853   4.986   7.400 -0.4240 -0.2942 -0.4890
   35MOL0     C 4526   1.795   4.847   7.399 -0.0112  0.6845 -0.1656
   35MOL0     C 4527   1.646   4.841   7.371  0.5360 -0.0773  0.7228
   35MOL0     C 4528   1.544   4.936   7.437  0.3129 -0.4688  0.2197
   35MOL0     C 4529   1.416   4.908   7.364 -0.7688  1.1400  0.3706
   35MOL0     C 4530   1.294   4.966   7.436 -0.2203  0.1676  0.1274
   35MOL0     C 4531   1.160   4.956   7.358 -0.9658  0.3571 -0.7078
   35MOL0    Cl 4532   1.067   4.807   7.411  0.1008 -0.1290 -0.0988
   35MOL0     C 4533   2.281   4.917   7.476 -0.2045 -0.3833  0.6199
   35MOL0     C 4534   2.417   4.919   7.495 -0.7112  0.0522 -0.7065
   35MOL0     O 4535   2.626   4.921   7.862 -0.4418  0.2215  0.5649
   35MOL0     C 4536   2.864   5.055   7.637 -0.5343  0.2759  0.5067
   35MOL0     C 4537   3.000   5.069   7.631 -0.1198  0.2282  0.1074
   35MOL0     N 4538   3.581   5.347   7.397 -0.1738 -0.1719 -0.4637
   35MOL0     N 4539   3.589   5.449   7.319  0.2044 -0.4524 -0.3242
   35MOL0     C 4540   4.595   5.869   7.885  0.4944 -0.9332 -0.0429
   35MOL0     C 4541   4.736   5.849   7.903  0.0930 -0.1719  1.1375
   35MOL0     C 4542   5.143   5.711   7.896 -0.8268  0.4481  0.4556
   35MOL0     C 4543   5.206   5.592   7.947  0.2944  0.6547  0.3950
   35MOL0     C 4544   5.341   5.576   7.960  0.0463 -0.1966  0.0717
   35MOL0     C 4545   5.427   5.683   7.920 -0.5871  0.0197  0.2045
   35MOL0     O 4546   5.557   5.674   7.921 -0.3389  0.0964 -0.0608
   35MOL0     C 4547   5.626   5.657   8.043  0.5038  0.0902 -0.5838
   35MOL0     C 4548   5.696   5.789   8.090  0.6883 -0.1390  0.1061
   35MOL0     C 4549   5.787   5.861   7.995  1.1219  0.0924 -0.6832
   35MOL0     C 4550   5.709   5.937   7.889 -0.1397  0.0599 -0.3752
   35MOL0     C 4551   5.807   6.004   7.803  0.4301 -0.4543  0.6877
   35MOL0     C 4552   5.889   6.067   7.733  0.6853 -0.3031 -0.1100
   35MOL0     C 4553   5.366   5.806   7.876 -1.2764  0.1102  0.8582
   35MOL0     C 4554   5.229   5.814   7.865  0.7664  0.2386 -0.4723
   35MOL0     H 4555   4.815   5.788   7.585 -0.6844  4.0377 -2.0135
   35MOL0     H 4556   4.568   5.811   7.555  1.3593  2.3338 -0.8004
   35MOL0     H 4557   4.314   5.911   7.908  0.8665  0.2595 -0.0938
   35MOL0     H 4558   4.300   5.749   7.845 -1.2115 -0.2010  1.7260
   35MOL0     H 4559   4.167   6.013   7.775  4.0294  0.6536 -2.4193
   35MOL0     H 4560   4.092   5.885   7.873 -0.0933  0.3841  0.8668
   35MOL0     H 4561   4.078   5.735   7.673 -3.0139  1.4349  5.3452
   35MOL0     H 4562   4.176   5.831   7.568  0.9992 -0.5443  0.4313
   35MOL0     H 4563   3.901   5.898   7.659  0.2177 -0.9696 -0.8514
   35MOL0     H 4564   4.010   6.018   7.582  0.6937  0.3545 -1.4747
   35MOL0     H 4565   4.013   5.772   7.420  0.9596  1.7756 -2.4711
   35MOL0     H 4566   3.950   5.922   7.369  1.2654 -3.0487 -2.1373
   35MOL0     H 4567   3.732   5.866   7.497 -2.3043 -2.9193  0.1623
   35MOL0     H 4568   3.802   5.711   7.520  2.7930  0.3721  0.9280
   35MOL0     H 4569   3.764   5.828   7.233  4.1288  0.0702 -0.1598
   35MOL0     H 4570   3.827   5.670   7.287 -1.2545 -1.1331  1.5341
   35MOL0     H 4571   3.612   5.661   7.214  4.0541 -3.6039 -0.6865
   35MOL0     H 4572   3.563   5.769   7.361  1.7922  0.5454  0.7541
   35MOL0     H 4573   3.628   5.572   7.623 -3.7518  4.3652 -1.4228
   35MOL0     H 4574   3.613   5.336   7.744 -0.0382 -0.6137  1.3255
   35MOL0     H 4575   3.658   5.209   7.630  0.2094 -0.1754 -0.7864
   35MOL0     H 4576   3.405   5.210   7.578 -3.6575 -1.4752  1.2917
   35MOL0     H 4577   3.392   5.313   7.724 -0.7073  0.9987 -2.2384
   35MOL0     H 4578   3.507   5.036   7.707  2.9988  0.9079  0.6724
   35MOL0     H 4579   3.536   5.135   7.850  1.2048 -0.5968 -0.1746
   35MOL0     H 4580   3.308   5.162   7.898  1.0284 -1.8420  2.0306
   35MOL0     H 4581   3.305   4.993   7.868 -3.1298 -2.6250 -4.1894
   35MOL0     H 4582   3.109   4.961   7.936 -0.3768 -0.8989 -0.6208
   35MOL0     H 4583   2.862   4.914   7.950 -0.7648  1.0511  0.4647
   35MOL0     H 4584   2.391   4.974   7.836 -0.8525  1.8914 -0.6362
   35MOL0     H 4585   2.157   4.948   7.791  1.2796 -1.4729  0.8660
   35MOL0     H 4586   2.041   4.922   7.331  0.8140  0.0054  2.0951
   35MOL0     H 4587   2.037   5.084   7.416  1.8116  0.4160 -0.8722
   35MOL0     H 4588   1.835   5.037   7.304 -0.5353  0.1545 -0.2317
   35MOL0     H 4589   1.807   5.044   7.480  2.3117 -0.9314  1.6865
   35MOL0     H 4590   1.828   4.801   7.492 -1.6490  2.5855  1.4556
   35MOL0     H 4591   1.850   4.799   7.318  1.9810 -0.9073  1.9722
   35MOL0     H 4592   1.639   4.854   7.263 -0.0214  0.8917  0.8651
   35MOL0     H 4593   1.613   4.740   7.395 -0.4806 -0.1229 -0.7352
   35MOL0     H 4594   1.571   5.038   7.406  3.0976 -0.4677  2.3037
   35MOL0     H 4595   1.528   4.924   7.544 -2.9794 -1.3362 -0.2370
   35MOL0     H 4596   1.390   4.803   7.347 -0.6089  1.4894 -2.5149
   35MOL0     H 4597   1.423   4.944   7.261 -0.7027 -0.6024 -0.2660
   35MOL0     H 4598   1.286   4.917   7.534  1.6184 -0.1637  0.1465
   35MOL0     H 4599   1.315   5.073   7.446  1.7243 -0.0317 -1.3541
   35MOL0     H 4600   1.174   4.962   7.250  3.6825 -2.4562 -0.5145
   35MOL0     H 4601   1.108   5.044   7.396  2.0849  2.2682 -0.6505
   35MOL0     H 4602   2.248   4.905   7.374  0.1510  0.5575  0.3815
   35MOL0     H 4603   2.485   4.905   7.412  0.0289 -3.3194  0.3185
   35MOL0     H 4604   2.802   5.087   7.554 -0.3683  1.9094  0.9849
   35MOL0     H 4605   3.053   5.104   7.543  1.7780 -0.7732  0.7996
   35MOL0     H 4606   4.532   5.907   7.965 -0.6152 -0.2691 -1.1934
   35MOL0     H 4607   4.783   5.859   8.001  0.5503  0.0804  0.9008
   35MOL0     H 4608   5.145   5.510   7.983 -3.2682  2.1860 -1.6152
   35MOL0     H 4609   5.390   5.486   7.995  0.9176  0.0718 -0.4439
   35MOL0     H 4610   5.704   5.583   8.022  1.5272  0.9753  0.0245
   35MOL0     H 4611   5.561   5.630   8.126  2.1975 -0.4491  0.6124
   35MOL0     H 4612   5.625   5.866   8.122  1.4217  0.4819  0.2893
   35MOL0     H 4613   5.752   5.767   8.181  0.3280 -0.3595  0.2721
   35MOL0     H 4614   5.861   5.793   7.952  4.4291  1.0718  2.8687
   35MOL0     H 4615   5.837   5.929   8.065 -1.4546  1.4953 -0.0878
   35MOL0     H 4616   5.662   5.855   7.834 -0.0197 -0.3964  0.1984
   35MOL0     H 4617   5.639   6.005   7.939 -1.7571 -2.1615  0.5251
   35MOL0     H 4618   5.974   6.116   7.690 -1.3481  2.8496 -0.9012
   35MOL0     H 4619   5.432   5.885   7.842  1.3221 -2.0945  0.3874
   35MOL0     H 4620   5.171   5.886   7.808 -0.6500 -3.5019 -4.3310
   36MOL0     O 4621   6.761   3.953   2.322 -0.0254  0.2847 -0.1048
   36MOL0     C 4622   6.807   3.869   2.401  0.8395 -0.4794  0.2454
   36MOL0     O 4623   6.734   3.774   2.465 -0.3531 -0.1329 -0.6746
   36MOL0     C 4624   6.622   3.817   2.532  0.1099 -0.7657  0.1531
   36MOL0     C 4625   6.502   3.853   2.468  0.2286  0.1087  0.1491
   36MOL0     C 4626   6.393   3.894   2.549  0.0278 -0.1367  0.0720
   36MOL0     C 4627   6.405   3.907   2.691 -0.5049 -0.0057 -0.7221
   36MOL0     O 4628   6.302   3.965   2.760 -0.0828  0.4759  0.2466
   36MOL0     C 4629   6.337   4.082   2.834  0.8969  0.6991 -0.2459
   36MOL0     C 4630   6.344   4.206   2.741 -0.3475 -0.0502 -0.2743
   36MOL0     C 4631   6.463   4.221   2.652  0.2959  0.2077 -0.3948
   36MOL0     C 4632   6.596   4.222   2.728  0.1000  0.8123  0.0867
   36MOL0     C 4633   6.710   4.266   2.637  0.2375 -0.4709 -0.2561
   36MOL0     C 4634   6.835   4.212   2.703  0.2687 -0.1428 -0.1064
   36MOL0     C 4635   6.949   4.284   2.632  0.4005 -0.3220 -0.1641
   36MOL0     C 4636   7.083   4.225   2.669  0.4972  0.3501  0.5948
   36MOL0     N 4637   7.197   4.283   2.596  0.4968  0.2204  0.1722
   36MOL0     C 4638   7.290   4.364   2.656  0.2836  0.1843  0.0553
   36MOL0     C 4639   7.339   4.443   2.552 -0.3344 -0.2798 -0.0671
   36MOL0     C 4640   7.433   4.556   2.570  0.9886  0.6997 -0.7031
   36MOL0     C 4641   7.570   4.506   2.614 -0.4211  0.8469 -0.0293
   36MOL0     C 4642   7.611   4.366   2.549 -0.5186  1.0696  0.0796
   36MOL0     C 4643   7.761   4.326   2.560 -1.0454 -0.1590  0.9454
   36MOL0     O 4644   7.788   4.324   2.699 -0.3286  0.1877 -0.2499
   36MOL0     C 4645   7.905   4.285   2.751 -0.2634  1.4588 -0.7737
   36MOL0     C 4646   7.918   4.329   2.885  0.1083  0.5007  0.0748
   36MOL0     C 4647   8.035   4.291   2.961  0.5337  0.7180  0.0997
   36MOL0     C 4648   8.133   4.211   2.904 -1.0287 -0.5813  0.1493
   36MOL0     C 4649   8.259   4.177   2.984  0.1170 -0.1747 -0.2434
   36MOL0     O 4650   8.343   4.084   2.921  0.7636 -0.4088  0.2552
   36MOL0     C 4651   8.446   4.023   2.982  0.2551  0.6665  0.0007
   36MOL0     C 4652   8.496   4.054   3.109  0.0351  0.4535  1.1304
   36MOL0     C 4653   8.594   3.983   3.176  0.4106  0.3950 -0.0371
   36MOL0     C 4654   8.661   3.878   3.119 -0.7187 -0.0041 -0.4762
   36MOL0     O 4655   8.777   3.832   3.184 -0.4630 -0.2092 -0.5623
   36MOL0     C 4656   8.824   3.701   3.166 -0.6455  0.1459 -0.5013
   36MOL0     C 4657   8.981   3.713   3.194 -0.1871  0.3022 -0.2486
   36MOL0     C 4658   9.044   3.761   3.067 -0.1348  0.0861 -0.7015
   36MOL0     C 4659   9.196   3.792   3.091 -0.6695  0.7646  0.0896
   36MOL0     C 4660   9.282   3.773   2.973 -0.7527 -0.2722  0.6476
   36MOL0     C 4661   9.438   3.797   2.992  0.4272 -0.5457 -0.6026
   36MOL0     C 4662   9.494   3.694   3.089 -0.1400 -0.5326  0.4981
   36MOL0     C 4663   9.648   3.706   3.096  0.0898  0.5700 -0.0165
   36MOL0    Cl 4664   9.723   3.574   3.186  0.4212  0.3466  0.3862
   36MOL0     C 4665   8.619   3.834   2.994 -0.6277 -0.0937  0.2053
   36MOL0     C 4666   8.509   3.901   2.933  0.8066 -0.3701  0.9507
   36MOL0     O 4667   8.272   4.236   3.090 -0.1329  0.1540 -0.2979
   36MOL0     C 4668   8.114   4.175   2.769  0.0653 -0.3908 -0.4152
   36MOL0     C 4669   8.003   4.210   2.692 -0.5864  0.5067 -0.2402
   36MOL0     N 4670   7.270   4.403   2.436 -0.1206 -0.4121 -1.0586
   36MOL0     N 4671   7.201   4.304   2.462 -0.4584 -0.1826  0.3631
   36MOL0     C 4672   6.524   3.861   2.743  0.8216  0.9180  0.3308
   36MOL0     C 4673   6.628   3.817   2.666  0.4615  1.1531 -0.0151
   36MOL0     C 4674   6.944   3.868   2.434 -0.9403  0.6354  0.9412
   36MOL0     C 4675   7.002   3.771   2.522 -0.0880  0.4387  0.5661
   36MOL0     C 4676   7.136   3.777   2.567 -0.5363 -0.5474  0.1993
   36MOL0     C 4677   7.220   3.876   2.517 -0.6967  0.1672 -0.1979
   36MOL0     O 4678   7.352   3.876   2.559 -0.2128  0.1725 -0.0861
   36MOL0     C 4679   7.448   3.964   2.484  0.1824  0.8582 -0.7020
   36MOL0     C 4680   7.597   3.928   2.515  1.2707 -0.0473  1.2409
   36MOL0     C 4681   7.637   3.790   2.466  0.2757  0.1197 -0.3729
   36MOL0     C 4682   7.767   3.726   2.522 -0.0688 -0.9826  0.3733
   36MOL0     C 4683   7.888   3.798   2.477  0.5379 -0.1324 -0.0799
   36MOL0     C 4684   7.990   3.862   2.470 -0.1901  0.6579 -0.3413
   36MOL0     C 4685   7.170   3.972   2.426  0.1944 -0.2938  0.9065
   36MOL0     C 4686   7.036   3.972   2.390  0.2027 -0.5035  0.1112
   36MOL0     H 4687   6.496   3.850   2.360 -0.6519 -1.7755  0.2049
   36MOL0     H 4688   6.299   3.920   2.503  0.0990  3.3329  1.5741
   36MOL0     H 4689   6.422   4.069   2.901  1.6613 -2.6147 -1.6564
   36MOL0     H 4690   6.247   4.100   2.895  1.2306  1.7772 -0.0601
   36MOL0     H 4691   6.335   4.296   2.804 -3.5531  1.0936 -2.1087
   36MOL0     H 4692   6.259   4.204   2.672 -0.6220 -1.0686  0.0808
   36MOL0     H 4693   6.441   4.319   2.609 -3.6855  0.6127  2.0757
   36MOL0     H 4694   6.450   4.151   2.569 -1.6230  0.3049 -0.2206
   36MOL0     H 4695   6.585   4.298   2.806  0.1757  0.5730  0.3320
   36MOL0     H 4696   6.614   4.130   2.785  0.7830 -0.7985 -2.5396
   36MOL0     H 4697   6.707   4.375   2.630  2.2536 -0.2795  1.0526
   36MOL0     H 4698   6.712   4.216   2.539  1.4417  1.2856 -1.1740
   36MOL0     H 4699   6.841   4.105   2.679  0.1341 -0.3270  0.6649
   36MOL0     H 4700   6.839   4.224   2.812  0.0200 -2.2474  0.1737
   36MOL0     H 4701   6.939   4.287   2.523  1.0152 -1.8822 -0.3010
   36MOL0     H 4702   6.952   4.382   2.680  0.8152 -0.7675  0.7591
   36MOL0     H 4703   7.069   4.120   2.641 -0.9629 -0.0960  2.7274
   36MOL0     H 4704   7.101   4.229   2.777 -2.1722  0.7101  1.0991
   36MOL0     H 4705   7.319   4.373   2.761 -0.0255  1.8668  0.0322
   36MOL0     H 4706   7.403   4.637   2.637  0.9642  0.5344 -0.5135
   36MOL0     H 4707   7.436   4.603   2.471  0.8904  1.6306 -0.2766
   36MOL0     H 4708   7.565   4.509   2.723  1.2631 -0.2575  0.1244
   36MOL0     H 4709   7.636   4.589   2.587  0.3250  0.1296 -0.4661
   36MOL0     H 4710   7.559   4.284   2.599  0.1017 -1.0490 -2.5209
   36MOL0     H 4711   7.584   4.374   2.443  0.6207 -1.2120 -0.4317
   36MOL0     H 4712   7.833   4.394   2.513  0.4338 -1.7553  0.7779
   36MOL0     H 4713   7.774   4.228   2.511  0.9471  1.9662 -3.3391
   36MOL0     H 4714   7.841   4.392   2.927  0.3682 -0.2638  1.7857
   36MOL0     H 4715   8.044   4.326   3.064 -2.2615 -2.7713  1.7427
   36MOL0     H 4716   8.467   4.149   3.155  1.7177  2.4313 -1.6091
   36MOL0     H 4717   8.633   4.008   3.275  0.0985  0.1863  0.1372
   36MOL0     H 4718   8.789   3.658   3.071  0.0032 -1.1163 -0.1903
   36MOL0     H 4719   8.792   3.638   3.248  1.4988  1.3716  1.4063
   36MOL0     H 4720   9.014   3.613   3.224 -2.9652 -0.8676 -0.8005
   36MOL0     H 4721   8.984   3.797   3.263 -2.2531  0.5204 -0.3629
   36MOL0     H 4722   9.000   3.855   3.033  1.0597  1.6711  1.8730
   36MOL0     H 4723   9.032   3.687   2.987 -0.2621 -0.9841  0.2736
   36MOL0     H 4724   9.208   3.891   3.135  1.2150 -0.2480  2.0876
   36MOL0     H 4725   9.235   3.719   3.163 -2.6162 -1.0029 -0.5378
   36MOL0     H 4726   9.259   3.838   2.889  0.4198  1.5363  1.6704
   36MOL0     H 4727   9.266   3.669   2.943  0.2104 -0.3302  0.2919
   36MOL0     H 4728   9.455   3.900   3.025 -2.3525  0.6067 -2.4295
   36MOL0     H 4729   9.482   3.771   2.896 -1.1151 -1.6030 -1.0497
   36MOL0     H 4730   9.463   3.711   3.193 -1.7917  0.5163 -0.1334
   36MOL0     H 4731   9.465   3.595   3.053 -6.3397  0.7105  0.9571
   36MOL0     H 4732   9.674   3.791   3.161 -0.9896  2.7354 -2.2613
   36MOL0     H 4733   9.699   3.728   3.001 -0.2043 -0.1523 -0.3436
   36MOL0     H 4734   8.669   3.755   2.939 -1.2866 -1.3884  1.4152
   36MOL0     H 4735   8.469   3.868   2.838  0.6468  1.0608  0.4870
   36MOL0     H 4736   8.191   4.117   2.719  0.5870  2.1116 -2.7356
   36MOL0     H 4737   7.983   4.165   2.596 -0.9353 -2.4541  1.0824
   36MOL0     H 4738   6.537   3.853   2.850  0.6156 -1.7967  0.2394
   36MOL0     H 4739   6.726   3.793   2.705  0.1493 -3.4725 -1.4914
   36MOL0     H 4740   6.945   3.699   2.580  1.7737  2.3280  5.3153
   36MOL0     H 4741   7.178   3.707   2.639  1.7502 -0.5882 -1.0768
   36MOL0     H 4742   7.414   4.065   2.506 -0.9746  0.5159 -0.8409
   36MOL0     H 4743   7.448   3.957   2.375  1.2681 -0.7114 -0.6272
   36MOL0     H 4744   7.657   4.009   2.471  0.6195  0.0910  0.5864
   36MOL0     H 4745   7.601   3.929   2.624 -1.5331  0.1742  1.4093
   36MOL0     H 4746   7.652   3.799   2.358  0.2658 -1.2368 -0.5097
   36MOL0     H 4747   7.558   3.715   2.480 -0.1891  0.7581  0.5174
   36MOL0     H 4748   7.773   3.731   2.631  2.0870 -2.1395  0.3563
   36MOL0     H 4749   7.781   3.620   2.498  3.8431  0.0655 -3.2702
   36MOL0     H 4750   8.076   3.925   2.464 -1.0064  1.9369  0.8208
   36MOL0     H 4751   7.235   4.049   2.384 -1.4166  1.4025  1.3557
   36MOL0     H 4752   7.003   4.052   2.326  3.6105  2.6054  1.8731
   37MOL0     O 4753   4.961   6.214   1.442  0.4654  0.3129 -0.3446
   37MOL0     C 4754   5.001   6.328   1.424  0.1000 -0.7812 -0.1341
   37MOL0     O 4755   4.921   6.436   1.411 -0.5035  0.1834 -0.2359
   37MOL0     C 4756   4.780   6.425   1.422 -0.5295  0.8796  1.0063
   37MOL0     C 4757   4.708   6.327   1.495 -0.3612 -0.3698  0.4897
   37MOL0     C 4758   4.575   6.320   1.494  0.5072 -0.2530  0.0546
   37MOL0     C 4759   4.501   6.408   1.413  0.1831 -0.8950 -0.0542
   37MOL0     O 4760   4.362   6.400   1.406  0.2063 -0.6373  0.5100
   37MOL0     C 4761   4.295   6.402   1.274 -0.1744  0.6858 -0.2764
   37MOL0     C 4762   4.166   6.309   1.281 -0.8468  0.6362 -0.5512
   37MOL0     C 4763   4.041   6.402   1.289 -0.1853 -0.7080 -0.7291
   37MOL0     C 4764   3.907   6.328   1.268 -0.0865  0.1886 -0.1215
   37MOL0     C 4765   3.798   6.424   1.223  0.4147  0.9525 -0.3870
   37MOL0     C 4766   3.688   6.343   1.151 -0.3386  0.1002 -0.1548
   37MOL0     C 4767   3.550   6.415   1.130  0.2501  0.3137  0.2913
   37MOL0     C 4768   3.450   6.378   1.243 -0.5340 -0.9257 -0.4289
   37MOL0     N 4769   3.305   6.413   1.210 -0.1210  0.7969 -0.4850
   37MOL0     C 4770   3.214   6.483   1.290  0.1444 -0.0828  0.0996
   37MOL0     C 4771   3.092   6.441   1.238 -0.6339 -0.2947  0.6689
   37MOL0     C 4772   2.967   6.468   1.315 -0.1591 -0.4496 -0.0390
   37MOL0     C 4773   2.848   6.507   1.231 -1.4139 -0.8302 -0.0341
   37MOL0     C 4774   2.860   6.619   1.125  0.1385  1.0817 -0.1222
   37MOL0     C 4775   2.731   6.627   1.036 -0.8194  0.4316 -0.9002
   37MOL0     O 4776   2.614   6.676   1.105  0.5936  0.2913 -0.4885
   37MOL0     C 4777   2.490   6.644   1.050 -0.6869  0.1202 -0.6131
   37MOL0     C 4778   2.471   6.580   0.928  0.3753 -0.1087  0.5101
   37MOL0     C 4779   2.347   6.545   0.884 -0.2537  0.8241 -0.4548
   37MOL0     C 4780   2.236   6.586   0.960 -0.3048 -0.5834 -0.9155
   37MOL0     C 4781   2.098   6.541   0.926  0.0627 -0.5904  0.5878
   37MOL0     O 4782   2.005   6.539   1.027 -0.1315  0.0540  0.3346
   37MOL0     C 4783   1.882   6.483   0.993 -0.8731 -0.1774  0.0299
   37MOL0     C 4784   1.761   6.559   0.984  0.6880  1.0902  0.0671
   37MOL0     C 4785   1.641   6.496   0.941  0.6884  0.4954 -0.7232
   37MOL0     C 4786   1.642   6.357   0.922  0.8877 -0.1970 -0.4474
   37MOL0     O 4787   1.519   6.312   0.899  0.2658 -0.1144  0.8555
   37MOL0     C 4788   1.475   6.201   0.987 -0.6798 -0.6109  0.3149
   37MOL0     C 4789   1.327   6.178   0.987  0.5608  0.7698  0.5603
   37MOL0     C 4790   1.284   6.100   0.860  0.1382 -0.4194 -0.0872
   37MOL0     C 4791   1.151   6.027   0.872  0.2948 -0.1034  0.3244
   37MOL0     C 4792   1.029   6.109   0.834 -0.1860  0.4671  0.0037
   37MOL0     C 4793   0.892   6.044   0.815  0.4261  0.2229  0.4596
   37MOL0     C 4794   0.853   5.971   0.945 -0.0269  0.4155  0.1404
   37MOL0     C 4795   0.755   5.851   0.934  0.5274  0.1933 -0.6111
   37MOL0    Cl 4796   0.593   5.904   0.867  0.0287 -0.1932  0.2968
   37MOL0     C 4797   1.759   6.284   0.938  0.2848  0.4244 -0.3559
   37MOL0     C 4798   1.882   6.352   0.970  0.8251  0.7949  0.6485
   37MOL0     O 4799   2.086   6.496   0.815 -0.1460 -0.1672  0.4393
   37MOL0     C 4800   2.254   6.663   1.074 -0.4050  0.4869 -0.5335
   37MOL0     C 4801   2.382   6.695   1.115  0.6361 -0.1350 -0.1760
   37MOL0     N 4802   3.106   6.357   1.133  0.9596  0.6794 -0.2954
   37MOL0     N 4803   3.231   6.341   1.121 -0.4282  0.6157 -0.0891
   37MOL0     C 4804   4.566   6.505   1.336 -0.0481 -0.4085  0.4827
   37MOL0     C 4805   4.702   6.512   1.336 -0.3909  0.5565  0.1146
   37MOL0     C 4806   5.148   6.348   1.402  0.2652 -0.1951  0.1440
   37MOL0     C 4807   5.236   6.263   1.467 -0.4177  0.3000  0.4151
   37MOL0     C 4808   5.368   6.288   1.456 -0.3738 -0.2366  0.1938
   37MOL0     C 4809   5.422   6.406   1.395  0.4793 -0.4046  0.2779
   37MOL0     O 4810   5.555   6.435   1.399  0.2517 -0.5185  0.6374
   37MOL0     C 4811   5.586   6.510   1.513  0.2035  0.1244 -0.3983
   37MOL0     C 4812   5.734   6.483   1.546  0.0739 -0.0531 -0.4350
   37MOL0     C 4813   5.795   6.610   1.613  0.1602  0.2123 -0.2309
   37MOL0     C 4814   5.948   6.598   1.621 -0.9097 -0.1339 -0.6214
   37MOL0     C 4815   6.005   6.480   1.682  0.3462  0.4472  0.1096
   37MOL0     C 4816   6.065   6.385   1.738  0.8995  0.1758  0.9290
   37MOL0     C 4817   5.331   6.491   1.327 -1.0525  0.1505  0.2114
   37MOL0     C 4818   5.194   6.466   1.334 -0.8430 -0.2209  0.8609
   37MOL0     H 4819   4.750   6.255   1.564 -4.3709 -3.0205  0.4726
   37MOL0     H 4820   4.516   6.247   1.549 -0.3513  1.2692  1.2207
   37MOL0     H 4821   4.364   6.355   1.203  0.1841 -2.4437  1.9142
   37MOL0     H 4822   4.280   6.506   1.246  1.7825  1.0643 -0.0819
   37MOL0     H 4823   4.168   6.246   1.370 -1.5362 -0.3960 -1.2503
   37MOL0     H 4824   4.176   6.257   1.186 -0.4259 -1.6770  0.6931
   37MOL0     H 4825   4.062   6.477   1.211  1.0765  0.5324  0.7351
   37MOL0     H 4826   4.038   6.451   1.386  1.0455  2.2539 -2.0646
   37MOL0     H 4827   3.922   6.249   1.193 -2.3129 -1.3808  0.9630
   37MOL0     H 4828   3.895   6.281   1.366  4.0018 -1.9209 -0.4102
   37MOL0     H 4829   3.829   6.515   1.171  0.7312  0.4866 -1.0216
   37MOL0     H 4830   3.747   6.451   1.316 -0.1391  0.3718 -0.5110
   37MOL0     H 4831   3.683   6.259   1.220  0.9289  0.9888  1.0783
   37MOL0     H 4832   3.726   6.328   1.050 -2.6170  0.0717 -1.0788
   37MOL0     H 4833   3.561   6.521   1.106 -0.7524 -0.1666 -2.8034
   37MOL0     H 4834   3.501   6.368   1.044  1.9138  1.0617 -1.1408
   37MOL0     H 4835   3.477   6.434   1.333  0.6517  0.5567 -1.6496
   37MOL0     H 4836   3.453   6.271   1.267 -2.7971 -0.5385  2.0328
   37MOL0     H 4837   3.216   6.534   1.386  0.4668  1.5663 -0.7456
   37MOL0     H 4838   2.985   6.553   1.380 -1.0624 -1.3090  1.3763
   37MOL0     H 4839   2.932   6.390   1.384  1.4738 -0.2074  1.1008
   37MOL0     H 4840   2.770   6.543   1.298  0.1371  2.1794  0.3288
   37MOL0     H 4841   2.810   6.421   1.173  0.7794 -0.7709 -1.7244
   37MOL0     H 4842   2.869   6.712   1.182 -1.8421  1.0673  0.2811
   37MOL0     H 4843   2.944   6.593   1.060  0.6603 -2.0658  1.6395
   37MOL0     H 4844   2.725   6.527   0.991 -2.5989 -0.5600  1.3510
   37MOL0     H 4845   2.760   6.708   0.969  1.8148 -0.5108 -1.0274
   37MOL0     H 4846   2.551   6.536   0.869  0.4274  0.6451  0.0080
   37MOL0     H 4847   2.330   6.478   0.801  1.8129  2.7598 -2.6377
   37MOL0     H 4848   1.774   6.664   1.011 -1.8243  1.7345 -0.9177
   37MOL0     H 4849   1.547   6.550   0.935  2.7176  4.4435 -0.3785
   37MOL0     H 4850   1.501   6.235   1.088 -0.5981  0.6923 -0.1222
   37MOL0     H 4851   1.532   6.109   0.968  0.0479  0.1685 -1.5565
   37MOL0     H 4852   1.284   6.278   0.999 -1.2152 -0.0774  1.7003
   37MOL0     H 4853   1.311   6.113   1.073 -1.1746  1.5156  0.8485
   37MOL0     H 4854   1.347   6.015   0.833  2.1244  0.9740 -0.0334
   37MOL0     H 4855   1.292   6.177   0.782  1.7611  0.0535  0.5044
   37MOL0     H 4856   1.151   5.947   0.798  0.7805  0.0261  0.1859
   37MOL0     H 4857   1.147   5.978   0.970  0.5430 -1.3411 -0.2704
   37MOL0     H 4858   1.059   6.186   0.762 -0.6770  1.2352  0.5988
   37MOL0     H 4859   1.015   6.171   0.923  1.3387 -0.8475  1.2071
   37MOL0     H 4860   0.890   5.971   0.734  1.5403  1.2252 -0.4940
   37MOL0     H 4861   0.819   6.122   0.793  0.5547  0.2290  0.0532
   37MOL0     H 4862   0.947   5.928   0.980 -1.3384 -2.9002 -0.1023
   37MOL0     H 4863   0.831   6.051   1.016  2.0468  0.5689  0.6789
   37MOL0     H 4864   0.740   5.812   1.035  1.0950 -0.6615 -0.8509
   37MOL0     H 4865   0.798   5.774   0.870 -2.0582 -1.4485 -0.5127
   37MOL0     H 4866   1.750   6.178   0.917 -0.6769  0.5548 -0.6093
   37MOL0     H 4867   1.976   6.300   0.974  0.3089 -0.1305  1.0776
   37MOL0     H 4868   2.170   6.709   1.125  1.0750  2.2394  0.4836
   37MOL0     H 4869   2.391   6.763   1.199 -0.1142  0.1699 -0.3330
   37MOL0     H 4870   4.512   6.580   1.278  0.6167  1.0108  1.6473
   37MOL0     H 4871   4.751   6.587   1.275 -1.2356 -0.1204 -1.4410
   37MOL0     H 4872   5.201   6.177   1.524 -2.5950  0.2389 -0.8767
   37MOL0     H 4873   5.445   6.230   1.506  0.4263  0.3341 -0.3641
   37MOL0     H 4874   5.517   6.494   1.597  0.8691  1.0414  0.3370
   37MOL0     H 4875   5.580   6.618   1.499  0.0635  0.4759  1.9373
   37MOL0     H 4876   5.735   6.402   1.619  1.0230 -0.8480 -1.2910
   37MOL0     H 4877   5.790   6.443   1.461 -2.5920 -3.1027 -0.9391
   37MOL0     H 4878   5.748   6.641   1.707 -1.5553  1.6878 -1.5035
   37MOL0     H 4879   5.767   6.689   1.543 -0.3698 -0.2810 -0.5840
   37MOL0     H 4880   5.983   6.611   1.518 -2.8551 -0.2494 -1.3353
   37MOL0     H 4881   5.977   6.684   1.683  0.8042 -1.2643  0.2181
   37MOL0     H 4882   6.121   6.310   1.790  1.2879  0.5681  1.0798
   37MOL0     H 4883   5.357   6.578   1.268 -2.6660  1.3750  1.2202
   37MOL0     H 4884   5.124   6.536   1.289 -0.0225 -0.8504 -1.5315
   38MOL0     O 4885   9.094   5.945   8.921 -0.5192 -0.4082 -0.5110
   38MOL0     C 4886   9.122   6.052   8.851  0.2112  0.5656  0.0414
   38MOL0     O 4887   9.042   6.110   8.766 -0.9618 -0.1256  0.3748
   38MOL0     C 4888   8.911   6.073   8.779  0.0764  0.0651 -0.2085
   38MOL0     C 4889   8.876   5.954   8.712 -0.4783 -0.9610  0.5495
   38MOL0     C 4890   8.743   5.916   8.697  0.1539 -1.2445  0.2170
   38MOL0     C 4891   8.637   5.994   8.753  0.4898  0.5210  0.0827
   38MOL0     O 4892   8.501   5.957   8.759 -0.5394  0.3591  0.1049
   38MOL0     C 4893   8.473   5.824   8.706 -0.1180 -0.5128 -0.1950
   38MOL0     C 4894   8.326   5.790   8.748 -0.8712  0.3155 -0.0317
   38MOL0     C 4895   8.235   5.873   8.666 -0.6568 -0.0511  0.1629
   38MOL0     C 4896   8.091   5.843   8.720 -0.2556 -0.4858  0.2346
   38MOL0     C 4897   7.994   5.926   8.638  0.5064  0.2309  0.9777
   38MOL0     C 4898   8.022   6.077   8.643  0.6366 -0.3629 -0.9818
   38MOL0     C 4899   7.909   6.164   8.579  0.6259  0.4302 -0.1155
   38MOL0     C 4900   7.903   6.312   8.616 -0.4622  0.4319 -0.3917
   38MOL0     N 4901   7.807   6.376   8.536  0.0838  0.2508  0.5478
   38MOL0     C 4902   7.822   6.404   8.404 -0.5836  0.1141  0.4610
   38MOL0     C 4903   7.714   6.481   8.368 -0.1863 -0.3377  0.0637
   38MOL0     C 4904   7.690   6.536   8.229 -0.3471  0.2874  0.4683
   38MOL0     C 4905   7.789   6.639   8.190  0.7140 -0.0259  0.4133
   38MOL0     C 4906   7.771   6.684   8.045 -0.0119 -0.0176 -1.0794
   38MOL0     C 4907   7.851   6.806   8.010 -0.1866 -0.1332  0.0113
   38MOL0     O 4908   7.994   6.797   8.035 -0.4400 -0.2927 -0.4349
   38MOL0     C 4909   8.059   6.904   7.987 -1.0113 -0.3521  0.2584
   38MOL0     C 4910   8.182   6.873   7.924  0.2831 -0.1182 -0.4728
   38MOL0     C 4911   8.263   6.976   7.875  0.8783 -0.9100  0.6731
   38MOL0     C 4912   8.225   7.115   7.908  0.2664  0.3564 -0.4910
   38MOL0     C 4913   8.312   7.230   7.881 -1.3302 -0.6791 -0.0103
   38MOL0     O 4914   8.245   7.354   7.891 -0.6409 -0.2247 -0.2704
   38MOL0     C 4915   8.326   7.462   7.859 -0.1830  0.1628  0.2553
   38MOL0     C 4916   8.377   7.451   7.728  0.3153 -0.3541 -0.2195
   38MOL0     C 4917   8.466   7.553   7.687 -0.0186  0.5278  0.2544
   38MOL0     C 4918   8.504   7.662   7.762  1.0093  1.0996 -0.2100
   38MOL0     O 4919   8.580   7.763   7.709 -0.0411  0.1556  0.2143
   38MOL0     C 4920   8.665   7.833   7.806 -0.2591 -0.3091 -0.1295
   38MOL0     C 4921   8.777   7.896   7.733  0.4781  0.0245 -0.0459
   38MOL0     C 4922   8.902   7.803   7.723 -0.2083 -0.1614  0.5540
   38MOL0     C 4923   9.025   7.843   7.643 -0.4074 -0.0130 -0.2611
   38MOL0     C 4924   9.138   7.734   7.638 -0.9889 -0.4632  0.3689
   38MOL0     C 4925   9.259   7.755   7.736  1.0998  0.4521  0.4434
   38MOL0     C 4926   9.233   7.658   7.855  0.5728 -0.5027 -0.3784
   38MOL0     C 4927   9.342   7.667   7.958  0.9859  0.0751  0.5383
   38MOL0    Cl 4928   9.391   7.835   8.002 -0.1679 -0.1774 -0.1625
   38MOL0     C 4929   8.450   7.664   7.899 -0.9556  0.2354  0.6877
   38MOL0     C 4930   8.362   7.563   7.940 -0.2466 -0.2426 -0.1831
   38MOL0     O 4931   8.435   7.210   7.875 -0.9564 -0.2265  0.1430
   38MOL0     C 4932   8.104   7.140   7.969  0.3226  0.2554 -0.3113
   38MOL0     C 4933   8.021   7.032   8.005  0.0702  0.3777 -0.6274
   38MOL0     N 4934   7.636   6.497   8.477  0.1227 -0.0595 -1.1074
   38MOL0     N 4935   7.691   6.430   8.581 -0.0902 -0.0750  1.0132
   38MOL0     C 4936   8.687   6.099   8.835  0.4263 -0.2094 -0.5705
   38MOL0     C 4937   8.812   6.146   8.842  0.0461  0.6961  0.3715
   38MOL0     C 4938   9.265   6.096   8.832  0.0166  0.3278 -0.5238
   38MOL0     C 4939   9.315   6.164   8.720 -0.2659 -0.0385  0.1635
   38MOL0     C 4940   9.448   6.187   8.694  0.3538 -0.7376 -0.1344
   38MOL0     C 4941   9.543   6.146   8.788 -0.2195  0.0062  0.2525
   38MOL0     O 4942   9.676   6.189   8.780 -0.7497  0.0431 -0.3679
   38MOL0     C 4943   9.747   6.167   8.656 -0.2321 -0.0755 -0.0963
   38MOL0     C 4944   9.792   6.303   8.603  0.0971  0.5907 -0.2466
   38MOL0     C 4945   9.923   6.304   8.511 -0.3965  0.1743 -0.5317
   38MOL0     C 4946  10.036   6.224   8.577  0.4095  0.1112 -0.3006
   38MOL0     C 4947  10.171   6.258   8.528  0.2809  0.8891 -0.0376
   38MOL0     C 4948  10.266   6.294   8.463  0.2022 -0.8273  0.3880
   38MOL0     C 4949   9.502   6.081   8.910  0.3486  0.3330  0.4346
   38MOL0     C 4950   9.363   6.055   8.924 -0.0924  0.0943 -0.6463
   38MOL0     H 4951   8.961   5.896   8.677  0.0977 -0.6606  1.4377
   38MOL0     H 4952   8.718   5.816   8.663 -0.0064 -1.4274  0.8598
   38MOL0     H 4953   8.540   5.752   8.755 -1.0132  0.1270  2.1063
   38MOL0     H 4954   8.487   5.824   8.598  2.3089 -0.9414  0.0428
   38MOL0     H 4955   8.304   5.821   8.850 -4.4067  1.8749 -1.1213
   38MOL0     H 4956   8.308   5.685   8.721 -1.8230  0.9749 -2.2324
   38MOL0     H 4957   8.241   5.848   8.559  0.1371 -2.9054  0.7660
   38MOL0     H 4958   8.273   5.975   8.674  1.1166 -0.3666 -2.7036
   38MOL0     H 4959   8.075   5.736   8.709  0.4777 -0.4837 -1.1084
   38MOL0     H 4960   8.092   5.884   8.821  0.9382  1.5471 -0.5254
   38MOL0     H 4961   7.891   5.923   8.675  0.1979  3.5645  0.6931
   38MOL0     H 4962   8.009   5.887   8.536  1.8227 -0.4969  1.4280
   38MOL0     H 4963   8.115   6.086   8.586  0.3709  0.2418 -1.3319
   38MOL0     H 4964   8.040   6.109   8.746  2.1384  2.0799 -1.9076
   38MOL0     H 4965   7.926   6.156   8.471 -3.5718  0.6355 -0.9488
   38MOL0     H 4966   7.815   6.116   8.607  2.0852 -1.5075  1.7889
   38MOL0     H 4967   8.001   6.359   8.603  1.4509 -3.0213  0.0711
   38MOL0     H 4968   7.869   6.318   8.720  0.9243 -0.6933  0.1666
   38MOL0     H 4969   7.904   6.378   8.338 -1.2757 -2.1224  0.3925
   38MOL0     H 4970   7.586   6.567   8.216 -1.3852 -1.8908  2.6161
   38MOL0     H 4971   7.709   6.458   8.154  0.9822  0.8335  0.2106
   38MOL0     H 4972   7.890   6.602   8.208 -0.0265 -1.9241  0.9643
   38MOL0     H 4973   7.764   6.728   8.250  0.3711 -0.5146  1.0183
   38MOL0     H 4974   7.799   6.600   7.981  1.4626  0.0796 -0.6038
   38MOL0     H 4975   7.668   6.716   8.029 -0.1829 -1.4512 -3.3403
   38MOL0     H 4976   7.810   6.888   8.069  0.7882  1.6207 -1.6252
   38MOL0     H 4977   7.836   6.830   7.905 -1.5926  0.8974  0.4271
   38MOL0     H 4978   8.217   6.772   7.907 -1.0518 -0.4447 -1.4249
   38MOL0     H 4979   8.354   6.962   7.817 -1.6607 -4.3158 -3.0515
   38MOL0     H 4980   8.370   7.368   7.659 -1.0785  1.7612 -2.8001
   38MOL0     H 4981   8.513   7.562   7.590  0.7233  2.2948  0.7415
   38MOL0     H 4982   8.707   7.771   7.886 -0.2715  1.2752  1.1325
   38MOL0     H 4983   8.599   7.902   7.859  1.9659  0.0448  2.4500
   38MOL0     H 4984   8.808   7.981   7.794 -1.0726 -0.5966  1.7315
   38MOL0     H 4985   8.748   7.946   7.640 -0.0367 -0.4944 -0.1703
   38MOL0     H 4986   8.860   7.710   7.684 -2.6009  0.5875  1.1830
   38MOL0     H 4987   8.942   7.782   7.823  1.8222  2.3908  0.3846
   38MOL0     H 4988   8.985   7.852   7.542 -0.4686  1.1721 -0.1392
   38MOL0     H 4989   9.063   7.940   7.676 -3.0992  0.7630  0.7539
   38MOL0     H 4990   9.185   7.746   7.540 -0.6801  0.3158  0.6044
   38MOL0     H 4991   9.098   7.632   7.642 -2.7384 -0.2472 -4.5334
   38MOL0     H 4992   9.268   7.858   7.771 -2.8272  1.9618 -2.2316
   38MOL0     H 4993   9.351   7.732   7.682  1.6313  0.2814  1.3991
   38MOL0     H 4994   9.132   7.664   7.894  0.8331  0.5663  0.1699
   38MOL0     H 4995   9.247   7.562   7.804 -1.3293 -1.1100  0.1773
   38MOL0     H 4996   9.430   7.613   7.924 -0.5709 -1.2282 -1.6877
   38MOL0     H 4997   9.307   7.619   8.050 -0.8286 -2.4670 -1.3298
   38MOL0     H 4998   8.467   7.744   7.970 -2.0609  0.7029  0.4468
   38MOL0     H 4999   8.320   7.582   8.038 -0.9659  0.8585 -0.6942
   38MOL0     H 5000   8.080   7.242   7.995 -3.5315 -0.1462 -1.5270
   38MOL0     H 5001   7.929   7.057   8.057 -1.0433 -0.0941 -2.3128
   38MOL0     H 5002   8.615   6.158   8.891  0.2886  0.9889 -1.9653
   38MOL0     H 5003   8.837   6.242   8.886  1.3920  0.1553  0.8615
   38MOL0     H 5004   9.238   6.177   8.644 -0.8783 -2.1960  0.3415
   38MOL0     H 5005   9.475   6.236   8.601 -0.9544  0.5808  0.1368
   38MOL0     H 5006   9.704   6.112   8.572  3.0043 -2.4143 -0.4336
   38MOL0     H 5007   9.834   6.107   8.685 -1.3012 -1.4433  0.4115
   38MOL0     H 5008   9.707   6.357   8.561 -0.4484 -0.1715 -0.1342
   38MOL0     H 5009   9.820   6.372   8.683  3.1244 -0.2338 -0.4483
   38MOL0     H 5010   9.971   6.402   8.505  2.4741 -0.8342  2.8698
   38MOL0     H 5011   9.897   6.253   8.418  2.9419 -2.2689 -0.3273
   38MOL0     H 5012  10.036   6.260   8.681  2.1941 -0.8226  0.0554
   38MOL0     H 5013  10.022   6.116   8.574  1.7270 -0.1303  1.0787
   38MOL0     H 5014  10.354   6.315   8.405  1.2291 -1.0140  1.8217
   38MOL0     H 5015   9.571   6.065   8.992  0.4645  0.9994  0.4713
   38MOL0     H 5016   9.344   6.005   9.018  0.5608 -1.9411 -1.5253
   39MOL0     O 5017   0.256   9.564   6.318 -0.3589 -0.0893 -0.2433
   39MOL0     C 5018   0.261   9.451   6.286  0.1196  0.0949  0.3048
   39MOL0     O 5019   0.351   9.361   6.336 -0.1278 -0.4003  0.2756
   39MOL0     C 5020   0.424   9.386   6.458 -0.3356 -0.2380 -0.2964
   39MOL0     C 5021   0.555   9.437   6.459  0.6289  0.9710 -0.4965
   39MOL0     C 5022   0.618   9.448   6.593 -0.7357 -0.5952  0.5933
   39MOL0     C 5023   0.552   9.404   6.710 -1.3116  0.6706 -0.1699
   39MOL0     O 5024   0.620   9.411   6.834  0.2149  0.2847  0.0545
   39MOL0     C 5025   0.680   9.535   6.881 -0.3122 -0.2582  0.6635
   39MOL0     C 5026   0.628   9.591   7.019 -0.8119  0.2023  1.0294
   39MOL0     C 5027   0.624   9.483   7.118 -0.3650  0.5221  0.7975
   39MOL0     C 5028   0.568   9.532   7.246  0.2154  0.3183 -0.1351
   39MOL0     C 5029   0.598   9.443   7.366 -0.1590 -0.6582  0.8659
   39MOL0     C 5030   0.520   9.484   7.496  0.0342 -0.5185  2.0266
   39MOL0     C 5031   0.536   9.375   7.601  0.3313 -0.2956  0.9280
   39MOL0     C 5032   0.441   9.260   7.564 -0.3680  0.6013  0.5773
   39MOL0     N 5033   0.412   9.175   7.681  0.6494  0.6810  0.0136
   39MOL0     C 5034   0.353   9.212   7.803 -0.0292 -1.3919  0.7779
   39MOL0     C 5035   0.334   9.105   7.876  0.7624 -0.3313  0.9319
   39MOL0     C 5036   0.259   9.096   8.006 -0.6790 -0.3853 -0.4519
   39MOL0     C 5037   0.354   9.127   8.121 -0.1098 -0.8262  0.3387
   39MOL0     C 5038   0.443   9.003   8.167 -0.4490 -0.2615  0.2120
   39MOL0     C 5039   0.551   9.040   8.270  0.5488 -1.2847  0.0322
   39MOL0     O 5040   0.474   9.055   8.397  0.1938 -0.7148  0.3921
   39MOL0     C 5041   0.518   9.141   8.490 -0.5566 -0.9133 -1.1992
   39MOL0     C 5042   0.422   9.204   8.572  0.1167 -0.7406  0.8268
   39MOL0     C 5043   0.460   9.282   8.686  0.3198  0.5866 -0.2324
   39MOL0     C 5044   0.588   9.295   8.723 -0.7669 -1.4033 -0.0255
   39MOL0     C 5045   0.628   9.329   8.858  0.4753 -0.2965 -0.5632
   39MOL0     O 5046   0.536   9.294   8.959 -0.1326 -0.0866  0.0268
   39MOL0     C 5047   0.559   9.320   9.096 -0.9799  0.2614 -0.3017
   39MOL0     C 5048   0.527   9.215   9.181  1.0114  0.5045 -0.1305
   39MOL0     C 5049   0.544   9.222   9.318 -0.0666  0.4890  0.7401
   39MOL0     C 5050   0.594   9.336   9.366 -0.2910  0.1995 -0.7553
   39MOL0     O 5051   0.618   9.332   9.501 -0.9399  0.1944  0.7646
   39MOL0     C 5052   0.757   9.311   9.523  0.2279  0.2592 -0.0823
   39MOL0     C 5053   0.769   9.199   9.630  0.6460  0.1174  0.7355
   39MOL0     C 5054   0.802   9.255   9.763  0.1256 -0.2340  0.1377
   39MOL0     C 5055   0.952   9.282   9.776  0.0038 -0.5599 -0.7925
   39MOL0     C 5056   0.982   9.293   9.925 -0.1327  0.1158  0.0336
   39MOL0     C 5057   1.125   9.356   9.946 -0.0153  0.2002 -0.6464
   39MOL0     C 5058   1.237   9.243   9.949 -0.9141 -0.0053  0.1511
   39MOL0     C 5059   1.233   9.156  10.071  0.0266 -1.1029  0.3151
   39MOL0    Cl 5060   1.248   9.239  10.230 -0.3680 -0.2813  0.0878
   39MOL0     C 5061   0.635   9.443   9.287  0.5580 -0.3127 -0.1427
   39MOL0     C 5062   0.621   9.438   9.151  0.5485  0.2885 -0.7898
   39MOL0     O 5063   0.728   9.394   8.874  0.2251  0.6961  0.2255
   39MOL0     C 5064   0.689   9.243   8.634  0.5332 -0.0725  1.1086
   39MOL0     C 5065   0.655   9.175   8.514 -0.1543  0.1045 -0.8354
   39MOL0     N 5066   0.395   9.003   7.806 -0.6270 -0.0675  0.0946
   39MOL0     N 5067   0.436   9.044   7.695  1.0385  0.1385 -0.7429
   39MOL0     C 5068   0.424   9.355   6.699 -0.2215  0.5538  0.2802
   39MOL0     C 5069   0.358   9.347   6.574  0.1872  0.1340 -0.3170
   39MOL0     C 5070   0.177   9.401   6.175  0.9125 -1.1093  0.2703
   39MOL0     C 5071   0.207   9.278   6.119  0.3270  0.1992  0.2923
   39MOL0     C 5072   0.133   9.222   6.015 -0.2880  0.7215 -0.3599
   39MOL0     C 5073   0.025   9.292   5.971 -0.1094  0.7666  0.4357
   39MOL0     O 5074  -0.048   9.229   5.872  0.7690 -0.6507  0.6281
   39MOL0     C 5075  -0.165   9.289   5.810  0.1082 -0.0182  0.6049
   39MOL0     C 5076  -0.286   9.270   5.903 -0.0040  0.5573 -0.3233
   39MOL0     C 5077  -0.417   9.311   5.847  0.2482 -0.6039  0.5818
   39MOL0     C 5078  -0.472   9.266   5.709 -1.1318  0.1058  0.6322
   39MOL0     C 5079  -0.619   9.287   5.697 -0.8074 -0.2355  0.2797
   39MOL0     C 5080  -0.736   9.299   5.679 -0.6916 -0.6930 -0.2837
   39MOL0     C 5081  -0.010   9.420   6.022  1.1620 -0.0505  0.2895
   39MOL0     C 5082   0.063   9.469   6.129  0.2149 -0.7413  0.2003
   39MOL0     H 5083   0.607   9.452   6.365 -0.6784 -0.2858 -1.4715
   39MOL0     H 5084   0.715   9.494   6.610  0.2912 -1.0869 -3.0163
   39MOL0     H 5085   0.682   9.618   6.809  0.5399  2.7067  3.8637
   39MOL0     H 5086   0.784   9.509   6.904 -0.4067 -1.0943  0.1871
   39MOL0     H 5087   0.522   9.617   7.003 -1.3318 -0.5425  2.9521
   39MOL0     H 5088   0.692   9.674   7.048  0.1574  0.1615 -0.8547
   39MOL0     H 5089   0.727   9.447   7.122 -0.5445 -1.2327 -4.0206
   39MOL0     H 5090   0.563   9.394   7.098  0.1217  0.0381  1.4188
   39MOL0     H 5091   0.607   9.633   7.267 -1.1439  0.5811  1.3508
   39MOL0     H 5092   0.459   9.545   7.247 -0.1116 -2.0130 -1.1079
   39MOL0     H 5093   0.705   9.458   7.385  0.5995  2.5854 -4.1102
   39MOL0     H 5094   0.585   9.337   7.340  0.2319 -0.7623  1.0811
   39MOL0     H 5095   0.414   9.493   7.470  0.1275  0.2190  1.8719
   39MOL0     H 5096   0.561   9.577   7.537  0.1407 -0.0888  0.9813
   39MOL0     H 5097   0.640   9.345   7.614  1.3929  1.4737 -2.2644
   39MOL0     H 5098   0.506   9.417   7.698  1.4927  0.2895  1.0428
   39MOL0     H 5099   0.481   9.214   7.474 -4.5987  0.6099 -1.5857
   39MOL0     H 5100   0.344   9.301   7.532 -1.6070  0.3011  3.5822
   39MOL0     H 5101   0.305   9.308   7.819 -2.0160 -2.7205  3.6764
   39MOL0     H 5102   0.230   8.991   8.015  0.8039 -0.6979  1.8147
   39MOL0     H 5103   0.169   9.157   8.010 -0.2760  0.2015  3.4090
   39MOL0     H 5104   0.296   9.165   8.206  2.0895 -0.8789  1.9625
   39MOL0     H 5105   0.416   9.207   8.079 -0.4731 -0.5813  0.2667
   39MOL0     H 5106   0.383   8.921   8.209 -0.2643 -1.3764 -1.5812
   39MOL0     H 5107   0.499   8.973   8.078 -0.9672  0.4907 -0.3776
   39MOL0     H 5108   0.587   9.139   8.243  1.2997 -1.0932  1.6346
   39MOL0     H 5109   0.630   8.965   8.279 -1.2385 -3.0900  1.8506
   39MOL0     H 5110   0.322   9.163   8.573 -1.0834  1.7406  4.6978
   39MOL0     H 5111   0.375   9.305   8.750  0.0756 -1.7425  0.3609
   39MOL0     H 5112   0.471   9.127   9.150 -1.3959  1.3623  1.4953
   39MOL0     H 5113   0.513   9.149   9.392  0.6851  1.1383  1.7213
   39MOL0     H 5114   0.799   9.406   9.556  1.2217 -0.5393  1.0313
   39MOL0     H 5115   0.808   9.273   9.433  1.4484  1.0347  0.2636
   39MOL0     H 5116   0.846   9.129   9.596 -0.7006  0.7489 -4.3515
   39MOL0     H 5117   0.675   9.142   9.634  0.0418  1.1297  1.9379
   39MOL0     H 5118   0.777   9.189   9.848  0.5363  1.4431  1.6106
   39MOL0     H 5119   0.754   9.351   9.782 -0.4480 -0.7098  1.1763
   39MOL0     H 5120   1.020   9.201   9.746  0.8263 -0.3292  0.3857
   39MOL0     H 5121   0.988   9.376   9.733  1.9609 -0.9401 -0.1258
   39MOL0     H 5122   0.967   9.201   9.982  0.4585 -0.6158 -0.9505
   39MOL0     H 5123   0.907   9.363   9.962 -1.5509  1.9432 -5.3444
   39MOL0     H 5124   1.118   9.411  10.040 -2.1164  1.2342 -1.3397
   39MOL0     H 5125   1.129   9.424   9.860 -0.2595 -0.5317 -1.2442
   39MOL0     H 5126   1.239   9.172   9.866  2.9307 -2.3234  1.9645
   39MOL0     H 5127   1.327   9.304   9.936 -1.8369  1.2036 -0.7839
   39MOL0     H 5128   1.316   9.085  10.068  1.2621  0.3051 -0.1282
   39MOL0     H 5129   1.140   9.099  10.076 -0.3102 -0.6636 -0.7677
   39MOL0     H 5130   0.668   9.532   9.340 -0.7661 -0.5182  1.0984
   39MOL0     H 5131   0.663   9.521   9.097  2.4225  0.7372  1.1929
   39MOL0     H 5132   0.796   9.259   8.650  0.7373 -1.2971  1.0377
   39MOL0     H 5133   0.738   9.126   8.463  1.5009 -0.5696  2.2645
   39MOL0     H 5134   0.378   9.329   6.794  3.7409 -1.0991  1.9662
   39MOL0     H 5135   0.256   9.308   6.581 -0.7639  2.1796 -1.7551
   39MOL0     H 5136   0.287   9.213   6.153 -1.3388 -1.6853  0.7898
   39MOL0     H 5137   0.150   9.123   5.974 -0.0135  0.1466  1.0859
   39MOL0     H 5138  -0.162   9.233   5.716 -0.1839 -2.2463  1.8516
   39MOL0     H 5139  -0.147   9.394   5.786  2.6129 -0.9160 -2.0302
   39MOL0     H 5140  -0.305   9.168   5.938  2.9839 -0.2451 -0.7642
   39MOL0     H 5141  -0.261   9.335   5.987  0.6327  0.8877 -0.7548
   39MOL0     H 5142  -0.402   9.420   5.850  2.3547 -0.8227 -0.2986
   39MOL0     H 5143  -0.494   9.288   5.921 -0.7075 -1.3192 -0.6018
   39MOL0     H 5144  -0.425   9.311   5.621 -5.3585 -0.3504 -2.1232
   39MOL0     H 5145  -0.451   9.159   5.698 -1.4132  0.1220 -0.1116
   39MOL0     H 5146  -0.843   9.294   5.676 -1.1130  3.7550  0.2457
   39MOL0     H 5147  -0.095   9.475   5.982  2.4350  1.4524 -0.4054
   39MOL0     H 5148   0.037   9.566   6.170  0.9643  0.2753 -1.6295
   40MOL0     O 5149   8.839   6.033   7.773 -0.0467  0.4487 -0.5924
   40MOL0     C 5150   8.812   6.150   7.789 -0.1664 -1.3393 -0.0786
   40MOL0     O 5151   8.684   6.201   7.814  0.5218  0.5597 -0.1946
   40MOL0     C 5152   8.569   6.122   7.815 -0.0488 -0.4775 -0.6706
   40MOL0     C 5153   8.467   6.148   7.912 -0.8480 -0.5654  0.9705
   40MOL0     C 5154   8.348   6.074   7.917 -0.1357 -0.4010  0.9585
   40MOL0     C 5155   8.315   5.990   7.802 -0.3832 -0.1249 -0.6998
   40MOL0     O 5156   8.201   5.910   7.784 -0.5738 -0.2353 -0.5940
   40MOL0     C 5157   8.089   5.942   7.869 -0.7331  0.1930  0.1303
   40MOL0     C 5158   7.977   5.853   7.809  0.4809  0.0104 -0.6365
   40MOL0     C 5159   7.836   5.906   7.848  0.6037  0.0908  0.1254
   40MOL0     C 5160   7.707   5.857   7.782  1.3822  0.4052  1.1339
   40MOL0     C 5161   7.573   5.927   7.836  0.1352  1.2278  1.1335
   40MOL0     C 5162   7.466   5.895   7.727 -0.0999 -0.0001 -0.5887
   40MOL0     C 5163   7.333   5.972   7.724 -0.6261 -0.5427  0.0153
   40MOL0     C 5164   7.242   5.945   7.850  0.5253  0.6815  0.3377
   40MOL0     N 5165   7.100   5.983   7.837  0.5960 -0.0106 -0.5318
   40MOL0     C 5166   7.053   6.080   7.749 -0.0919  1.0122 -0.0548
   40MOL0     C 5167   6.924   6.099   7.779 -0.0320  0.5853  0.2944
   40MOL0     C 5168   6.836   6.186   7.701  0.6921 -0.9857  0.2850
   40MOL0     C 5169   6.768   6.091   7.603 -0.8989  0.0131 -0.2468
   40MOL0     C 5170   6.697   6.184   7.503  0.0497  0.7423 -0.4855
   40MOL0     C 5171   6.612   6.110   7.400 -0.1074  0.0973  0.3568
   40MOL0     O 5172   6.485   6.057   7.436 -0.2368  0.1277 -0.5015
   40MOL0     C 5173   6.381   6.044   7.351 -0.4426  0.0374 -0.4776
   40MOL0     C 5174   6.260   6.019   7.425 -0.7574  0.0356  0.2606
   40MOL0     C 5175   6.141   6.000   7.361 -0.6009  0.1936  0.5638
   40MOL0     C 5176   6.139   6.005   7.217  0.4417 -0.9613 -0.0103
   40MOL0     C 5177   6.007   5.998   7.146  0.3900 -0.8085  0.2133
   40MOL0     O 5178   5.894   5.992   7.221  0.7298  0.3150  0.3535
   40MOL0     C 5179   5.770   5.960   7.176  0.7156  0.3177 -0.0650
   40MOL0     C 5180   5.683   5.926   7.278  0.0643 -0.3894 -1.1713
   40MOL0     C 5181   5.560   5.882   7.255  0.9657 -0.3073  0.4543
   40MOL0     C 5182   5.499   5.872   7.121  0.0054  0.1009 -0.2991
   40MOL0     O 5183   5.365   5.839   7.096  0.2182  0.1629 -0.5437
   40MOL0     C 5184   5.275   5.806   7.201 -0.4456  0.5484 -0.2497
   40MOL0     C 5185   5.144   5.750   7.151  0.1374  0.0578  0.0096
   40MOL0     C 5186   5.039   5.734   7.256  0.4181 -0.3515 -0.4738
   40MOL0     C 5187   4.924   5.674   7.186  0.7231  0.0482 -1.0613
   40MOL0     C 5188   4.805   5.652   7.287 -0.1764  0.5377 -0.5058
   40MOL0     C 5189   4.702   5.545   7.267  0.7348  0.3646 -0.9944
   40MOL0     C 5190   4.651   5.535   7.124  0.1627 -0.8912 -0.3282
   40MOL0     C 5191   4.537   5.446   7.127 -0.3841  0.5031 -0.2877
   40MOL0    Cl 5192   4.491   5.424   6.954 -0.1172 -0.0135 -0.3458
   40MOL0     C 5193   5.590   5.907   7.021  0.3769  0.4909  0.0201
   40MOL0     C 5194   5.723   5.951   7.045 -0.8023 -0.4258 -0.5306
   40MOL0     O 5195   6.014   5.997   7.023  0.1464 -0.9498 -0.0159
   40MOL0     C 5196   6.260   6.017   7.148 -0.7115 -0.5832 -0.7287
   40MOL0     C 5197   6.383   6.036   7.214  0.2272 -0.5750 -0.1739
   40MOL0     N 5198   6.895   6.020   7.892  0.1292 -0.0186 -0.2809
   40MOL0     N 5199   7.000   5.950   7.926  0.1799  0.1465 -0.1236
   40MOL0     C 5200   8.408   5.985   7.703 -0.8753  0.5669  0.2341
   40MOL0     C 5201   8.536   6.040   7.716  0.3000 -0.0022  0.3533
   40MOL0     C 5202   8.914   6.254   7.786 -0.1491  1.6272  0.7515
   40MOL0     C 5203   8.896   6.385   7.836 -0.0227 -0.5577  0.0722
   40MOL0     C 5204   8.993   6.483   7.823 -0.1261 -0.0986 -0.8789
   40MOL0     C 5205   9.112   6.451   7.763 -0.0942  0.5475  0.3001
   40MOL0     O 5206   9.212   6.544   7.751 -0.3487  0.1016 -0.6718
   40MOL0     C 5207   9.266   6.562   7.614 -0.4709  1.1417 -0.5118
   40MOL0     C 5208   9.406   6.600   7.627  0.3637 -0.0519 -0.1057
   40MOL0     C 5209   9.465   6.696   7.521  0.9615 -0.0177 -0.1107
   40MOL0     C 5210   9.389   6.823   7.532 -0.1921 -0.2502  0.7571
   40MOL0     C 5211   9.442   6.916   7.432 -0.5820  0.5377 -0.1668
   40MOL0     C 5212   9.486   6.977   7.333 -0.1839 -0.5009 -0.2986
   40MOL0     C 5213   9.133   6.318   7.721  0.3211  0.3758 -0.3896
   40MOL0     C 5214   9.032   6.224   7.737 -0.7567 -1.0404  0.3667
   40MOL0     H 5215   8.500   6.227   7.979 -1.8015  1.1598 -0.5012
   40MOL0     H 5216   8.286   6.072   8.007  0.0180  0.3161  1.0810
   40MOL0     H 5217   8.058   6.047   7.860 -2.3585 -0.2628  0.0541
   40MOL0     H 5218   8.108   5.903   7.969  0.4120 -2.5753 -1.0564
   40MOL0     H 5219   7.981   5.749   7.841  1.8964  0.2950  0.1781
   40MOL0     H 5220   7.976   5.847   7.700 -0.0503  0.6809 -0.6814
   40MOL0     H 5221   7.832   6.015   7.833 -0.5009 -0.1750 -1.9356
   40MOL0     H 5222   7.829   5.892   7.956 -0.0992  2.5516  0.4722
   40MOL0     H 5223   7.716   5.885   7.676  0.0080 -0.7157  0.6895
   40MOL0     H 5224   7.691   5.750   7.798 -1.5128  0.3335 -1.3377
   40MOL0     H 5225   7.588   6.035   7.842 -0.5959  1.4324 -0.3102
   40MOL0     H 5226   7.549   5.882   7.933 -0.0039  0.2891  0.6746
   40MOL0     H 5227   7.447   5.788   7.724 -4.1878  0.4344  1.8798
   40MOL0     H 5228   7.497   5.924   7.626  0.6414 -2.2454 -1.0531
   40MOL0     H 5229   7.355   6.078   7.710  2.3067 -1.1182 -0.3660
   40MOL0     H 5230   7.276   5.941   7.636 -0.9514  3.8808 -1.5516
   40MOL0     H 5231   7.279   5.993   7.941 -1.2332  1.4020  0.7085
   40MOL0     H 5232   7.236   5.837   7.871  1.4831  0.7443  1.0038
   40MOL0     H 5233   7.099   6.121   7.660  2.4884  0.9203  1.1370
   40MOL0     H 5234   6.886   6.266   7.645 -2.8858  1.7594  0.6683
   40MOL0     H 5235   6.759   6.237   7.759  0.5471 -0.5061 -0.3163
   40MOL0     H 5236   6.712   6.018   7.661  1.7010  0.1543  2.6883
   40MOL0     H 5237   6.848   6.034   7.555  0.1921  0.6248  0.7928
   40MOL0     H 5238   6.636   6.260   7.551  0.0165 -0.6382  1.7968
   40MOL0     H 5239   6.771   6.252   7.460 -1.5126  2.7776 -0.0660
   40MOL0     H 5240   6.664   6.035   7.340 -4.1763 -0.5202 -2.7714
   40MOL0     H 5241   6.579   6.190   7.333 -3.5221  0.1257  1.8598
   40MOL0     H 5242   6.256   6.011   7.534 -0.4594  1.2590  0.3713
   40MOL0     H 5243   6.044   5.979   7.404 -3.3403  3.7684 -3.1626
   40MOL0     H 5244   5.719   5.937   7.380  0.9657 -0.2249 -1.4888
   40MOL0     H 5245   5.493   5.867   7.339 -1.2171  0.8253 -0.9795
   40MOL0     H 5246   5.245   5.900   7.248 -1.1540 -0.0899  0.6187
   40MOL0     H 5247   5.328   5.740   7.269 -1.7290  1.3246  1.5997
   40MOL0     H 5248   5.159   5.655   7.099  2.7751 -0.9343  2.3172
   40MOL0     H 5249   5.104   5.821   7.078  0.4467 -0.5262 -0.7327
   40MOL0     H 5250   5.009   5.831   7.295  1.1131 -1.0290  1.8721
   40MOL0     H 5251   5.071   5.667   7.337  2.2712 -1.2602 -1.8599
   40MOL0     H 5252   4.903   5.724   7.091 -1.9395  0.2462 -0.4301
   40MOL0     H 5253   4.950   5.569   7.172 -0.6515 -0.4839  0.1783
   40MOL0     H 5254   4.754   5.749   7.297 -1.2076  0.3020 -2.8341
   40MOL0     H 5255   4.839   5.627   7.388 -1.7142 -0.1087 -0.1215
   40MOL0     H 5256   4.621   5.549   7.341  0.6853 -2.7925 -0.7205
   40MOL0     H 5257   4.762   5.461   7.302  1.4967  1.7255  1.1421
   40MOL0     H 5258   4.617   5.632   7.088  0.1532 -0.9766 -0.5545
   40MOL0     H 5259   4.730   5.486   7.066 -1.0203 -1.8226 -1.1956
   40MOL0     H 5260   4.462   5.483   7.196 -4.3484 -5.3203 -0.7106
   40MOL0     H 5261   4.561   5.349   7.173  3.4205  2.2313  1.8806
   40MOL0     H 5262   5.548   5.898   6.922 -0.0707  0.4312  0.2104
   40MOL0     H 5263   5.784   5.978   6.960 -2.2010  2.7861 -0.6650
   40MOL0     H 5264   6.270   6.015   7.040  2.3173  0.9629 -0.5920
   40MOL0     H 5265   6.480   6.049   7.167  0.0554  1.3860 -0.0799
   40MOL0     H 5266   8.403   5.923   7.614  2.3950 -1.4982  1.3177
   40MOL0     H 5267   8.614   6.014   7.645 -0.9620  0.9075 -1.4354
   40MOL0     H 5268   8.803   6.429   7.871  0.5932 -0.0963  1.1652
   40MOL0     H 5269   8.986   6.581   7.869 -2.3117 -0.6497  0.1051
   40MOL0     H 5270   9.197   6.639   7.578 -0.0150  2.7256  1.7902
   40MOL0     H 5271   9.261   6.472   7.552  2.1663  1.5267 -1.4027
   40MOL0     H 5272   9.441   6.639   7.724  0.0891  1.6325 -0.6458
   40MOL0     H 5273   9.473   6.517   7.603 -0.8383 -0.9713 -0.3668
   40MOL0     H 5274   9.462   6.637   7.429  0.7702 -0.0346 -0.0928
   40MOL0     H 5275   9.567   6.709   7.560  0.3410  2.4064  0.8983
   40MOL0     H 5276   9.282   6.804   7.516  0.0870  0.2386 -2.3025
   40MOL0     H 5277   9.398   6.877   7.626 -1.8924  1.0520  0.2332
   40MOL0     H 5278   9.514   7.037   7.249  3.5313  1.2319  1.9320
   40MOL0     H 5279   9.235   6.304   7.687  0.9242 -0.0226  1.4837
   40MOL0     H 5280   9.051   6.122   7.708 -0.8013 -2.1282  3.7398
   41MOL0     O 5281   2.373   5.480   6.993 -0.1386  0.1827 -0.7677
   41MOL0     C 5282   2.476   5.523   7.051  0.2536 -0.7141  0.7285
   41MOL0     O 5283   2.603   5.477   7.023 -0.5178 -0.0372 -0.2007
   41MOL0     C 5284   2.623   5.399   6.912  1.0015 -0.1331 -0.3748
   41MOL0     C 5285   2.692   5.284   6.922  0.3830  0.0460 -0.1260
   41MOL0     C 5286   2.710   5.200   6.816 -0.8454 -0.1757  0.9803
   41MOL0     C 5287   2.663   5.241   6.685  0.7927 -0.5337 -0.2870
   41MOL0     O 5288   2.682   5.146   6.580  0.4554  1.1331 -0.6392
   41MOL0     C 5289   2.580   5.129   6.466 -0.9276  0.3039 -0.6388
   41MOL0     C 5290   2.579   4.977   6.419  0.0403  0.0159 -0.5064
   41MOL0     C 5291   2.480   4.884   6.508 -0.7044  0.6879 -0.0357
   41MOL0     C 5292   2.338   4.913   6.486  0.8678 -0.0199 -0.3198
   41MOL0     C 5293   2.260   4.815   6.581 -0.5752  0.0384  0.2684
   41MOL0     C 5294   2.113   4.824   6.549  0.0309  0.0573 -0.0040
   41MOL0     C 5295   2.041   4.961   6.559  0.6331 -0.1979 -0.0530
   41MOL0     C 5296   1.898   4.961   6.530  0.4417  0.4097  0.1377
   41MOL0     N 5297   1.838   5.067   6.446  0.2519 -0.1601 -0.7010
   41MOL0     C 5298   1.781   5.180   6.497 -0.7144  0.7205  0.3411
   41MOL0     C 5299   1.719   5.241   6.389  0.1324  0.1427 -0.7252
   41MOL0     C 5300   1.641   5.373   6.405  0.1022  0.1143  1.2770
   41MOL0     C 5301   1.485   5.333   6.403  0.2108  0.9982 -0.2641
   41MOL0     C 5302   1.400   5.457   6.403 -0.0723 -0.7135 -0.6501
   41MOL0     C 5303   1.366   5.497   6.553 -0.0452 -0.8206 -0.2421
   41MOL0     O 5304   1.278   5.396   6.601 -0.1273 -0.2037  0.1343
   41MOL0     C 5305   1.144   5.396   6.564 -0.0969  0.2202  0.8815
   41MOL0     C 5306   1.079   5.276   6.578 -0.0807  0.3845 -0.4313
   41MOL0     C 5307   0.942   5.255   6.566 -0.8945  0.2980 -0.1904
   41MOL0     C 5308   0.863   5.365   6.541  0.2639  0.6514  1.0946
   41MOL0     C 5309   0.716   5.353   6.542 -0.6336 -0.7857  0.4470
   41MOL0     O 5310   0.669   5.224   6.552 -0.0058 -0.4895 -1.3233
   41MOL0     C 5311   0.535   5.202   6.555 -0.4118  0.3353 -0.2778
   41MOL0     C 5312   0.509   5.078   6.499 -0.1202  1.0268 -0.4232
   41MOL0     C 5313   0.368   5.036   6.500 -0.3294  0.0832  0.2952
   41MOL0     C 5314   0.265   5.130   6.541 -0.0771  0.0735  0.6860
   41MOL0     O 5315   0.134   5.100   6.544 -0.1874  0.0398  0.2155
   41MOL0     C 5316   0.089   4.985   6.471 -0.4312  0.3936  0.4995
   41MOL0     C 5317  -0.070   5.001   6.475 -0.1004 -0.3979  0.8577
   41MOL0     C 5318  -0.140   4.874   6.425 -1.1438 -0.1326  0.4549
   41MOL0     C 5319  -0.094   4.806   6.293 -0.7822  0.1672 -0.3263
   41MOL0     C 5320  -0.159   4.668   6.248 -0.1677  0.3736 -0.1458
   41MOL0     C 5321  -0.315   4.670   6.262 -0.2144 -0.5541 -0.3102
   41MOL0     C 5322  -0.374   4.524   6.274 -0.5657  0.3569  0.3457
   41MOL0     C 5323  -0.379   4.452   6.145  0.2338 -0.1890  1.2120
   41MOL0    Cl 5324  -0.530   4.514   6.054 -0.0070 -0.2808  0.0810
   41MOL0     C 5325   0.306   5.252   6.593  1.0582 -0.3089 -0.0218
   41MOL0     C 5326   0.436   5.282   6.613 -0.5917  0.5185 -0.3802
   41MOL0     O 5327   0.645   5.449   6.517 -0.3328 -0.2077 -0.2795
   41MOL0     C 5328   0.926   5.490   6.521 -0.4362 -0.3770  0.4742
   41MOL0     C 5329   1.069   5.501   6.520 -0.0408 -0.3753 -0.7433
   41MOL0     N 5330   1.747   5.163   6.278 -1.3429  0.6232  0.1816
   41MOL0     N 5331   1.819   5.059   6.309  0.4255 -0.7206  0.8129
   41MOL0     C 5332   2.613   5.372   6.669 -0.7572  0.0524 -0.2241
   41MOL0     C 5333   2.588   5.452   6.786 -0.0372  0.7882  0.1791
   41MOL0     C 5334   2.457   5.613   7.172 -0.8751  0.2305  0.2702
   41MOL0     C 5335   2.335   5.665   7.199  0.1242 -0.4772 -0.1881
   41MOL0     C 5336   2.311   5.743   7.306  0.2342 -0.9439 -1.2034
   41MOL0     C 5337   2.418   5.774   7.394 -0.2066 -1.3920 -0.7365
   41MOL0     O 5338   2.402   5.846   7.512 -0.2588  0.0032 -0.1226
   41MOL0     C 5339   2.263   5.862   7.547  0.4185 -0.8497 -0.0431
   41MOL0     C 5340   2.249   5.923   7.689 -0.6178 -0.0664  0.0883
   41MOL0     C 5341   2.230   6.076   7.688 -0.4440 -0.0089  1.1874
   41MOL0     C 5342   2.361   6.158   7.663 -0.6695 -0.7398 -0.5750
   41MOL0     C 5343   2.429   6.188   7.791  0.4324  0.5769  0.3078
   41MOL0     C 5344   2.484   6.223   7.898 -0.2457  0.4585  0.3050
   41MOL0     C 5345   2.552   5.745   7.353  0.8966 -0.0740  1.1586
   41MOL0     C 5346   2.567   5.656   7.245  0.2894 -0.8869  0.2331
   41MOL0     H 5347   2.715   5.246   7.022 -0.5239 -2.0958 -0.6742
   41MOL0     H 5348   2.759   5.104   6.824 -1.7186 -0.5339  2.6412
   41MOL0     H 5349   2.602   5.193   6.380 -1.2081  0.8618 -0.3010
   41MOL0     H 5350   2.479   5.147   6.505 -1.9472 -0.2879 -2.8484
   41MOL0     H 5351   2.685   4.949   6.414  0.3581  0.3782  2.5479
   41MOL0     H 5352   2.550   4.971   6.313  2.6850 -2.4890 -1.2385
   41MOL0     H 5353   2.508   4.882   6.614 -2.3548  1.7315  0.4681
   41MOL0     H 5354   2.496   4.785   6.465 -1.1712  0.4167  0.3945
   41MOL0     H 5355   2.333   5.014   6.527  1.3154  0.4863 -1.4673
   41MOL0     H 5356   2.315   4.891   6.382 -1.9799 -0.6015  0.3456
   41MOL0     H 5357   2.277   4.835   6.687  1.8697  3.7965 -0.6372
   41MOL0     H 5358   2.289   4.713   6.555 -1.6132  0.4225 -2.9158
   41MOL0     H 5359   2.059   4.756   6.616 -1.9157 -0.0243 -1.5593
   41MOL0     H 5360   2.099   4.772   6.454 -0.5088 -1.8182  1.0488
   41MOL0     H 5361   2.028   4.994   6.663 -2.6598 -1.0006 -0.1273
   41MOL0     H 5362   2.091   5.035   6.495  1.6195  1.0140  1.9996
   41MOL0     H 5363   1.845   4.953   6.625  0.2383 -0.6204 -0.0437
   41MOL0     H 5364   1.876   4.868   6.476  2.4543  0.5420 -0.9915
   41MOL0     H 5365   1.793   5.217   6.598  0.1579  0.8607  0.1939
   41MOL0     H 5366   1.673   5.425   6.314 -0.5308  0.2968  1.1558
   41MOL0     H 5367   1.676   5.421   6.497 -0.0021 -0.9891  1.9073
   41MOL0     H 5368   1.470   5.268   6.489  0.0535 -1.2990 -1.9557
   41MOL0     H 5369   1.469   5.268   6.317 -0.2262  0.3732  0.2835
   41MOL0     H 5370   1.454   5.537   6.351  2.8858 -1.4329  1.0461
   41MOL0     H 5371   1.308   5.430   6.351 -1.7718  0.5339  1.5710
   41MOL0     H 5372   1.314   5.593   6.564  1.0974 -0.0490 -1.2898
   41MOL0     H 5373   1.453   5.513   6.617 -0.9643 -0.5871  0.9907
   41MOL0     H 5374   1.130   5.186   6.611  1.0402  0.5537 -1.6446
   41MOL0     H 5375   0.904   5.154   6.580 -0.8349  0.4940  1.6375
   41MOL0     H 5376   0.589   5.012   6.467 -0.7752  0.5069 -1.0422
   41MOL0     H 5377   0.353   4.932   6.470  2.7548 -1.3595  3.1675
   41MOL0     H 5378   0.118   4.890   6.516  0.0093 -0.1444 -0.8760
   41MOL0     H 5379   0.133   4.992   6.371 -0.8712  0.2258  0.2903
   41MOL0     H 5380  -0.087   5.080   6.400  0.5551  0.2367  1.3650
   41MOL0     H 5381  -0.115   5.031   6.570 -2.0898  0.5583 -0.2912
   41MOL0     H 5382  -0.243   4.907   6.410 -0.8310  1.5320  1.7204
   41MOL0     H 5383  -0.136   4.800   6.506 -0.9247 -0.2550  0.3347
   41MOL0     H 5384  -0.108   4.879   6.213 -0.6316  0.4539 -0.0899
   41MOL0     H 5385   0.011   4.778   6.301 -0.9423 -0.0724  1.6233
   41MOL0     H 5386  -0.126   4.582   6.308 -4.3776 -1.7282 -0.4394
   41MOL0     H 5387  -0.128   4.645   6.146  1.7645 -1.8011  0.8435
   41MOL0     H 5388  -0.357   4.728   6.179 -1.7837  0.9444  1.4385
   41MOL0     H 5389  -0.343   4.729   6.350 -0.2733 -0.1898 -0.5748
   41MOL0     H 5390  -0.307   4.460   6.333  2.8387  2.4370 -1.0466
   41MOL0     H 5391  -0.466   4.507   6.332 -0.6227 -1.5196 -0.2315
   41MOL0     H 5392  -0.393   4.344   6.155 -1.8314 -0.2440 -1.3255
   41MOL0     H 5393  -0.296   4.481   6.079  0.4426  0.2402  1.6554
   41MOL0     H 5394   0.232   5.326   6.622  1.3721 -0.7291  2.0156
   41MOL0     H 5395   0.464   5.378   6.654  0.8457 -0.1510  0.3008
   41MOL0     H 5396   0.878   5.580   6.484 -2.3604 -1.7786 -0.5915
   41MOL0     H 5397   1.114   5.595   6.490 -0.7047  0.5431  0.9932
   41MOL0     H 5398   2.590   5.406   6.569  0.1722  0.8759 -0.1809
   41MOL0     H 5399   2.538   5.546   6.766  1.7722  1.5552 -1.0437
   41MOL0     H 5400   2.248   5.650   7.136  0.4031  1.0604 -0.9825
   41MOL0     H 5401   2.209   5.779   7.314 -0.5282 -3.0129 -1.0509
   41MOL0     H 5402   2.193   5.778   7.543 -3.7412  2.3338 -1.2449
   41MOL0     H 5403   2.218   5.923   7.468  0.4675 -3.2707 -2.0891
   41MOL0     H 5404   2.159   5.881   7.735 -0.4657 -1.8772 -1.1641
   41MOL0     H 5405   2.323   5.883   7.760 -0.1358 -0.5090 -0.6465
   41MOL0     H 5406   2.185   6.123   7.776 -0.6807  1.4375  0.3309
   41MOL0     H 5407   2.151   6.104   7.617  0.2356 -0.4628  0.2326
   41MOL0     H 5408   2.425   6.111   7.588 -2.6346  0.4427 -3.1791
   41MOL0     H 5409   2.332   6.257   7.628  2.1697  0.9773  1.5485
   41MOL0     H 5410   2.532   6.251   7.989  0.3767 -1.1521  0.5002
   41MOL0     H 5411   2.634   5.774   7.418  1.4581  0.5995  0.1706
   41MOL0     H 5412   2.669   5.623   7.226  1.8317  1.2629  3.6746
   42MOL0     O 5413   0.918   5.696   5.645  0.3299  0.1007 -0.1313
   42MOL0     C 5414   0.877   5.689   5.533 -0.0094  0.0891  0.6615
   42MOL0     O 5415   0.875   5.576   5.450 -0.7965 -0.0701  0.3309
   42MOL0     C 5416   0.890   5.447   5.504  0.3760  0.5364  0.2015
   42MOL0     C 5417   0.786   5.390   5.581 -0.1207  0.1995  0.3454
   42MOL0     C 5418   0.811   5.269   5.642 -0.7676  0.8580 -0.5846
   42MOL0     C 5419   0.929   5.200   5.636 -0.6391 -0.3199 -0.6790
   42MOL0     O 5420   0.946   5.073   5.698 -0.4309 -0.8449 -0.1480
   42MOL0     C 5421   0.876   5.059   5.825  0.3385 -0.2618 -0.4790
   42MOL0     C 5422   0.955   4.976   5.916 -0.3708 -0.3366  0.0996
   42MOL0     C 5423   1.101   5.020   5.951  0.0355  0.3110 -0.4592
   42MOL0     C 5424   1.219   4.963   5.873  0.6998 -0.8520 -0.1902
   42MOL0     C 5425   1.364   4.968   5.931 -0.6430  1.2021 -0.3116
   42MOL0     C 5426   1.415   5.110   5.980  0.1266  0.3628 -0.3176
   42MOL0     C 5427   1.567   5.102   6.017  0.3907  0.8586  0.2023
   42MOL0     C 5428   1.667   5.076   5.895  0.1810  0.4694 -0.1366
   42MOL0     N 5429   1.621   5.152   5.775 -0.7252 -0.4734 -0.3024
   42MOL0     C 5430   1.650   5.284   5.757  0.1146  0.2184  0.4624
   42MOL0     C 5431   1.565   5.331   5.658 -0.3790  0.0314 -0.7007
   42MOL0     C 5432   1.562   5.475   5.607  0.2010  0.0217 -0.6088
   42MOL0     C 5433   1.429   5.528   5.534  0.4426  0.5492 -0.6018
   42MOL0     C 5434   1.419   5.690   5.546 -0.0971 -0.1198 -0.1994
   42MOL0     C 5435   1.270   5.740   5.538 -1.4319  0.5187 -0.2253
   42MOL0     O 5436   1.233   5.730   5.408 -0.2200 -0.1285  0.5894
   42MOL0     C 5437   1.171   5.830   5.337 -0.2376  0.1402  0.2474
   42MOL0     C 5438   1.199   5.966   5.346  0.7801 -0.4462 -0.6655
   42MOL0     C 5439   1.142   6.056   5.259  0.4712  0.2361 -0.4398
   42MOL0     C 5440   1.052   6.011   5.154  0.1592 -0.5036 -0.4463
   42MOL0     C 5441   0.986   6.110   5.062 -0.7978  0.0732 -0.8314
   42MOL0     O 5442   0.978   6.234   5.117  0.5385 -0.2777  1.2271
   42MOL0     C 5443   0.921   6.336   5.045  0.7832 -0.3421  0.6860
   42MOL0     C 5444   0.793   6.376   5.071  0.1732 -0.8949  0.9463
   42MOL0     C 5445   0.726   6.468   4.985 -1.0701 -0.6395  0.1462
   42MOL0     C 5446   0.792   6.524   4.872 -0.4208 -0.5079  0.2501
   42MOL0     O 5447   0.719   6.619   4.795 -0.0972 -0.3424  0.6010
   42MOL0     C 5448   0.789   6.697   4.701  0.0211  0.1233 -0.4487
   42MOL0     C 5449   0.779   6.662   4.542 -0.7582  0.0680 -0.8464
   42MOL0     C 5450   0.634   6.679   4.495 -0.2600  1.2934  0.5066
   42MOL0     C 5451   0.596   6.627   4.353 -1.2168  0.8604  0.2377
   42MOL0     C 5452   0.447   6.641   4.319 -0.8508  0.2859 -1.1408
   42MOL0     C 5453   0.348   6.574   4.411 -0.1329  0.2519 -0.8001
   42MOL0     C 5454   0.209   6.564   4.342  0.0207 -0.8223 -0.1611
   42MOL0     C 5455   0.122   6.446   4.404 -1.0593  0.0799 -0.3001
   42MOL0    Cl 5456   0.076   6.460   4.574 -0.2643  0.1752  0.2240
   42MOL0     C 5457   0.928   6.482   4.847  0.6728 -1.2999 -0.3401
   42MOL0     C 5458   0.992   6.393   4.942  0.1390  0.4548  0.5920
   42MOL0     O 5459   0.949   6.069   4.955 -0.0993 -0.7574 -0.1151
   42MOL0     C 5460   1.029   5.871   5.148 -0.5626 -0.4875  0.1802
   42MOL0     C 5461   1.095   5.787   5.235  0.4676  0.1246  0.1277
   42MOL0     N 5462   1.485   5.224   5.615 -0.7344 -0.5419  0.5430
   42MOL0     N 5463   1.524   5.122   5.680 -0.0755 -0.0987  0.5786
   42MOL0     C 5464   1.029   5.257   5.547  0.2000  0.2507  0.2754
   42MOL0     C 5465   1.011   5.384   5.484  0.6170  0.8333 -0.9340
   42MOL0     C 5466   0.813   5.804   5.475 -0.1343  0.0188 -1.0207
   42MOL0     C 5467   0.796   5.929   5.546  0.1220  0.8325  0.1563
   42MOL0     C 5468   0.720   6.024   5.480  0.0860  0.1196 -0.2652
   42MOL0     C 5469   0.661   6.014   5.355 -0.0199  0.2686 -0.5824
   42MOL0     O 5470   0.601   6.127   5.316 -0.3827  0.0739 -0.0790
   42MOL0     C 5471   0.480   6.121   5.243 -0.1544  0.1547 -0.2856
   42MOL0     C 5472   0.355   6.160   5.327 -0.5610 -0.6287 -0.1420
   42MOL0     C 5473   0.238   6.162   5.232 -0.2729  0.3347 -0.2554
   42MOL0     C 5474   0.120   6.262   5.273 -0.7476 -0.1664 -0.3097
   42MOL0     C 5475   0.090   6.242   5.414 -0.0838 -0.4481  0.1727
   42MOL0     C 5476   0.088   6.226   5.534  0.5542 -0.0518 -0.2538
   42MOL0     C 5477   0.678   5.899   5.282  1.0678 -0.6401 -0.3724
   42MOL0     C 5478   0.749   5.794   5.345  0.0664 -0.5297  0.3785
   42MOL0     H 5479   0.695   5.447   5.594  0.0290  0.5066  0.0740
   42MOL0     H 5480   0.734   5.234   5.709 -2.4995  1.8172 -1.9850
   42MOL0     H 5481   0.776   5.017   5.813 -0.3506  1.5581 -1.4771
   42MOL0     H 5482   0.860   5.156   5.873 -0.3144 -0.4809 -0.2530
   42MOL0     H 5483   0.954   4.872   5.882 -1.6284 -0.9303  1.7851
   42MOL0     H 5484   0.907   4.963   6.014 -0.9066 -0.0102 -0.1197
   42MOL0     H 5485   1.137   4.992   6.051 -2.6742 -0.3124  0.4370
   42MOL0     H 5486   1.101   5.130   5.949 -3.2255  0.3899 -1.2750
   42MOL0     H 5487   1.201   4.858   5.847  0.9003 -1.1217  0.7101
   42MOL0     H 5488   1.216   5.000   5.770  0.9736 -0.6481 -0.1274
   42MOL0     H 5489   1.431   4.923   5.858  0.0249 -0.5363  1.3004
   42MOL0     H 5490   1.368   4.902   6.018 -1.0669  1.7840  0.1607
   42MOL0     H 5491   1.355   5.129   6.070  0.1753  1.0045 -0.4121
   42MOL0     H 5492   1.395   5.181   5.899  1.0583 -3.9230 -4.7726
   42MOL0     H 5493   1.593   5.197   6.064  0.7027  0.0132  1.8212
   42MOL0     H 5494   1.581   5.021   6.090 -0.4380 -0.9459 -1.5309
   42MOL0     H 5495   1.677   4.969   5.875 -0.3598  0.0599  1.5944
   42MOL0     H 5496   1.764   5.117   5.925 -0.5496  0.5116  2.3618
   42MOL0     H 5497   1.725   5.340   5.812 -1.0642  2.9462 -0.5162
   42MOL0     H 5498   1.636   5.465   5.527 -2.2972 -0.6949 -2.9985
   42MOL0     H 5499   1.590   5.545   5.686  0.4676 -0.0104 -0.6738
   42MOL0     H 5500   1.339   5.474   5.564  0.8255 -1.4128 -2.7627
   42MOL0     H 5501   1.429   5.512   5.426 -0.9545  2.2280 -0.9008
   42MOL0     H 5502   1.445   5.712   5.649 -0.1204  0.8331 -0.3882
   42MOL0     H 5503   1.484   5.747   5.479 -2.2899  1.8452 -0.8210
   42MOL0     H 5504   1.276   5.841   5.579  1.7813 -0.1459  1.2609
   42MOL0     H 5505   1.206   5.671   5.593  0.7262 -1.3440  0.0909
   42MOL0     H 5506   1.266   6.005   5.421 -0.8377  1.5459 -0.1740
   42MOL0     H 5507   1.153   6.162   5.282 -1.2567  0.0208  1.7876
   42MOL0     H 5508   0.746   6.341   5.162 -0.9886  3.1818  2.1636
   42MOL0     H 5509   0.619   6.483   4.995 -0.9779  0.7391 -0.7434
   42MOL0     H 5510   0.894   6.694   4.732 -0.8863 -0.0823  2.9941
   42MOL0     H 5511   0.761   6.802   4.706  0.2125  0.1945 -0.8340
   42MOL0     H 5512   0.813   6.559   4.525  0.7205 -0.0254  1.9527
   42MOL0     H 5513   0.838   6.733   4.485  0.6173  1.5798  2.2383
   42MOL0     H 5514   0.609   6.785   4.511 -1.5477  0.6689  3.2696
   42MOL0     H 5515   0.576   6.619   4.565  4.1151 -3.1149  0.8411
   42MOL0     H 5516   0.667   6.663   4.279  0.3667 -2.3944 -0.0292
   42MOL0     H 5517   0.616   6.520   4.365  0.4446  1.0474 -0.5090
   42MOL0     H 5518   0.430   6.603   4.218 -2.8910  0.8040 -1.0516
   42MOL0     H 5519   0.424   6.748   4.307 -0.8129  0.4158 -0.1777
   42MOL0     H 5520   0.337   6.628   4.505  0.5226 -4.4467  2.3609
   42MOL0     H 5521   0.379   6.471   4.433  4.3447  1.7532  1.3242
   42MOL0     H 5522   0.161   6.662   4.345  1.3118 -0.1950  1.3107
   42MOL0     H 5523   0.227   6.522   4.242 -0.5494 -3.4405  0.7433
   42MOL0     H 5524   0.188   6.360   4.393 -0.2485  0.4833  1.1407
   42MOL0     H 5525   0.031   6.434   4.344 -2.7721 -1.7090  2.3931
   42MOL0     H 5526   0.987   6.507   4.760  1.7855  0.8899  0.9502
   42MOL0     H 5527   1.091   6.359   4.915 -1.1097 -2.6065 -0.5666
   42MOL0     H 5528   0.954   5.827   5.083 -0.8486 -2.2952  1.6388
   42MOL0     H 5529   1.070   5.681   5.236  2.5742 -0.4083 -0.1854
   42MOL0     H 5530   1.115   5.195   5.522  0.5970  1.0888 -0.4564
   42MOL0     H 5531   1.085   5.429   5.419  0.2617  0.9640 -1.2572
   42MOL0     H 5532   0.819   5.935   5.651  2.5144 -1.4981 -0.1104
   42MOL0     H 5533   0.714   6.113   5.542  0.8041 -0.2031  0.2889
   42MOL0     H 5534   0.466   6.015   5.218  0.2680  0.1210 -0.3910
   42MOL0     H 5535   0.485   6.184   5.154  0.6523 -1.0549 -1.1324
   42MOL0     H 5536   0.339   6.090   5.410 -0.3946 -0.8824 -0.3192
   42MOL0     H 5537   0.380   6.259   5.365  1.7474 -1.7666  1.6085
   42MOL0     H 5538   0.199   6.062   5.213  1.9321 -0.4593 -0.8679
   42MOL0     H 5539   0.271   6.203   5.136 -0.4985  0.7315 -0.1658
   42MOL0     H 5540   0.140   6.369   5.261 -0.8934 -0.0984  0.0450
   42MOL0     H 5541   0.030   6.248   5.214 -1.0951 -0.9738  0.3959
   42MOL0     H 5542   0.102   6.208   5.639  0.7988  1.0945 -0.0782
   42MOL0     H 5543   0.626   5.880   5.188  2.0006  0.9236 -1.2485
   42MOL0     H 5544   0.748   5.693   5.306  0.3799 -1.3315  2.3080
   43MOL0     O 5545  10.774   9.908   0.147  0.1285  0.0654 -0.2755
   43MOL0     C 5546  10.887   9.879   0.117  0.2320 -0.2472  0.3575
   43MOL0     O 5547  10.918   9.800   0.004 -0.1544  0.2870 -0.1214
   43MOL0     C 5548  10.820   9.745  -0.071  0.2453 -0.1420  0.1548
   43MOL0     C 5549  10.825   9.776  -0.210 -0.6903  0.8214  0.1626
   43MOL0     C 5550  10.728   9.732  -0.296 -0.3391 -0.0295  0.1852
   43MOL0     C 5551  10.615   9.673  -0.246  0.1475  0.2595 -0.3465
   43MOL0     O 5552  10.504   9.626  -0.317  0.3180 -0.7050 -0.3438
   43MOL0     C 5553  10.532   9.613  -0.456  0.0267  0.4730  0.4663
   43MOL0     C 5554  10.421   9.539  -0.531  0.0463 -0.6433  0.5537
   43MOL0     C 5555  10.286   9.613  -0.538 -0.1612 -0.0001  0.2610
   43MOL0     C 5556  10.189   9.542  -0.632 -0.9297  0.3398 -0.1944
   43MOL0     C 5557  10.043   9.588  -0.592  0.7745 -0.7299 -0.2532
   43MOL0     C 5558   9.956   9.589  -0.718  0.0918  0.0837  0.5251
   43MOL0     C 5559   9.800   9.590  -0.686  0.1149  0.1346 -0.0196
   43MOL0     C 5560   9.730   9.600  -0.824 -0.1431 -0.2780  0.2342
   43MOL0     N 5561   9.583   9.586  -0.823  0.2613  0.1484  0.0630
   43MOL0     C 5562   9.505   9.645  -0.722  0.0674 -0.5588  1.0840
   43MOL0     C 5563   9.380   9.613  -0.754  0.0336  0.5042 -0.4157
   43MOL0     C 5564   9.260   9.632  -0.665  0.1663  0.3893  0.2400
   43MOL0     C 5565   9.273   9.541  -0.536  0.1490  0.1049 -0.1729
   43MOL0     C 5566   9.164   9.559  -0.434  0.2622  0.0398  0.0011
   43MOL0     C 5567   9.166   9.684  -0.356 -0.2707 -0.4435  0.2057
   43MOL0     O 5568   9.057   9.691  -0.256  0.2009 -0.7138 -0.1024
   43MOL0     C 5569   8.936   9.743  -0.303  0.0881 -0.7875  0.2910
   43MOL0     C 5570   8.829   9.737  -0.214  0.3973  0.1041 -0.5526
   43MOL0     C 5571   8.699   9.778  -0.250 -0.5817  0.2377 -0.0341
   43MOL0     C 5572   8.678   9.830  -0.379  0.6096  0.7200 -0.8244
   43MOL0     C 5573   8.545   9.888  -0.415 -0.0690  0.6114  0.0918
   43MOL0     O 5574   8.447   9.834  -0.337  0.9240  0.5472  0.4756
   43MOL0     C 5575   8.335   9.907  -0.332  0.4010  0.1898 -0.0375
   43MOL0     C 5576   8.328  10.033  -0.258 -0.6513  0.2015  0.5227
   43MOL0     C 5577   8.203  10.098  -0.252 -0.3421  0.5067  0.0970
   43MOL0     C 5578   8.089  10.042  -0.311 -0.2122 -0.7932  0.0381
   43MOL0     O 5579   7.974  10.126  -0.292 -0.6718  0.4989  0.5962
   43MOL0     C 5580   7.854  10.086  -0.360 -0.5188  0.1673  0.2464
   43MOL0     C 5581   7.761  10.210  -0.347  0.2097 -0.6866 -0.8072
   43MOL0     C 5582   7.687  10.205  -0.201 -0.6074  0.5413 -0.1995
   43MOL0     C 5583   7.633  10.331  -0.149 -0.3512  0.3640  0.7662
   43MOL0     C 5584   7.529  10.400  -0.241  0.8589 -0.2322  0.0319
   43MOL0     C 5585   7.463  10.525  -0.172  1.0467 -0.8228 -0.3493
   43MOL0     C 5586   7.333  10.578  -0.249 -0.2784 -0.0852 -0.2245
   43MOL0     C 5587   7.288  10.714  -0.186  0.7149  0.5276  0.6716
   43MOL0    Cl 5588   7.266  10.705  -0.018  0.0861  0.0068 -0.1694
   43MOL0     C 5589   8.104   9.924  -0.386  0.4338  0.5352  0.4870
   43MOL0     C 5590   8.223   9.851  -0.391 -0.6243 -0.5606  0.5952
   43MOL0     O 5591   8.536   9.970  -0.503  0.5976 -0.1820  0.0296
   43MOL0     C 5592   8.785   9.849  -0.467  0.4743  0.6894 -0.0300
   43MOL0     C 5593   8.912   9.811  -0.424 -0.8350  0.2475  0.1611
   43MOL0     N 5594   9.389   9.533  -0.869 -0.5039  0.0796 -0.4829
   43MOL0     N 5595   9.506   9.522  -0.919 -0.6658  0.2962 -0.6659
   43MOL0     C 5596  10.609   9.641  -0.106  0.8521 -0.2622  0.7330
   43MOL0     C 5597  10.711   9.674  -0.025 -0.3878  0.0571  0.2388
   43MOL0     C 5598  11.005   9.912   0.195 -0.6681  0.1457  0.5648
   43MOL0     C 5599  10.982   9.979   0.317  0.1029 -1.2109  0.2392
   43MOL0     C 5600  11.097  10.020   0.395 -0.7258  0.3956  0.0593
   43MOL0     C 5601  11.230   9.988   0.360  0.3934 -0.6680  0.4011
   43MOL0     O 5602  11.332  10.024   0.438  0.7844 -0.0538 -0.3613
   43MOL0     C 5603  11.349   9.947   0.563 -0.6702  0.2209 -1.2961
   43MOL0     C 5604  11.492   9.891   0.554 -0.1284  0.1095  0.0978
   43MOL0     C 5605  11.588   9.997   0.595  0.7753 -1.0284 -0.5239
   43MOL0     C 5606  11.720   9.990   0.530  0.8773 -0.1631 -1.1573
   43MOL0     C 5607  11.790   9.864   0.570 -0.0705  0.9317  0.4447
   43MOL0     C 5608  11.846   9.752   0.581  0.7271 -0.9068 -0.1689
   43MOL0     C 5609  11.241   9.913   0.245 -0.0374  0.4420  0.2110
   43MOL0     C 5610  11.138   9.881   0.159  0.1238  0.6914 -0.3611
   43MOL0     H 5611  10.914   9.827  -0.247  1.5115 -1.6693  1.6670
   43MOL0     H 5612  10.750   9.747  -0.401  1.0464 -3.4096 -0.1624
   43MOL0     H 5613  10.627   9.564  -0.482 -0.0712  0.3705  0.2938
   43MOL0     H 5614  10.527   9.713  -0.499 -1.4879 -0.3108 -1.2875
   43MOL0     H 5615  10.404   9.439  -0.489  0.0622 -0.9495 -0.1483
   43MOL0     H 5616  10.451   9.548  -0.636 -2.4706  0.8637 -0.1318
   43MOL0     H 5617  10.299   9.710  -0.587 -0.8046 -0.7456 -1.4716
   43MOL0     H 5618  10.244   9.623  -0.438  1.8423 -0.0665  1.1615
   43MOL0     H 5619  10.206   9.561  -0.738  1.7051  1.7259  0.3990
   43MOL0     H 5620  10.196   9.434  -0.619  1.3440  0.7360  3.3712
   43MOL0     H 5621  10.034   9.689  -0.551 -0.9880 -1.1169  0.4008
   43MOL0     H 5622  10.005   9.510  -0.526  3.4160 -3.4012 -1.6150
   43MOL0     H 5623   9.983   9.503  -0.779 -0.1532  1.2135 -1.2423
   43MOL0     H 5624   9.985   9.675  -0.778 -0.3848  0.1942  0.4470
   43MOL0     H 5625   9.775   9.490  -0.647  3.0008 -0.5393  0.3248
   43MOL0     H 5626   9.785   9.670  -0.613  0.9941 -0.1034  0.4406
   43MOL0     H 5627   9.765   9.512  -0.878 -2.2899  0.8652 -3.4079
   43MOL0     H 5628   9.738   9.699  -0.871 -2.6023  0.6254  1.4828
   43MOL0     H 5629   9.540   9.699  -0.634 -1.4038 -0.6144  1.7285
   43MOL0     H 5630   9.171   9.607  -0.723  0.2828  0.1843  0.1496
   43MOL0     H 5631   9.263   9.736  -0.631 -0.4030 -0.3431  2.8245
   43MOL0     H 5632   9.366   9.567  -0.484  0.6634 -0.1155 -0.9635
   43MOL0     H 5633   9.282   9.434  -0.554 -0.8327  0.0706 -0.5140
   43MOL0     H 5634   9.070   9.562  -0.490  0.4257  0.5883 -0.2472
   43MOL0     H 5635   9.169   9.470  -0.370 -0.1096  1.5504  2.2561
   43MOL0     H 5636   9.183   9.769  -0.423 -1.3251  0.4594  1.0395
   43MOL0     H 5637   9.256   9.689  -0.294 -1.1825 -1.1088  1.6489
   43MOL0     H 5638   8.837   9.694  -0.115 -1.9718  2.9507  1.0539
   43MOL0     H 5639   8.624   9.765  -0.173  0.1539  1.1840  0.8699
   43MOL0     H 5640   8.414  10.089  -0.222 -0.4007  1.5769 -2.0222
   43MOL0     H 5641   8.182  10.183  -0.188 -2.5300  0.0323  0.0867
   43MOL0     H 5642   7.800  10.010  -0.303 -0.1723  1.3314  2.2283
   43MOL0     H 5643   7.867  10.066  -0.467  0.1119 -0.8506  0.4980
   43MOL0     H 5644   7.692  10.195  -0.430 -0.0676 -2.2768 -0.3348
   43MOL0     H 5645   7.812  10.306  -0.356  4.4748 -2.7614 -1.5230
   43MOL0     H 5646   7.762  10.176  -0.127 -1.0822  1.8309  0.8329
   43MOL0     H 5647   7.616  10.122  -0.208  0.6539 -0.4813 -1.5769
   43MOL0     H 5648   7.595  10.312  -0.048  2.4346  0.9255  2.0165
   43MOL0     H 5649   7.715  10.402  -0.138 -0.5429  0.8733 -0.7793
   43MOL0     H 5650   7.441  10.339  -0.264  0.5497 -0.3704  1.5086
   43MOL0     H 5651   7.565  10.429  -0.341  0.3963  1.5827  0.3621
   43MOL0     H 5652   7.530  10.609  -0.150 -2.4293  1.8970  0.6115
   43MOL0     H 5653   7.423  10.486  -0.078 -0.0874  1.3768  0.1479
   43MOL0     H 5654   7.355  10.595  -0.355 -0.9340 -2.6522 -0.8391
   43MOL0     H 5655   7.242  10.518  -0.234 -0.3910  0.7587  3.2667
   43MOL0     H 5656   7.196  10.759  -0.225 -1.7605 -1.9359  3.2114
   43MOL0     H 5657   7.367  10.788  -0.198  0.6669  0.3952 -0.5624
   43MOL0     H 5658   8.009   9.883  -0.417  1.0765 -0.2415 -0.5346
   43MOL0     H 5659   8.224   9.767  -0.459 -2.9939  0.6927 -1.1268
   43MOL0     H 5660   8.764   9.900  -0.561 -2.7530  0.5234  0.4623
   43MOL0     H 5661   8.985   9.832  -0.501 -2.0565  0.7020 -0.9215
   43MOL0     H 5662  10.522   9.584  -0.077 -1.5661  1.7526 -1.9759
   43MOL0     H 5663  10.716   9.629   0.074  0.9097 -3.6660 -1.3238
   43MOL0     H 5664  10.884  10.016   0.348 -0.7448  0.0611 -3.4578
   43MOL0     H 5665  11.091  10.085   0.482  1.7004  2.5386 -1.2446
   43MOL0     H 5666  11.279   9.863   0.572  0.6082 -0.6457  1.6920
   43MOL0     H 5667  11.333  10.005   0.654  2.1501  0.3827 -0.8182
   43MOL0     H 5668  11.499   9.801   0.616 -1.0264 -1.1973 -1.6080
   43MOL0     H 5669  11.516   9.867   0.450 -2.4749 -1.6736 -0.1032
   43MOL0     H 5670  11.599   9.994   0.704 -1.1382  2.1229 -0.1130
   43MOL0     H 5671  11.558  10.102   0.593 -1.0758 -1.2708  3.7475
   43MOL0     H 5672  11.701   9.994   0.423 -0.7765 -1.9118 -0.9948
   43MOL0     H 5673  11.783  10.070   0.570  0.6391 -0.1284 -0.8495
   43MOL0     H 5674  11.884   9.655   0.608  1.4388 -0.7688 -0.6546
   43MOL0     H 5675  11.335   9.874   0.207 -0.0246 -0.4122  1.0695
   43MOL0     H 5676  11.164   9.833   0.065  0.5885 -0.4647  0.3480
   44MOL0     O 5677   7.122   2.777   2.157 -0.2061 -0.0351  0.1401
   44MOL0     C 5678   7.153   2.663   2.130 -0.0250  0.8958  0.1856
   44MOL0     O 5679   7.078   2.569   2.056 -0.2527 -0.1951 -0.6108
   44MOL0     C 5680   6.942   2.570   2.035 -0.0161 -0.8705  0.2596
   44MOL0     C 5681   6.868   2.452   2.021 -0.1338  0.5611 -1.0443
   44MOL0     C 5682   6.730   2.450   2.027 -0.5008  0.0888  0.7172
   44MOL0     C 5683   6.652   2.569   2.002 -0.2753 -0.5180 -0.7127
   44MOL0     O 5684   6.519   2.563   1.999  0.7094  0.6584 -0.1201
   44MOL0     C 5685   6.459   2.648   1.900  0.5656  1.1200 -0.1104
   44MOL0     C 5686   6.309   2.644   1.949 -0.2821 -0.0366 -0.2269
   44MOL0     C 5687   6.207   2.745   1.879  0.1232  0.3081 -0.4789
   44MOL0     C 5688   6.055   2.718   1.918 -0.0477 -0.9586  0.0353
   44MOL0     C 5689   5.962   2.807   1.827 -0.5120 -0.0401 -0.3294
   44MOL0     C 5690   5.822   2.844   1.897  0.1562 -0.5502 -0.6772
   44MOL0     C 5691   5.724   2.900   1.791 -0.1488 -0.5616  0.5305
   44MOL0     C 5692   5.597   2.950   1.862  0.1545 -0.0751  0.7001
   44MOL0     N 5693   5.602   3.072   1.938 -0.6101  0.0129 -0.0069
   44MOL0     C 5694   5.569   3.197   1.896 -0.8010  0.2634  0.3171
   44MOL0     C 5695   5.558   3.272   2.005 -0.0239  0.2655 -0.2067
   44MOL0     C 5696   5.553   3.418   2.023  0.4398 -0.2458 -0.2813
   44MOL0     C 5697   5.411   3.462   2.040  0.3509  0.0542  1.4111
   44MOL0     C 5698   5.388   3.612   2.030  0.8861 -0.1554  0.9379
   44MOL0     C 5699   5.241   3.655   2.002  0.1753 -0.5782  0.2844
   44MOL0     O 5700   5.227   3.693   1.863 -0.2698  0.2133 -0.2322
   44MOL0     C 5701   5.105   3.685   1.825 -0.6228 -0.5483  0.1733
   44MOL0     C 5702   5.028   3.572   1.779  1.2118 -0.3394 -0.0817
   44MOL0     C 5703   4.887   3.586   1.755 -0.8752 -1.0016 -0.2003
   44MOL0     C 5704   4.833   3.718   1.755  0.0905 -0.1950  0.6763
   44MOL0     C 5705   4.689   3.731   1.725  0.4461 -0.1952  0.2450
   44MOL0     O 5706   4.613   3.617   1.713  0.0076 -0.4426 -0.2127
   44MOL0     C 5707   4.472   3.616   1.727  0.5746 -0.9890  1.0991
   44MOL0     C 5708   4.403   3.501   1.697  0.7772 -0.0848 -0.6498
   44MOL0     C 5709   4.264   3.483   1.717 -1.0872 -0.0126  1.2130
   44MOL0     C 5710   4.190   3.588   1.763 -0.6541  0.9528  0.0774
   44MOL0     O 5711   4.054   3.565   1.767  0.3948 -0.3250 -0.4494
   44MOL0     C 5712   3.977   3.676   1.822 -0.2920  0.2064  0.7166
   44MOL0     C 5713   3.835   3.640   1.865  0.1271 -0.0557  0.2369
   44MOL0     C 5714   3.762   3.597   1.744  0.4455  0.5224  0.9008
   44MOL0     C 5715   3.614   3.581   1.775  0.3345 -0.1817  0.4831
   44MOL0     C 5716   3.540   3.559   1.654  1.1300 -0.0311  0.1860
   44MOL0     C 5717   3.395   3.515   1.685  0.6140 -0.6187  0.3129
   44MOL0     C 5718   3.306   3.531   1.564  0.7960  0.4075  0.0620
   44MOL0     C 5719   3.167   3.467   1.575 -0.2553  0.0361 -0.2263
   44MOL0    Cl 5720   3.066   3.557   1.687 -0.6781 -0.2308 -0.2505
   44MOL0     C 5721   4.253   3.717   1.775 -0.1563  0.4018  0.1584
   44MOL0     C 5722   4.390   3.724   1.768  0.8166  0.1076  0.7625
   44MOL0     O 5723   4.639   3.846   1.709  0.5231 -0.1831  0.2920
   44MOL0     C 5724   4.912   3.834   1.783  0.4033  0.8011 -0.1805
   44MOL0     C 5725   5.041   3.806   1.825 -0.0260 -1.0115  0.9237
   44MOL0     N 5726   5.588   3.191   2.113  0.5463 -0.4447  0.1778
   44MOL0     N 5727   5.618   3.073   2.067 -0.0893 -0.1807 -0.0614
   44MOL0     C 5728   6.731   2.692   2.005  0.4029 -0.0684 -0.4730
   44MOL0     C 5729   6.865   2.686   2.037 -0.5232 -0.8419 -0.6138
   44MOL0     C 5730   7.299   2.632   2.157 -0.3419  0.7240 -0.3074
   44MOL0     C 5731   7.400   2.734   2.178 -0.5321  0.0379  0.4547
   44MOL0     C 5732   7.535   2.706   2.205  0.4387 -0.3214 -1.1263
   44MOL0     C 5733   7.575   2.568   2.231  1.2325 -0.2756  0.2070
   44MOL0     O 5734   7.703   2.528   2.265  0.2097 -0.6629 -0.0338
   44MOL0     C 5735   7.818   2.604   2.233  0.8113  1.1114 -0.0648
   44MOL0     C 5736   7.904   2.622   2.367 -0.6019 -0.1774  0.2198
   44MOL0     C 5737   7.953   2.488   2.420  0.3741 -0.0142  0.2218
   44MOL0     C 5738   8.036   2.508   2.554 -0.8981 -0.0550  0.2956
   44MOL0     C 5739   8.181   2.533   2.534 -0.3306 -0.2501  0.7156
   44MOL0     C 5740   8.301   2.558   2.522 -0.7511 -0.0918 -0.1079
   44MOL0     C 5741   7.468   2.466   2.233  0.8841  0.8348  0.8036
   44MOL0     C 5742   7.337   2.495   2.180  0.6771  0.0878 -1.1830
   44MOL0     H 5743   6.908   2.352   2.016 -0.2362  0.2652  2.1598
   44MOL0     H 5744   6.684   2.352   2.027 -1.1241  0.3482 -1.0941
   44MOL0     H 5745   6.465   2.600   1.802  1.2025 -2.1206  1.3922
   44MOL0     H 5746   6.490   2.753   1.893  2.9720  0.3334 -3.9837
   44MOL0     H 5747   6.306   2.643   2.058  1.1734 -1.0507 -0.1565
   44MOL0     H 5748   6.278   2.545   1.913 -0.4600 -0.4907  1.1164
   44MOL0     H 5749   6.212   2.737   1.770  1.3375  2.6320 -0.6491
   44MOL0     H 5750   6.232   2.848   1.908  3.5799 -0.5833  0.0536
   44MOL0     H 5751   6.039   2.613   1.895  0.3720 -0.9955 -0.1034
   44MOL0     H 5752   6.049   2.738   2.026  0.8784 -0.1287 -0.0556
   44MOL0     H 5753   5.956   2.750   1.735  0.8631 -1.9610  0.6973
   44MOL0     H 5754   6.010   2.902   1.800 -4.2107  1.6859 -1.3870
   44MOL0     H 5755   5.837   2.923   1.971 -4.2523  1.7733 -1.9489
   44MOL0     H 5756   5.786   2.750   1.939 -0.9475  1.0816  2.3122
   44MOL0     H 5757   5.773   2.988   1.748 -0.1402 -0.7680  0.1142
   44MOL0     H 5758   5.689   2.833   1.712  1.7834 -1.5902  0.4611
   44MOL0     H 5759   5.566   2.866   1.925  0.7904  1.4908  3.2631
   44MOL0     H 5760   5.522   2.958   1.783  1.6526 -0.7461 -0.8525
   44MOL0     H 5761   5.545   3.227   1.794  0.1444  4.6812  1.1837
   44MOL0     H 5762   5.603   3.462   1.936  0.7453 -1.2817 -0.6367
   44MOL0     H 5763   5.608   3.463   2.107  0.4130  0.2279 -0.5154
   44MOL0     H 5764   5.378   3.421   2.136  0.6026 -0.2835  1.3563
   44MOL0     H 5765   5.347   3.403   1.973  0.0534 -0.5634  2.2124
   44MOL0     H 5766   5.422   3.658   2.122  0.2662 -0.0045  1.0975
   44MOL0     H 5767   5.450   3.657   1.952 -0.7801 -0.5038 -0.6637
   44MOL0     H 5768   5.235   3.743   2.066  2.0689 -0.9691  1.0638
   44MOL0     H 5769   5.167   3.584   2.038 -2.2970  0.7461 -1.8598
   44MOL0     H 5770   5.068   3.473   1.762 -2.0515 -1.5166 -1.6837
   44MOL0     H 5771   4.820   3.501   1.742 -3.9256  0.8935  1.9408
   44MOL0     H 5772   4.470   3.423   1.660 -0.7164 -3.0519  2.3691
   44MOL0     H 5773   4.230   3.380   1.709  1.6098 -1.0781  2.3667
   44MOL0     H 5774   3.972   3.769   1.764 -0.6746 -0.5136 -0.4454
   44MOL0     H 5775   4.012   3.709   1.920  2.2681  3.4228 -1.0565
   44MOL0     H 5776   3.793   3.730   1.910 -0.8947 -0.5876  0.3745
   44MOL0     H 5777   3.848   3.571   1.949  0.6089  1.7977  1.7498
   44MOL0     H 5778   3.788   3.498   1.707  0.2692  0.5001  0.8335
   44MOL0     H 5779   3.765   3.669   1.662 -0.9167 -1.9947 -1.5432
   44MOL0     H 5780   3.610   3.496   1.844  0.6293  0.5712  1.4564
   44MOL0     H 5781   3.573   3.675   1.815  0.5872 -0.7385  2.1596
   44MOL0     H 5782   3.590   3.485   1.590 -2.0450 -0.7923 -1.6245
   44MOL0     H 5783   3.542   3.655   1.602 -1.7551 -0.1599 -0.3362
   44MOL0     H 5784   3.364   3.559   1.781  3.6155  3.3263 -0.2449
   44MOL0     H 5785   3.390   3.409   1.712 -0.0013 -1.0905 -1.5293
   44MOL0     H 5786   3.293   3.638   1.544 -0.6947  0.3967  0.8601
   44MOL0     H 5787   3.358   3.475   1.486  1.5028 -0.6727  1.2676
   44MOL0     H 5788   3.185   3.363   1.605 -0.4844 -0.8832 -2.9615
   44MOL0     H 5789   3.123   3.453   1.476 -0.9120  0.8960 -0.0703
   44MOL0     H 5790   4.204   3.803   1.818  0.3862  0.4604  0.6695
   44MOL0     H 5791   4.433   3.813   1.813  0.7986 -0.4778  1.9897
   44MOL0     H 5792   4.858   3.927   1.795 -0.0271  0.5124  0.1331
   44MOL0     H 5793   5.087   3.898   1.860 -3.3635  0.6920  1.2356
   44MOL0     H 5794   6.669   2.780   2.008 -0.3243 -0.5012  3.5862
   44MOL0     H 5795   6.914   2.782   2.048 -1.6713 -0.1619 -1.1965
   44MOL0     H 5796   7.368   2.837   2.163 -2.2643 -0.3829  0.9452
   44MOL0     H 5797   7.596   2.795   2.208  0.1514 -0.1599  0.5224
   44MOL0     H 5798   7.797   2.703   2.190 -4.3870  0.3663  0.1384
   44MOL0     H 5799   7.869   2.541   2.161 -2.3705  0.6509 -2.1237
   44MOL0     H 5800   7.983   2.688   2.329 -1.0670 -0.5206 -1.4334
   44MOL0     H 5801   7.853   2.673   2.449  1.5367 -0.4275  1.7937
   44MOL0     H 5802   8.019   2.442   2.346 -2.4913  0.0906 -2.5630
   44MOL0     H 5803   7.866   2.427   2.444  1.2973 -0.5764  2.3865
   44MOL0     H 5804   7.988   2.588   2.611 -0.1672  0.5532  0.0867
   44MOL0     H 5805   8.022   2.413   2.606  0.7130 -1.1795 -1.1708
   44MOL0     H 5806   8.405   2.581   2.519 -0.3247 -1.8940 -0.1171
   44MOL0     H 5807   7.494   2.363   2.251  3.4622  1.1288 -0.6279
   44MOL0     H 5808   7.253   2.426   2.191 -0.9972  2.3750  4.6517
   45MOL0     O 5809   1.642  10.233   5.760 -0.0906  0.7665 -0.9817
   45MOL0     C 5810   1.691  10.325   5.824  0.9146  0.1500  0.3844
   45MOL0     O 5811   1.630  10.394   5.925 -0.6205  1.0314 -0.2767
   45MOL0     C 5812   1.501  10.434   5.935  0.3310  0.3704 -0.2962
   45MOL0     C 5813   1.481  10.522   6.036 -1.2089 -0.3067  0.1045
   45MOL0     C 5814   1.344  10.557   6.062  0.5906  0.1485 -0.2255
   45MOL0     C 5815   1.237  10.489   6.000  0.2546  0.0469  0.2290
   45MOL0     O 5816   1.117  10.520   6.056 -0.3042 -0.0763  0.3382
   45MOL0     C 5817   0.995  10.495   5.994  0.0521  0.7577 -0.1901
   45MOL0     C 5818   0.875  10.551   6.062  0.6748 -0.4300 -0.5198
   45MOL0     C 5819   0.855  10.489   6.200  0.3740 -1.0628 -0.7863
   45MOL0     C 5820   0.781  10.603   6.285 -0.1623  0.0261 -0.7683
   45MOL0     C 5821   0.625  10.601   6.272 -0.2785 -0.5858 -0.4852
   45MOL0     C 5822   0.569  10.728   6.337 -0.3924 -0.0779 -0.1183
   45MOL0     C 5823   0.419  10.744   6.332  1.6007  0.1421  0.6283
   45MOL0     C 5824   0.333  10.630   6.369  0.0131  0.0369  0.7726
   45MOL0     N 5825   0.195  10.676   6.361 -0.1237  1.1093  0.0369
   45MOL0     C 5826   0.132  10.750   6.460  0.0923  0.5936 -0.4280
   45MOL0     C 5827   0.010  10.788   6.407  0.1088  0.6076  0.2854
   45MOL0     C 5828  -0.105  10.845   6.483 -0.1835 -0.0811 -0.4327
   45MOL0     C 5829  -0.187  10.743   6.555  0.7414  0.0208  0.2071
   45MOL0     C 5830  -0.241  10.622   6.471 -0.6455  0.6325 -0.1768
   45MOL0     C 5831  -0.328  10.655   6.356  0.5633  0.2998  0.3483
   45MOL0     O 5832  -0.448  10.725   6.406  0.0814  0.1672  0.3151
   45MOL0     C 5833  -0.551  10.641   6.443  0.3229 -0.0761 -0.6599
   45MOL0     C 5834  -0.546  10.499   6.435  0.4645  0.6321  0.6889
   45MOL0     C 5835  -0.663  10.422   6.464 -0.7233 -0.1508  0.3952
   45MOL0     C 5836  -0.781  10.482   6.521 -0.4966 -0.6660 -0.2079
   45MOL0     C 5837  -0.898  10.394   6.542  0.1709  0.4197  0.2475
   45MOL0     O 5838  -0.996  10.437   6.630 -0.1768  0.1965 -0.7975
   45MOL0     C 5839  -1.113  10.370   6.660 -0.5758 -0.1070  0.0038
   45MOL0     C 5840  -1.228  10.430   6.619 -0.6730 -0.6385 -0.0700
   45MOL0     C 5841  -1.349  10.372   6.640  0.2508 -0.0922  1.0416
   45MOL0     C 5842  -1.357  10.248   6.693 -0.0463 -0.0963 -0.2978
   45MOL0     O 5843  -1.475  10.178   6.720 -0.1133 -0.6704  0.1910
   45MOL0     C 5844  -1.596  10.216   6.666  0.1565 -0.0476  0.6539
   45MOL0     C 5845  -1.718  10.118   6.690 -0.6423 -1.2932  0.4138
   45MOL0     C 5846  -1.727  10.083   6.835  0.2106 -0.7106  0.4129
   45MOL0     C 5847  -1.845   9.989   6.861 -0.3593  0.0116 -0.5543
   45MOL0     C 5848  -1.852   9.944   7.002  0.2442 -0.0939  1.2426
   45MOL0     C 5849  -1.994   9.894   7.039  0.0212  0.3906  1.0971
   45MOL0     C 5850  -2.012   9.825   7.171 -0.6172 -0.7586 -0.2965
   45MOL0     C 5851  -2.153   9.767   7.187  0.1493  0.4762 -0.2913
   45MOL0    Cl 5852  -2.142   9.633   7.076  0.0225  0.1933 -0.4082
   45MOL0     C 5853  -1.239  10.187   6.733 -0.8163  0.3413  0.3932
   45MOL0     C 5854  -1.122  10.256   6.723 -1.0267 -0.4183  0.3435
   45MOL0     O 5855  -0.902  10.284   6.481 -0.0595  0.6081  0.1490
   45MOL0     C 5856  -0.787  10.624   6.529 -0.3017 -1.1096  0.6258
   45MOL0     C 5857  -0.671  10.699   6.499 -0.9175 -0.1764  0.4421
   45MOL0     N 5858   0.014  10.748   6.277 -0.1863 -0.0840 -0.0090
   45MOL0     N 5859   0.123  10.691   6.246  0.1079  0.9943 -0.1320
   45MOL0     C 5860   1.263  10.395   5.901 -0.4406 -0.3608 -0.2769
   45MOL0     C 5861   1.401  10.370   5.866  0.6039  0.9111  0.6599
   45MOL0     C 5862   1.819  10.365   5.780 -0.4127 -0.6574  1.0265
   45MOL0     C 5863   1.913  10.271   5.724  0.2578  0.0246 -0.8209
   45MOL0     C 5864   2.050  10.301   5.704  0.0329 -0.5419 -0.0007
   45MOL0     C 5865   2.097  10.429   5.736 -0.4087 -0.7429 -0.6231
   45MOL0     O 5866   2.229  10.469   5.713 -0.6218 -0.0223  0.0804
   45MOL0     C 5867   2.332  10.378   5.664 -0.0600 -0.7881  0.1448
   45MOL0     C 5868   2.454  10.451   5.628 -0.0781 -0.2109 -0.6111
   45MOL0     C 5869   2.518  10.540   5.735  0.2207  0.8828 -0.1567
   45MOL0     C 5870   2.636  10.617   5.685 -1.0419  0.2039  0.7299
   45MOL0     C 5871   2.733  10.641   5.795  0.6178 -0.3118 -0.4431
   45MOL0     C 5872   2.800  10.663   5.900  0.3385  0.2077  0.3907
   45MOL0     C 5873   2.005  10.524   5.782  0.1527 -0.2074  0.1969
   45MOL0     C 5874   1.868  10.489   5.805 -0.2823  0.6150  0.2578
   45MOL0     H 5875   1.565  10.559   6.093 -2.3905 -0.5345  2.0937
   45MOL0     H 5876   1.322  10.617   6.150  1.4375 -1.6118  1.2416
   45MOL0     H 5877   0.969  10.390   5.976 -2.0964  1.1909  0.1989
   45MOL0     H 5878   1.000  10.548   5.899 -0.4967 -0.2595 -0.8017
   45MOL0     H 5879   0.786  10.561   5.999  0.1423 -0.1336  0.2651
   45MOL0     H 5880   0.915  10.651   6.084 -1.5472 -0.2255  3.5078
   45MOL0     H 5881   0.951  10.467   6.247 -0.1379 -0.0409  0.8295
   45MOL0     H 5882   0.803  10.393   6.191  2.0496 -2.0128 -0.6220
   45MOL0     H 5883   0.810  10.582   6.388 -1.2725  0.5918 -0.3332
   45MOL0     H 5884   0.820  10.702   6.256  0.3325  0.6259  1.7128
   45MOL0     H 5885   0.589  10.516   6.330  1.7849 -0.5043  1.0338
   45MOL0     H 5886   0.588  10.598   6.170 -1.1310  2.6949 -0.3807
   45MOL0     H 5887   0.598  10.819   6.284 -1.2928  0.5048  0.3574
   45MOL0     H 5888   0.614  10.734   6.437  2.0295 -0.5852 -1.1266
   45MOL0     H 5889   0.402  10.837   6.387  0.5279  0.5632 -0.3797
   45MOL0     H 5890   0.389  10.767   6.229 -0.7032 -2.3645  0.6326
   45MOL0     H 5891   0.358  10.593   6.469 -0.2315  0.3991  0.9721
   45MOL0     H 5892   0.355  10.542   6.308 -1.7139  0.3710 -0.4072
   45MOL0     H 5893   0.178  10.761   6.558  2.6958 -1.3991 -1.3013
   45MOL0     H 5894  -0.157  10.902   6.405  0.3228  1.6313  0.4247
   45MOL0     H 5895  -0.076  10.922   6.556 -3.0268 -0.7367  1.5309
   45MOL0     H 5896  -0.275  10.798   6.588  0.9426  0.4667  0.0052
   45MOL0     H 5897  -0.130  10.708   6.642  0.6638 -0.0357  0.2350
   45MOL0     H 5898  -0.155  10.570   6.428 -0.6624  2.7793 -3.1427
   45MOL0     H 5899  -0.298  10.557   6.538 -0.7319  1.1485  0.2552
   45MOL0     H 5900  -0.355  10.574   6.288 -1.2247 -3.1826  4.7868
   45MOL0     H 5901  -0.268  10.738   6.316  4.3972 -1.1657  2.5047
   45MOL0     H 5902  -0.464  10.443   6.392  1.4109  0.8440  2.1613
   45MOL0     H 5903  -0.649  10.315   6.456  2.7179 -0.0425  2.7963
   45MOL0     H 5904  -1.215  10.522   6.563  1.7985  1.2775  3.2452
   45MOL0     H 5905  -1.434  10.437   6.627  0.7351  0.1266 -1.4904
   45MOL0     H 5906  -1.585  10.211   6.557  0.1922 -0.8572  0.6874
   45MOL0     H 5907  -1.622  10.312   6.712 -1.5726 -0.7427  1.2420
   45MOL0     H 5908  -1.715  10.033   6.621 -2.9308  0.2106 -1.7301
   45MOL0     H 5909  -1.810  10.171   6.663  0.6262  0.7776 -0.0051
   45MOL0     H 5910  -1.733  10.163   6.909  0.1399  0.3643 -0.7324
   45MOL0     H 5911  -1.634  10.029   6.855 -0.2214 -1.4719  0.4163
   45MOL0     H 5912  -1.934  10.051   6.847 -0.2559  0.4350  0.6056
   45MOL0     H 5913  -1.857   9.898   6.802  1.6037 -0.6697  0.0214
   45MOL0     H 5914  -1.822  10.015   7.079  0.2141  1.1336  0.1635
   45MOL0     H 5915  -1.786   9.857   7.012 -1.4102 -1.7274 -0.7742
   45MOL0     H 5916  -2.026   9.838   6.951  0.9419 -1.6512  1.9817
   45MOL0     H 5917  -2.065   9.976   7.042 -0.7436 -0.2938  2.5575
   45MOL0     H 5918  -1.942   9.742   7.183  0.9305  0.4423 -0.7115
   45MOL0     H 5919  -1.978   9.890   7.252 -0.9866 -0.4050 -0.4225
   45MOL0     H 5920  -2.229   9.843   7.166 -0.0008  1.4324  3.1406
   45MOL0     H 5921  -2.177   9.737   7.289  0.4530  4.0377  0.9838
   45MOL0     H 5922  -1.228  10.088   6.776  2.4213  1.7692  3.2944
   45MOL0     H 5923  -1.032  10.220   6.773 -2.5378 -0.8968  2.8679
   45MOL0     H 5924  -0.875  10.667   6.577 -0.5548  2.0371 -2.2386
   45MOL0     H 5925  -0.666  10.807   6.509 -1.7045 -0.0648 -0.3567
   45MOL0     H 5926   1.187  10.336   5.850 -1.8110  1.3750 -0.3377
   45MOL0     H 5927   1.422  10.303   5.783  2.9058 -0.2624  2.0961
   45MOL0     H 5928   1.870  10.176   5.696  1.7443 -0.2142 -2.4909
   45MOL0     H 5929   2.116  10.224   5.664  0.5281 -1.6137  2.6682
   45MOL0     H 5930   2.296  10.328   5.574  1.8201 -1.5163 -0.2331
   45MOL0     H 5931   2.357  10.285   5.715 -3.1067 -2.1413 -0.5618
   45MOL0     H 5932   2.515  10.370   5.589 -0.6654 -0.8034 -0.3222
   45MOL0     H 5933   2.413  10.515   5.548 -1.6982 -0.2574  0.1442
   45MOL0     H 5934   2.550  10.468   5.811 -2.4852 -1.4625 -1.0266
   45MOL0     H 5935   2.445  10.611   5.773  0.7064  1.3473 -0.0928
   45MOL0     H 5936   2.690  10.560   5.609  1.1837  1.3775  1.3286
   45MOL0     H 5937   2.601  10.714   5.648  0.6023  0.9163  0.9354
   45MOL0     H 5938   2.871  10.683   5.978  1.5706  0.1184 -0.6689
   45MOL0     H 5939   2.044  10.620   5.816  2.7636 -0.6978 -1.1488
   45MOL0     H 5940   1.800  10.564   5.844  0.0394  0.7272  0.6086
   46MOL0     O 5941   2.963  10.018   8.066  0.3446 -1.0883 -0.2130
   46MOL0     C 5942   2.896  10.067   8.155 -1.4106  0.3850 -0.3857
   46MOL0     O 5943   2.950  10.168   8.245 -0.1267  1.0251 -0.3772
   46MOL0     C 5944   3.059  10.244   8.199 -0.9096  0.2446 -0.3681
   46MOL0     C 5945   3.158  10.263   8.286 -0.4525 -0.9445 -0.2121
   46MOL0     C 5946   3.267  10.344   8.242 -0.2548 -0.3545 -0.1274
   46MOL0     C 5947   3.266  10.407   8.113 -0.1103 -0.3358 -0.5397
   46MOL0     O 5948   3.371  10.475   8.057  0.9399  0.4552  0.4458
   46MOL0     C 5949   3.490  10.504   8.120 -0.4724  1.0598  0.6045
   46MOL0     C 5950   3.573  10.604   8.030 -0.4290  0.1387  1.0743
   46MOL0     C 5951   3.678  10.515   7.955 -0.5816 -0.0725 -0.8469
   46MOL0     C 5952   3.807  10.502   8.047 -0.9517  0.3224  0.8571
   46MOL0     C 5953   3.905  10.380   8.008  0.0513 -0.1016  0.1314
   46MOL0     C 5954   3.952  10.381   7.862 -0.3242  0.3005  0.4651
   46MOL0     C 5955   4.075  10.297   7.832  0.0500 -0.8922 -0.1380
   46MOL0     C 5956   4.105  10.276   7.685 -0.6810 -0.5641  0.4882
   46MOL0     N 5957   4.211  10.381   7.633 -1.3527  0.1232 -0.7440
   46MOL0     C 5958   4.343  10.359   7.601 -0.2798 -0.0637 -0.4725
   46MOL0     C 5959   4.391  10.481   7.562  0.2162 -0.0230 -0.1598
   46MOL0     C 5960   4.534  10.499   7.517 -0.3409  0.1242 -0.0047
   46MOL0     C 5961   4.645  10.461   7.622  1.0577 -0.2063 -0.2680
   46MOL0     C 5962   4.635  10.537   7.759 -0.9364  0.0065  0.7047
   46MOL0     C 5963   4.750  10.501   7.856 -0.6664 -0.1229 -0.1804
   46MOL0     O 5964   4.873  10.503   7.787 -0.4292  1.0457 -0.9184
   46MOL0     C 5965   4.984  10.438   7.847  0.3459  0.1898 -0.5604
   46MOL0     C 5966   5.094  10.423   7.763 -0.0135 -0.3628 -0.5938
   46MOL0     C 5967   5.215  10.376   7.816  0.5175 -0.9030 -0.9657
   46MOL0     C 5968   5.238  10.359   7.952  0.1654  0.2668  0.0280
   46MOL0     C 5969   5.369  10.321   8.004  0.2919  0.2593  1.1469
   46MOL0     O 5970   5.460  10.284   7.912  0.4545 -0.5002  0.4554
   46MOL0     C 5971   5.579  10.248   7.980 -0.1942 -0.3821  0.3761
   46MOL0     C 5972   5.617  10.113   7.993 -0.1938  0.1112  0.5622
   46MOL0     C 5973   5.741  10.075   8.052  0.0505 -0.4651  0.6331
   46MOL0     C 5974   5.833  10.169   8.103 -0.2359 -0.1278  0.0766
   46MOL0     O 5975   5.955  10.145   8.170 -0.1077  0.2623  0.4674
   46MOL0     C 5976   5.991  10.013   8.187 -0.1092  0.2902 -0.6314
   46MOL0     C 5977   6.135   9.980   8.240  1.0892 -0.5007  0.6163
   46MOL0     C 5978   6.248  10.028   8.153 -1.1520 -0.2187 -0.0847
   46MOL0     C 5979   6.380   9.991   8.210 -0.7929  0.4009  0.0402
   46MOL0     C 5980   6.506  10.037   8.121  0.0598 -0.5176 -0.4912
   46MOL0     C 5981   6.645   9.994   8.181  0.6511  0.4257 -0.2998
   46MOL0     C 5982   6.745  10.026   8.070  0.2376  0.3937  0.3222
   46MOL0     C 5983   6.884   9.972   8.113 -0.3488 -0.4176 -0.9467
   46MOL0    Cl 5984   6.893   9.788   8.142  0.3681 -0.0736 -0.1632
   46MOL0     C 5985   5.786  10.306   8.098  0.6434 -0.4615  0.7281
   46MOL0     C 5986   5.669  10.343   8.032  0.1987 -0.6070 -0.3230
   46MOL0     O 5987   5.377  10.311   8.128 -0.5866  0.0817 -0.7522
   46MOL0     C 5988   5.128  10.380   8.039  0.2287 -1.1582  0.4602
   46MOL0     C 5989   5.002  10.411   7.988  0.1142 -0.2815  0.5683
   46MOL0     N 5990   4.286  10.575   7.576  0.2624  0.4382  0.1766
   46MOL0     N 5991   4.174  10.509   7.610 -0.8071 -0.5526  0.0769
   46MOL0     C 5992   3.160  10.398   8.030  0.3307  0.6257 -0.4877
   46MOL0     C 5993   3.046  10.321   8.084  0.6203  0.3811  0.9091
   46MOL0     C 5994   2.771  10.005   8.184  0.1184  0.0319 -0.0968
   46MOL0     C 5995   2.707   9.936   8.084  0.0498  0.4207  0.9055
   46MOL0     C 5996   2.604   9.856   8.122 -0.4042  1.1924  0.2250
   46MOL0     C 5997   2.553   9.848   8.255 -0.1814 -0.8276  0.2915
   46MOL0     O 5998   2.433   9.783   8.291 -0.7748 -0.5866 -0.0964
   46MOL0     C 5999   2.402   9.659   8.222  0.3660 -1.1112  0.6384
   46MOL0     C 6000   2.255   9.676   8.170  0.8063 -0.0769  0.8069
   46MOL0     C 6001   2.205   9.546   8.109 -0.1375  0.1874  0.4561
   46MOL0     C 6002   2.058   9.563   8.054  0.2694  0.6156  0.9869
   46MOL0     C 6003   2.053   9.471   7.935  0.2323  0.2710  0.2264
   46MOL0     C 6004   2.080   9.391   7.849 -0.0096 -0.6879  0.0587
   46MOL0     C 6005   2.603   9.938   8.350  0.0272  0.0800  0.4058
   46MOL0     C 6006   2.715  10.013   8.319  0.4445 -0.1466 -0.0900
   46MOL0     H 6007   3.166  10.220   8.385 -2.3097 -1.3167 -0.1868
   46MOL0     H 6008   3.356  10.341   8.304  0.8895 -3.3431 -1.7205
   46MOL0     H 6009   3.528  10.402   8.132 -0.4332  0.7576 -1.6925
   46MOL0     H 6010   3.477  10.548   8.219 -0.3091  1.9479  0.2403
   46MOL0     H 6011   3.611  10.680   8.099 -2.2119  0.0427  2.2431
   46MOL0     H 6012   3.520  10.658   7.950  0.3613 -0.3223  0.2150
   46MOL0     H 6013   3.708  10.568   7.864  0.8134  1.8151  0.6448
   46MOL0     H 6014   3.640  10.417   7.924 -2.6604 -0.1204  1.5672
   46MOL0     H 6015   3.864  10.596   8.044  3.0976 -1.8788  1.2517
   46MOL0     H 6016   3.772  10.490   8.150 -1.4120  1.3880  0.8471
   46MOL0     H 6017   3.856  10.283   8.015  0.3614 -0.1655  2.3221
   46MOL0     H 6018   3.994  10.376   8.072  0.4606 -0.2047 -0.4438
   46MOL0     H 6019   3.971  10.487   7.844 -1.6484  0.3636 -0.7349
   46MOL0     H 6020   3.876  10.353   7.788 -0.5294  0.8471  0.4615
   46MOL0     H 6021   4.162  10.331   7.889  0.2245 -3.0089  0.9679
   46MOL0     H 6022   4.048  10.195   7.861 -2.2536 -0.8847 -1.9989
   46MOL0     H 6023   4.006  10.285   7.641 -1.0545 -0.6424  1.2981
   46MOL0     H 6024   4.149  10.180   7.658  1.7594  1.2537 -2.8057
   46MOL0     H 6025   4.400  10.272   7.632 -2.1967 -0.0374  4.0153
   46MOL0     H 6026   4.557  10.595   7.471  5.3839 -0.7915  0.2555
   46MOL0     H 6027   4.552  10.435   7.431  0.9981  0.5167 -0.0267
   46MOL0     H 6028   4.742  10.467   7.572  0.9054  0.2618 -0.5175
   46MOL0     H 6029   4.642  10.354   7.645  2.4287 -0.5798 -1.7196
   46MOL0     H 6030   4.629  10.646   7.764 -0.2972  0.1586 -0.9999
   46MOL0     H 6031   4.539  10.508   7.803 -1.3420  0.9183  0.4543
   46MOL0     H 6032   4.724  10.401   7.893  1.4254 -0.9882 -0.8842
   46MOL0     H 6033   4.750  10.574   7.937 -2.2107 -0.0064 -0.2628
   46MOL0     H 6034   5.097  10.436   7.655  0.3674  2.6411 -0.2999
   46MOL0     H 6035   5.296  10.352   7.748  0.7572 -0.9949 -0.6517
   46MOL0     H 6036   5.545  10.037   7.964  1.2392 -0.3827 -1.9766
   46MOL0     H 6037   5.744   9.967   8.042 -0.0499 -0.2710 -2.3285
   46MOL0     H 6038   5.977   9.969   8.088  1.6291  2.2634 -1.8188
   46MOL0     H 6039   5.921   9.968   8.258 -2.0545  2.0119 -1.3489
   46MOL0     H 6040   6.144   9.872   8.227 -1.3710 -0.7138  0.2959
   46MOL0     H 6041   6.139  10.011   8.345 -2.9387 -0.0186  0.7568
   46MOL0     H 6042   6.239  10.135   8.135  2.7602  0.3498  0.4907
   46MOL0     H 6043   6.238   9.986   8.053  0.0420  0.1347 -0.3610
   46MOL0     H 6044   6.385  10.033   8.311  2.3163 -1.7232  0.9076
   46MOL0     H 6045   6.381   9.882   8.206  0.2375  0.4098 -3.7605
   46MOL0     H 6046   6.498  10.146   8.119 -1.1608 -0.6059 -2.2476
   46MOL0     H 6047   6.484   9.991   8.024 -2.1819 -0.4997 -0.0512
   46MOL0     H 6048   6.648   9.889   8.213 -0.6832  0.7484  0.9585
   46MOL0     H 6049   6.679  10.050   8.269 -0.2779 -1.4079  1.3279
   46MOL0     H 6050   6.709   9.985   7.976 -0.9094 -0.9407  1.3008
   46MOL0     H 6051   6.750  10.135   8.059  1.1676  0.7960  3.6247
   46MOL0     H 6052   6.909  10.013   8.211  0.3469 -1.1736 -0.7995
   46MOL0     H 6053   6.958  10.006   8.040 -0.5041  0.9078 -0.5104
   46MOL0     H 6054   5.840  10.390   8.140 -0.6912  0.9930 -0.3668
   46MOL0     H 6055   5.638  10.447   8.028  0.9199 -0.4255 -1.9780
   46MOL0     H 6056   5.141  10.378   8.146  2.9485 -1.4602  0.2030
   46MOL0     H 6057   4.912  10.429   8.046 -0.4142  0.0093 -0.3143
   46MOL0     H 6058   3.157  10.465   7.944  0.8068  0.5437 -0.5687
   46MOL0     H 6059   2.964  10.301   8.015  1.4565  0.0256 -0.0175
   46MOL0     H 6060   2.735   9.944   7.979 -2.6448 -2.7134 -0.2383
   46MOL0     H 6061   2.544   9.817   8.040  0.5747  0.7716 -0.3114
   46MOL0     H 6062   2.407   9.576   8.292  3.3616 -1.3694  0.2533
   46MOL0     H 6063   2.474   9.641   8.141 -1.1237 -0.2357 -0.9590
   46MOL0     H 6064   2.192   9.710   8.253  2.1560  0.8927  1.4720
   46MOL0     H 6065   2.254   9.753   8.093  0.2725 -2.5132 -1.7808
   46MOL0     H 6066   2.216   9.475   8.191 -0.8110  0.2952  0.6526
   46MOL0     H 6067   2.270   9.525   8.024 -1.6480 -0.4209 -0.6058
   46MOL0     H 6068   1.991   9.531   8.134 -0.4027  1.2529  0.6870
   46MOL0     H 6069   2.023   9.660   8.017 -0.2819  0.7720  1.9023
   46MOL0     H 6070   2.113   9.326   7.770 -2.4877 -1.6667 -0.2616
   46MOL0     H 6071   2.553   9.949   8.446  0.1480  1.3903  0.3448
   46MOL0     H 6072   2.749  10.081   8.397 -0.6377  0.5831 -0.2210
   47MOL0     O 6073  10.545   8.221   8.728  0.1222  0.3010 -0.6686
   47MOL0     C 6074  10.549   8.322   8.653 -0.0417  0.0867  0.0354
   47MOL0     O 6075  10.451   8.361   8.560 -0.7455 -0.1110  0.4803
   47MOL0     C 6076  10.329   8.294   8.551  0.5255 -0.7101  0.2958
   47MOL0     C 6077  10.310   8.156   8.525 -0.1474  0.2405  0.5561
   47MOL0     C 6078  10.182   8.107   8.526  0.2605 -0.4584 -0.0611
   47MOL0     C 6079  10.071   8.189   8.548  0.4554  0.9546  0.0668
   47MOL0     O 6080   9.945   8.140   8.535 -0.7175 -0.4786 -0.1414
   47MOL0     C 6081   9.900   8.051   8.634  0.5662 -0.0217  0.1211
   47MOL0     C 6082   9.748   8.076   8.644 -0.1239 -0.0931  0.0361
   47MOL0     C 6083   9.680   7.975   8.557 -0.3217  0.0161  0.7388
   47MOL0     C 6084   9.528   7.986   8.582 -0.6308  0.7425 -0.3745
   47MOL0     C 6085   9.445   7.885   8.507 -0.1015  0.7002  0.3997
   47MOL0     C 6086   9.297   7.907   8.544  0.4863  0.6001 -0.1814
   47MOL0     C 6087   9.200   7.807   8.478 -0.7716 -0.3003 -0.7885
   47MOL0     C 6088   9.176   7.692   8.582  0.8650 -0.7278 -0.5082
   47MOL0     N 6089   9.080   7.738   8.685  0.9050 -0.0747  0.0605
   47MOL0     C 6090   9.100   7.791   8.809  0.1095  0.0930  0.6360
   47MOL0     C 6091   8.975   7.823   8.856 -0.5790 -1.2296 -0.1829
   47MOL0     C 6092   8.946   7.875   8.991  0.6902  0.4052 -0.5726
   47MOL0     C 6093   9.069   7.944   9.059 -0.7626  0.0122  0.6828
   47MOL0     C 6094   9.124   8.065   8.980  0.0570 -0.5466  0.5091
   47MOL0     C 6095   9.265   8.087   8.983  0.4015 -0.1778 -0.1987
   47MOL0     O 6096   9.297   8.171   8.871  0.2845  0.3809  0.6951
   47MOL0     C 6097   9.417   8.232   8.862 -0.3513  0.2652 -0.4113
   47MOL0     C 6098   9.452   8.296   8.741 -0.5623  0.1881  0.5884
   47MOL0     C 6099   9.572   8.366   8.732  0.1064  0.1647 -0.4912
   47MOL0     C 6100   9.661   8.380   8.838 -0.1672  1.0926 -0.0951
   47MOL0     C 6101   9.785   8.446   8.820 -0.9764  0.2441  0.1441
   47MOL0     O 6102   9.879   8.424   8.924 -0.2069  0.9588 -0.6607
   47MOL0     C 6103  10.005   8.476   8.910 -1.4583 -0.0296 -0.0914
   47MOL0     C 6104  10.042   8.613   8.904  1.2299  0.1369  0.0396
   47MOL0     C 6105  10.180   8.643   8.887 -0.4708 -0.4580  0.4128
   47MOL0     C 6106  10.274   8.546   8.881 -0.5489 -0.1050 -0.8976
   47MOL0     O 6107  10.409   8.573   8.855  0.1066 -0.7754 -0.8102
   47MOL0     C 6108  10.475   8.656   8.958  0.3531 -0.1428 -0.2932
   47MOL0     C 6109  10.604   8.584   8.979 -0.3699 -0.2884  0.4794
   47MOL0     C 6110  10.714   8.641   8.887 -0.4773  0.5403 -0.1799
   47MOL0     C 6111  10.766   8.781   8.926 -0.6612 -0.0784  0.2562
   47MOL0     C 6112  10.900   8.795   8.853  0.3114 -0.0140 -0.4530
   47MOL0     C 6113  10.974   8.933   8.878  0.3633 -0.4756  0.1974
   47MOL0     C 6114  11.097   8.955   8.792 -0.0973  0.1104  0.2459
   47MOL0     C 6115  11.211   8.847   8.823 -0.8474  0.6345 -0.7973
   47MOL0    Cl 6116  11.270   8.852   8.983 -0.3519 -0.2910  0.0617
   47MOL0     C 6117  10.244   8.410   8.896 -0.8615  0.3193  0.3549
   47MOL0     C 6118  10.113   8.377   8.908 -0.1878 -0.3933  0.1968
   47MOL0     O 6119   9.812   8.505   8.717 -0.0135  0.5214 -0.0623
   47MOL0     C 6120   9.634   8.308   8.959  0.2431 -1.2211 -0.3244
   47MOL0     C 6121   9.516   8.240   8.969 -0.6386  0.6215 -0.2052
   47MOL0     N 6122   8.880   7.773   8.771  0.4659  0.6015  0.2019
   47MOL0     N 6123   8.945   7.719   8.663 -0.0144  0.2576 -0.5487
   47MOL0     C 6124  10.100   8.318   8.588  0.6123 -0.0169 -0.4991
   47MOL0     C 6125  10.226   8.373   8.589  0.2912 -0.4567 -0.2183
   47MOL0     C 6126  10.685   8.389   8.634  0.0388 -1.1028 -0.6197
   47MOL0     C 6127  10.696   8.495   8.543  0.4903 -0.1573 -1.3354
   47MOL0     C 6128  10.814   8.563   8.526 -1.1365  0.1553 -0.5181
   47MOL0     C 6129  10.929   8.526   8.590 -0.7691 -0.9828 -0.0923
   47MOL0     O 6130  11.050   8.588   8.573  0.1926  0.2600  0.1502
   47MOL0     C 6131  11.072   8.649   8.441  0.5465 -0.5650  0.2082
   47MOL0     C 6132  11.075   8.549   8.322 -0.2771  0.4751  1.1076
   47MOL0     C 6133  11.139   8.412   8.353  0.2306 -0.4739  0.0835
   47MOL0     C 6134  11.053   8.285   8.335 -0.5616 -1.1983  0.6241
   47MOL0     C 6135  10.983   8.277   8.205 -0.3995 -1.1892  0.0051
   47MOL0     C 6136  10.927   8.256   8.103  0.8098 -0.3965 -0.0919
   47MOL0     C 6137  10.925   8.413   8.669  0.1290  0.1590 -0.6663
   47MOL0     C 6138  10.803   8.357   8.704  0.4257  1.3350  0.5951
   47MOL0     H 6139  10.401   8.109   8.489  0.6561  1.6991  0.6043
   47MOL0     H 6140  10.169   8.006   8.487 -1.4596  0.1302 -1.1259
   47MOL0     H 6141   9.942   8.084   8.730 -0.5481  2.9789 -0.2925
   47MOL0     H 6142   9.919   7.945   8.615 -2.1949 -0.5078 -0.3199
   47MOL0     H 6143   9.715   8.178   8.624  1.0741  0.5452  1.1415
   47MOL0     H 6144   9.717   8.069   8.749  1.3754  1.8332  0.6856
   47MOL0     H 6145   9.703   7.869   8.575  3.0302  0.7747  1.6010
   47MOL0     H 6146   9.701   7.978   8.450  0.1032 -1.4436  0.7565
   47MOL0     H 6147   9.498   7.969   8.686  0.2277 -0.0805 -0.2378
   47MOL0     H 6148   9.499   8.084   8.545 -2.2692 -0.1498 -1.5701
   47MOL0     H 6149   9.465   7.781   8.536  1.2071  1.4278  2.2608
   47MOL0     H 6150   9.441   7.891   8.398 -2.3017  3.3515  0.5395
   47MOL0     H 6151   9.276   8.007   8.508 -2.0704 -0.1902 -1.0786
   47MOL0     H 6152   9.285   7.899   8.653 -0.7891  2.3734 -0.1620
   47MOL0     H 6153   9.107   7.856   8.448 -0.8900  0.9803  1.4464
   47MOL0     H 6154   9.252   7.772   8.389 -0.4231  1.1363 -1.1712
   47MOL0     H 6155   9.273   7.665   8.625  1.3847  1.2331 -0.3598
   47MOL0     H 6156   9.134   7.609   8.525 -2.7855  1.0802 -0.7244
   47MOL0     H 6157   9.198   7.817   8.848 -1.1521  2.4813  2.4881
   47MOL0     H 6158   8.922   7.789   9.055 -0.8732  1.4915  0.3769
   47MOL0     H 6159   8.856   7.936   8.987  1.1177  0.9945 -1.7308
   47MOL0     H 6160   9.153   7.875   9.068 -0.5298  0.3474  1.1287
   47MOL0     H 6161   9.038   7.971   9.160 -0.1123  1.2459  0.5596
   47MOL0     H 6162   9.099   8.062   8.873 -0.3358 -0.4235  0.5956
   47MOL0     H 6163   9.068   8.154   9.012  0.4678  0.2857 -0.9760
   47MOL0     H 6164   9.310   7.989   8.963 -1.2665 -1.1946  0.7810
   47MOL0     H 6165   9.310   8.118   9.078  1.8819  0.1955 -0.9904
   47MOL0     H 6166   9.379   8.276   8.663  1.1948 -5.5309 -0.0938
   47MOL0     H 6167   9.596   8.421   8.642  0.2727 -1.4387 -1.4702
   47MOL0     H 6168   9.967   8.691   8.903 -1.0314 -1.9014 -0.3660
   47MOL0     H 6169  10.213   8.746   8.881  2.2747 -1.1559  1.7753
   47MOL0     H 6170  10.421   8.659   9.054 -0.4809 -1.5665 -0.6953
   47MOL0     H 6171  10.484   8.761   8.929  2.0739 -0.4129 -0.8302
   47MOL0     H 6172  10.587   8.477   8.967  0.1746 -0.1597 -1.9417
   47MOL0     H 6173  10.639   8.605   9.081  1.0139 -0.1029 -0.0162
   47MOL0     H 6174  10.688   8.642   8.781  1.3789 -1.0341 -0.6941
   47MOL0     H 6175  10.796   8.569   8.896  0.3621  1.7042  2.2242
   47MOL0     H 6176  10.696   8.854   8.885  0.7018  1.1572  0.0447
   47MOL0     H 6177  10.779   8.801   9.033  1.6432  2.5157 -0.3699
   47MOL0     H 6178  10.892   8.795   8.744 -2.4601  2.6379 -0.3919
   47MOL0     H 6179  10.960   8.710   8.888 -1.6731 -1.2878  0.0369
   47MOL0     H 6180  11.005   8.943   8.983 -0.7269 -2.0210  0.7034
   47MOL0     H 6181  10.907   9.017   8.859 -1.5370 -1.7844  0.8402
   47MOL0     H 6182  11.060   8.949   8.690  2.9482  1.0522 -1.0524
   47MOL0     H 6183  11.142   9.055   8.798  0.6683  0.0642 -2.9274
   47MOL0     H 6184  11.288   8.854   8.746  0.3396 -2.3592 -0.0356
   47MOL0     H 6185  11.170   8.746   8.819 -0.1413  0.3145 -0.2796
   47MOL0     H 6186  10.321   8.335   8.902  0.0282  1.2798  1.5428
   47MOL0     H 6187  10.085   8.277   8.941 -1.0270  0.2597  1.5473
   47MOL0     H 6188   9.697   8.312   9.047  0.3246 -0.2210 -0.4153
   47MOL0     H 6189   9.501   8.190   9.064  0.1243  2.8152  1.1259
   47MOL0     H 6190  10.019   8.380   8.626  0.7057 -0.0886 -0.1849
   47MOL0     H 6191  10.252   8.477   8.608 -0.6607 -0.3910  0.8007
   47MOL0     H 6192  10.618   8.542   8.485  2.0982  3.6390 -0.6949
   47MOL0     H 6193  10.817   8.647   8.457 -0.6312 -0.1249 -0.8461
   47MOL0     H 6194  11.166   8.704   8.444 -0.9019  2.2804 -1.3112
   47MOL0     H 6195  11.003   8.732   8.422  4.1135  3.0256  1.5976
   47MOL0     H 6196  10.971   8.528   8.296 -0.0076 -1.0125  1.1187
   47MOL0     H 6197  11.123   8.590   8.233  0.3863 -2.4761 -0.0183
   47MOL0     H 6198  11.170   8.415   8.458 -0.4963  1.5428  0.2904
   47MOL0     H 6199  11.228   8.397   8.292 -0.2459  2.0089 -1.3470
   47MOL0     H 6200  11.117   8.197   8.339  2.7530  0.9951 -0.1005
   47MOL0     H 6201  10.973   8.280   8.409 -0.5130  0.3500  0.8111
   47MOL0     H 6202  10.871   8.226   8.016  1.7487 -3.1186  0.1424
   47MOL0     H 6203  11.014   8.370   8.713  0.0057 -1.3363 -1.7813
   47MOL0     H 6204  10.812   8.273   8.771 -0.1729  1.0037  0.2709
   48MOL0     O 6205   7.564   6.447   4.093  0.6979 -0.1177  1.0182
   48MOL0     C 6206   7.652   6.418   4.171  0.3919  1.2456  0.2424
   48MOL0     O 6207   7.655   6.300   4.239  0.3121  0.1846 -0.0928
   48MOL0     C 6208   7.542   6.216   4.234 -0.0278  0.4814 -0.0608
   48MOL0     C 6209   7.456   6.206   4.337 -0.6824  0.3982 -0.0436
   48MOL0     C 6210   7.347   6.120   4.321  0.5367 -0.5503  0.1937
   48MOL0     C 6211   7.321   6.042   4.205 -0.2476  0.2277 -0.1539
   48MOL0     O 6212   7.209   5.966   4.189 -0.8235 -0.0952  0.9260
   48MOL0     C 6213   7.108   5.952   4.293  0.3316  0.7757 -0.9522
   48MOL0     C 6214   6.996   6.062   4.318 -0.3636 -1.0483 -0.1698
   48MOL0     C 6215   6.903   6.012   4.426 -0.1733 -0.0199 -0.0548
   48MOL0     C 6216   6.903   6.073   4.572  0.0824 -0.2250 -0.0941
   48MOL0     C 6217   6.857   6.226   4.558 -0.4114  0.6830 -0.1550
   48MOL0     C 6218   6.847   6.282   4.701  0.1962  0.5337 -0.6793
   48MOL0     C 6219   6.825   6.429   4.696 -0.8247  0.6151 -0.1463
   48MOL0     C 6220   6.801   6.485   4.830  0.4537  0.7161  1.0371
   48MOL0     N 6221   6.658   6.462   4.868 -0.1273 -0.3841 -1.1673
   48MOL0     C 6222   6.599   6.348   4.911 -0.2869 -0.0555 -0.0582
   48MOL0     C 6223   6.464   6.365   4.906 -0.2063  0.3461 -0.4364
   48MOL0     C 6224   6.360   6.263   4.959  0.1174 -0.2972 -0.7593
   48MOL0     C 6225   6.214   6.309   4.940  0.3658  0.1546  0.7208
   48MOL0     C 6226   6.125   6.195   4.991  0.0311  0.2880  0.0240
   48MOL0     C 6227   5.982   6.222   4.937 -0.3878  0.0280 -0.6803
   48MOL0     O 6228   5.900   6.114   4.983  0.5991 -0.1472 -0.3409
   48MOL0     C 6229   5.761   6.119   4.966 -0.6976 -0.1105 -0.4804
   48MOL0     C 6230   5.687   6.226   4.927 -0.3163 -0.9459  0.6144
   48MOL0     C 6231   5.546   6.208   4.902 -0.3003 -0.4104  0.1375
   48MOL0     C 6232   5.485   6.091   4.927 -0.0335 -0.9250  0.1526
   48MOL0     C 6233   5.346   6.074   4.899  0.3317  0.6584 -0.5956
   48MOL0     O 6234   5.283   6.143   4.794  1.1804 -0.0628  0.1756
   48MOL0     C 6235   5.151   6.117   4.780 -0.2069 -0.0419 -0.2026
   48MOL0     C 6236   5.062   6.171   4.874  1.0696 -0.8609 -0.6966
   48MOL0     C 6237   4.921   6.151   4.863 -0.3207  0.8923 -0.7461
   48MOL0     C 6238   4.872   6.071   4.756  0.1733  0.7129  0.4492
   48MOL0     O 6239   4.738   6.045   4.746  0.0016  0.0822  0.8676
   48MOL0     C 6240   4.668   5.996   4.857 -1.2582  0.4466 -0.2394
   48MOL0     C 6241   4.568   6.085   4.918  1.5463  0.5371  0.2437
   48MOL0     C 6242   4.449   6.110   4.817 -0.2722 -0.1665 -0.5106
   48MOL0     C 6243   4.350   6.194   4.889 -0.9044  0.3706 -0.1387
   48MOL0     C 6244   4.234   6.234   4.798  0.2877 -0.2746  0.0407
   48MOL0     C 6245   4.127   6.296   4.882 -0.3805 -0.0551 -0.9961
   48MOL0     C 6246   4.012   6.352   4.796 -0.2069  0.5673 -0.4619
   48MOL0     C 6247   3.881   6.389   4.870 -0.2615 -0.1090  0.3195
   48MOL0    Cl 6248   3.782   6.238   4.928  0.0351 -0.7462  0.1157
   48MOL0     C 6249   4.973   6.029   4.656 -0.2028  0.5294  0.3229
   48MOL0     C 6250   5.108   6.053   4.661  0.0722  0.4875  0.2471
   48MOL0     O 6251   5.288   5.991   4.965  0.2848  0.2366  0.6787
   48MOL0     C 6252   5.566   5.976   4.960  0.3245  0.2238  0.6053
   48MOL0     C 6253   5.700   5.993   4.980  0.0137 -0.8727 -0.3813
   48MOL0     N 6254   6.447   6.492   4.844 -0.7590  0.5020  0.2319
   48MOL0     N 6255   6.556   6.543   4.822 -0.7884  0.0638 -0.4647
   48MOL0     C 6256   7.417   6.052   4.110 -0.0698 -0.6027  0.4789
   48MOL0     C 6257   7.520   6.134   4.118  0.0262 -0.6385  0.2371
   48MOL0     C 6258   7.769   6.495   4.181  0.3728  0.4008  0.9743
   48MOL0     C 6259   7.893   6.451   4.224 -0.7427  0.5429  0.7874
   48MOL0     C 6260   7.997   6.539   4.263 -0.2920 -0.3633  0.0034
   48MOL0     C 6261   7.982   6.674   4.239 -1.0224  0.8134 -0.6244
   48MOL0     O 6262   8.074   6.759   4.284  0.0862  0.1828  0.9818
   48MOL0     C 6263   8.124   6.837   4.173 -0.1471 -0.2401  0.4250
   48MOL0     C 6264   8.269   6.806   4.146  0.5965 -0.5311  0.2896
   48MOL0     C 6265   8.370   6.807   4.264  0.8734 -0.5256  0.4706
   48MOL0     C 6266   8.372   6.671   4.327 -1.0217 -0.6883  0.6377
   48MOL0     C 6267   8.496   6.648   4.391  0.3684  0.7356  0.1224
   48MOL0     C 6268   8.603   6.622   4.449  0.7606  0.6926  0.0969
   48MOL0     C 6269   7.863   6.723   4.187  0.4273  0.2847  0.2126
   48MOL0     C 6270   7.758   6.634   4.148  0.1607  0.0396  0.4871
   48MOL0     H 6271   7.486   6.257   4.427  0.2374 -1.0379  0.4961
   48MOL0     H 6272   7.273   6.126   4.401 -0.1838 -0.1170 -0.4825
   48MOL0     H 6273   7.160   5.933   4.387 -0.4705  1.2079 -0.4128
   48MOL0     H 6274   7.061   5.856   4.271  3.9945 -0.9435 -2.0342
   48MOL0     H 6275   6.939   6.075   4.226 -0.8978  0.2802  0.3254
   48MOL0     H 6276   7.049   6.155   4.340  1.6136 -1.9467 -0.8467
   48MOL0     H 6277   6.918   5.904   4.434  1.5781  0.2992  3.1086
   48MOL0     H 6278   6.804   6.039   4.389 -1.2589  1.6118  3.5522
   48MOL0     H 6279   6.821   6.027   4.628  0.4945  2.1425  2.7259
   48MOL0     H 6280   7.000   6.054   4.618  1.5849  0.5608 -2.7461
   48MOL0     H 6281   6.767   6.228   4.498  0.3765 -1.3663 -1.5150
   48MOL0     H 6282   6.936   6.283   4.508 -1.2464 -0.1710 -2.5358
   48MOL0     H 6283   6.940   6.259   4.753  0.4142 -2.4617 -2.1574
   48MOL0     H 6284   6.769   6.224   4.751  1.0682 -1.8390 -1.9063
   48MOL0     H 6285   6.920   6.469   4.657  0.1145  0.1489  1.5714
   48MOL0     H 6286   6.734   6.442   4.636 -1.5721 -0.5814  0.7004
   48MOL0     H 6287   6.804   6.594   4.819 -0.5166  0.5514 -1.4560
   48MOL0     H 6288   6.876   6.463   4.907 -0.1006  1.0300  1.6852
   48MOL0     H 6289   6.651   6.255   4.934  2.2037  0.6929 -2.1400
   48MOL0     H 6290   6.371   6.255   5.068  2.1302  2.6494 -0.6259
   48MOL0     H 6291   6.383   6.166   4.915 -0.2193 -0.4780 -0.5417
   48MOL0     H 6292   6.203   6.329   4.834 -0.6595 -1.6910  0.4198
   48MOL0     H 6293   6.184   6.397   4.997 -0.7211  0.5212 -0.3657
   48MOL0     H 6294   6.163   6.101   4.951  3.2007  0.7230  1.6096
   48MOL0     H 6295   6.136   6.188   5.099  3.4479 -1.7143 -0.2976
   48MOL0     H 6296   5.977   6.230   4.828 -0.8925  1.0069 -0.5917
   48MOL0     H 6297   5.952   6.317   4.982 -0.4189 -0.7981  1.1177
   48MOL0     H 6298   5.729   6.324   4.909  3.0050 -1.9214  2.2477
   48MOL0     H 6299   5.484   6.289   4.866 -1.5733  0.4178  3.6999
   48MOL0     H 6300   5.091   6.219   4.967  0.3577  0.2733 -1.0449
   48MOL0     H 6301   4.864   6.192   4.945  3.8814  0.3016  2.8709
   48MOL0     H 6302   4.746   5.972   4.930 -2.5603 -3.2892  0.1578
   48MOL0     H 6303   4.613   5.906   4.827 -0.5555  0.8459 -2.8982
   48MOL0     H 6304   4.615   6.179   4.949  3.9044  0.1000 -1.7701
   48MOL0     H 6305   4.525   6.043   5.009 -0.6897  2.0575 -0.0270
   48MOL0     H 6306   4.410   6.016   4.777 -0.9714  0.7994 -2.2397
   48MOL0     H 6307   4.474   6.175   4.732 -0.5067  1.2396  0.4736
   48MOL0     H 6308   4.305   6.130   4.964  3.0062 -1.4803  0.8867
   48MOL0     H 6309   4.392   6.281   4.942 -1.7554 -0.1632  1.4604
   48MOL0     H 6310   4.200   6.142   4.751  1.7535 -0.2157 -1.2344
   48MOL0     H 6311   4.272   6.295   4.714 -1.1826 -0.4200 -0.7620
   48MOL0     H 6312   4.168   6.374   4.947 -2.3225 -2.2849  3.3908
   48MOL0     H 6313   4.094   6.214   4.948 -2.5783  1.4673 -0.0982
   48MOL0     H 6314   4.051   6.449   4.762  0.6258 -0.4549 -2.5756
   48MOL0     H 6315   4.002   6.288   4.708  1.5662  0.2585 -0.4834
   48MOL0     H 6316   3.801   6.433   4.810  0.2275 -0.4446 -0.6092
   48MOL0     H 6317   3.897   6.464   4.948 -1.6312 -0.5041  1.0232
   48MOL0     H 6318   4.941   5.966   4.574  3.5237 -1.2630  0.0446
   48MOL0     H 6319   5.180   6.009   4.593  0.2722  0.7423  0.2920
   48MOL0     H 6320   5.522   5.878   4.975 -1.0985  0.7224 -0.1185
   48MOL0     H 6321   5.742   5.904   5.027  0.9372 -0.0664  0.3683
   48MOL0     H 6322   7.408   6.012   4.009  0.7349  3.0275 -1.1690
   48MOL0     H 6323   7.586   6.166   4.038 -0.1151  1.8374  1.0169
   48MOL0     H 6324   7.901   6.346   4.252  0.9056 -0.4498 -2.8217
   48MOL0     H 6325   8.085   6.501   4.312  0.6543  2.9435  1.1169
   48MOL0     H 6326   8.099   6.938   4.207 -0.8503 -0.0028 -0.7367
   48MOL0     H 6327   8.074   6.820   4.077 -1.4631 -0.4053  1.1156
   48MOL0     H 6328   8.257   6.710   4.095 -1.3060  0.4570 -1.2225
   48MOL0     H 6329   8.311   6.873   4.070  1.2784 -1.4114 -0.1285
   48MOL0     H 6330   8.346   6.891   4.329  0.1644  0.5272 -1.1127
   48MOL0     H 6331   8.466   6.836   4.221  0.8910 -1.9259 -0.4927
   48MOL0     H 6332   8.290   6.667   4.399  0.8588 -0.8709  2.9205
   48MOL0     H 6333   8.347   6.593   4.255 -1.4066  1.6382 -1.9051
   48MOL0     H 6334   8.689   6.606   4.511  0.1265 -2.7040  0.3228
   48MOL0     H 6335   7.840   6.829   4.183 -2.1453 -0.1338  1.5194
   48MOL0     H 6336   7.667   6.679   4.111  0.3322  0.2276  0.2891
   49MOL0     O 6337   4.400  10.022   3.705 -0.8479 -0.5258 -0.2018
   49MOL0     C 6338   4.428  10.066   3.814  0.1317 -0.0330 -1.1467
   49MOL0     O 6339   4.412  10.197   3.856  0.1485  0.6795 -0.7672
   49MOL0     C 6340   4.322  10.273   3.787 -0.1315 -0.0986 -0.0612
   49MOL0     C 6341   4.195  10.315   3.833  0.5672 -1.3269  0.2060
   49MOL0     C 6342   4.122  10.404   3.757  0.7316  0.4509  0.0300
   49MOL0     C 6343   4.170  10.457   3.632 -0.1216 -0.2953 -0.4748
   49MOL0     O 6344   4.087  10.542   3.563 -0.6307  0.1641 -0.0333
   49MOL0     C 6345   4.115  10.572   3.423 -0.4462  1.4102  0.1779
   49MOL0     C 6346   3.977  10.595   3.348 -0.5165  0.3074 -0.0755
   49MOL0     C 6347   4.007  10.666   3.210  0.0487 -0.6017  1.0163
   49MOL0     C 6348   4.097  10.589   3.118 -0.3245  0.6772  0.2157
   49MOL0     C 6349   4.004  10.503   3.023 -0.0043 -0.4963  0.6647
   49MOL0     C 6350   3.931  10.383   3.083 -0.3207 -0.5732 -0.1373
   49MOL0     C 6351   3.866  10.268   2.998 -0.7902 -0.2260  0.2220
   49MOL0     C 6352   3.727  10.231   3.061  0.2988  0.5008  0.4083
   49MOL0     N 6353   3.645  10.125   2.985  0.0741 -0.2881  0.2913
   49MOL0     C 6354   3.601  10.131   2.852 -0.0076  0.4269  0.3347
   49MOL0     C 6355   3.547  10.013   2.830 -0.1177  0.2378 -0.4745
   49MOL0     C 6356   3.479   9.977   2.700 -0.5688 -0.0898  0.8710
   49MOL0     C 6357   3.324   9.978   2.698 -0.4319  0.7479 -0.1477
   49MOL0     C 6358   3.254  10.100   2.760 -0.3115  0.5454 -0.4401
   49MOL0     C 6359   3.104  10.092   2.749  0.3607  0.2064 -0.5032
   49MOL0     O 6360   3.060  10.179   2.644 -0.2747  0.2552  0.1125
   49MOL0     C 6361   2.932  10.223   2.635 -0.1165  0.0245 -0.3640
   49MOL0     C 6362   2.896  10.336   2.559 -0.3078 -0.6478 -0.0529
   49MOL0     C 6363   2.768  10.387   2.536  0.0062 -0.7820  0.0693
   49MOL0     C 6364   2.659  10.319   2.584 -0.4701  0.2147  0.1892
   49MOL0     C 6365   2.530  10.374   2.570 -0.1452  0.5335  0.3739
   49MOL0     O 6366   2.447  10.343   2.663 -0.1074  0.2846 -0.4649
   49MOL0     C 6367   2.318  10.389   2.661  1.0471 -0.0423  0.6098
   49MOL0     C 6368   2.269  10.508   2.592  0.7480 -0.6548  0.7268
   49MOL0     C 6369   2.137  10.554   2.591  0.6799  0.3167  1.3985
   49MOL0     C 6370   2.037  10.470   2.647  0.2585  0.3647 -0.1681
   49MOL0     O 6371   1.908  10.500   2.634  1.1821  0.0458  1.0385
   49MOL0     C 6372   1.842  10.546   2.754 -0.0099  0.0151 -0.2190
   49MOL0     C 6373   1.690  10.504   2.748 -1.5355 -0.5741  0.0057
   49MOL0     C 6374   1.612  10.524   2.877  0.5228  0.7218 -0.3092
   49MOL0     C 6375   1.472  10.525   2.833  0.0812 -0.8558  0.4316
   49MOL0     C 6376   1.384  10.502   2.961 -1.1829  0.2299  0.2469
   49MOL0     C 6377   1.237  10.496   2.925  0.4101 -1.5174 -0.1556
   49MOL0     C 6378   1.179  10.355   2.909 -0.8968 -0.5503  0.4827
   49MOL0     C 6379   1.070  10.337   3.000 -0.1606  0.0309  0.1621
   49MOL0    Cl 6380   0.905  10.414   2.954 -0.2118  0.3485 -0.2297
   49MOL0     C 6381   2.082  10.354   2.714  0.5443  0.2343 -0.4792
   49MOL0     C 6382   2.221  10.314   2.721  0.9299  0.6780  0.7222
   49MOL0     O 6383   2.511  10.445   2.471 -0.2376  0.1581  0.1119
   49MOL0     C 6384   2.683  10.199   2.658 -0.3835  0.0505 -0.6961
   49MOL0     C 6385   2.817  10.155   2.681  0.7026 -0.1852  0.1042
   49MOL0     N 6386   3.549   9.941   2.944  0.0200 -0.0462 -0.2563
   49MOL0     N 6387   3.604  10.007   3.030 -0.9843 -0.0140  0.1916
   49MOL0     C 6388   4.306  10.429   3.599  0.5338 -0.8028  0.3649
   49MOL0     C 6389   4.384  10.334   3.678 -0.1379 -0.4633  0.0638
   49MOL0     C 6390   4.505   9.982   3.902  0.5240  0.2701  0.2555
   49MOL0     C 6391   4.509   9.840   3.892 -0.5534 -0.9640  0.2696
   49MOL0     C 6392   4.595   9.768   3.980 -0.6662 -0.4674 -0.5218
   49MOL0     C 6393   4.658   9.827   4.090  0.2896 -0.2159 -1.3572
   49MOL0     O 6394   4.736   9.766   4.178  0.8221  0.2025  0.7706
   49MOL0     C 6395   4.834   9.680   4.114  0.1017 -0.1374 -0.6583
   49MOL0     C 6396   4.950   9.667   4.220  0.0082  0.2819 -0.5557
   49MOL0     C 6397   4.994   9.796   4.280  0.6057  0.5712 -0.3993
   49MOL0     C 6398   5.058   9.880   4.176  0.0968 -0.4123 -0.7398
   49MOL0     C 6399   5.138   9.993   4.243  0.6826 -0.1801 -0.0791
   49MOL0     C 6400   5.216  10.083   4.291  0.7349 -0.3141  0.9268
   49MOL0     C 6401   4.644   9.966   4.098  0.1675 -0.0832 -0.2341
   49MOL0     C 6402   4.571  10.040   4.010 -0.0877 -0.2468  0.1483
   49MOL0     H 6403   4.145  10.261   3.913  2.7038 -2.3163  0.9633
   49MOL0     H 6404   4.019  10.418   3.789  0.9891 -1.1049  1.7069
   49MOL0     H 6405   4.162  10.485   3.378 -3.3826  0.8773 -2.1647
   49MOL0     H 6406   4.184  10.654   3.402 -0.1244  0.6614 -1.8386
   49MOL0     H 6407   3.910  10.644   3.419  1.9387  0.0092  2.6188
   49MOL0     H 6408   3.940  10.496   3.318  1.6165 -0.2144 -1.1998
   49MOL0     H 6409   4.046  10.767   3.226  0.8031  0.1140 -3.7728
   49MOL0     H 6410   3.914  10.694   3.160  0.9119  0.9677  0.2161
   49MOL0     H 6411   4.146  10.661   3.051 -2.7356  2.8330  0.6024
   49MOL0     H 6412   4.169  10.525   3.168 -1.6584 -1.8776 -0.9459
   49MOL0     H 6413   4.065  10.478   2.936  1.6071 -0.9166  1.8657
   49MOL0     H 6414   3.926  10.568   2.979  0.6540 -0.2372 -0.1510
   49MOL0     H 6415   3.846  10.434   3.127  0.1923 -0.7817  1.1224
   49MOL0     H 6416   3.993  10.329   3.155 -0.4673 -4.0690 -2.3618
   49MOL0     H 6417   3.853  10.302   2.895  1.1713  0.3385  0.1208
   49MOL0     H 6418   3.938  10.187   2.996 -1.0972 -0.5157  0.5968
   49MOL0     H 6419   3.660  10.310   3.097 -0.1749  0.5354 -0.5132
   49MOL0     H 6420   3.753  10.184   3.156  1.6892  2.3072  0.9793
   49MOL0     H 6421   3.609  10.209   2.777 -0.5800 -0.0391 -0.2232
   49MOL0     H 6422   3.526   9.883   2.671 -1.2531 -0.3257  0.5248
   49MOL0     H 6423   3.514  10.059   2.637  1.3841  1.5791  3.8725
   49MOL0     H 6424   3.295   9.889   2.754 -0.6872  1.3323  0.6702
   49MOL0     H 6425   3.300   9.965   2.592  0.5609 -0.4409 -0.2527
   49MOL0     H 6426   3.275  10.098   2.867  2.0088  2.3162 -0.7976
   49MOL0     H 6427   3.301  10.190   2.720  1.2889  0.3060  0.7962
   49MOL0     H 6428   3.068  10.134   2.843  0.9458 -2.9240  1.2450
   49MOL0     H 6429   3.075   9.986   2.742  2.2170 -0.3676  0.0877
   49MOL0     H 6430   2.986  10.384   2.521  0.8952 -1.2307  1.8794
   49MOL0     H 6431   2.748  10.469   2.467 -0.0902 -0.3204  0.6315
   49MOL0     H 6432   2.335  10.579   2.544  2.8292 -1.6364  1.9680
   49MOL0     H 6433   2.127  10.651   2.542 -1.0804 -1.1357 -1.3679
   49MOL0     H 6434   1.845  10.655   2.743 -3.0676  0.1296 -0.8252
   49MOL0     H 6435   1.890  10.512   2.846 -0.5709  0.6259  0.3143
   49MOL0     H 6436   1.682  10.406   2.699  0.5682  0.0261 -1.6965
   49MOL0     H 6437   1.658  10.583   2.679  0.7450 -2.1190 -3.1108
   49MOL0     H 6438   1.636  10.617   2.929  0.8105  1.8843 -2.4274
   49MOL0     H 6439   1.631  10.441   2.946  1.0830  0.1832 -1.0971
   49MOL0     H 6440   1.446  10.620   2.786  1.7280 -0.3094  0.5794
   49MOL0     H 6441   1.446  10.456   2.751 -3.5339 -0.5150  1.1114
   49MOL0     H 6442   1.403  10.595   3.015  3.2509  0.5229 -1.4126
   49MOL0     H 6443   1.415  10.419   3.025  1.5003  0.9883  0.0461
   49MOL0     H 6444   1.218  10.564   2.841 -2.0313 -1.5664  0.2940
   49MOL0     H 6445   1.180  10.553   2.998 -4.7814 -2.5936 -2.8759
   49MOL0     H 6446   1.148  10.348   2.805  0.3808  1.7543 -0.1173
   49MOL0     H 6447   1.256  10.279   2.924 -0.5460 -1.1536 -3.4057
   49MOL0     H 6448   1.112  10.377   3.093  1.7979 -0.5393 -0.4266
   49MOL0     H 6449   1.056  10.228   3.003  1.5798 -0.2181  0.8154
   49MOL0     H 6450   2.006  10.294   2.762  2.4611 -1.9930 -0.0804
   49MOL0     H 6451   2.242  10.232   2.789 -0.3067 -3.2212 -3.1906
   49MOL0     H 6452   2.600  10.146   2.705  0.3174 -0.7884 -0.3745
   49MOL0     H 6453   2.837  10.071   2.747  1.9195  0.1424  0.1744
   49MOL0     H 6454   4.354  10.463   3.508  1.6143 -0.3762  1.0739
   49MOL0     H 6455   4.485  10.316   3.643 -0.3748  0.2469 -1.0179
   49MOL0     H 6456   4.456   9.797   3.808 -2.2593 -3.2576  2.3704
   49MOL0     H 6457   4.612   9.663   3.959  1.9982 -0.0779 -0.6580
   49MOL0     H 6458   4.879   9.723   4.024 -1.8262 -1.5081 -2.3723
   49MOL0     H 6459   4.788   9.583   4.091 -0.0666 -0.5077  1.1279
   49MOL0     H 6460   4.930   9.604   4.306  1.5051 -2.3201 -2.0151
   49MOL0     H 6461   5.036   9.623   4.170 -0.3478 -0.6217 -0.3840
   49MOL0     H 6462   5.067   9.773   4.359 -0.1476 -0.9760 -0.1166
   49MOL0     H 6463   4.910   9.843   4.331 -2.3395 -2.6676 -1.8552
   49MOL0     H 6464   5.132   9.829   4.113 -1.2674  0.7920 -3.5441
   49MOL0     H 6465   4.982   9.918   4.108  0.3027 -0.3754 -0.9533
   49MOL0     H 6466   5.266  10.171   4.328 -1.4183  0.1415  3.0343
   49MOL0     H 6467   4.684  10.021   4.183 -1.1966  2.2652 -1.0499
   49MOL0     H 6468   4.570  10.148   4.023 -3.7819 -0.0731 -0.3668
   50MOL0     O 6469   3.419   9.465   1.890  0.2011 -0.7514  0.3617
   50MOL0     C 6470   3.386   9.581   1.860 -0.1484  0.1502 -0.6601
   50MOL0     O 6471   3.472   9.686   1.828  0.1500  0.5301  1.0668
   50MOL0     C 6472   3.600   9.658   1.843 -0.5778  1.1176  0.0006
   50MOL0     C 6473   3.655   9.625   1.967  0.1813  0.4605  0.5582
   50MOL0     C 6474   3.799   9.606   1.989 -0.3985 -0.2264  0.9993
   50MOL0     C 6475   3.882   9.628   1.880 -0.1098  0.5710 -0.5737
   50MOL0     O 6476   4.020   9.609   1.892 -0.8137 -0.0297 -0.2587
   50MOL0     C 6477   4.074   9.504   1.969  0.7571  0.2713  0.5000
   50MOL0     C 6478   4.221   9.485   1.943 -1.0080  0.3285  0.1609
   50MOL0     C 6479   4.254   9.429   1.806  0.0563 -0.8882 -0.1277
   50MOL0     C 6480   4.371   9.486   1.731 -0.6008  0.3881 -0.6106
   50MOL0     C 6481   4.362   9.636   1.698  0.4261 -0.2164 -0.7300
   50MOL0     C 6482   4.469   9.698   1.614 -0.1449  0.6002 -0.0460
   50MOL0     C 6483   4.440   9.848   1.597 -0.2532 -0.1943 -0.2761
   50MOL0     C 6484   4.547   9.931   1.522 -0.4581 -0.0227  0.2374
   50MOL0     N 6485   4.548   9.901   1.379  0.0468 -0.1456  0.0870
   50MOL0     C 6486   4.484   9.966   1.279  0.2488 -0.5322 -0.0710
   50MOL0     C 6487   4.518   9.894   1.168 -0.6732  0.6517 -1.2425
   50MOL0     C 6488   4.482   9.941   1.023  0.4262  0.1980 -0.3075
   50MOL0     C 6489   4.406   9.840   0.929 -0.4304 -0.1115  0.4005
   50MOL0     C 6490   4.257   9.839   0.968 -0.0908  1.0927 -0.2626
   50MOL0     C 6491   4.188   9.730   0.873  0.6955 -0.0725  0.7783
   50MOL0     O 6492   4.050   9.752   0.876 -0.2254  0.2125  0.4666
   50MOL0     C 6493   3.972   9.656   0.822 -0.6094  0.1883  0.6593
   50MOL0     C 6494   3.996   9.537   0.751  0.4224  0.7059 -0.3744
   50MOL0     C 6495   3.896   9.462   0.684 -0.0184 -0.1124  0.4658
   50MOL0     C 6496   3.756   9.498   0.694  0.8031 -0.0611  0.7490
   50MOL0     C 6497   3.645   9.415   0.641  0.1431  0.0827 -0.0777
   50MOL0     O 6498   3.523   9.467   0.644  0.1157 -0.1131 -0.4108
   50MOL0     C 6499   3.411   9.422   0.576 -0.1246 -0.6177  0.3789
   50MOL0     C 6500   3.411   9.348   0.449  0.4121  0.7832 -1.0895
   50MOL0     C 6501   3.292   9.310   0.388 -0.4451 -0.5452 -0.0915
   50MOL0     C 6502   3.170   9.361   0.437  0.0255  0.5307  0.0289
   50MOL0     O 6503   3.059   9.332   0.359  0.1252 -1.3566  0.1326
   50MOL0     C 6504   2.950   9.425   0.359  0.0036  0.5079 -0.0896
   50MOL0     C 6505   2.843   9.376   0.257  0.1227 -0.2634 -0.6073
   50MOL0     C 6506   2.759   9.266   0.310  0.6254 -0.3194 -1.4772
   50MOL0     C 6507   2.643   9.228   0.221  0.8073  0.7453  0.1674
   50MOL0     C 6508   2.626   9.077   0.248  0.1190  0.4035 -0.1734
   50MOL0     C 6509   2.518   9.023   0.154 -1.2609 -0.0979  0.4875
   50MOL0     C 6510   2.485   8.875   0.189  0.2866  0.1757 -0.8987
   50MOL0     C 6511   2.408   8.864   0.318  0.4905  0.1053 -0.8638
   50MOL0    Cl 6512   2.242   8.943   0.276  0.0710 -0.0413 -0.1343
   50MOL0     C 6513   3.163   9.432   0.560 -0.3306  0.9452  0.0770
   50MOL0     C 6514   3.284   9.460   0.621 -0.5435  0.1798 -0.3022
   50MOL0     O 6515   3.678   9.312   0.581 -0.6751  0.6801  0.2593
   50MOL0     C 6516   3.729   9.606   0.766 -0.7765 -0.5825 -0.5444
   50MOL0     C 6517   3.834   9.678   0.832  1.0631 -0.0754  0.7796
   50MOL0     N 6518   4.602   9.793   1.199  0.2408  0.1369  0.4222
   50MOL0     N 6519   4.611   9.793   1.328  0.8310  0.6713  0.2182
   50MOL0     C 6520   3.828   9.667   1.760 -0.4198 -0.7076  0.0207
   50MOL0     C 6521   3.690   9.680   1.738  0.1693  0.0912 -0.1477
   50MOL0     C 6522   3.239   9.610   1.874  0.0137 -0.3622 -0.3966
   50MOL0     C 6523   3.138   9.513   1.896  0.0171  0.3049 -0.0101
   50MOL0     C 6524   3.001   9.550   1.912  0.0691  0.2504 -0.7483
   50MOL0     C 6525   2.962   9.680   1.899  0.9008 -0.4971  0.2972
   50MOL0     O 6526   2.835   9.716   1.918 -0.2194 -0.4892  0.3170
   50MOL0     C 6527   2.731   9.639   1.850  0.6852 -0.1049 -0.1557
   50MOL0     C 6528   2.658   9.528   1.936  0.0161 -0.5299  0.5356
   50MOL0     C 6529   2.608   9.568   2.070  0.0300 -0.6918  0.2034
   50MOL0     C 6530   2.515   9.470   2.145  0.0175  0.6601  0.7159
   50MOL0     C 6531   2.399   9.455   2.061 -0.6522 -0.1206  0.3999
   50MOL0     C 6532   2.292   9.442   2.019  0.3164  0.6730 -0.2761
   50MOL0     C 6533   3.062   9.776   1.886 -0.4712 -0.4855  0.5460
   50MOL0     C 6534   3.200   9.744   1.869  0.0720 -0.2659 -0.3899
   50MOL0     H 6535   3.585   9.602   2.047 -0.0804  3.4190  1.2842
   50MOL0     H 6536   3.829   9.573   2.088  0.7881 -0.7652  0.4733
   50MOL0     H 6537   4.016   9.414   1.943 -2.2643  2.7868 -2.4238
   50MOL0     H 6538   4.061   9.529   2.074 -0.6089 -1.5268  0.7984
   50MOL0     H 6539   4.271   9.421   2.017  1.1684  2.2704  0.4731
   50MOL0     H 6540   4.271   9.582   1.949  0.0962 -0.3022  2.0008
   50MOL0     H 6541   4.166   9.441   1.741  0.2655 -1.5094 -0.5370
   50MOL0     H 6542   4.270   9.324   1.829 -0.7234 -0.9939 -0.0242
   50MOL0     H 6543   4.455   9.472   1.800 -1.0253 -1.0946 -0.3643
   50MOL0     H 6544   4.382   9.424   1.642 -3.3409 -1.9099  0.4976
   50MOL0     H 6545   4.362   9.706   1.782  1.9033  0.1623 -1.0201
   50MOL0     H 6546   4.264   9.645   1.650  0.0542  0.2584  0.0994
   50MOL0     H 6547   4.470   9.656   1.513  0.4958  2.9248 -1.0808
   50MOL0     H 6548   4.563   9.687   1.668  0.0249 -2.1383 -0.7615
   50MOL0     H 6549   4.347   9.858   1.540  1.4650  1.0551 -3.0671
   50MOL0     H 6550   4.440   9.898   1.694 -2.0698 -0.0608 -0.3173
   50MOL0     H 6551   4.651   9.911   1.552  0.2776  1.3873 -1.1932
   50MOL0     H 6552   4.530  10.039   1.530  2.3116  0.7888 -2.6242
   50MOL0     H 6553   4.428  10.059   1.279  0.4440 -0.4127  0.4067
   50MOL0     H 6554   4.578   9.945   0.970 -0.2048 -0.6279 -1.5353
   50MOL0     H 6555   4.437  10.041   1.026  2.3788  1.2651 -2.6988
   50MOL0     H 6556   4.439   9.738   0.950 -0.0623  0.0228  0.4790
   50MOL0     H 6557   4.416   9.859   0.822  0.5030 -0.9249  0.3299
   50MOL0     H 6558   4.229   9.795   1.064 -0.5592 -0.8231 -1.2232
   50MOL0     H 6559   4.219   9.941   0.959  0.6745  1.3729 -0.4028
   50MOL0     H 6560   4.207   9.627   0.903 -1.0392 -0.7322 -0.1912
   50MOL0     H 6561   4.213   9.738   0.766  0.4769  0.8733  0.7813
   50MOL0     H 6562   4.098   9.499   0.744 -1.1031 -3.6974 -2.9827
   50MOL0     H 6563   3.925   9.367   0.640 -0.1647  0.2070 -0.3381
   50MOL0     H 6564   3.511   9.322   0.415  1.0327  2.9217 -1.0931
   50MOL0     H 6565   3.298   9.246   0.301  3.9155 -0.7186  0.0979
   50MOL0     H 6566   2.987   9.523   0.327  2.3694 -0.4167 -0.3284
   50MOL0     H 6567   2.902   9.443   0.456  1.3848  1.5073  0.4412
   50MOL0     H 6568   2.890   9.329   0.170 -0.1101  1.1979 -1.5514
   50MOL0     H 6569   2.773   9.458   0.238 -2.2954 -2.2027 -0.6068
   50MOL0     H 6570   2.717   9.299   0.406 -0.6476  2.1065 -2.7730
   50MOL0     H 6571   2.826   9.181   0.326 -0.0664 -0.6487 -0.2384
   50MOL0     H 6572   2.558   9.290   0.252 -0.2236 -0.6161  0.1530
   50MOL0     H 6573   2.670   9.247   0.116 -0.3192  0.9267 -0.1014
   50MOL0     H 6574   2.599   9.061   0.353 -1.8777  2.0338 -0.3501
   50MOL0     H 6575   2.723   9.033   0.224  0.5990  0.6292  1.2502
   50MOL0     H 6576   2.560   9.034   0.053  0.6120  0.1286  1.2433
   50MOL0     H 6577   2.427   9.082   0.166 -0.5302  1.4745 -1.1926
   50MOL0     H 6578   2.434   8.833   0.102 -2.7564  3.2243 -0.8401
   50MOL0     H 6579   2.580   8.825   0.208 -0.0013  0.8355  3.5417
   50MOL0     H 6580   2.463   8.907   0.402  1.4357 -0.3265 -1.2496
   50MOL0     H 6581   2.389   8.761   0.347  0.4192 -0.3096 -2.2826
   50MOL0     H 6582   3.068   9.469   0.598 -1.0981  0.1041 -0.9675
   50MOL0     H 6583   3.289   9.521   0.711  5.0920  1.3533 -1.0478
   50MOL0     H 6584   3.624   9.632   0.776 -1.2874 -2.2163 -1.3556
   50MOL0     H 6585   3.806   9.757   0.901 -1.5185 -0.9490  0.8207
   50MOL0     H 6586   3.900   9.701   1.685 -0.2021  0.3297  0.6741
   50MOL0     H 6587   3.664   9.707   1.636  1.4872 -1.6003 -0.9904
   50MOL0     H 6588   3.161   9.407   1.897 -1.1569  0.0084 -1.0188
   50MOL0     H 6589   2.926   9.476   1.935  2.3063 -1.7188  0.6365
   50MOL0     H 6590   2.766   9.608   1.751 -0.3524 -1.3937 -0.1424
   50MOL0     H 6591   2.659   9.719   1.830  0.8685  0.2646  0.6458
   50MOL0     H 6592   2.571   9.497   1.877  0.1604 -2.5472  1.3359
   50MOL0     H 6593   2.717   9.438   1.952  2.4904  1.4087  3.4568
   50MOL0     H 6594   2.557   9.664   2.061 -0.8334 -0.9553  1.9162
   50MOL0     H 6595   2.694   9.594   2.133 -0.7047  0.8891  0.6134
   50MOL0     H 6596   2.569   9.378   2.169  4.4398  3.3170  2.2223
   50MOL0     H 6597   2.488   9.528   2.234 -2.8200 -0.2992  0.5765
   50MOL0     H 6598   2.199   9.414   1.973 -0.1956  2.1613 -0.1883
   50MOL0     H 6599   3.045   9.883   1.892  1.2477  0.0730 -2.2801
   50MOL0     H 6600   3.276   9.820   1.854  2.0635 -1.9261  0.7374
   51MOL0     O 6601  11.199   8.823  11.232 -0.8771  0.5602  0.0693
   51MOL0     C 6602  11.154   8.826  11.341 -0.6475 -0.4858 -1.0191
   51MOL0     O 6603  11.209   8.756  11.451 -0.1007 -0.6417 -0.3368
   51MOL0     C 6604  11.342   8.725  11.458 -1.0274 -0.0722 -0.2915
   51MOL0     C 6605  11.448   8.817  11.432 -0.6620 -0.1525 -0.5211
   51MOL0     C 6606  11.582   8.775  11.411  0.8290 -0.1359  0.8456
   51MOL0     C 6607  11.618   8.640  11.422 -0.3154  0.3621 -0.1207
   51MOL0     O 6608  11.734   8.572  11.400 -0.2449 -0.1200 -0.1911
   51MOL0     C 6609  11.829   8.631  11.314  0.1730 -0.3515 -0.0041
   51MOL0     C 6610  11.926   8.733  11.382  0.2218 -0.4983  0.8231
   51MOL0     C 6611  12.066   8.744  11.321 -0.4585  0.6830  0.1607
   51MOL0     C 6612  12.162   8.836  11.399  0.2974 -0.1444 -0.2458
   51MOL0     C 6613  12.139   8.990  11.386  0.2396  0.5192  0.0161
   51MOL0     C 6614  12.180   9.050  11.247 -0.6388  0.1713 -0.2640
   51MOL0     C 6615  12.170   9.200  11.259 -0.0645  0.1172  0.6735
   51MOL0     C 6616  12.036   9.246  11.197  0.0963  0.2359 -0.6251
   51MOL0     N 6617  12.017   9.387  11.175  0.0296  1.0781 -0.1172
   51MOL0     C 6618  12.058   9.470  11.073  0.0879 -0.0283 -0.9975
   51MOL0     C 6619  12.016   9.592  11.104  0.3374 -0.1874 -0.4860
   51MOL0     C 6620  12.020   9.725  11.028  0.2008  0.6950 -0.8755
   51MOL0     C 6621  12.073   9.718  10.888 -0.1450  0.7813  0.1575
   51MOL0     C 6622  11.969   9.669  10.790  0.5774  0.6375  1.3239
   51MOL0     C 6623  12.020   9.666  10.651 -0.4317 -0.2379  0.2381
   51MOL0     O 6624  12.077   9.793  10.628 -0.3728 -0.5370 -0.5138
   51MOL0     C 6625  11.998   9.891  10.592  0.2502  0.7260  0.1295
   51MOL0     C 6626  12.010  10.011  10.663 -0.4629 -0.3664  0.0159
   51MOL0     C 6627  11.918  10.116  10.642 -1.7297  0.3308  0.0795
   51MOL0     C 6628  11.822  10.105  10.542 -0.5862 -0.8676  0.3219
   51MOL0     C 6629  11.718  10.206  10.524 -0.0783 -0.0708 -0.0969
   51MOL0     O 6630  11.637  10.186  10.418  0.1127 -0.0317 -0.0340
   51MOL0     C 6631  11.533  10.265  10.382 -0.1257  0.5203 -0.1447
   51MOL0     C 6632  11.466  10.251  10.258 -0.1201  0.9603  0.2839
   51MOL0     C 6633  11.348  10.315  10.228  0.4974 -0.0188  0.4620
   51MOL0     C 6634  11.287  10.400  10.323 -0.3499 -0.2632  0.6436
   51MOL0     O 6635  11.164  10.468  10.295 -0.1931  0.4679 -0.3350
   51MOL0     C 6636  11.115  10.501  10.166  0.2310  0.4697  0.1303
   51MOL0     C 6637  11.012  10.623  10.174 -0.4560  0.7024  0.0324
   51MOL0     C 6638  10.935  10.626  10.047 -0.5040  0.8305  0.1099
   51MOL0     C 6639  10.828  10.735  10.047  0.7017  0.7637  0.0826
   51MOL0     C 6640  10.751  10.745   9.913 -0.1559 -0.3809 -0.1959
   51MOL0     C 6641  10.833  10.782   9.792 -0.4515 -0.2735 -0.5797
   51MOL0     C 6642  10.733  10.844   9.691  0.5118  0.6636 -0.5670
   51MOL0     C 6643  10.818  10.886   9.572 -0.5171  1.3935 -0.2149
   51MOL0    Cl 6644  10.871  10.735   9.498 -0.2982 -0.5286 -0.1731
   51MOL0     C 6645  11.358  10.429  10.439  0.2849  0.2582 -0.7623
   51MOL0     C 6646  11.472  10.359  10.475  0.2606 -0.4063  0.1122
   51MOL0     O 6647  11.723  10.308  10.599  0.3484 -0.0318  0.2025
   51MOL0     C 6648  11.816   9.992  10.464 -0.3886  0.0745  0.5104
   51MOL0     C 6649  11.900   9.880  10.491  0.1453  0.3193 -0.6108
   51MOL0     N 6650  11.944   9.584  11.227 -0.2977 -0.0937  0.1295
   51MOL0     N 6651  11.960   9.462  11.272  1.1527 -0.9446 -0.2358
   51MOL0     C 6652  11.523   8.554  11.472  0.5075  0.5545 -1.0404
   51MOL0     C 6653  11.385   8.592  11.480 -0.3281 -0.0599  0.3263
   51MOL0     C 6654  11.017   8.876  11.355  0.1751 -0.6204 -0.6865
   51MOL0     C 6655  10.973   8.925  11.485 -0.6085  0.7174  0.1421
   51MOL0     C 6656  10.848   8.979  11.505  0.7374 -0.9338 -0.3249
   51MOL0     C 6657  10.753   9.000  11.399 -0.4159 -0.2188 -0.0418
   51MOL0     O 6658  10.621   9.036  11.422 -0.1526  0.6854  0.7302
   51MOL0     C 6659  10.603   9.178  11.429  0.3448  0.5869  0.0568
   51MOL0     C 6660  10.488   9.194  11.541 -0.9872 -0.2791  0.5429
   51MOL0     C 6661  10.347   9.134  11.502  0.0769  0.3644  0.5893
   51MOL0     C 6662  10.228   9.197  11.577  0.0499 -0.3189  0.0207
   51MOL0     C 6663  10.243   9.133  11.716 -0.1387 -0.7819 -0.2144
   51MOL0     C 6664  10.242   9.082  11.829 -0.6602 -0.1871 -0.3357
   51MOL0     C 6665  10.804   8.957  11.270 -0.1171 -1.2330 -0.7568
   51MOL0     C 6666  10.929   8.897  11.249 -0.4862  0.5948 -0.1932
   51MOL0     H 6667  11.429   8.924  11.428 -0.4112 -0.0874 -0.0257
   51MOL0     H 6668  11.659   8.851  11.400  1.3583 -0.5231  1.7771
   51MOL0     H 6669  11.786   8.659  11.217  0.8890 -2.1397 -0.8796
   51MOL0     H 6670  11.887   8.547  11.274  0.8593  0.3089 -0.4354
   51MOL0     H 6671  11.935   8.707  11.488  4.3734 -2.4389  0.1995
   51MOL0     H 6672  11.880   8.833  11.384 -1.8458 -1.4001  0.1183
   51MOL0     H 6673  12.062   8.770  11.215 -2.1886 -2.7176 -0.7481
   51MOL0     H 6674  12.111   8.644  11.316  0.2764  0.6245  4.5098
   51MOL0     H 6675  12.142   8.803  11.501 -0.3600 -0.9614 -0.6214
   51MOL0     H 6676  12.261   8.809  11.361 -0.0172  0.9462 -1.9919
   51MOL0     H 6677  12.199   9.042  11.461  2.5511 -2.6334  0.5498
   51MOL0     H 6678  12.034   9.012  11.404  0.1494 -1.2095  1.9341
   51MOL0     H 6679  12.113   9.011  11.170 -1.6862 -2.5393  1.8739
   51MOL0     H 6680  12.287   9.031  11.228  0.1477  1.1834  2.6466
   51MOL0     H 6681  12.194   9.245  11.355 -0.7786 -1.4068  1.6146
   51MOL0     H 6682  12.243   9.233  11.185 -0.9762  2.2464  0.6626
   51MOL0     H 6683  11.962   9.214  11.272  2.2257 -2.8369  0.3308
   51MOL0     H 6684  12.022   9.197  11.101 -0.6188 -1.7302  0.4203
   51MOL0     H 6685  12.114   9.439  10.986  0.2333 -4.4211  0.4113
   51MOL0     H 6686  12.081   9.802  11.077  2.6138  1.0324 -4.0562
   51MOL0     H 6687  11.918   9.764  11.020 -0.0444  0.3734  0.4805
   51MOL0     H 6688  12.164   9.657  10.881 -0.5848  0.0595  0.5658
   51MOL0     H 6689  12.105   9.819  10.861  1.3317  0.7939  1.8273
   51MOL0     H 6690  11.930   9.567  10.804 -0.8212  0.7881 -0.8489
   51MOL0     H 6691  11.876   9.727  10.793 -1.5325 -2.1169 -2.3117
   51MOL0     H 6692  11.939   9.650  10.581 -1.4352  1.2550  1.0094
   51MOL0     H 6693  12.100   9.594  10.634 -1.4852 -1.3542 -0.1003
   51MOL0     H 6694  12.086  10.019  10.740  0.2064  1.1987 -0.7647
   51MOL0     H 6695  11.918  10.197  10.714  3.1061 -0.6972  1.5993
   51MOL0     H 6696  11.503  10.173  10.192  1.1818  2.1548 -0.4453
   51MOL0     H 6697  11.295  10.295  10.136  0.0552  2.5018  0.1195
   51MOL0     H 6698  11.064  10.412  10.127  0.7679  0.3964 -0.4112
   51MOL0     H 6699  11.198  10.523  10.098  0.5332  1.3172  0.7675
   51MOL0     H 6700  11.068  10.714  10.194  1.1601 -0.3947  0.7047
   51MOL0     H 6701  10.952  10.611  10.265 -0.2062  1.5805  0.3235
   51MOL0     H 6702  10.888  10.528  10.031 -0.8055  1.2670 -2.0783
   51MOL0     H 6703  11.000  10.650   9.962 -1.6316  1.1616 -0.6851
   51MOL0     H 6704  10.760  10.710  10.129 -3.3017  1.0629 -2.8526
   51MOL0     H 6705  10.880  10.829  10.071  2.4449  0.0451 -0.7153
   51MOL0     H 6706  10.665  10.810   9.927 -0.3547 -0.8248  0.8218
   51MOL0     H 6707  10.695  10.654   9.889 -1.0009  0.5695 -1.8807
   51MOL0     H 6708  10.870  10.681   9.768  0.6459  0.1199 -0.5834
   51MOL0     H 6709  10.908  10.857   9.819 -1.1119 -0.5621  2.3015
   51MOL0     H 6710  10.666  10.761   9.665 -1.4423  1.7622  0.6959
   51MOL0     H 6711  10.671  10.931   9.715 -0.0287  1.0404 -3.0922
   51MOL0     H 6712  10.905  10.942   9.606  1.3608 -2.3416  1.8564
   51MOL0     H 6713  10.757  10.949   9.506  0.3432 -1.3037 -3.9316
   51MOL0     H 6714  11.311  10.493  10.512  3.0515 -2.4500  3.9356
   51MOL0     H 6715  11.513  10.373  10.575 -2.7914  1.9341  1.1991
   51MOL0     H 6716  11.751   9.980  10.378  1.2341  0.1750 -0.7722
   51MOL0     H 6717  11.891   9.788  10.435  0.6837 -0.3440  0.3541
   51MOL0     H 6718  11.559   8.463  11.518  0.9535  2.0529  1.8380
   51MOL0     H 6719  11.315   8.510  11.493 -2.2410  1.3267 -0.6179
   51MOL0     H 6720  11.050   8.914  11.560 -0.3091  0.9576 -0.1230
   51MOL0     H 6721  10.813   9.017  11.601 -1.4307  2.4925 -2.2490
   51MOL0     H 6722  10.556   9.215  11.337 -2.2496  0.2884  1.1707
   51MOL0     H 6723  10.688   9.233  11.471 -0.4193  0.5976  1.6877
   51MOL0     H 6724  10.538   9.139  11.621 -0.1110  0.3178  0.4150
   51MOL0     H 6725  10.479   9.301  11.563  1.4692  0.6419 -2.2782
   51MOL0     H 6726  10.346   9.024  11.506  0.3663  0.3974  1.9311
   51MOL0     H 6727  10.338   9.155  11.395  3.8248 -0.2635  0.0039
   51MOL0     H 6728  10.227   9.306  11.584 -2.4941 -0.2672 -0.4103
   51MOL0     H 6729  10.140   9.151  11.530  2.1112 -4.0390 -0.6078
   51MOL0     H 6730  10.244   9.023  11.918 -1.4848 -2.6679 -1.8583
   51MOL0     H 6731  10.747   8.970  11.179  0.1051  0.8553 -0.6460
   51MOL0     H 6732  10.974   8.878  11.152  0.2520 -0.4084  0.3358
   52MOL0     O 6733   3.518   2.710   7.926 -0.2706  0.7264 -0.2376
   52MOL0     C 6734   3.527   2.633   8.024  0.4988 -0.9086  0.7411
   52MOL0     O 6735   3.425   2.592   8.102  0.5197  0.7676 -0.1461
   52MOL0     C 6736   3.290   2.624   8.089  0.1127 -0.4698  0.6223
   52MOL0     C 6737   3.214   2.539   8.164 -0.7783  0.2285 -0.8865
   52MOL0     C 6738   3.074   2.549   8.160 -0.6030  0.5165  0.7045
   52MOL0     C 6739   3.010   2.635   8.081  0.7404 -0.4355 -0.8019
   52MOL0     O 6740   2.875   2.612   8.062  0.2823  0.4308 -0.0711
   52MOL0     C 6741   2.824   2.628   7.932 -0.4296 -0.5078 -0.5021
   52MOL0     C 6742   2.704   2.727   7.941 -0.0826  0.3687 -0.0440
   52MOL0     C 6743   2.570   2.684   8.007 -0.5066 -0.2594 -0.6886
   52MOL0     C 6744   2.461   2.792   7.977  0.1834  0.1570  0.5064
   52MOL0     C 6745   2.338   2.767   8.069 -0.4531 -0.2958  0.2019
   52MOL0     C 6746   2.271   2.626   8.059  0.2531 -0.1365  0.3505
   52MOL0     C 6747   2.131   2.615   8.118  0.6172  0.4769  0.5752
   52MOL0     C 6748   2.104   2.462   8.151  0.8595 -0.4590  0.0013
   52MOL0     N 6749   1.977   2.440   8.218 -0.0492 -0.1940  1.1217
   52MOL0     C 6750   1.950   2.501   8.337  0.0725  0.3831 -0.4160
   52MOL0     C 6751   1.833   2.469   8.371  0.0126 -1.1735 -0.3836
   52MOL0     C 6752   1.764   2.492   8.494  0.0291 -0.3301 -1.0425
   52MOL0     C 6753   1.820   2.417   8.626 -0.8519  0.5633  0.4183
   52MOL0     C 6754   1.794   2.262   8.614 -0.0433 -0.3663  0.8189
   52MOL0     C 6755   1.650   2.209   8.603 -0.0527  0.2501 -0.3376
   52MOL0     O 6756   1.655   2.062   8.600 -0.4566 -0.4503 -0.5263
   52MOL0     C 6757   1.560   2.006   8.680  0.3653  0.0020  0.1964
   52MOL0     C 6758   1.567   2.007   8.818 -0.7255  0.8863  1.0008
   52MOL0     C 6759   1.455   1.960   8.894 -0.5754  0.6595  0.2226
   52MOL0     C 6760   1.351   1.889   8.837 -0.4467 -0.0793 -0.6161
   52MOL0     C 6761   1.226   1.859   8.904 -0.3727 -0.7904  0.0571
   52MOL0     O 6762   1.161   1.751   8.863 -0.4836  0.7857 -0.5741
   52MOL0     C 6763   1.050   1.717   8.924  0.1513  0.4823 -0.0478
   52MOL0     C 6764   1.057   1.643   9.050 -0.2267  0.0689 -0.3178
   52MOL0     C 6765   0.935   1.605   9.113 -0.2824 -0.3313  0.3394
   52MOL0     C 6766   0.816   1.666   9.067 -0.2186  0.7203 -0.2258
   52MOL0     O 6767   0.710   1.652   9.153 -0.6016 -0.4541  0.3727
   52MOL0     C 6768   0.593   1.606   9.089  0.1130 -0.3471 -0.6628
   52MOL0     C 6769   0.542   1.493   9.178 -0.5198  0.8435  0.2025
   52MOL0     C 6770   0.646   1.384   9.214 -0.0744  0.2320 -0.1048
   52MOL0     C 6771   0.689   1.318   9.094  0.2495  0.3021 -0.5717
   52MOL0     C 6772   0.800   1.209   9.130  0.4722  0.4441  0.5873
   52MOL0     C 6773   0.827   1.130   8.993 -0.1968  0.8701  0.8020
   52MOL0     C 6774   0.703   1.040   8.943  0.1459 -0.4975 -0.4783
   52MOL0     C 6775   0.721   0.978   8.812 -0.2145  1.2364  0.0019
   52MOL0    Cl 6776   0.843   0.843   8.808 -0.5811  0.0662 -0.1746
   52MOL0     C 6777   0.810   1.747   8.956 -0.1876 -0.4159 -0.3715
   52MOL0     C 6778   0.924   1.764   8.873 -0.8817  0.9135 -0.9541
   52MOL0     O 6779   1.189   1.933   9.000 -0.5287  0.8778  0.2325
   52MOL0     C 6780   1.348   1.876   8.689 -0.0801  0.8130 -0.2111
   52MOL0     C 6781   1.452   1.936   8.619 -0.7581 -0.8031  0.4431
   52MOL0     N 6782   1.775   2.397   8.271  0.0807  0.6958 -0.3067
   52MOL0     N 6783   1.857   2.390   8.174  0.0263  0.9921 -0.6058
   52MOL0     C 6784   3.090   2.730   8.015  0.0155  0.3354 -0.3213
   52MOL0     C 6785   3.226   2.728   8.021 -0.1129  0.1456  0.2803
   52MOL0     C 6786   3.671   2.586   8.061 -0.0053 -0.7514  0.3910
   52MOL0     C 6787   3.775   2.666   8.020 -0.0056  0.5669 -0.4937
   52MOL0     C 6788   3.903   2.644   8.058 -0.1505  0.1215 -0.1021
   52MOL0     C 6789   3.935   2.531   8.135  0.6985 -0.3705  0.4345
   52MOL0     O 6790   4.064   2.501   8.175  0.6469 -0.3050  1.2548
   52MOL0     C 6791   4.173   2.583   8.128 -0.2370  0.9845  0.0017
   52MOL0     C 6792   4.194   2.717   8.199  0.1235 -0.9350 -0.2623
   52MOL0     C 6793   4.237   2.703   8.343 -0.3856 -0.1884  0.1393
   52MOL0     C 6794   4.384   2.634   8.364  1.1152  0.2811  0.2483
   52MOL0     C 6795   4.478   2.739   8.324 -0.2411 -0.5028 -0.3414
   52MOL0     C 6796   4.560   2.821   8.283  1.0002 -0.7807  0.2992
   52MOL0     C 6797   3.829   2.456   8.190  0.4682 -0.9542  0.2586
   52MOL0     C 6798   3.697   2.483   8.146 -0.9839  0.0936  0.2175
   52MOL0     H 6799   3.258   2.456   8.217 -0.9331  1.8373  1.9812
   52MOL0     H 6800   3.017   2.470   8.208 -0.4015  1.2137  2.1581
   52MOL0     H 6801   2.775   2.532   7.908 -1.8284 -0.6112  2.3479
   52MOL0     H 6802   2.898   2.664   7.861 -2.3905  4.1141 -0.5638
   52MOL0     H 6803   2.680   2.748   7.836 -0.8508  1.8308  0.3968
   52MOL0     H 6804   2.744   2.810   8.000 -1.5277 -0.8916  2.9596
   52MOL0     H 6805   2.586   2.676   8.115 -2.6675  3.8757  0.1585
   52MOL0     H 6806   2.539   2.585   7.972  1.1617 -1.0803  0.0456
   52MOL0     H 6807   2.498   2.891   8.006 -2.1710  0.9348  1.0856
   52MOL0     H 6808   2.429   2.791   7.873  0.2786 -2.4532  0.4465
   52MOL0     H 6809   2.266   2.846   8.047 -3.2249 -2.3576  1.3289
   52MOL0     H 6810   2.373   2.772   8.172  1.9231  1.6369 -0.6042
   52MOL0     H 6811   2.337   2.561   8.118  0.2718 -0.3534  0.0925
   52MOL0     H 6812   2.264   2.603   7.952  0.8738 -2.0187  0.6713
   52MOL0     H 6813   2.120   2.670   8.211 -2.3606 -0.3694  0.8176
   52MOL0     H 6814   2.057   2.647   8.044  0.0160  0.5724  1.2117
   52MOL0     H 6815   2.181   2.422   8.218 -0.9832 -0.4195  2.2605
   52MOL0     H 6816   2.109   2.412   8.054  0.1091  1.4692 -1.0898
   52MOL0     H 6817   2.007   2.569   8.398  0.8282  1.1658 -1.9229
   52MOL0     H 6818   1.656   2.479   8.481 -0.2278  1.1277 -0.5563
   52MOL0     H 6819   1.773   2.600   8.512 -1.1481 -0.4494  0.4998
   52MOL0     H 6820   1.772   2.452   8.718  1.5680  3.4789  0.7032
   52MOL0     H 6821   1.927   2.433   8.640  0.3413 -4.2156 -1.3202
   52MOL0     H 6822   1.852   2.227   8.529 -0.1557  0.6269  0.3214
   52MOL0     H 6823   1.838   2.212   8.701 -2.1872 -1.8783  1.1155
   52MOL0     H 6824   1.590   2.239   8.517 -0.7926  1.8346  0.6845
   52MOL0     H 6825   1.594   2.249   8.688 -0.6770  0.5849 -0.8981
   52MOL0     H 6826   1.649   2.058   8.866  0.6832  1.8931 -2.2371
   52MOL0     H 6827   1.446   1.993   8.997 -0.6250 -0.7058  0.6800
   52MOL0     H 6828   1.155   1.606   9.076 -0.0616  1.3527  0.9797
   52MOL0     H 6829   0.921   1.547   9.204 -1.1507  0.9725  1.0853
   52MOL0     H 6830   0.611   1.566   8.989 -1.3759 -1.4178 -0.5403
   52MOL0     H 6831   0.526   1.692   9.075 -0.1613 -0.6475 -1.2130
   52MOL0     H 6832   0.463   1.440   9.125 -0.7875 -0.3441  1.7249
   52MOL0     H 6833   0.504   1.532   9.272 -1.4111 -0.4098  0.3820
   52MOL0     H 6834   0.596   1.312   9.280 -0.4650  0.1862 -0.4456
   52MOL0     H 6835   0.725   1.423   9.278  0.4024 -0.6671 -0.1271
   52MOL0     H 6836   0.610   1.264   9.041 -0.0993 -0.3527  0.5897
   52MOL0     H 6837   0.730   1.383   9.016  1.2058 -0.2717 -0.5628
   52MOL0     H 6838   0.767   1.133   9.201 -1.1423  1.5004  1.0177
   52MOL0     H 6839   0.895   1.259   9.151  0.0001  0.8225  1.8795
   52MOL0     H 6840   0.915   1.066   9.006 -1.1504 -0.3179  1.7629
   52MOL0     H 6841   0.853   1.200   8.913 -1.6011  3.4282  2.4328
   52MOL0     H 6842   0.688   0.967   9.023 -0.7220  1.4403  1.2240
   52MOL0     H 6843   0.609   1.096   8.950  0.4554 -0.1567  2.1797
   52MOL0     H 6844   0.757   1.049   8.737  2.5281  0.1096  0.1314
   52MOL0     H 6845   0.625   0.938   8.780  0.3937 -0.1697 -0.1355
   52MOL0     H 6846   0.717   1.797   8.930 -1.7002 -1.0605  3.2349
   52MOL0     H 6847   0.914   1.822   8.782 -0.5421  4.0654  0.8698
   52MOL0     H 6848   1.269   1.824   8.635  0.2417 -1.2769  1.1928
   52MOL0     H 6849   1.436   1.946   8.512 -0.3775  0.4692  0.4902
   52MOL0     H 6850   3.038   2.797   7.947  1.9490  0.2601 -1.9827
   52MOL0     H 6851   3.294   2.797   7.972  1.3868 -1.0220  0.6471
   52MOL0     H 6852   3.756   2.753   7.958 -1.4034  0.9443  0.4261
   52MOL0     H 6853   3.982   2.709   8.021  0.9347 -1.2795 -0.3313
   52MOL0     H 6854   4.155   2.605   8.022 -1.7695 -0.9467 -0.1935
   52MOL0     H 6855   4.271   2.538   8.110 -1.0922 -0.6877 -0.6670
   52MOL0     H 6856   4.272   2.777   8.152  1.2284 -1.5440  0.7593
   52MOL0     H 6857   4.105   2.779   8.182  0.0120 -1.9049 -4.2296
   52MOL0     H 6858   4.160   2.644   8.393  0.2560 -0.4035  0.8831
   52MOL0     H 6859   4.251   2.800   8.392  0.2713 -0.9439  1.4932
   52MOL0     H 6860   4.404   2.590   8.462 -1.3903  1.4432  1.3782
   52MOL0     H 6861   4.401   2.554   8.292 -0.4508 -0.9942  1.2406
   52MOL0     H 6862   4.639   2.885   8.250 -0.0751  0.4072 -0.0627
   52MOL0     H 6863   3.852   2.374   8.256 -0.3579 -1.7807 -0.4371
   52MOL0     H 6864   3.607   2.439   8.187 -0.8967  1.0775  1.5003
   53MOL0     O 6865   0.269  10.326   4.060 -0.2021 -0.8960  1.2144
   53MOL0     C 6866   0.330  10.253   4.134  0.5063  0.8529  0.1527
   53MOL0     O 6867   0.267  10.169   4.229 -1.0095 -0.4345  0.3832
   53MOL0     C 6868   0.135  10.180   4.226 -0.7315 -0.0446  0.6427
   53MOL0     C 6869   0.068  10.093   4.140  0.0476 -0.1172 -0.5801
   53MOL0     C 6870  -0.075  10.099   4.137  0.1414 -0.2083 -0.2405
   53MOL0     C 6871  -0.143  10.190   4.214 -0.5174 -0.2158 -0.4609
   53MOL0     O 6872  -0.276  10.202   4.189 -0.2862 -0.1993 -0.3693
   53MOL0     C 6873  -0.367  10.250   4.291  0.3272 -0.2207 -0.4786
   53MOL0     C 6874  -0.508  10.247   4.233  0.2814 -0.4609 -0.3637
   53MOL0     C 6875  -0.603  10.293   4.346  0.7277  0.1693  0.1853
   53MOL0     C 6876  -0.747  10.277   4.301  0.4028 -0.0213  0.0210
   53MOL0     C 6877  -0.849  10.330   4.403 -0.3435 -0.4566 -0.3024
   53MOL0     C 6878  -0.989  10.288   4.360 -0.1738  0.5334 -0.5921
   53MOL0     C 6879  -1.102  10.351   4.446  0.0139 -0.2586  0.2570
   53MOL0     C 6880  -1.157  10.241   4.556  0.8381 -0.7592  0.6779
   53MOL0     N 6881  -1.295  10.253   4.590 -0.2619 -0.1022 -0.0085
   53MOL0     C 6882  -1.382  10.143   4.586  0.5792 -0.5106  0.2388
   53MOL0     C 6883  -1.499  10.200   4.556  0.1609 -0.4664 -0.4677
   53MOL0     C 6884  -1.632  10.115   4.539  0.3521 -0.1705  0.3654
   53MOL0     C 6885  -1.703  10.090   4.672  0.4547 -0.5937  0.3235
   53MOL0     C 6886  -1.745  10.212   4.767 -0.9993 -0.3671  0.0294
   53MOL0     C 6887  -1.802  10.326   4.684 -0.2083  0.8849  0.5367
   53MOL0     O 6888  -1.883  10.419   4.762 -0.2724 -0.4901 -0.1528
   53MOL0     C 6889  -2.006  10.393   4.809 -0.2930 -0.2394  1.0089
   53MOL0     C 6890  -2.073  10.271   4.790  0.1563 -0.1872 -0.2266
   53MOL0     C 6891  -2.201  10.251   4.844 -0.1151 -0.6783  0.6683
   53MOL0     C 6892  -2.262  10.350   4.924 -0.7213  0.5941 -0.3352
   53MOL0     C 6893  -2.393  10.319   4.997 -0.6137  0.7345 -0.4602
   53MOL0     O 6894  -2.447  10.436   5.047  0.0646 -0.4663 -0.0781
   53MOL0     C 6895  -2.555  10.440   5.135  0.8090  0.0511 -0.2380
   53MOL0     C 6896  -2.570  10.357   5.254  0.2545 -1.6518  0.0874
   53MOL0     C 6897  -2.690  10.361   5.326 -0.4586  0.0974  0.0364
   53MOL0     C 6898  -2.793  10.447   5.288 -1.0707  0.5221 -0.1435
   53MOL0     O 6899  -2.908  10.434   5.357  0.5960  0.1320 -0.2134
   53MOL0     C 6900  -3.020  10.521   5.336 -0.6290 -0.7346  0.1007
   53MOL0     C 6901  -3.139  10.484   5.428 -0.0108  0.5560 -0.0274
   53MOL0     C 6902  -3.249  10.580   5.413  0.1316 -1.2492 -0.1113
   53MOL0     C 6903  -3.367  10.547   5.512 -0.4781 -0.5302  0.0057
   53MOL0     C 6904  -3.475  10.659   5.518 -0.4058  0.3416 -0.4593
   53MOL0     C 6905  -3.603  10.613   5.600 -0.1140  0.1513  0.0243
   53MOL0     C 6906  -3.672  10.737   5.640  0.3299  0.6265  0.5697
   53MOL0     C 6907  -3.822  10.727   5.677  0.1972  0.4900 -1.2425
   53MOL0    Cl 6908  -3.848  10.606   5.805 -0.0968 -0.3760  0.0905
   53MOL0     C 6909  -2.772  10.533   5.179  0.9139 -0.0480 -0.2612
   53MOL0     C 6910  -2.655  10.529   5.106  1.0451  0.1522 -0.4924
   53MOL0     O 6911  -2.446  10.207   5.002 -0.3229  0.1338  0.5898
   53MOL0     C 6912  -2.190  10.474   4.938  0.3539 -0.0450 -0.0755
   53MOL0     C 6913  -2.061  10.490   4.883 -0.3039 -0.3734  0.3086
   53MOL0     N 6914  -1.489  10.339   4.553 -0.2071  0.0126  0.3598
   53MOL0     N 6915  -1.370  10.366   4.570  0.1126  0.5776  0.2647
   53MOL0     C 6916  -0.069  10.272   4.295 -0.0481 -0.5741  0.0388
   53MOL0     C 6917   0.069  10.264   4.316  0.4692 -0.2022  1.4599
   53MOL0     C 6918   0.475  10.267   4.145  0.1247 -0.2334  0.9734
   53MOL0     C 6919   0.542  10.385   4.105  0.5361  0.2121  0.0264
   53MOL0     C 6920   0.684  10.391   4.098 -0.2532 -0.0441  0.5096
   53MOL0     C 6921   0.766  10.281   4.129 -0.6262  0.5752 -0.1412
   53MOL0     O 6922   0.904  10.287   4.127  0.8016  0.6170  1.0601
   53MOL0     C 6923   0.966  10.393   4.050  0.0818  0.9949 -0.0256
   53MOL0     C 6924   1.110  10.371   4.003 -0.5039  0.2178 -0.4652
   53MOL0     C 6925   1.191  10.498   3.972 -0.1955 -0.1544  0.2187
   53MOL0     C 6926   1.142  10.571   3.838 -0.0900  0.4269  0.2748
   53MOL0     C 6927   1.261  10.642   3.796 -0.1737 -0.6831  0.8058
   53MOL0     C 6928   1.347  10.706   3.741  0.4846  0.1681  1.5503
   53MOL0     C 6929   0.698  10.163   4.163  0.2313  0.3849 -0.5393
   53MOL0     C 6930   0.558  10.158   4.177  0.0299 -0.0426  0.3869
   53MOL0     H 6931   0.132  10.039   4.070 -1.1137 -0.6644 -1.2537
   53MOL0     H 6932  -0.127  10.045   4.058  2.1677 -3.3349  0.3790
   53MOL0     H 6933  -0.340  10.354   4.310 -0.6673  0.3355 -1.9463
   53MOL0     H 6934  -0.369  10.192   4.384 -3.6338 -0.5493 -0.5991
   53MOL0     H 6935  -0.536  10.149   4.192  1.6816 -0.6695 -0.8804
   53MOL0     H 6936  -0.504  10.313   4.146  1.4679 -1.7433 -1.3310
   53MOL0     H 6937  -0.597  10.396   4.384 -3.2590  0.2087  1.1507
   53MOL0     H 6938  -0.586  10.237   4.438  1.5038 -0.4104 -0.2966
   53MOL0     H 6939  -0.763  10.331   4.208  0.3572  1.2974  0.7757
   53MOL0     H 6940  -0.782  10.177   4.271 -1.0961  0.1800  0.9650
   53MOL0     H 6941  -0.841  10.439   4.405  2.5052 -0.5904  0.3818
   53MOL0     H 6942  -0.838  10.281   4.500 -0.0261 -0.8422 -0.5314
   53MOL0     H 6943  -0.992  10.179   4.354 -1.6733  0.4486  1.0036
   53MOL0     H 6944  -1.018  10.308   4.256 -0.6857 -1.4598 -0.8591
   53MOL0     H 6945  -1.079  10.444   4.497 -1.3017  0.1998  0.0473
   53MOL0     H 6946  -1.190  10.379   4.387 -0.0100  3.2388  1.7425
   53MOL0     H 6947  -1.098  10.253   4.648 -0.2953 -2.8262  1.7433
   53MOL0     H 6948  -1.143  10.143   4.510 -0.6995 -1.0280  0.7329
   53MOL0     H 6949  -1.368  10.035   4.583 -0.1987 -0.7561  2.9437
   53MOL0     H 6950  -1.608  10.022   4.487 -0.3518 -0.1709  0.0340
   53MOL0     H 6951  -1.701  10.174   4.477 -0.0659 -1.8543 -0.8261
   53MOL0     H 6952  -1.641  10.022   4.730  0.2594 -0.1564  1.0521
   53MOL0     H 6953  -1.797  10.045   4.640 -0.9716  1.3684  1.5454
   53MOL0     H 6954  -1.815  10.175   4.843  1.0777  0.3306  2.4330
   53MOL0     H 6955  -1.653  10.240   4.821  0.3889 -1.4420 -1.6600
   53MOL0     H 6956  -1.859  10.289   4.598  0.5124  2.5272 -0.7011
   53MOL0     H 6957  -1.721  10.386   4.642 -1.9797  2.0355 -1.4164
   53MOL0     H 6958  -2.030  10.181   4.747 -0.2488 -1.8174  2.5003
   53MOL0     H 6959  -2.259  10.160   4.836 -0.4824 -0.3814 -0.3075
   53MOL0     H 6960  -2.482  10.298   5.275  0.8707 -1.1362 -0.9703
   53MOL0     H 6961  -2.696  10.298   5.415 -0.6011 -0.7347 -0.5473
   53MOL0     H 6962  -3.056  10.514   5.233 -2.1782 -0.7479  0.6173
   53MOL0     H 6963  -2.988  10.624   5.355 -1.4977 -0.5434  0.5955
   53MOL0     H 6964  -3.098  10.474   5.529  2.6378 -0.3417 -1.0916
   53MOL0     H 6965  -3.177  10.385   5.401  0.7689  0.4607 -0.8181
   53MOL0     H 6966  -3.295  10.566   5.315 -4.5237 -1.7170  1.8322
   53MOL0     H 6967  -3.207  10.679   5.432  2.2757 -2.3361  1.1202
   53MOL0     H 6968  -3.406  10.450   5.482 -0.9460 -0.9126  1.7569
   53MOL0     H 6969  -3.317  10.534   5.608  1.4700 -0.0744 -0.8906
   53MOL0     H 6970  -3.511  10.698   5.422 -3.4549  2.2417  1.2856
   53MOL0     H 6971  -3.433  10.741   5.578  3.5985 -2.0742  0.4171
   53MOL0     H 6972  -3.579  10.569   5.698  0.0205  2.9971  1.3562
   53MOL0     H 6973  -3.660  10.548   5.533  1.2650  1.1088 -2.1824
   53MOL0     H 6974  -3.620  10.781   5.726  0.8441 -0.2587  0.7244
   53MOL0     H 6975  -3.660  10.818   5.568 -3.0289  0.5230 -0.2627
   53MOL0     H 6976  -3.888  10.687   5.599 -1.3320 -3.4172  1.6747
   53MOL0     H 6977  -3.855  10.824   5.715  1.1767  1.1609 -2.0627
   53MOL0     H 6978  -2.848  10.597   5.135 -3.0675 -3.9679  0.3000
   53MOL0     H 6979  -2.650  10.599   5.023  2.2674 -0.4669 -0.9647
   53MOL0     H 6980  -2.241  10.549   4.998 -0.2434 -0.1822 -0.4031
   53MOL0     H 6981  -2.000  10.580   4.890  0.4048 -0.9632  2.0941
   53MOL0     H 6982  -0.126  10.343   4.354  1.7681 -0.3407  1.6054
   53MOL0     H 6983   0.111  10.329   4.393 -1.2987  1.7782  0.8412
   53MOL0     H 6984   0.489  10.476   4.079 -1.9110 -0.6534  1.6193
   53MOL0     H 6985   0.733  10.485   4.075 -1.6825  1.2159  2.2920
   53MOL0     H 6986   0.966  10.490   4.100 -1.7355  2.1920 -2.1205
   53MOL0     H 6987   0.911  10.414   3.957  1.5153  3.8811 -0.3589
   53MOL0     H 6988   1.157  10.318   4.086  1.1382  0.9383 -0.8829
   53MOL0     H 6989   1.113  10.310   3.912 -3.9715  2.1757 -2.0755
   53MOL0     H 6990   1.290  10.461   3.944 -0.1840  0.4464 -0.5526
   53MOL0     H 6991   1.195  10.561   4.061  0.5657  0.2565 -0.1026
   53MOL0     H 6992   1.117  10.498   3.761 -2.2145  0.8058  0.5504
   53MOL0     H 6993   1.055  10.634   3.860 -0.7699 -0.1459 -0.7158
   53MOL0     H 6994   1.415  10.778   3.698  1.8669 -0.7662  2.1219
   53MOL0     H 6995   0.760  10.085   4.204 -0.7762  1.0216  2.4894
   53MOL0     H 6996   0.522  10.058   4.197  1.3932 -1.3118 -2.8071
   54MOL0     O 6997  11.080   9.276   3.424  0.5909  0.6922  0.3082
   54MOL0     C 6998  11.058   9.380   3.484 -0.0254 -1.2717 -0.4204
   54MOL0     O 6999  10.935   9.411   3.542  0.1656  0.2552  0.5721
   54MOL0     C 7000  10.826   9.329   3.513 -0.7256 -0.3592 -0.2151
   54MOL0     C 7001  10.795   9.275   3.391  0.7801  0.3797  0.4465
   54MOL0     C 7002  10.695   9.168   3.378  0.4390  0.2882  0.3412
   54MOL0     C 7003  10.627   9.127   3.494 -0.7918  0.2071 -0.6164
   54MOL0     O 7004  10.520   9.049   3.480  0.3693 -0.0236  0.0688
   54MOL0     C 7005  10.471   8.970   3.590  0.6214  0.3253 -0.8466
   54MOL0     C 7006  10.381   8.852   3.541 -0.2566  0.1340  1.2102
   54MOL0     C 7007  10.263   8.912   3.456 -0.3377 -0.3120 -0.3445
   54MOL0     C 7008  10.142   8.827   3.466  0.1803 -0.0912  0.5028
   54MOL0     C 7009  10.033   8.866   3.365 -0.0797 -0.3778  0.3472
   54MOL0     C 7010   9.889   8.821   3.419 -0.2296  0.1632  0.5398
   54MOL0     C 7011   9.780   8.849   3.306 -0.0388  0.1015  0.1417
   54MOL0     C 7012   9.632   8.826   3.336  0.0970  0.3328 -0.3536
   54MOL0     N 7013   9.528   8.917   3.278 -0.0976  0.4752  0.6081
   54MOL0     C 7014   9.474   9.021   3.338 -0.3809 -0.1349  0.4549
   54MOL0     C 7015   9.408   9.087   3.240  0.4397 -0.1409 -0.5883
   54MOL0     C 7016   9.346   9.221   3.258 -0.3352  0.7646  0.9913
   54MOL0     C 7017   9.430   9.315   3.183 -0.8244  0.8113 -0.8219
   54MOL0     C 7018   9.370   9.448   3.205  0.6128  1.0827  0.9635
   54MOL0     C 7019   9.479   9.567   3.210 -0.9593  0.4719  0.1634
   54MOL0     O 7020   9.586   9.544   3.303 -0.2860 -0.3387  0.3208
   54MOL0     C 7021   9.663   9.645   3.354 -1.3927 -0.2273  0.8372
   54MOL0     C 7022   9.758   9.618   3.449 -0.3630 -0.1531 -0.7900
   54MOL0     C 7023   9.850   9.714   3.499 -0.2035 -0.0395  0.2990
   54MOL0     C 7024   9.858   9.837   3.445  0.4718  0.0826 -0.6181
   54MOL0     C 7025   9.960   9.942   3.486  0.2835  0.2379  0.4001
   54MOL0     O 7026  10.081   9.898   3.556  0.5056 -0.3400 -1.3277
   54MOL0     C 7027  10.182   9.981   3.591 -0.1113 -0.4536  0.0262
   54MOL0     C 7028  10.190  10.116   3.564 -0.5082 -0.7397  0.1639
   54MOL0     C 7029  10.300  10.194   3.609  0.4519  0.5243  0.4181
   54MOL0     C 7030  10.411  10.132   3.680  0.1122 -0.1860 -0.2292
   54MOL0     O 7031  10.519  10.197   3.726  0.4971  0.7287 -0.7120
   54MOL0     C 7032  10.492  10.303   3.819 -0.4920  0.7467 -0.7993
   54MOL0     C 7033  10.533  10.440   3.769  1.6188 -0.0457  0.2495
   54MOL0     C 7034  10.507  10.539   3.887  0.0833 -0.2467  0.1722
   54MOL0     C 7035  10.593  10.659   3.842  0.2158 -0.5265 -0.6606
   54MOL0     C 7036  10.551  10.792   3.913 -0.0873 -0.2656  0.5393
   54MOL0     C 7037  10.570  10.815   4.061 -1.2429 -0.4280 -1.0684
   54MOL0     C 7038  10.665  10.924   4.105  0.7259 -0.0338  0.2385
   54MOL0     C 7039  10.808  10.899   4.047  0.1206 -0.9619  1.0256
   54MOL0    Cl 7040  10.895  11.054   4.072  0.0194 -0.0228 -0.3072
   54MOL0     C 7041  10.396   9.996   3.705 -0.3228 -0.4556  0.0128
   54MOL0     C 7042  10.289   9.914   3.658  0.1346  0.0941 -0.2695
   54MOL0     O 7043   9.935  10.058   3.447  0.0982  0.1556 -0.2116
   54MOL0     C 7044   9.754   9.870   3.349  0.5971  0.1839 -0.1246
   54MOL0     C 7045   9.661   9.773   3.305  0.0018  0.2702 -0.6914
   54MOL0     N 7046   9.431   9.027   3.119  0.8902 -0.2452  0.1369
   54MOL0     N 7047   9.497   8.921   3.146  0.7070  0.2500  0.4698
   54MOL0     C 7048  10.663   9.173   3.627 -0.5834  0.3732  0.0739
   54MOL0     C 7049  10.767   9.273   3.624  0.0244  0.3339  0.0824
   54MOL0     C 7050  11.175   9.477   3.508 -0.1968  0.4319 -0.5058
   54MOL0     C 7051  11.172   9.588   3.601  0.4527  1.2899  1.0277
   54MOL0     C 7052  11.280   9.673   3.616  0.5072  0.1752 -0.2425
   54MOL0     C 7053  11.394   9.657   3.542  0.5780 -0.4425 -0.2042
   54MOL0     O 7054  11.498   9.746   3.553  0.9089  0.0390 -0.1396
   54MOL0     C 7055  11.618   9.732   3.478 -0.0703 -0.3671 -0.1330
   54MOL0     C 7056  11.723   9.833   3.526 -0.2255  0.4603 -0.4199
   54MOL0     C 7057  11.845   9.834   3.439 -0.0624 -0.7898  0.2373
   54MOL0     C 7058  11.944   9.936   3.479  0.0082 -0.3440  0.3640
   54MOL0     C 7059  12.044   9.966   3.372  0.4963  0.1517 -0.7828
   54MOL0     C 7060  12.131   9.987   3.294  0.2417 -0.3480 -0.0447
   54MOL0     C 7061  11.403   9.548   3.451  0.1597  0.2041  0.6546
   54MOL0     C 7062  11.292   9.459   3.433  0.1209 -0.7046  0.3766
   54MOL0     H 7063  10.853   9.316   3.308 -2.4862  1.8855 -1.3212
   54MOL0     H 7064  10.668   9.118   3.286 -1.3454 -0.3237  1.1483
   54MOL0     H 7065  10.404   9.030   3.652  2.6817  3.2924 -1.2523
   54MOL0     H 7066  10.550   8.939   3.658 -2.0215 -1.6648  1.5247
   54MOL0     H 7067  10.340   8.791   3.622  0.4923 -0.4874  1.1360
   54MOL0     H 7068  10.441   8.789   3.475 -0.8285  1.8109 -1.0159
   54MOL0     H 7069  10.303   8.926   3.355  1.6658  3.0103  0.7346
   54MOL0     H 7070  10.234   9.010   3.495 -0.9887 -0.4744 -0.4192
   54MOL0     H 7071  10.170   8.723   3.448  0.0385 -0.7592  3.5473
   54MOL0     H 7072  10.106   8.828   3.570  0.1302 -1.6539  0.5334
   54MOL0     H 7073  10.062   8.815   3.273  1.6452 -1.0004  1.1977
   54MOL0     H 7074  10.021   8.974   3.352 -3.1182 -0.8984 -2.7477
   54MOL0     H 7075   9.861   8.888   3.501 -3.3334  0.0134 -0.2801
   54MOL0     H 7076   9.894   8.717   3.455  1.7207 -0.4665 -1.3101
   54MOL0     H 7077   9.786   8.954   3.276  3.0027 -0.1535 -0.4533
   54MOL0     H 7078   9.805   8.791   3.216  1.0702  0.6233  0.1010
   54MOL0     H 7079   9.629   8.825   3.446  2.2755 -0.6762 -0.2401
   54MOL0     H 7080   9.607   8.726   3.302  1.8203 -0.5026  0.6916
   54MOL0     H 7081   9.486   9.063   3.437  0.4502  4.1253 -1.2446
   54MOL0     H 7082   9.356   9.231   3.367 -2.3788 -2.2507  1.5885
   54MOL0     H 7083   9.241   9.228   3.231 -0.6581  1.7949  2.3858
   54MOL0     H 7084   9.446   9.298   3.077  3.8102  2.7369 -0.6784
   54MOL0     H 7085   9.524   9.314   3.240 -0.5406  0.3889 -1.2958
   54MOL0     H 7086   9.294   9.470   3.130  0.2898  1.7110  1.4635
   54MOL0     H 7087   9.322   9.457   3.303 -2.0515 -2.1788  0.1517
   54MOL0     H 7088   9.427   9.663   3.218  0.8210  1.9292 -3.6156
   54MOL0     H 7089   9.526   9.582   3.113 -0.7058  0.2739  0.2536
   54MOL0     H 7090   9.763   9.516   3.487  0.1642 -0.7494 -2.3330
   54MOL0     H 7091   9.922   9.677   3.571 -0.6561  1.3636  1.5172
   54MOL0     H 7092  10.113  10.162   3.503 -0.8950 -2.2820 -0.5654
   54MOL0     H 7093  10.307  10.302   3.602  0.5824  0.4016 -1.9781
   54MOL0     H 7094  10.554  10.286   3.908 -2.7545  2.9414  1.3580
   54MOL0     H 7095  10.388  10.313   3.852  0.2119  1.2759  1.4629
   54MOL0     H 7096  10.473  10.472   3.683  0.2485 -1.0832  0.7630
   54MOL0     H 7097  10.642  10.438   3.761  1.9263 -0.4445  3.4036
   54MOL0     H 7098  10.541  10.521   3.989  0.0601  2.7548  0.8017
   54MOL0     H 7099  10.399  10.554   3.880 -0.0689 -1.4844 -0.3659
   54MOL0     H 7100  10.698  10.640   3.869  0.6600  0.6601 -1.4402
   54MOL0     H 7101  10.586  10.676   3.734 -2.4197  4.0770 -0.0316
   54MOL0     H 7102  10.447  10.819   3.893 -0.2563  1.4071  3.1800
   54MOL0     H 7103  10.616  10.863   3.861  1.6302 -1.3028  1.1571
   54MOL0     H 7104  10.589  10.717   4.106 -2.7491  0.7718  2.5610
   54MOL0     H 7105  10.476  10.846   4.107 -2.3959  1.4387 -4.3504
   54MOL0     H 7106  10.617  11.020   4.087 -3.1274 -0.7670  4.7464
   54MOL0     H 7107  10.674  10.924   4.214  0.2443  0.4240  0.2802
   54MOL0     H 7108  10.806  10.868   3.942  1.8509 -1.4254  1.1152
   54MOL0     H 7109  10.852  10.814   4.099 -2.2645 -2.0528  1.4291
   54MOL0     H 7110  10.472   9.928   3.744 -0.5074 -1.7398 -1.7075
   54MOL0     H 7111  10.286   9.806   3.660  0.7591  0.0919  1.6466
   54MOL0     H 7112   9.735   9.964   3.298 -1.6698 -1.0772 -1.7818
   54MOL0     H 7113   9.595   9.804   3.224  1.5284  2.0053 -1.3418
   54MOL0     H 7114  10.630   9.125   3.718  1.4706 -2.6301 -0.6198
   54MOL0     H 7115  10.804   9.310   3.719 -1.0288  1.3658  0.1131
   54MOL0     H 7116  11.078   9.598   3.654 -1.2431 -4.0319 -0.3779
   54MOL0     H 7117  11.262   9.769   3.665  2.0401  2.0116 -3.0075
   54MOL0     H 7118  11.597   9.742   3.371 -1.1109  1.2063  0.1726
   54MOL0     H 7119  11.667   9.636   3.496  2.1710  0.9031  0.9522
   54MOL0     H 7120  11.674   9.931   3.520 -0.1943  0.4763 -0.4281
   54MOL0     H 7121  11.746   9.802   3.628 -0.1880 -0.2875 -0.6508
   54MOL0     H 7122  11.809   9.858   3.339  0.9373 -3.0344 -0.7314
   54MOL0     H 7123  11.899   9.739   3.444  0.8883 -0.2918 -0.2345
   54MOL0     H 7124  11.887  10.028   3.498 -1.7798 -1.2599 -0.3271
   54MOL0     H 7125  11.992   9.903   3.571  1.4192 -1.3928 -0.7014
   54MOL0     H 7126  12.212  10.020   3.231  2.0152 -1.1208  1.7001
   54MOL0     H 7127  11.490   9.530   3.389  1.5607  1.1265  2.2934
   54MOL0     H 7128  11.295   9.397   3.344 -2.5331  0.7731 -0.8545
   55MOL0     O 7129   1.541  10.759  11.283 -0.9336  0.4831  0.7962
   55MOL0     C 7130   1.528  10.766  11.159  0.3570  1.4820 -0.4235
   55MOL0     O 7131   1.432  10.837  11.093 -0.1713 -0.2924  0.0869
   55MOL0     C 7132   1.340  10.919  11.141  0.3486 -0.9734  0.4854
   55MOL0     C 7133   1.238  10.981  11.061 -0.2932  0.5474  0.0452
   55MOL0     C 7134   1.140  11.062  11.112  0.4362  0.2107 -0.1947
   55MOL0     C 7135   1.135  11.096  11.247 -0.0350  0.3696 -0.3769
   55MOL0     O 7136   1.028  11.151  11.303  0.0006 -0.2977  0.7354
   55MOL0     C 7137   0.947  11.060  11.386 -0.7143  0.2254 -0.2530
   55MOL0     C 7138   0.859  11.143  11.479 -0.1074  0.2708 -1.5506
   55MOL0     C 7139   0.735  11.204  11.404 -0.7193  0.3055 -0.4998
   55MOL0     C 7140   0.659  11.306  11.494  0.6361 -0.0068 -0.1346
   55MOL0     C 7141   0.602  11.416  11.406  0.5618 -0.2009 -0.0111
   55MOL0     C 7142   0.583  11.540  11.490 -0.9675  0.8816 -0.2790
   55MOL0     C 7143   0.495  11.649  11.426  0.2477 -0.8775 -0.3298
   55MOL0     C 7144   0.491  11.669  11.278 -0.6023 -0.5020 -0.5401
   55MOL0     N 7145   0.460  11.811  11.239 -0.0551  0.0101 -0.0653
   55MOL0     C 7146   0.342  11.856  11.187 -0.2371 -0.8714  0.8231
   55MOL0     C 7147   0.337  11.988  11.220  1.1264 -1.0022 -0.1513
   55MOL0     C 7148   0.240  12.092  11.184 -0.5272 -0.0264  0.4300
   55MOL0     C 7149   0.099  12.034  11.220 -0.2378  0.1841 -0.2508
   55MOL0     C 7150   0.002  12.149  11.239  0.7115 -0.5679  0.3755
   55MOL0     C 7151  -0.144  12.105  11.283  0.5606 -0.3587  0.2168
   55MOL0     O 7152  -0.225  12.222  11.304 -0.1710  0.0389  0.0924
   55MOL0     C 7153  -0.360  12.198  11.314  0.3547 -0.3575 -0.1722
   55MOL0     C 7154  -0.415  12.096  11.398  0.0242  0.0015  0.0764
   55MOL0     C 7155  -0.552  12.060  11.395  1.0121  0.2390  0.1789
   55MOL0     C 7156  -0.641  12.143  11.320  0.2908 -0.3710 -0.1115
   55MOL0     C 7157  -0.786  12.115  11.313 -0.0827  0.6922 -0.4727
   55MOL0     O 7158  -0.827  12.014  11.399  0.5528  0.5707 -0.8363
   55MOL0     C 7159  -0.964  11.988  11.418 -0.3448 -0.0356 -0.1201
   55MOL0     C 7160  -1.023  11.884  11.342  0.2812  0.1243  0.0317
   55MOL0     C 7161  -1.157  11.863  11.359  0.5872  1.0126  0.4555
   55MOL0     C 7162  -1.235  11.934  11.460 -0.0607  0.2315  0.4668
   55MOL0     O 7163  -1.360  11.890  11.478 -0.3387  0.3452  0.4623
   55MOL0     C 7164  -1.435  11.968  11.572  0.4016  0.5282 -0.0551
   55MOL0     C 7165  -1.567  11.890  11.578  0.4526  0.2093 -0.5299
   55MOL0     C 7166  -1.572  11.767  11.677 -0.2850  0.0615 -0.1390
   55MOL0     C 7167  -1.697  11.690  11.651  0.1175 -0.1599 -0.0190
   55MOL0     C 7168  -1.829  11.757  11.703 -0.5820  1.1875  0.1859
   55MOL0     C 7169  -1.826  11.791  11.852  0.7130  0.0872 -0.2051
   55MOL0     C 7170  -1.961  11.844  11.902 -1.6228  0.6423 -0.0425
   55MOL0     C 7171  -1.961  11.892  12.038 -0.3584 -0.4907 -0.2674
   55MOL0    Cl 7172  -2.106  11.996  12.053 -0.0068  0.4797 -0.0969
   55MOL0     C 7173  -1.166  12.039  11.530 -0.0159  0.7250  0.5170
   55MOL0     C 7174  -1.030  12.066  11.514  0.0244  0.4065  1.0558
   55MOL0     O 7175  -0.864  12.191  11.256  0.0087  0.6685  0.2231
   55MOL0     C 7176  -0.588  12.250  11.247  0.1056 -0.2241 -0.0431
   55MOL0     C 7177  -0.450  12.269  11.244 -0.0180  0.7160  0.2241
   55MOL0     N 7178   0.464  12.027  11.254 -0.1729  0.1379 -0.3831
   55MOL0     N 7179   0.529  11.918  11.282  0.6743  0.0352 -0.0942
   55MOL0     C 7180   1.242  11.052  11.322 -0.7365  0.4247  0.7359
   55MOL0     C 7181   1.340  10.963  11.274 -0.3997  1.5188 -0.3020
   55MOL0     C 7182   1.639  10.701  11.074  0.5804 -0.2413 -1.0844
   55MOL0     C 7183   1.725  10.606  11.125 -0.3601  0.7318  0.2149
   55MOL0     C 7184   1.825  10.547  11.044  1.2367  0.7496  0.0272
   55MOL0     C 7185   1.831  10.574  10.911  0.2419 -0.1573 -0.3468
   55MOL0     O 7186   1.924  10.506  10.839  0.6870  0.7274 -0.2827
   55MOL0     C 7187   1.898  10.498  10.702  1.0123 -0.0931 -0.3408
   55MOL0     C 7188   2.006  10.413  10.631  0.6395 -0.2434  0.1693
   55MOL0     C 7189   2.015  10.276  10.684  0.1868 -0.1417  0.8613
   55MOL0     C 7190   2.117  10.181  10.605 -0.1295  0.1040  0.4322
   55MOL0     C 7191   2.252  10.224  10.643  0.6681  0.0822  0.5437
   55MOL0     C 7192   2.360  10.235  10.698 -0.7876  0.2225 -0.5421
   55MOL0     C 7193   1.742  10.674  10.856 -0.4405 -0.8337 -0.4460
   55MOL0     C 7194   1.649  10.733  10.941  0.3564  0.0064  1.1977
   55MOL0     H 7195   1.224  10.955  10.957  2.7832 -1.5866 -0.0051
   55MOL0     H 7196   1.062  11.109  11.053 -0.3696 -0.1778  0.5460
   55MOL0     H 7197   1.014  10.992  11.439  0.0464  0.2369 -1.1826
   55MOL0     H 7198   0.889  10.996  11.319 -0.0077 -0.4930 -0.1892
   55MOL0     H 7199   0.921  11.227  11.512 -0.4388  0.3319 -1.0743
   55MOL0     H 7200   0.824  11.081  11.561 -1.4235  1.3689 -1.2373
   55MOL0     H 7201   0.661  11.130  11.372 -1.4870 -0.0567  1.9474
   55MOL0     H 7202   0.777  11.254  11.315  1.3865 -0.3579  0.0519
   55MOL0     H 7203   0.575  11.255  11.542  1.0432  1.1886  1.9772
   55MOL0     H 7204   0.710  11.343  11.583  0.5301  0.1727 -0.1463
   55MOL0     H 7205   0.506  11.389  11.361  1.4813 -0.3529 -2.0279
   55MOL0     H 7206   0.671  11.446  11.326  0.2895  0.5931  0.0350
   55MOL0     H 7207   0.682  11.574  11.519 -1.0319  0.5806  0.3165
   55MOL0     H 7208   0.545  11.507  11.587  1.9904  0.1626  0.7237
   55MOL0     H 7209   0.395  11.613  11.449  0.4474 -1.1239  0.1550
   55MOL0     H 7210   0.509  11.742  11.480 -1.0083 -1.0435  0.3050
   55MOL0     H 7211   0.424  11.593  11.238  2.0344 -2.4361 -1.5891
   55MOL0     H 7212   0.589  11.658  11.231  0.9757  1.8805  1.8353
   55MOL0     H 7213   0.264  11.793  11.148  0.8345 -1.9904  0.4260
   55MOL0     H 7214   0.238  12.106  11.076 -0.7274 -2.6506  0.0188
   55MOL0     H 7215   0.262  12.191  11.223 -3.3524  2.2331 -3.0931
   55MOL0     H 7216   0.108  11.973  11.310 -0.2872  0.8750  0.2310
   55MOL0     H 7217   0.058  11.976  11.136  2.6258  2.2213 -3.3091
   55MOL0     H 7218   0.042  12.229  11.302 -0.2841 -0.3946  0.8036
   55MOL0     H 7219  -0.017  12.195  11.142 -1.9540 -0.6015  0.8311
   55MOL0     H 7220  -0.135  12.054  11.380 -0.4159 -1.9481 -0.4878
   55MOL0     H 7221  -0.189  12.025  11.223  2.5390 -1.3519 -0.0609
   55MOL0     H 7222  -0.347  12.045  11.465  1.3097  0.7584 -0.6133
   55MOL0     H 7223  -0.588  11.982  11.461  1.1501  0.2349  0.2506
   55MOL0     H 7224  -0.966  11.804  11.295 -1.2527 -1.0181  0.0330
   55MOL0     H 7225  -1.198  11.778  11.305  2.8159  0.4450 -0.4414
   55MOL0     H 7226  -1.448  12.065  11.523  1.0939  1.6403  1.8860
   55MOL0     H 7227  -1.394  11.968  11.673 -3.0698  0.0231  1.4896
   55MOL0     H 7228  -1.595  11.855  11.478 -1.9557  3.2378 -1.0743
   55MOL0     H 7229  -1.644  11.963  11.603  0.0394 -0.7360  1.1097
   55MOL0     H 7230  -1.562  11.799  11.781  1.8192 -0.8133 -0.0272
   55MOL0     H 7231  -1.489  11.696  11.666  0.1077  0.2980  1.1889
   55MOL0     H 7232  -1.715  11.664  11.547  1.1739  1.6066 -0.6738
   55MOL0     H 7233  -1.683  11.597  11.708 -2.2332  0.4910  1.8068
   55MOL0     H 7234  -1.904  11.677  11.702  0.0501  0.5375  1.5477
   55MOL0     H 7235  -1.863  11.840  11.641  1.5339  0.6012 -1.9091
   55MOL0     H 7236  -1.745  11.865  11.860  0.5095  0.2517  0.3660
   55MOL0     H 7237  -1.811  11.700  11.910  0.2706 -0.2786 -0.6588
   55MOL0     H 7238  -1.973  11.927  11.832  1.1691  0.6726 -0.5998
   55MOL0     H 7239  -2.043  11.773  11.891 -0.1822 -0.8706 -1.5655
   55MOL0     H 7240  -1.871  11.949  12.064 -1.3955  2.0889 -1.9419
   55MOL0     H 7241  -1.954  11.805  12.104  2.5642 -0.7587 -0.7849
   55MOL0     H 7242  -1.225  12.100  11.597 -0.5553  1.8453 -0.9280
   55MOL0     H 7243  -0.982  12.146  11.569  1.3831 -1.5737  2.9478
   55MOL0     H 7244  -0.644  12.325  11.192  3.4920  2.7265  0.1951
   55MOL0     H 7245  -0.417  12.341  11.169 -3.0173  0.3397 -1.6640
   55MOL0     H 7246   1.261  11.079  11.425  0.6022 -0.1352  0.6661
   55MOL0     H 7247   1.424  10.946  11.340  0.0963 -1.3989 -1.5440
   55MOL0     H 7248   1.723  10.580  11.231  1.1227  2.1014  0.6180
   55MOL0     H 7249   1.897  10.482  11.093 -0.1358 -0.0367  1.0637
   55MOL0     H 7250   1.896  10.596  10.653 -2.8208 -1.5237 -3.6446
   55MOL0     H 7251   1.801  10.450  10.687 -0.6628  2.5994  1.0797
   55MOL0     H 7252   1.969  10.386  10.532  1.4636 -1.7634  0.2543
   55MOL0     H 7253   2.104  10.462  10.634  0.9656 -0.4115 -3.6417
   55MOL0     H 7254   1.918  10.226  10.681  1.1126 -2.0555 -1.8895
   55MOL0     H 7255   2.044  10.283  10.790 -2.0545 -2.8084  1.7998
   55MOL0     H 7256   2.110  10.079  10.645  0.9035  0.3572  1.2940
   55MOL0     H 7257   2.086  10.179  10.500  0.6197 -3.7945  0.1270
   55MOL0     H 7258   2.460  10.244  10.736 -0.5159 -0.6078 -1.0266
   55MOL0     H 7259   1.730  10.701  10.751 -0.7360  0.5314 -0.0756
   55MOL0     H 7260   1.579  10.810  10.910 -0.3939 -0.4066  1.8135
   56MOL0     O 7261   3.694   6.902   8.752 -0.4427  0.2389  0.1478
   56MOL0     C 7262   3.707   7.019   8.720 -0.6614  0.3226 -0.5578
   56MOL0     O 7263   3.607   7.097   8.666 -0.2525 -0.2915 -0.3398
   56MOL0     C 7264   3.477   7.054   8.664 -0.2437 -0.2693  0.8494
   56MOL0     C 7265   3.417   6.997   8.768  0.8920 -0.6583 -0.7893
   56MOL0     C 7266   3.279   6.971   8.773  0.1204  0.0227  0.2418
   56MOL0     C 7267   3.204   7.001   8.673  0.1035 -0.0079  0.2763
   56MOL0     O 7268   3.068   6.956   8.681  0.0945  0.7011  0.2591
   56MOL0     C 7269   3.006   6.904   8.559  0.6313  0.2607 -0.2860
   56MOL0     C 7270   2.892   6.812   8.606  0.1488 -1.0329  0.4599
   56MOL0     C 7271   2.806   6.769   8.486  0.0960 -0.0399 -0.3832
   56MOL0     C 7272   2.711   6.652   8.521 -0.0437 -0.2006  0.6058
   56MOL0     C 7273   2.604   6.607   8.421 -1.2435 -0.6727 -0.3888
   56MOL0     C 7274   2.508   6.516   8.488  0.8412  0.2416 -0.5198
   56MOL0     C 7275   2.394   6.472   8.394 -0.0988 -0.5428  0.8415
   56MOL0     C 7276   2.315   6.577   8.340 -0.0812 -0.0106 -0.6316
   56MOL0     N 7277   2.201   6.511   8.278 -0.0395  0.4359  0.4730
   56MOL0     C 7278   2.206   6.413   8.172 -0.6827 -0.6268 -0.9281
   56MOL0     C 7279   2.088   6.355   8.170  0.2022 -0.0371 -0.1637
   56MOL0     C 7280   2.051   6.236   8.083 -0.4407 -0.0539 -0.2317
   56MOL0     C 7281   1.955   6.274   7.977  0.0879  0.3237 -0.4971
   56MOL0     C 7282   1.875   6.149   7.939 -0.6315  0.4296 -0.1247
   56MOL0     C 7283   1.793   6.157   7.814 -0.1906  0.1257  0.1171
   56MOL0     O 7284   1.748   6.030   7.781 -0.2273  0.1812 -0.3325
   56MOL0     C 7285   1.613   6.003   7.813 -0.6409 -0.5547  0.4113
   56MOL0     C 7286   1.565   5.885   7.763 -0.1714  0.1596  1.1552
   56MOL0     C 7287   1.437   5.839   7.798  0.7971 -0.5291 -0.0928
   56MOL0     C 7288   1.352   5.919   7.871 -0.2886 -0.8774 -0.3457
   56MOL0     C 7289   1.207   5.883   7.909  0.8262  0.2939  0.4215
   56MOL0     O 7290   1.139   5.971   7.985  0.0412  0.4947  0.0500
   56MOL0     C 7291   1.014   5.933   8.024 -1.0403  0.8453 -0.5068
   56MOL0     C 7292   0.934   6.040   8.069 -0.0821 -0.3441  0.1366
   56MOL0     C 7293   0.797   6.022   8.095  0.1247 -1.1527 -0.3260
   56MOL0     C 7294   0.736   5.891   8.105 -0.2498  0.7679 -0.7453
   56MOL0     O 7295   0.609   5.850   8.155  0.7781 -0.2092  0.5826
   56MOL0     C 7296   0.550   5.969   8.213  0.5426 -0.1760 -0.0043
   56MOL0     C 7297   0.410   5.934   8.281 -1.3552 -0.3478  0.9553
   56MOL0     C 7298   0.305   5.904   8.178 -1.0438  0.0661 -0.4844
   56MOL0     C 7299   0.175   5.869   8.255 -0.6392  0.4377  0.2174
   56MOL0     C 7300   0.056   5.817   8.162  0.0854  0.4505  0.0406
   56MOL0     C 7301  -0.057   5.731   8.229 -0.2766  0.1402  0.3686
   56MOL0     C 7302  -0.114   5.814   8.346  0.6702  0.0838  0.0153
   56MOL0     C 7303  -0.067   5.785   8.494 -0.3059 -0.4510  0.4774
   56MOL0    Cl 7304  -0.030   5.935   8.583 -0.6191 -0.2033 -0.0402
   56MOL0     C 7305   0.828   5.781   8.078 -0.0184 -0.4923 -0.4685
   56MOL0     C 7306   0.960   5.803   8.040  0.8870 -0.2848  0.7424
   56MOL0     O 7307   1.158   5.788   7.849  0.1616 -0.2858  0.6508
   56MOL0     C 7308   1.398   6.037   7.931 -0.3721 -0.5742  1.6440
   56MOL0     C 7309   1.530   6.075   7.905  0.6574 -0.2636  0.7023
   56MOL0     N 7310   2.002   6.412   8.270 -0.7197 -0.5867 -0.0096
   56MOL0     N 7311   2.072   6.514   8.328  0.1382 -0.2040 -0.7228
   56MOL0     C 7312   3.256   7.071   8.560 -0.0814  0.6053  0.0604
   56MOL0     C 7313   3.394   7.089   8.553  0.3200 -0.1768  0.0841
   56MOL0     C 7314   3.839   7.099   8.732 -0.5174 -0.1465  0.3314
   56MOL0     C 7315   3.838   7.227   8.684  0.4364  0.1619 -0.1403
   56MOL0     C 7316   3.950   7.306   8.693 -0.6255 -0.0090 -0.4187
   56MOL0     C 7317   4.066   7.261   8.760  0.2164 -0.2803  0.3077
   56MOL0     O 7318   4.189   7.328   8.764 -0.1058  0.9181 -0.5844
   56MOL0     C 7319   4.202   7.468   8.733  0.2179  0.0137 -0.3404
   56MOL0     C 7320   4.202   7.485   8.577  0.3238 -0.0097  0.0385
   56MOL0     C 7321   4.332   7.422   8.507  0.2715 -0.1733  0.3711
   56MOL0     C 7322   4.469   7.466   8.562  0.7437 -0.1835  0.4580
   56MOL0     C 7323   4.567   7.432   8.458 -0.1207 -0.3565 -0.8481
   56MOL0     C 7324   4.661   7.410   8.388  0.1243 -0.4191 -0.6507
   56MOL0     C 7325   4.063   7.131   8.809 -0.0566 -0.5889 -0.0061
   56MOL0     C 7326   3.950   7.053   8.804 -0.5412  0.8379  0.4796
   56MOL0     H 7327   3.476   6.964   8.853  0.9399 -0.8895 -0.9115
   56MOL0     H 7328   3.243   6.911   8.856  1.7990 -0.9767  0.2886
   56MOL0     H 7329   3.078   6.846   8.500  1.4935  1.6047 -0.5943
   56MOL0     H 7330   2.961   6.981   8.497  2.1767  1.7631  0.3786
   56MOL0     H 7331   2.831   6.869   8.677 -2.2913  0.0674 -2.3184
   56MOL0     H 7332   2.930   6.729   8.665  0.2366 -0.1710  1.6615
   56MOL0     H 7333   2.863   6.726   8.403 -1.9847 -0.4605 -1.6599
   56MOL0     H 7334   2.744   6.850   8.448  2.7183  0.6127 -3.7557
   56MOL0     H 7335   2.774   6.563   8.527 -0.4073 -0.4378  0.9656
   56MOL0     H 7336   2.665   6.672   8.618  1.1109 -0.0494  1.1342
   56MOL0     H 7337   2.646   6.548   8.339 -0.2156 -2.6977  1.4892
   56MOL0     H 7338   2.554   6.696   8.380  1.1696  1.3403  0.8050
   56MOL0     H 7339   2.472   6.557   8.584 -1.5736  2.0765 -2.0867
   56MOL0     H 7340   2.554   6.427   8.532  0.3196  0.7414  1.1099
   56MOL0     H 7341   2.455   6.423   8.317  1.7876  1.4291  0.9665
   56MOL0     H 7342   2.334   6.395   8.442 -1.8775 -0.3391 -0.9556
   56MOL0     H 7343   2.363   6.646   8.270  1.1965  0.2240  0.4360
   56MOL0     H 7344   2.279   6.641   8.421  0.2465 -0.8161  0.1508
   56MOL0     H 7345   2.303   6.387   8.131 -0.4868 -2.4198  0.5257
   56MOL0     H 7346   2.009   6.157   8.147 -1.5992  0.6519 -0.1012
   56MOL0     H 7347   2.137   6.201   8.025 -0.6223 -2.1304  0.6411
   56MOL0     H 7348   1.994   6.311   7.882 -0.2610 -2.4241 -1.8010
   56MOL0     H 7349   1.894   6.352   8.024  2.2986  0.5128  2.3667
   56MOL0     H 7350   1.952   6.073   7.920 -1.3629 -0.4323  0.2779
   56MOL0     H 7351   1.809   6.116   8.020  0.8785  0.3767  1.1257
   56MOL0     H 7352   1.866   6.190   7.739  2.0102 -2.9601  0.6593
   56MOL0     H 7353   1.712   6.229   7.820 -1.7872 -1.6224  0.5937
   56MOL0     H 7354   1.625   5.825   7.696  0.0860  1.1064  0.5140
   56MOL0     H 7355   1.407   5.744   7.755 -0.8798  0.4652 -1.2613
   56MOL0     H 7356   0.977   6.140   8.068 -0.4411 -0.1791 -1.8313
   56MOL0     H 7357   0.737   6.112   8.103  0.7208 -0.8886  1.8628
   56MOL0     H 7358   0.538   6.053   8.144 -4.6998  1.8642  2.7211
   56MOL0     H 7359   0.611   6.014   8.292 -0.7287  0.2357  0.7970
   56MOL0     H 7360   0.373   6.028   8.325 -0.0856  0.7854 -0.2918
   56MOL0     H 7361   0.422   5.863   8.363  4.0202 -0.7698  0.1553
   56MOL0     H 7362   0.348   5.822   8.119  0.5808 -2.7765  4.1098
   56MOL0     H 7363   0.289   5.992   8.116  0.6375  2.1608  1.8525
   56MOL0     H 7364   0.211   5.794   8.327 -0.2189  1.9105  1.5852
   56MOL0     H 7365   0.139   5.961   8.301 -0.3130  0.2406  0.8759
   56MOL0     H 7366   0.100   5.757   8.082 -0.4798  0.4276 -0.2561
   56MOL0     H 7367   0.021   5.903   8.104  1.3955 -0.9817 -3.0565
   56MOL0     H 7368  -0.029   5.628   8.251  1.3624 -0.0392 -2.0897
   56MOL0     H 7369  -0.141   5.721   8.160 -0.6280 -1.8090  1.0469
   56MOL0     H 7370  -0.108   5.923   8.334  1.8618  0.0554  0.2879
   56MOL0     H 7371  -0.219   5.786   8.355  0.8652 -0.1403  1.9598
   56MOL0     H 7372   0.030   5.734   8.494  1.2828  2.3014 -1.8172
   56MOL0     H 7373  -0.147   5.728   8.543  0.0905 -1.8446 -0.4554
   56MOL0     H 7374   0.800   5.679   8.102  0.9234 -0.2565  1.9073
   56MOL0     H 7375   1.022   5.714   8.034  1.6723  0.3443 -0.8714
   56MOL0     H 7376   1.338   6.100   7.996  0.6427  0.3138  1.7571
   56MOL0     H 7377   1.563   6.162   7.960  0.6122 -0.7342  1.4814
   56MOL0     H 7378   3.199   7.086   8.469  2.7025  4.0497 -1.3717
   56MOL0     H 7379   3.443   7.128   8.465  0.1576 -3.1685 -1.4542
   56MOL0     H 7380   3.744   7.260   8.641  0.7595  0.4682 -0.6258
   56MOL0     H 7381   3.943   7.410   8.660 -1.9195  0.6098  1.5994
   56MOL0     H 7382   4.277   7.528   8.785 -1.6260  2.6799 -0.5940
   56MOL0     H 7383   4.104   7.508   8.760 -1.0263 -2.2703 -1.1630
   56MOL0     H 7384   4.112   7.433   8.543 -0.6329 -0.6981  3.2509
   56MOL0     H 7385   4.189   7.588   8.543 -0.5549 -1.0961 -3.2405
   56MOL0     H 7386   4.342   7.449   8.401  1.0237 -3.7162 -0.6055
   56MOL0     H 7387   4.316   7.314   8.510 -1.4684  0.0282 -0.4238
   56MOL0     H 7388   4.472   7.573   8.584 -0.9699  0.2285 -1.0618
   56MOL0     H 7389   4.498   7.413   8.653 -1.5055 -0.0560  1.3282
   56MOL0     H 7390   4.760   7.395   8.351  1.7889  1.1916  2.7021
   56MOL0     H 7391   4.148   7.098   8.869  0.0218  0.3031  0.3997
   56MOL0     H 7392   3.942   6.954   8.848 -3.3043 -0.3689 -2.3961
   57MOL0     O 7393  10.221   8.227  11.044  0.2892 -0.1332 -0.1003
   57MOL0     C 7394  10.216   8.173  11.156  0.9184 -0.3826 -0.2701
   57MOL0     O 7395  10.145   8.219  11.266  0.0072  0.1379 -0.0809
   57MOL0     C 7396  10.063   8.322  11.251  0.8055 -0.7928 -0.5403
   57MOL0     C 7397  10.091   8.456  11.283  0.1253  0.1433 -0.0526
   57MOL0     C 7398  10.012   8.560  11.235  0.3679 -0.1250 -0.9776
   57MOL0     C 7399   9.898   8.547  11.167 -0.0517 -0.0035 -0.3780
   57MOL0     O 7400   9.823   8.657  11.141  0.0362  0.0963  0.3959
   57MOL0     C 7401   9.685   8.639  11.120  0.8344 -0.4216 -0.4706
   57MOL0     C 7402   9.625   8.769  11.071 -0.6388 -0.7813 -0.4480
   57MOL0     C 7403   9.471   8.768  11.089  0.9319 -0.7307  0.6092
   57MOL0     C 7404   9.405   8.889  11.019  0.8452 -0.5230 -0.0186
   57MOL0     C 7405   9.259   8.866  10.988 -0.3821  0.0129 -0.1996
   57MOL0     C 7406   9.191   8.995  10.951  0.0294  0.7766  0.1423
   57MOL0     C 7407   9.048   8.966  10.918 -0.5594 -0.7282 -0.1896
   57MOL0     C 7408   8.984   9.095  10.880 -0.0025 -0.0597 -0.2891
   57MOL0     N 7409   8.850   9.076  10.860  0.3689 -0.4821 -0.2191
   57MOL0     C 7410   8.756   9.094  10.959  0.0092 -0.3885  0.5185
   57MOL0     C 7411   8.640   9.049  10.911 -0.2414 -0.5828 -0.2790
   57MOL0     C 7412   8.517   9.047  10.996  0.1988 -0.7099  0.2219
   57MOL0     C 7413   8.438   9.181  10.980 -0.2549  0.0940  0.0360
   57MOL0     C 7414   8.314   9.183  11.073  0.1891  1.0151  0.1764
   57MOL0     C 7415   8.256   9.324  11.088  0.2379 -0.5472  0.3692
   57MOL0     O 7416   8.127   9.315  11.140 -0.2805 -0.1113  0.8000
   57MOL0     C 7417   8.082   9.431  11.190  0.3417  0.0229  0.3226
   57MOL0     C 7418   8.020   9.428  11.323  0.3273  0.1994 -0.1784
   57MOL0     C 7419   7.966   9.541  11.388 -0.8057 -0.4390  0.0751
   57MOL0     C 7420   7.955   9.661  11.318  0.4816  0.6417 -0.2836
   57MOL0     C 7421   7.900   9.782  11.369 -0.6074 -0.1423 -0.9104
   57MOL0     O 7422   7.928   9.909  11.315 -0.4278  0.0090 -0.2486
   57MOL0     C 7423   7.878  10.017  11.376  0.2751  0.3451  0.6589
   57MOL0     C 7424   7.750  10.030  11.437 -0.7242 -0.6432  0.8511
   57MOL0     C 7425   7.709  10.159  11.477  0.3560  0.7743 -0.8509
   57MOL0     C 7426   7.788  10.268  11.455  0.4547 -0.0390  0.4438
   57MOL0     O 7427   7.742  10.388  11.501 -0.0294  0.4928 -0.6638
   57MOL0     C 7428   7.795  10.507  11.449 -0.5815 -0.4599 -0.2442
   57MOL0     C 7429   7.694  10.629  11.462  0.2019  0.1438  0.1103
   57MOL0     C 7430   7.690  10.673  11.602 -0.4378 -0.2847  0.5071
   57MOL0     C 7431   7.605  10.801  11.631 -0.0075  0.2186  0.0531
   57MOL0     C 7432   7.458  10.784  11.590 -0.7207 -0.2410 -0.0272
   57MOL0     C 7433   7.366  10.870  11.692 -0.2851  0.6790  0.4616
   57MOL0     C 7434   7.219  10.860  11.646  0.0944  0.1072  0.2250
   57MOL0     C 7435   7.123  10.931  11.746 -0.6861 -0.2507 -0.8826
   57MOL0    Cl 7436   6.958  10.929  11.679  0.2854 -0.0120 -0.0084
   57MOL0     C 7437   7.908  10.251  11.393  0.0043 -0.3494 -0.4465
   57MOL0     C 7438   7.953  10.127  11.359  0.2888 -0.9078  0.3418
   57MOL0     O 7439   7.846   9.762  11.478  0.3829 -0.2425 -0.5183
   57MOL0     C 7440   8.007   9.661  11.185 -0.1731 -0.6523 -0.0970
   57MOL0     C 7441   8.075   9.553  11.124 -0.4001 -0.4567 -0.0894
   57MOL0     N 7442   8.661   8.993  10.790 -0.4511 -0.4737 -0.1957
   57MOL0     N 7443   8.786   9.006  10.756  0.0856  0.3486  0.2086
   57MOL0     C 7444   9.858   8.413  11.143  0.5459  0.3970 -0.1321
   57MOL0     C 7445   9.936   8.302  11.186 -0.3376  0.0132 -0.1672
   57MOL0     C 7446  10.298   8.047  11.172 -0.1514  0.0121  0.4632
   57MOL0     C 7447  10.346   7.968  11.067  0.5098 -0.5432  0.6037
   57MOL0     C 7448  10.413   7.847  11.081 -0.0866  0.2318 -0.9569
   57MOL0     C 7449  10.454   7.807  11.207 -0.4528  0.7362  0.0794
   57MOL0     O 7450  10.512   7.677  11.208  0.2444 -0.5463  0.5247
   57MOL0     C 7451  10.544   7.624  11.335 -0.3686  0.2182  0.5793
   57MOL0     C 7452  10.675   7.684  11.381 -0.3625 -0.7720 -0.6711
   57MOL0     C 7453  10.735   7.589  11.486 -0.2086 -0.2417 -0.4052
   57MOL0     C 7454  10.857   7.644  11.553 -0.7818  0.3166 -0.3211
   57MOL0     C 7455  10.978   7.626  11.466 -0.0452 -0.7138  0.5542
   57MOL0     C 7456  11.076   7.604  11.397 -0.2173 -0.0366  0.1456
   57MOL0     C 7457  10.425   7.891  11.315  0.8624 -0.1210  0.1834
   57MOL0     C 7458  10.340   8.010  11.301 -0.2595  0.7829  0.3511
   57MOL0     H 7459  10.183   8.469  11.340 -0.0866  2.0865 -0.0857
   57MOL0     H 7460  10.040   8.664  11.247 -1.8786  0.7028 -2.4395
   57MOL0     H 7461   9.641   8.609  11.216 -0.5182  1.2306 -0.5123
   57MOL0     H 7462   9.650   8.561  11.052 -0.3558 -0.1310 -0.2197
   57MOL0     H 7463   9.650   8.785  10.966  2.3735  3.9811  0.6551
   57MOL0     H 7464   9.672   8.857  11.118 -0.9040 -1.9834  2.2566
   57MOL0     H 7465   9.437   8.773  11.193 -1.0693 -0.7813 -0.0043
   57MOL0     H 7466   9.437   8.672  11.050  0.2822  0.9803 -3.5233
   57MOL0     H 7467   9.422   8.979  11.080  0.0726  0.5227 -1.2943
   57MOL0     H 7468   9.438   8.900  10.915  1.9589  0.7401  0.4393
   57MOL0     H 7469   9.208   8.817  11.071  2.9929 -1.3142  1.2886
   57MOL0     H 7470   9.254   8.793  10.905  0.2111  0.8418 -0.9833
   57MOL0     H 7471   9.241   9.045  10.867 -0.0166 -1.0527 -1.0457
   57MOL0     H 7472   9.202   9.052  11.043  0.5005 -3.1571  2.7587
   57MOL0     H 7473   9.044   8.894  10.836 -0.9370 -1.0579  0.1118
   57MOL0     H 7474   8.995   8.925  11.004 -1.3546 -1.0997 -0.8408
   57MOL0     H 7475   9.021   9.130  10.783 -2.6117  1.2510 -0.9148
   57MOL0     H 7476   8.983   9.172  10.957 -1.3050 -1.2028  0.8985
   57MOL0     H 7477   8.769   9.150  11.051 -2.2486  2.0393 -0.5055
   57MOL0     H 7478   8.526   9.026  11.103 -2.5054 -1.5486  0.3546
   57MOL0     H 7479   8.454   8.964  10.963 -0.5971  0.1460 -0.4663
   57MOL0     H 7480   8.403   9.209  10.880  1.2653  1.3997 -0.1634
   57MOL0     H 7481   8.502   9.262  11.016 -0.7212 -0.1018  1.3576
   57MOL0     H 7482   8.240   9.120  11.023  1.3796 -0.4140  0.1618
   57MOL0     H 7483   8.334   9.139  11.172  0.7427  0.6900 -0.0790
   57MOL0     H 7484   8.242   9.377  10.993  0.9075  2.4924  1.8472
   57MOL0     H 7485   8.329   9.385  11.141  1.4215 -1.4526 -0.1532
   57MOL0     H 7486   8.018   9.333  11.374  2.4300 -0.9748 -2.1003
   57MOL0     H 7487   7.926   9.542  11.489  1.0932 -0.1637  0.8670
   57MOL0     H 7488   7.668   9.960  11.449  0.1045 -1.7471  0.1898
   57MOL0     H 7489   7.609  10.163  11.519  1.7130  5.1805  2.8562
   57MOL0     H 7490   7.816  10.502  11.341 -0.3770  5.3695 -0.8062
   57MOL0     H 7491   7.881  10.541  11.508 -0.9943 -1.1315  0.7615
   57MOL0     H 7492   7.595  10.598  11.429 -0.1509  0.0348  1.2306
   57MOL0     H 7493   7.714  10.716  11.398  0.3591  2.1981  2.7580
   57MOL0     H 7494   7.795  10.691  11.626  0.9187 -0.6576 -4.0696
   57MOL0     H 7495   7.665  10.585  11.661 -0.7649  0.7554  1.9827
   57MOL0     H 7496   7.610  10.827  11.738  0.0744  3.0514 -0.5654
   57MOL0     H 7497   7.652  10.888  11.585 -0.0807  0.4726  0.4498
   57MOL0     H 7498   7.426  10.679  11.585  2.1550 -1.4767  3.2062
   57MOL0     H 7499   7.454  10.826  11.489 -0.2135 -1.8432 -0.7466
   57MOL0     H 7500   7.404  10.973  11.697  1.3784  0.0885  0.8376
   57MOL0     H 7501   7.389  10.826  11.789 -2.1459 -2.1919 -0.2795
   57MOL0     H 7502   7.204  10.912  11.550  0.8386 -0.6555 -0.3101
   57MOL0     H 7503   7.190  10.756  11.633  0.9160  0.0427 -1.2717
   57MOL0     H 7504   7.143  11.038  11.739 -1.6000 -0.1528 -2.3393
   57MOL0     H 7505   7.123  10.893  11.849 -0.6799 -0.6493 -1.0257
   57MOL0     H 7506   7.972  10.337  11.373  0.9454 -1.5833 -3.3108
   57MOL0     H 7507   8.050  10.113  11.313 -1.4372 -2.0074 -3.3454
   57MOL0     H 7508   7.986   9.750  11.126 -1.2384  0.0372  1.2684
   57MOL0     H 7509   8.117   9.558  11.024  1.0248  1.8977  0.5392
   57MOL0     H 7510   9.768   8.393  11.086  0.9105 -1.5820 -0.0892
   57MOL0     H 7511   9.918   8.196  11.177 -0.1542 -0.1788  1.3909
   57MOL0     H 7512  10.308   7.993  10.968  0.9838 -2.6655 -0.1724
   57MOL0     H 7513  10.422   7.785  10.992 -0.7046 -3.0922  1.1331
   57MOL0     H 7514  10.548   7.514  11.327 -0.0961  0.2851 -0.3918
   57MOL0     H 7515  10.460   7.642  11.403 -0.5028  1.3509  0.1249
   57MOL0     H 7516  10.748   7.702  11.301  0.8688 -3.3393 -0.2132
   57MOL0     H 7517  10.660   7.779  11.433  1.0031 -1.1412  0.4186
   57MOL0     H 7518  10.765   7.489  11.453 -1.9454 -0.4099 -1.6432
   57MOL0     H 7519  10.661   7.586  11.567 -1.7285  2.9795 -1.4652
   57MOL0     H 7520  10.838   7.743  11.596  0.3027  0.3275  0.1643
   57MOL0     H 7521  10.876   7.588  11.646  2.9305  2.1327  0.2116
   57MOL0     H 7522  11.161   7.584  11.334 -0.1583 -1.4413  0.6303
   57MOL0     H 7523  10.438   7.870  11.421 -0.8833 -0.0437  0.4422
   57MOL0     H 7524  10.314   8.076  11.383 -0.2063 -1.0522  1.9115
   58MOL0     O 7525   4.138   2.861   5.140 -0.6951  0.0439 -0.3952
   58MOL0     C 7526   4.170   2.846   5.027  0.3394  0.4972 -0.5338
   58MOL0     O 7527   4.076   2.854   4.925 -0.3281  0.5453  0.0912
   58MOL0     C 7528   3.941   2.882   4.941  0.4553 -0.0851  0.0896
   58MOL0     C 7529   3.864   2.875   4.819 -0.1403 -0.9943  0.4365
   58MOL0     C 7530   3.732   2.902   4.813  0.1206 -0.0857  0.2288
   58MOL0     C 7531   3.659   2.934   4.931  0.1729  0.5522  0.6362
   58MOL0     O 7532   3.522   2.934   4.923 -0.6656  0.3643 -0.9510
   58MOL0     C 7533   3.454   2.952   5.049  0.7823 -0.1594  0.0132
   58MOL0     C 7534   3.304   2.933   5.033  0.4062 -0.0097 -0.0292
   58MOL0     C 7535   3.224   2.969   5.151 -0.3274 -0.3228  0.5550
   58MOL0     C 7536   3.224   2.860   5.253 -0.0246  0.3513  0.7471
   58MOL0     C 7537   3.121   2.896   5.357 -0.0131  0.3941 -0.2603
   58MOL0     C 7538   3.155   3.011   5.448 -0.3475 -0.8493  0.8929
   58MOL0     C 7539   3.043   3.019   5.538  0.0842  0.2226  0.5659
   58MOL0     C 7540   3.051   3.143   5.627  0.4786 -0.1225  0.1720
   58MOL0     N 7541   2.994   3.256   5.535 -0.7313  0.6373  0.5192
   58MOL0     C 7542   3.069   3.363   5.490  0.3327 -0.6555  0.7457
   58MOL0     C 7543   2.974   3.439   5.420 -0.0942  0.3214 -0.0996
   58MOL0     C 7544   3.004   3.556   5.336  0.1185 -0.2357 -0.5915
   58MOL0     C 7545   3.135   3.552   5.263  0.1394  0.0047 -0.4596
   58MOL0     C 7546   3.130   3.446   5.160  0.3338 -0.4926 -0.4377
   58MOL0     C 7547   3.252   3.430   5.068  0.4171  0.3641  0.3556
   58MOL0     O 7548   3.371   3.439   5.147 -0.1991 -0.2192  0.2062
   58MOL0     C 7549   3.483   3.390   5.085  1.0871  0.4953 -0.1914
   58MOL0     C 7550   3.490   3.349   4.949  0.5552 -0.1206 -0.7443
   58MOL0     C 7551   3.604   3.300   4.890  0.2896  0.5914 -0.4979
   58MOL0     C 7552   3.718   3.276   4.977 -0.3005  0.1650 -0.1399
   58MOL0     C 7553   3.853   3.245   4.913 -0.3839 -0.7385 -0.2979
   58MOL0     O 7554   3.966   3.249   4.996 -0.0442  0.1566 -0.2129
   58MOL0     C 7555   4.091   3.284   4.958 -0.3841 -0.5789 -0.0231
   58MOL0     C 7556   4.123   3.399   4.874 -0.1432  0.2118 -0.3503
   58MOL0     C 7557   4.254   3.422   4.837  0.6981 -0.6633 -0.6372
   58MOL0     C 7558   4.358   3.346   4.896  0.3640 -0.5857  0.0810
   58MOL0     O 7559   4.482   3.339   4.846 -0.6349  0.5291  0.1376
   58MOL0     C 7560   4.475   3.323   4.702 -0.9675  0.3476  0.0425
   58MOL0     C 7561   4.591   3.234   4.652  0.2923  0.4539 -0.1433
   58MOL0     C 7562   4.724   3.302   4.657  1.0518  0.1224  0.2314
   58MOL0     C 7563   4.811   3.197   4.595 -0.2556 -0.1294 -1.1637
   58MOL0     C 7564   4.960   3.247   4.562 -0.0076 -0.6228 -0.1643
   58MOL0     C 7565   5.049   3.124   4.531  0.0908  0.9798  0.8240
   58MOL0     C 7566   5.158   3.091   4.627  0.3281 -0.5361  0.1081
   58MOL0     C 7567   5.274   3.012   4.566  0.1470 -0.7007  0.3197
   58MOL0    Cl 7568   5.392   2.979   4.695  0.0803  0.3666  0.2071
   58MOL0     C 7569   4.326   3.241   4.987  0.4033  0.0447  0.9587
   58MOL0     C 7570   4.194   3.210   5.016  0.0845  0.0949  0.1093
   58MOL0     O 7571   3.856   3.239   4.793 -0.4329 -0.1898 -0.6279
   58MOL0     C 7572   3.714   3.319   5.111  1.0816 -0.2124  0.5043
   58MOL0     C 7573   3.597   3.374   5.169  0.2755 -0.7542 -0.3084
   58MOL0     N 7574   2.852   3.367   5.420  0.2288  0.1568  0.7841
   58MOL0     N 7575   2.865   3.265   5.496 -0.5455  0.2705 -0.5441
   58MOL0     C 7576   3.737   2.952   5.049 -0.0540 -0.3267 -0.8711
   58MOL0     C 7577   3.876   2.918   5.062  0.4690 -0.6384 -0.1459
   58MOL0     C 7578   4.318   2.851   4.997  0.2697 -0.3306 -0.5108
   58MOL0     C 7579   4.421   2.818   5.097  0.4192  0.3851  0.8959
   58MOL0     C 7580   4.553   2.827   5.061 -0.5930 -0.3475 -0.1025
   58MOL0     C 7581   4.599   2.861   4.925  0.0319 -0.0378  0.4027
   58MOL0     O 7582   4.727   2.871   4.886 -0.1055 -0.0726  0.2572
   58MOL0     C 7583   4.823   2.793   4.950 -0.6023  0.2359 -0.8491
   58MOL0     C 7584   4.909   2.880   5.038 -0.1497 -0.6514  0.3275
   58MOL0     C 7585   4.999   2.972   4.948  1.0300  0.3756  0.5707
   58MOL0     C 7586   5.035   3.105   5.027  1.1598 -0.1378  0.3485
   58MOL0     C 7587   4.923   3.195   5.019  0.9781  0.2158  0.9613
   58MOL0     C 7588   4.820   3.261   5.002 -0.0956  0.3750 -0.1175
   58MOL0     C 7589   4.495   2.882   4.834 -0.4017  0.4400 -0.1854
   58MOL0     C 7590   4.364   2.883   4.876  0.2849  0.5273  0.5236
   58MOL0     H 7591   3.910   2.848   4.725  1.6549 -0.2141  1.0425
   58MOL0     H 7592   3.680   2.904   4.718 -0.2088  0.0272  0.4102
   58MOL0     H 7593   3.463   3.056   5.079 -0.9113 -0.6586  2.5637
   58MOL0     H 7594   3.485   2.898   5.139  0.7834  0.7916  0.5987
   58MOL0     H 7595   3.287   2.828   5.005  3.8891 -0.8459  0.5446
   58MOL0     H 7596   3.263   2.989   4.949  0.3643  0.2586  0.1685
   58MOL0     H 7597   3.124   3.002   5.121 -0.0078  1.1411  1.0295
   58MOL0     H 7598   3.274   3.053   5.199  2.7684 -1.9203  0.3700
   58MOL0     H 7599   3.203   2.765   5.204 -0.4766  0.0552  1.5012
   58MOL0     H 7600   3.323   2.863   5.300  1.2074  3.5590 -1.7140
   58MOL0     H 7601   3.122   2.810   5.426 -0.0068  1.9680  1.7990
   58MOL0     H 7602   3.023   2.914   5.311  0.0790  1.4328 -0.0533
   58MOL0     H 7603   3.174   3.105   5.397 -1.9976 -0.1109  1.5641
   58MOL0     H 7604   3.243   2.980   5.505 -0.3593 -1.5497  0.5454
   58MOL0     H 7605   2.949   3.029   5.484 -1.4473  0.4186  3.1115
   58MOL0     H 7606   3.035   2.924   5.593  1.0787 -0.5662 -0.5899
   58MOL0     H 7607   3.150   3.163   5.669  0.3706 -0.4039  0.5549
   58MOL0     H 7608   2.974   3.129   5.703 -2.3721 -2.4867 -2.8681
   58MOL0     H 7609   3.176   3.378   5.498  0.8971  0.3751 -4.7902
   58MOL0     H 7610   3.015   3.637   5.408 -3.6947  2.2950 -2.5126
   58MOL0     H 7611   2.921   3.584   5.271 -1.2373 -1.2875  0.6023
   58MOL0     H 7612   3.225   3.553   5.325 -1.0140  2.8968  1.4305
   58MOL0     H 7613   3.131   3.649   5.212 -0.1234  1.0357  1.4357
   58MOL0     H 7614   3.113   3.350   5.211  0.7602 -2.2579 -3.4187
   58MOL0     H 7615   3.041   3.464   5.099  2.0338 -0.9779 -3.2076
   58MOL0     H 7616   3.246   3.516   5.001 -3.7973  2.4554  3.0204
   58MOL0     H 7617   3.231   3.331   5.026 -0.8914 -0.8641  3.5578
   58MOL0     H 7618   3.407   3.360   4.880  0.3150 -0.0267 -0.4395
   58MOL0     H 7619   3.608   3.297   4.782  0.2551  2.2791 -0.5672
   58MOL0     H 7620   4.051   3.477   4.851 -0.3307 -0.5816 -2.6510
   58MOL0     H 7621   4.286   3.493   4.762  2.8807 -2.0137 -1.0566
   58MOL0     H 7622   4.492   3.419   4.652  0.5487 -1.6846 -3.7920
   58MOL0     H 7623   4.379   3.280   4.671 -1.6204  0.1710  2.1843
   58MOL0     H 7624   4.571   3.213   4.546 -4.2067  2.9091 -0.0268
   58MOL0     H 7625   4.596   3.137   4.703 -1.6968  0.4195  0.0596
   58MOL0     H 7626   4.744   3.334   4.760 -0.7947  1.5260  0.1973
   58MOL0     H 7627   4.730   3.394   4.598  1.6053  1.6594  2.5412
   58MOL0     H 7628   4.819   3.109   4.659  0.7382  1.9660  1.7945
   58MOL0     H 7629   4.768   3.172   4.498 -2.6674  2.7469 -0.9965
   58MOL0     H 7630   5.006   3.288   4.652  3.3093 -0.0638 -1.9702
   58MOL0     H 7631   4.983   3.329   4.494  1.0752 -0.3757  0.4865
   58MOL0     H 7632   5.112   3.166   4.451  1.0950  0.6248  1.4101
   58MOL0     H 7633   4.990   3.040   4.494 -0.4544  2.0412 -0.8371
   58MOL0     H 7634   5.187   3.181   4.682 -1.8603  1.4023 -1.6866
   58MOL0     H 7635   5.121   3.025   4.706 -1.7662  0.4831  0.0296
   58MOL0     H 7636   5.321   3.077   4.491  0.0342 -0.7604  0.1978
   58MOL0     H 7637   5.239   2.927   4.507 -1.5089  0.6881 -0.7773
   58MOL0     H 7638   4.404   3.178   5.028  0.8498  0.4358  0.7201
   58MOL0     H 7639   4.166   3.120   5.069 -2.1017  0.5839 -0.0961
   58MOL0     H 7640   3.813   3.331   5.153  1.6607 -0.1500 -0.8144
   58MOL0     H 7641   3.585   3.404   5.273 -4.2199 -0.8588 -0.6179
   58MOL0     H 7642   3.691   2.967   5.146  3.6123 -0.6717  1.1278
   58MOL0     H 7643   3.921   2.937   5.159 -0.5769 -1.4394  0.5129
   58MOL0     H 7644   4.395   2.781   5.195 -0.6079  0.7983  0.7838
   58MOL0     H 7645   4.625   2.812   5.141 -0.0479 -0.3423 -0.5918
   58MOL0     H 7646   4.874   2.729   4.877  1.3723 -2.2080  2.4288
   58MOL0     H 7647   4.780   2.721   5.020  0.1730 -0.9422 -1.5636
   58MOL0     H 7648   4.862   2.939   5.118  0.7291 -0.2105  0.5262
   58MOL0     H 7649   4.971   2.807   5.091 -1.2241 -1.1303  0.9731
   58MOL0     H 7650   4.946   3.001   4.857  0.4731  1.5775  1.2447
   58MOL0     H 7651   5.088   2.915   4.920  0.8343  0.8706 -1.1490
   58MOL0     H 7652   5.064   3.086   5.131 -3.0383 -0.2481  1.7197
   58MOL0     H 7653   5.116   3.163   4.981  0.6216  1.4032  1.2763
   58MOL0     H 7654   4.726   3.307   4.979 -0.0332  0.4092 -0.3044
   58MOL0     H 7655   4.521   2.903   4.730  0.2158  2.2343  0.2898
   58MOL0     H 7656   4.285   2.906   4.804 -0.9360  0.9685  1.9655
   59MOL0     O 7657   0.320   9.561  10.577  1.0113 -0.1588 -0.3464
   59MOL0     C 7658   0.331   9.563  10.700  0.4246  0.7997  0.6041
   59MOL0     O 7659   0.308   9.670  10.780  0.2799 -0.1377 -0.3144
   59MOL0     C 7660   0.222   9.767  10.729  0.3010  0.3407 -0.7691
   59MOL0     C 7661   0.087   9.729  10.723 -0.0532 -0.3459 -0.7193
   59MOL0     C 7662  -0.007   9.817  10.674  0.8383 -0.3918  0.6500
   59MOL0     C 7663   0.027   9.943  10.623 -1.0684  0.1199  0.1524
   59MOL0     O 7664  -0.051  10.048  10.570  0.0565  0.3207 -0.0495
   59MOL0     C 7665  -0.166   9.995  10.504 -0.0646  0.4665  0.5971
   59MOL0     C 7666  -0.216  10.110  10.413  0.9008  0.1322  0.4325
   59MOL0     C 7667  -0.354  10.074  10.346  0.2090 -0.6076 -0.7085
   59MOL0     C 7668  -0.421  10.187  10.259 -0.0449 -0.1261 -0.2703
   59MOL0     C 7669  -0.534  10.127  10.168 -0.0220 -0.1337 -0.1052
   59MOL0     C 7670  -0.674  10.201  10.176 -0.9652  0.4290 -0.5200
   59MOL0     C 7671  -0.683  10.350  10.144  0.4102 -0.0023 -0.2191
   59MOL0     C 7672  -0.838  10.380  10.140 -0.2933  0.5406 -0.2639
   59MOL0     N 7673  -0.870  10.517  10.094  0.6241 -0.1582 -0.6437
   59MOL0     C 7674  -0.879  10.638  10.169  0.8005  0.6635  0.6183
   59MOL0     C 7675  -0.923  10.735  10.075 -1.4454 -0.4580 -0.0538
   59MOL0     C 7676  -0.946  10.877  10.119  0.0159  0.4803  0.4607
   59MOL0     C 7677  -1.090  10.890  10.179 -1.2410  0.2093  0.1471
   59MOL0     C 7678  -1.120  11.043  10.206  0.2919  0.5469 -0.6180
   59MOL0     C 7679  -1.260  11.056  10.239 -0.8348  0.0695 -0.1289
   59MOL0     O 7680  -1.304  11.189  10.239  0.1457 -0.3666 -0.3841
   59MOL0     C 7681  -1.430  11.229  10.210  0.7909 -0.6211  0.2702
   59MOL0     C 7682  -1.459  11.363  10.182 -0.7737  0.3435  0.5822
   59MOL0     C 7683  -1.589  11.409  10.154  0.2564  0.0517  0.0886
   59MOL0     C 7684  -1.702  11.323  10.160  0.3695 -0.1162  0.5719
   59MOL0     C 7685  -1.841  11.379  10.149  0.3462  0.0100  0.5986
   59MOL0     O 7686  -1.941  11.293  10.169  0.0626 -0.2116 -0.3130
   59MOL0     C 7687  -2.055  11.287  10.102  0.2687 -0.1696 -2.1378
   59MOL0     C 7688  -2.084  11.364   9.983 -0.4357  0.2217  0.4089
   59MOL0     C 7689  -2.206  11.361   9.918  0.0436 -0.1449  0.5135
   59MOL0     C 7690  -2.309  11.284   9.975  0.3779  0.1394 -0.2691
   59MOL0     O 7691  -2.427  11.277   9.901 -0.1823  0.5367 -0.3352
   59MOL0     C 7692  -2.533  11.198   9.950 -0.3833 -0.2751  0.5952
   59MOL0     C 7693  -2.665  11.189   9.869 -0.5042 -0.7481 -0.5626
   59MOL0     C 7694  -2.718  11.327   9.814  0.2995  0.8268  0.0626
   59MOL0     C 7695  -2.844  11.302   9.734  0.3564 -0.3658 -0.6800
   59MOL0     C 7696  -2.903  11.439   9.679  0.0332 -0.0225 -0.5065
   59MOL0     C 7697  -2.831  11.476   9.549  0.7223 -0.1186 -0.1896
   59MOL0     C 7698  -2.884  11.622   9.519 -0.8621  0.1762  0.5704
   59MOL0     C 7699  -2.798  11.672   9.402  0.5992  0.4725  0.2048
   59MOL0    Cl 7700  -2.858  11.837   9.360  0.0553  0.0633  0.1373
   59MOL0     C 7701  -2.289  11.197  10.089 -1.0479 -0.2856  0.9539
   59MOL0     C 7702  -2.160  11.205  10.155 -1.5730 -1.1095  1.2898
   59MOL0     O 7703  -1.848  11.491  10.100  0.5381  0.0250 -0.1499
   59MOL0     C 7704  -1.675  11.185  10.201  0.0721  0.2370  0.2268
   59MOL0     C 7705  -1.541  11.146  10.219 -0.9292 -0.5430 -1.3786
   59MOL0     N 7706  -0.923  10.676   9.949  0.4534  0.2443 -0.2363
   59MOL0     N 7707  -0.890  10.547   9.959  0.2792  0.2955 -0.4878
   59MOL0     C 7708   0.167   9.977  10.633 -0.8523  0.2628  0.4783
   59MOL0     C 7709   0.266   9.889  10.685  0.1077 -0.2206 -0.4815
   59MOL0     C 7710   0.363   9.437  10.769 -0.3621  0.7546 -0.1171
   59MOL0     C 7711   0.394   9.445  10.900 -0.2499 -0.0325 -0.8621
   59MOL0     C 7712   0.434   9.333  10.969  0.4268  0.2005 -0.7757
   59MOL0     C 7713   0.442   9.207  10.904  0.0872 -0.0001  0.5441
   59MOL0     O 7714   0.468   9.099  10.987 -0.6272  0.1899  0.4620
   59MOL0     C 7715   0.451   8.964  10.937 -0.6215  0.3882 -0.5055
   59MOL0     C 7716   0.586   8.921  10.863 -0.1280  0.2697  0.2700
   59MOL0     C 7717   0.554   8.815  10.754 -0.0866  0.2388  0.7153
   59MOL0     C 7718   0.511   8.676  10.814 -0.0752 -0.0690 -0.2205
   59MOL0     C 7719   0.606   8.607  10.904 -0.0205 -0.2392 -0.1612
   59MOL0     C 7720   0.685   8.548  10.976  0.3955 -0.2765  0.1375
   59MOL0     C 7721   0.413   9.195  10.761  0.9132 -0.1890 -0.7728
   59MOL0     C 7722   0.367   9.309  10.697 -0.0655 -0.4366 -0.0274
   59MOL0     H 7723   0.057   9.632  10.763 -0.6329 -0.4343 -1.3503
   59MOL0     H 7724  -0.114   9.803  10.677  0.5190  1.6628  0.4450
   59MOL0     H 7725  -0.234   9.965  10.584 -1.0678  0.8374 -0.0950
   59MOL0     H 7726  -0.146   9.918  10.429  1.7994 -0.2517  1.7762
   59MOL0     H 7727  -0.158  10.129  10.322 -2.6854  1.7548 -1.7180
   59MOL0     H 7728  -0.220  10.201  10.473  4.3596  1.5199 -1.1948
   59MOL0     H 7729  -0.422  10.042  10.426  0.9693  1.0109  0.6572
   59MOL0     H 7730  -0.337   9.990  10.278  0.2405 -2.5852  1.6191
   59MOL0     H 7731  -0.462  10.269  10.318 -0.3090 -0.3118 -0.1916
   59MOL0     H 7732  -0.336  10.227  10.203 -0.2702 -1.9301 -2.0399
   59MOL0     H 7733  -0.542  10.020  10.189  3.0963 -0.2450  1.0145
   59MOL0     H 7734  -0.491  10.137  10.068 -2.8357  2.7980 -1.2072
   59MOL0     H 7735  -0.714  10.179  10.275 -1.5476 -1.5865 -1.1571
   59MOL0     H 7736  -0.742  10.145  10.111 -0.9334  1.3409 -1.3727
   59MOL0     H 7737  -0.619  10.415  10.204  1.3342 -0.0275 -1.1670
   59MOL0     H 7738  -0.649  10.361  10.041  1.4942 -0.2459  0.0998
   59MOL0     H 7739  -0.877  10.370  10.242  1.4880  2.1553  0.6336
   59MOL0     H 7740  -0.884  10.307  10.072  0.6971 -0.0811 -0.2782
   59MOL0     H 7741  -0.869  10.657  10.276  0.8298  0.0427  0.7311
   59MOL0     H 7742  -0.935  10.936  10.028 -0.4177 -0.1549 -0.0210
   59MOL0     H 7743  -0.878  10.919  10.194 -0.6471 -0.6904  1.7637
   59MOL0     H 7744  -1.087  10.841  10.277  0.5253 -1.4813 -0.6560
   59MOL0     H 7745  -1.158  10.838  10.111 -1.9993 -1.0011  1.7612
   59MOL0     H 7746  -1.060  11.064  10.295 -3.3382 -0.9041  2.4646
   59MOL0     H 7747  -1.071  11.098  10.125  2.1444  0.5880  0.4920
   59MOL0     H 7748  -1.293  11.022  10.338  1.7399  1.1033  1.1712
   59MOL0     H 7749  -1.305  10.998  10.158  1.4341  0.2961 -1.6331
   59MOL0     H 7750  -1.376  11.431  10.162 -1.1385  0.8462  0.7605
   59MOL0     H 7751  -1.596  11.509  10.112  0.1708  0.0950  0.2019
   59MOL0     H 7752  -2.009  11.413   9.922 -1.8220 -0.9418 -2.3995
   59MOL0     H 7753  -2.222  11.413   9.824 -2.3859  0.4264  1.1679
   59MOL0     H 7754  -2.547  11.233  10.053  1.3642 -3.3685  2.0417
   59MOL0     H 7755  -2.491  11.097   9.958  0.2557  0.0140  0.9066
   59MOL0     H 7756  -2.740  11.142   9.934 -2.0136  2.0654 -0.1054
   59MOL0     H 7757  -2.648  11.119   9.787  1.2926  2.2621 -2.9952
   59MOL0     H 7758  -2.637  11.368   9.753  0.5575 -1.2005 -1.0430
   59MOL0     H 7759  -2.729  11.399   9.896 -0.9359  1.9639 -1.0747
   59MOL0     H 7760  -2.832  11.235   9.649 -2.0632 -1.8117  0.0027
   59MOL0     H 7761  -2.913  11.253   9.804 -1.1085  1.4255 -0.7683
   59MOL0     H 7762  -2.887  11.513   9.759  3.7313 -1.3399  0.1949
   59MOL0     H 7763  -3.011  11.445   9.661 -0.0489  4.8109  0.1259
   59MOL0     H 7764  -2.865  11.410   9.469 -2.4144  2.7781 -1.4700
   59MOL0     H 7765  -2.722  11.465   9.554  0.4413 -4.2064 -0.0429
   59MOL0     H 7766  -2.990  11.616   9.493 -0.3999 -1.5236 -1.1515
   59MOL0     H 7767  -2.882  11.681   9.611 -2.3336 -0.4645  1.0441
   59MOL0     H 7768  -2.807  11.599   9.321  0.6176  0.5806  0.1058
   59MOL0     H 7769  -2.691  11.687   9.422  0.4482  1.7388  0.1165
   59MOL0     H 7770  -2.365  11.150  10.150 -2.3406  2.7607  1.8926
   59MOL0     H 7771  -2.139  11.139  10.238  0.0226 -4.3151 -1.4437
   59MOL0     H 7772  -1.752  11.109  10.194  2.4485 -2.2267 -0.4885
   59MOL0     H 7773  -1.511  11.043  10.233 -1.0336 -0.3450  0.5946
   59MOL0     H 7774   0.198  10.079  10.611 -0.1797 -0.0941 -0.2716
   59MOL0     H 7775   0.368   9.916  10.710 -0.2405  0.2302  0.5030
   59MOL0     H 7776   0.396   9.529  10.968  2.2890 -0.2629 -0.5458
   59MOL0     H 7777   0.452   9.358  11.073 -1.5932  2.5510 -0.8887
   59MOL0     H 7778   0.358   8.952  10.882 -1.9909 -2.6810  2.1821
   59MOL0     H 7779   0.437   8.905  11.028  2.2542 -0.1867 -0.3268
   59MOL0     H 7780   0.638   9.004  10.813  2.8040 -1.0115  0.9793
   59MOL0     H 7781   0.665   8.880  10.926  0.5936  1.4385  0.1485
   59MOL0     H 7782   0.638   8.806  10.684 -0.1026  2.3097  0.3669
   59MOL0     H 7783   0.479   8.867  10.694  0.8055  0.5009 -0.2101
   59MOL0     H 7784   0.411   8.683  10.858  0.2329  1.0723  0.3320
   59MOL0     H 7785   0.479   8.620  10.726 -1.3516  3.8602 -2.4848
   59MOL0     H 7786   0.754   8.488  11.031  2.6989  1.7808 -0.3646
   59MOL0     H 7787   0.417   9.099  10.711  2.0594 -1.6956  1.9856
   59MOL0     H 7788   0.344   9.296  10.592  0.9452 -1.5021 -0.1377
   60MOL0     O 7789   3.421  11.017   6.083  0.3334 -1.0771  0.4188
   60MOL0     C 7790   3.445  10.984   6.195 -0.7154  0.1233 -0.5708
   60MOL0     O 7791   3.363  10.918   6.290 -0.4055  0.8401  0.3951
   60MOL0     C 7792   3.237  10.876   6.262  0.7070 -0.2525 -0.5124
   60MOL0     C 7793   3.159  10.829   6.365 -0.3675  0.8736 -0.1465
   60MOL0     C 7794   3.029  10.782   6.347  0.3918 -0.7439  0.3201
   60MOL0     C 7795   2.958  10.795   6.229  0.5688 -0.9701 -1.1604
   60MOL0     O 7796   2.828  10.763   6.211 -0.6439 -0.4277 -0.5088
   60MOL0     C 7797   2.771  10.652   6.290  0.8004  0.1891  0.3517
   60MOL0     C 7798   2.667  10.563   6.212 -0.3279  0.2636  0.1122
   60MOL0     C 7799   2.556  10.645   6.152 -0.1464  0.4166  0.6931
   60MOL0     C 7800   2.424  10.575   6.098  0.8567  0.3980  1.3353
   60MOL0     C 7801   2.310  10.551   6.204 -0.0299 -0.3316  0.0787
   60MOL0     C 7802   2.177  10.515   6.137 -1.1664 -0.9514  0.0094
   60MOL0     C 7803   2.065  10.482   6.231  0.1327  0.0477  0.7732
   60MOL0     C 7804   1.927  10.461   6.158  0.0805 -0.1132  0.0522
   60MOL0     N 7805   1.814  10.437   6.238  0.5602  0.3740 -0.1796
   60MOL0     C 7806   1.758  10.315   6.276  0.1844 -0.0850  0.4684
   60MOL0     C 7807   1.648  10.343   6.349 -0.4040  0.4936 -0.4486
   60MOL0     C 7808   1.538  10.245   6.397 -0.2809  0.2560  0.4245
   60MOL0     C 7809   1.397  10.312   6.400 -0.8488  0.3851 -0.3061
   60MOL0     C 7810   1.287  10.233   6.460 -0.0284 -0.0177  0.0552
   60MOL0     C 7811   1.152  10.298   6.451  0.4061 -0.2004 -0.5041
   60MOL0     O 7812   1.044  10.219   6.508 -0.8192 -0.1538  0.4745
   60MOL0     C 7813   0.923  10.270   6.543 -0.4981 -0.4247 -0.2179
   60MOL0     C 7814   0.808  10.184   6.522 -0.1337  0.1630 -0.5935
   60MOL0     C 7815   0.671  10.222   6.551 -0.6040 -0.8238 -0.6843
   60MOL0     C 7816   0.656  10.348   6.602  0.0591  0.1698 -0.4134
   60MOL0     C 7817   0.519  10.398   6.653 -0.1488  0.1394  1.2262
   60MOL0     O 7818   0.418  10.330   6.609  0.5346 -0.5257  0.4126
   60MOL0     C 7819   0.286  10.361   6.637 -0.2291  0.1056 -0.0873
   60MOL0     C 7820   0.200  10.365   6.532 -0.2690 -0.1210 -0.1089
   60MOL0     C 7821   0.057  10.368   6.554  0.1894  0.2329 -0.0452
   60MOL0     C 7822   0.003  10.353   6.681  0.5225 -0.1890  0.2491
   60MOL0     O 7823  -0.129  10.357   6.713 -0.4523 -0.4294  0.5214
   60MOL0     C 7824  -0.206  10.243   6.669 -0.4247 -0.0374  0.1409
   60MOL0     C 7825  -0.337  10.230   6.750 -1.2471 -0.7401  0.4542
   60MOL0     C 7826  -0.445  10.125   6.707 -0.4418 -0.8479  0.2524
   60MOL0     C 7827  -0.556  10.120   6.810  0.2920 -0.2834  0.2918
   60MOL0     C 7828  -0.704  10.104   6.756 -0.6789  0.3382 -0.2002
   60MOL0     C 7829  -0.733   9.984   6.654 -0.4306  0.4322  0.5926
   60MOL0     C 7830  -0.683   9.844   6.713 -0.1964 -1.0660  0.4892
   60MOL0     C 7831  -0.750   9.797   6.840 -0.9031  0.1318 -0.4882
   60MOL0    Cl 7832  -0.923   9.803   6.861 -0.1866 -0.0890  0.1021
   60MOL0     C 7833   0.098  10.353   6.786  0.2263 -0.0237  0.1633
   60MOL0     C 7834   0.238  10.347   6.766  0.5462 -0.7284  0.1935
   60MOL0     O 7835   0.507  10.509   6.707 -0.2455 -0.2000 -0.0507
   60MOL0     C 7836   0.764  10.440   6.623 -0.1511 -0.8119  0.2154
   60MOL0     C 7837   0.896  10.398   6.598 -0.2463  0.0511  0.4379
   60MOL0     N 7838   1.640  10.480   6.355  0.6180  0.0742  0.5408
   60MOL0     N 7839   1.734  10.538   6.291 -0.7179 -0.3019  0.2417
   60MOL0     C 7840   3.035  10.833   6.125  0.0052  0.0683 -0.1381
   60MOL0     C 7841   3.170  10.889   6.143 -0.1947  0.1577  0.6319
   60MOL0     C 7842   3.582  11.036   6.246  0.6004  0.3269 -0.7519
   60MOL0     C 7843   3.582  11.061   6.384  0.5091  0.5340  0.1107
   60MOL0     C 7844   3.700  11.112   6.439  0.3893 -0.5149 -0.2106
   60MOL0     C 7845   3.804  11.143   6.353 -0.2253 -0.0632 -0.2386
   60MOL0     O 7846   3.927  11.201   6.388  1.0936  0.4333 -0.5830
   60MOL0     C 7847   3.928  11.279   6.502  0.4325 -0.2131  0.0888
   60MOL0     C 7848   4.052  11.367   6.493 -0.1143 -0.1672  0.7042
   60MOL0     C 7849   4.074  11.457   6.620 -0.9214 -0.2850  0.0681
   60MOL0     C 7850   4.012  11.600   6.600  0.3175 -0.7606 -0.5027
   60MOL0     C 7851   3.877  11.612   6.632  0.7815  0.3329 -0.2557
   60MOL0     C 7852   3.754  11.619   6.643 -0.8199  0.4399 -0.2454
   60MOL0     C 7853   3.800  11.137   6.216  0.2105  0.3450  0.4027
   60MOL0     C 7854   3.680  11.086   6.163  0.8186  0.4103  0.4076
   60MOL0     H 7855   3.195  10.822   6.468 -2.1038  0.2915  0.4569
   60MOL0     H 7856   2.965  10.742   6.425 -2.2068  0.4197 -1.1075
   60MOL0     H 7857   2.723  10.700   6.376 -1.0873 -2.9756  1.2420
   60MOL0     H 7858   2.857  10.590   6.315  0.7661 -1.4454 -3.0180
   60MOL0     H 7859   2.635  10.478   6.272  3.6424 -2.5795 -1.3358
   60MOL0     H 7860   2.715  10.503   6.134  1.8519  1.2597  0.6061
   60MOL0     H 7861   2.602  10.705   6.072  1.1755 -0.4764  0.7491
   60MOL0     H 7862   2.529  10.718   6.228 -3.3369  1.8272 -1.5481
   60MOL0     H 7863   2.388  10.609   6.000 -1.2241 -2.4832  0.9686
   60MOL0     H 7864   2.466  10.475   6.082  2.6803  1.5893 -2.8818
   60MOL0     H 7865   2.303  10.649   6.254  2.3411 -0.6923  1.2700
   60MOL0     H 7866   2.318  10.474   6.281 -3.6954 -1.4614 -0.4911
   60MOL0     H 7867   2.192  10.443   6.056  3.8422  2.5675 -2.6913
   60MOL0     H 7868   2.156  10.608   6.083 -2.2163 -1.8267 -1.1398
   60MOL0     H 7869   2.081  10.390   6.288 -2.2052 -1.4536 -0.7976
   60MOL0     H 7870   2.051  10.567   6.298  0.7262  0.0053  0.9564
   60MOL0     H 7871   1.932  10.384   6.081 -2.6869 -0.7081  0.3882
   60MOL0     H 7872   1.898  10.553   6.107  1.5919 -0.0944 -0.8314
   60MOL0     H 7873   1.790  10.214   6.252 -2.2465 -0.2132 -2.9341
   60MOL0     H 7874   1.553  10.222   6.503 -4.6693  1.8978  1.6138
   60MOL0     H 7875   1.542  10.170   6.318 -1.4324 -0.5060  1.0661
   60MOL0     H 7876   1.367  10.355   6.304 -1.1981  2.3743  0.6330
   60MOL0     H 7877   1.420  10.393   6.469  1.0972 -0.5620  0.2217
   60MOL0     H 7878   1.279  10.136   6.411 -0.3162 -0.7263  1.4405
   60MOL0     H 7879   1.313  10.208   6.563 -0.9404 -1.5146 -0.0518
   60MOL0     H 7880   1.129  10.304   6.344 -0.7666 -1.7724 -0.3718
   60MOL0     H 7881   1.160  10.402   6.484 -1.3860  0.6212 -2.4607
   60MOL0     H 7882   0.829  10.079   6.503 -1.4812 -0.1366 -0.5113
   60MOL0     H 7883   0.587  10.161   6.519 -5.2377  3.7383  1.3814
   60MOL0     H 7884   0.235  10.344   6.432 -0.1716  0.4016 -0.1896
   60MOL0     H 7885  -0.019  10.375   6.476 -0.9970  0.1281  1.0679
   60MOL0     H 7886  -0.153  10.150   6.690 -3.4051 -1.8332  0.1982
   60MOL0     H 7887  -0.228  10.241   6.562 -2.0096 -0.4524  0.4498
   60MOL0     H 7888  -0.393  10.324   6.741 -2.2089 -1.2507  0.8621
   60MOL0     H 7889  -0.307  10.227   6.855  1.3847 -0.7180 -0.2334
   60MOL0     H 7890  -0.392  10.030   6.701  2.4616  0.6547  0.1649
   60MOL0     H 7891  -0.492  10.145   6.610  3.2790 -3.0212 -2.2653
   60MOL0     H 7892  -0.528  10.039   6.878 -0.1043 -0.6344  0.0439
   60MOL0     H 7893  -0.560  10.219   6.855 -0.7646 -0.4651  0.6283
   60MOL0     H 7894  -0.745  10.195   6.713 -2.5339 -0.6131 -0.5471
   60MOL0     H 7895  -0.765  10.078   6.842 -0.9805  2.5052  0.2902
   60MOL0     H 7896  -0.682  10.007   6.560  1.8255  1.2222  1.9225
   60MOL0     H 7897  -0.841   9.989   6.640 -0.3525  0.4598 -0.0386
   60MOL0     H 7898  -0.698   9.771   6.633 -2.0770  0.2281 -0.3915
   60MOL0     H 7899  -0.574   9.856   6.722 -0.1990 -1.5692  1.2797
   60MOL0     H 7900  -0.702   9.847   6.924 -1.1631  1.4017 -1.0697
   60MOL0     H 7901  -0.730   9.690   6.852 -2.2600 -0.4186 -2.6744
   60MOL0     H 7902   0.066  10.337   6.888 -0.7303  0.5785 -0.0283
   60MOL0     H 7903   0.302  10.351   6.854  0.7432 -3.1545  0.2292
   60MOL0     H 7904   0.745  10.534   6.675  1.3203 -2.3026  3.7433
   60MOL0     H 7905   0.987  10.457   6.609  0.4834 -0.1804 -3.1530
   60MOL0     H 7906   2.982  10.862   6.036  0.1564 -2.6287 -1.1946
   60MOL0     H 7907   3.206  10.937   6.052  2.1881 -1.2295  0.7563
   60MOL0     H 7908   3.507  11.029   6.456  2.4337 -0.0858  1.9388
   60MOL0     H 7909   3.708  11.110   6.547 -2.1005  2.7581  0.1772
   60MOL0     H 7910   3.917  11.219   6.592  1.4470 -1.0882 -0.3555
   60MOL0     H 7911   3.844  11.350   6.498  0.0011 -0.5803  1.9099
   60MOL0     H 7912   4.150  11.319   6.478 -0.1925 -0.5738  1.4445
   60MOL0     H 7913   4.033  11.432   6.407 -0.1687  0.7987  1.4450
   60MOL0     H 7914   4.180  11.464   6.647 -1.3454  0.1348  1.7220
   60MOL0     H 7915   4.019  11.421   6.707  1.4459 -1.0270  1.3625
   60MOL0     H 7916   4.063  11.677   6.659 -0.3222  0.2716 -1.2579
   60MOL0     H 7917   4.025  11.642   6.500  1.0931 -2.2607 -1.0521
   60MOL0     H 7918   3.650  11.634   6.664 -0.4255  2.3134  0.5691
   60MOL0     H 7919   3.876  11.175   6.149 -1.3309  2.5636 -0.1868
   60MOL0     H 7920   3.674  11.076   6.055  3.9814 -0.9425  0.2416
   61MOL0     O 7921   9.561   5.321   5.447  0.2829 -0.4647  0.1152
   61MOL0     C 7922   9.654   5.279   5.508  0.3435  0.8347  0.5844
   61MOL0     O 7923   9.638   5.175   5.597  0.0476  0.3655  0.0685
   61MOL0     C 7924   9.517   5.112   5.623 -0.1901 -0.2719  0.0067
   61MOL0     C 7925   9.397   5.116   5.549 -0.1216  0.2714 -1.3732
   61MOL0     C 7926   9.297   5.032   5.586 -0.9894  0.0471 -0.4166
   61MOL0     C 7927   9.299   4.940   5.687 -0.0883 -0.0950 -0.2043
   61MOL0     O 7928   9.182   4.869   5.705  0.4400 -0.1206  0.3120
   61MOL0     C 7929   9.146   4.842   5.836  0.8673  0.5004 -0.7301
   61MOL0     C 7930   9.009   4.780   5.833 -0.7806  0.3248  1.0671
   61MOL0     C 7931   8.890   4.872   5.787  0.4547  0.0587 -0.1505
   61MOL0     C 7932   8.759   4.791   5.807  0.0420 -0.8155  0.0093
   61MOL0     C 7933   8.632   4.874   5.745  0.0329  0.2807 -0.8284
   61MOL0     C 7934   8.588   4.999   5.815 -0.3300  0.8790  0.4079
   61MOL0     C 7935   8.558   4.975   5.956 -0.0262  0.1154  0.5379
   61MOL0     C 7936   8.456   5.073   6.015 -0.0604  0.5252 -0.3700
   61MOL0     N 7937   8.313   5.083   5.979 -0.4257 -0.4038 -0.2695
   61MOL0     C 7938   8.214   5.110   6.067 -0.4837  0.1788  0.5194
   61MOL0     C 7939   8.098   5.105   5.992  0.4865 -0.4494 -0.5587
   61MOL0     C 7940   7.969   5.167   6.035 -0.3809  0.0693 -0.7738
   61MOL0     C 7941   7.877   5.057   6.100 -0.1129 -0.2112 -0.9771
   61MOL0     C 7942   7.750   5.106   6.179 -0.0710  0.0120  0.0933
   61MOL0     C 7943   7.668   5.197   6.086  0.7802  0.7493 -0.5152
   61MOL0     O 7944   7.725   5.328   6.101  0.4002 -0.1712  0.6090
   61MOL0     C 7945   7.658   5.437   6.043 -0.1219  1.1466 -0.1790
   61MOL0     C 7946   7.710   5.563   6.070 -0.0866 -0.0592 -1.4416
   61MOL0     C 7947   7.647   5.675   6.028  0.3598  0.7908  0.8854
   61MOL0     C 7948   7.535   5.667   5.949  0.8193  0.7210 -0.0598
   61MOL0     C 7949   7.477   5.794   5.898  0.0613  0.2620  0.6781
   61MOL0     O 7950   7.398   5.785   5.788  0.8339  0.6451  0.0547
   61MOL0     C 7951   7.321   5.892   5.746 -0.6352  0.2597 -0.2858
   61MOL0     C 7952   7.187   5.869   5.727  0.5883 -1.3921  0.1204
   61MOL0     C 7953   7.100   5.982   5.678 -0.0387 -0.0003 -0.0561
   61MOL0     C 7954   7.156   6.109   5.651  0.2330  0.2491 -0.4049
   61MOL0     O 7955   7.087   6.212   5.596 -0.5459 -0.1862  0.5187
   61MOL0     C 7956   6.957   6.187   5.560  0.6742 -0.5116  0.1679
   61MOL0     C 7957   6.912   6.323   5.491  0.2216  0.0683  0.0874
   61MOL0     C 7958   6.783   6.308   5.406  0.3223  0.0681  0.0987
   61MOL0     C 7959   6.658   6.283   5.495 -0.3828  0.2400  0.3366
   61MOL0     C 7960   6.547   6.384   5.467  0.0574 -0.2498 -0.0589
   61MOL0     C 7961   6.491   6.364   5.328 -0.0202 -1.1681 -0.3191
   61MOL0     C 7962   6.378   6.462   5.308  0.3591 -0.0348 -0.1046
   61MOL0     C 7963   6.233   6.411   5.333 -0.2526 -0.1272  0.6183
   61MOL0    Cl 7964   6.126   6.546   5.349  0.0773 -0.4687  0.3149
   61MOL0     C 7965   7.299   6.124   5.683  0.2278  0.1708  0.4234
   61MOL0     C 7966   7.381   6.020   5.723  0.5794  1.1244  0.9860
   61MOL0     O 7967   7.512   5.905   5.953 -0.2162 -0.2663  0.5742
   61MOL0     C 7968   7.478   5.540   5.919 -0.5364 -0.6957  0.3283
   61MOL0     C 7969   7.540   5.426   5.973  0.1549  0.1749 -0.4810
   61MOL0     N 7970   8.127   5.074   5.867 -0.1047  0.3231  0.1666
   61MOL0     N 7971   8.256   5.068   5.854  0.0157  0.3155 -0.1298
   61MOL0     C 7972   9.419   4.937   5.768  0.8509 -0.0353  0.3835
   61MOL0     C 7973   9.528   5.024   5.734  0.3878  0.5839  0.1352
   61MOL0     C 7974   9.786   5.342   5.492 -0.5383  1.0170 -0.4505
   61MOL0     C 7975   9.880   5.309   5.587 -0.8285  0.4263  0.4593
   61MOL0     C 7976  10.011   5.363   5.567 -0.6129  0.2531  0.3785
   61MOL0     C 7977  10.050   5.457   5.464 -0.2381  0.6458 -0.7358
   61MOL0     O 7978  10.178   5.514   5.441 -0.2755  0.7890 -0.1399
   61MOL0     C 7979  10.272   5.506   5.552  0.8074  0.3796  1.0149
   61MOL0     C 7980  10.387   5.604   5.523  0.0259 -0.0698  0.6599
   61MOL0     C 7981  10.497   5.610   5.630 -0.7008  0.0129  1.3411
   61MOL0     C 7982  10.600   5.719   5.578  0.9353 -0.8051 -0.8820
   61MOL0     C 7983  10.709   5.720   5.671  0.8163  0.0674 -0.4529
   61MOL0     C 7984  10.811   5.710   5.737  0.2995 -0.4533 -0.1429
   61MOL0     C 7985   9.959   5.479   5.366 -0.2532 -0.3248 -0.6485
   61MOL0     C 7986   9.827   5.426   5.380 -0.0927 -0.0410  0.0229
   61MOL0     H 7987   9.374   5.172   5.459 -1.9538  0.1754 -0.9916
   61MOL0     H 7988   9.199   5.035   5.540 -0.5194  1.6021 -1.4089
   61MOL0     H 7989   9.143   4.929   5.903  0.7424 -0.2796  0.3104
   61MOL0     H 7990   9.213   4.770   5.884  1.1966 -0.1842 -2.1661
   61MOL0     H 7991   8.972   4.729   5.922 -1.1690  1.2540  1.4529
   61MOL0     H 7992   9.018   4.698   5.762  0.6473 -0.3288  1.9602
   61MOL0     H 7993   8.906   4.890   5.680 -1.2801 -0.5972 -0.5583
   61MOL0     H 7994   8.899   4.965   5.844  0.0537  1.8988 -2.8898
   61MOL0     H 7995   8.755   4.699   5.748 -2.2371  0.0243 -1.2299
   61MOL0     H 7996   8.757   4.757   5.911 -0.5856  0.0773  0.2925
   61MOL0     H 7997   8.545   4.808   5.750 -0.3363  0.8250  0.2693
   61MOL0     H 7998   8.658   4.894   5.641 -0.7163 -1.2576 -1.3460
   61MOL0     H 7999   8.503   5.025   5.752 -1.4418  0.5451  1.7346
   61MOL0     H 8000   8.675   5.066   5.815  3.0987 -3.1230  0.5862
   61MOL0     H 8001   8.518   4.877   5.985  0.5314 -0.4906 -0.6617
   61MOL0     H 8002   8.651   4.958   6.010 -1.0916 -1.1425  2.0972
   61MOL0     H 8003   8.493   5.175   6.002  1.3330 -0.0255 -1.0252
   61MOL0     H 8004   8.468   5.056   6.122  2.0332  1.1118 -0.4521
   61MOL0     H 8005   8.217   5.132   6.173 -0.2449  0.4812  0.4505
   61MOL0     H 8006   7.916   5.210   5.950 -0.3025  0.4240 -0.6424
   61MOL0     H 8007   7.992   5.256   6.094  0.0346 -0.3921 -0.2298
   61MOL0     H 8008   7.940   5.010   6.176  0.5573 -0.0558 -1.4326
   61MOL0     H 8009   7.848   4.979   6.029 -2.9773 -0.0669 -0.1007
   61MOL0     H 8010   7.695   5.016   6.210 -0.9529  0.1986 -0.8981
   61MOL0     H 8011   7.771   5.157   6.273 -3.9000  0.5496  0.8344
   61MOL0     H 8012   7.565   5.182   6.120  1.9967 -1.4442  2.7600
   61MOL0     H 8013   7.670   5.168   5.981 -2.2592  0.2210 -0.4958
   61MOL0     H 8014   7.802   5.560   6.128  0.1538 -2.4954 -1.8532
   61MOL0     H 8015   7.696   5.769   6.051  0.3303  0.9303  0.3918
   61MOL0     H 8016   7.141   5.771   5.736 -0.8458 -0.7381  0.2716
   61MOL0     H 8017   6.999   5.960   5.645  0.7174 -0.5325 -2.1746
   61MOL0     H 8018   6.893   6.170   5.648  0.2401 -1.3355 -0.2949
   61MOL0     H 8019   6.959   6.100   5.493  4.8052 -1.9113  1.7943
   61MOL0     H 8020   6.992   6.334   5.418 -0.2953 -4.9108 -1.6237
   61MOL0     H 8021   6.901   6.408   5.559  1.5042 -0.8776  1.5534
   61MOL0     H 8022   6.789   6.234   5.326  1.6856  1.1198 -0.8218
   61MOL0     H 8023   6.778   6.407   5.362 -1.8938 -0.5386 -1.1649
   61MOL0     H 8024   6.616   6.182   5.497  0.9624 -0.4178 -1.7217
   61MOL0     H 8025   6.698   6.299   5.596  0.5815 -2.9535  0.5706
   61MOL0     H 8026   6.596   6.479   5.486  0.1118 -0.5579  1.4583
   61MOL0     H 8027   6.467   6.372   5.541 -0.2502  0.3715 -0.2804
   61MOL0     H 8028   6.456   6.260   5.323 -2.3979 -0.3860 -1.0963
   61MOL0     H 8029   6.571   6.382   5.256 -0.7210  0.8034 -0.6588
   61MOL0     H 8030   6.381   6.553   5.370  1.8050  0.5795 -1.0352
   61MOL0     H 8031   6.384   6.500   5.206 -0.8100 -1.8911 -0.9178
   61MOL0     H 8032   6.223   6.333   5.409 -0.2780 -1.1241 -0.3754
   61MOL0     H 8033   6.209   6.359   5.240  0.0321 -0.0071  0.4787
   61MOL0     H 8034   7.342   6.224   5.686 -1.5732  0.9831  0.1951
   61MOL0     H 8035   7.484   6.035   5.751  0.5800  1.1598  0.9651
   61MOL0     H 8036   7.397   5.527   5.848 -2.0145  2.5994  1.2518
   61MOL0     H 8037   7.497   5.332   5.940  2.8990 -1.6124  0.6558
   61MOL0     H 8038   9.427   4.871   5.854 -0.2952  0.4842  0.9090
   61MOL0     H 8039   9.623   5.026   5.788  1.6733 -0.8792 -1.9126
   61MOL0     H 8040   9.864   5.247   5.675 -2.9188  0.2997  0.0450
   61MOL0     H 8041  10.084   5.335   5.641 -0.1075 -0.1482 -0.2660
   61MOL0     H 8042  10.307   5.404   5.567 -0.5329 -0.3877 -0.6860
   61MOL0     H 8043  10.222   5.550   5.639 -2.9232 -3.6174  1.2672
   61MOL0     H 8044  10.433   5.569   5.430 -2.3549  0.0065 -0.6155
   61MOL0     H 8045  10.342   5.703   5.506 -0.1389 -0.2636 -0.0512
   61MOL0     H 8046  10.547   5.513   5.640  0.9010  0.7173  0.4966
   61MOL0     H 8047  10.441   5.640   5.720 -1.5152 -3.8669  2.3104
   61MOL0     H 8048  10.635   5.695   5.477  1.2218  0.8305 -1.1887
   61MOL0     H 8049  10.560   5.820   5.573  4.5525  0.7682 -0.8150
   61MOL0     H 8050  10.890   5.708   5.810  0.0938 -2.9763  0.0983
   61MOL0     H 8051   9.985   5.525   5.272  0.7951 -1.9907 -1.2031
   61MOL0     H 8052   9.764   5.440   5.293 -2.1727 -4.3196  0.6046
   62MOL0     O 8053   2.809   5.398   1.768 -0.1957  0.3712 -0.0047
   62MOL0     C 8054   2.757   5.494   1.706 -0.2975  1.0670  0.0530
   62MOL0     O 8055   2.625   5.503   1.671 -0.3471  0.3729  0.6961
   62MOL0     C 8056   2.531   5.414   1.714  0.1845  0.2633  0.3262
   62MOL0     C 8057   2.422   5.398   1.632  0.0505  0.1071  0.8549
   62MOL0     C 8058   2.315   5.308   1.657  0.5052  0.1576 -0.0235
   62MOL0     C 8059   2.320   5.235   1.776 -0.2912  0.2642 -0.3637
   62MOL0     O 8060   2.221   5.146   1.797 -0.4714 -0.3692  0.6604
   62MOL0     C 8061   2.110   5.190   1.873  0.4525  0.3371 -0.2565
   62MOL0     C 8062   1.969   5.160   1.806  0.1231  0.0520  0.3746
   62MOL0     C 8063   1.949   5.010   1.821 -0.0375  0.6369 -0.3171
   62MOL0     C 8064   1.837   4.959   1.731  0.2332  0.0759 -0.8375
   62MOL0     C 8065   1.702   5.027   1.767  1.0373 -0.3873  0.3417
   62MOL0     C 8066   1.652   4.991   1.907 -0.4965  0.1149  0.1955
   62MOL0     C 8067   1.516   5.060   1.937 -0.7149  0.5068  0.2663
   62MOL0     C 8068   1.395   4.969   1.888  0.4385 -0.5158 -0.2375
   62MOL0     N 8069   1.282   5.058   1.883  0.3468 -0.1329 -0.3016
   62MOL0     C 8070   1.257   5.164   1.963 -0.9506 -0.3100 -0.1771
   62MOL0     C 8071   1.139   5.213   1.931  0.7874  0.2133  0.2088
   62MOL0     C 8072   1.054   5.323   1.992  0.6614  0.0909  0.9417
   62MOL0     C 8073   0.911   5.266   2.036  0.0739  0.3577  0.0940
   62MOL0     C 8074   0.830   5.362   2.121 -0.2226  0.2615 -0.3471
   62MOL0     C 8075   0.681   5.336   2.117 -0.8883  0.7844  0.0567
   62MOL0     O 8076   0.639   5.205   2.150  0.3047 -0.2787 -0.1059
   62MOL0     C 8077   0.541   5.152   2.064 -0.2978 -0.7104 -0.4323
   62MOL0     C 8078   0.552   5.036   1.993  0.0418 -0.0940  0.1251
   62MOL0     C 8079   0.449   4.981   1.908 -0.2635  0.0916  0.2216
   62MOL0     C 8080   0.326   5.043   1.901 -0.3155  0.1719  0.2074
   62MOL0     C 8081   0.215   4.987   1.828 -0.2088  0.2471 -0.2303
   62MOL0     O 8082   0.205   4.848   1.840 -0.0910 -0.7369  0.8375
   62MOL0     C 8083   0.097   4.795   1.787 -0.0121 -0.7437  0.1485
   62MOL0     C 8084   0.115   4.713   1.672  0.1626  0.2652  0.1353
   62MOL0     C 8085   0.001   4.651   1.619  0.1407  0.3426 -0.4825
   62MOL0     C 8086  -0.128   4.653   1.682 -0.6506 -0.0193  0.0598
   62MOL0     O 8087  -0.240   4.587   1.644  0.4673 -0.2694 -0.7627
   62MOL0     C 8088  -0.227   4.485   1.549  0.9464 -1.1187 -0.4312
   62MOL0     C 8089  -0.369   4.443   1.517  0.2680  0.5586 -0.0501
   62MOL0     C 8090  -0.447   4.545   1.429 -0.0671  0.7912  0.1241
   62MOL0     C 8091  -0.586   4.491   1.426  0.4322  0.6403 -0.1654
   62MOL0     C 8092  -0.678   4.595   1.359 -0.0675  0.5683  0.4322
   62MOL0     C 8093  -0.818   4.532   1.314 -0.5132  0.1232 -0.5659
   62MOL0     C 8094  -0.924   4.609   1.387  1.0154  0.4273 -0.8162
   62MOL0     C 8095  -1.057   4.549   1.351  0.2822  0.0403 -0.2807
   62MOL0    Cl 8096  -1.184   4.640   1.443  0.0725  0.4773 -0.3237
   62MOL0     C 8097  -0.141   4.736   1.794  0.4219 -0.0363 -0.3637
   62MOL0     C 8098  -0.030   4.811   1.839  0.1203 -0.1062  0.2476
   62MOL0     O 8099   0.130   5.061   1.780 -0.4427 -0.6427 -0.3080
   62MOL0     C 8100   0.316   5.167   1.971 -0.0270  0.3437 -0.1814
   62MOL0     C 8101   0.426   5.214   2.043  0.1384 -0.4510  0.4848
   62MOL0     N 8102   1.096   5.138   1.814  0.3219 -0.1431 -0.8538
   62MOL0     N 8103   1.182   5.044   1.793  0.5918 -0.9813  0.9212
   62MOL0     C 8104   2.421   5.253   1.868 -0.0343 -0.8371  0.3196
   62MOL0     C 8105   2.532   5.344   1.838  0.5417  0.5250  0.4123
   62MOL0     C 8106   2.856   5.581   1.647 -0.5583  0.1662 -0.9708
   62MOL0     C 8107   2.996   5.565   1.671 -0.0525 -1.3499 -0.2790
   62MOL0     C 8108   3.099   5.641   1.612 -0.2825 -0.1995  0.2796
   62MOL0     C 8109   3.059   5.749   1.538  0.1228 -0.3559  0.5580
   62MOL0     O 8110   3.135   5.841   1.469  0.3412 -0.7071  0.0062
   62MOL0     C 8111   3.279   5.825   1.466 -0.7346  0.8917 -0.4440
   62MOL0     C 8112   3.322   5.709   1.392 -0.5540  0.0174  0.6872
   62MOL0     C 8113   3.261   5.710   1.255 -0.4973  0.4982  0.5541
   62MOL0     C 8114   3.304   5.593   1.162 -0.2219 -0.1067 -0.4934
   62MOL0     C 8115   3.443   5.569   1.142 -0.1278 -0.1308  0.2355
   62MOL0     C 8116   3.560   5.566   1.112  0.0410 -0.0033 -0.0479
   62MOL0     C 8117   2.920   5.776   1.525 -0.7467  0.0150  0.3515
   62MOL0     C 8118   2.822   5.689   1.572  0.3461 -0.2392 -0.3073
   62MOL0     H 8119   2.427   5.449   1.536 -1.7056 -0.4250  0.4444
   62MOL0     H 8120   2.239   5.312   1.579  1.1520  1.5697 -0.6122
   62MOL0     H 8121   2.109   5.298   1.886  2.8732  0.6979 -2.3173
   62MOL0     H 8122   2.116   5.151   1.976 -0.2387 -0.4214 -0.4902
   62MOL0     H 8123   1.957   5.183   1.700  0.1124 -2.3061 -0.1805
   62MOL0     H 8124   1.887   5.206   1.861 -1.4699  0.3767 -2.1235
   62MOL0     H 8125   1.946   4.991   1.928 -1.2481  0.8371 -0.3071
   62MOL0     H 8126   2.029   4.951   1.774 -2.5171 -4.4599  1.1369
   62MOL0     H 8127   1.871   4.966   1.628  0.1494 -0.3191 -0.8925
   62MOL0     H 8128   1.818   4.852   1.744 -0.2830  0.0170 -1.9592
   62MOL0     H 8129   1.623   5.002   1.696  0.2956  0.2354  0.9191
   62MOL0     H 8130   1.717   5.134   1.750 -0.6928 -0.1176  0.3398
   62MOL0     H 8131   1.726   5.020   1.982 -2.1614 -1.1011  2.4174
   62MOL0     H 8132   1.652   4.884   1.926  1.4219  0.0630  0.1039
   62MOL0     H 8133   1.508   5.068   2.046 -1.9872 -1.8191  0.4083
   62MOL0     H 8134   1.527   5.163   1.904  2.8654  0.8123  1.9749
   62MOL0     H 8135   1.376   4.887   1.958 -0.2419 -0.7465 -0.6823
   62MOL0     H 8136   1.405   4.945   1.782 -3.7129  1.3666 -1.2276
   62MOL0     H 8137   1.330   5.201   2.035  0.5778 -0.2151 -1.7187
   62MOL0     H 8138   1.031   5.403   1.922  0.5406  1.5200  2.5315
   62MOL0     H 8139   1.105   5.367   2.079  1.5001  0.4244  0.2915
   62MOL0     H 8140   0.929   5.178   2.099  0.8136  0.8484  0.5705
   62MOL0     H 8141   0.847   5.237   1.951 -2.6062 -1.0777  2.4224
   62MOL0     H 8142   0.874   5.357   2.220  1.2569  1.4255 -0.9122
   62MOL0     H 8143   0.850   5.461   2.079  1.0621 -0.6897 -2.1408
   62MOL0     H 8144   0.646   5.349   2.014 -0.7488 -0.6928 -0.1907
   62MOL0     H 8145   0.633   5.400   2.192  1.2494  3.0358 -0.3423
   62MOL0     H 8146   0.639   4.973   2.007 -0.6536 -1.2219 -0.4338
   62MOL0     H 8147   0.486   4.886   1.868  1.5021  0.5516  0.6605
   62MOL0     H 8148   0.211   4.690   1.627 -0.6737 -0.7282 -1.2162
   62MOL0     H 8149   0.027   4.581   1.539  1.0466 -0.1004  0.1849
   62MOL0     H 8150  -0.168   4.401   1.588  1.0939 -1.5972 -1.6434
   62MOL0     H 8151  -0.174   4.523   1.462 -0.1619  0.0071 -0.6367
   62MOL0     H 8152  -0.429   4.432   1.608  1.5009  0.0138  0.7096
   62MOL0     H 8153  -0.365   4.345   1.469 -0.2377 -0.6420  2.2158
   62MOL0     H 8154  -0.416   4.537   1.324  0.6767 -3.0539  0.4791
   62MOL0     H 8155  -0.442   4.640   1.483  2.2601 -0.0439  1.5230
   62MOL0     H 8156  -0.574   4.396   1.374  0.6892 -0.7448  2.2935
   62MOL0     H 8157  -0.630   4.459   1.521 -0.1067 -0.2522 -0.6995
   62MOL0     H 8158  -0.631   4.634   1.268 -0.9217  2.2060  0.6639
   62MOL0     H 8159  -0.683   4.680   1.427  2.2275  1.5650 -0.5495
   62MOL0     H 8160  -0.818   4.426   1.338  0.7137  0.4533  1.1002
   62MOL0     H 8161  -0.830   4.539   1.206  1.0692 -0.8289 -0.8294
   62MOL0     H 8162  -0.912   4.596   1.495 -0.6296 -1.0172 -0.7655
   62MOL0     H 8163  -0.926   4.710   1.346 -1.7681  0.5040 -0.6646
   62MOL0     H 8164  -1.055   4.447   1.392 -0.0401 -0.3710 -1.2692
   62MOL0     H 8165  -1.075   4.558   1.244 -1.1801  1.2634  0.0417
   62MOL0     H 8166  -0.242   4.739   1.836 -0.3244 -3.7420 -1.4983
   62MOL0     H 8167  -0.037   4.888   1.916  0.7345  2.2951 -1.9682
   62MOL0     H 8168   0.224   5.225   1.977 -0.7584 -0.7823 -0.2573
   62MOL0     H 8169   0.411   5.313   2.084 -0.6869 -0.1592 -0.4578
   62MOL0     H 8170   2.419   5.196   1.961 -1.2514 -1.6543 -0.1822
   62MOL0     H 8171   2.606   5.357   1.916 -0.2477 -2.1587  1.7044
   62MOL0     H 8172   3.030   5.488   1.739  1.2199  0.0982  0.8050
   62MOL0     H 8173   3.203   5.623   1.636  0.8027  3.0886 -1.4262
   62MOL0     H 8174   3.314   5.817   1.569 -2.7800  2.0803  0.4005
   62MOL0     H 8175   3.317   5.920   1.428 -0.1812  0.4920 -0.8972
   62MOL0     H 8176   3.431   5.714   1.389 -0.4514 -1.7013 -1.3478
   62MOL0     H 8177   3.305   5.612   1.440  4.2877 -1.7003 -0.4638
   62MOL0     H 8178   3.296   5.805   1.213  3.5508 -0.3503  1.5918
   62MOL0     H 8179   3.152   5.700   1.258 -0.5438 -0.0529 -1.3472
   62MOL0     H 8180   3.245   5.504   1.187  0.6643 -0.3845  0.6998
   62MOL0     H 8181   3.277   5.634   1.065  1.2485  1.4513 -0.2972
   62MOL0     H 8182   3.657   5.566   1.067  0.2028  1.8637  0.2134
   62MOL0     H 8183   2.892   5.855   1.456 -0.3699 -0.2425 -0.1083
   62MOL0     H 8184   2.719   5.718   1.555  0.2978  0.3294  0.8418
   63MOL0     O 8185   9.061   1.233   7.741  0.6748  0.2289 -0.1348
   63MOL0     C 8186   9.134   1.227   7.836  0.3131  0.8211  0.2700
   63MOL0     O 8187   9.096   1.191   7.969 -0.1818 -0.2972  0.3879
   63MOL0     C 8188   8.961   1.164   8.005 -0.1121 -0.2870  0.7777
   63MOL0     C 8189   8.956   1.120   8.136 -0.1133 -0.1102 -0.7451
   63MOL0     C 8190   8.837   1.093   8.197  1.2497  0.9716  0.3185
   63MOL0     C 8191   8.714   1.083   8.127  0.2833 -0.0173  0.0005
   63MOL0     O 8192   8.603   1.017   8.179 -0.4401  0.2324 -0.0588
   63MOL0     C 8193   8.477   1.069   8.168  0.1814  0.1518 -0.7024
   63MOL0     C 8194   8.392   0.946   8.219 -0.0353  0.6053 -0.1565
   63MOL0     C 8195   8.241   0.990   8.250 -0.3543 -0.1593 -0.2538
   63MOL0     C 8196   8.158   0.872   8.281  0.5966  0.2421  0.5176
   63MOL0     C 8197   8.048   0.899   8.382 -1.1363 -0.2316  0.2603
   63MOL0     C 8198   7.980   0.775   8.447 -0.5870  0.3574 -0.5412
   63MOL0     C 8199   7.896   0.692   8.345 -0.3029 -0.7587 -0.3688
   63MOL0     C 8200   7.775   0.768   8.287  0.8100 -0.0572 -0.5526
   63MOL0     N 8201   7.662   0.819   8.373 -0.3837 -0.3935  0.4064
   63MOL0     C 8202   7.571   0.745   8.446  0.0180  0.3131 -0.3515
   63MOL0     C 8203   7.506   0.841   8.517 -0.3849 -0.1914  0.8172
   63MOL0     C 8204   7.409   0.817   8.624 -0.5513  0.4894  0.2976
   63MOL0     C 8205   7.269   0.796   8.565  0.7722  0.3860  0.0225
   63MOL0     C 8206   7.150   0.888   8.623 -0.5241 -0.1894 -0.3727
   63MOL0     C 8207   7.135   0.867   8.775  1.1103 -0.2836  0.4067
   63MOL0     O 8208   7.000   0.839   8.811  0.5128 -0.1892 -0.5722
   63MOL0     C 8209   6.977   0.702   8.835  0.0881 -0.3439 -0.7704
   63MOL0     C 8210   7.037   0.646   8.949  0.8174 -0.2001 -0.5614
   63MOL0     C 8211   7.024   0.504   8.967  0.0449 -0.7966  0.2929
   63MOL0     C 8212   6.943   0.426   8.886 -0.0738 -0.7743  0.6584
   63MOL0     C 8213   6.926   0.287   8.909 -0.1414 -0.4218 -0.2123
   63MOL0     O 8214   6.829   0.227   8.832  0.1413  0.0375 -0.4026
   63MOL0     C 8215   6.811   0.090   8.852 -0.1577 -0.4903 -0.2099
   63MOL0     C 8216   6.888   0.003   8.787 -0.5102  1.2060 -0.2332
   63MOL0     C 8217   6.885  -0.136   8.832  0.8042  0.2438  0.0809
   63MOL0     C 8218   6.787  -0.179   8.921 -1.0001 -0.5288  0.1944
   63MOL0     O 8219   6.813  -0.305   8.970  0.0804  0.1824 -0.1125
   63MOL0     C 8220   6.707  -0.374   9.041 -0.0179 -0.3464 -1.1071
   63MOL0     C 8221   6.764  -0.513   9.071 -0.5268 -0.6640 -0.1901
   63MOL0     C 8222   6.896  -0.500   9.141  0.1603 -0.1139  0.5827
   63MOL0     C 8223   6.932  -0.643   9.192 -0.1149 -0.8395 -0.0874
   63MOL0     C 8224   7.076  -0.648   9.260  0.8749  0.3632 -1.1444
   63MOL0     C 8225   7.193  -0.589   9.187 -0.3069 -0.0319 -0.2989
   63MOL0     C 8226   7.227  -0.657   9.059 -0.3636  0.1016 -0.7201
   63MOL0     C 8227   7.367  -0.622   9.001  0.1798  1.1844 -0.7168
   63MOL0    Cl 8228   7.348  -0.455   8.949  0.3167  0.3654 -0.3609
   63MOL0     C 8229   6.690  -0.086   8.968 -0.2425  0.4856 -0.7732
   63MOL0     C 8230   6.704   0.050   8.934 -0.6104  0.9082 -0.1631
   63MOL0     O 8231   7.000   0.220   8.989  0.4362  0.0122 -0.2835
   63MOL0     C 8232   6.874   0.490   8.786  0.2056  0.1044  0.3593
   63MOL0     C 8233   6.895   0.629   8.756  0.5439  0.5307  0.0010
   63MOL0     N 8234   7.554   0.965   8.488 -0.2070 -0.4350 -0.5857
   63MOL0     N 8235   7.654   0.952   8.408 -0.1501  0.1736 -0.2016
   63MOL0     C 8236   8.716   1.127   7.996 -0.3508 -0.2199  1.1992
   63MOL0     C 8237   8.838   1.159   7.928 -0.1516  0.1108 -0.5598
   63MOL0     C 8238   9.278   1.264   7.810 -0.4961 -0.3964  0.2979
   63MOL0     C 8239   9.320   1.313   7.682 -0.3701 -0.2415 -0.0590
   63MOL0     C 8240   9.450   1.353   7.649  0.4483  0.0718 -0.5582
   63MOL0     C 8241   9.549   1.331   7.739 -0.0681 -0.0698 -0.1359
   63MOL0     O 8242   9.681   1.353   7.710  0.3453 -0.1363 -0.4554
   63MOL0     C 8243   9.734   1.400   7.585 -0.1255  0.3155  0.0183
   63MOL0     C 8244   9.799   1.534   7.589  0.1196 -0.2899 -0.6070
   63MOL0     C 8245   9.919   1.541   7.685  0.8088  0.1576  0.0793
   63MOL0     C 8246   9.981   1.673   7.678 -0.6160 -0.3776 -0.2431
   63MOL0     C 8247   9.896   1.765   7.758 -0.2504 -0.2102 -0.7239
   63MOL0     C 8248   9.802   1.829   7.805 -0.3868 -0.7969  0.6392
   63MOL0     C 8249   9.512   1.296   7.869 -0.0802  0.2467 -0.4198
   63MOL0     C 8250   9.375   1.253   7.900 -1.1652 -0.3000 -0.4475
   63MOL0     H 8251   9.053   1.124   8.186 -0.2377 -3.4566 -0.0033
   63MOL0     H 8252   8.824   1.046   8.294 -1.1358  0.6039 -0.1111
   63MOL0     H 8253   8.454   1.106   8.067 -0.1154  0.8902 -0.3662
   63MOL0     H 8254   8.450   1.143   8.244 -0.1366 -0.2468 -0.4243
   63MOL0     H 8255   8.428   0.894   8.308 -1.0633 -1.6693 -1.0072
   63MOL0     H 8256   8.396   0.878   8.134  1.3483  0.5709 -0.0821
   63MOL0     H 8257   8.212   1.054   8.167  1.0247 -0.9411 -1.3787
   63MOL0     H 8258   8.260   1.057   8.335 -3.1967  1.0843 -0.4867
   63MOL0     H 8259   8.100   0.855   8.189 -0.0537 -1.3250  1.1772
   63MOL0     H 8260   8.209   0.780   8.311 -1.4492 -1.1708 -0.1093
   63MOL0     H 8261   7.980   0.966   8.328 -0.5901 -0.9551 -1.4069
   63MOL0     H 8262   8.101   0.953   8.461  0.9672 -2.2895  0.3847
   63MOL0     H 8263   7.932   0.814   8.538  2.0387  0.1944  1.0140
   63MOL0     H 8264   8.060   0.715   8.490 -0.1989  1.0260 -0.3044
   63MOL0     H 8265   7.966   0.663   8.267  1.4784 -3.9214  2.1334
   63MOL0     H 8266   7.865   0.597   8.391  0.3496 -0.7820  0.0443
   63MOL0     H 8267   7.740   0.697   8.211  0.0535 -1.3591  0.9553
   63MOL0     H 8268   7.815   0.848   8.224  0.9804 -1.8651 -2.8901
   63MOL0     H 8269   7.554   0.638   8.455 -2.6548  0.7732  1.1364
   63MOL0     H 8270   7.405   0.911   8.680 -1.9005  0.6575 -0.0437
   63MOL0     H 8271   7.439   0.737   8.691  0.4767  0.9562  0.4150
   63MOL0     H 8272   7.232   0.694   8.575  0.1755  0.5535 -0.4464
   63MOL0     H 8273   7.271   0.810   8.456  1.0570 -0.3916 -0.0812
   63MOL0     H 8274   7.166   0.995   8.610 -0.8827 -0.3733 -2.7696
   63MOL0     H 8275   7.052   0.875   8.577 -1.0649 -0.6744  0.8682
   63MOL0     H 8276   7.165   0.962   8.822 -1.5628  2.7418 -3.3901
   63MOL0     H 8277   7.198   0.781   8.802 -1.1311 -1.2382  3.0268
   63MOL0     H 8278   7.099   0.704   9.016 -0.5762  1.0356 -0.2903
   63MOL0     H 8279   7.078   0.452   9.046 -2.3837 -2.6378  0.8799
   63MOL0     H 8280   6.958   0.029   8.708  0.2715 -3.4924 -1.4006
   63MOL0     H 8281   6.959  -0.210   8.804  1.4507  0.6125  0.7941
   63MOL0     H 8282   6.614  -0.389   8.986 -1.8821 -0.8709  1.9327
   63MOL0     H 8283   6.689  -0.327   9.138  2.0864  2.5156 -1.9804
   63MOL0     H 8284   6.765  -0.573   8.979 -2.9441 -4.1058  1.7871
   63MOL0     H 8285   6.695  -0.566   9.137 -3.8841  0.4081 -2.5615
   63MOL0     H 8286   6.891  -0.427   9.222 -0.2533 -1.5389  1.8991
   63MOL0     H 8287   6.965  -0.464   9.064 -0.0129 -0.3955  0.2911
   63MOL0     H 8288   6.852  -0.692   9.248  0.5199 -0.3647  1.2998
   63MOL0     H 8289   6.939  -0.706   9.103 -0.7697  0.5556 -1.1506
   63MOL0     H 8290   7.102  -0.753   9.276  0.0141  0.2319 -0.5053
   63MOL0     H 8291   7.053  -0.604   9.358 -0.5590 -0.4410 -1.0916
   63MOL0     H 8292   7.280  -0.616   9.248 -1.9756 -1.1522  1.7245
   63MOL0     H 8293   7.186  -0.481   9.176 -0.5560 -0.1810 -1.8584
   63MOL0     H 8294   7.225  -0.765   9.081  2.9183  0.1289  0.2265
   63MOL0     H 8295   7.158  -0.630   8.978  1.3165 -2.4850 -3.2296
   63MOL0     H 8296   7.389  -0.694   8.922  0.1439 -0.5877  0.8249
   63MOL0     H 8297   7.446  -0.628   9.076  0.2920  2.4626 -0.7084
   63MOL0     H 8298   6.621  -0.114   9.046 -1.1270 -0.7521 -1.9397
   63MOL0     H 8299   6.640   0.132   8.965 -1.7342 -0.4586  1.3024
   63MOL0     H 8300   6.796   0.443   8.728 -0.4622 -1.9057  2.7340
   63MOL0     H 8301   6.842   0.686   8.681 -2.0674  0.6853  1.8141
   63MOL0     H 8302   8.633   1.117   7.927  0.6715 -1.0166  0.0299
   63MOL0     H 8303   8.846   1.172   7.821  0.1850 -2.4334 -0.9224
   63MOL0     H 8304   9.246   1.313   7.603 -0.6309  2.7315  0.0450
   63MOL0     H 8305   9.470   1.404   7.555 -1.7028  1.4022 -0.3772
   63MOL0     H 8306   9.665   1.386   7.501 -2.9273  2.5164  1.7616
   63MOL0     H 8307   9.815   1.329   7.567  0.5895  0.3176  2.7282
   63MOL0     H 8308   9.813   1.564   7.484 -0.1360  1.0493 -0.2810
   63MOL0     H 8309   9.722   1.599   7.632  0.5283 -1.3140  1.8073
   63MOL0     H 8310   9.987   1.465   7.646 -0.0470 -0.4265 -0.3057
   63MOL0     H 8311   9.896   1.523   7.790 -0.1254  2.2058  0.2896
   63MOL0     H 8312  10.083   1.659   7.714 -1.1128 -2.0150  0.5905
   63MOL0     H 8313  10.000   1.709   7.576  3.3472 -1.5025 -0.0679
   63MOL0     H 8314   9.711   1.879   7.830 -2.4920 -2.8050 -2.2224
   63MOL0     H 8315   9.592   1.281   7.941 -0.2641  2.5255  0.3372
   63MOL0     H 8316   9.335   1.225   7.997 -1.8300  1.6555 -0.0987
   64MOL0     O 8317   7.064   2.182   8.332 -0.4552 -0.4116 -0.5931
   64MOL0     C 8318   7.054   2.204   8.448 -0.3902 -0.7848  0.3609
   64MOL0     O 8319   7.149   2.210   8.536 -0.3683  0.2250  0.2119
   64MOL0     C 8320   7.282   2.173   8.508 -0.3866 -0.3909  0.2018
   64MOL0     C 8321   7.322   2.078   8.420  0.1943  1.1171  0.2682
   64MOL0     C 8322   7.447   2.058   8.380 -0.8514 -0.3047 -0.1864
   64MOL0     C 8323   7.552   2.136   8.434 -0.1925  0.1483  0.8444
   64MOL0     O 8324   7.684   2.130   8.404  0.6291 -0.5434  0.1816
   64MOL0     C 8325   7.727   2.234   8.315  0.1842  0.8610 -0.2301
   64MOL0     C 8326   7.850   2.186   8.237 -0.4119 -0.3241  0.5345
   64MOL0     C 8327   7.975   2.162   8.323  0.5303  0.1255 -0.7116
   64MOL0     C 8328   8.081   2.078   8.258  0.7251  0.9139 -0.6232
   64MOL0     C 8329   8.170   1.995   8.359 -0.7200 -0.5663 -0.0389
   64MOL0     C 8330   8.259   2.082   8.436 -0.5272  0.2906  0.0008
   64MOL0     C 8331   8.379   2.126   8.344  0.4420  0.2047 -0.2553
   64MOL0     C 8332   8.484   2.191   8.442  0.0213 -0.1887  0.4425
   64MOL0     N 8333   8.591   2.264   8.371 -0.0977 -0.1696  0.7431
   64MOL0     C 8334   8.691   2.352   8.416  0.0214 -0.9852 -0.2317
   64MOL0     C 8335   8.772   2.381   8.314  0.6988  0.6150  0.0412
   64MOL0     C 8336   8.900   2.467   8.312  0.6486 -0.6216 -0.5458
   64MOL0     C 8337   8.863   2.621   8.334 -0.1531  0.1902 -0.1793
   64MOL0     C 8338   8.818   2.692   8.208 -0.0672 -0.0368  0.7266
   64MOL0     C 8339   8.695   2.636   8.144 -0.2837 -0.0132 -0.4478
   64MOL0     O 8340   8.595   2.632   8.253 -0.5559  0.3418  0.4813
   64MOL0     C 8341   8.472   2.574   8.231  0.3652 -0.4006 -0.3144
   64MOL0     C 8342   8.453   2.478   8.134  0.1905  0.4658  0.0569
   64MOL0     C 8343   8.331   2.433   8.087  1.0635 -0.1158 -0.5704
   64MOL0     C 8344   8.217   2.490   8.147 -0.1266  0.7646 -0.3941
   64MOL0     C 8345   8.080   2.459   8.097  0.3307 -0.5492  0.0056
   64MOL0     O 8346   7.981   2.530   8.147  0.1497  0.4836  0.3140
   64MOL0     C 8347   7.853   2.516   8.108  0.3593 -0.9033 -0.5636
   64MOL0     C 8348   7.797   2.456   8.000  1.2385 -0.0651  0.6252
   64MOL0     C 8349   7.656   2.431   7.990  0.3589 -0.2697 -0.0465
   64MOL0     C 8350   7.575   2.470   8.091  0.1540 -0.0736  0.5843
   64MOL0     O 8351   7.446   2.428   8.097 -0.9795  0.0558 -0.2896
   64MOL0     C 8352   7.338   2.520   8.093  0.4090 -0.5288  0.2392
   64MOL0     C 8353   7.221   2.429   8.145 -0.7241 -0.0987  0.5649
   64MOL0     C 8354   7.090   2.513   8.174 -0.1163  0.3337 -0.5983
   64MOL0     C 8355   7.012   2.543   8.048  0.6771  0.1535 -0.2088
   64MOL0     C 8356   6.880   2.605   8.087  0.3562 -0.8095 -0.0734
   64MOL0     C 8357   6.799   2.684   7.977  0.0424  1.1479 -1.0484
   64MOL0     C 8358   6.654   2.715   8.025  0.5229 -0.1011 -0.6176
   64MOL0     C 8359   6.580   2.804   7.931  0.1683  0.1653  0.6418
   64MOL0    Cl 8360   6.655   2.961   7.896 -0.0474 -0.2256 -0.1603
   64MOL0     C 8361   7.624   2.536   8.197 -0.3203 -0.7718  0.0639
   64MOL0     C 8362   7.764   2.567   8.205  0.0080  0.0945 -0.3671
   64MOL0     O 8363   8.070   2.364   8.018 -0.5231  0.4902 -0.1067
   64MOL0     C 8364   8.232   2.584   8.257 -0.0564  0.3920 -0.0162
   64MOL0     C 8365   8.358   2.627   8.293  0.2501  0.4563 -0.7483
   64MOL0     N 8366   8.719   2.305   8.209 -0.8935 -0.2521  0.1174
   64MOL0     N 8367   8.622   2.233   8.241 -0.5502  0.0431  0.2155
   64MOL0     C 8368   7.520   2.240   8.522  0.0302  0.0715  0.7471
   64MOL0     C 8369   7.382   2.252   8.548 -1.1060 -0.0913 -0.7074
   64MOL0     C 8370   6.912   2.245   8.500  0.2938  0.7054  0.8312
   64MOL0     C 8371   6.890   2.244   8.643 -0.2440  0.0657  0.3879
   64MOL0     C 8372   6.767   2.276   8.693  0.3833  0.5269 -0.4598
   64MOL0     C 8373   6.665   2.316   8.601  0.7222 -0.2231 -1.1965
   64MOL0     O 8374   6.539   2.358   8.632 -0.6379  0.1363  0.3967
   64MOL0     C 8375   6.499   2.420   8.759 -0.3588  0.3103  0.3640
   64MOL0     C 8376   6.526   2.572   8.744  0.3790  0.3732 -0.3738
   64MOL0     C 8377   6.404   2.652   8.673  0.2764  0.5766 -0.7197
   64MOL0     C 8378   6.362   2.605   8.531 -0.2426  0.5848  0.7294
   64MOL0     C 8379   6.255   2.696   8.476 -0.1656  0.1207 -1.4199
   64MOL0     C 8380   6.178   2.780   8.431 -0.5799 -0.4844 -0.2848
   64MOL0     C 8381   6.692   2.310   8.467  0.3402 -0.3968  0.3063
   64MOL0     C 8382   6.811   2.280   8.415  0.4025  0.6491  0.9017
   64MOL0     H 8383   7.256   1.999   8.385 -0.4933  0.4167  2.9328
   64MOL0     H 8384   7.481   1.968   8.331  1.5576  0.6257 -0.3751
   64MOL0     H 8385   7.747   2.321   8.379  0.8047  0.8210 -0.3594
   64MOL0     H 8386   7.647   2.257   8.244  0.5619  3.9517  0.2060
   64MOL0     H 8387   7.877   2.270   8.173  1.1651  1.1116  2.8952
   64MOL0     H 8388   7.831   2.105   8.166  3.4471 -0.8867 -0.0666
   64MOL0     H 8389   7.940   2.109   8.412  1.7518 -0.0303 -0.2996
   64MOL0     H 8390   8.015   2.257   8.361 -4.0158  2.0441 -0.0903
   64MOL0     H 8391   8.029   1.998   8.205 -0.2641 -0.1108  1.7502
   64MOL0     H 8392   8.146   2.139   8.195  3.0116 -0.9805 -0.2659
   64MOL0     H 8393   8.231   1.930   8.295  3.2229 -0.6173  3.3597
   64MOL0     H 8394   8.101   1.939   8.423 -3.4045  3.8341  1.2984
   64MOL0     H 8395   8.297   2.026   8.522 -1.0184 -0.4569 -0.2619
   64MOL0     H 8396   8.192   2.164   8.462 -0.8173  0.2492 -0.6003
   64MOL0     H 8397   8.422   2.045   8.284 -1.0096  3.4295 -6.5547
   64MOL0     H 8398   8.346   2.196   8.267 -2.4646  0.1779  0.8313
   64MOL0     H 8399   8.531   2.103   8.488  1.6603  0.7509  0.6310
   64MOL0     H 8400   8.429   2.242   8.522  0.0411  2.3117 -1.0420
   64MOL0     H 8401   8.695   2.403   8.512  0.2999 -0.9939 -0.2375
   64MOL0     H 8402   8.970   2.451   8.230  2.5011  0.7110  0.6943
   64MOL0     H 8403   8.952   2.438   8.404 -0.0920 -1.7685 -0.4736
   64MOL0     H 8404   8.947   2.676   8.379  1.5096 -2.0618 -0.3363
   64MOL0     H 8405   8.782   2.624   8.407  0.7112  0.8651  0.7755
   64MOL0     H 8406   8.813   2.797   8.235  1.5649 -0.0975  1.3263
   64MOL0     H 8407   8.906   2.681   8.144 -0.0025  0.6299  0.7018
   64MOL0     H 8408   8.716   2.543   8.091 -0.6076 -0.0140 -0.5719
   64MOL0     H 8409   8.662   2.706   8.066 -0.2745  1.0893  0.5078
   64MOL0     H 8410   8.537   2.424   8.093 -0.1913 -1.5708  1.7481
   64MOL0     H 8411   8.315   2.356   8.012  1.2008  1.0660 -1.8412
   64MOL0     H 8412   7.861   2.412   7.925  1.0289  0.2486  0.2574
   64MOL0     H 8413   7.618   2.371   7.908  0.2671  0.5210 -0.5833
   64MOL0     H 8414   7.329   2.558   7.991  1.2502  3.1362  1.3820
   64MOL0     H 8415   7.353   2.610   8.152 -1.6584  1.8476 -2.5428
   64MOL0     H 8416   7.264   2.370   8.226 -0.6436 -3.7407 -1.8939
   64MOL0     H 8417   7.195   2.360   8.064  3.3585  0.2156 -1.2727
   64MOL0     H 8418   7.111   2.609   8.222  0.3498 -0.5628  1.0348
   64MOL0     H 8419   7.027   2.457   8.243  0.5440  1.3186  0.8467
   64MOL0     H 8420   7.056   2.612   7.975 -0.2517 -1.8295 -2.7931
   64MOL0     H 8421   6.973   2.454   7.998 -2.9520 -0.3100  2.9555
   64MOL0     H 8422   6.903   2.688   8.155 -0.4030  1.0061 -1.9216
   64MOL0     H 8423   6.814   2.539   8.142 -2.7281  1.8975 -0.2092
   64MOL0     H 8424   6.791   2.623   7.887  0.3670  3.6278 -2.8767
   64MOL0     H 8425   6.848   2.777   7.947 -0.3912  0.9230 -2.5559
   64MOL0     H 8426   6.594   2.624   8.031 -1.4656  1.1599 -0.5828
   64MOL0     H 8427   6.663   2.761   8.124  0.8249 -0.4752 -0.4663
   64MOL0     H 8428   6.478   2.823   7.966  0.4436 -3.3140  4.0180
   64MOL0     H 8429   6.573   2.744   7.840 -0.6380  2.1330 -0.6751
   64MOL0     H 8430   7.559   2.569   8.278  1.4264  0.9619  0.8358
   64MOL0     H 8431   7.800   2.607   8.299 -1.8152 -3.3586  2.0320
   64MOL0     H 8432   8.146   2.623   8.309 -1.1932 -0.8828 -0.8820
   64MOL0     H 8433   8.357   2.711   8.361 -2.4130 -0.7254  0.8169
   64MOL0     H 8434   7.592   2.306   8.569  0.4397 -0.9926  1.6791
   64MOL0     H 8435   7.361   2.340   8.608 -1.8795  0.0212 -1.1303
   64MOL0     H 8436   6.983   2.230   8.698  1.3835  1.5171 -1.8389
   64MOL0     H 8437   6.747   2.290   8.799 -0.7272  0.6372 -0.6648
   64MOL0     H 8438   6.528   2.381   8.856 -2.4925  0.9455  1.3239
   64MOL0     H 8439   6.390   2.410   8.755 -0.1770 -1.7041 -1.5952
   64MOL0     H 8440   6.532   2.602   8.849  2.9747  1.5612 -0.8020
   64MOL0     H 8441   6.622   2.605   8.704 -0.5064 -0.4827 -3.4237
   64MOL0     H 8442   6.443   2.754   8.666  2.4310 -0.1703 -0.3147
   64MOL0     H 8443   6.315   2.663   8.736  0.1220  1.5383 -1.0849
   64MOL0     H 8444   6.434   2.611   8.449 -0.3546  0.4798  0.6226
   64MOL0     H 8445   6.314   2.507   8.533  2.6232 -1.0023 -1.4936
   64MOL0     H 8446   6.103   2.845   8.391 -0.0713  1.1239  1.2118
   64MOL0     H 8447   6.614   2.342   8.398 -1.8765 -2.8200  1.5172
   64MOL0     H 8448   6.816   2.278   8.306  1.2637  1.3119  0.9190
   65MOL0     O 8449   3.239   1.390   7.185 -0.1876 -0.1259  0.8618
   65MOL0     C 8450   3.336   1.341   7.231 -0.0333 -0.0822 -0.3190
   65MOL0     O 8451   3.346   1.223   7.302  0.1005 -0.4358  0.5485
   65MOL0     C 8452   3.231   1.153   7.307  0.3126  1.0866  0.5183
   65MOL0     C 8453   3.181   1.128   7.436 -0.0943 -0.2774  0.4999
   65MOL0     C 8454   3.081   1.033   7.462  0.3474 -0.5820  0.1610
   65MOL0     C 8455   3.020   0.968   7.352  0.6898 -0.1018 -0.1912
   65MOL0     O 8456   2.914   0.885   7.354 -0.5929  0.5026  0.1003
   65MOL0     C 8457   2.807   0.913   7.440  0.3083 -1.0253 -0.1293
   65MOL0     C 8458   2.793   0.804   7.545  0.0059  0.8915  0.1789
   65MOL0     C 8459   2.748   0.671   7.474  0.6016 -0.8307  0.4368
   65MOL0     C 8460   2.717   0.561   7.574  0.2721 -0.1169  0.4814
   65MOL0     C 8461   2.613   0.462   7.524  0.0498  0.3296  0.6996
   65MOL0     C 8462   2.575   0.366   7.637  0.2079  0.6396  0.1481
   65MOL0     C 8463   2.510   0.232   7.581  0.0911  0.0150  0.0808
   65MOL0     C 8464   2.360   0.246   7.548  0.0731 -0.0322 -0.4962
   65MOL0     N 8465   2.333   0.303   7.413  0.5384  0.6419  0.7327
   65MOL0     C 8466   2.339   0.235   7.287  0.1628  1.5349 -0.2487
   65MOL0     C 8467   2.285   0.326   7.195  1.5486 -1.0167  0.6989
   65MOL0     C 8468   2.250   0.324   7.045  0.3737  0.3626 -1.1982
   65MOL0     C 8469   2.102   0.306   7.028 -0.2422 -0.0482 -0.0695
   65MOL0     C 8470   2.061   0.162   7.014 -0.0809  0.0190  1.0542
   65MOL0     C 8471   2.100   0.107   6.873  0.6469 -0.3125  0.3970
   65MOL0     O 8472   2.003   0.155   6.770  0.5692 -0.3097 -0.8192
   65MOL0     C 8473   1.879   0.099   6.747  0.7059  0.2308  0.5469
   65MOL0     C 8474   1.828  -0.023   6.807  0.6278 -0.2328  0.3953
   65MOL0     C 8475   1.694  -0.067   6.788 -0.8324 -0.7519  0.5181
   65MOL0     C 8476   1.614  -0.006   6.699  0.4313 -0.3003 -1.2111
   65MOL0     C 8477   1.465  -0.050   6.686 -0.8824  0.9378  0.5901
   65MOL0     O 8478   1.393   0.019   6.592 -0.3657  0.3778 -0.4474
   65MOL0     C 8479   1.263  -0.025   6.556 -0.5680 -0.3020 -0.3094
   65MOL0     C 8480   1.183  -0.122   6.609 -1.4972  1.4319  0.4925
   65MOL0     C 8481   1.046  -0.129   6.574  0.4143 -0.2906 -0.4782
   65MOL0     C 8482   0.987  -0.053   6.480  0.4013 -1.0321  0.7510
   65MOL0     O 8483   0.853  -0.060   6.436 -0.3411  0.8715  0.2830
   65MOL0     C 8484   0.771  -0.166   6.498  0.1046  0.0727  0.1499
   65MOL0     C 8485   0.649  -0.195   6.409  0.0331  0.7332 -0.0815
   65MOL0     C 8486   0.574  -0.062   6.372 -0.3875  0.7035  1.0474
   65MOL0     C 8487   0.449  -0.095   6.296  0.2239 -0.0585  0.3172
   65MOL0     C 8488   0.464  -0.126   6.141 -0.0054 -0.7038 -0.6911
   65MOL0     C 8489   0.313  -0.149   6.097 -0.1644  0.0369  0.1346
   65MOL0     C 8490   0.317  -0.161   5.944 -1.1340  0.0683  0.1420
   65MOL0     C 8491   0.199  -0.244   5.892  0.0011 -0.4809  0.1175
   65MOL0    Cl 8492   0.064  -0.133   5.916  0.2103  0.9265 -0.4244
   65MOL0     C 8493   1.070   0.030   6.406 -0.1726 -1.4028 -0.3250
   65MOL0     C 8494   1.206   0.050   6.447  0.1392 -0.8593  0.1229
   65MOL0     O 8495   1.419  -0.136   6.761  0.5594 -0.1776  0.2695
   65MOL0     C 8496   1.658   0.115   6.640 -0.1060 -0.2872  0.3463
   65MOL0     C 8497   1.787   0.166   6.666  0.0697  0.5758 -0.3126
   65MOL0     N 8498   2.250   0.445   7.269 -0.0193 -0.0641 -0.4490
   65MOL0     N 8499   2.290   0.431   7.392 -0.2208  0.3626  0.0319
   65MOL0     C 8500   3.062   1.004   7.221 -0.1302  0.3906 -0.0712
   65MOL0     C 8501   3.174   1.081   7.198  0.1715 -0.5943 -0.7133
   65MOL0     C 8502   3.464   1.418   7.223  1.0278 -0.3888 -0.0429
   65MOL0     C 8503   3.466   1.525   7.131  1.0611 -0.1785 -1.0865
   65MOL0     C 8504   3.582   1.603   7.120 -0.3785  0.2512 -0.3190
   65MOL0     C 8505   3.701   1.566   7.194 -0.5150  0.3989 -0.2204
   65MOL0     O 8506   3.822   1.618   7.180 -0.5434  0.8591 -1.0060
   65MOL0     C 8507   3.839   1.735   7.119  0.2025 -0.2425 -0.3823
   65MOL0     C 8508   3.994   1.747   7.096  0.8826 -1.1370  0.8860
   65MOL0     C 8509   4.032   1.661   6.972  0.8960  0.0662 -0.4366
   65MOL0     C 8510   4.181   1.641   6.966 -0.3201  0.4495  0.3191
   65MOL0     C 8511   4.249   1.768   6.933 -0.8975  0.3407 -0.1551
   65MOL0     C 8512   4.316   1.868   6.920 -0.0037  0.3355  0.4893
   65MOL0     C 8513   3.699   1.455   7.272  0.4125  0.8408  0.2405
   65MOL0     C 8514   3.579   1.380   7.287  0.1050  0.2726  0.5856
   65MOL0     H 8515   3.231   1.176   7.519  0.6365 -2.1036  1.1544
   65MOL0     H 8516   3.053   1.011   7.564 -2.0743  1.9802  0.1512
   65MOL0     H 8517   2.716   0.929   7.382  2.9962  0.5646 -4.4084
   65MOL0     H 8518   2.822   1.010   7.489  1.8021 -1.7975  1.0445
   65MOL0     H 8519   2.713   0.841   7.609  0.1148 -0.3753  1.0837
   65MOL0     H 8520   2.885   0.790   7.603 -0.8509 -2.1762  0.9945
   65MOL0     H 8521   2.825   0.643   7.401  0.8778  3.3817 -1.1650
   65MOL0     H 8522   2.660   0.695   7.414 -0.5051  1.8291  2.8604
   65MOL0     H 8523   2.809   0.503   7.587  1.2464  0.9896 -1.0652
   65MOL0     H 8524   2.690   0.602   7.672  2.9033 -2.1667  2.2147
   65MOL0     H 8525   2.641   0.417   7.428  0.6511  0.1189  0.9698
   65MOL0     H 8526   2.517   0.500   7.487 -0.8408 -1.8178  0.6175
   65MOL0     H 8527   2.519   0.404   7.722  0.5242  2.7983 -0.5574
   65MOL0     H 8528   2.667   0.336   7.688 -0.1184 -2.1081 -0.7384
   65MOL0     H 8529   2.563   0.194   7.493 -0.0562 -1.1280  0.4711
   65MOL0     H 8530   2.523   0.155   7.657  3.8753  0.2933 -0.1066
   65MOL0     H 8531   2.319   0.314   7.623 -0.9552 -0.6169 -0.5143
   65MOL0     H 8532   2.327   0.142   7.557 -1.9551  0.4823 -1.4662
   65MOL0     H 8533   2.372   0.133   7.269 -1.4802  1.1072 -1.0662
   65MOL0     H 8534   2.301   0.248   6.985  0.9159 -1.3940  1.2914
   65MOL0     H 8535   2.261   0.426   7.008  0.9898  1.3630  1.5251
   65MOL0     H 8536   2.062   0.365   6.945  2.9605  1.2962 -0.8479
   65MOL0     H 8537   2.049   0.336   7.119  1.0576  1.5052  0.2371
   65MOL0     H 8538   2.093   0.102   7.099  0.0656 -2.7040 -0.8011
   65MOL0     H 8539   1.953   0.152   7.029  0.1411  1.5018  4.6815
   65MOL0     H 8540   2.103  -0.003   6.869 -1.2352 -0.3643 -2.0655
   65MOL0     H 8541   2.202   0.135   6.846  0.3199 -0.4248 -1.0683
   65MOL0     H 8542   1.898  -0.073   6.873  0.8865 -0.5409 -0.1075
   65MOL0     H 8543   1.663  -0.149   6.852 -0.2774  0.7024  2.7399
   65MOL0     H 8544   1.220  -0.203   6.671  0.5159  1.0295 -1.1053
   65MOL0     H 8545   0.992  -0.201   6.634 -1.0126  2.1389  1.3443
   65MOL0     H 8546   0.750  -0.143   6.603  2.1191 -1.2773  0.9141
   65MOL0     H 8547   0.825  -0.261   6.489 -1.6157 -0.7817 -1.8991
   65MOL0     H 8548   0.581  -0.261   6.464  1.6701 -2.3160 -1.4390
   65MOL0     H 8549   0.689  -0.239   6.317  1.9338  2.6595 -0.2441
   65MOL0     H 8550   0.636  -0.007   6.299 -0.0941  0.6818  1.2765
   65MOL0     H 8551   0.565  -0.002   6.463  0.0318  2.2259  0.1143
   65MOL0     H 8552   0.412  -0.192   6.331  2.4618 -2.2049 -2.7165
   65MOL0     H 8553   0.372  -0.018   6.310  2.9842  3.1738 -0.6855
   65MOL0     H 8554   0.517  -0.220   6.122  0.3763 -0.5281 -0.4722
   65MOL0     H 8555   0.517  -0.045   6.091  2.1438 -0.6341  1.5644
   65MOL0     H 8556   0.261  -0.057   6.127  1.0564  0.2278  1.7687
   65MOL0     H 8557   0.266  -0.239   6.136 -1.9867  1.5918  1.7304
   65MOL0     H 8558   0.326  -0.068   5.885 -2.5022 -0.1284 -0.4368
   65MOL0     H 8559   0.411  -0.206   5.911 -2.2439 -2.8135  0.6598
   65MOL0     H 8560   0.200  -0.342   5.941 -0.9421 -1.2103 -1.2524
   65MOL0     H 8561   0.202  -0.267   5.785 -1.0290 -1.7829  0.3451
   65MOL0     H 8562   1.024   0.106   6.344 -2.0317 -3.9786 -2.3535
   65MOL0     H 8563   1.257   0.132   6.397  0.0738 -0.1726  1.1720
   65MOL0     H 8564   1.599   0.177   6.573  1.2951  0.9672  0.2023
   65MOL0     H 8565   1.814   0.268   6.642 -2.4396  1.0075 -1.6664
   65MOL0     H 8566   3.023   0.946   7.137 -0.6194  1.1585 -0.3788
   65MOL0     H 8567   3.214   1.098   7.098  1.5294 -0.2336 -0.1186
   65MOL0     H 8568   3.385   1.550   7.063  1.1832 -0.3310 -1.2915
   65MOL0     H 8569   3.583   1.682   7.046 -0.9423 -1.0081 -1.7320
   65MOL0     H 8570   3.828   1.818   7.190  0.2491 -1.3273  0.9504
   65MOL0     H 8571   3.790   1.753   7.024 -0.3457 -2.2281 -0.5293
   65MOL0     H 8572   4.005   1.854   7.077 -2.4417 -1.0979 -1.5465
   65MOL0     H 8573   4.051   1.712   7.182 -1.0813 -0.9229  2.3493
   65MOL0     H 8574   4.009   1.720   6.882  1.3484  2.6469  1.0261
   65MOL0     H 8575   3.978   1.567   6.973 -1.6176  1.4288  1.0035
   65MOL0     H 8576   4.217   1.593   7.058  1.2593 -0.2263 -0.6148
   65MOL0     H 8577   4.206   1.562   6.895  0.9037 -0.5294  1.7716
   65MOL0     H 8578   4.372   1.959   6.922  1.6383 -0.3916 -3.4797
   65MOL0     H 8579   3.787   1.429   7.329  0.7793  1.1967 -0.1533
   65MOL0     H 8580   3.574   1.305   7.365 -1.3472 -0.0130  0.2452
   66MOL0     O 8581   2.354   9.249   4.668  0.0686  0.4533  0.2619
   66MOL0     C 8582   2.378   9.198   4.560 -0.0760  0.0305 -0.0477
   66MOL0     O 8583   2.288   9.121   4.484  0.1410  0.2420 -0.8302
   66MOL0     C 8584   2.162   9.114   4.539 -0.1892 -0.5277  0.2607
   66MOL0     C 8585   2.079   9.231   4.539 -0.7681  0.6267  0.5466
   66MOL0     C 8586   1.945   9.222   4.566  0.5614 -0.3644 -0.5927
   66MOL0     C 8587   1.889   9.096   4.610 -0.1531 -0.1283 -0.4263
   66MOL0     O 8588   1.762   9.079   4.649  0.1524  0.4175 -0.1976
   66MOL0     C 8589   1.661   9.168   4.607  1.0102  0.1769  0.9221
   66MOL0     C 8590   1.529   9.094   4.578  0.6249 -0.2413 -0.1450
   66MOL0     C 8591   1.499   9.005   4.696 -0.5134 -0.4067 -0.2177
   66MOL0     C 8592   1.361   8.937   4.674  0.3179 -0.3041  0.0354
   66MOL0     C 8593   1.297   8.887   4.805 -0.2570  0.2610 -0.7569
   66MOL0     C 8594   1.182   8.781   4.776  1.0734 -0.0789  0.1935
   66MOL0     C 8595   1.063   8.788   4.879 -0.7268 -0.0542  0.4486
   66MOL0     C 8596   0.937   8.714   4.812  0.2282  0.1599 -0.1215
   66MOL0     N 8597   0.820   8.740   4.892  0.2905 -0.0289  1.0711
   66MOL0     C 8598   0.698   8.748   4.838 -0.5224 -0.1880  0.4552
   66MOL0     C 8599   0.608   8.755   4.946  0.6813  0.5893  0.9451
   66MOL0     C 8600   0.458   8.779   4.947  0.3626  0.7446  0.0577
   66MOL0     C 8601   0.373   8.701   5.046  0.9697  1.3039  0.4267
   66MOL0     C 8602   0.383   8.550   5.027  0.5219  0.0613  0.8419
   66MOL0     C 8603   0.262   8.485   4.942 -0.2278  0.0806  0.0355
   66MOL0     O 8604   0.135   8.519   4.997  0.5917 -0.0068 -0.1677
   66MOL0     C 8605   0.025   8.435   4.986  0.4354 -0.4772  0.4506
   66MOL0     C 8606  -0.089   8.502   5.040  0.5563 -0.1749  0.6691
   66MOL0     C 8607  -0.219   8.439   5.044 -1.3362 -0.1238 -0.2648
   66MOL0     C 8608  -0.236   8.314   4.982 -0.0208 -0.4781 -0.3725
   66MOL0     C 8609  -0.367   8.248   4.969 -0.5725  0.3497  0.3032
   66MOL0     O 8610  -0.374   8.133   4.890  0.4468 -0.2219 -0.6136
   66MOL0     C 8611  -0.499   8.082   4.882 -0.5585  0.7455  0.1884
   66MOL0     C 8612  -0.549   8.081   4.756 -0.4146  0.5093  0.1171
   66MOL0     C 8613  -0.666   8.009   4.734  0.6059  0.1823  0.4569
   66MOL0     C 8614  -0.734   7.945   4.836 -0.0802  0.2773  0.1854
   66MOL0     O 8615  -0.846   7.867   4.827 -0.8896 -0.2367 -0.2549
   66MOL0     C 8616  -0.941   7.903   4.725  0.6857  1.0091 -0.5018
   66MOL0     C 8617  -1.063   7.948   4.799  0.3584  0.1111  0.3189
   66MOL0     C 8618  -1.186   7.991   4.712 -0.4187  0.2707 -0.8720
   66MOL0     C 8619  -1.241   7.874   4.626  0.1395 -0.4149 -0.7478
   66MOL0     C 8620  -1.372   7.883   4.572 -0.5517 -0.0476 -0.8707
   66MOL0     C 8621  -1.481   7.848   4.676  0.9442 -0.6407 -0.0256
   66MOL0     C 8622  -1.628   7.837   4.615 -0.6276 -0.4971  0.1121
   66MOL0     C 8623  -1.699   7.719   4.674 -0.6907 -0.5557 -0.3161
   66MOL0    Cl 8624  -1.724   7.726   4.852 -0.0314 -0.2764 -0.4364
   66MOL0     C 8625  -0.697   7.975   4.970  0.0676 -0.9820 -1.1512
   66MOL0     C 8626  -0.581   8.036   4.990 -0.1148 -0.1885  0.0055
   66MOL0     O 8627  -0.460   8.304   5.025 -0.2610  0.0749  0.7999
   66MOL0     C 8628  -0.118   8.254   4.933  0.0051  0.5589 -0.1676
   66MOL0     C 8629   0.007   8.314   4.927  0.2120 -0.4830 -0.1685
   66MOL0     N 8630   0.684   8.732   5.054 -0.0090 -0.5795  0.7233
   66MOL0     N 8631   0.808   8.718   5.023 -0.2007 -0.1837 -0.7347
   66MOL0     C 8632   1.971   8.989   4.618  0.1897 -0.1512 -0.0623
   66MOL0     C 8633   2.102   8.991   4.580 -0.1276  0.0188  0.2378
   66MOL0     C 8634   2.509   9.216   4.514  1.1487 -0.5343  0.4867
   66MOL0     C 8635   2.538   9.239   4.374  1.1091 -0.2281 -0.4596
   66MOL0     C 8636   2.663   9.244   4.322  0.1628 -0.1308  1.0237
   66MOL0     C 8637   2.775   9.210   4.403  0.7018 -0.3628 -0.2577
   66MOL0     O 8638   2.898   9.193   4.337 -0.0346  0.0181  0.0115
   66MOL0     C 8639   3.020   9.199   4.416  0.3043  0.1120  0.2455
   66MOL0     C 8640   3.133   9.190   4.310  0.1909  0.2581 -0.1508
   66MOL0     C 8641   3.269   9.183   4.386 -0.4594  0.0420  0.6967
   66MOL0     C 8642   3.326   9.037   4.396  0.8847 -0.0762  0.2638
   66MOL0     C 8643   3.474   9.041   4.398  0.3151 -0.0520  0.0340
   66MOL0     C 8644   3.594   9.027   4.411 -0.6071  0.2084 -0.0359
   66MOL0     C 8645   2.753   9.196   4.546  0.1236  0.2994  0.1377
   66MOL0     C 8646   2.624   9.201   4.595 -0.3620  1.1495 -0.7058
   66MOL0     H 8647   2.132   9.321   4.509  0.8862  0.7420  3.4579
   66MOL0     H 8648   1.878   9.307   4.568  1.6287  0.4985  0.1194
   66MOL0     H 8649   1.679   9.225   4.516 -0.9946 -1.7130 -0.7811
   66MOL0     H 8650   1.639   9.231   4.694 -1.1532 -0.1225  0.6574
   66MOL0     H 8651   1.553   9.034   4.489 -1.5034  1.7653 -2.2217
   66MOL0     H 8652   1.442   9.155   4.555  2.2700  1.3224 -2.7537
   66MOL0     H 8653   1.494   9.076   4.779 -0.6497 -0.0115 -0.5567
   66MOL0     H 8654   1.577   8.931   4.717 -0.8261 -0.6063  0.2516
   66MOL0     H 8655   1.291   9.011   4.634 -0.8864 -0.3787  1.8549
   66MOL0     H 8656   1.373   8.863   4.595  0.0197 -0.7133  0.3678
   66MOL0     H 8657   1.258   8.972   4.862  2.8501 -0.5498  2.9853
   66MOL0     H 8658   1.365   8.849   4.882 -3.8643  0.0440  2.6571
   66MOL0     H 8659   1.226   8.685   4.748 -0.7688 -0.6414 -0.9233
   66MOL0     H 8660   1.140   8.828   4.687  2.5628  0.8372 -0.0665
   66MOL0     H 8661   1.088   8.739   4.973  0.4108 -0.9151 -0.2691
   66MOL0     H 8662   1.032   8.891   4.898  0.0387  0.2595  0.0544
   66MOL0     H 8663   0.960   8.607   4.815 -3.0090 -0.6735 -0.8736
   66MOL0     H 8664   0.921   8.730   4.705  0.8088 -3.4244 -0.8644
   66MOL0     H 8665   0.677   8.745   4.732 -4.0383 -1.3582  1.0228
   66MOL0     H 8666   0.421   8.786   4.845 -2.4734  0.6048  0.9731
   66MOL0     H 8667   0.448   8.882   4.984 -2.1845  1.0816 -1.3452
   66MOL0     H 8668   0.274   8.745   5.034 -0.0169 -0.4967  1.5699
   66MOL0     H 8669   0.405   8.704   5.151  1.7645 -2.7491  0.4723
   66MOL0     H 8670   0.480   8.528   4.981  1.5962  2.5313  1.7570
   66MOL0     H 8671   0.395   8.494   5.120  2.3586 -0.6137  0.2570
   66MOL0     H 8672   0.270   8.380   4.915  1.4112  1.1445 -4.6086
   66MOL0     H 8673   0.261   8.543   4.849  2.6689  0.8047  0.3459
   66MOL0     H 8674  -0.082   8.595   5.094 -2.7243 -0.1472  1.2984
   66MOL0     H 8675  -0.303   8.491   5.090 -0.9160 -0.0595  0.4347
   66MOL0     H 8676  -0.488   8.116   4.673  2.9972 -3.2285  0.7729
   66MOL0     H 8677  -0.699   8.006   4.630 -0.1906 -1.8076  0.7321
   66MOL0     H 8678  -0.955   7.824   4.650  0.0352 -2.6358  3.1203
   66MOL0     H 8679  -0.908   7.991   4.669  1.8623  1.9070  1.5064
   66MOL0     H 8680  -1.038   8.037   4.858 -0.7977  0.3752  0.4317
   66MOL0     H 8681  -1.093   7.867   4.867  1.8160 -1.6356 -1.0100
   66MOL0     H 8682  -1.164   8.077   4.648 -1.7733 -0.3405 -2.2213
   66MOL0     H 8683  -1.267   8.028   4.776 -0.6125  1.3004 -1.6875
   66MOL0     H 8684  -1.175   7.860   4.540  1.9414  1.0006  0.3171
   66MOL0     H 8685  -1.247   7.792   4.698 -2.7900  2.2255  2.4092
   66MOL0     H 8686  -1.376   7.817   4.485 -1.6296  1.0976 -1.7329
   66MOL0     H 8687  -1.392   7.987   4.546  0.9412  1.5382  3.4717
   66MOL0     H 8688  -1.482   7.930   4.749  1.3810 -0.9342  0.3165
   66MOL0     H 8689  -1.444   7.757   4.724  0.9812 -0.7199 -0.2063
   66MOL0     H 8690  -1.690   7.927   4.615 -1.4055 -0.9711 -2.0996
   66MOL0     H 8691  -1.623   7.806   4.510  1.7918 -3.1690  0.8806
   66MOL0     H 8692  -1.636   7.631   4.656 -0.7444 -0.6558 -0.0264
   66MOL0     H 8693  -1.790   7.687   4.623 -0.3128 -3.0421  0.4147
   66MOL0     H 8694  -0.740   7.919   5.052 -0.0820 -1.4178 -1.5264
   66MOL0     H 8695  -0.565   8.054   5.096 -5.3269 -2.5983  1.5552
   66MOL0     H 8696  -0.140   8.157   4.890 -0.0415  0.1573  0.7359
   66MOL0     H 8697   0.096   8.270   4.883  0.7980  1.7525 -1.3601
   66MOL0     H 8698   1.931   8.895   4.657 -0.8949  0.4170  0.2235
   66MOL0     H 8699   2.162   8.901   4.587  0.2839  0.3495  1.0391
   66MOL0     H 8700   2.461   9.254   4.299  0.0757 -0.4921  0.5195
   66MOL0     H 8701   2.672   9.257   4.214  0.2278 -1.8311  0.8026
   66MOL0     H 8702   3.021   9.119   4.490  1.2647  1.4753  1.7601
   66MOL0     H 8703   3.034   9.295   4.467 -0.8599  0.2738  0.2788
   66MOL0     H 8704   3.120   9.103   4.245  2.9210  0.5123 -1.1737
   66MOL0     H 8705   3.123   9.277   4.245 -2.6210  1.0181  1.1554
   66MOL0     H 8706   3.266   9.232   4.484  2.3030 -0.2668  1.0096
   66MOL0     H 8707   3.343   9.231   4.321 -1.0492 -1.4456 -1.1865
   66MOL0     H 8708   3.286   8.986   4.485 -1.5693  0.6137 -0.3581
   66MOL0     H 8709   3.298   8.978   4.308  2.8117  0.7740 -0.9893
   66MOL0     H 8710   3.701   9.015   4.406 -0.1247  2.5734  2.1842
   66MOL0     H 8711   2.837   9.171   4.610  1.0397  0.2757 -1.0381
   66MOL0     H 8712   2.607   9.197   4.702 -0.1750  0.9518 -0.6839
   67MOL0     O 8713   3.009   0.892   6.343 -0.2008  0.3391  0.1654
   67MOL0     C 8714   3.074   0.809   6.278 -0.5032 -0.5179 -0.6178
   67MOL0     O 8715   3.040   0.755   6.151  0.2956 -0.6338 -0.0188
   67MOL0     C 8716   2.921   0.795   6.093 -0.0350 -0.3224  0.3571
   67MOL0     C 8717   2.797   0.740   6.134  1.5596 -0.0082  0.3803
   67MOL0     C 8718   2.676   0.787   6.072  0.3935 -0.0432  0.3837
   67MOL0     C 8719   2.673   0.878   5.967 -0.4486 -0.3485  0.3311
   67MOL0     O 8720   2.559   0.938   5.916  0.2746  0.2932  0.0313
   67MOL0     C 8721   2.438   0.871   5.939  0.3792 -0.5878  0.5948
   67MOL0     C 8722   2.330   0.917   5.841 -0.2900  0.0851 -0.1044
   67MOL0     C 8723   2.367   0.903   5.701 -0.0786 -0.4032  0.3786
   67MOL0     C 8724   2.269   0.965   5.610  0.5107 -1.0457 -0.3414
   67MOL0     C 8725   2.267   0.892   5.480  0.3163  0.1084 -0.0714
   67MOL0     C 8726   2.189   0.960   5.373 -0.1475 -0.2270 -0.0361
   67MOL0     C 8727   2.227   0.921   5.228  1.0815 -0.9069 -0.4905
   67MOL0     C 8728   2.119   0.966   5.125 -0.8774 -0.7941 -0.4295
   67MOL0     N 8729   2.017   0.860   5.092 -0.5178  0.5647 -0.2996
   67MOL0     C 8730   1.932   0.816   5.187 -0.2587  0.7121 -0.1345
   67MOL0     C 8731   1.859   0.719   5.122  0.5299  0.0364 -0.8420
   67MOL0     C 8732   1.738   0.644   5.182  0.4231  0.2294  0.3216
   67MOL0     C 8733   1.653   0.602   5.071  0.4863  0.1963 -0.0363
   67MOL0     C 8734   1.536   0.525   5.121  0.4662 -0.3074 -0.5107
   67MOL0     C 8735   1.428   0.503   5.008  0.4390  0.3373 -1.0274
   67MOL0     O 8736   1.463   0.392   4.922 -0.6522  0.6077  0.1681
   67MOL0     C 8737   1.367   0.333   4.852  0.6000 -0.3324 -0.0695
   67MOL0     C 8738   1.308   0.217   4.893 -0.0520 -0.7840  0.6341
   67MOL0     C 8739   1.191   0.176   4.827 -0.3462  0.2870  0.0642
   67MOL0     C 8740   1.140   0.232   4.711  0.6245 -0.3336 -0.3318
   67MOL0     C 8741   1.009   0.199   4.657 -0.6283 -0.2554 -0.0602
   67MOL0     O 8742   0.982   0.064   4.679 -0.1484 -0.5997 -0.1425
   67MOL0     C 8743   0.857   0.025   4.638  0.2815 -0.1487 -0.0370
   67MOL0     C 8744   0.820   0.003   4.506  0.7614  0.4043 -0.0935
   67MOL0     C 8745   0.696  -0.050   4.478 -0.0394 -1.0142  1.0306
   67MOL0     C 8746   0.591  -0.058   4.570 -0.2913 -0.3705  0.5892
   67MOL0     O 8747   0.467  -0.112   4.529  0.4410  0.3699  0.1275
   67MOL0     C 8748   0.354  -0.046   4.586 -0.0608  0.8851 -0.2019
   67MOL0     C 8749   0.229  -0.072   4.500 -0.7788  0.1815 -1.1069
   67MOL0     C 8750   0.180  -0.216   4.541 -0.3106 -0.5590  0.4605
   67MOL0     C 8751   0.032  -0.243   4.511 -0.8967  0.1241 -0.1384
   67MOL0     C 8752  -0.004  -0.268   4.357  0.2591 -0.1474  0.4076
   67MOL0     C 8753  -0.142  -0.196   4.326  0.0519  0.7931  0.6523
   67MOL0     C 8754  -0.257  -0.220   4.420 -0.0209  0.5524 -0.8927
   67MOL0     C 8755  -0.355  -0.114   4.401  0.2314 -0.4128 -0.7419
   67MOL0    Cl 8756  -0.500  -0.169   4.480 -0.1634 -0.0337  0.0586
   67MOL0     C 8757   0.622  -0.008   4.695 -0.1048 -0.2757 -0.1042
   67MOL0     C 8758   0.754   0.029   4.739 -0.7881  0.0686 -0.3633
   67MOL0     O 8759   0.962   0.261   4.568 -0.1408 -0.2986 -0.1794
   67MOL0     C 8760   1.211   0.339   4.661  0.1133  0.0316  0.6804
   67MOL0     C 8761   1.324   0.395   4.735 -0.2887  0.1059  0.3913
   67MOL0     N 8762   1.903   0.712   4.990  0.4556 -0.4655 -0.3707
   67MOL0     N 8763   1.991   0.808   4.974  0.0284 -0.2364  0.2085
   67MOL0     C 8764   2.799   0.932   5.923  1.0939  0.1988 -0.2243
   67MOL0     C 8765   2.919   0.892   5.989 -0.1713  0.4129 -0.3930
   67MOL0     C 8766   3.195   0.754   6.348  0.7747 -1.2694 -0.1535
   67MOL0     C 8767   3.280   0.667   6.282 -0.9442  0.2113  0.5672
   67MOL0     C 8768   3.399   0.629   6.333 -0.4622 -0.1214  0.2841
   67MOL0     C 8769   3.442   0.675   6.461 -0.1041  0.7701  0.7093
   67MOL0     O 8770   3.553   0.632   6.536 -0.8374 -0.0403  0.2624
   67MOL0     C 8771   3.674   0.603   6.453 -0.3646 -0.5050  1.1914
   67MOL0     C 8772   3.803   0.667   6.517  0.0613  0.1802 -0.4275
   67MOL0     C 8773   3.796   0.815   6.532 -0.4545  0.4141  0.3696
   67MOL0     C 8774   3.928   0.880   6.593 -0.7587 -0.3219 -0.5182
   67MOL0     C 8775   4.040   0.851   6.503 -0.3409 -0.6349  0.0622
   67MOL0     C 8776   4.135   0.816   6.426 -0.5845 -0.9373 -0.3884
   67MOL0     C 8777   3.352   0.760   6.529 -0.8665  0.2362  0.1791
   67MOL0     C 8778   3.237   0.809   6.468 -0.8973  0.1038 -0.3211
   67MOL0     H 8779   2.779   0.677   6.221 -3.6990  3.1675  2.0483
   67MOL0     H 8780   2.581   0.759   6.117  0.4949  1.1397  1.3776
   67MOL0     H 8781   2.390   0.876   6.038 -2.4554 -2.0950 -0.5886
   67MOL0     H 8782   2.446   0.764   5.919 -2.9790 -1.4776  3.1164
   67MOL0     H 8783   2.306   1.020   5.868 -0.7222 -0.2013  0.6672
   67MOL0     H 8784   2.240   0.854   5.847 -2.0876  2.1812 -2.8861
   67MOL0     H 8785   2.376   0.796   5.684 -0.4311 -0.5837  1.3173
   67MOL0     H 8786   2.459   0.956   5.674 -2.1037  3.1394 -0.2947
   67MOL0     H 8787   2.163   0.971   5.637  0.2015  0.8672 -1.7818
   67MOL0     H 8788   2.316   1.061   5.588  1.5037 -1.5322 -0.3953
   67MOL0     H 8789   2.235   0.790   5.502  1.1411  0.0865  1.1149
   67MOL0     H 8790   2.368   0.884   5.438  0.4858  4.1594 -0.8593
   67MOL0     H 8791   2.199   1.069   5.375 -1.1767  0.0061 -2.7972
   67MOL0     H 8792   2.082   0.950   5.393  0.0910 -3.0905  0.2155
   67MOL0     H 8793   2.322   0.964   5.194  2.6187 -3.1236  0.6994
   67MOL0     H 8794   2.242   0.812   5.226 -0.5152 -1.1391 -1.3840
   67MOL0     H 8795   2.171   0.996   5.034  1.2033 -0.5486  0.7795
   67MOL0     H 8796   2.083   1.060   5.167  4.5639  0.6119  1.8619
   67MOL0     H 8797   1.927   0.843   5.292  1.4901  1.5246 -0.2159
   67MOL0     H 8798   1.690   0.697   5.264  1.9985  2.4096 -0.0716
   67MOL0     H 8799   1.771   0.553   5.233 -0.5158 -0.0138  0.5160
   67MOL0     H 8800   1.701   0.533   5.000 -0.2474  1.9357 -2.3361
   67MOL0     H 8801   1.616   0.686   5.011 -1.2387 -1.1652 -0.9731
   67MOL0     H 8802   1.550   0.432   5.176  1.2540 -3.5302 -5.5324
   67MOL0     H 8803   1.494   0.597   5.192  0.6258 -1.5950  0.9479
   67MOL0     H 8804   1.400   0.593   4.952  0.1619  1.4221  0.7796
   67MOL0     H 8805   1.339   0.476   5.065  0.7383  1.4737  0.0255
   67MOL0     H 8806   1.340   0.173   4.987 -0.7364  1.0082  1.7550
   67MOL0     H 8807   1.141   0.092   4.875  2.5385  0.4843  3.8375
   67MOL0     H 8808   0.905  -0.001   4.438 -0.1622 -2.0935 -1.2272
   67MOL0     H 8809   0.670  -0.088   4.380 -2.3643  4.0331 -0.6207
   67MOL0     H 8810   0.374   0.061   4.596 -1.2375  1.2841 -1.7391
   67MOL0     H 8811   0.344  -0.088   4.687 -2.8377  1.3783 -0.1810
   67MOL0     H 8812   0.244  -0.057   4.393  0.9278 -2.0075 -1.2302
   67MOL0     H 8813   0.145  -0.006   4.524 -1.0711 -0.0346 -1.5303
   67MOL0     H 8814   0.198  -0.235   4.648  3.4310  2.4565  0.5648
   67MOL0     H 8815   0.231  -0.294   4.485 -0.2333  0.0995 -0.4096
   67MOL0     H 8816   0.013  -0.328   4.576  2.8288 -0.5945  0.2317
   67MOL0     H 8817  -0.015  -0.155   4.555  0.7193  1.5773 -1.1759
   67MOL0     H 8818   0.005  -0.376   4.337 -0.3590 -0.7221  2.8472
   67MOL0     H 8819   0.071  -0.225   4.291 -3.3081  0.8712 -3.4226
   67MOL0     H 8820  -0.167  -0.233   4.226 -0.0719  1.2370  0.5129
   67MOL0     H 8821  -0.126  -0.087   4.331 -1.2556  0.9811  1.0394
   67MOL0     H 8822  -0.303  -0.315   4.390 -3.3417  1.7695 -0.0857
   67MOL0     H 8823  -0.228  -0.227   4.525  2.6019 -3.1317 -1.6824
   67MOL0     H 8824  -0.382  -0.100   4.296 -2.3654  1.5818  0.0802
   67MOL0     H 8825  -0.316  -0.020   4.441 -0.1602 -1.2879  1.8895
   67MOL0     H 8826   0.546  -0.014   4.772  0.2988  1.2730  0.4399
   67MOL0     H 8827   0.781   0.044   4.843 -1.4292 -0.6944 -0.0838
   67MOL0     H 8828   1.181   0.385   4.567  0.5968 -4.6294 -2.0799
   67MOL0     H 8829   1.373   0.485   4.701  0.6261 -0.7483 -0.6283
   67MOL0     H 8830   2.787   1.010   5.848  0.7763 -0.9645 -1.4297
   67MOL0     H 8831   3.012   0.946   5.972 -0.8402  1.7545  0.0687
   67MOL0     H 8832   3.266   0.627   6.182  0.7208  0.2923  0.2759
   67MOL0     H 8833   3.459   0.546   6.296 -3.3010 -2.7831  1.2462
   67MOL0     H 8834   3.665   0.653   6.357 -0.9212  1.1228  2.0491
   67MOL0     H 8835   3.684   0.494   6.451  0.4492 -0.4286 -0.5361
   67MOL0     H 8836   3.820   0.610   6.609  1.5266  1.8728  0.4179
   67MOL0     H 8837   3.883   0.637   6.449 -0.0271 -1.3206  0.0833
   67MOL0     H 8838   3.710   0.829   6.599 -0.7634 -1.1777  0.3526
   67MOL0     H 8839   3.778   0.858   6.434  1.8773 -0.6650 -0.6109
   67MOL0     H 8840   3.903   0.984   6.617  3.0356  0.7710 -0.6480
   67MOL0     H 8841   3.963   0.847   6.691  0.7388  3.1388  0.2581
   67MOL0     H 8842   4.213   0.783   6.360  0.6294  1.4987 -0.2900
   67MOL0     H 8843   3.376   0.789   6.631 -2.5400 -0.2609  0.7541
   67MOL0     H 8844   3.188   0.890   6.521  2.7569  1.3963  1.4183
   68MOL0     O 8845  10.740   9.202   1.487  0.5399 -0.4305  0.6140
   68MOL0     C 8846  10.666   9.113   1.433 -0.6387 -1.0771  0.4820
   68MOL0     O 8847  10.544   9.133   1.384  0.7786  0.2043  0.4304
   68MOL0     C 8848  10.480   9.244   1.425  0.3015 -0.5250  0.2266
   68MOL0     C 8849  10.497   9.370   1.360  0.6232  0.4059  0.1932
   68MOL0     C 8850  10.431   9.487   1.413  0.1532  0.3586  0.0277
   68MOL0     C 8851  10.347   9.477   1.521 -0.9854 -0.7645 -0.1873
   68MOL0     O 8852  10.292   9.595   1.566  0.7510  0.4265 -0.3948
   68MOL0     C 8853  10.276   9.633   1.702  0.5710  0.0580 -0.2671
   68MOL0     C 8854  10.233   9.778   1.701 -0.7620  0.4260 -0.6621
   68MOL0     C 8855  10.348   9.876   1.655  0.2683 -0.3452 -0.4005
   68MOL0     C 8856  10.340  10.019   1.724  0.0693 -0.2901  0.5051
   68MOL0     C 8857  10.415  10.128   1.644 -0.2618  0.1371 -0.5017
   68MOL0     C 8858  10.447  10.256   1.724  0.5329 -0.1525  0.1112
   68MOL0     C 8859  10.318  10.328   1.750  0.0966  0.9015  0.5046
   68MOL0     C 8860  10.347  10.458   1.806 -0.6936  0.3266 -0.2344
   68MOL0     N 8861  10.222  10.526   1.836  0.1577  0.1931  0.2664
   68MOL0     C 8862  10.181  10.641   1.785 -0.3959 -1.0484  0.7863
   68MOL0     C 8863  10.053  10.663   1.824 -0.6710  0.0907  0.0226
   68MOL0     C 8864   9.965  10.785   1.801  0.8619 -0.1163 -0.7664
   68MOL0     C 8865   9.824  10.733   1.767  0.1945  0.3315 -0.2855
   68MOL0     C 8866   9.745  10.843   1.688 -0.3895  0.3067  0.5896
   68MOL0     C 8867   9.603  10.824   1.703  0.5893 -0.7246 -0.0000
   68MOL0     O 8868   9.548  10.936   1.619  0.4270  0.0923 -0.3637
   68MOL0     C 8869   9.429  10.917   1.561  0.8259 -0.4070 -0.2794
   68MOL0     C 8870   9.413  10.880   1.431 -0.0272 -0.3239  0.8116
   68MOL0     C 8871   9.283  10.839   1.383 -0.5502 -0.2714 -0.0519
   68MOL0     C 8872   9.173  10.836   1.467 -0.0621 -0.1925 -0.8894
   68MOL0     C 8873   9.037  10.798   1.424  0.4166 -0.3527  0.7459
   68MOL0     O 8874   9.010  10.768   1.290  0.1754  0.2618 -0.3608
   68MOL0     C 8875   8.875  10.777   1.258  0.7038 -0.5538  0.6766
   68MOL0     C 8876   8.794  10.665   1.272  0.5952  1.5967  0.0225
   68MOL0     C 8877   8.659  10.671   1.228 -0.1903  0.4043  0.4563
   68MOL0     C 8878   8.605  10.794   1.176 -0.4701 -0.2268 -0.0793
   68MOL0     O 8879   8.479  10.806   1.124  0.9537 -0.6972 -0.1362
   68MOL0     C 8880   8.397  10.690   1.091 -0.0206 -0.3911  0.4398
   68MOL0     C 8881   8.265  10.741   1.025 -0.5985 -0.5976 -1.2269
   68MOL0     C 8882   8.168  10.624   1.005  0.5129  0.4529  0.0772
   68MOL0     C 8883   8.034  10.679   0.935 -0.0089 -0.5728  0.0403
   68MOL0     C 8884   7.927  10.568   0.913  0.1676 -0.7694 -0.7583
   68MOL0     C 8885   7.847  10.599   0.785 -0.2815 -0.0398  0.3460
   68MOL0     C 8886   7.724  10.517   0.762 -0.2244 -0.0022  0.3210
   68MOL0     C 8887   7.614  10.553   0.861  0.6452 -0.2923 -0.8414
   68MOL0    Cl 8888   7.459  10.507   0.787 -0.2302 -0.1408 -0.4609
   68MOL0     C 8889   8.690  10.904   1.171  0.3860  0.0991  0.0309
   68MOL0     C 8890   8.825  10.896   1.212  0.7726 -0.2197  0.0222
   68MOL0     O 8891   8.949  10.813   1.505  0.0364  0.4574  0.3496
   68MOL0     C 8892   9.201  10.870   1.609  0.4172  0.5953  0.6003
   68MOL0     C 8893   9.324  10.904   1.656  0.3167 -0.3921 -0.6047
   68MOL0     N 8894  10.010  10.561   1.896 -1.0446  0.4374 -0.0466
   68MOL0     N 8895  10.108  10.478   1.909 -0.5327 -0.2308 -0.0154
   68MOL0     C 8896  10.336   9.353   1.581  0.1438  0.6411  0.3220
   68MOL0     C 8897  10.398   9.235   1.536  0.6926  1.2943 -0.9033
   68MOL0     C 8898  10.696   8.967   1.455 -1.3361 -0.0442 -0.8390
   68MOL0     C 8899  10.820   8.920   1.506 -0.5724  0.7650  0.4885
   68MOL0     C 8900  10.839   8.786   1.533 -0.3724 -0.0841 -0.8743
   68MOL0     C 8901  10.738   8.691   1.532  0.0373 -0.3453 -0.4370
   68MOL0     O 8902  10.778   8.569   1.575  0.4028 -0.1380 -0.7031
   68MOL0     C 8903  10.692   8.463   1.616 -0.4814  0.4122 -0.6829
   68MOL0     C 8904  10.659   8.480   1.767 -0.2817  0.2693 -0.1938
   68MOL0     C 8905  10.548   8.383   1.810  0.5007  0.0197 -0.4887
   68MOL0     C 8906  10.417   8.472   1.844 -1.1090 -0.4446  0.1566
   68MOL0     C 8907  10.364   8.518   1.705 -0.7394  0.2147 -0.3634
   68MOL0     C 8908  10.302   8.546   1.608 -0.8979  0.2556 -0.0424
   68MOL0     C 8909  10.609   8.738   1.496 -0.1782 -0.4194  0.5765
   68MOL0     C 8910  10.592   8.870   1.449 -0.6682 -0.0988  0.1778
   68MOL0     H 8911  10.553   9.375   1.267  2.0694 -2.3644  0.8151
   68MOL0     H 8912  10.446   9.590   1.383 -0.0996  0.8369  1.4608
   68MOL0     H 8913  10.363   9.630   1.767 -0.0994 -1.0706  0.6209
   68MOL0     H 8914  10.193   9.576   1.745  0.6930  1.5123  2.0270
   68MOL0     H 8915  10.207   9.795   1.806 -0.2845 -1.6174 -0.1705
   68MOL0     H 8916  10.142   9.806   1.646  0.6192  2.2340 -2.1753
   68MOL0     H 8917  10.338   9.881   1.546 -1.3067 -3.4498 -0.5034
   68MOL0     H 8918  10.440   9.823   1.682  1.4533  0.5442 -2.4136
   68MOL0     H 8919  10.236  10.047   1.746 -0.3321 -1.2353 -0.0836
   68MOL0     H 8920  10.387  10.005   1.821  0.0628 -4.1810  0.1090
   68MOL0     H 8921  10.380  10.150   1.543 -0.8749  2.6302  0.1982
   68MOL0     H 8922  10.517  10.090   1.629 -0.2523 -0.3407  0.6452
   68MOL0     H 8923  10.507  10.326   1.666 -0.5768  1.4121  0.7868
   68MOL0     H 8924  10.493  10.242   1.822 -0.1814 -0.9719  0.3476
   68MOL0     H 8925  10.265  10.327   1.654  2.1750  0.6832 -0.7138
   68MOL0     H 8926  10.252  10.277   1.820 -0.5248 -0.3197 -0.9296
   68MOL0     H 8927  10.408  10.514   1.734 -0.2737  1.8142  1.2100
   68MOL0     H 8928  10.396  10.447   1.903 -0.6156 -0.8306 -0.3939
   68MOL0     H 8929  10.236  10.708   1.720  0.0941 -1.3002  0.9382
   68MOL0     H 8930   9.991  10.840   1.710 -0.9670  1.0141 -0.6740
   68MOL0     H 8931   9.970  10.858   1.882  1.2707 -0.8570 -0.1167
   68MOL0     H 8932   9.796  10.717   1.872  3.0332 -0.9048  0.3703
   68MOL0     H 8933   9.813  10.637   1.716 -0.2078  1.3333 -2.1673
   68MOL0     H 8934   9.772  10.945   1.716  0.2658  1.4887 -3.6465
   68MOL0     H 8935   9.762  10.843   1.580  2.0461  0.2296  0.9134
   68MOL0     H 8936   9.570  10.837   1.806  0.9941  0.9839 -0.0526
   68MOL0     H 8937   9.563  10.728   1.670 -0.4915 -0.6776  1.1338
   68MOL0     H 8938   9.482  10.886   1.347 -0.9137 -1.2177 -0.0184
   68MOL0     H 8939   9.284  10.804   1.281  0.3636  0.0867 -0.1769
   68MOL0     H 8940   8.833  10.577   1.323 -1.1112 -0.5357 -2.1244
   68MOL0     H 8941   8.604  10.577   1.235  1.9875 -0.9506  0.1253
   68MOL0     H 8942   8.376  10.632   1.182 -5.1273  0.4856  0.0929
   68MOL0     H 8943   8.431  10.612   1.022 -0.6167 -0.6319  0.4067
   68MOL0     H 8944   8.282  10.790   0.929  2.1170 -2.1015 -1.6152
   68MOL0     H 8945   8.227  10.821   1.088 -1.7194 -1.0241 -1.3425
   68MOL0     H 8946   8.143  10.584   1.104 -0.5742  1.7834  0.3768
   68MOL0     H 8947   8.212  10.545   0.944  2.3724  0.2792  1.5717
   68MOL0     H 8948   8.003  10.759   1.002 -0.5138  2.0258 -3.0562
   68MOL0     H 8949   8.078  10.715   0.841 -0.3404  3.6754  1.3127
   68MOL0     H 8950   7.858  10.571   0.998 -1.2179  1.1308 -1.8750
   68MOL0     H 8951   7.967  10.467   0.904 -2.5073 -1.8320 -1.5853
   68MOL0     H 8952   7.915  10.579   0.702 -1.4737  2.1607 -1.2639
   68MOL0     H 8953   7.823  10.706   0.791 -1.5293 -0.3762  2.9415
   68MOL0     H 8954   7.690  10.521   0.658 -0.2055 -1.1901  0.2469
   68MOL0     H 8955   7.749  10.411   0.773 -2.1367 -0.4392  0.7293
   68MOL0     H 8956   7.609  10.661   0.882  0.2206 -0.2653 -1.0772
   68MOL0     H 8957   7.636  10.499   0.954  1.6860 -1.9519 -1.9984
   68MOL0     H 8958   8.657  11.005   1.146  0.9854  0.1087 -0.7659
   68MOL0     H 8959   8.888  10.983   1.221  0.9644 -0.5412  2.7676
   68MOL0     H 8960   9.120  10.876   1.682  1.3692  4.5151  1.5573
   68MOL0     H 8961   9.324  10.932   1.761 -0.1062 -0.8822 -0.4686
   68MOL0     H 8962  10.277   9.366   1.672  0.6493  2.3225  0.4406
   68MOL0     H 8963  10.380   9.148   1.598  2.2781  1.0807 -0.6962
   68MOL0     H 8964  10.910   8.980   1.501 -0.5995  0.7864  0.2679
   68MOL0     H 8965  10.936   8.755   1.571  0.0911  0.0978 -1.8665
   68MOL0     H 8966  10.746   8.369   1.599 -0.5673  0.5530 -1.7906
   68MOL0     H 8967  10.598   8.471   1.561  0.1639  4.0091 -1.4863
   68MOL0     H 8968  10.751   8.459   1.823 -1.2692 -3.6443  0.2349
   68MOL0     H 8969  10.638   8.586   1.787  1.7754  0.4165  1.6371
   68MOL0     H 8970  10.591   8.333   1.897 -0.9278 -1.4634 -0.5813
   68MOL0     H 8971  10.525   8.306   1.736 -0.2349 -2.8077  2.4125
   68MOL0     H 8972  10.334   8.422   1.895 -0.6676  0.2361  1.6117
   68MOL0     H 8973  10.445   8.551   1.915  0.1355  0.7636 -1.6171
   68MOL0     H 8974  10.234   8.585   1.536 -0.6899 -0.0754 -0.4188
   68MOL0     H 8975  10.523   8.674   1.486 -0.6448  0.5846 -3.2822
   68MOL0     H 8976  10.489   8.897   1.428 -0.3161  1.0269 -0.1688
   69MOL0     O 8977  11.146   9.998  10.078 -0.0772  0.1570 -0.4237
   69MOL0     C 8978  11.230  10.021   9.995 -0.1065 -0.8547 -0.1095
   69MOL0     O 8979  11.221  10.116   9.891  0.1648  0.8482 -0.3095
   69MOL0     C 8980  11.101  10.159   9.856 -0.3800 -0.1043  0.7236
   69MOL0     C 8981  10.980  10.091   9.854 -0.0867  0.2666  0.0569
   69MOL0     C 8982  10.868  10.143   9.791  0.5310 -0.1778 -0.6222
   69MOL0     C 8983  10.877  10.260   9.717  0.7754 -0.2606 -0.5287
   69MOL0     O 8984  10.761  10.291   9.657 -0.3445  0.2632 -0.0364
   69MOL0     C 8985  10.728  10.426   9.632 -0.7032  0.3227 -0.3964
   69MOL0     C 8986  10.579  10.427   9.597 -0.1971  0.3692  0.0472
   69MOL0     C 8987  10.551  10.350   9.467  0.1401  0.5246 -0.3233
   69MOL0     C 8988  10.404  10.341   9.432  0.0129  0.2616 -0.4761
   69MOL0     C 8989  10.379  10.328   9.282 -0.1326 -0.8792  0.5133
   69MOL0     C 8990  10.411  10.181   9.229  0.0705 -0.3616 -0.4804
   69MOL0     C 8991  10.307  10.081   9.297  0.1048  0.6099 -0.7845
   69MOL0     C 8992  10.156  10.125   9.251 -0.3955 -0.2584  0.5982
   69MOL0     N 8993  10.055  10.028   9.290  0.8912 -0.0943 -0.5642
   69MOL0     C 8994  10.007   9.928   9.211  0.1310 -0.1537 -1.6973
   69MOL0     C 8995   9.911   9.863   9.293 -0.2905  0.3202 -0.3574
   69MOL0     C 8996   9.824   9.752   9.252  0.5838  1.0076 -0.1973
   69MOL0     C 8997   9.709   9.787   9.163 -0.1042 -0.1033 -0.0178
   69MOL0     C 8998   9.631   9.669   9.106 -0.7445  0.1115 -0.6487
   69MOL0     C 8999   9.493   9.724   9.056 -0.5182  0.3555 -0.3989
   69MOL0     O 9000   9.447   9.613   8.977 -0.3218 -0.1381  0.6474
   69MOL0     C 9001   9.330   9.566   9.036 -0.6586  0.5821  0.8937
   69MOL0     C 9002   9.199   9.619   9.012  0.4924  0.1254 -0.0041
   69MOL0     C 9003   9.081   9.560   9.073 -0.0367  0.7409 -0.8638
   69MOL0     C 9004   9.093   9.448   9.170 -0.2603  0.7991  0.5213
   69MOL0     C 9005   8.981   9.389   9.234 -0.6844  0.7555  0.2076
   69MOL0     O 9006   8.858   9.395   9.171 -0.0862  0.7180 -0.2069
   69MOL0     C 9007   8.740   9.334   9.219  0.4795 -0.3951 -0.1026
   69MOL0     C 9008   8.623   9.375   9.156 -0.0783  0.3714  0.3531
   69MOL0     C 9009   8.502   9.323   9.180  0.7166  0.0531  0.0113
   69MOL0     C 9010   8.475   9.237   9.285 -0.1142 -1.2717 -0.9221
   69MOL0     O 9011   8.355   9.168   9.307 -0.4854 -0.3043 -0.0005
   69MOL0     C 9012   8.239   9.256   9.285  0.0872  0.2613 -0.5413
   69MOL0     C 9013   8.102   9.185   9.331 -0.3820  0.9131 -0.2499
   69MOL0     C 9014   8.053   9.081   9.238 -0.7526 -0.1053  0.2370
   69MOL0     C 9015   7.941   8.991   9.302 -0.7116  0.1464  0.3023
   69MOL0     C 9016   7.922   8.854   9.220  0.0304 -0.7476 -0.0540
   69MOL0     C 9017   7.790   8.778   9.275  0.3019  0.2044 -0.1728
   69MOL0     C 9018   7.756   8.657   9.188  0.2019  0.2998 -0.6331
   69MOL0     C 9019   7.603   8.609   9.191 -0.5680  0.0680 -0.1073
   69MOL0    Cl 9020   7.549   8.524   9.348 -0.7768  0.0667  0.5505
   69MOL0     C 9021   8.594   9.203   9.358  0.0259 -0.2304  0.4645
   69MOL0     C 9022   8.721   9.240   9.316  0.2506 -0.2551  0.0797
   69MOL0     O 9023   9.009   9.327   9.334 -0.5097  0.2192 -0.7415
   69MOL0     C 9024   9.225   9.410   9.203  0.5996  0.0257  0.2861
   69MOL0     C 9025   9.336   9.463   9.132 -0.8138  0.4854  0.5431
   69MOL0     N 9026   9.899   9.938   9.407 -0.0210 -0.2074 -0.1456
   69MOL0     N 9027   9.977  10.038   9.403 -0.2436  0.4251 -0.0435
   69MOL0     C 9028  11.007  10.325   9.707 -0.2544 -0.2378  0.1836
   69MOL0     C 9029  11.115  10.274   9.780 -0.0244 -0.5438 -0.1951
   69MOL0     C 9030  11.360   9.968  10.030 -0.1955  0.1138  0.5211
   69MOL0     C 9031  11.398   9.927  10.157  0.6146  0.3613  0.0373
   69MOL0     C 9032  11.525   9.894  10.195  0.1642 -0.4991  0.5551
   69MOL0     C 9033  11.621   9.876  10.091 -0.3662  1.1052 -1.0780
   69MOL0     O 9034  11.748   9.835  10.126  0.2105  0.2829 -0.1802
   69MOL0     C 9035  11.857   9.885  10.040  0.2362  0.1947  0.9441
   69MOL0     C 9036  11.982   9.886  10.120  0.3050 -1.0246 -0.5411
   69MOL0     C 9037  12.032   9.744  10.144 -0.4580  0.5926 -0.3840
   69MOL0     C 9038  12.129   9.741  10.253 -0.3532 -0.0013 -0.8384
   69MOL0     C 9039  12.180   9.612  10.280 -0.1003  0.2764  0.3666
   69MOL0     C 9040  12.208   9.493  10.294 -1.2115 -0.2066  0.0090
   69MOL0     C 9041  11.579   9.896   9.958 -0.7331  0.2905 -0.0380
   69MOL0     C 9042  11.449   9.938   9.930  0.1395 -0.8465 -0.3513
   69MOL0     H 9043  10.965  10.004   9.917 -1.3771  0.3810 -0.0788
   69MOL0     H 9044  10.770  10.097   9.787  0.0396  0.9347 -2.5788
   69MOL0     H 9045  10.781  10.474   9.549  0.2210  0.2120  0.1107
   69MOL0     H 9046  10.736  10.479   9.728 -2.3196 -2.5034  1.4537
   69MOL0     H 9047  10.551  10.530   9.572 -1.9288 -0.1300 -0.1934
   69MOL0     H 9048  10.519  10.391   9.681  1.1247 -1.6716  0.1779
   69MOL0     H 9049  10.592  10.249   9.478 -0.8398  0.0371 -0.9781
   69MOL0     H 9050  10.615  10.398   9.392  0.5762  0.3167 -0.0870
   69MOL0     H 9051  10.358  10.264   9.494  0.7567 -1.4798 -1.9877
   69MOL0     H 9052  10.353  10.429   9.471 -0.7578  0.4754 -1.9107
   69MOL0     H 9053  10.440  10.401   9.229  1.0294 -0.4411  2.3512
   69MOL0     H 9054  10.278  10.365   9.266  0.7417  0.7002 -1.8807
   69MOL0     H 9055  10.514  10.159   9.261 -0.2302  0.4736  1.1726
   69MOL0     H 9056  10.415  10.193   9.121  1.8394  3.1208 -0.1583
   69MOL0     H 9057  10.329   9.982   9.258 -2.0659  0.0451 -0.6901
   69MOL0     H 9058  10.308  10.082   9.406  1.9147  0.5223 -0.7701
   69MOL0     H 9059  10.154  10.151   9.145  1.3515 -0.8958  0.3622
   69MOL0     H 9060  10.131  10.219   9.300  2.7960  0.7712  0.4672
   69MOL0     H 9061  10.031   9.912   9.106 -2.5797 -1.5995 -2.1922
   69MOL0     H 9062   9.788   9.711   9.347 -0.9343  2.0597 -0.2850
   69MOL0     H 9063   9.886   9.672   9.210 -1.2941  0.7155 -2.7015
   69MOL0     H 9064   9.751   9.837   9.076 -1.7087 -1.1478 -1.4524
   69MOL0     H 9065   9.638   9.853   9.214 -0.7167 -2.7047  2.8191
   69MOL0     H 9066   9.681   9.635   9.015  1.9405 -0.0489  0.7897
   69MOL0     H 9067   9.617   9.587   9.178  3.2086 -2.6818 -2.6743
   69MOL0     H 9068   9.503   9.808   8.986 -0.2265 -0.5005 -1.4088
   69MOL0     H 9069   9.436   9.754   9.144 -1.1475 -1.3285 -0.2059
   69MOL0     H 9070   9.195   9.698   8.938  0.6719  2.8493  2.6974
   69MOL0     H 9071   8.984   9.594   9.039 -0.5892 -2.4568 -2.9782
   69MOL0     H 9072   8.654   9.451   9.086 -1.9019 -0.3980 -1.3890
   69MOL0     H 9073   8.417   9.367   9.129  0.5972 -0.1979 -0.0079
   69MOL0     H 9074   8.224   9.296   9.185  1.5284  2.2875 -0.0135
   69MOL0     H 9075   8.261   9.348   9.339 -0.2912  0.7090 -1.1394
   69MOL0     H 9076   8.034   9.270   9.338 -0.3405  0.8478  1.2491
   69MOL0     H 9077   8.108   9.151   9.435  1.2635  0.7275 -0.3812
   69MOL0     H 9078   8.132   9.007   9.223 -1.5278 -1.0855  0.8196
   69MOL0     H 9079   8.026   9.121   9.140  0.5419  2.5968  0.8813
   69MOL0     H 9080   7.968   8.959   9.404  1.7412 -0.2556 -0.4047
   69MOL0     H 9081   7.848   9.048   9.298 -1.4844 -0.9959  1.3313
   69MOL0     H 9082   8.009   8.788   9.225  0.5975  0.0892  2.8192
   69MOL0     H 9083   7.908   8.881   9.115 -0.8940 -2.3260 -0.3591
   69MOL0     H 9084   7.710   8.851   9.295  1.1858  1.8219 -2.1039
   69MOL0     H 9085   7.803   8.743   9.377 -1.3591  2.8849  1.0832
   69MOL0     H 9086   7.797   8.661   9.086  1.5024 -2.4103 -0.2846
   69MOL0     H 9087   7.809   8.576   9.238 -1.5266 -0.6787 -0.2886
   69MOL0     H 9088   7.575   8.549   9.104 -2.0358  1.7456 -0.8535
   69MOL0     H 9089   7.542   8.700   9.184 -1.4381 -0.2175  2.7089
   69MOL0     H 9090   8.573   9.119   9.422 -0.6307 -1.9149 -1.8301
   69MOL0     H 9091   8.794   9.198   9.384 -1.0383  1.0740  2.3896
   69MOL0     H 9092   9.239   9.324   9.268  0.5334 -1.0743 -1.0864
   69MOL0     H 9093   9.438   9.435   9.154  0.2532  3.7034  0.3162
   69MOL0     H 9094  11.012  10.415   9.647  2.0639  0.4745  1.3081
   69MOL0     H 9095  11.211  10.322   9.760  0.8945 -1.3549  1.8771
   69MOL0     H 9096  11.323   9.937  10.235  0.9071  0.3434  0.3262
   69MOL0     H 9097  11.546   9.884  10.301 -1.4451  0.7508  1.0243
   69MOL0     H 9098  11.835   9.986  10.004 -1.0035 -0.3172  0.1941
   69MOL0     H 9099  11.888   9.821   9.957  1.5530 -2.6849  3.4724
   69MOL0     H 9100  12.061   9.931  10.059 -0.4078 -1.4495 -1.8148
   69MOL0     H 9101  11.963   9.938  10.214 -0.2916 -0.7251 -0.8183
   69MOL0     H 9102  12.074   9.703  10.052 -0.8138 -0.6527 -0.0134
   69MOL0     H 9103  11.941   9.684  10.152 -1.5205  1.3931 -4.4926
   69MOL0     H 9104  12.211   9.807  10.222  2.9284 -3.1667  0.4244
   69MOL0     H 9105  12.082   9.759  10.350  0.5097 -4.4973  0.6625
   69MOL0     H 9106  12.236   9.391  10.279  1.6617  0.7094 -1.6292
   69MOL0     H 9107  11.650   9.865   9.881 -0.8446 -2.5379  0.8722
   69MOL0     H 9108  11.438   9.947   9.823 -0.1591 -0.7475 -0.3153
   70MOL0     O 9109   4.202   8.384   1.465 -0.0486  0.1183 -0.0201
   70MOL0     C 9110   4.238   8.336   1.573  0.7178 -0.8517  0.9311
   70MOL0     O 9111   4.168   8.330   1.685 -0.4339  0.9351 -0.2790
   70MOL0     C 9112   4.031   8.318   1.699 -0.6950  0.3698  0.7577
   70MOL0     C 9113   3.984   8.349   1.824  0.3757 -0.0569 -0.0609
   70MOL0     C 9114   3.842   8.342   1.848 -0.7385  0.1899  1.0509
   70MOL0     C 9115   3.753   8.325   1.747 -0.8402  0.8249  0.2795
   70MOL0     O 9116   3.614   8.318   1.774  0.0182  0.5565  0.4353
   70MOL0     C 9117   3.513   8.291   1.667  0.0394 -0.1972 -0.3741
   70MOL0     C 9118   3.379   8.340   1.709  0.5543  0.2001 -0.1592
   70MOL0     C 9119   3.272   8.309   1.614  0.5572 -0.7226  0.4266
   70MOL0     C 9120   3.241   8.154   1.618  0.2706 -0.0798  0.7772
   70MOL0     C 9121   3.097   8.120   1.592  1.1845 -0.9572 -0.5405
   70MOL0     C 9122   3.047   8.152   1.450 -0.1954 -0.4316 -0.4833
   70MOL0     C 9123   2.900   8.113   1.430  0.5231  0.2411 -0.6325
   70MOL0     C 9124   2.873   7.964   1.436 -1.0947 -0.5460  0.3658
   70MOL0     N 9125   2.731   7.946   1.417  0.0688 -0.9419 -0.5066
   70MOL0     C 9126   2.667   7.945   1.294  0.2035 -0.1410  0.0217
   70MOL0     C 9127   2.542   7.917   1.321 -0.5508 -0.5769 -0.5390
   70MOL0     C 9128   2.439   7.874   1.212 -0.0770 -1.0423  0.3423
   70MOL0     C 9129   2.295   7.891   1.252 -0.0380  0.6197 -0.5396
   70MOL0     C 9130   2.192   7.809   1.188  0.2290  0.1340  0.0359
   70MOL0     C 9131   2.055   7.835   1.257 -0.5610  0.2034  0.4366
   70MOL0     O 9132   1.960   7.749   1.194  0.4983  0.3071  1.0166
   70MOL0     C 9133   1.921   7.629   1.251  0.5700 -0.6949  0.4135
   70MOL0     C 9134   1.819   7.567   1.191  0.3165  0.0515  0.3184
   70MOL0     C 9135   1.770   7.446   1.244  0.8224  0.3511 -0.7815
   70MOL0     C 9136   1.831   7.386   1.357  0.6457 -0.5599 -0.1971
   70MOL0     C 9137   1.785   7.251   1.400 -0.5233 -0.2167  0.8873
   70MOL0     O 9138   1.651   7.219   1.357 -0.4815  0.6441  0.1479
   70MOL0     C 9139   1.592   7.101   1.399  0.3841  0.7408 -0.1860
   70MOL0     C 9140   1.473   7.072   1.336  0.0904 -0.4427 -0.4144
   70MOL0     C 9141   1.403   6.954   1.368 -0.5407  0.0927  0.0302
   70MOL0     C 9142   1.446   6.867   1.467  0.4825 -0.1544  0.1126
   70MOL0     O 9143   1.356   6.769   1.497 -0.5817  0.0592 -0.1900
   70MOL0     C 9144   1.380   6.701   1.620  0.7135 -0.0477  0.4366
   70MOL0     C 9145   1.284   6.581   1.628  0.5203 -0.3496 -0.6406
   70MOL0     C 9146   1.165   6.589   1.535 -0.0560  1.1193 -0.1856
   70MOL0     C 9147   1.056   6.480   1.554  0.0423 -0.8881 -0.3337
   70MOL0     C 9148   0.947   6.507   1.451 -0.1845 -0.2930 -0.3534
   70MOL0     C 9149   0.839   6.393   1.438  0.0387  0.4013  0.7036
   70MOL0     C 9150   0.782   6.338   1.573  0.0065 -0.2020  0.0205
   70MOL0     C 9151   0.692   6.218   1.538  0.4859  0.3889  0.3420
   70MOL0    Cl 9152   0.538   6.274   1.465  0.1194  0.1357  0.4193
   70MOL0     C 9153   1.565   6.892   1.533  0.0360 -0.9642  0.2668
   70MOL0     C 9154   1.646   7.007   1.495 -0.7131  0.8782  0.1078
   70MOL0     O 9155   1.866   7.178   1.456 -0.2959 -0.2446 -0.3773
   70MOL0     C 9156   1.944   7.456   1.419  0.1226  0.4333 -0.4503
   70MOL0     C 9157   1.994   7.575   1.359  0.6692 -0.5305 -0.5028
   70MOL0     N 9158   2.525   7.916   1.455  0.5963 -0.0850  0.2615
   70MOL0     N 9159   2.632   7.936   1.516 -0.8302 -0.3064  0.1422
   70MOL0     C 9160   3.810   8.283   1.619  0.3280 -0.0424 -0.6939
   70MOL0     C 9161   3.947   8.280   1.594 -0.1612 -0.6911 -0.2195
   70MOL0     C 9162   4.380   8.304   1.589  0.9230 -0.5188 -0.5690
   70MOL0     C 9163   4.459   8.264   1.479 -0.2580  1.1131  0.6748
   70MOL0     C 9164   4.594   8.243   1.483 -0.2533  0.3264 -0.2761
   70MOL0     C 9165   4.658   8.246   1.605  0.1342  0.5011 -0.3616
   70MOL0     O 9166   4.781   8.205   1.623  0.0993  0.2731  0.5225
   70MOL0     C 9167   4.866   8.139   1.517  0.2563 -0.0522  0.0385
   70MOL0     C 9168   4.896   8.000   1.584 -0.4270  0.0656  0.9583
   70MOL0     C 9169   5.015   7.934   1.522  0.5474 -0.4525  0.2799
   70MOL0     C 9170   5.035   7.794   1.579 -1.0738  0.3935  0.0834
   70MOL0     C 9171   5.142   7.729   1.508  1.0357  0.4027  0.0392
   70MOL0     C 9172   5.219   7.659   1.451 -0.1721 -0.8181 -0.0795
   70MOL0     C 9173   4.579   8.287   1.713 -0.9790  0.2558 -0.1503
   70MOL0     C 9174   4.444   8.309   1.709  0.4875 -0.3555  0.3208
   70MOL0     H 9175   4.065   8.371   1.893  1.7118  0.2524 -1.6664
   70MOL0     H 9176   3.804   8.367   1.946  3.0687  1.4997  2.3896
   70MOL0     H 9177   3.518   8.184   1.646 -1.4297  0.2367 -3.5366
   70MOL0     H 9178   3.537   8.349   1.577  2.0115  1.8768  1.3322
   70MOL0     H 9179   3.379   8.449   1.720 -0.7340  0.3069 -0.9129
   70MOL0     H 9180   3.344   8.306   1.807 -0.4863 -3.1200 -1.5165
   70MOL0     H 9181   3.293   8.340   1.511 -0.9740 -1.8890 -0.2836
   70MOL0     H 9182   3.178   8.363   1.633  0.1889 -1.0676 -0.3625
   70MOL0     H 9183   3.299   8.113   1.536 -2.3171  0.8196 -1.6589
   70MOL0     H 9184   3.268   8.111   1.715 -1.5694 -2.6688  0.2496
   70MOL0     H 9185   3.036   8.183   1.658  2.1787 -0.0954 -0.4152
   70MOL0     H 9186   3.097   8.015   1.624  2.3268 -1.2103 -1.3164
   70MOL0     H 9187   3.107   8.096   1.378  2.0270  2.0949 -0.7504
   70MOL0     H 9188   3.048   8.259   1.424  1.7717 -0.6020 -1.2145
   70MOL0     H 9189   2.832   8.169   1.495 -1.4195  0.2305 -2.4904
   70MOL0     H 9190   2.862   8.126   1.328 -0.0631 -1.4422 -0.6705
   70MOL0     H 9191   2.887   7.914   1.532 -0.3151 -1.5323 -0.2323
   70MOL0     H 9192   2.940   7.906   1.371  1.7736  0.7406  1.9744
   70MOL0     H 9193   2.712   7.959   1.196 -2.7353 -0.0086 -1.4275
   70MOL0     H 9194   2.450   7.769   1.180 -1.4646 -0.6481 -1.6287
   70MOL0     H 9195   2.462   7.934   1.123  1.0826 -2.5832 -0.4467
   70MOL0     H 9196   2.267   7.996   1.254  0.0813  0.6876 -1.7543
   70MOL0     H 9197   2.285   7.866   1.358 -3.5797  1.0981 -0.6398
   70MOL0     H 9198   2.185   7.826   1.080  1.5421 -1.2945 -0.3096
   70MOL0     H 9199   2.214   7.703   1.201  2.5600  0.3743 -1.3387
   70MOL0     H 9200   2.023   7.936   1.227  1.9600  0.8186 -0.4274
   70MOL0     H 9201   2.052   7.824   1.365 -1.0142 -0.5834  0.3529
   70MOL0     H 9202   1.773   7.622   1.111 -0.3376 -2.4407 -1.1390
   70MOL0     H 9203   1.683   7.404   1.194  1.1336  0.0664 -1.0935
   70MOL0     H 9204   1.445   7.137   1.254 -1.5925  0.3416  0.7193
   70MOL0     H 9205   1.317   6.933   1.305  1.0263  1.0953 -2.6016
   70MOL0     H 9206   1.359   6.777   1.696 -0.7497  0.7861 -0.7351
   70MOL0     H 9207   1.480   6.662   1.640 -0.0707 -3.0353 -0.9098
   70MOL0     H 9208   1.251   6.564   1.731 -0.9878  0.1765 -1.0051
   70MOL0     H 9209   1.334   6.487   1.605  0.7665 -0.6165  0.9135
   70MOL0     H 9210   1.219   6.567   1.442 -1.4789 -0.3274 -0.7216
   70MOL0     H 9211   1.124   6.690   1.523 -3.7479 -0.1682  0.3116
   70MOL0     H 9212   1.104   6.383   1.534 -0.5637 -1.4560  0.8477
   70MOL0     H 9213   1.012   6.497   1.653  1.0376  0.3614 -0.0763
   70MOL0     H 9214   1.002   6.511   1.357  1.2294  2.4781  0.5003
   70MOL0     H 9215   0.896   6.600   1.477  0.9479  0.5062 -0.9309
   70MOL0     H 9216   0.874   6.302   1.388  0.3278 -1.0741  3.4080
   70MOL0     H 9217   0.757   6.430   1.376 -0.8454 -2.7374 -0.2225
   70MOL0     H 9218   0.867   6.338   1.642 -0.5494  0.3977  0.7187
   70MOL0     H 9219   0.719   6.416   1.617  0.4633 -1.1639  2.5389
   70MOL0     H 9220   0.673   6.169   1.634 -0.1266  1.0550  0.5705
   70MOL0     H 9221   0.737   6.141   1.476 -0.5239 -2.1166  2.5370
   70MOL0     H 9222   1.591   6.832   1.619  1.7107  1.7188  1.7737
   70MOL0     H 9223   1.735   7.011   1.558 -1.2390  0.0280  0.9359
   70MOL0     H 9224   1.989   7.404   1.504  1.7610 -1.0697 -2.1492
   70MOL0     H 9225   2.078   7.631   1.398 -1.0878 -0.1788  3.1952
   70MOL0     H 9226   3.753   8.259   1.530 -0.3307  2.1526 -0.9169
   70MOL0     H 9227   3.989   8.259   1.496  2.1886 -1.3554  0.8541
   70MOL0     H 9228   4.427   8.272   1.375  0.2940 -4.3836 -0.2250
   70MOL0     H 9229   4.648   8.204   1.398 -0.8241 -1.5829  0.1947
   70MOL0     H 9230   4.963   8.188   1.509  0.4707 -0.7872 -2.9261
   70MOL0     H 9231   4.826   8.136   1.416 -1.4727 -0.9041  0.7029
   70MOL0     H 9232   4.924   8.030   1.685  2.1211 -0.2200  0.3987
   70MOL0     H 9233   4.811   7.930   1.586 -0.8483  0.5446  0.2127
   70MOL0     H 9234   5.100   7.998   1.546  1.1589 -0.9790 -0.4334
   70MOL0     H 9235   5.002   7.912   1.415  3.2221 -1.8517  0.1442
   70MOL0     H 9236   5.056   7.807   1.685 -3.6861  1.0387  0.6003
   70MOL0     H 9237   4.948   7.727   1.578 -1.5687  1.0230  0.5620
   70MOL0     H 9238   5.290   7.596   1.400  0.2353 -0.7283  0.3656
   70MOL0     H 9239   4.624   8.304   1.810  0.5030  2.3209 -1.1326
   70MOL0     H 9240   4.390   8.347   1.796 -0.3217 -0.2225 -0.2319
   71MOL0     O 9241   6.079   6.898   5.397  0.7177 -0.7256 -0.2427
   71MOL0     C 9242   6.053   6.928   5.280  0.8343  0.8150 -0.4485
   71MOL0     O 9243   5.936   6.967   5.234 -1.0548  0.0263  0.1876
   71MOL0     C 9244   5.840   6.992   5.323 -0.2871 -0.0691 -0.0881
   71MOL0     C 9245   5.786   7.120   5.317 -0.1567  0.1251  0.1640
   71MOL0     C 9246   5.672   7.154   5.375  0.5550  1.0062 -0.3311
   71MOL0     C 9247   5.608   7.057   5.462 -0.4190  0.5022  0.3716
   71MOL0     O 9248   5.489   7.096   5.519  0.0135  0.2710  0.0258
   71MOL0     C 9249   5.382   7.097   5.433  0.0502  0.2268 -0.1372
   71MOL0     C 9250   5.274   7.163   5.526  0.4855  0.4106 -0.7602
   71MOL0     C 9251   5.138   7.128   5.458 -0.1736 -0.4445  0.2692
   71MOL0     C 9252   5.020   7.196   5.517  0.6058  0.1399  1.3114
   71MOL0     C 9253   4.887   7.124   5.481  0.1507 -0.0138  0.1407
   71MOL0     C 9254   4.767   7.211   5.503 -0.4921 -0.6806  0.1005
   71MOL0     C 9255   4.630   7.134   5.498  0.7300 -0.2603  0.1600
   71MOL0     C 9256   4.512   7.246   5.494 -0.7540 -0.5303  0.3450
   71MOL0     N 9257   4.390   7.187   5.546 -0.0440 -0.2134  0.3390
   71MOL0     C 9258   4.295   7.112   5.475 -0.9973  0.3246 -0.9036
   71MOL0     C 9259   4.176   7.128   5.551  0.1150 -0.7690  0.0953
   71MOL0     C 9260   4.050   7.055   5.513 -0.0166 -0.6797 -0.3402
   71MOL0     C 9261   3.953   7.055   5.630  0.4000  0.0446 -0.7936
   71MOL0     C 9262   3.836   6.967   5.609  0.6341  0.9759 -0.0210
   71MOL0     C 9263   3.743   6.948   5.735 -0.3526 -0.4122  1.1295
   71MOL0     O 9264   3.615   6.891   5.699 -0.1118  0.4467 -0.3235
   71MOL0     C 9265   3.502   6.974   5.690 -0.3619 -0.3612 -0.9940
   71MOL0     C 9266   3.504   7.114   5.672  0.2873  0.2868 -0.1290
   71MOL0     C 9267   3.399   7.197   5.690  0.0914 -0.1471  0.1058
   71MOL0     C 9268   3.280   7.144   5.737  0.1259  0.8344  0.1133
   71MOL0     C 9269   3.161   7.225   5.763 -1.0290  0.2222 -0.1069
   71MOL0     O 9270   3.057   7.143   5.802  0.6796 -0.4689 -0.2917
   71MOL0     C 9271   2.928   7.196   5.805  1.0165  0.0202  0.3937
   71MOL0     C 9272   2.825   7.102   5.817 -0.5653 -0.1682 -0.0371
   71MOL0     C 9273   2.689   7.139   5.820 -0.4141  1.3012 -0.9402
   71MOL0     C 9274   2.650   7.273   5.809  0.1105 -0.3208  0.4980
   71MOL0     O 9275   2.519   7.299   5.805  0.0658 -0.7902  0.1835
   71MOL0     C 9276   2.472   7.429   5.753 -1.1994 -0.7726  0.5794
   71MOL0     C 9277   2.325   7.416   5.711  0.2600 -0.6587 -0.5315
   71MOL0     C 9278   2.228   7.424   5.837  0.2124 -0.0981 -0.6917
   71MOL0     C 9279   2.088   7.374   5.797  0.1002  0.3083  0.6984
   71MOL0     C 9280   1.998   7.384   5.921  0.5967 -0.3055  0.6240
   71MOL0     C 9281   1.865   7.321   5.889 -0.8550  0.4449 -0.1606
   71MOL0     C 9282   1.755   7.355   5.994 -0.1056  0.0064  0.6947
   71MOL0     C 9283   1.673   7.477   5.947 -0.2282 -0.2951 -0.6016
   71MOL0    Cl 9284   1.563   7.533   6.071 -0.1056 -0.2163  0.3815
   71MOL0     C 9285   2.755   7.365   5.810  0.0774  0.5170  0.5347
   71MOL0     C 9286   2.888   7.332   5.798 -0.0490 -0.2207  0.7306
   71MOL0     O 9287   3.162   7.347   5.752  0.0552 -0.0593 -0.0846
   71MOL0     C 9288   3.273   6.999   5.755  0.3351  0.4588  0.5106
   71MOL0     C 9289   3.377   6.913   5.725 -0.3728 -0.4363 -0.6128
   71MOL0     N 9290   4.211   7.215   5.654 -0.4527  0.2397 -0.0199
   71MOL0     N 9291   4.330   7.249   5.652  0.0580  0.2034 -0.2062
   71MOL0     C 9292   5.667   6.932   5.483 -0.4586  0.1523  0.7499
   71MOL0     C 9293   5.779   6.899   5.409  0.5795  0.4632 -0.0348
   71MOL0     C 9294   6.167   6.918   5.189 -0.2194 -0.0952  0.1341
   71MOL0     C 9295   6.269   6.826   5.212  0.1922 -0.0166 -0.4577
   71MOL0     C 9296   6.385   6.802   5.124  0.5897  0.6398 -0.3826
   71MOL0     C 9297   6.390   6.882   5.006 -0.7974 -0.5189  0.0446
   71MOL0     O 9298   6.497   6.882   4.926  0.0169 -0.3416 -0.5096
   71MOL0     C 9299   6.626   6.825   4.956 -0.1365  0.8373 -0.0669
   71MOL0     C 9300   6.706   6.914   5.049 -0.5425  0.5115 -0.3427
   71MOL0     C 9301   6.813   6.830   5.135 -0.3740 -0.4817 -0.5273
   71MOL0     C 9302   6.754   6.757   5.262 -0.1051  0.0540  0.6963
   71MOL0     C 9303   6.859   6.699   5.347  0.5693 -0.1087  0.3074
   71MOL0     C 9304   6.941   6.674   5.432  0.7747  1.2064  1.1877
   71MOL0     C 9305   6.292   6.978   4.983 -0.2332 -0.3619 -1.7253
   71MOL0     C 9306   6.174   6.987   5.065  0.2557 -0.3004  0.7156
   71MOL0     H 9307   5.828   7.208   5.270  0.3903 -0.3093 -0.1643
   71MOL0     H 9308   5.620   7.249   5.378 -1.5956 -0.0972 -0.2398
   71MOL0     H 9309   5.357   6.996   5.399 -1.1630  0.1631  0.8522
   71MOL0     H 9310   5.389   7.155   5.341 -1.5652  1.4504  0.4678
   71MOL0     H 9311   5.296   7.270   5.527  1.3452  0.2457 -1.1419
   71MOL0     H 9312   5.272   7.122   5.628  2.9720  1.2647 -0.2854
   71MOL0     H 9313   5.118   7.021   5.455 -3.9859  0.1190 -2.8674
   71MOL0     H 9314   5.133   7.160   5.353  0.4663 -0.5009  0.2176
   71MOL0     H 9315   5.021   7.204   5.626  0.4983 -0.8582  1.3960
   71MOL0     H 9316   5.017   7.295   5.470 -0.1696  1.0492  3.1867
   71MOL0     H 9317   4.873   7.032   5.539 -0.3478 -1.3997 -2.0469
   71MOL0     H 9318   4.890   7.095   5.375  1.5620  1.2315 -0.1970
   71MOL0     H 9319   4.769   7.293   5.431 -2.0071 -0.0618  0.7199
   71MOL0     H 9320   4.779   7.255   5.603  3.9938  1.3859 -1.0770
   71MOL0     H 9321   4.619   7.085   5.400 -1.6012 -2.3713  1.3558
   71MOL0     H 9322   4.624   7.073   5.588 -3.2344  0.0928  0.2872
   71MOL0     H 9323   4.497   7.288   5.394  0.0459 -0.2696  0.3220
   71MOL0     H 9324   4.542   7.327   5.561 -0.8158 -0.0764 -0.1700
   71MOL0     H 9325   4.304   7.033   5.401  0.6637  1.5746 -2.0966
   71MOL0     H 9326   4.081   6.951   5.501  0.2412 -0.6814  0.3271
   71MOL0     H 9327   4.001   7.095   5.423  3.4036 -0.9388 -2.4994
   71MOL0     H 9328   3.909   7.154   5.648  0.4415 -0.1877  0.7084
   71MOL0     H 9329   4.000   7.026   5.724 -0.0485  0.0065 -0.5754
   71MOL0     H 9330   3.774   7.015   5.532  4.8745  2.5389 -2.8809
   71MOL0     H 9331   3.869   6.868   5.575  1.5670  0.5667  1.9455
   71MOL0     H 9332   3.737   7.049   5.777  2.0855  1.3597 -2.2874
   71MOL0     H 9333   3.793   6.881   5.805  0.7495  1.4898  2.2630
   71MOL0     H 9334   3.592   7.175   5.651 -0.5221  1.0547 -1.4916
   71MOL0     H 9335   3.423   7.301   5.669  0.6813 -0.4424 -0.7401
   71MOL0     H 9336   2.862   7.001   5.831 -0.2475  0.3520  4.2565
   71MOL0     H 9337   2.615   7.060   5.825 -0.2178  1.1658  0.3380
   71MOL0     H 9338   2.527   7.449   5.660 -2.2574  0.3505  0.1792
   71MOL0     H 9339   2.495   7.514   5.818 -1.2287  0.8796 -1.4676
   71MOL0     H 9340   2.312   7.315   5.672  2.0750 -0.9285 -0.5191
   71MOL0     H 9341   2.301   7.497   5.642 -0.4945  1.2657  1.8342
   71MOL0     H 9342   2.234   7.529   5.867  1.5823  0.2049 -1.9384
   71MOL0     H 9343   2.263   7.363   5.921 -2.4292  0.0406  0.5937
   71MOL0     H 9344   2.046   7.437   5.718 -2.0934  0.7304  2.1302
   71MOL0     H 9345   2.086   7.266   5.777 -0.3788  0.0549  2.0518
   71MOL0     H 9346   1.982   7.490   5.943  2.6352  1.3860 -4.5827
   71MOL0     H 9347   2.040   7.335   6.009 -0.1732 -0.4273  0.9323
   71MOL0     H 9348   1.874   7.213   5.875 -1.5386  0.5736 -1.8136
   71MOL0     H 9349   1.829   7.353   5.791 -0.6813  1.2842  0.0374
   71MOL0     H 9350   1.685   7.272   6.007  0.5201 -1.1753 -2.5869
   71MOL0     H 9351   1.795   7.378   6.094 -1.7403  0.9442  1.1770
   71MOL0     H 9352   1.618   7.449   5.856  4.5301 -2.5479 -3.1456
   71MOL0     H 9353   1.739   7.561   5.922 -1.8887  2.7210  3.9519
   71MOL0     H 9354   2.730   7.470   5.815 -2.1902 -0.0269  2.0078
   71MOL0     H 9355   2.953   7.417   5.779 -0.7865  0.6848  2.1109
   71MOL0     H 9356   3.194   6.930   5.782 -0.0752 -0.6249 -2.9741
   71MOL0     H 9357   3.360   6.810   5.752 -0.8619  0.6588  4.1929
   71MOL0     H 9358   5.600   6.862   5.531  1.8668 -1.6583  1.5021
   71MOL0     H 9359   5.817   6.797   5.401  1.9025  1.0812 -2.6367
   71MOL0     H 9360   6.263   6.766   5.302 -0.2115 -0.1674 -0.5826
   71MOL0     H 9361   6.463   6.729   5.138  0.2937  0.0565 -1.5670
   71MOL0     H 9362   6.678   6.820   4.860 -1.8450  2.0345 -1.1054
   71MOL0     H 9363   6.621   6.724   4.996 -1.5460  1.1019  0.4811
   71MOL0     H 9364   6.759   6.986   4.985 -1.3413 -0.1581 -1.8194
   71MOL0     H 9365   6.648   6.971   5.122  0.8186 -1.4979  2.4675
   71MOL0     H 9366   6.888   6.902   5.169  1.6336 -1.9375 -1.6707
   71MOL0     H 9367   6.867   6.764   5.066  1.3294  0.7881 -0.4800
   71MOL0     H 9368   6.692   6.824   5.323  1.2163  0.1026  2.0492
   71MOL0     H 9369   6.698   6.672   5.220 -0.7432  0.2113  1.2013
   71MOL0     H 9370   7.024   6.671   5.500  2.4038  0.3544 -0.7412
   71MOL0     H 9371   6.302   7.041   4.896  2.9742  4.5994  1.7119
   71MOL0     H 9372   6.083   7.038   5.037 -0.3307  0.2025  3.2937
   72MOL0     O 9373   5.557   0.864   1.033 -0.2660  0.6890  0.7547
   72MOL0     C 9374   5.585   0.833   0.919 -0.4570 -0.8331  0.1506
   72MOL0     O 9375   5.680   0.896   0.840 -0.4392 -0.4871  0.3974
   72MOL0     C 9376   5.776   0.966   0.900 -0.2522 -0.5375 -0.0375
   72MOL0     C 9377   5.757   1.105   0.933  0.2182  0.3873  0.3184
   72MOL0     C 9378   5.856   1.172   0.991 -1.0084 -1.1897  0.1624
   72MOL0     C 9379   5.986   1.119   1.011  1.4459  1.2387 -0.2631
   72MOL0     O 9380   6.072   1.204   1.081  0.1404 -0.1347  0.1713
   72MOL0     C 9381   6.210   1.179   1.077  0.1620 -0.4101  0.0301
   72MOL0     C 9382   6.288   1.294   1.145  0.2928  0.3975 -0.2729
   72MOL0     C 9383   6.416   1.240   1.202 -0.5248 -0.0403 -0.0787
   72MOL0     C 9384   6.503   1.172   1.097 -0.3076 -0.5505 -0.2410
   72MOL0     C 9385   6.637   1.135   1.161 -0.0728  0.1440 -0.4221
   72MOL0     C 9386   6.640   1.011   1.249  0.7755  0.6223  0.5305
   72MOL0     C 9387   6.782   0.974   1.296 -0.6354 -0.6554  0.0318
   72MOL0     C 9388   6.833   1.084   1.391 -0.2901 -1.1395 -0.4361
   72MOL0     N 9389   6.971   1.044   1.404 -0.1936  0.0111  0.1679
   72MOL0     C 9390   7.014   0.947   1.494  0.1569 -0.9573 -0.2037
   72MOL0     C 9391   7.153   0.948   1.477 -0.2606 -0.7844  0.2556
   72MOL0     C 9392   7.245   0.847   1.542 -0.3455  0.1661 -0.7101
   72MOL0     C 9393   7.222   0.697   1.498 -0.0303  0.3855  1.1920
   72MOL0     C 9394   7.227   0.668   1.345 -0.6387  0.0903  0.4876
   72MOL0     C 9395   7.095   0.601   1.306 -0.0845  0.2172  0.4095
   72MOL0     O 9396   7.093   0.587   1.165  0.4691 -0.6838  0.5356
   72MOL0     C 9397   7.030   0.477   1.120 -0.1727  1.1410 -0.3727
   72MOL0     C 9398   6.897   0.496   1.084  0.3950 -0.4023  0.5519
   72MOL0     C 9399   6.826   0.396   1.022  1.2143 -0.0078 -0.5136
   72MOL0     C 9400   6.875   0.262   1.007 -0.3692 -0.8207 -0.7999
   72MOL0     C 9401   6.797   0.161   0.942  0.3445  0.1938 -0.1908
   72MOL0     O 9402   6.841   0.029   0.953  0.0714 -0.5350  0.2913
   72MOL0     C 9403   6.771  -0.062   0.875 -0.1212 -0.5461 -0.4500
   72MOL0     C 9404   6.847  -0.130   0.775 -0.1574 -0.1085  0.1932
   72MOL0     C 9405   6.782  -0.228   0.698 -0.7685  0.5014 -0.4397
   72MOL0     C 9406   6.637  -0.237   0.698 -0.5045  0.4877 -0.1074
   72MOL0     O 9407   6.559  -0.303   0.606 -0.4450 -0.1209 -0.1377
   72MOL0     C 9408   6.619  -0.391   0.509  0.0653  0.6203 -0.2699
   72MOL0     C 9409   6.505  -0.470   0.443 -0.7124  0.5074  0.5972
   72MOL0     C 9410   6.435  -0.564   0.531  1.0700  0.3086 -0.6748
   72MOL0     C 9411   6.503  -0.701   0.551  0.3582  0.4201 -0.6756
   72MOL0     C 9412   6.427  -0.772   0.659 -0.5362  0.4798 -0.1948
   72MOL0     C 9413   6.467  -0.921   0.675  1.3972  0.7426 -0.3469
   72MOL0     C 9414   6.433  -1.013   0.558 -0.4330  0.0559 -0.2189
   72MOL0     C 9415   6.404  -1.152   0.610 -0.1288  0.3705  0.1274
   72MOL0    Cl 9416   6.248  -1.153   0.693 -0.0339 -0.5409  0.0200
   72MOL0     C 9417   6.565  -0.162   0.785  0.0070 -0.0034 -0.3922
   72MOL0     C 9418   6.630  -0.082   0.875 -0.2738 -0.1064  0.0162
   72MOL0     O 9419   6.701   0.195   0.872  0.4646 -0.3840 -0.4142
   72MOL0     C 9420   7.009   0.248   1.043 -0.2530  0.0085 -0.8285
   72MOL0     C 9421   7.091   0.353   1.099  0.3734 -0.0469 -0.0864
   72MOL0     N 9422   7.186   1.043   1.380  1.0571 -0.8131 -0.7371
   72MOL0     N 9423   7.074   1.102   1.341 -0.3516 -0.1432  0.3026
   72MOL0     C 9424   6.003   0.986   0.975  0.3315  0.5021  0.7018
   72MOL0     C 9425   5.899   0.913   0.922 -0.7515  0.7731 -0.7555
   72MOL0     C 9426   5.518   0.716   0.870  0.5070  0.1422  0.6733
   72MOL0     C 9427   5.575   0.647   0.764  0.3702  0.2152 -1.0432
   72MOL0     C 9428   5.512   0.538   0.716 -0.2559  0.5878  0.1100
   72MOL0     C 9429   5.399   0.474   0.785 -0.3795  0.7487 -0.0223
   72MOL0     O 9430   5.352   0.340   0.765  0.3899 -0.5744 -0.2477
   72MOL0     C 9431   5.416   0.247   0.678  0.5179 -0.0259  0.2168
   72MOL0     C 9432   5.518   0.164   0.763 -0.4575  0.9112  0.4998
   72MOL0     C 9433   5.474   0.072   0.879  0.1213 -0.2451  0.2607
   72MOL0     C 9434   5.599  -0.006   0.951 -0.1799 -0.3657  0.1931
   72MOL0     C 9435   5.546  -0.115   1.041  0.1717 -0.7052  0.4781
   72MOL0     C 9436   5.502  -0.190   1.129 -0.6099  0.0262 -0.6217
   72MOL0     C 9437   5.340   0.548   0.885 -0.3178 -0.4923  0.7839
   72MOL0     C 9438   5.395   0.669   0.926 -0.1161 -0.7361 -0.4186
   72MOL0     H 9439   5.663   1.155   0.912  0.1163  0.1630  0.2336
   72MOL0     H 9440   5.828   1.269   1.030  0.7950 -0.2507 -0.7271
   72MOL0     H 9441   6.233   1.180   0.970 -1.3569 -0.2301 -0.3199
   72MOL0     H 9442   6.238   1.077   1.104  0.8080 -1.1058 -2.9276
   72MOL0     H 9443   6.235   1.345   1.225 -0.1604 -1.5883  0.7514
   72MOL0     H 9444   6.308   1.376   1.076 -1.7744  4.3715  3.3600
   72MOL0     H 9445   6.395   1.164   1.278 -2.4780  1.5157  1.0610
   72MOL0     H 9446   6.472   1.326   1.240  2.6711 -1.2850 -1.6845
   72MOL0     H 9447   6.452   1.081   1.065  0.2595 -0.0826 -2.6920
   72MOL0     H 9448   6.524   1.236   1.011  0.4209 -0.1790  0.2034
   72MOL0     H 9449   6.670   1.226   1.211  2.7963  1.0107 -3.5118
   72MOL0     H 9450   6.712   1.116   1.083  2.0854 -3.4857  2.2313
   72MOL0     H 9451   6.613   0.922   1.191  0.7409  2.7701 -3.0098
   72MOL0     H 9452   6.574   1.025   1.335 -1.7676  0.2400 -1.2203
   72MOL0     H 9453   6.776   0.882   1.354  2.1985 -1.6578 -1.0661
   72MOL0     H 9454   6.848   0.942   1.215 -2.5719 -2.0077 -1.0942
   72MOL0     H 9455   6.771   1.091   1.481 -0.6795  1.8823 -0.8064
   72MOL0     H 9456   6.830   1.185   1.348 -1.0916 -1.6364 -1.5853
   72MOL0     H 9457   6.948   0.892   1.561  1.8442 -2.1163  0.5627
   72MOL0     H 9458   7.248   0.860   1.650 -0.1479  3.6935 -1.0064
   72MOL0     H 9459   7.347   0.882   1.521 -0.2113  0.3184  0.1395
   72MOL0     H 9460   7.131   0.663   1.548  0.6515  0.8267  2.7961
   72MOL0     H 9461   7.308   0.638   1.530  0.8408  0.7381 -0.3914
   72MOL0     H 9462   7.243   0.758   1.286 -0.6293  0.6929  1.3936
   72MOL0     H 9463   7.300   0.591   1.316 -2.7910 -2.1290  0.6259
   72MOL0     H 9464   7.003   0.656   1.330  0.0900  0.5758  0.2684
   72MOL0     H 9465   7.097   0.504   1.356 -5.2847  0.5176  1.7727
   72MOL0     H 9466   6.854   0.593   1.109 -0.1982 -0.9234  1.6179
   72MOL0     H 9467   6.726   0.413   0.983  2.3134  0.5043 -3.3473
   72MOL0     H 9468   6.955  -0.115   0.776 -0.4717  3.0905  2.6529
   72MOL0     H 9469   6.851  -0.283   0.635  1.8394  0.4261  2.2493
   72MOL0     H 9470   6.691  -0.455   0.562 -0.5389 -2.4574 -2.9010
   72MOL0     H 9471   6.675  -0.347   0.426  1.7323 -0.6691  0.1047
   72MOL0     H 9472   6.548  -0.514   0.353  2.0834  5.0161 -0.6113
   72MOL0     H 9473   6.425  -0.404   0.410 -1.1800  0.2212  1.1244
   72MOL0     H 9474   6.333  -0.581   0.496  0.9399 -2.8916  0.8977
   72MOL0     H 9475   6.416  -0.510   0.625 -3.4378 -1.6530 -0.2183
   72MOL0     H 9476   6.488  -0.758   0.459  0.4864 -0.3847 -0.2057
   72MOL0     H 9477   6.612  -0.697   0.565  0.6529 -0.3997 -2.5433
   72MOL0     H 9478   6.319  -0.760   0.644 -0.6913 -2.1826 -2.0156
   72MOL0     H 9479   6.453  -0.727   0.755  0.6850  1.1236 -0.7965
   72MOL0     H 9480   6.419  -0.959   0.766 -0.1840  3.2205 -0.0698
   72MOL0     H 9481   6.573  -0.929   0.701  1.2882  2.4013  0.7980
   72MOL0     H 9482   6.346  -0.967   0.511 -1.5700 -0.5114  1.2488
   72MOL0     H 9483   6.520  -1.011   0.491 -1.3987 -0.0150 -1.4982
   72MOL0     H 9484   6.478  -1.178   0.686  0.3397  1.9653  0.2528
   72MOL0     H 9485   6.403  -1.225   0.528 -0.4731  1.9682 -1.3499
   72MOL0     H 9486   6.458  -0.151   0.776  0.1607  2.0690 -0.2525
   72MOL0     H 9487   6.556  -0.023   0.929 -1.4086  0.9215 -2.5361
   72MOL0     H 9488   7.045   0.146   1.031  0.3023 -0.0700  1.1839
   72MOL0     H 9489   7.197   0.345   1.124  0.6493  1.8559 -0.5011
   72MOL0     H 9490   6.097   0.933   0.985  1.3773  2.0902 -0.1450
   72MOL0     H 9491   5.921   0.812   0.890 -0.3833  0.1266  1.3881
   72MOL0     H 9492   5.658   0.682   0.704  0.7415 -0.0314 -0.6808
   72MOL0     H 9493   5.558   0.484   0.634  2.8384  1.9867  0.7732
   72MOL0     H 9494   5.462   0.302   0.595  1.0373 -0.8758 -0.0662
   72MOL0     H 9495   5.352   0.170   0.635  1.6740 -0.8584 -0.0426
   72MOL0     H 9496   5.580   0.108   0.693 -0.7538  1.0554  0.1132
   72MOL0     H 9497   5.590   0.234   0.806  2.0288 -1.1791 -0.0064
   72MOL0     H 9498   5.394   0.005   0.842  0.1696  0.4434 -1.1675
   72MOL0     H 9499   5.429   0.138   0.953 -0.3445  0.7280 -0.8588
   72MOL0     H 9500   5.663  -0.051   0.875  0.5331  1.5002 -0.3635
   72MOL0     H 9501   5.648   0.075   1.005 -1.4007  0.7702 -0.3345
   72MOL0     H 9502   5.473  -0.279   1.181 -0.1020  0.2078 -0.0002
   72MOL0     H 9503   5.246   0.522   0.932  1.2457 -1.7023  3.5044
   72MOL0     H 9504   5.343   0.735   0.994  3.1498  0.0713  1.4941
   73MOL0     O 9505   3.899   9.113   4.318  0.1246  0.2357 -0.0631
   73MOL0     C 9506   3.957   9.160   4.416 -0.0106 -0.4910 -0.0580
   73MOL0     O 9507   3.908   9.256   4.511  0.8083 -0.0221 -0.1673
   73MOL0     C 9508   3.788   9.314   4.467  0.1024  0.6366 -0.3787
   73MOL0     C 9509   3.776   9.386   4.342 -0.1856 -0.9236 -0.2858
   73MOL0     C 9510   3.656   9.443   4.307 -0.2720  0.0442  0.3896
   73MOL0     C 9511   3.540   9.425   4.385 -0.7816  0.4539  0.7269
   73MOL0     O 9512   3.411   9.481   4.358 -1.1944  0.5816 -0.6142
   73MOL0     C 9513   3.392   9.543   4.230 -0.5875  0.2027  0.1537
   73MOL0     C 9514   3.277   9.636   4.230 -0.2354 -0.0631 -0.1699
   73MOL0     C 9515   3.131   9.582   4.211 -0.6033 -0.2108  0.3054
   73MOL0     C 9516   3.020   9.696   4.221  0.8070  0.1225  0.0831
   73MOL0     C 9517   2.886   9.630   4.241  0.1048 -0.8277 -0.3893
   73MOL0     C 9518   2.859   9.558   4.381 -0.2956  0.2777  0.3667
   73MOL0     C 9519   2.759   9.629   4.483 -0.3030  0.0144  0.2984
   73MOL0     C 9520   2.745   9.544   4.610  0.7255 -0.1065  0.1616
   73MOL0     N 9521   2.685   9.623   4.719 -0.4969 -0.2397 -0.8104
   73MOL0     C 9522   2.545   9.659   4.726  0.2615 -0.6223 -0.2095
   73MOL0     C 9523   2.542   9.752   4.830 -0.1577  0.8174 -0.9321
   73MOL0     C 9524   2.440   9.857   4.868  0.2642  0.6500 -0.7201
   73MOL0     C 9525   2.418   9.954   4.757 -1.0117  0.4704  0.5532
   73MOL0     C 9526   2.309  10.054   4.795  0.4751 -0.4039  0.4573
   73MOL0     C 9527   2.164   9.991   4.809 -0.2045  0.6015 -0.9936
   73MOL0     O 9528   2.148   9.907   4.690 -0.5063 -0.1591  0.3689
   73MOL0     C 9529   2.040   9.829   4.680  0.4497  0.5319  0.2035
   73MOL0     C 9530   2.036   9.736   4.577  0.3348  0.7322  0.5029
   73MOL0     C 9531   1.930   9.655   4.546 -1.0120 -0.2121 -0.1204
   73MOL0     C 9532   1.817   9.662   4.627 -0.7268  0.5462  0.4012
   73MOL0     C 9533   1.694   9.584   4.601  1.3750  0.3043 -0.1930
   73MOL0     O 9534   1.577   9.629   4.653 -0.2584  0.2719 -0.6341
   73MOL0     C 9535   1.454   9.557   4.653 -0.6387  0.1763  0.3535
   73MOL0     C 9536   1.423   9.440   4.587 -0.0833  0.9627 -0.3310
   73MOL0     C 9537   1.297   9.369   4.603 -0.2642  0.6272 -0.3674
   73MOL0     C 9538   1.212   9.420   4.701 -0.4805  0.1857  0.5158
   73MOL0     O 9539   1.102   9.342   4.733 -0.5724 -0.4540 -0.0117
   73MOL0     C 9540   0.976   9.403   4.717 -0.2479 -0.4544 -0.3214
   73MOL0     C 9541   0.907   9.406   4.847 -0.8354 -0.1916 -0.4476
   73MOL0     C 9542   0.767   9.471   4.846 -1.4334 -0.6359 -0.3128
   73MOL0     C 9543   0.676   9.417   4.742  0.0671 -0.2434 -0.0709
   73MOL0     C 9544   0.530   9.411   4.785 -0.0783 -0.3797 -0.2879
   73MOL0     C 9545   0.448   9.529   4.754 -0.9620 -0.3178  0.2094
   73MOL0     C 9546   0.304   9.509   4.781  0.1908 -0.1313  0.8245
   73MOL0     C 9547   0.223   9.617   4.696 -0.0520 -1.1710 -0.2572
   73MOL0    Cl 9548   0.056   9.605   4.748 -0.2775  0.1028 -0.4071
   73MOL0     C 9549   1.244   9.527   4.779  0.0009 -0.0323  0.3758
   73MOL0     C 9550   1.366   9.589   4.750 -0.3123  0.2797  0.3604
   73MOL0     O 9551   1.716   9.494   4.524  0.3063  0.3301 -0.8851
   73MOL0     C 9552   1.820   9.744   4.732 -0.5289 -0.2979 -0.0980
   73MOL0     C 9553   1.930   9.834   4.759  0.5934 -0.1294  0.1999
   73MOL0     N 9554   2.674   9.758   4.883  0.6908  0.1338 -0.6594
   73MOL0     N 9555   2.754   9.680   4.824  0.4291  0.4585  0.3795
   73MOL0     C 9556   3.549   9.343   4.493 -0.6254 -0.2794 -0.0742
   73MOL0     C 9557   3.677   9.297   4.545  0.4794 -0.1735  0.8182
   73MOL0     C 9558   4.087   9.099   4.439 -0.0616  0.3018 -0.2071
   73MOL0     C 9559   4.159   9.104   4.564 -0.8379 -0.5258  0.6758
   73MOL0     C 9560   4.283   9.036   4.578  0.1480 -0.0452  0.4867
   73MOL0     C 9561   4.333   8.952   4.468 -1.0108 -1.1040 -0.9602
   73MOL0     O 9562   4.466   8.900   4.480  0.8545  0.3051  0.0693
   73MOL0     C 9563   4.500   8.863   4.619 -0.7149  0.4791 -0.1424
   73MOL0     C 9564   4.592   8.741   4.628  0.0581 -0.3269 -0.1024
   73MOL0     C 9565   4.734   8.765   4.573  0.7374 -0.0520 -0.1660
   73MOL0     C 9566   4.815   8.640   4.582 -0.5439  0.0698  0.5729
   73MOL0     C 9567   4.790   8.559   4.460  0.1182 -1.3369 -0.8197
   73MOL0     C 9568   4.778   8.500   4.357 -0.2887 -0.2348  0.2891
   73MOL0     C 9569   4.260   8.946   4.348 -0.6332 -0.1069 -0.2811
   73MOL0     C 9570   4.143   9.019   4.333  0.6967  0.9239 -0.2999
   73MOL0     H 9571   3.861   9.398   4.276 -0.1359  0.3046 -0.0102
   73MOL0     H 9572   3.652   9.489   4.209  1.0351  0.3806  0.4774
   73MOL0     H 9573   3.389   9.465   4.154  1.5009  2.0995 -2.0656
   73MOL0     H 9574   3.471   9.616   4.208 -1.5748  1.5577  0.9635
   73MOL0     H 9575   3.296   9.712   4.153 -0.5385  1.8494  1.5583
   73MOL0     H 9576   3.259   9.679   4.329  0.6739 -0.0286 -0.0116
   73MOL0     H 9577   3.103   9.509   4.287 -2.5414  1.0271  0.8637
   73MOL0     H 9578   3.124   9.525   4.117 -1.9258 -1.8100  1.3213
   73MOL0     H 9579   3.032   9.760   4.309 -3.5074  0.6612  0.4641
   73MOL0     H 9580   3.025   9.760   4.132  1.1064  0.7634  0.5540
   73MOL0     H 9581   2.859   9.558   4.164  1.6160 -0.5043 -1.2550
   73MOL0     H 9582   2.812   9.711   4.235  1.3169  0.4059  0.5818
   73MOL0     H 9583   2.955   9.537   4.429  0.3193 -1.1500 -1.3736
   73MOL0     H 9584   2.805   9.470   4.345  0.3635 -0.3891  0.9786
   73MOL0     H 9585   2.789   9.733   4.497  0.0136  0.2187 -1.5932
   73MOL0     H 9586   2.661   9.627   4.434 -1.4250 -2.0079  2.4198
   73MOL0     H 9587   2.844   9.506   4.638  1.1457  2.0030  1.7848
   73MOL0     H 9588   2.682   9.458   4.585 -2.2130  0.9762  3.0889
   73MOL0     H 9589   2.458   9.636   4.666  0.2380 -1.6336  0.1829
   73MOL0     H 9590   2.464   9.913   4.959  1.2818 -3.0172  1.4732
   73MOL0     H 9591   2.346   9.805   4.891  0.6332 -0.7253 -2.1508
   73MOL0     H 9592   2.387   9.905   4.664 -0.2511  3.0238 -1.1486
   73MOL0     H 9593   2.514  10.001   4.733 -2.0376  2.0617 -0.6868
   73MOL0     H 9594   2.330  10.109   4.887  0.0192 -1.1788  1.0391
   73MOL0     H 9595   2.308  10.131   4.718 -1.0422  0.2327  1.0755
   73MOL0     H 9596   2.086  10.067   4.796  1.2313  2.1840 -0.7710
   73MOL0     H 9597   2.155   9.930   4.899 -0.2063  1.7785 -0.1739
   73MOL0     H 9598   2.131   9.731   4.525  1.5849 -0.1069  2.7366
   73MOL0     H 9599   1.941   9.601   4.453  1.7442  1.9351 -1.1933
   73MOL0     H 9600   1.496   9.397   4.519 -0.8740 -1.3218  0.1889
   73MOL0     H 9601   1.250   9.282   4.558 -1.8815 -0.2025  2.6358
   73MOL0     H 9602   0.919   9.333   4.656 -1.1441 -2.8686  2.9690
   73MOL0     H 9603   0.983   9.501   4.670  1.0482 -1.2682 -1.9159
   73MOL0     H 9604   0.967   9.456   4.924 -0.3915  0.1746 -1.0294
   73MOL0     H 9605   0.894   9.305   4.888 -2.8800  0.2316  0.0228
   73MOL0     H 9606   0.771   9.580   4.839 -0.9069 -0.4389  2.1714
   73MOL0     H 9607   0.721   9.466   4.945 -1.1664  1.6788 -0.0300
   73MOL0     H 9608   0.686   9.464   4.643 -2.2061 -0.5759 -0.5018
   73MOL0     H 9609   0.708   9.316   4.714  2.0225  0.0758  0.7912
   73MOL0     H 9610   0.526   9.385   4.891 -3.6726 -3.6340 -1.0154
   73MOL0     H 9611   0.493   9.325   4.729  0.5625  0.7651 -2.6299
   73MOL0     H 9612   0.447   9.555   4.648 -3.1207  0.0832  0.2759
   73MOL0     H 9613   0.477   9.617   4.813 -0.5037 -1.0050  1.0356
   73MOL0     H 9614   0.268   9.408   4.759 -0.9377  0.2500  0.8641
   73MOL0     H 9615   0.296   9.519   4.889 -1.1346 -0.1664  0.7500
   73MOL0     H 9616   0.227   9.595   4.589 -0.8789 -0.8239 -0.3634
   73MOL0     H 9617   0.259   9.715   4.730 -0.8535 -1.5432  1.7973
   73MOL0     H 9618   1.169   9.567   4.847  0.3097 -1.6095  1.7059
   73MOL0     H 9619   1.387   9.680   4.805  0.3043  1.4690 -1.7348
   73MOL0     H 9620   1.736   9.751   4.801  1.3202 -0.1246  2.2739
   73MOL0     H 9621   1.916   9.908   4.837 -2.1709  0.5046 -0.7868
   73MOL0     H 9622   3.456   9.343   4.548 -1.2337  1.5048 -1.0136
   73MOL0     H 9623   3.689   9.227   4.627 -1.6871 -2.7989 -0.9007
   73MOL0     H 9624   4.112   9.148   4.652  0.5569 -0.1556  1.2676
   73MOL0     H 9625   4.331   9.041   4.675  0.7317 -0.7201  0.2417
   73MOL0     H 9626   4.407   8.824   4.661  0.3483 -1.7611  0.2659
   73MOL0     H 9627   4.540   8.940   4.685 -1.8743  1.6160 -0.7284
   73MOL0     H 9628   4.603   8.708   4.732  1.0214  1.6640  0.4778
   73MOL0     H 9629   4.550   8.654   4.578 -0.8171  0.8132 -1.4261
   73MOL0     H 9630   4.777   8.838   4.642 -2.6820  1.7324  0.2456
   73MOL0     H 9631   4.722   8.797   4.469  2.4006 -0.6568 -0.5753
   73MOL0     H 9632   4.923   8.659   4.578 -0.3919 -0.8840 -1.0655
   73MOL0     H 9633   4.797   8.572   4.665  1.3729 -1.1476  0.0767
   73MOL0     H 9634   4.771   8.438   4.270 -4.1877 -2.1269  1.6986
   73MOL0     H 9635   4.301   8.870   4.283  0.9922 -0.1857  0.8079
   73MOL0     H 9636   4.096   9.009   4.236  0.5476  0.3426 -0.1714
   74MOL0     O 9637   4.453   7.619   0.829  0.1252  0.2517  0.4162
   74MOL0     C 9638   4.524   7.612   0.928 -0.3460  0.5654  0.9851
   74MOL0     O 9639   4.476   7.611   1.056  0.0363 -0.0402 -0.4921
   74MOL0     C 9640   4.342   7.595   1.064  0.3231  0.0352  0.8002
   74MOL0     C 9641   4.276   7.484   1.019  0.6649 -0.7754  0.4331
   74MOL0     C 9642   4.142   7.472   1.023  0.6470  0.1180  0.0790
   74MOL0     C 9643   4.065   7.568   1.078  0.0078 -0.6596  0.3388
   74MOL0     O 9644   3.929   7.543   1.097  0.4569  0.7679 -0.3685
   74MOL0     C 9645   3.843   7.656   1.130  0.4234 -0.0878  0.5211
   74MOL0     C 9646   3.704   7.604   1.106  0.1347 -0.3366  0.2308
   74MOL0     C 9647   3.587   7.704   1.112  0.5378  0.7802 -0.3520
   74MOL0     C 9648   3.465   7.663   1.033 -0.6912  0.4571  0.3014
   74MOL0     C 9649   3.348   7.744   1.047  0.9840 -0.2214 -0.5842
   74MOL0     C 9650   3.233   7.671   0.970  0.3377 -0.8414 -0.1142
   74MOL0     C 9651   3.102   7.758   0.986 -0.6779  0.6283 -0.0874
   74MOL0     C 9652   3.018   7.710   0.868 -0.3940  0.6333 -0.1410
   74MOL0     N 9653   2.877   7.774   0.869  0.0004  0.7642 -0.0728
   74MOL0     C 9654   2.791   7.770   0.762 -0.2685 -0.3072  0.3012
   74MOL0     C 9655   2.695   7.861   0.800 -0.8472 -0.3219 -0.3005
   74MOL0     C 9656   2.570   7.913   0.724 -0.3686  0.4450 -0.1949
   74MOL0     C 9657   2.448   7.832   0.781 -0.5024 -0.7872 -0.0885
   74MOL0     C 9658   2.321   7.830   0.704 -0.7116  0.1028  0.6119
   74MOL0     C 9659   2.229   7.727   0.752  0.0226  0.1707  0.0135
   74MOL0     O 9660   2.111   7.745   0.678  0.3258  0.2156  0.4931
   74MOL0     C 9661   2.020   7.831   0.720  1.2675  0.4409 -0.5761
   74MOL0     C 9662   1.934   7.797   0.826  0.3453 -0.0431  0.0316
   74MOL0     C 9663   1.838   7.886   0.861  0.2724 -0.5459  0.0570
   74MOL0     C 9664   1.819   8.008   0.795  0.6034  0.3766  0.0187
   74MOL0     C 9665   1.722   8.101   0.850  0.1620 -0.7732 -0.7136
   74MOL0     O 9666   1.644   8.049   0.947 -1.1572  0.0693 -0.2581
   74MOL0     C 9667   1.563   8.133   1.014  0.0581  0.2828 -0.1912
   74MOL0     C 9668   1.436   8.091   1.035  0.1017  0.2066  0.7138
   74MOL0     C 9669   1.339   8.165   1.091  0.0520  0.5312  0.1262
   74MOL0     C 9670   1.369   8.293   1.140 -1.1115 -0.9257 -0.4311
   74MOL0     O 9671   1.277   8.366   1.216  0.1101  0.6633  1.5332
   74MOL0     C 9672   1.308   8.494   1.276  0.0227  0.2547  0.2491
   74MOL0     C 9673   1.179   8.563   1.312 -0.2714 -0.1545  0.4907
   74MOL0     C 9674   1.084   8.579   1.196 -0.8778 -0.3043  0.0030
   74MOL0     C 9675   0.963   8.675   1.242 -0.1233  0.4002 -0.0226
   74MOL0     C 9676   0.870   8.711   1.132 -0.5225 -0.8416  0.4372
   74MOL0     C 9677   0.769   8.598   1.107 -0.5033 -0.8713 -0.0019
   74MOL0     C 9678   0.669   8.655   1.005 -0.1221 -0.1616 -0.3507
   74MOL0     C 9679   0.723   8.690   0.869  0.1474  0.1804  0.6119
   74MOL0    Cl 9680   0.798   8.852   0.858  0.2673  0.3763 -0.1037
   74MOL0     C 9681   1.503   8.342   1.125 -0.4973 -0.7083  0.3096
   74MOL0     C 9682   1.593   8.258   1.063  0.2505 -0.6449 -0.2089
   74MOL0     O 9683   1.725   8.212   0.809  0.3584 -0.2313  0.2425
   74MOL0     C 9684   1.898   8.040   0.687  0.2451 -0.1224  0.7286
   74MOL0     C 9685   2.004   7.951   0.644  0.1461 -0.1789 -0.4852
   74MOL0     N 9686   2.726   7.918   0.921  0.1970  0.0296  0.0916
   74MOL0     N 9687   2.837   7.866   0.968 -0.4639  0.3721  0.0582
   74MOL0     C 9688   4.134   7.683   1.133 -0.4340 -0.7161  0.1126
   74MOL0     C 9689   4.267   7.695   1.119 -0.3262  0.6732 -0.5027
   74MOL0     C 9690   4.672   7.592   0.905  0.1853 -0.3682  1.0820
   74MOL0     C 9691   4.713   7.596   0.769 -0.5803  0.7818  0.4021
   74MOL0     C 9692   4.845   7.565   0.738  0.3129  0.5825  1.1566
   74MOL0     C 9693   4.937   7.538   0.840  0.1749 -0.0186  0.0400
   74MOL0     O 9694   5.058   7.490   0.797  0.0216 -0.9004  0.0979
   74MOL0     C 9695   5.174   7.517   0.881  0.3259 -0.2807  0.2917
   74MOL0     C 9696   5.206   7.672   0.872 -0.2127  0.3712 -0.2146
   74MOL0     C 9697   5.233   7.724   0.724  0.2801  0.5274 -0.1308
   74MOL0     C 9698   5.370   7.670   0.667 -0.2879  0.1677 -1.2336
   74MOL0     C 9699   5.413   7.719   0.540 -1.0083 -0.0493 -1.0015
   74MOL0     C 9700   5.452   7.744   0.425 -0.2168  0.0455  0.0029
   74MOL0     C 9701   4.896   7.548   0.974  0.0705 -0.6033  0.2779
   74MOL0     C 9702   4.766   7.572   1.008  0.7336  0.4730  0.4617
   74MOL0     H 9703   4.324   7.395   0.982  2.3519  1.1252 -2.3353
   74MOL0     H 9704   4.103   7.379   0.983 -1.5842  1.4328 -1.0398
   74MOL0     H 9705   3.862   7.742   1.065  1.2739  1.0117  2.1744
   74MOL0     H 9706   3.847   7.695   1.232 -0.0186  4.3769 -0.9381
   74MOL0     H 9707   3.699   7.520   1.175  1.5739 -0.4332  0.2551
   74MOL0     H 9708   3.713   7.563   1.005 -1.9805 -1.3238  0.3836
   74MOL0     H 9709   3.615   7.806   1.083 -5.2280  2.2850 -1.8571
   74MOL0     H 9710   3.559   7.711   1.217 -0.8540  2.0484 -0.7656
   74MOL0     H 9711   3.490   7.663   0.927  0.0814 -0.4032  0.4748
   74MOL0     H 9712   3.447   7.558   1.058 -1.8397 -0.2024 -2.8160
   74MOL0     H 9713   3.358   7.839   0.995  1.7241 -0.8406 -1.6237
   74MOL0     H 9714   3.321   7.767   1.150 -0.6041  2.6264 -1.5344
   74MOL0     H 9715   3.235   7.566   1.001  1.7037 -1.2070 -1.3281
   74MOL0     H 9716   3.265   7.672   0.865  1.4441 -0.1258  0.2086
   74MOL0     H 9717   3.048   7.738   1.079 -0.6392 -1.8039 -0.5352
   74MOL0     H 9718   3.118   7.866   0.979 -2.5485  1.0459  1.1352
   74MOL0     H 9719   2.998   7.605   0.891 -0.3849  0.5323 -0.5807
   74MOL0     H 9720   3.067   7.708   0.771 -1.2653  0.5324 -0.5910
   74MOL0     H 9721   2.798   7.698   0.681  1.5406 -0.2718  0.3944
   74MOL0     H 9722   2.568   7.889   0.617 -3.2751  0.3311 -0.1908
   74MOL0     H 9723   2.557   8.019   0.748 -0.7501  0.2965  0.2718
   74MOL0     H 9724   2.422   7.871   0.880  1.7752  0.3887  0.1056
   74MOL0     H 9725   2.479   7.727   0.791  0.5397 -0.3980  0.9062
   74MOL0     H 9726   2.282   7.932   0.713  5.2198  2.7603  0.8319
   74MOL0     H 9727   2.336   7.817   0.596 -0.4618 -3.1322  0.9475
   74MOL0     H 9728   2.202   7.750   0.856  3.9655  4.9615  0.2921
   74MOL0     H 9729   2.260   7.622   0.747  2.3517  0.7719  0.7718
   74MOL0     H 9730   1.943   7.704   0.880  1.3169 -1.5922 -2.5853
   74MOL0     H 9731   1.782   7.854   0.948  0.0810 -0.0948  0.1013
   74MOL0     H 9732   1.410   8.002   0.979 -2.3474  3.0331 -3.1328
   74MOL0     H 9733   1.243   8.120   1.116  1.3161 -1.3992  1.8297
   74MOL0     H 9734   1.370   8.562   1.216 -3.2444  2.7947 -0.5250
   74MOL0     H 9735   1.356   8.480   1.373  1.0952 -0.9441 -0.4163
   74MOL0     H 9736   1.212   8.664   1.338  2.5809 -0.6069 -1.0349
   74MOL0     H 9737   1.124   8.510   1.390 -1.2049  0.6253  0.3850
   74MOL0     H 9738   1.041   8.484   1.163  0.0033 -0.7652  0.1599
   74MOL0     H 9739   1.134   8.621   1.108 -0.9163 -0.7313 -0.2229
   74MOL0     H 9740   0.909   8.631   1.326 -1.8297 -1.5693 -2.0048
   74MOL0     H 9741   1.012   8.767   1.277  0.8577  1.2363 -3.2316
   74MOL0     H 9742   0.927   8.719   1.039 -2.4266 -1.1640 -0.8047
   74MOL0     H 9743   0.823   8.809   1.143  2.6897  0.8115  0.6321
   74MOL0     H 9744   0.721   8.566   1.200 -3.1881  3.9815  0.5848
   74MOL0     H 9745   0.815   8.512   1.058 -1.6381 -1.5045  0.0142
   74MOL0     H 9746   0.591   8.579   0.999  0.8049 -1.2420  0.7554
   74MOL0     H 9747   0.619   8.741   1.051 -3.4023 -2.3140  0.4545
   74MOL0     H 9748   0.631   8.678   0.812 -1.9612  2.6610  3.2136
   74MOL0     H 9749   0.792   8.613   0.833 -0.7314 -0.3608  0.0645
   74MOL0     H 9750   1.531   8.442   1.158  1.2643 -0.5304 -1.5089
   74MOL0     H 9751   1.689   8.308   1.054  0.9602 -1.8035  0.5781
   74MOL0     H 9752   1.904   8.138   0.641  0.4906 -0.4195  0.1085
   74MOL0     H 9753   2.072   7.989   0.569 -1.8879  2.0696 -1.3111
   74MOL0     H 9754   4.089   7.776   1.167  0.0442  0.7218 -2.8762
   74MOL0     H 9755   4.323   7.782   1.153 -1.7662  1.5436 -0.2845
   74MOL0     H 9756   4.636   7.616   0.695 -2.2152  1.0035  2.0970
   74MOL0     H 9757   4.871   7.566   0.632 -1.9039 -1.1526  0.5129
   74MOL0     H 9758   5.269   7.472   0.852  1.3304  1.9475 -0.1230
   74MOL0     H 9759   5.167   7.478   0.982  2.3348 -1.7137 -0.0710
   74MOL0     H 9760   5.127   7.733   0.916  3.1221  3.6407  1.8637
   74MOL0     H 9761   5.294   7.700   0.931  1.1357  0.8334 -2.3137
   74MOL0     H 9762   5.232   7.834   0.722 -0.0397  0.5164 -0.5451
   74MOL0     H 9763   5.151   7.691   0.660 -0.5958 -0.1129  1.2734
   74MOL0     H 9764   5.448   7.686   0.742 -1.8447  0.6026  0.3402
   74MOL0     H 9765   5.350   7.563   0.658  0.3119 -0.1539  0.7339
   74MOL0     H 9766   5.491   7.769   0.328 -0.0862  0.8173  0.2472
   74MOL0     H 9767   4.968   7.533   1.053  1.0077 -0.6569 -0.5696
   74MOL0     H 9768   4.736   7.583   1.111  1.3667  1.3653  0.5611
   75MOL0     O 9769   0.997  10.766   5.175 -0.0227 -0.2618 -0.2792
   75MOL0     C 9770   1.042  10.714   5.071  0.0071 -0.2964 -0.1653
   75MOL0     O 9771   1.161  10.732   5.016  0.0069  0.5807  0.4457
   75MOL0     C 9772   1.253  10.808   5.094 -0.5799  0.3463  0.6877
   75MOL0     C 9773   1.337  10.742   5.181 -0.2767  0.5960 -0.1119
   75MOL0     C 9774   1.420  10.824   5.255  0.6087 -0.1028 -0.1128
   75MOL0     C 9775   1.417  10.964   5.256  0.0629  0.5910 -0.2550
   75MOL0     O 9776   1.502  11.053   5.317  0.4959  0.4052 -0.4037
   75MOL0     C 9777   1.585  10.998   5.423  0.3579  0.2579  0.5440
   75MOL0     C 9778   1.528  10.969   5.558 -0.4352  0.2404  0.5932
   75MOL0     C 9779   1.463  11.092   5.622  0.1752 -0.7112  0.2710
   75MOL0     C 9780   1.391  11.052   5.753 -0.6691  0.5614  0.9219
   75MOL0     C 9781   1.268  10.961   5.734  0.4757  0.3397 -0.1768
   75MOL0     C 9782   1.229  10.898   5.870 -0.0915  0.2343  0.1854
   75MOL0     C 9783   1.084  10.856   5.861  0.3201 -0.3123  0.2360
   75MOL0     C 9784   0.982  10.969   5.884 -0.6717 -0.7054 -0.1592
   75MOL0     N 9785   0.853  10.917   5.916  0.1245 -0.2116  0.1145
   75MOL0     C 9786   0.785  10.837   5.826 -0.6104  0.3776  0.1232
   75MOL0     C 9787   0.677  10.798   5.890  0.6245 -0.5793 -0.5012
   75MOL0     C 9788   0.563  10.716   5.832  0.1455 -0.1155 -0.3529
   75MOL0     C 9789   0.434  10.710   5.907 -0.2555 -0.8011 -0.5517
   75MOL0     C 9790   0.334  10.627   5.832  0.2702 -0.0419  0.0719
   75MOL0     C 9791   0.216  10.596   5.926  0.1702  0.1240 -0.1011
   75MOL0     O 9792   0.132  10.500   5.862 -0.3980  0.0899 -0.1519
   75MOL0     C 9793   0.025  10.468   5.944  0.4839  0.3576  0.1585
   75MOL0     C 9794  -0.105  10.499   5.913  0.9532  1.2452 -0.3018
   75MOL0     C 9795  -0.212  10.449   5.986  0.7706  0.0789 -1.0423
   75MOL0     C 9796  -0.184  10.378   6.106 -0.5807 -0.2239 -0.1126
   75MOL0     C 9797  -0.287  10.321   6.192 -0.0331  0.0046  0.2426
   75MOL0     O 9798  -0.409  10.331   6.141  0.1731 -0.0977  0.1417
   75MOL0     C 9799  -0.506  10.236   6.185  1.0258 -1.1063  0.0254
   75MOL0     C 9800  -0.479  10.107   6.232  0.6548  0.4742 -0.0713
   75MOL0     C 9801  -0.586  10.015   6.246 -0.2020  0.5325 -0.3947
   75MOL0     C 9802  -0.718  10.051   6.236 -1.1357  0.1777 -0.6914
   75MOL0     O 9803  -0.815   9.958   6.257  0.1010  0.2035 -0.8056
   75MOL0     C 9804  -0.949   9.991   6.275  0.6102  1.5702 -0.6251
   75MOL0     C 9805  -1.034   9.869   6.310 -0.1212 -0.7168  0.8904
   75MOL0     C 9806  -0.984   9.798   6.435  0.0893 -0.1731  0.2518
   75MOL0     C 9807  -1.043   9.656   6.454  0.7409  0.2858  0.2633
   75MOL0     C 9808  -0.997   9.586   6.579 -0.5685 -0.2585 -0.7148
   75MOL0     C 9809  -1.056   9.446   6.599  0.2410 -0.1176  0.0042
   75MOL0     C 9810  -1.028   9.405   6.742 -0.1574  0.2260 -0.3139
   75MOL0     C 9811  -0.889   9.375   6.789  0.1236  0.4315 -1.2274
   75MOL0    Cl 9812  -0.902   9.246   6.911  0.4365 -0.1340  0.4370
   75MOL0     C 9813  -0.743  10.186   6.192 -0.3161  1.0455  1.2264
   75MOL0     C 9814  -0.646  10.285   6.166 -0.1125 -0.2579 -0.2896
   75MOL0     O 9815  -0.258  10.281   6.313  0.1806  0.7005  0.3832
   75MOL0     C 9816  -0.046  10.350   6.134  0.5106 -0.6417  0.5371
   75MOL0     C 9817   0.058  10.395   6.059  0.8848  0.6479 -0.1653
   75MOL0     N 9818   0.684  10.845   6.020  0.4740 -0.0322 -0.2660
   75MOL0     N 9819   0.787  10.913   6.031  0.0569  1.1949 -1.1164
   75MOL0     C 9820   1.324  11.024   5.168  0.1043  0.1335 -0.6221
   75MOL0     C 9821   1.244  10.948   5.084  0.4288 -0.4636  0.1184
   75MOL0     C 9822   0.945  10.636   4.980 -0.0887  0.4426  0.5984
   75MOL0     C 9823   0.819  10.611   5.032  0.3468  0.4425 -0.0859
   75MOL0     C 9824   0.721  10.545   4.963 -0.5064  0.2137  0.9477
   75MOL0     C 9825   0.742  10.490   4.841 -0.5194  0.2225  0.4034
   75MOL0     O 9826   0.635  10.429   4.773  0.0459  0.2054  0.4236
   75MOL0     C 9827   0.657  10.384   4.634  0.1227 -0.0848  0.0430
   75MOL0     C 9828   0.542  10.314   4.565 -0.3304  0.0782 -0.9882
   75MOL0     C 9829   0.434  10.396   4.487 -0.4130  0.0838 -0.1267
   75MOL0     C 9830   0.367  10.495   4.587 -0.0275 -0.3830 -0.5588
   75MOL0     C 9831   0.263  10.578   4.530  0.6955  0.2941  0.0752
   75MOL0     C 9832   0.193  10.637   4.454  0.2373 -0.5961  0.9644
   75MOL0     C 9833   0.880  10.499   4.798 -0.6725 -0.4938 -0.0505
   75MOL0     C 9834   0.981  10.573   4.858  0.6043  0.5123 -1.0490
   75MOL0     H 9835   1.335  10.634   5.191  0.5906  0.2350 -3.0445
   75MOL0     H 9836   1.493  10.782   5.322 -0.8666  2.7598  3.6530
   75MOL0     H 9837   1.655  11.082   5.433  0.0013  0.6248  0.0662
   75MOL0     H 9838   1.648  10.913   5.397 -0.8877 -1.4433  2.7669
   75MOL0     H 9839   1.613  10.940   5.620 -0.1674  0.3126  0.2620
   75MOL0     H 9840   1.462  10.884   5.539  0.9061 -0.7466  0.1715
   75MOL0     H 9841   1.390  11.144   5.558 -0.1830 -3.1459 -1.4280
   75MOL0     H 9842   1.541  11.164   5.648 -1.1299  0.4175  1.2103
   75MOL0     H 9843   1.463  11.005   5.820 -1.3812  0.5573  1.6959
   75MOL0     H 9844   1.374  11.138   5.818 -3.2498 -0.0444  1.1240
   75MOL0     H 9845   1.280  10.877   5.665 -2.0125 -1.4674  1.4162
   75MOL0     H 9846   1.184  11.011   5.686 -1.0536 -3.2617 -1.6636
   75MOL0     H 9847   1.247  10.973   5.948  1.3069 -0.7880  0.8940
   75MOL0     H 9848   1.293  10.812   5.893  0.0816  0.4355  0.4686
   75MOL0     H 9849   1.065  10.812   5.763 -2.6076 -0.7307  0.9188
   75MOL0     H 9850   1.056  10.780   5.934  2.5993 -1.4066  0.0619
   75MOL0     H 9851   0.992  11.028   5.793  1.0211 -1.0285 -0.2132
   75MOL0     H 9852   1.018  11.040   5.959 -1.3127  1.7568 -2.0761
   75MOL0     H 9853   0.815  10.836   5.721 -0.5084  3.9004  0.0129
   75MOL0     H 9854   0.599  10.615   5.814 -1.2109 -0.3844 -1.8045
   75MOL0     H 9855   0.537  10.754   5.732  3.8652 -1.0391 -1.8393
   75MOL0     H 9856   0.388  10.806   5.932  2.4164 -0.0669  2.0728
   75MOL0     H 9857   0.445  10.664   6.006 -0.7586  0.3665  0.0656
   75MOL0     H 9858   0.298  10.686   5.747  0.6323  2.6183  1.6348
   75MOL0     H 9859   0.380  10.538   5.789  2.1997  1.0028 -0.1437
   75MOL0     H 9860   0.158  10.687   5.943  0.1384 -0.1764  1.5869
   75MOL0     H 9861   0.257  10.553   6.018  3.4210  0.9182 -1.0490
   75MOL0     H 9862  -0.137  10.568   5.836  2.6863  1.9897 -0.3819
   75MOL0     H 9863  -0.313  10.465   5.950  0.2036  1.4753  0.9795
   75MOL0     H 9864  -0.377  10.073   6.244  0.6079  0.6556  0.8553
   75MOL0     H 9865  -0.561   9.914   6.277 -4.5203 -0.9306 -0.9312
   75MOL0     H 9866  -0.981  10.024   6.176 -1.9557 -0.5101 -0.6040
   75MOL0     H 9867  -0.964  10.078   6.340 -0.7897  1.1373 -0.3271
   75MOL0     H 9868  -1.034   9.797   6.228  0.6391 -0.7455  0.9034
   75MOL0     H 9869  -1.142   9.881   6.321 -0.3074 -1.4619 -0.0040
   75MOL0     H 9870  -1.021   9.867   6.511 -2.6833  1.9382 -2.7233
   75MOL0     H 9871  -0.875   9.791   6.441  0.1370 -0.6008 -0.8631
   75MOL0     H 9872  -1.152   9.661   6.451  0.6657 -1.2282 -1.5077
   75MOL0     H 9873  -1.003   9.595   6.371 -0.9569  4.8253 -4.4353
   75MOL0     H 9874  -1.017   9.664   6.654  0.2370  0.0832 -0.8402
   75MOL0     H 9875  -0.889   9.570   6.579 -0.6464 -0.9324  1.0004
   75MOL0     H 9876  -1.016   9.372   6.530  0.4653 -1.1496  1.2044
   75MOL0     H 9877  -1.164   9.451   6.578  0.0903  0.5055  0.8659
   75MOL0     H 9878  -1.062   9.484   6.811  1.5531  1.5673 -0.9275
   75MOL0     H 9879  -1.089   9.316   6.761 -0.1443 -0.1648 -1.9965
   75MOL0     H 9880  -0.840   9.461   6.835  1.8918 -0.4964 -1.2460
   75MOL0     H 9881  -0.828   9.334   6.707  5.2594  1.4019  1.7036
   75MOL0     H 9882  -0.845  10.216   6.173 -0.2290  1.7553  1.8133
   75MOL0     H 9883  -0.663  10.388   6.138 -0.5650  0.5261  2.5324
   75MOL0     H 9884  -0.032  10.287   6.221 -0.3714  0.3233  1.4084
   75MOL0     H 9885   0.157  10.371   6.097  1.2985 -0.5707 -1.9067
   75MOL0     H 9886   1.320  11.131   5.148  0.8242 -0.0356 -1.8043
   75MOL0     H 9887   1.172  10.998   5.020  0.1689 -1.7507 -0.6367
   75MOL0     H 9888   0.787  10.648   5.129  2.0436  0.7365  0.3973
   75MOL0     H 9889   0.632  10.536   5.024  0.0408 -1.5706  1.5708
   75MOL0     H 9890   0.734  10.307   4.632 -2.0575 -2.6479 -5.2273
   75MOL0     H 9891   0.694  10.466   4.572  2.6003 -1.1818 -0.0500
   75MOL0     H 9892   0.593  10.247   4.495  1.7529 -0.3171  0.7882
   75MOL0     H 9893   0.485  10.252   4.635  1.0247 -0.8285 -0.6398
   75MOL0     H 9894   0.349  10.333   4.457 -0.2815 -1.2956  2.1078
   75MOL0     H 9895   0.482  10.450   4.406 -0.2650  1.1137  0.6307
   75MOL0     H 9896   0.330  10.430   4.668  1.7729 -0.7437  0.0280
   75MOL0     H 9897   0.438  10.567   4.629  0.6035  0.9697 -3.7183
   75MOL0     H 9898   0.141  10.696   4.380  1.9916 -1.1971 -0.8268
   75MOL0     H 9899   0.901  10.449   4.704  1.4407 -1.9593  1.1022
   75MOL0     H 9900   1.080  10.570   4.813  0.7616  0.2933 -0.6879
   76MOL0     O 9901   8.743   7.949   5.458  0.0050  0.2834  0.1054
   76MOL0     C 9902   8.756   8.044   5.377  0.6111 -0.7075  0.3874
   76MOL0     O 9903   8.659   8.121   5.317 -0.5212  0.8632  0.0517
   76MOL0     C 9904   8.527   8.092   5.338 -0.7396  0.4977  0.7138
   76MOL0     C 9905   8.472   8.044   5.456  0.5458 -1.0015  0.4941
   76MOL0     C 9906   8.346   7.987   5.468 -0.3356 -0.3153 -0.2137
   76MOL0     C 9907   8.258   7.995   5.359 -0.1651  0.6904 -0.4115
   76MOL0     O 9908   8.131   7.961   5.371 -0.5064 -0.2433  0.0729
   76MOL0     C 9909   8.070   7.901   5.494  0.7837 -0.7683 -0.2130
   76MOL0     C 9910   7.927   7.872   5.470  0.1623 -0.2336  0.6169
   76MOL0     C 9911   7.912   7.749   5.365 -0.6277  0.9085  0.2920
   76MOL0     C 9912   7.757   7.745   5.323 -0.6828  0.3668 -0.3137
   76MOL0     C 9913   7.738   7.629   5.228 -0.2867  0.2696  0.8301
   76MOL0     C 9914   7.738   7.495   5.301 -0.2847 -0.3571 -0.1670
   76MOL0     C 9915   7.646   7.384   5.233 -0.2109 -0.2224  0.3724
   76MOL0     C 9916   7.507   7.381   5.289  0.2540  1.1308 -0.3058
   76MOL0     N 9917   7.406   7.299   5.213  0.4720 -0.1518  0.7298
   76MOL0     C 9918   7.267   7.315   5.237 -0.3393 -0.1317 -0.2477
   76MOL0     C 9919   7.211   7.192   5.235 -0.3643 -0.3357 -0.5624
   76MOL0     C 9920   7.074   7.153   5.284 -0.4830  0.0389 -0.0073
   76MOL0     C 9921   7.085   7.060   5.402 -0.0564  0.8843 -0.8142
   76MOL0     C 9922   7.152   7.103   5.526  0.0124 -0.5282 -0.0744
   76MOL0     C 9923   7.248   6.999   5.596  0.9873 -0.1307 -0.3302
   76MOL0     O 9924   7.325   7.054   5.704  1.2468  1.1627  0.7677
   76MOL0     C 9925   7.459   7.095   5.686 -0.4315  1.0819  0.3367
   76MOL0     C 9926   7.515   7.114   5.556  0.0849 -0.0067  0.2507
   76MOL0     C 9927   7.649   7.151   5.529 -0.2868  0.1593 -0.5771
   76MOL0     C 9928   7.735   7.176   5.639  0.3319  0.1463 -0.8835
   76MOL0     C 9929   7.877   7.217   5.615  0.7108  0.1948  0.2312
   76MOL0     O 9930   7.911   7.258   5.479 -0.2326  0.5138  0.3676
   76MOL0     C 9931   8.038   7.289   5.467 -0.1161 -0.6564 -0.7446
   76MOL0     C 9932   8.091   7.417   5.501 -0.2417 -0.7995 -0.4173
   76MOL0     C 9933   8.225   7.441   5.461 -0.0749 -0.3715  0.1847
   76MOL0     C 9934   8.302   7.348   5.392 -0.1159  0.7283 -0.2673
   76MOL0     O 9935   8.428   7.379   5.351  0.2076  0.1215 -0.2900
   76MOL0     C 9936   8.489   7.298   5.248  0.0130 -0.0202 -0.3873
   76MOL0     C 9937   8.618   7.362   5.192 -0.0820 -0.2734 -0.2280
   76MOL0     C 9938   8.738   7.343   5.295 -0.2006 -0.5275 -0.5060
   76MOL0     C 9939   8.875   7.377   5.244  0.6207  0.8291  0.2011
   76MOL0     C 9940   8.994   7.341   5.331  0.1448 -0.2792 -0.4132
   76MOL0     C 9941   9.138   7.342   5.265 -0.7425 -0.5102  0.3936
   76MOL0     C 9942   9.167   7.485   5.217  0.4186  0.3449 -0.3675
   76MOL0     C 9943   9.311   7.506   5.166 -0.0448 -0.3742  0.3097
   76MOL0    Cl 9944   9.433   7.557   5.292 -0.3375 -0.0834  0.3025
   76MOL0     C 9945   8.247   7.217   5.374 -0.9945 -0.3894 -0.0750
   76MOL0     C 9946   8.123   7.193   5.414  0.0409 -0.0469  0.2105
   76MOL0     O 9947   7.951   7.225   5.713  0.0761  0.0473 -0.2009
   76MOL0     C 9948   7.678   7.175   5.770  0.1800  0.0565  0.4403
   76MOL0     C 9949   7.541   7.136   5.790  1.1156 -0.6761  0.1408
   76MOL0     N 9950   7.305   7.104   5.200  0.5812 -0.5608  0.3609
   76MOL0     N 9951   7.424   7.163   5.193 -0.1830 -0.2691  0.5220
   76MOL0     C 9952   8.299   8.042   5.233  0.3722  0.3176 -0.2721
   76MOL0     C 9953   8.438   8.092   5.224 -0.6345  0.3320 -0.7400
   76MOL0     C 9954   8.890   8.093   5.362  0.5940  0.8110 -0.8107
   76MOL0     C 9955   8.952   8.150   5.475 -0.0020  0.1204  0.2297
   76MOL0     C 9956   9.086   8.197   5.471 -0.2917 -0.7599  0.8945
   76MOL0     C 9957   9.156   8.189   5.355 -0.2887 -0.2321 -0.1929
   76MOL0     O 9958   9.279   8.240   5.333  0.4428 -0.2430 -0.2231
   76MOL0     C 9959   9.349   8.287   5.445  0.1089 -0.2030 -0.6755
   76MOL0     C 9960   9.496   8.306   5.408  0.3500 -0.4362 -0.2072
   76MOL0     C 9961   9.579   8.256   5.524 -0.5819  0.1815  0.3637
   76MOL0     C 9962   9.740   8.251   5.511 -0.2261 -0.2569  0.4975
   76MOL0     C 9963   9.792   8.389   5.522 -0.1973 -0.0190  0.1279
   76MOL0     C 9964   9.818   8.513   5.515  0.6028  0.3652 -0.2402
   76MOL0     C 9965   9.086   8.148   5.241 -0.0333  0.0983 -1.1112
   76MOL0     C 9966   8.955   8.103   5.242 -0.5210  0.9791 -0.3771
   76MOL0     H 9967   8.532   8.041   5.546 -1.0416 -0.6623  1.6008
   76MOL0     H 9968   8.308   7.943   5.559 -3.8843  3.4775  0.4616
   76MOL0     H 9969   8.067   7.979   5.570 -0.3708 -1.4882  0.5064
   76MOL0     H 9970   8.117   7.807   5.524 -1.1142 -1.1205  1.9352
   76MOL0     H 9971   7.877   7.961   5.431  0.8164 -0.3541 -0.5214
   76MOL0     H 9972   7.883   7.849   5.568 -0.0389  0.5200  0.7079
   76MOL0     H 9973   7.941   7.650   5.400  2.2232  0.7406 -2.0742
   76MOL0     H 9974   7.980   7.768   5.281 -1.3114 -1.6649 -0.9278
   76MOL0     H 9975   7.696   7.721   5.410  0.9348  0.5520  0.9169
   76MOL0     H 9976   7.719   7.839   5.281 -2.6975 -0.0628  0.4187
   76MOL0     H 9977   7.809   7.625   5.146  0.1630  1.6100  1.1215
   76MOL0     H 9978   7.637   7.655   5.194  0.2510  0.8592 -0.3608
   76MOL0     H 9979   7.698   7.521   5.400 -0.0600  5.1374 -1.2059
   76MOL0     H 9980   7.836   7.450   5.319  0.0645  0.3957 -0.1534
   76MOL0     H 9981   7.648   7.421   5.129 -1.6750  1.0766  0.7689
   76MOL0     H 9982   7.688   7.283   5.230  0.2696 -0.0390  0.8404
   76MOL0     H 9983   7.472   7.484   5.297 -0.4858  0.7303  5.7859
   76MOL0     H 9984   7.527   7.334   5.385  0.5172 -4.0104 -2.5377
   76MOL0     H 9985   7.222   7.410   5.263 -1.4758 -0.8392  0.4353
   76MOL0     H 9986   7.017   7.109   5.201  2.4708 -0.4263 -1.9546
   76MOL0     H 9987   7.026   7.241   5.328 -2.7433 -0.5149 -1.2126
   76MOL0     H 9988   7.133   6.968   5.365  1.7660 -0.2109  3.6196
   76MOL0     H 9989   6.982   7.043   5.434 -0.1612  2.9729  0.1000
   76MOL0     H 9990   7.205   7.197   5.506 -1.6582  0.2234 -1.1825
   76MOL0     H 9991   7.078   7.137   5.599 -0.1983 -2.6717  0.7809
   76MOL0     H 9992   7.308   6.953   5.518  1.7359 -3.0420  1.7784
   76MOL0     H 9993   7.189   6.919   5.642  0.9357  0.2102  0.2038
   76MOL0     H 9994   7.452   7.095   5.469 -1.4524  1.4486  0.9862
   76MOL0     H 9995   7.681   7.153   5.425  1.7945  1.4184  0.0166
   76MOL0     H 9996   8.027   7.498   5.532  0.9430  0.1938 -0.4826
   76MOL0     H 9997   8.272   7.538   5.467 -1.1350  0.2707 -1.2284
   76MOL0     H 9998   8.425   7.276   5.162  1.4164  0.6842 -1.6539
   76MOL0     H 9999   8.526   7.205   5.291  0.9542 -0.0387 -1.1998
   76MOL0     H10000   8.602   7.468   5.174  1.4411  0.2067  0.9873
   76MOL0     H10001   8.634   7.308   5.099  0.4721 -1.4929  0.5386
   76MOL0     H10002   8.744   7.248   5.349 -0.3746  0.4422  1.2938
   76MOL0     H10003   8.719   7.417   5.373  0.6198 -0.3301 -0.4861
   76MOL0     H10004   8.878   7.332   5.145 -0.7036  0.7326  0.1935
   76MOL0     H10005   8.874   7.485   5.225 -3.4569  1.0649  0.9193
   76MOL0     H10006   8.979   7.245   5.383  2.3257 -0.9307 -0.9230
   76MOL0     H10007   8.987   7.418   5.409 -0.1633  0.3533 -1.0555
   76MOL0     H10008   9.148   7.275   5.180  1.2496  2.7087 -2.1530
   76MOL0     H10009   9.200   7.318   5.352 -0.4201  0.4737  0.4562
   76MOL0     H10010   9.098   7.508   5.135  1.5470  3.6872 -0.5461
   76MOL0     H10011   9.145   7.556   5.297  2.3852 -0.9311  1.4033
   76MOL0     H10012   9.315   7.577   5.082 -1.7801 -1.8968 -1.1254
   76MOL0     H10013   9.340   7.414   5.114  1.2102 -1.0198  2.0633
   76MOL0     H10014   8.305   7.140   5.324  1.2257  2.7118 -2.6670
   76MOL0     H10015   8.088   7.091   5.398  0.3999  0.1134 -1.8950
   76MOL0     H10016   7.732   7.193   5.863 -2.0018 -0.8946  1.9619
   76MOL0     H10017   7.489   7.154   5.883 -2.4008 -0.6374 -1.6871
   76MOL0     H10018   8.228   8.037   5.151 -2.0222  0.2643  1.6923
   76MOL0     H10019   8.484   8.103   5.126  2.4538 -2.6667  0.1586
   76MOL0     H10020   8.899   8.155   5.570 -2.4196  1.8868 -1.1117
   76MOL0     H10021   9.129   8.239   5.561  4.5147 -0.7104 -1.1264
   76MOL0     H10022   9.335   8.225   5.534  0.9451 -0.2271 -0.5547
   76MOL0     H10023   9.293   8.379   5.465 -0.6507 -0.0348 -3.2610
   76MOL0     H10024   9.520   8.249   5.318 -2.1427 -1.1787 -0.4624
   76MOL0     H10025   9.526   8.410   5.394  3.6944 -1.3565 -0.8407
   76MOL0     H10026   9.547   8.152   5.529  1.2242 -0.4877 -0.9159
   76MOL0     H10027   9.546   8.307   5.615 -2.1880 -0.3862  0.1367
   76MOL0     H10028   9.780   8.190   5.593  4.4822  1.3064 -0.3387
   76MOL0     H10029   9.778   8.203   5.420  1.2708  2.4019 -0.3818
   76MOL0     H10030   9.844   8.617   5.514  1.5643  0.1307 -1.1597
   76MOL0     H10031   9.144   8.136   5.150  0.7462 -1.3009 -0.4546
   76MOL0     H10032   8.917   8.056   5.152 -2.6756 -0.2311  1.0609
   77MOL0     O10033   6.600   3.243   5.555 -0.4387  0.5433 -0.0442
   77MOL0     C10034   6.596   3.307   5.659  0.7385  0.7930 -0.2495
   77MOL0     O10035   6.489   3.371   5.705  0.2711 -0.0190 -0.0879
   77MOL0     C10036   6.359   3.346   5.667  0.6732  0.2215 -0.5101
   77MOL0     C10037   6.257   3.437   5.704 -0.2778  0.2842 -0.5961
   77MOL0     C10038   6.122   3.433   5.655  0.4508  0.1423 -0.2563
   77MOL0     C10039   6.098   3.331   5.575  0.5971 -0.2556 -0.0885
   77MOL0     O10040   5.967   3.319   5.524  0.1093 -0.1275  0.3561
   77MOL0     C10041   5.907   3.195   5.526  0.5456  0.4510  0.2334
   77MOL0     C10042   5.765   3.205   5.473  0.0827 -0.4912  0.3171
   77MOL0     C10043   5.681   3.243   5.599 -0.3148 -0.4229  0.2722
   77MOL0     C10044   5.537   3.266   5.576  0.5217  0.4873 -0.3455
   77MOL0     C10045   5.460   3.311   5.696 -0.7228  0.3717  0.4411
   77MOL0     C10046   5.310   3.309   5.672  0.8159 -0.0076 -0.1803
   77MOL0     C10047   5.236   3.374   5.793  0.8929 -0.1807  0.1803
   77MOL0     C10048   5.083   3.380   5.786  0.3497 -0.6405  1.6831
   77MOL0     N10049   5.037   3.422   5.647 -0.3457  0.5049  0.5443
   77MOL0     C10050   4.950   3.353   5.573 -1.2702 -0.4341  0.2594
   77MOL0     C10051   4.917   3.427   5.464 -0.5881 -0.9427  0.3934
   77MOL0     C10052   4.817   3.410   5.348  0.4775 -0.2265 -0.6248
   77MOL0     C10053   4.667   3.406   5.372 -0.3530  0.0663 -0.9137
   77MOL0     C10054   4.622   3.541   5.420  0.7932 -0.4750 -0.1979
   77MOL0     C10055   4.472   3.527   5.459 -0.3505 -0.5399  0.1841
   77MOL0     O10056   4.384   3.479   5.364  0.2185 -0.5385  0.7455
   77MOL0     C10057   4.246   3.487   5.393 -0.0525  0.6810 -0.6263
   77MOL0     C10058   4.186   3.566   5.492  0.1597 -0.8787  0.4006
   77MOL0     C10059   4.052   3.532   5.512 -0.1686 -0.6596 -0.8674
   77MOL0     C10060   3.982   3.434   5.449 -0.3643  0.2339  0.2634
   77MOL0     C10061   3.844   3.396   5.489 -0.7028  0.2327  1.3304
   77MOL0     O10062   3.796   3.452   5.600  0.5868 -0.2891  0.0256
   77MOL0     C10063   3.675   3.422   5.650 -0.0043  0.0514 -0.3670
   77MOL0     C10064   3.564   3.485   5.602  1.0911  0.9056 -0.2722
   77MOL0     C10065   3.440   3.447   5.655  0.6841  0.3427 -0.3194
   77MOL0     C10066   3.420   3.348   5.752 -0.7561  1.2153 -0.3841
   77MOL0     O10067   3.302   3.320   5.818  0.5116  0.0212  0.0112
   77MOL0     C10068   3.239   3.437   5.865  0.0805 -0.3700 -0.8182
   77MOL0     C10069   3.123   3.417   5.959 -0.7794  0.0862 -0.3600
   77MOL0     C10070   3.005   3.343   5.890  0.9267 -0.7332 -0.5877
   77MOL0     C10071   2.874   3.350   5.971  0.7288  0.7968 -0.9734
   77MOL0     C10072   2.751   3.332   5.880  0.7943 -0.4021  0.4849
   77MOL0     C10073   2.619   3.297   5.954 -0.4131 -0.2870  0.3927
   77MOL0     C10074   2.496   3.254   5.871 -0.9293  0.2972 -0.1278
   77MOL0     C10075   2.451   3.353   5.764 -0.8676 -0.2687 -0.0294
   77MOL0    Cl10076   2.300   3.288   5.687  0.2672 -0.2213  0.6668
   77MOL0     C10077   3.532   3.270   5.786  0.0766  0.4322  0.6098
   77MOL0     C10078   3.661   3.311   5.739  0.4862  0.1761  0.1512
   77MOL0     O10079   3.782   3.319   5.416 -0.0266  0.5858  0.2795
   77MOL0     C10080   4.043   3.363   5.343 -0.8673 -0.1358 -0.6470
   77MOL0     C10081   4.181   3.389   5.317  0.6939 -0.5398  0.8139
   77MOL0     N10082   4.994   3.541   5.485  1.1220  0.0180  0.2996
   77MOL0     N10083   5.065   3.536   5.589 -0.5278 -0.0625 -0.2440
   77MOL0     C10084   6.198   3.241   5.535  0.7722  0.1539 -0.9609
   77MOL0     C10085   6.317   3.242   5.590 -0.3448  0.2137  0.9849
   77MOL0     C10086   6.714   3.318   5.740  0.3672  0.4293  0.2345
   77MOL0     C10087   6.701   3.364   5.870 -0.1548 -0.0699  0.3347
   77MOL0     C10088   6.813   3.377   5.949  0.2677 -0.7964  0.4065
   77MOL0     C10089   6.939   3.336   5.899 -0.4307 -0.0442  0.0788
   77MOL0     O10090   7.051   3.324   5.973 -0.2302 -0.2343 -0.4925
   77MOL0     C10091   7.052   3.371   6.112 -0.2817  0.0306 -0.1684
   77MOL0     C10092   7.191   3.363   6.159 -0.5512 -0.3520  0.7621
   77MOL0     C10093   7.271   3.454   6.063  0.5546  1.0595  0.0241
   77MOL0     C10094   7.420   3.471   6.111  0.4190 -0.3187  0.1520
   77MOL0     C10095   7.477   3.595   6.049 -0.6064  0.5475  0.1778
   77MOL0     C10096   7.527   3.697   6.012 -0.1643 -0.0740 -0.4753
   77MOL0     C10097   6.952   3.294   5.760 -0.0844  0.2129 -0.5909
   77MOL0     C10098   6.838   3.293   5.681  0.3202 -0.3153 -0.5254
   77MOL0     H10099   6.298   3.523   5.757  2.5340 -1.8897  1.0548
   77MOL0     H10100   6.048   3.508   5.682 -0.3038  0.7901 -3.7043
   77MOL0     H10101   5.898   3.157   5.628  1.1421 -0.0560  0.1026
   77MOL0     H10102   5.956   3.116   5.468  1.4364 -1.8018  3.7848
   77MOL0     H10103   5.738   3.104   5.441 -1.4978 -0.5000  1.5750
   77MOL0     H10104   5.768   3.277   5.391 -2.1376 -2.0703 -1.2987
   77MOL0     H10105   5.719   3.336   5.643  0.3708 -0.1397 -0.8853
   77MOL0     H10106   5.690   3.177   5.687  0.1355  2.3702  2.4678
   77MOL0     H10107   5.528   3.339   5.495  0.6414  0.3408 -0.4928
   77MOL0     H10108   5.497   3.171   5.539  1.5191  0.1184 -0.4987
   77MOL0     H10109   5.483   3.413   5.726 -1.0822 -0.0967  2.4971
   77MOL0     H10110   5.485   3.238   5.774  0.0561 -1.4280 -1.4167
   77MOL0     H10111   5.265   3.211   5.652  0.2691  0.1171  0.3973
   77MOL0     H10112   5.295   3.378   5.589 -0.9479  1.3280  1.1709
   77MOL0     H10113   5.272   3.334   5.889  4.5477  4.8594  1.3278
   77MOL0     H10114   5.265   3.479   5.796  0.1303  0.0431 -0.1814
   77MOL0     H10115   5.052   3.454   5.860 -0.4756 -0.5214  1.2329
   77MOL0     H10116   5.035   3.285   5.813 -4.4152  0.7968 -0.5506
   77MOL0     H10117   4.918   3.256   5.610 -0.2102 -1.5554 -1.5459
   77MOL0     H10118   4.845   3.313   5.306  2.6586  1.0183 -2.3142
   77MOL0     H10119   4.831   3.475   5.261 -2.0419 -0.9458 -1.6785
   77MOL0     H10120   4.659   3.330   5.450  1.9592  1.9546  1.3403
   77MOL0     H10121   4.611   3.387   5.280 -0.1924  0.7587 -1.1573
   77MOL0     H10122   4.683   3.567   5.507  1.1212  0.2051 -0.6210
   77MOL0     H10123   4.635   3.618   5.343 -0.1411 -1.4379 -1.3641
   77MOL0     H10124   4.442   3.632   5.469 -0.5166 -0.6728  1.1300
   77MOL0     H10125   4.463   3.478   5.556  2.0415  2.3847  2.0493
   77MOL0     H10126   4.236   3.641   5.552 -0.4585 -1.5009  1.7466
   77MOL0     H10127   4.006   3.589   5.592 -1.1329 -1.3748 -0.8946
   77MOL0     H10128   3.577   3.555   5.520  1.0383  2.0151  0.6440
   77MOL0     H10129   3.346   3.485   5.616  0.6563  0.3920 -0.2052
   77MOL0     H10130   3.191   3.479   5.776  0.2700 -1.5365 -1.4959
   77MOL0     H10131   3.306   3.507   5.917 -1.2651 -0.2875  0.8952
   77MOL0     H10132   3.098   3.513   6.007  1.3040 -0.3764  1.8654
   77MOL0     H10133   3.148   3.353   6.044  1.4125 -0.1289 -1.1108
   77MOL0     H10134   3.038   3.239   5.898  2.2391 -0.1926  2.8161
   77MOL0     H10135   2.977   3.374   5.789  5.1704 -1.1955 -2.0982
   77MOL0     H10136   2.873   3.279   6.054  0.8420  0.8596 -0.9191
   77MOL0     H10137   2.874   3.447   6.021 -1.0192  1.2679 -1.8209
   77MOL0     H10138   2.782   3.246   5.820  1.1485 -0.4402  0.7238
   77MOL0     H10139   2.733   3.418   5.814 -3.4118 -1.1479  0.3531
   77MOL0     H10140   2.605   3.383   6.020  2.5218 -0.7694  1.7856
   77MOL0     H10141   2.649   3.221   6.027  1.2600  0.2243  0.2657
   77MOL0     H10142   2.494   3.159   5.817  0.9862 -0.7837  1.6007
   77MOL0     H10143   2.418   3.232   5.944  0.8088 -0.2487  1.6236
   77MOL0     H10144   2.532   3.352   5.691  1.7857 -2.5056  2.6660
   77MOL0     H10145   2.439   3.453   5.807  0.5889 -0.3754  0.6917
   77MOL0     H10146   3.530   3.184   5.852  4.7108  0.1645  0.7457
   77MOL0     H10147   3.750   3.262   5.776  1.0422  1.0022 -0.0430
   77MOL0     H10148   3.981   3.294   5.288 -2.0731 -1.4265  2.1429
   77MOL0     H10149   4.232   3.333   5.240  1.4582 -0.1223  1.0124
   77MOL0     H10150   6.174   3.151   5.479 -1.9954 -1.1937  2.0301
   77MOL0     H10151   6.389   3.164   5.565  3.1753  1.8213  4.8449
   77MOL0     H10152   6.604   3.391   5.911 -0.4657  0.3156 -0.6170
   77MOL0     H10153   6.800   3.416   6.050  2.4967  2.2718 -0.3218
   77MOL0     H10154   7.001   3.310   6.187  0.6685  1.1650  1.4666
   77MOL0     H10155   7.007   3.471   6.113 -3.1191 -1.1599 -0.1620
   77MOL0     H10156   7.205   3.401   6.261 -0.5076 -0.2083  0.7034
   77MOL0     H10157   7.238   3.264   6.155 -0.2425 -0.1797 -0.3582
   77MOL0     H10158   7.217   3.547   6.044  2.1134  2.6603  2.7470
   77MOL0     H10159   7.272   3.399   5.969 -3.6367 -2.0821  1.4604
   77MOL0     H10160   7.425   3.468   6.220 -0.9364  1.8667  0.3464
   77MOL0     H10161   7.487   3.392   6.079 -0.0333  0.0384 -1.8084
   77MOL0     H10162   7.566   3.783   5.962  0.3559  0.0935  0.2000
   77MOL0     H10163   7.052   3.270   5.725 -0.3510 -1.8028 -0.0587
   77MOL0     H10164   6.849   3.267   5.576  0.5647  2.1889 -1.1863
   78MOL0     O10165   6.244   5.540   8.811 -0.4470  0.6023 -0.0422
   78MOL0     C10166   6.292   5.538   8.695 -0.3871  0.9242 -0.1723
   78MOL0     O10167   6.227   5.523   8.583  0.1505  0.1735  0.3017
   78MOL0     C10168   6.093   5.493   8.567 -0.6040  0.4443 -0.5790
   78MOL0     C10169   6.055   5.487   8.427 -0.9332  0.1755 -0.0482
   78MOL0     C10170   5.926   5.457   8.392  0.2769  0.1881 -0.3990
   78MOL0     C10171   5.832   5.423   8.490  0.1270 -0.8114  0.3686
   78MOL0     O10172   5.718   5.377   8.431 -0.5172  0.4889  0.2956
   78MOL0     C10173   5.597   5.388   8.506 -0.2193 -0.1119 -0.1667
   78MOL0     C10174   5.481   5.353   8.410 -0.5497 -0.5606  0.9371
   78MOL0     C10175   5.349   5.323   8.480 -0.4780 -0.7545 -0.3604
   78MOL0     C10176   5.239   5.314   8.383 -0.7308 -0.2032 -0.4815
   78MOL0     C10177   5.109   5.263   8.437  0.0946 -0.0250  0.9992
   78MOL0     C10178   4.990   5.265   8.334 -0.3555  0.2827  0.2070
   78MOL0     C10179   4.960   5.406   8.280  0.0656 -0.2388  0.5024
   78MOL0     C10180   4.837   5.418   8.195  0.5855 -0.2817  0.2183
   78MOL0     N10181   4.716   5.404   8.287 -0.6746  0.3492  0.5239
   78MOL0     C10182   4.644   5.288   8.309 -0.1444  0.0398 -0.5626
   78MOL0     C10183   4.543   5.315   8.388  0.9982 -0.1385 -0.0731
   78MOL0     C10184   4.445   5.216   8.442 -0.3570 -0.4288 -0.6233
   78MOL0     C10185   4.337   5.199   8.339  0.8934 -0.2234  0.4823
   78MOL0     C10186   4.230   5.316   8.350 -0.1628 -0.9193  0.1538
   78MOL0     C10187   4.129   5.281   8.451 -0.6643 -0.0560  0.3676
   78MOL0     O10188   4.032   5.379   8.444  0.1549 -0.2794 -0.2299
   78MOL0     C10189   3.908   5.348   8.493 -0.1092  0.3379  0.4436
   78MOL0     C10190   3.884   5.267   8.608 -0.3839 -0.6117 -0.6292
   78MOL0     C10191   3.749   5.243   8.643 -0.4646  0.5814  0.0260
   78MOL0     C10192   3.645   5.302   8.573 -0.1106 -0.5525 -0.1349
   78MOL0     C10193   3.512   5.254   8.603 -0.3289 -0.3022 -0.3824
   78MOL0     O10194   3.405   5.318   8.525  0.0882 -0.1985 -0.3938
   78MOL0     C10195   3.278   5.327   8.580 -0.4460  1.6366 -0.3581
   78MOL0     C10196   3.215   5.450   8.574 -0.3021  0.6608  0.5233
   78MOL0     C10197   3.078   5.450   8.598  0.8135 -0.4987  0.4010
   78MOL0     C10198   3.009   5.332   8.634  0.6018 -0.5274  0.1255
   78MOL0     O10199   2.871   5.342   8.652 -0.3645  0.1942  0.6713
   78MOL0     C10200   2.775   5.230   8.645 -0.3970  0.4764 -1.3732
   78MOL0     C10201   2.636   5.279   8.689 -0.4679 -0.4263  0.8170
   78MOL0     C10202   2.613   5.279   8.846 -0.0192 -0.1783 -0.3089
   78MOL0     C10203   2.471   5.300   8.891  0.1682 -0.2255 -0.4642
   78MOL0     C10204   2.451   5.297   9.036  0.4517 -0.0405  0.1665
   78MOL0     C10205   2.490   5.158   9.107 -0.5950  0.6024  0.1925
   78MOL0     C10206   2.453   5.148   9.256 -0.2954 -0.2593 -0.3971
   78MOL0     C10207   2.522   5.028   9.331 -0.4304 -0.9899 -0.4992
   78MOL0    Cl10208   2.675   5.104   9.388 -0.0152  0.0094 -0.2267
   78MOL0     C10209   3.079   5.215   8.659 -0.1664 -0.0300  0.1101
   78MOL0     C10210   3.214   5.218   8.626  0.5217 -0.3629  0.5873
   78MOL0     O10211   3.495   5.182   8.701  0.5405  0.4088  0.2562
   78MOL0     C10212   3.672   5.403   8.475  0.7110  0.6369 -0.3893
   78MOL0     C10213   3.806   5.408   8.426  0.2460  0.5545 -0.0764
   78MOL0     N10214   4.556   5.451   8.423  0.1126 -0.1585 -0.7116
   78MOL0     N10215   4.665   5.508   8.368 -0.0270  1.0144  0.6197
   78MOL0     C10216   5.864   5.425   8.623 -0.0986  0.6889 -0.6729
   78MOL0     C10217   5.989   5.470   8.660 -0.3653  0.6200  0.6929
   78MOL0     C10218   6.442   5.563   8.673  0.1670  0.0470  0.4180
   78MOL0     C10219   6.523   5.613   8.771 -0.2984 -0.0816  0.4842
   78MOL0     C10220   6.653   5.647   8.747 -0.1581 -0.3960 -0.1894
   78MOL0     C10221   6.700   5.636   8.611  0.0635 -1.3888 -0.6794
   78MOL0     O10222   6.823   5.677   8.566  0.3811 -0.1116 -0.2634
   78MOL0     C10223   6.934   5.663   8.654 -0.3051  0.1080 -0.0335
   78MOL0     C10224   6.974   5.801   8.704  0.8830  0.6882 -0.3787
   78MOL0     C10225   7.078   5.790   8.816  0.4122 -0.5890  0.0130
   78MOL0     C10226   7.093   5.937   8.860 -0.0399 -0.3943 -0.4021
   78MOL0     C10227   7.210   5.946   8.952 -0.5772  0.5519 -1.2869
   78MOL0     C10228   7.307   5.952   9.028 -0.2146 -1.0876  0.1361
   78MOL0     C10229   6.617   5.595   8.513  0.3620 -0.1051  0.1675
   78MOL0     C10230   6.487   5.562   8.544 -0.1384 -0.2540 -0.4324
   78MOL0     H10231   6.117   5.513   8.342 -2.3081 -0.3002 -1.2506
   78MOL0     H10232   5.896   5.458   8.288  1.0926  0.5418 -0.6323
   78MOL0     H10233   5.579   5.485   8.553 -1.1304 -0.7575  0.8632
   78MOL0     H10234   5.602   5.306   8.577 -0.5405 -0.4580 -0.5342
   78MOL0     H10235   5.504   5.262   8.355  0.8179 -0.3446  1.1281
   78MOL0     H10236   5.468   5.431   8.335 -1.7138 -2.0495 -0.4682
   78MOL0     H10237   5.339   5.411   8.545  1.4552 -2.0497  1.8354
   78MOL0     H10238   5.350   5.231   8.539  1.5652  0.2944  1.4106
   78MOL0     H10239   5.225   5.416   8.347 -2.5449 -1.0710 -2.5259
   78MOL0     H10240   5.275   5.249   8.302 -2.2913 -1.9210  0.1186
   78MOL0     H10241   5.084   5.321   8.526  0.7302  0.1893  1.0416
   78MOL0     H10242   5.124   5.164   8.480  0.1054 -0.2083  0.5847
   78MOL0     H10243   4.903   5.235   8.393  0.0337 -0.3941  0.4441
   78MOL0     H10244   5.005   5.204   8.244  2.0927  2.7419 -1.2154
   78MOL0     H10245   4.962   5.472   8.368  0.5371  0.3595  0.0489
   78MOL0     H10246   5.042   5.440   8.216 -1.0775  2.5682  0.3648
   78MOL0     H10247   4.828   5.338   8.121 -3.5340  0.7920 -0.6883
   78MOL0     H10248   4.853   5.510   8.139  3.4824 -0.1735  1.0830
   78MOL0     H10249   4.670   5.192   8.267  0.8144  0.7428 -1.6516
   78MOL0     H10250   4.407   5.249   8.540 -1.3490 -0.9763 -0.8088
   78MOL0     H10251   4.491   5.119   8.461  0.0428  0.0340  0.9191
   78MOL0     H10252   4.290   5.102   8.357  0.2863 -0.2312 -1.0179
   78MOL0     H10253   4.381   5.195   8.239  0.4288 -2.5005  0.3088
   78MOL0     H10254   4.277   5.408   8.384 -3.1566  1.8954 -2.5905
   78MOL0     H10255   4.185   5.348   8.255 -0.1507 -1.4359 -0.0307
   78MOL0     H10256   4.167   5.270   8.553 -2.5359  4.7998  1.8838
   78MOL0     H10257   4.091   5.186   8.412  1.4647 -0.1216 -1.7750
   78MOL0     H10258   3.961   5.220   8.669 -1.7584  0.6613  2.3194
   78MOL0     H10259   3.736   5.161   8.714  0.2724  1.2817  0.9994
   78MOL0     H10260   3.258   5.541   8.533  0.6892 -0.2343 -0.4829
   78MOL0     H10261   3.017   5.538   8.580 -0.6701 -1.7491 -1.0068
   78MOL0     H10262   2.810   5.140   8.696  0.7495  1.6974  0.1019
   78MOL0     H10263   2.779   5.197   8.541 -1.9142 -0.4919 -1.1466
   78MOL0     H10264   2.563   5.216   8.637  0.6847 -0.0416 -1.3664
   78MOL0     H10265   2.632   5.375   8.636 -1.7513 -1.6127 -1.3882
   78MOL0     H10266   2.674   5.352   8.900 -0.8143 -1.9307  3.2422
   78MOL0     H10267   2.645   5.185   8.891 -0.6125 -0.9191 -1.3782
   78MOL0     H10268   2.445   5.401   8.858  0.1288 -0.3663 -0.8710
   78MOL0     H10269   2.400   5.233   8.841 -0.1466 -1.1548  1.1264
   78MOL0     H10270   2.344   5.313   9.051 -0.1841 -1.8325 -1.8826
   78MOL0     H10271   2.504   5.381   9.082  0.6177 -0.8748  1.5532
   78MOL0     H10272   2.598   5.141   9.114 -0.6760  0.5026  1.4379
   78MOL0     H10273   2.434   5.072   9.071  0.5379 -0.0781 -0.0159
   78MOL0     H10274   2.463   5.246   9.303  2.2491 -0.8764  0.5157
   78MOL0     H10275   2.348   5.119   9.269  0.0464 -1.2135  0.3175
   78MOL0     H10276   2.548   4.942   9.269  0.8297  0.3107 -1.8589
   78MOL0     H10277   2.476   5.000   9.426  1.0690  1.2683  0.9740
   78MOL0     H10278   3.017   5.131   8.689 -2.9170  1.7497 -0.1663
   78MOL0     H10279   3.277   5.131   8.608 -0.0569 -0.2853 -2.4752
   78MOL0     H10280   3.589   5.445   8.420 -1.0550 -2.5789 -0.4456
   78MOL0     H10281   3.835   5.471   8.343 -1.0873 -0.9255 -1.7381
   78MOL0     H10282   5.788   5.405   8.697 -2.2637 -0.1471 -2.9717
   78MOL0     H10283   6.022   5.464   8.763 -1.5981  0.2480  1.0809
   78MOL0     H10284   6.475   5.605   8.868 -0.9385 -2.9346  0.0199
   78MOL0     H10285   6.716   5.691   8.824 -2.6978  2.3245  0.5295
   78MOL0     H10286   7.011   5.626   8.586  0.2168  0.1429  0.5279
   78MOL0     H10287   6.911   5.590   8.732  0.7601  3.7716  4.0959
   78MOL0     H10288   7.010   5.863   8.622  1.1602 -0.3351 -1.0447
   78MOL0     H10289   6.884   5.848   8.743  0.2320 -2.3225  2.1661
   78MOL0     H10290   7.162   5.743   8.765  1.5063  1.5431 -0.2529
   78MOL0     H10291   7.028   5.735   8.896 -2.4997  2.7931  0.7842
   78MOL0     H10292   7.115   6.010   8.781 -3.0010  0.7775 -0.2740
   78MOL0     H10293   6.992   5.955   8.898 -0.6772 -2.5813 -0.9010
   78MOL0     H10294   7.392   5.967   9.091 -2.3541  1.8789  2.6066
   78MOL0     H10295   6.659   5.574   8.415  3.8190  0.8486  1.3067
   78MOL0     H10296   6.430   5.513   8.466  4.1625 -2.6780 -2.4734
   79MOL0     O10297   6.390   7.671   3.710 -0.8109 -0.0500  0.1273
   79MOL0     C10298   6.322   7.651   3.807  0.1470  0.4242 -0.2188
   79MOL0     O10299   6.362   7.611   3.926 -0.4261 -0.8207  0.0609
   79MOL0     C10300   6.490   7.627   3.978  0.3121 -0.1625  0.7615
   79MOL0     C10301   6.509   7.565   4.105 -0.4087 -0.7822  0.3088
   79MOL0     C10302   6.635   7.563   4.169 -0.4550 -0.0370  0.5355
   79MOL0     C10303   6.742   7.642   4.112  0.2241 -0.6405 -0.3586
   79MOL0     O10304   6.868   7.633   4.154 -0.3407 -0.7379 -0.5789
   79MOL0     C10305   6.945   7.517   4.120  0.0941 -0.0338 -0.5657
   79MOL0     C10306   7.094   7.537   4.131 -0.0790  0.0024  0.3132
   79MOL0     C10307   7.142   7.608   4.257  0.0019  1.1069  0.6995
   79MOL0     C10308   7.085   7.561   4.387 -0.4282 -0.4194  0.0602
   79MOL0     C10309   7.138   7.650   4.504 -0.0677 -0.1205  0.1464
   79MOL0     C10310   7.074   7.791   4.497 -0.4999  0.0613 -0.3891
   79MOL0     C10311   6.921   7.779   4.520 -0.1221  0.6503  1.1557
   79MOL0     C10312   6.874   7.918   4.556  0.6082  0.2974 -0.6059
   79MOL0     N10313   6.726   7.929   4.563 -0.2155  0.4858 -0.7951
   79MOL0     C10314   6.664   8.014   4.475 -0.2039  0.7782  0.0519
   79MOL0     C10315   6.536   8.001   4.523  1.4360  0.7772  0.1666
   79MOL0     C10316   6.406   8.059   4.472  0.6712  0.2457 -0.2122
   79MOL0     C10317   6.383   7.990   4.337 -0.2426  0.4102 -0.8939
   79MOL0     C10318   6.278   8.069   4.257  0.2634  0.6023  0.2114
   79MOL0     C10319   6.227   8.005   4.125 -0.1656 -0.1624  0.6695
   79MOL0     O10320   6.117   7.910   4.145 -0.7525 -0.4829 -0.4103
   79MOL0     C10321   6.005   7.955   4.207 -0.4247 -0.4270  0.2146
   79MOL0     C10322   5.967   8.087   4.220 -0.2186  0.8998 -0.8315
   79MOL0     C10323   5.843   8.118   4.278 -0.3765  0.0373  0.0838
   79MOL0     C10324   5.747   8.023   4.307 -1.1657  0.1368  0.1994
   79MOL0     C10325   5.615   8.056   4.351  0.3255  0.7654  0.4214
   79MOL0     O10326   5.519   7.951   4.344 -0.6510  0.3761 -0.2697
   79MOL0     C10327   5.386   7.984   4.331 -0.1539  0.4582  0.5987
   79MOL0     C10328   5.293   7.901   4.387  0.1652  1.0782 -0.5750
   79MOL0     C10329   5.153   7.926   4.390  0.2102  0.2168  0.3897
   79MOL0     C10330   5.110   8.036   4.318  0.5577  1.0249 -0.1732
   79MOL0     O10331   4.971   8.055   4.311  0.1435  0.3055  0.2536
   79MOL0     C10332   4.924   8.094   4.179 -0.2092  0.3999  0.9541
   79MOL0     C10333   4.784   8.041   4.152  0.5281  0.3873 -0.3467
   79MOL0     C10334   4.692   8.098   4.261  0.5232  0.5187  0.0756
   79MOL0     C10335   4.551   8.050   4.231  0.9182 -1.2571 -0.2497
   79MOL0     C10336   4.458   8.103   4.348  0.7875  0.3837 -0.6040
   79MOL0     C10337   4.299   8.057   4.348 -0.7898  0.1711  0.3849
   79MOL0     C10338   4.236   8.098   4.482 -0.3419 -0.5904  0.3083
   79MOL0     C10339   4.086   8.065   4.489 -0.5434 -0.4582 -0.8015
   79MOL0    Cl10340   4.020   8.149   4.631 -0.0772  0.4269 -0.0472
   79MOL0     C10341   5.208   8.124   4.258 -0.2432 -0.1067 -1.0534
   79MOL0     C10342   5.341   8.107   4.265 -0.3725 -0.7077  0.1661
   79MOL0     O10343   5.592   8.171   4.384  0.7423 -0.6208  0.8320
   79MOL0     C10344   5.788   7.890   4.283 -0.4357  0.3056 -0.4247
   79MOL0     C10345   5.913   7.860   4.228  0.5674  0.6797 -1.0108
   79MOL0     N10346   6.525   7.921   4.639  0.3417 -0.2095  0.8496
   79MOL0     N10347   6.645   7.877   4.663  0.5730 -0.7214 -0.8111
   79MOL0     C10348   6.719   7.708   3.991  0.1320  0.6505 -0.1986
   79MOL0     C10349   6.598   7.698   3.919 -0.7635  0.2287 -0.2168
   79MOL0     C10350   6.178   7.664   3.793  0.5456 -0.2925  0.8314
   79MOL0     C10351   6.103   7.646   3.912  1.5197 -0.2716  0.9849
   79MOL0     C10352   5.966   7.651   3.906  0.5995  0.3282  0.1408
   79MOL0     C10353   5.900   7.657   3.780  0.7451  0.2222  0.6422
   79MOL0     O10354   5.762   7.647   3.774  0.0749 -0.0365 -0.1896
   79MOL0     C10355   5.705   7.557   3.671 -0.2388 -0.9375 -0.7901
   79MOL0     C10356   5.705   7.407   3.718 -0.7115 -0.1807 -0.7962
   79MOL0     C10357   5.853   7.358   3.727 -0.1071  0.3716  0.0808
   79MOL0     C10358   5.844   7.205   3.734 -0.4167 -0.3241  0.3728
   79MOL0     C10359   5.774   7.165   3.859 -0.1091  0.0434  0.0872
   79MOL0     C10360   5.712   7.129   3.966  0.4167 -0.6514  0.2093
   79MOL0     C10361   5.980   7.684   3.666 -1.4677  0.3918 -0.0546
   79MOL0     C10362   6.116   7.685   3.663 -0.0584 -0.2236 -0.4964
   79MOL0     H10363   6.433   7.498   4.144  0.1161 -2.1400 -0.8908
   79MOL0     H10364   6.649   7.509   4.262  0.8637 -1.2873 -0.3438
   79MOL0     H10365   6.920   7.486   4.018  1.4070  1.4566 -1.3867
   79MOL0     H10366   6.920   7.433   4.185  1.5892 -1.2278 -1.4680
   79MOL0     H10367   7.119   7.597   4.043 -1.2465  1.0084  0.6228
   79MOL0     H10368   7.139   7.438   4.122  0.3867  0.0838  1.5082
   79MOL0     H10369   7.122   7.715   4.243 -0.1616  0.7287 -2.9874
   79MOL0     H10370   7.251   7.599   4.260  0.1086  0.5544 -1.9200
   79MOL0     H10371   6.977   7.561   4.375 -0.2617  0.6770 -1.8241
   79MOL0     H10372   7.127   7.462   4.404 -1.1791 -0.3967  2.4786
   79MOL0     H10373   7.248   7.651   4.496 -0.1031 -2.4057 -1.5973
   79MOL0     H10374   7.125   7.593   4.596  4.1822 -3.0496 -0.7401
   79MOL0     H10375   7.085   7.852   4.406  0.3098  5.6478  2.9734
   79MOL0     H10376   7.120   7.846   4.579 -1.7015  1.1499 -0.4026
   79MOL0     H10377   6.864   7.743   4.434 -1.2646  1.3576  1.5944
   79MOL0     H10378   6.901   7.713   4.605 -0.0150 -2.3893 -0.9909
   79MOL0     H10379   6.921   7.990   4.488  1.2623  0.5755  0.1351
   79MOL0     H10380   6.918   7.929   4.655 -2.8904 -1.7649  1.3503
   79MOL0     H10381   6.701   8.073   4.392  2.2327 -0.9987 -0.2342
   79MOL0     H10382   6.403   8.168   4.459 -2.3696  0.2854  0.0462
   79MOL0     H10383   6.325   8.041   4.543  0.5417  1.9129  0.0962
   79MOL0     H10384   6.347   7.890   4.364  0.8273  0.2732  0.1058
   79MOL0     H10385   6.474   7.976   4.277  0.5608  2.1826 -0.1531
   79MOL0     H10386   6.204   8.095   4.334 -2.5211  0.0065 -2.0959
   79MOL0     H10387   6.325   8.163   4.226  2.4446 -0.9042 -1.3075
   79MOL0     H10388   6.309   7.953   4.074 -0.1417  0.5814 -0.0676
   79MOL0     H10389   6.199   8.083   4.054 -0.0660 -2.1502 -1.6994
   79MOL0     H10390   6.031   8.174   4.201  0.2074  1.2691  1.9285
   79MOL0     H10391   5.815   8.223   4.280 -0.6998 -0.0045 -1.1086
   79MOL0     H10392   5.323   7.814   4.443  0.1027  0.5553 -1.3359
   79MOL0     H10393   5.088   7.857   4.442 -1.2036 -1.0477 -2.7677
   79MOL0     H10394   4.982   8.040   4.104 -0.6637  0.4934  0.5315
   79MOL0     H10395   4.925   8.203   4.169 -3.1112  0.5218  1.0464
   79MOL0     H10396   4.780   7.932   4.149 -1.8157  0.4369 -1.6683
   79MOL0     H10397   4.759   8.078   4.052 -0.0562  2.1157  0.3882
   79MOL0     H10398   4.691   8.207   4.259 -0.1453  0.5299  0.6452
   79MOL0     H10399   4.721   8.073   4.364 -1.3244  2.7804  1.2355
   79MOL0     H10400   4.530   8.088   4.131  1.6699  2.6562  0.9187
   79MOL0     H10401   4.548   7.940   4.228  1.5510 -1.3492  1.3464
   79MOL0     H10402   4.462   8.211   4.367 -0.6595  0.2949  0.3644
   79MOL0     H10403   4.501   8.066   4.442  0.0707 -1.4992 -0.9758
   79MOL0     H10404   4.305   7.948   4.351  0.4755  0.1972 -0.2682
   79MOL0     H10405   4.257   8.094   4.254  1.2653  1.4525 -0.0849
   79MOL0     H10406   4.295   8.052   4.562 -0.9173 -1.0639  0.4765
   79MOL0     H10407   4.243   8.200   4.520  1.2524 -0.0174 -1.4032
   79MOL0     H10408   4.076   7.957   4.509  5.1039 -1.3611 -1.0308
   79MOL0     H10409   4.040   8.097   4.395 -0.9857  0.3643 -0.3123
   79MOL0     H10410   5.186   8.214   4.202 -0.3437 -0.7918 -2.1525
   79MOL0     H10411   5.409   8.172   4.211 -0.3200 -1.2604 -0.4502
   79MOL0     H10412   5.735   7.798   4.305 -0.6825  0.3238 -0.9405
   79MOL0     H10413   5.959   7.763   4.208 -2.0725 -1.7177  3.1444
   79MOL0     H10414   6.795   7.775   3.954  2.2001 -1.5660 -0.2407
   79MOL0     H10415   6.591   7.759   3.829  1.4123  3.1692  1.4460
   79MOL0     H10416   6.139   7.620   4.011 -1.3975 -2.0797  1.6812
   79MOL0     H10417   5.895   7.627   3.984 -0.7223  0.3926 -1.0135
   79MOL0     H10418   5.755   7.585   3.578 -1.6843 -0.4982 -1.4617
   79MOL0     H10419   5.599   7.582   3.664 -0.0954  0.2596  0.9012
   79MOL0     H10420   5.666   7.397   3.820 -1.7923 -0.3734 -1.2196
   79MOL0     H10421   5.642   7.344   3.655  0.5409 -2.0402 -0.2666
   79MOL0     H10422   5.918   7.404   3.803  1.8920 -1.1094 -0.6451
   79MOL0     H10423   5.904   7.386   3.634  1.7902  1.7699  1.4600
   79MOL0     H10424   5.799   7.168   3.641  1.2132  1.8686 -1.4048
   79MOL0     H10425   5.946   7.167   3.735 -0.2361  0.0834 -0.7510
   79MOL0     H10426   5.660   7.104   4.056  0.7264  2.0529  1.2358
   79MOL0     H10427   5.934   7.703   3.570 -2.0573 -0.7247 -0.0113
   79MOL0     H10428   6.173   7.708   3.573  0.3216 -2.0534 -0.7546
   80MOL0     O10429   7.175   1.745   3.489  0.1967 -0.2202  0.3408
   80MOL0     C10430   7.192   1.777   3.373  0.1262 -0.8747  0.1011
   80MOL0     O10431   7.309   1.812   3.319  0.2311 -0.3440  0.3268
   80MOL0     C10432   7.428   1.817   3.377 -0.0982 -0.4456 -0.5192
   80MOL0     C10433   7.536   1.872   3.305 -0.7060  0.0085 -0.2101
   80MOL0     C10434   7.669   1.873   3.340  0.7315 -0.1974 -0.4034
   80MOL0     C10435   7.701   1.812   3.465  0.6789 -0.0493  0.8925
   80MOL0     O10436   7.830   1.799   3.494  0.5286 -0.1851 -0.0936
   80MOL0     C10437   7.857   1.803   3.634  0.6294  0.4402  0.0756
   80MOL0     C10438   7.998   1.850   3.664 -1.1099 -0.0533  0.6743
   80MOL0     C10439   8.106   1.732   3.654  0.1988 -0.7444 -0.1818
   80MOL0     C10440   8.233   1.750   3.736  0.7743 -0.1666  0.7378
   80MOL0     C10441   8.319   1.627   3.711 -0.6333 -0.3535 -0.4074
   80MOL0     C10442   8.457   1.642   3.786  0.1083  0.3069  0.0774
   80MOL0     C10443   8.540   1.505   3.791  0.6630 -1.5239  0.3011
   80MOL0     C10444   8.604   1.471   3.653 -0.5703 -1.0619  0.4502
   80MOL0     N10445   8.716   1.564   3.625 -0.0695  0.3347  0.5253
   80MOL0     C10446   8.848   1.550   3.659  0.4639 -1.0859 -0.8668
   80MOL0     C10447   8.920   1.660   3.609 -0.2386  0.6985 -0.1153
   80MOL0     C10448   9.058   1.698   3.638  0.0098 -0.6477  0.4846
   80MOL0     C10449   9.157   1.605   3.578 -0.5195  0.2234 -0.3454
   80MOL0     C10450   9.139   1.580   3.422 -1.4926  0.1153 -0.1972
   80MOL0     C10451   9.164   1.707   3.340  0.3294  0.4946  0.3920
   80MOL0     O10452   9.170   1.682   3.196  0.1373 -0.6968 -1.0640
   80MOL0     C10453   9.062   1.648   3.120  1.2065  0.2363 -1.2106
   80MOL0     C10454   8.933   1.664   3.174 -0.2789 -0.2652 -1.1293
   80MOL0     C10455   8.819   1.614   3.107  0.1793 -0.4915 -0.4776
   80MOL0     C10456   8.833   1.556   2.987  0.0732 -0.1088  0.1416
   80MOL0     C10457   8.711   1.495   2.912  0.2456  0.3743  0.4402
   80MOL0     O10458   8.718   1.452   2.779 -0.4773 -0.2013 -0.2029
   80MOL0     C10459   8.603   1.400   2.711 -0.6634 -0.2957  0.3399
   80MOL0     C10460   8.581   1.432   2.575 -1.2999  0.5528  0.4073
   80MOL0     C10461   8.489   1.373   2.495 -0.5239 -0.5413 -0.4971
   80MOL0     C10462   8.400   1.280   2.554 -0.0291 -0.0745 -0.0857
   80MOL0     O10463   8.303   1.211   2.485  0.4383 -0.0093  0.3329
   80MOL0     C10464   8.350   1.187   2.347  0.4129  0.2455 -0.0456
   80MOL0     C10465   8.270   1.075   2.296 -0.5022  0.7903  0.4572
   80MOL0     C10466   8.309   1.042   2.156  0.0968 -0.8614  0.1661
   80MOL0     C10467   8.238   0.913   2.103 -0.4305 -0.0043 -0.0007
   80MOL0     C10468   8.322   0.846   1.991 -0.5754 -0.0347  0.3133
   80MOL0     C10469   8.244   0.735   1.919 -0.2592 -0.1827  0.9239
   80MOL0     C10470   8.113   0.768   1.850  0.5261 -0.0813  0.3944
   80MOL0     C10471   8.135   0.867   1.741 -0.1961  0.7063 -0.1897
   80MOL0    Cl10472   8.054   1.019   1.763 -0.9368 -0.1102  0.2355
   80MOL0     C10473   8.412   1.242   2.686 -0.3621 -0.5701 -0.6221
   80MOL0     C10474   8.516   1.303   2.765  0.4274  0.2736 -0.8671
   80MOL0     O10475   8.604   1.489   2.973  0.4324 -0.5452  0.0489
   80MOL0     C10476   8.960   1.551   2.925  0.7123 -0.2330 -0.4097
   80MOL0     C10477   9.067   1.596   2.996 -0.6443  0.1385 -0.9847
   80MOL0     N10478   8.832   1.735   3.536 -0.2088  0.0883  0.1141
   80MOL0     N10479   8.714   1.673   3.540 -0.9353 -0.0420 -0.1528
   80MOL0     C10480   7.595   1.761   3.538 -0.6954  0.1244  0.0331
   80MOL0     C10481   7.458   1.756   3.498 -0.2828 -1.0274  0.7714
   80MOL0     C10482   7.055   1.783   3.303  0.2053  1.3230  0.5219
   80MOL0     C10483   7.041   1.875   3.199  0.0534 -0.5363 -0.0450
   80MOL0     C10484   6.922   1.895   3.136  0.3080  0.1695 -0.0653
   80MOL0     C10485   6.808   1.816   3.171 -0.1936  0.1310  1.2782
   80MOL0     O10486   6.690   1.847   3.102 -0.3934  0.8716 -0.3296
   80MOL0     C10487   6.570   1.781   3.138 -0.1549 -0.6001  0.2105
   80MOL0     C10488   6.497   1.857   3.245  0.0549 -0.1678  0.2046
   80MOL0     C10489   6.357   1.799   3.296 -0.3941 -0.4662 -0.4087
   80MOL0     C10490   6.358   1.734   3.432 -0.2760  0.3807  0.5527
   80MOL0     C10491   6.452   1.616   3.434 -0.0207 -0.9608  0.9912
   80MOL0     C10492   6.536   1.526   3.436 -0.5181  0.4913 -0.2116
   80MOL0     C10493   6.821   1.725   3.272  0.2958 -0.2151  0.0149
   80MOL0     C10494   6.943   1.710   3.332  0.2674 -0.0857 -0.1354
   80MOL0     H10495   7.502   1.919   3.213  1.4930 -0.2017 -1.1883
   80MOL0     H10496   7.744   1.919   3.278 -1.7120  3.0710 -1.2236
   80MOL0     H10497   7.857   1.704   3.679 -0.1355 -0.1353 -1.1414
   80MOL0     H10498   7.778   1.868   3.674 -1.7080  0.3084 -3.7658
   80MOL0     H10499   8.000   1.898   3.763  0.5250  0.5205  0.3912
   80MOL0     H10500   8.025   1.930   3.595 -5.9152  3.6343  2.4356
   80MOL0     H10501   8.115   1.712   3.547 -3.5555  1.4606 -1.1168
   80MOL0     H10502   8.068   1.645   3.707 -0.3056 -1.1689 -1.2071
   80MOL0     H10503   8.280   1.843   3.703 -2.5807  0.4172 -3.1829
   80MOL0     H10504   8.202   1.749   3.841 -2.1972 -0.8902 -0.0398
   80MOL0     H10505   8.337   1.600   3.607  2.2139 -2.0467  0.4251
   80MOL0     H10506   8.274   1.536   3.751  3.8269 -1.6657  2.4173
   80MOL0     H10507   8.444   1.685   3.886  0.6702 -1.3320  0.9046
   80MOL0     H10508   8.516   1.715   3.731 -0.0258  1.5971  1.5835
   80MOL0     H10509   8.615   1.514   3.870 -0.7554  3.0392  1.4374
   80MOL0     H10510   8.473   1.422   3.812  0.4796 -1.1261  1.3479
   80MOL0     H10511   8.524   1.482   3.578  1.3965  3.8535 -1.3997
   80MOL0     H10512   8.634   1.366   3.658 -2.7951 -1.9810 -2.5463
   80MOL0     H10513   8.888   1.483   3.734 -0.5786 -1.4596 -0.6145
   80MOL0     H10514   9.067   1.704   3.746 -1.2086  1.1270  0.5229
   80MOL0     H10515   9.076   1.800   3.603 -2.3907 -0.3637 -0.0486
   80MOL0     H10516   9.139   1.508   3.625 -0.2307 -0.2968 -1.2795
   80MOL0     H10517   9.259   1.640   3.600 -0.4177  0.7216 -1.5060
   80MOL0     H10518   9.215   1.517   3.375 -2.1264  1.3911 -3.2009
   80MOL0     H10519   9.041   1.535   3.402 -1.6242  0.6185 -0.7154
   80MOL0     H10520   9.270   1.735   3.348  1.1895 -1.0911 -3.3117
   80MOL0     H10521   9.089   1.780   3.373 -1.2264 -0.8441 -0.0471
   80MOL0     H10522   8.916   1.714   3.269 -0.0693 -1.3614 -0.4918
   80MOL0     H10523   8.724   1.632   3.157  0.8356 -2.3258  1.5577
   80MOL0     H10524   8.657   1.502   2.541 -0.2877 -0.1937  1.0791
   80MOL0     H10525   8.478   1.402   2.391 -1.3700  2.8877  0.4287
   80MOL0     H10526   8.455   1.159   2.358  0.0240 -1.0060  0.6961
   80MOL0     H10527   8.340   1.267   2.273 -1.5181  0.2743  0.1825
   80MOL0     H10528   8.166   1.107   2.284 -0.4679  0.0918 -2.7965
   80MOL0     H10529   8.292   0.994   2.367  0.4824  0.1718 -0.5141
   80MOL0     H10530   8.418   1.031   2.148  0.2943  0.2660  1.0456
   80MOL0     H10531   8.294   1.123   2.084  3.0688 -4.3023 -4.9747
   80MOL0     H10532   8.215   0.844   2.185 -0.4028 -0.5514 -0.4521
   80MOL0     H10533   8.135   0.934   2.072 -0.4371 -0.0313  0.0021
   80MOL0     H10534   8.415   0.809   2.035  0.1942  2.0286  0.5476
   80MOL0     H10535   8.359   0.924   1.924 -0.6830  0.2298  0.5593
   80MOL0     H10536   8.212   0.669   2.001 -1.0408  0.1225  0.8690
   80MOL0     H10537   8.298   0.667   1.853  1.2645  3.2991 -1.7284
   80MOL0     H10538   8.049   0.693   1.801 -0.9595  1.2966  0.1250
   80MOL0     H10539   8.041   0.817   1.918  2.7776  0.6158  2.4172
   80MOL0     H10540   8.103   0.814   1.650  1.4033 -2.8825  1.1557
   80MOL0     H10541   8.243   0.883   1.735 -0.1975  1.1181  0.7359
   80MOL0     H10542   8.353   1.166   2.736  1.4030 -0.4544  1.8008
   80MOL0     H10543   8.538   1.260   2.862  3.2472 -0.4253 -1.7158
   80MOL0     H10544   8.971   1.512   2.825  1.1476  2.3134 -1.4393
   80MOL0     H10545   9.164   1.598   2.946 -1.4406  4.7190 -2.7810
   80MOL0     H10546   7.619   1.704   3.627 -0.3541 -1.2496 -0.8904
   80MOL0     H10547   7.381   1.715   3.562  0.5463 -0.4895  2.1736
   80MOL0     H10548   7.120   1.947   3.179  2.6526 -2.4155  2.6025
   80MOL0     H10549   6.930   1.973   3.062  1.7060 -0.6330 -0.8085
   80MOL0     H10550   6.593   1.678   3.166  0.4528 -0.9594 -1.5182
   80MOL0     H10551   6.505   1.775   3.050  1.1972  2.2730 -1.1309
   80MOL0     H10552   6.568   1.875   3.326 -0.5372 -1.7948  1.1521
   80MOL0     H10553   6.466   1.946   3.189 -2.0239 -1.5934 -1.0842
   80MOL0     H10554   6.326   1.720   3.228 -1.8816 -1.6280  1.5185
   80MOL0     H10555   6.288   1.883   3.307  1.5788  1.1794 -0.0235
   80MOL0     H10556   6.408   1.805   3.498 -2.6055  0.7795  2.0197
   80MOL0     H10557   6.259   1.712   3.475  0.4836  0.8715  2.7040
   80MOL0     H10558   6.610   1.449   3.433 -3.2890 -2.3074 -2.8129
   80MOL0     H10559   6.738   1.664   3.306  0.3033 -1.5606 -2.1942
   80MOL0     H10560   6.959   1.640   3.414  1.2431  3.5128  3.0095
   81MOL0     O10561   7.810   5.691   2.237 -0.4974 -0.0065  0.1897
   81MOL0     C10562   7.835   5.689   2.115 -1.2148 -0.1141  0.6031
   81MOL0     O10563   7.772   5.627   2.015 -0.1748 -0.9529  0.2836
   81MOL0     C10564   7.658   5.549   2.040 -0.0175 -0.2211  0.0206
   81MOL0     C10565   7.543   5.565   1.962 -0.3393 -0.2230 -0.2875
   81MOL0     C10566   7.431   5.492   1.966 -0.8126  0.7036 -0.7875
   81MOL0     C10567   7.416   5.396   2.078 -0.1650 -0.4003 -0.2284
   81MOL0     O10568   7.304   5.319   2.095  0.0284  0.1307 -0.5969
   81MOL0     C10569   7.258   5.300   2.235 -0.1244 -0.5322  0.5886
   81MOL0     C10570   7.109   5.273   2.228  1.0211  0.1589  0.4909
   81MOL0     C10571   7.019   5.383   2.163  0.2022 -0.3632 -0.0999
   81MOL0     C10572   7.017   5.388   2.010 -0.4223  0.7526 -0.2290
   81MOL0     C10573   6.885   5.405   1.940 -0.0489  0.7463 -0.0884
   81MOL0     C10574   6.901   5.374   1.791 -0.0585  0.5438  0.2875
   81MOL0     C10575   6.761   5.409   1.724  0.1162  0.4338 -0.4348
   81MOL0     C10576   6.775   5.428   1.581 -1.0920 -0.1971 -1.3020
   81MOL0     N10577   6.648   5.455   1.520 -0.4106  0.1768  1.0464
   81MOL0     C10578   6.544   5.367   1.507 -0.6117  0.1906 -0.5959
   81MOL0     C10579   6.451   5.425   1.432 -0.0792  0.2825 -0.1492
   81MOL0     C10580   6.321   5.363   1.380  0.0480  0.5525 -0.0621
   81MOL0     C10581   6.210   5.462   1.407 -0.2749  0.0067  0.8766
   81MOL0     C10582   6.074   5.421   1.352 -0.0416 -0.9230 -0.7614
   81MOL0     C10583   5.975   5.536   1.364  0.3644 -0.4903  0.3875
   81MOL0     O10584   5.917   5.540   1.497 -0.4915  0.1996  0.5548
   81MOL0     C10585   5.789   5.587   1.503  0.0759 -0.9370  0.7293
   81MOL0     C10586   5.780   5.725   1.498 -0.4904  1.0321 -0.0838
   81MOL0     C10587   5.652   5.781   1.514  0.4759  0.8414 -0.4308
   81MOL0     C10588   5.542   5.700   1.519  0.5948 -0.1110  0.3230
   81MOL0     C10589   5.408   5.755   1.513 -0.3974 -0.2789 -0.4490
   81MOL0     O10590   5.306   5.663   1.494  0.6339  0.7854  0.1884
   81MOL0     C10591   5.179   5.706   1.498  0.4695  0.1223  0.3671
   81MOL0     C10592   5.114   5.723   1.615 -0.7986  1.0279 -1.0610
   81MOL0     C10593   4.989   5.769   1.621  1.0482  0.0660 -0.7407
   81MOL0     C10594   4.919   5.789   1.500  0.7376 -0.2274 -0.2167
   81MOL0     O10595   4.791   5.838   1.499  0.1746  0.6433  0.2501
   81MOL0     C10596   4.760   5.953   1.585 -0.2326 -0.8730  0.1223
   81MOL0     C10597   4.605   5.946   1.595 -0.2843 -0.2015 -0.7818
   81MOL0     C10598   4.546   5.840   1.690 -0.2877 -0.6943 -0.1050
   81MOL0     C10599   4.401   5.797   1.654 -0.1639 -0.0724  0.8062
   81MOL0     C10600   4.346   5.686   1.743  0.2757  0.8099 -0.3775
   81MOL0     C10601   4.213   5.635   1.686 -0.1284  0.4767  0.2995
   81MOL0     C10602   4.133   5.542   1.780  0.0987  0.0230  0.2851
   81MOL0     C10603   4.196   5.396   1.794  0.0814 -0.2389  0.0625
   81MOL0    Cl10604   4.098   5.293   1.905  0.2604 -0.3365  0.1645
   81MOL0     C10605   4.973   5.758   1.379  0.1415  0.3499 -0.3419
   81MOL0     C10606   5.108   5.712   1.382 -0.1874  0.4823 -0.2393
   81MOL0     O10607   5.391   5.874   1.541  0.2765  0.3242 -0.3014
   81MOL0     C10608   5.554   5.567   1.524 -0.4403  1.3278 -0.3069
   81MOL0     C10609   5.681   5.507   1.523  0.1643  0.3561  0.3984
   81MOL0     N10610   6.503   5.550   1.396 -0.2275  0.6713  0.5018
   81MOL0     N10611   6.612   5.566   1.453 -0.1980 -1.4874  0.7211
   81MOL0     C10612   7.524   5.393   2.163 -0.2180 -0.2265 -0.0819
   81MOL0     C10613   7.647   5.459   2.152 -0.4055  0.1323 -0.0274
   81MOL0     C10614   7.971   5.750   2.078 -0.8192  0.5143 -0.2128
   81MOL0     C10615   8.006   5.780   1.942  0.8422 -0.7635 -0.4088
   81MOL0     C10616   8.140   5.821   1.914  0.3042  0.3216 -0.3573
   81MOL0     C10617   8.228   5.836   2.015 -0.9940 -0.1052  0.1839
   81MOL0     O10618   8.365   5.892   2.013  0.4832 -0.2571  0.1028
   81MOL0     C10619   8.405   5.950   1.893 -0.6752 -0.6102  0.3915
   81MOL0     C10620   8.550   5.998   1.930 -0.0387  0.2490 -0.0881
   81MOL0     C10621   8.637   6.027   1.795  0.5738  0.6284 -1.3698
   81MOL0     C10622   8.757   6.106   1.832  0.0134 -0.1105  1.1975
   81MOL0     C10623   8.863   6.113   1.731  0.1145  0.2055 -0.9212
   81MOL0     C10624   8.935   6.146   1.642  0.7806  0.2383  0.4664
   81MOL0     C10625   8.194   5.797   2.143 -0.5751  0.8234 -0.6235
   81MOL0     C10626   8.072   5.747   2.180  0.4797  0.5137 -0.2576
   81MOL0     H10627   7.548   5.638   1.881 -1.0010  0.7215  0.5029
   81MOL0     H10628   7.352   5.523   1.899 -5.0465  0.9760  3.7120
   81MOL0     H10629   7.275   5.391   2.292  1.7016 -0.4486 -0.0368
   81MOL0     H10630   7.313   5.220   2.286 -2.7526 -2.5362  0.5290
   81MOL0     H10631   7.077   5.262   2.332  0.9299 -0.0413  0.4413
   81MOL0     H10632   7.098   5.175   2.181  1.5593 -1.1529  2.9532
   81MOL0     H10633   7.052   5.479   2.203 -0.3171  2.0953 -4.8430
   81MOL0     H10634   6.915   5.366   2.192 -0.1375 -2.7045 -2.3421
   81MOL0     H10635   7.086   5.466   1.977 -1.6666  2.2143  0.4921
   81MOL0     H10636   7.061   5.292   1.982  0.7681  1.0728  0.5191
   81MOL0     H10637   6.856   5.511   1.941 -1.0655  0.5451  3.2355
   81MOL0     H10638   6.821   5.329   1.986 -0.9225  0.0441 -2.3513
   81MOL0     H10639   6.912   5.267   1.773  2.2467  0.3685  2.1186
   81MOL0     H10640   6.986   5.428   1.748  2.0045 -2.8844 -0.3148
   81MOL0     H10641   6.691   5.328   1.747 -3.8521  3.7866  0.3626
   81MOL0     H10642   6.724   5.501   1.770 -2.3381 -0.8524  0.3050
   81MOL0     H10643   6.822   5.342   1.531  1.0981  0.9551 -1.3716
   81MOL0     H10644   6.843   5.514   1.586  0.3308 -1.3395  2.6481
   81MOL0     H10645   6.537   5.271   1.559  0.4746  0.2363 -0.3484
   81MOL0     H10646   6.288   5.278   1.440 -2.0042  1.5347  0.2894
   81MOL0     H10647   6.320   5.341   1.273  0.2647  1.9966 -0.3847
   81MOL0     H10648   6.236   5.557   1.361  0.0272 -1.4198 -2.1640
   81MOL0     H10649   6.197   5.467   1.515 -1.2134 -0.8299  0.8223
   81MOL0     H10650   6.086   5.388   1.248  0.9869 -2.9489 -0.0407
   81MOL0     H10651   6.041   5.329   1.400  0.7026 -0.4980  0.6226
   81MOL0     H10652   5.892   5.542   1.294 -2.2379 -1.0884  3.2312
   81MOL0     H10653   6.031   5.628   1.344  0.2212 -0.6245 -0.6672
   81MOL0     H10654   5.874   5.777   1.485  1.3760 -2.0465  0.2706
   81MOL0     H10655   5.645   5.890   1.520 -0.5763  0.6963  4.1361
   81MOL0     H10656   5.170   5.725   1.708  1.9715 -0.9993 -2.5701
   81MOL0     H10657   4.931   5.778   1.712 -0.2107  1.1274 -1.5999
   81MOL0     H10658   4.790   6.043   1.529  2.0326 -1.1639  0.7698
   81MOL0     H10659   4.812   5.958   1.681 -0.8162 -0.1111  0.4092
   81MOL0     H10660   4.569   5.929   1.493 -2.5792 -0.6981  0.0399
   81MOL0     H10661   4.562   6.042   1.626 -1.9687 -1.1371 -0.0860
   81MOL0     H10662   4.552   5.874   1.794 -2.2064  1.0814 -0.5201
   81MOL0     H10663   4.612   5.754   1.676  3.5594  1.9251  0.4227
   81MOL0     H10664   4.329   5.878   1.640 -0.2525  0.2024  2.5647
   81MOL0     H10665   4.421   5.760   1.553 -1.2429  0.6790  0.3059
   81MOL0     H10666   4.326   5.721   1.844  0.2249  0.2399 -0.1856
   81MOL0     H10667   4.414   5.600   1.752 -0.6793 -0.1570 -1.9250
   81MOL0     H10668   4.221   5.578   1.593 -1.9244 -0.6623  0.7969
   81MOL0     H10669   4.145   5.719   1.665  2.0942  2.9111  2.2086
   81MOL0     H10670   4.149   5.588   1.878  2.3833 -0.8117  0.3564
   81MOL0     H10671   4.027   5.534   1.754  0.6971  0.3854 -2.4990
   81MOL0     H10672   4.303   5.408   1.815  0.2854 -1.5831 -0.1516
   81MOL0     H10673   4.169   5.347   1.701 -1.3610 -1.4296  1.0573
   81MOL0     H10674   4.928   5.769   1.281 -0.4901  2.2315  0.1083
   81MOL0     H10675   5.168   5.677   1.299  2.3504 -1.9446  2.3970
   81MOL0     H10676   5.478   5.491   1.543  1.7582 -0.8954  0.0992
   81MOL0     H10677   5.676   5.399   1.533  1.1412  0.1933 -0.6562
   81MOL0     H10678   7.509   5.327   2.248  3.9052 -1.7187 -0.3069
   81MOL0     H10679   7.723   5.433   2.225 -2.0342 -0.4702  1.5008
   81MOL0     H10680   7.929   5.761   1.868 -1.9281 -0.2918  2.1619
   81MOL0     H10681   8.170   5.847   1.813  1.2437 -0.1973 -0.2205
   81MOL0     H10682   8.344   6.034   1.857 -2.5669 -1.8712  0.4805
   81MOL0     H10683   8.406   5.873   1.816 -0.7885 -0.8717  0.6479
   81MOL0     H10684   8.541   6.088   1.992  1.6956  0.7929 -0.5507
   81MOL0     H10685   8.600   5.923   1.991 -0.0580  2.2264  2.5217
   81MOL0     H10686   8.572   6.099   1.745 -2.9604 -1.1957  0.2158
   81MOL0     H10687   8.654   5.935   1.738 -0.0448 -1.5632  1.7449
   81MOL0     H10688   8.728   6.207   1.862 -1.6221  0.0427 -0.6919
   81MOL0     H10689   8.807   6.054   1.915  2.3547 -2.3432 -1.3911
   81MOL0     H10690   8.991   6.178   1.556  0.1844 -1.8243 -0.7665
   81MOL0     H10691   8.264   5.817   2.224  1.1792 -1.3696 -1.4721
   81MOL0     H10692   8.051   5.722   2.283 -3.9436 -0.0491 -1.0960
   82MOL0     O10693   7.207   5.296   6.307  0.5127 -0.2703  0.3894
   82MOL0     C10694   7.307   5.366   6.307 -0.6435  0.1338  0.1814
   82MOL0     O10695   7.319   5.488   6.254  0.2638  0.1749  0.0785
   82MOL0     C10696   7.226   5.533   6.164  0.9027 -0.1840 -0.4596
   82MOL0     C10697   7.199   5.670   6.162  0.3196  0.1723  0.6387
   82MOL0     C10698   7.107   5.723   6.078  0.4182  0.5307 -0.2205
   82MOL0     C10699   7.042   5.642   5.985  0.1243 -0.3585  0.0154
   82MOL0     O10700   6.949   5.699   5.900 -0.6423 -0.4247 -0.5425
   82MOL0     C10701   6.854   5.626   5.835 -0.1203  0.4762  0.1056
   82MOL0     C10702   6.759   5.719   5.760  0.2718 -0.2716  0.3465
   82MOL0     C10703   6.676   5.814   5.850 -0.2367  0.7304 -0.7995
   82MOL0     C10704   6.573   5.870   5.750  0.2692 -0.1640 -0.0035
   82MOL0     C10705   6.475   5.971   5.825  0.1309  0.3807  0.1596
   82MOL0     C10706   6.372   6.017   5.725  0.3189 -1.0960 -0.2557
   82MOL0     C10707   6.306   6.156   5.774 -0.2153  0.1281  0.3939
   82MOL0     C10708   6.154   6.164   5.744 -0.1367 -0.3450  0.7968
   82MOL0     N10709   6.107   6.302   5.761 -0.1469 -0.4689 -0.3644
   82MOL0     C10710   6.033   6.380   5.674 -0.1237 -0.6673  0.3887
   82MOL0     C10711   6.006   6.501   5.740  0.7200  0.9211  0.2073
   82MOL0     C10712   5.933   6.614   5.682 -0.8111  0.4062  0.1887
   82MOL0     C10713   5.789   6.617   5.735 -0.0019 -0.0359  0.6139
   82MOL0     C10714   5.774   6.652   5.887  0.8338  1.1553 -0.5826
   82MOL0     C10715   5.627   6.656   5.930  0.8764  0.5501  0.3258
   82MOL0     O10716   5.566   6.769   5.876  0.4004 -0.6164 -0.9853
   82MOL0     C10717   5.435   6.779   5.909  0.1674  0.2895 -0.3724
   82MOL0     C10718   5.352   6.680   5.961 -0.2966 -0.0073  0.4668
   82MOL0     C10719   5.220   6.699   5.982  0.7027  0.3360 -0.6537
   82MOL0     C10720   5.161   6.825   5.951  0.2041 -0.1411  0.9033
   82MOL0     C10721   5.018   6.841   5.975  0.2031 -0.5494 -0.1327
   82MOL0     O10722   4.977   6.969   6.014  0.3280 -0.3592 -0.6580
   82MOL0     C10723   4.843   6.987   6.039 -0.6032  0.2582 -0.1477
   82MOL0     C10724   4.791   6.965   6.171 -0.5243  0.0749  0.8388
   82MOL0     C10725   4.657   6.976   6.194  0.0827  0.1086 -0.7283
   82MOL0     C10726   4.557   7.001   6.095  0.0503  0.7182 -0.6437
   82MOL0     O10727   4.429   7.015   6.119 -0.7940 -0.4749  0.0726
   82MOL0     C10728   4.373   7.003   6.254 -0.0192 -0.9573 -0.5689
   82MOL0     C10729   4.232   7.070   6.271  0.4810 -0.4076 -0.5359
   82MOL0     C10730   4.136   7.032   6.151  0.4979 -0.2882  0.5957
   82MOL0     C10731   3.987   7.068   6.190  0.3408  0.6205  0.2193
   82MOL0     C10732   3.943   7.181   6.096 -0.4717  0.4825 -0.8791
   82MOL0     C10733   3.791   7.202   6.102 -0.4408  0.1406 -0.5880
   82MOL0     C10734   3.734   7.296   5.997  0.5099 -0.5660  0.3047
   82MOL0     C10735   3.587   7.289   6.013 -0.8591 -0.0351  0.2316
   82MOL0    Cl10736   3.506   7.425   5.917 -0.1670 -0.0638  0.2236
   82MOL0     C10737   4.603   7.026   5.961 -0.3919 -1.0391 -0.5628
   82MOL0     C10738   4.748   7.020   5.937  0.5974  0.5531 -0.0299
   82MOL0     O10739   4.962   6.738   6.001 -0.2208 -0.2340 -0.1370
   82MOL0     C10740   5.245   6.932   5.905 -0.0587 -0.1554  0.4975
   82MOL0     C10741   5.381   6.904   5.879  0.5787 -0.1606  0.2095
   82MOL0     N10742   6.086   6.489   5.858  0.1234 -0.1775  0.3839
   82MOL0     N10743   6.127   6.365   5.872 -0.1261 -0.4694 -0.3297
   82MOL0     C10744   7.070   5.508   5.987  0.0944 -0.0520 -0.8670
   82MOL0     C10745   7.165   5.448   6.078  0.2774 -0.6232  0.7734
   82MOL0     C10746   7.416   5.315   6.403  0.2543 -0.0411  0.2676
   82MOL0     C10747   7.531   5.403   6.396 -0.7496  0.4334 -0.2564
   82MOL0     C10748   7.637   5.376   6.482 -0.0407 -0.6242  0.6409
   82MOL0     C10749   7.635   5.261   6.557 -0.2949 -0.7454 -0.2202
   82MOL0     O10750   7.746   5.244   6.635 -0.6411 -0.2106 -1.3640
   82MOL0     C10751   7.833   5.141   6.603  0.0400 -1.2937 -0.2556
   82MOL0     C10752   7.964   5.214   6.586 -0.2873  0.2906  0.8074
   82MOL0     C10753   8.085   5.132   6.554 -0.1962 -0.0303  0.3742
   82MOL0     C10754   8.215   5.219   6.585  0.2463  0.5924  0.1538
   82MOL0     C10755   8.321   5.212   6.477  0.6889 -0.5229 -0.1478
   82MOL0     C10756   8.405   5.204   6.394  0.3172  0.0321  0.3295
   82MOL0     C10757   7.520   5.186   6.572 -0.2769 -0.1285  0.4648
   82MOL0     C10758   7.409   5.214   6.494  1.0881 -0.0492  0.8039
   82MOL0     H10759   7.245   5.728   6.240  0.4937  3.0583 -1.4493
   82MOL0     H10760   7.087   5.830   6.084  0.4603  0.4514  2.0682
   82MOL0     H10761   6.797   5.555   5.895  1.5570 -0.5946  0.4966
   82MOL0     H10762   6.920   5.571   5.767  0.3466  0.4471  0.5807
   82MOL0     H10763   6.687   5.648   5.718 -0.1179 -0.3309  1.0956
   82MOL0     H10764   6.814   5.760   5.674  1.0565 -4.6142 -1.5086
   82MOL0     H10765   6.730   5.887   5.911 -2.6867 -0.0589  2.6318
   82MOL0     H10766   6.625   5.739   5.912  0.4775  1.0698  0.2198
   82MOL0     H10767   6.619   5.931   5.672  0.9325  0.1520  0.6180
   82MOL0     H10768   6.519   5.792   5.696 -1.0453 -2.1101  3.7570
   82MOL0     H10769   6.537   6.055   5.860 -1.5541  0.2196  4.0783
   82MOL0     H10770   6.430   5.914   5.907  2.7667  1.4449  2.5379
   82MOL0     H10771   6.295   5.940   5.710 -0.4923  0.1037 -2.8291
   82MOL0     H10772   6.417   6.033   5.627 -0.8903 -0.9652 -0.8183
   82MOL0     H10773   6.317   6.162   5.883 -0.1755 -0.2965  0.4152
   82MOL0     H10774   6.355   6.231   5.711  0.8307 -0.4390  0.5076
   82MOL0     H10775   6.104   6.092   5.810  2.0841 -1.8555  0.9374
   82MOL0     H10776   6.137   6.129   5.642  0.1880 -0.4911  0.7930
   82MOL0     H10777   5.992   6.361   5.576 -1.6150  0.8637  0.6724
   82MOL0     H10778   5.925   6.609   5.573 -0.8703  0.4932  0.1889
   82MOL0     H10779   5.981   6.705   5.720 -0.1615  0.3996 -0.5859
   82MOL0     H10780   5.738   6.527   5.699 -1.3441  1.5224 -1.6068
   82MOL0     H10781   5.732   6.695   5.685 -0.5760 -1.1873 -0.5979
   82MOL0     H10782   5.811   6.568   5.947 -3.5561 -0.9503 -0.3804
   82MOL0     H10783   5.831   6.740   5.919  1.0833  0.0003  2.4969
   82MOL0     H10784   5.634   6.677   6.037  3.0865  1.3372  0.0687
   82MOL0     H10785   5.570   6.565   5.910 -4.2593  3.1084  1.6452
   82MOL0     H10786   5.384   6.577   5.976 -3.5182 -1.0981  0.7853
   82MOL0     H10787   5.170   6.615   6.028  2.1976 -0.5252 -0.5254
   82MOL0     H10788   4.849   6.930   6.256  0.1167  0.1077  0.4225
   82MOL0     H10789   4.628   6.950   6.295  1.2156 -0.7927 -0.6059
   82MOL0     H10790   4.442   7.043   6.329 -1.5275  0.1396  0.2955
   82MOL0     H10791   4.354   6.897   6.272 -0.8354 -0.7032  0.1648
   82MOL0     H10792   4.236   7.179   6.280  0.3782 -0.4953  0.8772
   82MOL0     H10793   4.182   7.028   6.359 -0.0623  2.7393  0.8308
   82MOL0     H10794   4.133   6.926   6.125  1.9818  0.1155 -1.5064
   82MOL0     H10795   4.170   7.087   6.063  3.0424 -1.8054  0.5365
   82MOL0     H10796   3.917   6.985   6.175  0.0854  0.7298  0.7944
   82MOL0     H10797   3.973   7.093   6.295 -1.9281 -0.3652  0.2088
   82MOL0     H10798   3.959   7.136   5.997 -3.4028 -1.9312 -0.4043
   82MOL0     H10799   4.002   7.272   6.102 -2.4523  1.7589  0.5310
   82MOL0     H10800   3.765   7.249   6.197 -0.4179  1.8078 -1.3850
   82MOL0     H10801   3.740   7.106   6.085 -1.6981  0.3285  1.7098
   82MOL0     H10802   3.773   7.393   6.030 -1.8070 -0.2667  2.4222
   82MOL0     H10803   3.778   7.279   5.898  2.9628 -1.3729  1.4478
   82MOL0     H10804   3.566   7.305   6.119  2.0912  0.4295  0.8294
   82MOL0     H10805   3.553   7.188   5.990  2.4053 -1.4678  1.1172
   82MOL0     H10806   4.540   7.085   5.896 -1.3130 -0.9624  0.3780
   82MOL0     H10807   4.789   7.037   5.837  0.0363 -1.7117 -0.7125
   82MOL0     H10808   5.195   7.028   5.897  0.6621  0.1184 -1.0999
   82MOL0     H10809   5.457   6.977   5.854 -0.5295  2.5145  3.7636
   82MOL0     H10810   7.025   5.455   5.903 -2.4721  1.7660 -0.7400
   82MOL0     H10811   7.180   5.340   6.070 -0.3847 -0.9996  3.4692
   82MOL0     H10812   7.535   5.493   6.335  0.8442  1.2452  0.9536
   82MOL0     H10813   7.727   5.437   6.475 -0.4772 -0.1056 -0.7782
   82MOL0     H10814   7.802   5.087   6.514 -0.1240  2.0241 -2.4059
   82MOL0     H10815   7.849   5.067   6.682 -0.6081 -1.9730 -0.7519
   82MOL0     H10816   7.963   5.282   6.501  0.6478  0.7434  1.1488
   82MOL0     H10817   7.978   5.269   6.680 -2.3897  0.4979  1.0511
   82MOL0     H10818   8.076   5.114   6.447 -2.1255  1.0707  0.3167
   82MOL0     H10819   8.086   5.036   6.606 -1.5239  0.3495  1.1492
   82MOL0     H10820   8.183   5.324   6.576 -1.3088  0.1835  0.6664
   82MOL0     H10821   8.268   5.201   6.679  3.0863  3.7038 -0.6248
   82MOL0     H10822   8.473   5.202   6.311 -0.4298  0.0169 -0.2936
   82MOL0     H10823   7.525   5.092   6.626  2.4333 -0.6968 -0.5968
   82MOL0     H10824   7.311   5.167   6.493 -0.0029  2.0635 -0.9957
   83MOL0     O10825   9.241  10.688   2.644 -0.5711  0.7311  0.2923
   83MOL0     C10826   9.259  10.612   2.737  0.2948  0.1456 -0.1272
   83MOL0     O10827   9.158  10.531   2.790  0.3969  0.2847 -0.0042
   83MOL0     C10828   9.018  10.527   2.766  0.1436  0.3771 -0.1600
   83MOL0     C10829   8.944  10.420   2.797 -0.0040  0.5294 -0.0104
   83MOL0     C10830   8.811  10.411   2.773 -0.6664 -0.0443 -0.4615
   83MOL0     C10831   8.736  10.519   2.724 -0.4670 -0.8183 -0.1763
   83MOL0     O10832   8.604  10.515   2.701  0.1139  0.7656 -0.0368
   83MOL0     C10833   8.556  10.561   2.569  0.4642  0.1030 -0.9407
   83MOL0     C10834   8.413  10.610   2.594 -0.5440  0.2840  0.0970
   83MOL0     C10835   8.318  10.496   2.631  0.3738  0.0026  0.8642
   83MOL0     C10836   8.188  10.558   2.682 -0.1036 -0.0919 -1.0148
   83MOL0     C10837   8.074  10.464   2.705 -0.0177  0.9687 -0.5075
   83MOL0     C10838   7.990  10.444   2.581 -0.8615 -0.1012  0.3061
   83MOL0     C10839   7.870  10.358   2.602 -0.4813  0.6979 -0.3203
   83MOL0     C10840   7.819  10.325   2.467 -0.3026 -0.1492  0.5572
   83MOL0     N10841   7.733  10.437   2.408  0.5712 -0.8357 -0.2536
   83MOL0     C10842   7.600  10.450   2.419  0.4667 -0.2850  0.8188
   83MOL0     C10843   7.565  10.581   2.376 -0.7922 -0.1343  0.2292
   83MOL0     C10844   7.431  10.643   2.374 -0.0885  0.0088  0.3082
   83MOL0     C10845   7.320  10.555   2.320 -0.1694  0.4534 -0.7956
   83MOL0     C10846   7.175  10.624   2.311  0.1933 -0.2238  0.5834
   83MOL0     C10847   7.078  10.527   2.252 -0.9047 -0.1105  0.6736
   83MOL0     O10848   6.963  10.543   2.337  0.5286 -0.0614  0.5531
   83MOL0     C10849   6.834  10.502   2.286  0.1725  0.5065  0.4539
   83MOL0     C10850   6.738  10.480   2.385 -0.7015 -0.7382  0.2262
   83MOL0     C10851   6.616  10.419   2.356 -0.5923 -0.3126  0.7847
   83MOL0     C10852   6.576  10.382   2.224  0.4385  0.1336  0.0128
   83MOL0     C10853   6.437  10.345   2.191 -0.0985  0.2560 -0.7171
   83MOL0     O10854   6.408  10.326   2.057  0.3235 -0.3926 -0.0475
   83MOL0     C10855   6.324  10.224   2.025 -0.8605  0.3312 -0.3297
   83MOL0     C10856   6.319  10.105   2.103 -0.2088 -0.7603  0.0918
   83MOL0     C10857   6.227  10.004   2.067 -1.2770 -0.5011  0.9479
   83MOL0     C10858   6.149  10.014   1.948 -0.0323  0.3307 -1.1946
   83MOL0     O10859   6.078   9.911   1.899  0.3078 -0.5055  0.3237
   83MOL0     C10860   6.012   9.815   1.980 -0.3097  0.1219 -0.7710
   83MOL0     C10861   6.110   9.687   1.984  0.1645  0.1365  0.6804
   83MOL0     C10862   6.113   9.632   1.841 -0.3804  1.0218 -0.1756
   83MOL0     C10863   6.203   9.506   1.838  0.4657  0.4146 -0.0134
   83MOL0     C10864   6.351   9.537   1.857 -0.5978 -0.5401  0.3290
   83MOL0     C10865   6.407   9.662   1.780  1.2753  0.1330  0.0690
   83MOL0     C10866   6.560   9.670   1.784  0.0405  0.1669 -0.5816
   83MOL0     C10867   6.599   9.800   1.711 -0.4198 -0.5709  0.0752
   83MOL0    Cl10868   6.781   9.813   1.683 -0.0655  0.1769  0.2246
   83MOL0     C10869   6.155  10.133   1.884  0.7874 -0.2617  0.1227
   83MOL0     C10870   6.244  10.235   1.912 -0.0505 -0.7011 -0.1465
   83MOL0     O10871   6.362  10.328   2.286 -0.0164  0.4733 -0.1061
   83MOL0     C10872   6.676  10.409   2.122  0.3377  0.9250  0.2023
   83MOL0     C10873   6.796  10.467   2.148 -0.4441 -0.5631 -1.3365
   83MOL0     N10874   7.676  10.643   2.331 -0.1524 -0.0689  0.1063
   83MOL0     N10875   7.780  10.553   2.356  0.1967  0.2512  0.4749
   83MOL0     C10876   8.808  10.639   2.705 -0.3029  0.4912 -0.0197
   83MOL0     C10877   8.952  10.641   2.718  0.7349  0.1126 -0.3845
   83MOL0     C10878   9.392  10.580   2.786 -0.2852  0.4235 -0.7539
   83MOL0     C10879   9.412  10.497   2.900 -1.0437  1.0462  0.8096
   83MOL0     C10880   9.534  10.472   2.958 -1.2731  0.2545 -0.4621
   83MOL0     C10881   9.650  10.541   2.911 -0.1964 -0.3036  0.6052
   83MOL0     O10882   9.773  10.509   2.966  0.9181  0.0059 -0.3922
   83MOL0     C10883   9.893  10.585   2.941  0.4540  0.4065 -0.4870
   83MOL0     C10884   9.982  10.528   2.821 -0.3278  0.3793 -0.9948
   83MOL0     C10885  10.133  10.538   2.861 -0.6598  0.3986  0.2452
   83MOL0     C10886  10.245  10.487   2.771 -0.2938  0.3511 -0.5781
   83MOL0     C10887  10.267  10.341   2.796  0.6125  0.2791 -0.3553
   83MOL0     C10888  10.300  10.226   2.817 -0.2254 -0.3953  0.4737
   83MOL0     C10889   9.637  10.625   2.801 -0.4227  0.5108 -0.4787
   83MOL0     C10890   9.511  10.643   2.736 -0.7408  0.6877  0.1848
   83MOL0     H10891   9.000  10.339   2.843  2.1391  2.4295  0.8963
   83MOL0     H10892   8.756  10.323   2.804  0.0360 -1.2283 -2.4128
   83MOL0     H10893   8.533  10.483   2.496  1.3572  0.3891 -1.5452
   83MOL0     H10894   8.620  10.638   2.526  2.6032  1.1786  3.5197
   83MOL0     H10895   8.378  10.665   2.507 -0.0554 -0.2746 -0.4669
   83MOL0     H10896   8.407  10.687   2.671  2.0564 -0.0031  0.6781
   83MOL0     H10897   8.361  10.426   2.704  3.0415  1.7942  1.1565
   83MOL0     H10898   8.295  10.444   2.538 -2.6051 -2.7085  2.8628
   83MOL0     H10899   8.222  10.603   2.776  0.4882  0.1259 -1.3228
   83MOL0     H10900   8.154  10.644   2.625 -4.6587  0.6554  2.2619
   83MOL0     H10901   8.007  10.507   2.781  0.5063  0.2851  0.3680
   83MOL0     H10902   8.111  10.368   2.743 -2.2055  0.1969 -0.1680
   83MOL0     H10903   8.050  10.393   2.506 -2.9226 -4.3030  1.2147
   83MOL0     H10904   7.961  10.542   2.542 -2.4818 -1.0719 -1.0663
   83MOL0     H10905   7.887  10.275   2.671 -0.8801  0.7489 -0.1595
   83MOL0     H10906   7.789  10.408   2.656  0.3980  2.0107 -0.1560
   83MOL0     H10907   7.756  10.236   2.477 -0.7560 -0.1670 -1.9735
   83MOL0     H10908   7.904  10.302   2.402  0.6401 -0.1858  1.7660
   83MOL0     H10909   7.528  10.376   2.453 -1.2685 -0.4898 -2.8148
   83MOL0     H10910   7.434  10.735   2.316 -1.1530 -0.7627 -1.0253
   83MOL0     H10911   7.399  10.677   2.473 -1.4578  0.1788 -0.1719
   83MOL0     H10912   7.302  10.468   2.384 -0.6074  0.9061 -0.2954
   83MOL0     H10913   7.352  10.507   2.227  0.2735  1.5105 -1.2080
   83MOL0     H10914   7.145  10.671   2.404 -1.3817  0.4321 -0.2226
   83MOL0     H10915   7.172  10.705   2.237 -2.2365 -1.2652 -0.5546
   83MOL0     H10916   7.106  10.422   2.245  1.3475  0.3922  1.2902
   83MOL0     H10917   7.051  10.579   2.159 -1.8340  1.2910  1.6818
   83MOL0     H10918   6.772  10.516   2.482  2.0129 -3.6375  0.5304
   83MOL0     H10919   6.554  10.411   2.445 -3.9782 -0.6369 -1.4246
   83MOL0     H10920   6.380  10.087   2.191 -0.8414  0.3686  0.7894
   83MOL0     H10921   6.247   9.911   2.119  3.1197  1.3811  3.1154
   83MOL0     H10922   5.916   9.781   1.939 -2.1533  0.9016  2.5892
   83MOL0     H10923   5.975   9.847   2.077 -2.3768 -0.3700 -1.3448
   83MOL0     H10924   6.080   9.611   2.057  1.8755 -1.6844 -0.3893
   83MOL0     H10925   6.211   9.719   2.011  0.4718 -1.3164  1.3899
   83MOL0     H10926   6.134   9.705   1.763 -0.2202  0.6392 -0.4920
   83MOL0     H10927   6.013   9.594   1.818  0.8563 -3.0533  0.4198
   83MOL0     H10928   6.171   9.427   1.907 -0.6535 -1.3792 -2.4355
   83MOL0     H10929   6.198   9.460   1.739  1.9973  0.0328  0.0737
   83MOL0     H10930   6.401   9.443   1.830 -2.2128 -1.1781 -0.5912
   83MOL0     H10931   6.372   9.569   1.959  0.9091  3.1232 -0.9781
   83MOL0     H10932   6.352   9.744   1.827 -0.9517 -1.3534  0.2065
   83MOL0     H10933   6.364   9.657   1.679  0.2647 -5.4420  0.4710
   83MOL0     H10934   6.609   9.664   1.881  0.6800 -0.2346 -0.9207
   83MOL0     H10935   6.604   9.581   1.737 -0.3849 -1.7286  2.3668
   83MOL0     H10936   6.579   9.885   1.777  1.0624 -1.2524  1.5006
   83MOL0     H10937   6.533   9.805   1.625 -0.6797  2.1080  0.3614
   83MOL0     H10938   6.099  10.144   1.791  1.1052 -0.5096 -0.1006
   83MOL0     H10939   6.236  10.321   1.846 -0.3628 -1.1565 -0.7072
   83MOL0     H10940   6.650  10.364   2.026 -3.8293 -0.8874  1.9631
   83MOL0     H10941   6.874  10.478   2.073  1.1220 -2.2484 -0.0450
   83MOL0     H10942   8.749  10.727   2.681  1.2447  1.2659 -1.1317
   83MOL0     H10943   9.014  10.729   2.702  0.1802  0.5649 -0.0997
   83MOL0     H10944   9.330  10.466   2.962  1.3552 -2.4515  2.5461
   83MOL0     H10945   9.538  10.411   3.047 -1.5366  1.0508  0.1035
   83MOL0     H10946   9.956  10.586   3.031  0.3725  2.6174 -0.4008
   83MOL0     H10947   9.877  10.693   2.927  0.6151  0.4736 -0.1585
   83MOL0     H10948   9.960  10.423   2.797 -1.8868  1.0616 -2.7054
   83MOL0     H10949   9.966  10.577   2.725  1.8943  2.2031 -0.5186
   83MOL0     H10950  10.143  10.490   2.959  0.1888 -0.1830 -0.1040
   83MOL0     H10951  10.160  10.640   2.888 -2.2558  0.5844  1.2382
   83MOL0     H10952  10.210  10.502   2.668  0.4900 -2.9296 -1.4337
   83MOL0     H10953  10.340  10.540   2.786  0.7036 -1.9087  1.8453
   83MOL0     H10954  10.325  10.123   2.832  0.0273 -0.1604  1.7401
   83MOL0     H10955   9.717  10.687   2.761  0.7625 -1.5374 -1.4214
   83MOL0     H10956   9.521  10.705   2.648 -2.9645 -2.0709 -2.2266
   84MOL0     O10957   3.957   4.117   2.734 -0.7873 -0.7349  0.5839
   84MOL0     C10958   4.077   4.144   2.754 -0.2845  0.6967 -0.1982
   84MOL0     O10959   4.132   4.263   2.792  1.2540 -0.2470 -0.5152
   84MOL0     C10960   4.056   4.331   2.884 -0.5343  0.0160 -0.5113
   84MOL0     C10961   4.033   4.466   2.860 -0.7518 -0.4640  0.4668
   84MOL0     C10962   3.971   4.547   2.957  0.0783 -0.3403  0.4493
   84MOL0     C10963   3.932   4.495   3.081 -0.8769  0.4114 -0.3745
   84MOL0     O10964   3.857   4.555   3.176 -0.5709 -1.1971 -0.4176
   84MOL0     C10965   3.827   4.694   3.165 -0.2513  0.0289  1.0257
   84MOL0     C10966   3.776   4.760   3.292  0.2285  0.4197 -0.2987
   84MOL0     C10967   3.704   4.894   3.253 -0.2274  0.4733  0.6128
   84MOL0     C10968   3.616   4.932   3.370 -1.0175 -0.0598  0.2124
   84MOL0     C10969   3.543   5.067   3.338  1.1547 -0.3793 -0.1223
   84MOL0     C10970   3.482   5.134   3.465 -0.6505  0.0530 -0.7522
   84MOL0     C10971   3.387   5.248   3.408 -0.3223 -0.0364  0.3135
   84MOL0     C10972   3.296   5.305   3.522  0.4544 -0.9523  0.5814
   84MOL0     N10973   3.227   5.431   3.470 -0.6759  0.0224  0.1847
   84MOL0     C10974   3.090   5.427   3.451  0.3339 -0.7085 -0.2608
   84MOL0     C10975   3.054   5.557   3.426  0.3598  0.5567 -0.1197
   84MOL0     C10976   2.911   5.608   3.411  0.3065  0.4576  0.1386
   84MOL0     C10977   2.851   5.577   3.280  0.1757  0.2974  0.6334
   84MOL0     C10978   2.699   5.602   3.285  0.1855 -0.6061  0.1551
   84MOL0     C10979   2.654   5.736   3.217 -0.5386 -0.4492  0.2037
   84MOL0     O10980   2.534   5.792   3.263 -0.4857  0.8096 -0.1037
   84MOL0     C10981   2.414   5.750   3.209 -0.3256  1.0478 -0.4661
   84MOL0     C10982   2.406   5.645   3.112  0.4013 -0.1139 -0.1107
   84MOL0     C10983   2.283   5.597   3.079  0.5174 -0.3307  0.6349
   84MOL0     C10984   2.160   5.661   3.114 -0.8757  0.0768  0.0362
   84MOL0     C10985   2.030   5.596   3.090 -0.6833 -0.6058 -0.2767
   84MOL0     O10986   2.033   5.507   2.984  0.8277 -0.5913  0.3750
   84MOL0     C10987   1.912   5.451   2.946 -0.9398 -0.6087 -1.2345
   84MOL0     C10988   1.863   5.491   2.821  0.5754 -0.4154 -0.1582
   84MOL0     C10989   1.737   5.439   2.774 -0.7496 -0.2122  0.3855
   84MOL0     C10990   1.662   5.360   2.856 -0.1890 -0.2933 -0.0640
   84MOL0     O10991   1.541   5.306   2.810  0.1333  0.3478  0.9413
   84MOL0     C10992   1.518   5.166   2.859 -0.2365 -1.1264  0.0589
   84MOL0     C10993   1.417   5.095   2.771 -1.1045 -0.3546 -0.1624
   84MOL0     C10994   1.410   4.940   2.807 -0.1540 -0.3846  0.4110
   84MOL0     C10995   1.324   4.869   2.711  0.2979 -0.1466 -0.5136
   84MOL0     C10996   1.289   4.724   2.755  0.0700  0.0166 -0.0242
   84MOL0     C10997   1.180   4.682   2.659  0.2669 -0.3387 -0.6934
   84MOL0     C10998   1.157   4.535   2.684 -0.0033 -0.2124 -0.7859
   84MOL0     C10999   1.044   4.489   2.587  0.2113 -0.4859  0.1769
   84MOL0    Cl11000   0.890   4.567   2.635 -0.5499 -0.0013  0.0439
   84MOL0     C11001   1.712   5.327   2.985 -0.2906  0.4958 -0.2876
   84MOL0     C11002   1.840   5.356   3.018  0.1849  0.3410 -0.0373
   84MOL0     O11003   1.950   5.591   3.182 -0.1304 -0.6310 -0.0334
   84MOL0     C11004   2.174   5.779   3.192 -0.1585  0.7426 -0.1498
   84MOL0     C11005   2.297   5.810   3.244 -0.2776 -0.3742 -0.8447
   84MOL0     N11006   3.177   5.629   3.424 -1.1731 -0.8761 -0.4254
   84MOL0     N11007   3.284   5.551   3.443  1.1255 -0.7234 -0.6915
   84MOL0     C11008   3.950   4.359   3.100  0.3330 -0.4545 -0.3999
   84MOL0     C11009   4.015   4.279   3.007 -1.1509  0.1487 -0.1828
   84MOL0     C11010   4.185   4.052   2.703  0.2540 -0.0832 -0.2347
   84MOL0     C11011   4.148   3.942   2.619  0.1737 -0.2547  0.2659
   84MOL0     C11012   4.233   3.838   2.579 -0.4540 -0.4069 -1.3803
   84MOL0     C11013   4.366   3.838   2.608 -1.1271  0.2984  0.7416
   84MOL0     O11014   4.436   3.738   2.535 -0.6383  0.3718 -0.9184
   84MOL0     C11015   4.582   3.742   2.541 -0.0880  0.3592 -0.1944
   84MOL0     C11016   4.632   3.839   2.435  0.6517 -0.2741  0.1564
   84MOL0     C11017   4.762   3.912   2.470  0.4523  1.3184  0.1626
   84MOL0     C11018   4.892   3.842   2.441  0.1347  0.1366 -0.8360
   84MOL0     C11019   4.913   3.740   2.542  0.4458 -0.5663  0.3764
   84MOL0     C11020   4.937   3.655   2.623 -0.6118 -0.1622 -0.1751
   84MOL0     C11021   4.411   3.945   2.694  0.2978 -0.3189  0.8551
   84MOL0     C11022   4.324   4.047   2.740 -0.0846 -0.0565  0.0290
   84MOL0     H11023   4.074   4.501   2.766  1.9608  1.1094  2.0904
   84MOL0     H11024   3.954   4.653   2.939 -0.4893 -0.6988 -1.3266
   84MOL0     H11025   3.771   4.713   3.073 -0.0302  2.2140  1.2935
   84MOL0     H11026   3.923   4.736   3.134  1.8518 -4.6690  0.2428
   84MOL0     H11027   3.857   4.776   3.364 -0.6683  2.2914  0.3629
   84MOL0     H11028   3.707   4.683   3.329 -0.2916 -0.1873 -2.3954
   84MOL0     H11029   3.640   4.875   3.166 -1.7351  1.6021  1.4381
   84MOL0     H11030   3.777   4.970   3.224 -0.1549  0.3334  0.4226
   84MOL0     H11031   3.539   4.861   3.403 -1.0300  1.9597  5.5172
   84MOL0     H11032   3.682   4.939   3.457  2.6587  0.4313 -2.3728
   84MOL0     H11033   3.451   5.042   3.286  0.1228  1.2578  0.8008
   84MOL0     H11034   3.600   5.133   3.270 -0.7185  0.7787 -0.6434
   84MOL0     H11035   3.562   5.188   3.516 -1.4153 -1.2772  2.0984
   84MOL0     H11036   3.432   5.057   3.525 -1.4861 -0.1991 -1.7555
   84MOL0     H11037   3.441   5.327   3.355 -1.9859  1.3359  0.5515
   84MOL0     H11038   3.334   5.208   3.321  1.8992  0.1087 -1.1950
   84MOL0     H11039   3.360   5.342   3.603  0.3329  0.5129  0.0359
   84MOL0     H11040   3.222   5.233   3.557 -2.5419  0.3838 -2.5094
   84MOL0     H11041   3.025   5.341   3.464  2.6154 -2.8210 -1.9810
   84MOL0     H11042   2.925   5.716   3.420  1.8192  0.5531 -2.4003
   84MOL0     H11043   2.850   5.569   3.494  0.0153  1.6851  0.5248
   84MOL0     H11044   2.873   5.470   3.270 -1.3896 -0.0028  0.1145
   84MOL0     H11045   2.908   5.618   3.196  2.0661 -2.0043  0.6700
   84MOL0     H11046   2.649   5.522   3.232  0.0773 -0.1152 -0.4952
   84MOL0     H11047   2.661   5.600   3.388  3.4361 -1.5344  1.4834
   84MOL0     H11048   2.662   5.727   3.108  0.6230  1.8946  0.0403
   84MOL0     H11049   2.741   5.801   3.230  0.1733 -1.6118  1.5903
   84MOL0     H11050   2.490   5.584   3.079 -1.3927 -1.5236 -2.3268
   84MOL0     H11051   2.274   5.499   3.032 -0.6767 -0.0512  0.2373
   84MOL0     H11052   1.906   5.581   2.779  0.3189 -0.1726  0.0966
   84MOL0     H11053   1.691   5.472   2.682 -0.9412 -2.6602 -0.4736
   84MOL0     H11054   1.480   5.182   2.961  1.9144 -1.5253  0.9587
   84MOL0     H11055   1.604   5.101   2.873 -1.9490 -3.1930  1.7301
   84MOL0     H11056   1.432   5.114   2.664  2.1095  0.8399  0.3846
   84MOL0     H11057   1.323   5.149   2.786 -1.3760 -0.6906 -0.6710
   84MOL0     H11058   1.385   4.932   2.913  2.1639 -1.5578  0.9177
   84MOL0     H11059   1.507   4.889   2.803  0.3913  0.6781 -0.4145
   84MOL0     H11060   1.223   4.911   2.706  0.4016  0.0021 -1.6699
   84MOL0     H11061   1.374   4.865   2.614  2.6174 -2.9383  0.6703
   84MOL0     H11062   1.241   4.714   2.853 -1.0412  0.4120 -0.5029
   84MOL0     H11063   1.371   4.653   2.742 -0.2415 -0.2824 -0.3939
   84MOL0     H11064   1.216   4.707   2.559  1.8527  2.8216  0.5368
   84MOL0     H11065   1.087   4.738   2.673 -0.7504 -2.1165  0.0636
   84MOL0     H11066   1.251   4.482   2.663 -1.7612 -2.7802 -2.8728
   84MOL0     H11067   1.130   4.504   2.785 -2.1570 -0.5296 -1.4029
   84MOL0     H11068   1.017   4.384   2.604 -0.9429  0.0895  2.2766
   84MOL0     H11069   1.067   4.516   2.484 -2.0618 -0.2358 -0.3187
   84MOL0     H11070   1.653   5.269   3.055 -0.1835  1.2969  0.4910
   84MOL0     H11071   1.867   5.319   3.116 -0.3265 -2.4739 -0.8728
   84MOL0     H11072   2.092   5.839   3.232 -0.9121 -1.0383  1.0954
   84MOL0     H11073   2.316   5.891   3.314 -2.9191  0.3489 -0.8570
   84MOL0     H11074   3.924   4.317   3.197 -0.4025  1.8619  0.4716
   84MOL0     H11075   4.030   4.173   3.027  0.4833 -0.1833 -2.7533
   84MOL0     H11076   4.046   3.946   2.584  0.6985  3.6503 -1.3727
   84MOL0     H11077   4.182   3.762   2.520 -3.0175  0.2173 -0.1328
   84MOL0     H11078   4.621   3.645   2.507  2.2047  0.3855  2.0476
   84MOL0     H11079   4.621   3.761   2.642 -3.1412  0.6364  1.0466
   84MOL0     H11080   4.649   3.777   2.347 -2.9833 -2.2075  0.6268
   84MOL0     H11081   4.567   3.926   2.422  2.4493  1.1316  0.1939
   84MOL0     H11082   4.746   3.958   2.568 -2.3874  1.5060 -0.2921
   84MOL0     H11083   4.764   3.995   2.399 -1.2390 -0.5166 -2.2126
   84MOL0     H11084   4.916   3.810   2.339  0.8640  1.1134 -0.9907
   84MOL0     H11085   4.963   3.922   2.463 -2.1523  1.6798  1.3673
   84MOL0     H11086   4.942   3.574   2.693  1.2648  1.7378  2.0851
   84MOL0     H11087   4.509   3.973   2.730 -0.6563  2.7177  1.3689
   84MOL0     H11088   4.348   4.135   2.800 -0.7258 -0.8952  1.5747
   85MOL0     O11089   5.690   9.496   5.683  0.0642  0.1216  0.5927
   85MOL0     C11090   5.732   9.453   5.789 -0.5792 -0.0596  0.3589
   85MOL0     O11091   5.653   9.427   5.900 -0.4257  0.0406  0.8301
   85MOL0     C11092   5.518   9.453   5.873 -0.5335  0.0407 -0.2201
   85MOL0     C11093   5.453   9.566   5.906 -1.4620 -0.0744  0.0770
   85MOL0     C11094   5.323   9.586   5.868 -0.0764  0.0713 -0.2420
   85MOL0     C11095   5.247   9.484   5.807 -0.5045 -0.4966  0.1324
   85MOL0     O11096   5.113   9.473   5.764 -0.3528 -0.5108 -0.6330
   85MOL0     C11097   5.027   9.561   5.845  0.0568  0.0442 -0.6302
   85MOL0     C11098   4.885   9.512   5.840  0.4863 -0.2911  0.3585
   85MOL0     C11099   4.860   9.389   5.932 -0.2102  0.1421 -0.1533
   85MOL0     C11100   4.716   9.340   5.911 -0.3128 -0.2229  0.3790
   85MOL0     C11101   4.712   9.195   5.966  0.7998  1.2320 -0.2710
   85MOL0     C11102   4.578   9.146   5.945  0.1063 -0.3383 -0.9406
   85MOL0     C11103   4.554   8.999   5.953 -0.2999  0.2610  0.8708
   85MOL0     C11104   4.587   8.939   6.091 -0.8410  0.0350  0.1539
   85MOL0     N11105   4.724   8.872   6.106 -0.2478  1.2600  0.0928
   85MOL0     C11106   4.736   8.743   6.107 -0.8227  0.4214 -0.5147
   85MOL0     C11107   4.871   8.712   6.117 -0.4777  0.1379 -0.2253
   85MOL0     C11108   4.920   8.569   6.127 -0.6505 -0.1051 -0.0966
   85MOL0     C11109   4.934   8.499   5.984 -0.5252 -0.6095 -0.5367
   85MOL0     C11110   5.016   8.572   5.878 -0.8681  0.5618  0.1627
   85MOL0     C11111   5.163   8.515   5.873 -0.4827  0.3386 -0.4820
   85MOL0     O11112   5.216   8.553   5.745 -1.2385  0.0555  0.2448
   85MOL0     C11113   5.355   8.554   5.728  0.4980 -0.2093  0.2814
   85MOL0     C11114   5.450   8.580   5.826 -0.6507  0.2746  0.6613
   85MOL0     C11115   5.589   8.570   5.793 -0.3761  0.3811 -0.1250
   85MOL0     C11116   5.624   8.539   5.660 -0.6800 -1.1385 -0.1550
   85MOL0     C11117   5.770   8.530   5.632 -0.0142 -0.0672  1.0653
   85MOL0     O11118   5.798   8.517   5.499  0.8975 -0.1533 -0.0363
   85MOL0     C11119   5.922   8.533   5.452  0.8741 -0.3090 -0.2064
   85MOL0     C11120   5.965   8.442   5.356 -0.4221  0.3247  0.2308
   85MOL0     C11121   6.096   8.460   5.293  0.4463  0.0952 -0.7152
   85MOL0     C11122   6.177   8.568   5.327  1.4906  0.3141 -0.7050
   85MOL0     O11123   6.298   8.587   5.280 -0.4324  0.5436 -0.1838
   85MOL0     C11124   6.301   8.597   5.132  0.2403 -0.4718 -0.7410
   85MOL0     C11125   6.427   8.688   5.090  0.3943 -0.2931  0.9724
   85MOL0     C11126   6.396   8.744   4.958 -0.5552  0.0431  0.1917
   85MOL0     C11127   6.512   8.829   4.903  0.0999 -0.7789 -0.4831
   85MOL0     C11128   6.637   8.737   4.862  0.2637 -0.3090  0.4190
   85MOL0     C11129   6.716   8.822   4.770 -1.3978  0.0856  0.4893
   85MOL0     C11130   6.854   8.768   4.757 -0.6975 -0.1141 -0.4179
   85MOL0     C11131   6.938   8.856   4.664  0.6075 -0.7424 -0.2486
   85MOL0    Cl11132   6.916   8.821   4.493 -0.4434  0.4326 -0.5543
   85MOL0     C11133   6.135   8.646   5.440  0.3578 -0.4430  0.5298
   85MOL0     C11134   6.009   8.635   5.497 -0.2633 -0.4711  0.0009
   85MOL0     O11135   5.856   8.527   5.721  0.5300  0.3118  0.2898
   85MOL0     C11136   5.527   8.511   5.567 -0.2826 -0.5064  0.1951
   85MOL0     C11137   5.396   8.523   5.596  0.6190  0.1619  0.0078
   85MOL0     N11138   4.941   8.834   6.121  0.1661 -0.2551 -0.3887
   85MOL0     N11139   4.845   8.929   6.121  0.6236  0.3359  0.2037
   85MOL0     C11140   5.314   9.361   5.787 -0.0954  0.3955 -0.2343
   85MOL0     C11141   5.452   9.344   5.811  0.1879 -0.0654 -0.0752
   85MOL0     C11142   5.877   9.425   5.801  0.5126  0.3514  0.3615
   85MOL0     C11143   5.925   9.347   5.912 -0.1290 -0.6503 -0.6852
   85MOL0     C11144   6.066   9.355   5.932 -0.3609  0.8938  0.9953
   85MOL0     C11145   6.158   9.434   5.846  0.3183 -0.1748 -0.1050
   85MOL0     O11146   6.291   9.452   5.860 -0.7985 -0.3413 -0.0218
   85MOL0     C11147   6.360   9.416   5.991  0.8547  0.0955  1.1409
   85MOL0     C11148   6.513   9.456   5.986  0.2107 -0.2491  0.4020
   85MOL0     C11149   6.598   9.384   6.085 -0.1058  0.2201 -0.0320
   85MOL0     C11150   6.744   9.436   6.071  0.9595 -0.6356  0.0394
   85MOL0     C11151   6.845   9.340   6.119  0.0226  0.0940  0.3401
   85MOL0     C11152   6.916   9.247   6.140  0.1418 -0.1110  0.1183
   85MOL0     C11153   6.103   9.488   5.736 -0.9280 -0.9768 -0.1214
   85MOL0     C11154   5.971   9.487   5.713 -0.5600  0.5285  0.0970
   85MOL0     H11155   5.511   9.652   5.938 -0.8704 -0.4840  0.1210
   85MOL0     H11156   5.290   9.688   5.888  0.6825  0.8299 -2.5641
   85MOL0     H11157   5.032   9.666   5.816  0.3390  0.6142  1.3422
   85MOL0     H11158   5.057   9.560   5.950  2.6021  3.1052 -1.1685
   85MOL0     H11159   4.869   9.496   5.733 -0.2823  0.6758  0.3152
   85MOL0     H11160   4.825   9.599   5.870  0.1370 -0.2899 -0.3202
   85MOL0     H11161   4.880   9.405   6.038  1.3151  3.1838 -0.7767
   85MOL0     H11162   4.935   9.315   5.904 -0.1633  0.1850 -0.1406
   85MOL0     H11163   4.636   9.393   5.964  1.8046  2.1050  1.4524
   85MOL0     H11164   4.692   9.345   5.805  0.0865 -0.4047  0.2762
   85MOL0     H11165   4.744   9.195   6.070 -0.7049 -0.0900  0.2322
   85MOL0     H11166   4.786   9.132   5.914  0.4157  0.2892  0.2958
   85MOL0     H11167   4.543   9.183   5.848  2.1669  1.4147 -1.0824
   85MOL0     H11168   4.518   9.206   6.014  1.8953 -1.3670  1.6627
   85MOL0     H11169   4.452   8.978   5.919 -2.3837  2.7164  4.8172
   85MOL0     H11170   4.627   8.972   5.876  0.2084  0.9168  1.1220
   85MOL0     H11171   4.506   8.872   6.119 -1.6497  0.4850 -1.0131
   85MOL0     H11172   4.581   9.019   6.166 -3.2980 -2.3753  2.7879
   85MOL0     H11173   4.644   8.685   6.100 -0.7141 -0.5776  3.6452
   85MOL0     H11174   4.857   8.510   6.194  0.5148 -1.9588 -0.5420
   85MOL0     H11175   5.019   8.570   6.172 -0.7958 -3.0145  0.5021
   85MOL0     H11176   4.835   8.486   5.940 -0.7888 -1.1380  0.1899
   85MOL0     H11177   4.970   8.399   6.010 -2.0166 -0.2041  3.9775
   85MOL0     H11178   4.964   8.552   5.784  0.0400  1.9224 -0.6590
   85MOL0     H11179   5.027   8.681   5.886 -2.5413  0.8280 -0.7866
   85MOL0     H11180   5.157   8.406   5.865  0.3144  0.3262 -1.1519
   85MOL0     H11181   5.214   8.543   5.965 -1.9191  0.7347  0.2105
   85MOL0     H11182   5.422   8.605   5.928 -3.8850  1.1013 -0.2970
   85MOL0     H11183   5.666   8.583   5.868  1.3177 -0.1566 -1.7188
   85MOL0     H11184   5.896   8.364   5.326 -0.2662  1.2545 -2.9824
   85MOL0     H11185   6.131   8.399   5.211 -1.0226  0.0225 -1.3232
   85MOL0     H11186   6.198   8.628   5.109  0.2973  0.9314  0.6860
   85MOL0     H11187   6.325   8.505   5.079 -0.7543 -0.2969 -1.5352
   85MOL0     H11188   6.519   8.631   5.105 -0.0528 -1.1272  0.5801
   85MOL0     H11189   6.424   8.773   5.159 -0.9987 -0.8369  1.6166
   85MOL0     H11190   6.309   8.810   4.959 -0.7921 -0.2702  0.7072
   85MOL0     H11191   6.372   8.655   4.898 -1.5156 -0.8842  1.8634
   85MOL0     H11192   6.477   8.875   4.810 -2.1588  0.6345  0.9610
   85MOL0     H11193   6.538   8.907   4.975  0.2231 -0.5745 -0.7465
   85MOL0     H11194   6.604   8.647   4.809  0.2957  0.3255 -0.6980
   85MOL0     H11195   6.697   8.707   4.949 -0.7815 -1.0858  0.8951
   85MOL0     H11196   6.737   8.923   4.806  0.1828  1.4406 -3.6487
   85MOL0     H11197   6.663   8.841   4.677 -0.3020  0.3699 -0.0905
   85MOL0     H11198   6.889   8.775   4.861 -1.3856  1.3947 -0.2589
   85MOL0     H11199   6.862   8.663   4.728  0.1189  0.0307 -0.7398
   85MOL0     H11200   7.046   8.850   4.682  0.5988  1.5399  0.9478
   85MOL0     H11201   6.917   8.962   4.679  2.3232 -0.1383 -1.7175
   85MOL0     H11202   6.199   8.724   5.480  1.2037 -1.1743  0.6315
   85MOL0     H11203   5.986   8.697   5.582  2.3100  0.9275 -0.2118
   85MOL0     H11204   5.544   8.472   5.467  0.1811 -1.8206  0.7657
   85MOL0     H11205   5.318   8.503   5.523 -0.3438  3.2953  0.0519
   85MOL0     H11206   5.262   9.290   5.724  0.9253  0.7571 -1.5323
   85MOL0     H11207   5.515   9.257   5.792 -0.3508 -0.4176 -0.2895
   85MOL0     H11208   5.844   9.302   5.969 -0.1500  0.4631  0.1983
   85MOL0     H11209   6.106   9.307   6.021 -0.4047  1.6097  1.4080
   85MOL0     H11210   6.350   9.307   5.999 -4.4749  0.2273  0.0051
   85MOL0     H11211   6.314   9.455   6.082 -4.4884  1.4079 -1.7240
   85MOL0     H11212   6.554   9.456   5.884  3.3505 -1.1180  1.5485
   85MOL0     H11213   6.503   9.562   6.010 -2.4012 -0.2941 -0.1800
   85MOL0     H11214   6.593   9.276   6.068 -1.4412 -0.3399  3.1605
   85MOL0     H11215   6.557   9.388   6.186 -1.0333  2.1203 -0.4446
   85MOL0     H11216   6.764   9.453   5.965  3.7230  0.4494  0.6512
   85MOL0     H11217   6.751   9.527   6.130 -1.0767  0.4194 -1.2146
   85MOL0     H11218   6.977   9.165   6.171 -2.7977 -1.4881  2.7240
   85MOL0     H11219   6.148   9.558   5.665 -0.9597  0.8777  1.6108
   85MOL0     H11220   5.930   9.539   5.626 -0.2705  2.5561  1.1085
   86MOL0     O11221  10.158  10.723   7.025  0.4217 -0.8049  0.5012
   86MOL0     C11222  10.151  10.792   6.922 -0.2709  0.4930 -0.4841
   86MOL0     O11223  10.042  10.802   6.849  0.4979 -0.1984  0.1639
   86MOL0     C11224   9.920  10.771   6.897 -0.0154 -0.2647  0.3473
   86MOL0     C11225   9.808  10.851   6.916 -0.2305 -0.3039  0.3116
   86MOL0     C11226   9.686  10.799   6.964  0.1823 -0.7104 -0.3259
   86MOL0     C11227   9.663  10.657   6.982 -0.1761 -0.2995 -0.0466
   86MOL0     O11228   9.540  10.613   7.023 -0.3266  0.2746 -0.4744
   86MOL0     C11229   9.512  10.475   7.004 -0.6743  0.3617 -0.5189
   86MOL0     C11230   9.378  10.454   7.054  1.1355 -0.4841 -0.0853
   86MOL0     C11231   9.337  10.309   7.022 -0.7219  0.1376  0.0123
   86MOL0     C11232   9.194  10.278   7.078 -0.3897  0.0719  0.7662
   86MOL0     C11233   9.204  10.224   7.216 -0.6130  0.2392  0.4050
   86MOL0     C11234   9.070  10.190   7.265 -0.5762  0.4383 -0.4750
   86MOL0     C11235   9.058  10.116   7.392  0.3916  0.0039  0.8453
   86MOL0     C11236   8.905  10.105   7.436 -0.2989  0.2664  0.1999
   86MOL0     N11237   8.874   9.985   7.504  1.3633  1.0197  0.1806
   86MOL0     C11238   8.852   9.965   7.642  0.1435 -0.3085 -0.1439
   86MOL0     C11239   8.855   9.835   7.656  1.1418 -0.3077 -0.2378
   86MOL0     C11240   8.847   9.755   7.784  0.6058 -0.5881  0.0738
   86MOL0     C11241   8.712   9.703   7.842  0.0017 -0.3617  1.0307
   86MOL0     C11242   8.657   9.598   7.738  0.5064  0.0233 -0.4060
   86MOL0     C11243   8.510   9.540   7.766 -0.1220 -0.4991 -0.7235
   86MOL0     O11244   8.411   9.646   7.748 -0.4223  0.1350  0.2074
   86MOL0     C11245   8.276   9.617   7.752  0.2748 -0.6632 -0.5514
   86MOL0     C11246   8.190   9.723   7.723  0.6600 -0.0948  0.1204
   86MOL0     C11247   8.045   9.711   7.726 -0.1926 -0.0658 -0.9022
   86MOL0     C11248   7.986   9.588   7.754  0.0136 -0.1916  1.2128
   86MOL0     C11249   7.839   9.577   7.770  0.6384 -0.4709 -0.3968
   86MOL0     O11250   7.803   9.454   7.793 -0.2605  0.1484 -0.7236
   86MOL0     C11251   7.674   9.413   7.794 -0.0409  0.2068  0.1243
   86MOL0     C11252   7.571   9.484   7.861  0.5345 -0.1826  0.1155
   86MOL0     C11253   7.443   9.424   7.874 -0.4217  0.7665 -0.1213
   86MOL0     C11254   7.425   9.297   7.808 -0.1854  0.0953 -0.5914
   86MOL0     O11255   7.297   9.252   7.825  0.5470 -0.1336 -0.1065
   86MOL0     C11256   7.260   9.145   7.744  1.2237 -0.0232  0.5057
   86MOL0     C11257   7.128   9.101   7.807 -0.1977 -0.2080  0.2962
   86MOL0     C11258   7.023   9.203   7.760  0.2981 -0.3185  0.0265
   86MOL0     C11259   6.888   9.157   7.824 -0.6134 -0.0800 -0.5171
   86MOL0     C11260   6.766   9.242   7.791 -0.0149 -0.3454  0.2254
   86MOL0     C11261   6.782   9.384   7.842  0.1596  0.1199 -0.7556
   86MOL0     C11262   6.635   9.433   7.875  0.5637 -0.1192 -0.1662
   86MOL0     C11263   6.636   9.568   7.951 -0.4661  0.9490  0.2078
   86MOL0    Cl11264   6.476   9.600   8.007  0.3566 -0.2557 -0.5969
   86MOL0     C11265   7.513   9.250   7.719  0.3211 -0.1405  0.3353
   86MOL0     C11266   7.639   9.306   7.716  0.1659 -0.3054  0.4265
   86MOL0     O11267   7.762   9.675   7.769  0.1164  0.9439  0.1644
   86MOL0     C11268   8.075   9.479   7.781  1.0696  0.4568 -0.7414
   86MOL0     C11269   8.215   9.490   7.785 -0.0745 -0.1251 -0.2785
   86MOL0     N11270   8.885   9.771   7.535  0.8702 -0.3134 -0.0921
   86MOL0     N11271   8.896   9.862   7.449  0.0314 -0.0989 -0.4299
   86MOL0     C11272   9.785  10.578   6.976 -0.3480  0.4361 -0.1132
   86MOL0     C11273   9.902  10.637   6.929 -0.7186  0.1423 -0.0366
   86MOL0     C11274  10.281  10.852   6.863 -0.8034  0.0574 -0.2835
   86MOL0     C11275  10.411  10.817   6.913  0.2825  0.3660  0.5152
   86MOL0     C11276  10.523  10.870   6.856 -0.7696 -0.1415 -0.0719
   86MOL0     C11277  10.517  10.965   6.748 -0.9383 -1.0690  0.6548
   86MOL0     O11278  10.622  11.045   6.699  0.3042  0.3103  0.3946
   86MOL0     C11279  10.744  11.033   6.775 -0.9115  0.3546 -0.6421
   86MOL0     C11280  10.848  11.113   6.699 -0.3719  0.3734  0.0061
   86MOL0     C11281  10.869  11.085   6.550  1.5634  1.0628  0.8069
   86MOL0     C11282  10.987  11.160   6.481 -1.2013 -0.2259 -0.4588
   86MOL0     C11283  10.961  11.301   6.471 -0.2138  0.7329  0.0386
   86MOL0     C11284  10.941  11.416   6.469  0.3406  0.1765  0.2509
   86MOL0     C11285  10.394  10.995   6.693  0.2282 -0.1024  0.5358
   86MOL0     C11286  10.275  10.940   6.753  0.4014  0.1950  0.2359
   86MOL0     H11287   9.806  10.957   6.896 -2.6315 -0.0132  1.7593
   86MOL0     H11288   9.586  10.841   6.964  0.4308 -0.1148 -0.2149
   86MOL0     H11289   9.590  10.413   7.049  0.6031  1.6978 -0.8067
   86MOL0     H11290   9.515  10.455   6.896  1.0951  0.3461 -0.5028
   86MOL0     H11291   9.310  10.523   7.003  2.1837 -0.0508 -0.9265
   86MOL0     H11292   9.377  10.481   7.160 -1.0265 -0.6278 -0.0237
   86MOL0     H11293   9.407  10.240   7.070 -0.1194 -0.1411 -1.2459
   86MOL0     H11294   9.341  10.288   6.915 -0.3142 -2.6998  0.5026
   86MOL0     H11295   9.132  10.368   7.091 -0.2983 -0.2722  5.1079
   86MOL0     H11296   9.132  10.207   7.022 -0.5228  0.6132  0.2133
   86MOL0     H11297   9.254  10.288   7.289  0.5008 -0.5834  0.3938
   86MOL0     H11298   9.263  10.132   7.213  0.7754  1.1274 -1.7664
   86MOL0     H11299   9.019  10.135   7.185 -0.5385  1.7515 -1.4304
   86MOL0     H11300   9.008  10.280   7.274  0.9182  2.0308 -4.2254
   86MOL0     H11301   9.115  10.025   7.372  1.1944  0.3256  1.6197
   86MOL0     H11302   9.112  10.175   7.466 -4.8821  4.1692  1.9908
   86MOL0     H11303   8.841  10.115   7.348  0.9278  0.0464 -0.7360
   86MOL0     H11304   8.891  10.189   7.504 -0.6437  0.1849  0.2301
   86MOL0     H11305   8.833  10.038   7.720 -4.0355  1.3374 -2.3525
   86MOL0     H11306   8.898   9.817   7.859 -0.8558  2.9661 -1.6715
   86MOL0     H11307   8.912   9.670   7.759 -1.4051 -2.5217  1.1044
   86MOL0     H11308   8.636   9.782   7.842 -1.4227 -1.6605 -0.5222
   86MOL0     H11309   8.722   9.655   7.940 -2.6350  1.1680  2.1452
   86MOL0     H11310   8.661   9.635   7.635 -1.8389  0.4214 -0.4091
   86MOL0     H11311   8.720   9.508   7.744 -0.4674 -0.7791 -1.6402
   86MOL0     H11312   8.491   9.520   7.872  0.2784 -1.8362 -0.8810
   86MOL0     H11313   8.478   9.454   7.706 -2.3709 -0.3604  0.1967
   86MOL0     H11314   8.233   9.813   7.680  2.0637 -0.7608  0.0951
   86MOL0     H11315   7.985   9.797   7.697  0.3863  0.5598 -0.2888
   86MOL0     H11316   7.593   9.580   7.907 -0.8620  0.6688 -0.9350
   86MOL0     H11317   7.359   9.465   7.930 -1.8140 -0.9400 -0.8634
   86MOL0     H11318   7.329   9.060   7.748  1.8111  0.3265 -1.1968
   86MOL0     H11319   7.238   9.171   7.640 -2.0307  3.3810  1.8362
   86MOL0     H11320   7.131   9.079   7.914 -1.9186 -2.4618 -0.0427
   86MOL0     H11321   7.099   9.009   7.755 -0.0187  0.8779 -1.8679
   86MOL0     H11322   7.018   9.221   7.652 -1.7227  3.1723  0.5615
   86MOL0     H11323   7.038   9.298   7.813 -2.0131 -0.7095  1.5165
   86MOL0     H11324   6.864   9.054   7.796  1.8166 -0.9002  0.1944
   86MOL0     H11325   6.903   9.158   7.932  2.9117  1.7134 -0.8624
   86MOL0     H11326   6.676   9.193   7.829 -0.9258  0.4367 -0.8615
   86MOL0     H11327   6.755   9.233   7.683  0.2608 -2.5219  0.3348
   86MOL0     H11328   6.835   9.452   7.774  3.5448 -3.0067 -1.5250
   86MOL0     H11329   6.841   9.385   7.935  0.2011 -0.2184 -0.7793
   86MOL0     H11330   6.579   9.459   7.785 -0.7267  1.8546  1.1106
   86MOL0     H11331   6.588   9.360   7.942  0.8884 -0.4363 -0.2810
   86MOL0     H11332   6.667   9.647   7.882  1.9846  0.3994  0.5840
   86MOL0     H11333   6.699   9.559   8.040 -1.7824  0.7931  1.1657
   86MOL0     H11334   7.494   9.154   7.673  1.2771 -0.6416  0.9541
   86MOL0     H11335   7.714   9.252   7.659 -0.8009 -2.2259  0.9219
   86MOL0     H11336   8.029   9.385   7.811 -1.0798  0.3128 -4.0126
   86MOL0     H11337   8.271   9.402   7.813 -0.5765 -1.4946 -3.2344
   86MOL0     H11338   9.792  10.473   7.003  2.2754  0.5708 -0.0453
   86MOL0     H11339   9.973  10.561   6.898 -2.2797  0.3019 -5.0164
   86MOL0     H11340  10.414  10.742   6.992  2.1357 -0.0122  0.1437
   86MOL0     H11341  10.619  10.827   6.882 -0.6199 -1.1934 -2.1413
   86MOL0     H11342  10.775  10.928   6.778  2.1809  1.1936  0.1511
   86MOL0     H11343  10.741  11.082   6.873 -2.1794  1.9967 -1.4636
   86MOL0     H11344  10.819  11.218   6.713  2.2098  1.1936 -0.3240
   86MOL0     H11345  10.943  11.099   6.752 -0.0902  0.9179 -0.3494
   86MOL0     H11346  10.774  11.102   6.499  1.1836 -0.2854  1.0240
   86MOL0     H11347  10.878  10.977   6.538 -1.4997  0.7409  0.6004
   86MOL0     H11348  11.083  11.138   6.529  0.9730  2.0763 -3.2874
   86MOL0     H11349  10.992  11.119   6.379 -1.9624  0.3046 -0.7192
   86MOL0     H11350  10.927  11.522   6.470 -2.4120 -0.1239  0.2858
   86MOL0     H11351  10.376  11.076   6.624 -1.6024  0.8180  2.0037
   86MOL0     H11352  10.176  10.962   6.713  0.2878 -2.8692 -1.4372
   87MOL0     O11353   6.519   4.443   9.998 -0.6661 -0.2183  0.8940
   87MOL0     C11354   6.605   4.408   9.920 -1.5829  0.8132  0.1443
   87MOL0     O11355   6.642   4.463   9.798  0.5411 -0.2064  0.6216
   87MOL0     C11356   6.570   4.565   9.733  0.0686 -0.1970  0.3600
   87MOL0     C11357   6.603   4.593   9.600 -0.2748  0.0778 -0.5959
   87MOL0     C11358   6.534   4.683   9.520  0.7848  0.2172 -0.0641
   87MOL0     C11359   6.430   4.758   9.576 -0.2216  0.1021  0.5425
   87MOL0     O11360   6.355   4.847   9.506 -0.0478 -0.3471 -0.2228
   87MOL0     C11361   6.333   4.823   9.361 -0.2199  1.1063 -0.0236
   87MOL0     C11362   6.245   4.700   9.322 -0.0089 -1.1285 -0.3575
   87MOL0     C11363   6.112   4.704   9.382  1.0688 -0.0278  0.7447
   87MOL0     C11364   6.020   4.808   9.323  0.1456  0.4194  0.0616
   87MOL0     C11365   5.861   4.776   9.327 -0.5692 -0.2660 -0.1495
   87MOL0     C11366   5.785   4.894   9.270  0.0445 -0.3547  0.2781
   87MOL0     C11367   5.642   4.843   9.232 -0.0343  0.0868 -0.3422
   87MOL0     C11368   5.566   4.954   9.153  0.0438  0.0091  0.0282
   87MOL0     N11369   5.427   4.902   9.139  0.1162  0.7704  0.1930
   87MOL0     C11370   5.389   4.805   9.042  0.2908 -0.5666  0.1202
   87MOL0     C11371   5.259   4.772   9.077 -0.2337 -0.1636 -0.5180
   87MOL0     C11372   5.169   4.678   8.997  0.3732 -0.9197  0.2960
   87MOL0     C11373   5.028   4.741   8.955 -0.4395  0.5766  0.1990
   87MOL0     C11374   4.923   4.725   9.074 -0.1773  0.5215 -0.3414
   87MOL0     C11375   4.782   4.767   9.036 -0.0096 -0.1289 -0.3760
   87MOL0     O11376   4.752   4.721   8.906  0.3233  0.0631 -0.9672
   87MOL0     C11377   4.643   4.785   8.864 -0.2639  1.4302  0.3196
   87MOL0     C11378   4.523   4.722   8.892  0.0300 -0.2974 -0.1925
   87MOL0     C11379   4.400   4.783   8.863  0.6279 -0.3001  0.0812
   87MOL0     C11380   4.405   4.909   8.793  0.5519 -0.4012 -0.8076
   87MOL0     C11381   4.279   4.985   8.777 -1.1300  0.1299 -0.2159
   87MOL0     O11382   4.164   4.933   8.831 -0.2596 -0.0388 -0.0796
   87MOL0     C11383   4.061   5.019   8.868  0.2171  0.9231 -0.2284
   87MOL0     C11384   3.943   4.957   8.911 -0.2468 -0.9207  1.4925
   87MOL0     C11385   3.838   5.027   8.973 -0.7597  0.8803  0.4181
   87MOL0     C11386   3.851   5.165   8.982 -0.7625  0.0785 -0.9469
   87MOL0     O11387   3.760   5.241   9.047 -1.0798  0.0678  0.4892
   87MOL0     C11388   3.657   5.289   8.961 -0.0191 -0.2978  0.8848
   87MOL0     C11389   3.554   5.371   9.040  0.3394  0.4898 -0.4550
   87MOL0     C11390   3.489   5.293   9.147 -0.1290 -0.0395 -0.1509
   87MOL0     C11391   3.399   5.177   9.102  0.0221  1.3769  0.5987
   87MOL0     C11392   3.294   5.203   8.998 -0.4202 -0.4486  0.9362
   87MOL0     C11393   3.179   5.298   9.050  0.7470  0.8393  0.1819
   87MOL0     C11394   3.106   5.237   9.170  0.2076  0.2546 -0.9233
   87MOL0     C11395   2.957   5.283   9.168 -0.2564  0.0174 -0.2430
   87MOL0    Cl11396   2.869   5.205   9.042 -0.0108 -0.1591 -0.1476
   87MOL0     C11397   3.975   5.234   8.948 -0.4205  0.2910  0.2420
   87MOL0     C11398   4.083   5.153   8.901 -0.3476 -0.7911  0.5978
   87MOL0     O11399   4.279   5.075   8.693 -0.2684 -0.5166  0.1784
   87MOL0     C11400   4.525   4.966   8.759  1.5045 -0.2358 -0.1512
   87MOL0     C11401   4.641   4.899   8.789  0.3020 -0.1777 -0.3631
   87MOL0     N11402   5.215   4.864   9.175 -0.0081 -0.5103  0.0277
   87MOL0     N11403   5.321   4.923   9.220 -0.5010 -0.5549  0.6444
   87MOL0     C11404   6.399   4.749   9.711  0.3125  0.0012  0.1123
   87MOL0     C11405   6.465   4.653   9.786 -0.1429  0.6340  0.1429
   87MOL0     C11406   6.681   4.285   9.954  0.4416 -0.0087 -0.5035
   87MOL0     C11407   6.629   4.179  10.040 -0.2156  0.6107  0.5298
   87MOL0     C11408   6.709   4.061  10.076 -0.3421  0.5298  0.4111
   87MOL0     C11409   6.828   4.037  10.027 -0.0023  0.2087 -0.4029
   87MOL0     O11410   6.885   3.921  10.072 -0.4454 -0.2419  0.1507
   87MOL0     C11411   7.015   3.894  10.015  0.8331 -0.0893  0.4469
   87MOL0     C11412   7.076   3.782  10.098  0.3725  0.3796 -0.5491
   87MOL0     C11413   7.227   3.762  10.078 -0.6738  0.2736  0.4389
   87MOL0     C11414   7.281   3.666  10.190 -0.0768  0.0860  0.6647
   87MOL0     C11415   7.430   3.668  10.176  1.0978  0.3062  0.4542
   87MOL0     C11416   7.546   3.643  10.190  0.1886 -0.7188 -0.7216
   87MOL0     C11417   6.880   4.133   9.944 -0.1107  0.5895  0.0230
   87MOL0     C11418   6.813   4.251   9.906 -0.2523 -0.1689  0.3343
   87MOL0     H11419   6.677   4.539   9.541  0.9424  0.8153  0.2092
   87MOL0     H11420   6.579   4.683   9.421  1.5867  0.1013  0.2904
   87MOL0     H11421   6.433   4.813   9.319 -0.3098 -1.8840  0.2937
   87MOL0     H11422   6.287   4.919   9.335  0.0523  1.0797 -0.5966
   87MOL0     H11423   6.299   4.619   9.372  1.4679 -0.5850 -1.0009
   87MOL0     H11424   6.250   4.689   9.213 -0.2985  3.2515 -1.0129
   87MOL0     H11425   6.116   4.727   9.489 -0.8764 -1.5706  1.2007
   87MOL0     H11426   6.065   4.606   9.383  0.8340  0.0128 -1.4694
   87MOL0     H11427   6.030   4.899   9.383  0.6140 -0.4255  1.3052
   87MOL0     H11428   6.044   4.823   9.217 -2.0941  1.8019 -0.3362
   87MOL0     H11429   5.828   4.759   9.430  1.7687  2.0186  1.0978
   87MOL0     H11430   5.838   4.687   9.267 -1.5644  0.1457 -0.3828
   87MOL0     H11431   5.828   4.921   9.174  2.3641 -1.4208  0.9464
   87MOL0     H11432   5.771   4.978   9.339  0.4573 -0.6855  0.7785
   87MOL0     H11433   5.647   4.749   9.176 -1.6013  0.2263 -0.7723
   87MOL0     H11434   5.594   4.829   9.329  0.2917  1.0441 -0.0273
   87MOL0     H11435   5.618   4.953   9.056 -0.4055 -0.0412 -0.2125
   87MOL0     H11436   5.574   5.052   9.201 -0.6380  0.1719 -0.1879
   87MOL0     H11437   5.454   4.758   8.969 -1.2942  0.5029 -2.0525
   87MOL0     H11438   5.155   4.587   9.057 -0.2622  0.0707  1.7130
   87MOL0     H11439   5.220   4.661   8.902 -1.7042 -0.3147 -0.9710
   87MOL0     H11440   4.995   4.678   8.872 -0.9501  0.6066  0.3775
   87MOL0     H11441   5.040   4.844   8.919 -2.2223 -0.2811 -3.3019
   87MOL0     H11442   4.917   4.627   9.122  3.8270 -0.1659 -0.9476
   87MOL0     H11443   4.956   4.800   9.147 -0.9082 -0.0115  0.5552
   87MOL0     H11444   4.777   4.876   9.025 -2.0987 -0.3810 -2.9473
   87MOL0     H11445   4.708   4.730   9.107 -1.2724  1.3445 -0.8492
   87MOL0     H11446   4.520   4.637   8.960  0.8011 -0.7080 -0.6507
   87MOL0     H11447   4.304   4.737   8.885  0.9410 -1.1741 -0.3265
   87MOL0     H11448   3.931   4.851   8.890 -1.9401 -0.1566 -2.0581
   87MOL0     H11449   3.763   4.959   9.012  2.5036 -2.5763  1.2343
   87MOL0     H11450   3.603   5.207   8.912  1.7680 -0.5136 -0.8312
   87MOL0     H11451   3.711   5.351   8.890  5.5261 -0.8915  4.0160
   87MOL0     H11452   3.484   5.416   8.969 -0.0581  1.0105  0.2515
   87MOL0     H11453   3.610   5.451   9.090  0.6701 -0.1371  0.2105
   87MOL0     H11454   3.436   5.360   9.215 -2.3416 -2.2928  0.4842
   87MOL0     H11455   3.558   5.236   9.210 -4.0611 -1.9549  2.8677
   87MOL0     H11456   3.457   5.096   9.057 -3.5533 -0.5423 -0.9395
   87MOL0     H11457   3.354   5.129   9.189  1.0216 -0.5674  0.1127
   87MOL0     H11458   3.249   5.109   8.964 -0.8038  0.6133 -1.7247
   87MOL0     H11459   3.334   5.246   8.905 -1.0897  1.6759  1.5774
   87MOL0     H11460   3.099   5.311   8.977  0.8638  0.8515  0.0554
   87MOL0     H11461   3.222   5.393   9.083  0.6858 -0.9318  6.5850
   87MOL0     H11462   3.114   5.128   9.170 -1.6853 -0.0519  3.1251
   87MOL0     H11463   3.158   5.267   9.261  2.5093 -3.7295 -0.6673
   87MOL0     H11464   2.958   5.392   9.160 -2.1830  0.1301  0.3865
   87MOL0     H11465   2.906   5.252   9.260  0.0806 -1.1287 -0.4308
   87MOL0     H11466   3.989   5.338   8.978 -1.3648 -0.2866  2.9455
   87MOL0     H11467   4.170   5.215   8.883 -1.9509  1.1840 -0.6654
   87MOL0     H11468   4.533   5.067   8.720 -1.9538 -0.0996 -0.8170
   87MOL0     H11469   4.723   4.957   8.747 -0.3142  3.4572  2.8551
   87MOL0     H11470   6.321   4.810   9.754 -0.1591 -0.3305 -0.2588
   87MOL0     H11471   6.445   4.642   9.892 -0.8286 -1.2523 -0.1458
   87MOL0     H11472   6.537   4.194  10.096  0.3775  0.0053  1.6872
   87MOL0     H11473   6.668   3.991  10.148  0.4933  0.5406  0.9135
   87MOL0     H11474   7.080   3.981  10.013  0.3232  0.2798 -1.7390
   87MOL0     H11475   6.996   3.858   9.914 -1.8597  0.7101  0.5851
   87MOL0     H11476   7.057   3.804  10.203 -1.2418 -1.0721 -0.5036
   87MOL0     H11477   7.020   3.692  10.072  0.9013 -0.5436  1.3270
   87MOL0     H11478   7.281   3.857  10.074 -0.3074  0.0359 -0.4549
   87MOL0     H11479   7.241   3.709   9.984 -0.2352 -1.7101  1.5539
   87MOL0     H11480   7.257   3.707  10.289 -2.0226 -2.6541  1.4522
   87MOL0     H11481   7.240   3.566  10.172 -2.3782  0.9703  0.7250
   87MOL0     H11482   7.647   3.605  10.186  1.2174  1.8410 -1.3418
   87MOL0     H11483   6.980   4.122   9.902 -0.3938 -2.8821  0.0152
   87MOL0     H11484   6.857   4.317   9.831 -1.2459  0.5601  0.3786
   88MOL0     O11485   9.932   9.775   8.310 -0.0166  1.0397  0.3527
   88MOL0     C11486   9.962   9.656   8.291  0.5624  0.5986 -0.1888
   88MOL0     O11487   9.872   9.552   8.293 -0.6538  0.5393  0.3821
   88MOL0     C11488   9.731   9.566   8.257  0.1486 -0.1347 -1.0418
   88MOL0     C11489   9.690   9.674   8.182 -0.5241 -0.1256  0.7033
   88MOL0     C11490   9.551   9.703   8.167  0.2255  0.0608  0.8545
   88MOL0     C11491   9.463   9.603   8.205  0.2744 -0.1850 -0.6180
   88MOL0     O11492   9.329   9.615   8.167 -0.1987 -0.8512 -0.4419
   88MOL0     C11493   9.222   9.526   8.215 -0.2864 -0.4069 -0.0020
   88MOL0     C11494   9.097   9.606   8.150  1.0101 -0.0103 -0.3492
   88MOL0     C11495   8.969   9.525   8.133  0.1597 -0.2831 -0.4314
   88MOL0     C11496   8.909   9.467   8.269 -0.9376  0.0937  0.6583
   88MOL0     C11497   8.760   9.452   8.250 -0.3833  0.0780 -0.2616
   88MOL0     C11498   8.689   9.396   8.375  0.5629  0.7179 -0.1952
   88MOL0     C11499   8.540   9.384   8.346  0.4206  0.5550  0.2474
   88MOL0     C11500   8.452   9.512   8.350 -0.8902  0.6848  1.3203
   88MOL0     N11501   8.314   9.466   8.366  0.4253 -0.2883 -0.4115
   88MOL0     C11502   8.237   9.404   8.275 -0.4702  0.1890  0.2581
   88MOL0     C11503   8.118   9.376   8.328  0.5359  0.0120  0.3772
   88MOL0     C11504   8.003   9.321   8.248 -0.2002 -0.1065 -0.2042
   88MOL0     C11505   7.873   9.341   8.317 -0.3282  0.0831  0.1873
   88MOL0     C11506   7.762   9.283   8.240  0.9792  0.1471  0.0464
   88MOL0     C11507   7.616   9.299   8.298  0.0905  0.0879 -0.9421
   88MOL0     O11508   7.517   9.229   8.215  0.2379 -0.1458  0.0438
   88MOL0     C11509   7.381   9.249   8.245  0.0022  0.8021  0.7117
   88MOL0     C11510   7.293   9.240   8.143 -0.4128 -0.6512 -0.0874
   88MOL0     C11511   7.154   9.255   8.161  0.5447  0.1631 -1.1860
   88MOL0     C11512   7.110   9.287   8.290 -0.2677 -0.2265 -0.1142
   88MOL0     C11513   6.966   9.295   8.317  0.7735  0.8083 -0.0115
   88MOL0     O11514   6.885   9.231   8.230 -0.3820 -0.2381  0.3928
   88MOL0     C11515   6.752   9.227   8.234 -0.6152 -0.5938  0.3196
   88MOL0     C11516   6.693   9.116   8.181  0.0489  0.2841 -0.7848
   88MOL0     C11517   6.549   9.103   8.168  0.1960  0.0835 -0.4519
   88MOL0     C11518   6.471   9.218   8.200  0.4569 -1.2662 -0.5066
   88MOL0     O11519   6.329   9.229   8.194 -0.6378 -0.1118  0.3773
   88MOL0     C11520   6.240   9.117   8.179  0.1836  0.4462  0.0988
   88MOL0     C11521   6.095   9.156   8.183 -0.8465  0.2282  0.3458
   88MOL0     C11522   6.017   9.232   8.075  0.6572 -0.0385  0.6578
   88MOL0     C11523   6.079   9.372   8.028  0.8790 -0.3218  0.5124
   88MOL0     C11524   5.999   9.424   7.905  1.2287  0.1561  0.4190
   88MOL0     C11525   6.070   9.549   7.846  0.1593 -0.2520  0.9259
   88MOL0     C11526   6.075   9.673   7.937 -0.1952  0.1605  0.7516
   88MOL0     C11527   6.081   9.801   7.863 -0.2155 -0.3483  0.2819
   88MOL0    Cl11528   5.925   9.856   7.789 -0.1201 -0.0807  0.0212
   88MOL0     C11529   6.535   9.336   8.244 -0.3813  0.6544  0.1321
   88MOL0     C11530   6.672   9.340   8.260  0.3167 -0.4457  0.1953
   88MOL0     O11531   6.923   9.335   8.421 -0.1012 -0.1333 -0.3231
   88MOL0     C11532   7.196   9.304   8.392 -0.9560  0.1111 -0.6049
   88MOL0     C11533   7.333   9.287   8.365 -0.3709 -0.4955 -0.9588
   88MOL0     N11534   8.126   9.419   8.465  0.4232  0.4229  0.0615
   88MOL0     N11535   8.240   9.473   8.480 -0.8036  1.3694  0.6914
   88MOL0     C11536   9.502   9.492   8.262  0.2631  0.9057 -0.3099
   88MOL0     C11537   9.634   9.469   8.290 -0.2575 -0.7212  0.1383
   88MOL0     C11538  10.108   9.625   8.295  0.3229 -0.6966 -0.2143
   88MOL0     C11539  10.150   9.499   8.344  0.1559  0.0919  0.2094
   88MOL0     C11540  10.283   9.474   8.378 -0.3138  0.0989  0.0368
   88MOL0     C11541  10.386   9.569   8.346  0.2314 -0.5473  0.2406
   88MOL0     O11542  10.521   9.561   8.352  0.0174  0.0040 -0.1367
   88MOL0     C11543  10.569   9.431   8.393 -0.7090 -0.3701  0.0710
   88MOL0     C11544  10.715   9.446   8.420 -0.1606  0.0111  0.0962
   88MOL0     C11545  10.796   9.450   8.291 -0.1493  0.1199  0.5651
   88MOL0     C11546  10.868   9.583   8.282  0.2897 -0.9374  0.2070
   88MOL0     C11547  10.961   9.586   8.167 -0.8048 -0.1911  0.2962
   88MOL0     C11548  11.032   9.599   8.066 -0.8063  0.0750  0.0122
   88MOL0     C11549  10.336   9.693   8.294  0.4042  0.8736  0.2292
   88MOL0     C11550  10.204   9.722   8.270 -0.3539  0.1016  0.4364
   88MOL0     H11551   9.758   9.748   8.140  0.9710 -0.2617  2.7223
   88MOL0     H11552   9.516   9.777   8.096  1.2208 -1.3011 -1.1218
   88MOL0     H11553   9.221   9.505   8.323  0.7227 -2.3480 -0.3371
   88MOL0     H11554   9.234   9.429   8.166 -1.4278 -1.0576  0.9498
   88MOL0     H11555   9.127   9.642   8.051 -1.5398 -1.3867 -1.7214
   88MOL0     H11556   9.068   9.690   8.214  0.0984  0.3272 -1.1819
   88MOL0     H11557   8.996   9.442   8.067 -0.2321 -0.3445 -0.5137
   88MOL0     H11558   8.903   9.598   8.085  2.6430  2.2050 -0.3213
   88MOL0     H11559   8.948   9.367   8.287  0.8162  0.6616  0.1467
   88MOL0     H11560   8.943   9.525   8.355  1.9251 -0.9049  0.2883
   88MOL0     H11561   8.740   9.390   8.162 -3.8971  1.6169 -0.6930
   88MOL0     H11562   8.714   9.550   8.235  1.2821  0.9106 -0.1826
   88MOL0     H11563   8.702   9.452   8.468  0.2155 -0.6212  0.6898
   88MOL0     H11564   8.730   9.298   8.398 -1.0942  0.6094  2.7416
   88MOL0     H11565   8.532   9.325   8.253  1.7065 -2.6897  2.0114
   88MOL0     H11566   8.489   9.324   8.422 -3.3754  2.8318 -0.2481
   88MOL0     H11567   8.457   9.557   8.251 -0.7973 -1.3366  0.3565
   88MOL0     H11568   8.485   9.578   8.431 -0.7698  0.0528  1.7956
   88MOL0     H11569   8.262   9.396   8.170 -1.1332  1.1203  0.0119
   88MOL0     H11570   8.016   9.213   8.233 -2.7019 -0.7562  1.6852
   88MOL0     H11571   7.995   9.372   8.152 -0.4713 -2.4234 -1.4746
   88MOL0     H11572   7.877   9.449   8.335  1.4060 -0.2980  2.4513
   88MOL0     H11573   7.882   9.284   8.409 -1.5737 -3.0174 -1.4659
   88MOL0     H11574   7.749   9.331   8.142  0.6255  2.4016  1.1203
   88MOL0     H11575   7.786   9.178   8.224 -0.8449 -0.0518 -1.7428
   88MOL0     H11576   7.594   9.402   8.328 -1.6288 -1.0627  2.2979
   88MOL0     H11577   7.616   9.239   8.390 -1.3439  2.4978  0.7761
   88MOL0     H11578   7.317   9.197   8.046 -1.5273  1.1697 -1.2446
   88MOL0     H11579   7.083   9.256   8.078 -1.7743 -0.6108  0.6856
   88MOL0     H11580   6.761   9.033   8.165  0.8418  0.7337  0.1126
   88MOL0     H11581   6.507   9.007   8.141 -0.7478  0.4742 -0.4192
   88MOL0     H11582   6.256   9.052   8.266  3.1118 -1.9472 -2.0154
   88MOL0     H11583   6.258   9.067   8.084  0.7262 -0.7513  0.8054
   88MOL0     H11584   6.083   9.204   8.281 -0.8710  1.2112 -0.1234
   88MOL0     H11585   6.039   9.063   8.193  1.3399 -0.9962  1.8089
   88MOL0     H11586   5.916   9.246   8.116  1.0509 -3.3389  3.1896
   88MOL0     H11587   6.011   9.169   7.985  0.3592 -1.4775  1.6578
   88MOL0     H11588   6.057   9.441   8.110  0.9636  1.5206 -0.9473
   88MOL0     H11589   6.186   9.362   8.009  0.1510 -1.8673 -3.7884
   88MOL0     H11590   5.900   9.456   7.942 -0.2336  1.2394 -3.8618
   88MOL0     H11591   5.988   9.352   7.824 -0.6155  2.0429 -1.1333
   88MOL0     H11592   6.003   9.572   7.762 -0.1763 -1.1430  0.9341
   88MOL0     H11593   6.168   9.525   7.803  0.9782 -0.3431  2.7675
   88MOL0     H11594   5.981   9.683   7.992 -0.0713 -3.2681  1.7864
   88MOL0     H11595   6.163   9.675   8.003 -1.1188 -2.0326  2.1439
   88MOL0     H11596   6.150   9.797   7.778  0.6856 -1.0261  1.0276
   88MOL0     H11597   6.112   9.881   7.931 -1.3798  0.3091  0.0666
   88MOL0     H11598   6.483   9.432   8.247  0.3099  1.0185  0.9412
   88MOL0     H11599   6.717   9.436   8.281  1.6776 -0.1379 -3.3450
   88MOL0     H11600   7.169   9.337   8.492  1.5974 -1.6057  0.7400
   88MOL0     H11601   7.406   9.296   8.445 -2.7199  0.7223  1.2193
   88MOL0     H11602   9.432   9.410   8.277  1.4794 -0.3453 -1.2132
   88MOL0     H11603   9.676   9.388   8.348  3.1940 -0.8576 -2.2858
   88MOL0     H11604  10.076   9.425   8.372 -0.2648  0.3065 -0.3313
   88MOL0     H11605  10.322   9.385   8.426  1.6826  1.6834  1.5053
   88MOL0     H11606  10.562   9.364   8.307 -1.1256 -2.0751  1.3783
   88MOL0     H11607  10.520   9.396   8.485  0.5156  2.0839  1.7745
   88MOL0     H11608  10.743   9.530   8.485  1.3146 -2.0005  2.2333
   88MOL0     H11609  10.744   9.355   8.472  0.7268 -0.7173 -1.5923
   88MOL0     H11610  10.724   9.448   8.209  0.2129 -1.6907  0.2362
   88MOL0     H11611  10.872   9.373   8.276 -0.6149  0.1359 -2.3336
   88MOL0     H11612  10.801   9.668   8.269 -1.1273 -2.3502 -2.7412
   88MOL0     H11613  10.931   9.615   8.366 -0.3530  1.9573 -0.2968
   88MOL0     H11614  11.084   9.610   7.973  1.8954 -0.8778  1.3129
   88MOL0     H11615  10.409   9.772   8.280  0.8430  0.4872  0.3231
   88MOL0     H11616  10.167   9.822   8.249 -0.7842 -0.5348 -2.3546
   89MOL0     O11617   7.756   0.997   1.313  0.3469 -0.7926 -0.5379
   89MOL0     C11618   7.803   0.892   1.264  0.3584 -1.1029  0.2419
   89MOL0     O11619   7.733   0.806   1.197 -0.0508 -0.2487  0.5940
   89MOL0     C11620   7.597   0.825   1.155 -0.7142  0.8015 -0.1922
   89MOL0     C11621   7.521   0.710   1.111  1.1428 -0.0738  0.2578
   89MOL0     C11622   7.398   0.733   1.053 -0.1356  0.4357 -0.1087
   89MOL0     C11623   7.346   0.858   1.025 -0.8227 -0.0145  0.0814
   89MOL0     O11624   7.225   0.863   0.972  0.6645  0.1162  0.0331
   89MOL0     C11625   7.160   0.992   0.973 -0.7216 -0.5766  0.5341
   89MOL0     C11626   7.015   1.001   0.919  0.0644 -0.2617  0.0640
   89MOL0     C11627   6.993   0.897   0.812  0.1767  0.7262 -0.2816
   89MOL0     C11628   6.838   0.885   0.796  0.1495 -0.0373  0.8671
   89MOL0     C11629   6.775   0.769   0.884 -0.8115  0.1785 -0.4007
   89MOL0     C11630   6.630   0.746   0.853  0.0117  0.5134  0.3660
   89MOL0     C11631   6.548   0.660   0.961 -0.8248 -1.0919 -0.0728
   89MOL0     C11632   6.448   0.565   0.891  0.0360 -0.1772 -0.1990
   89MOL0     N11633   6.365   0.651   0.802  0.0188 -0.6377 -0.7887
   89MOL0     C11634   6.357   0.657   0.667  0.0819 -0.1204  0.9143
   89MOL0     C11635   6.255   0.733   0.643  0.8526  0.5533  0.6071
   89MOL0     C11636   6.183   0.747   0.508 -0.8121  0.5504  0.1016
   89MOL0     C11637   6.280   0.821   0.412  0.0661  0.3149 -0.1445
   89MOL0     C11638   6.239   0.806   0.267 -0.0724  0.7891 -0.2731
   89MOL0     C11639   6.097   0.815   0.229 -0.0091  0.1246  0.5559
   89MOL0     O11640   6.061   0.815   0.086  0.0136 -0.7076 -0.1243
   89MOL0     C11641   5.932   0.802   0.041  0.1249  0.6422  0.8655
   89MOL0     C11642   5.902   0.706  -0.056  1.0609  0.4077  0.5805
   89MOL0     C11643   5.772   0.679  -0.104  0.2890 -0.1211 -0.3368
   89MOL0     C11644   5.669   0.759  -0.051  0.1597  0.6216 -0.5445
   89MOL0     C11645   5.523   0.745  -0.105  0.1362  0.7939 -0.5547
   89MOL0     O11646   5.432   0.813  -0.025 -0.3034  0.4203 -0.0654
   89MOL0     C11647   5.299   0.782  -0.054 -0.0026  0.5113 -0.6752
   89MOL0     C11648   5.245   0.661  -0.006  0.1992  1.0807  0.5276
   89MOL0     C11649   5.116   0.642  -0.014 -0.0206  0.6197  0.7562
   89MOL0     C11650   5.031   0.726  -0.087 -0.3480 -0.4365  0.8433
   89MOL0     O11651   4.905   0.698  -0.110  0.0431  0.2125 -0.6462
   89MOL0     C11652   4.862   0.563  -0.116  0.6435  0.1195  0.4589
   89MOL0     C11653   4.793   0.542   0.024  0.4126 -0.5024 -0.0286
   89MOL0     C11654   4.806   0.391   0.066 -0.4154 -0.3576  0.5979
   89MOL0     C11655   4.741   0.299  -0.032 -0.7787 -0.3360 -0.1984
   89MOL0     C11656   4.691   0.172   0.042  1.0740  0.4233  0.8026
   89MOL0     C11657   4.684   0.055  -0.057  0.3931  0.7420 -0.1004
   89MOL0     C11658   4.606   0.070  -0.190 -0.5728  0.0763  0.0397
   89MOL0     C11659   4.641  -0.029  -0.299 -0.8675  0.2479  0.7142
   89MOL0    Cl11660   4.794   0.001  -0.385 -0.3156 -0.1105  0.3348
   89MOL0     C11661   5.090   0.845  -0.142 -0.0718  0.1278 -0.2927
   89MOL0     C11662   5.227   0.876  -0.123  0.6975 -0.0473 -0.6474
   89MOL0     O11663   5.499   0.679  -0.204  0.5662 -0.0645  0.5423
   89MOL0     C11664   5.695   0.852   0.051  0.0528 -0.3951 -0.4784
   89MOL0     C11665   5.827   0.875   0.099  0.5493 -0.3799 -0.8577
   89MOL0     N11666   6.196   0.779   0.762 -0.0227 -0.2387 -0.4466
   89MOL0     N11667   6.259   0.724   0.857 -0.6837  0.1372 -0.0503
   89MOL0     C11668   7.429   0.965   1.056  0.5340  0.7421 -0.1788
   89MOL0     C11669   7.549   0.953   1.114 -0.2923 -0.1115 -0.5722
   89MOL0     C11670   7.946   0.847   1.278  0.3187 -0.6216 -0.4335
   89MOL0     C11671   7.999   0.721   1.232  0.0714  0.0936  0.0522
   89MOL0     C11672   8.133   0.687   1.248  0.0090 -0.2795  0.2931
   89MOL0     C11673   8.230   0.774   1.313  0.2306  0.2200 -0.1836
   89MOL0     O11674   8.357   0.723   1.315 -0.1466  0.3646 -0.5087
   89MOL0     C11675   8.452   0.818   1.352 -0.2790  0.0912 -0.1254
   89MOL0     C11676   8.582   0.747   1.339  0.5844  0.8900 -0.2585
   89MOL0     C11677   8.691   0.814   1.410 -0.0642  0.4636  0.1951
   89MOL0     C11678   8.739   0.951   1.349  0.4937 -0.0174 -0.4898
   89MOL0     C11679   8.806   0.936   1.225 -0.0141  0.1735  0.0327
   89MOL0     C11680   8.862   0.937   1.116 -1.0309 -0.0477  0.3177
   89MOL0     C11681   8.177   0.888   1.378 -0.5835  0.1225  0.3480
   89MOL0     C11682   8.044   0.929   1.347  0.1150  0.7936 -0.5633
   89MOL0     H11683   7.563   0.610   1.117  0.1633 -0.6563 -1.6800
   89MOL0     H11684   7.328   0.654   1.026 -0.2868  1.3714 -2.8450
   89MOL0     H11685   7.212   1.062   0.908  2.4296 -2.0242  1.2941
   89MOL0     H11686   7.159   1.031   1.076 -0.2276 -3.0981  1.5746
   89MOL0     H11687   6.987   1.102   0.889 -2.6113 -1.2846 -1.1655
   89MOL0     H11688   6.954   0.977   1.006  0.8459  2.2025  1.4107
   89MOL0     H11689   7.030   0.802   0.853 -1.8211  1.4271  3.5805
   89MOL0     H11690   7.037   0.929   0.717  0.0201  3.8171  0.5725
   89MOL0     H11691   6.786   0.981   0.801 -1.0276 -0.5407 -0.7654
   89MOL0     H11692   6.819   0.858   0.691  0.0858 -0.8299  1.0705
   89MOL0     H11693   6.779   0.812   0.985  0.9650 -0.7668 -0.0279
   89MOL0     H11694   6.837   0.679   0.880 -0.3719  0.5264 -2.8199
   89MOL0     H11695   6.628   0.695   0.756 -2.7529  0.7249  0.2462
   89MOL0     H11696   6.583   0.843   0.837 -1.8991 -0.5665 -0.9585
   89MOL0     H11697   6.620   0.602   1.020 -1.5236 -2.9531 -0.9754
   89MOL0     H11698   6.502   0.725   1.037  0.0775  1.3762 -1.4988
   89MOL0     H11699   6.378   0.520   0.961 -0.8640 -1.0790 -1.6293
   89MOL0     H11700   6.501   0.484   0.840  1.6562  0.4727  0.3702
   89MOL0     H11701   6.418   0.601   0.597  2.7753  1.3871  1.8646
   89MOL0     H11702   6.090   0.802   0.528 -2.5729 -2.1766 -0.1069
   89MOL0     H11703   6.170   0.641   0.485  1.0364  0.0190  1.2412
   89MOL0     H11704   6.383   0.785   0.420 -0.1113  0.0431  1.0226
   89MOL0     H11705   6.277   0.928   0.435 -3.5183  1.6932 -5.1308
   89MOL0     H11706   6.282   0.895   0.219  0.4038  0.9044  0.3564
   89MOL0     H11707   6.283   0.714   0.228  0.4318  1.2191 -0.7355
   89MOL0     H11708   6.060   0.914   0.257  0.4550  0.9747 -1.6035
   89MOL0     H11709   6.037   0.740   0.282 -0.6600  0.1716 -0.1069
   89MOL0     H11710   5.981   0.638  -0.087  0.0475 -1.4676  1.9225
   89MOL0     H11711   5.758   0.600  -0.177  3.4030 -0.0511 -1.1610
   89MOL0     H11712   5.306   0.596   0.056  1.3039  0.1564 -1.4450
   89MOL0     H11713   5.080   0.560   0.047 -0.4083  0.0469 -0.2198
   89MOL0     H11714   4.949   0.505  -0.150 -1.0696 -1.4656 -1.5025
   89MOL0     H11715   4.783   0.556  -0.191  1.0071 -0.3886  0.1106
   89MOL0     H11716   4.688   0.572   0.022  0.2614 -0.6322  2.5468
   89MOL0     H11717   4.840   0.603   0.101 -2.0476 -1.2136  2.2087
   89MOL0     H11718   4.764   0.372   0.164  0.0181  0.6921  1.0000
   89MOL0     H11719   4.912   0.364   0.077 -0.0001 -0.1976 -2.1700
   89MOL0     H11720   4.666   0.358  -0.085 -0.1913 -1.1537 -2.0425
   89MOL0     H11721   4.819   0.269  -0.103 -1.2208  0.2000 -0.9242
   89MOL0     H11722   4.591   0.200   0.075  0.9874  2.5595 -0.9995
   89MOL0     H11723   4.748   0.146   0.131  2.2402  0.7589  0.1838
   89MOL0     H11724   4.637  -0.027  -0.003  2.3986 -1.3344 -1.3348
   89MOL0     H11725   4.787   0.022  -0.076  1.6640  3.1027  2.0112
   89MOL0     H11726   4.500   0.083  -0.169 -0.4270  1.4768 -0.0021
   89MOL0     H11727   4.641   0.163  -0.237  0.8911 -1.9070 -3.1425
   89MOL0     H11728   4.558  -0.023  -0.370 -0.1683  0.5788 -0.0891
   89MOL0     H11729   4.641  -0.131  -0.259  2.6209 -0.3977 -0.5193
   89MOL0     H11730   5.028   0.920  -0.192  0.7174  1.3487  0.4924
   89MOL0     H11731   5.272   0.969  -0.155 -1.8262  0.9998 -1.4584
   89MOL0     H11732   5.608   0.901   0.093 -0.5506 -0.7354 -1.3248
   89MOL0     H11733   5.841   0.934   0.189 -0.6437  1.5362 -1.8490
   89MOL0     H11734   7.392   1.066   1.043 -1.2309 -0.0502 -1.8646
   89MOL0     H11735   7.620   1.035   1.125 -1.8852  1.1888  0.4891
   89MOL0     H11736   7.941   0.635   1.200  2.3615 -2.0902  1.4161
   89MOL0     H11737   8.165   0.588   1.216  0.2023  0.6794 -2.7709
   89MOL0     H11738   8.438   0.846   1.456 -3.0616 -2.1720  0.2036
   89MOL0     H11739   8.459   0.913   1.297  3.4272  0.3467  0.5122
   89MOL0     H11740   8.562   0.649   1.384  1.2465  1.9137  2.4551
   89MOL0     H11741   8.619   0.724   1.238  1.6667  3.8852 -0.6359
   89MOL0     H11742   8.766   0.736   1.423 -1.0839 -0.3857  1.3172
   89MOL0     H11743   8.652   0.841   1.509  0.3418  0.1236  0.4487
   89MOL0     H11744   8.658   1.025   1.348 -0.1449 -0.7031 -0.9745
   89MOL0     H11745   8.816   0.997   1.410 -1.2177  0.7116  1.2262
   89MOL0     H11746   8.892   0.931   1.013  0.4864 -0.9725  0.7796
   89MOL0     H11747   8.251   0.954   1.422  2.4160 -1.1004 -2.4403
   89MOL0     H11748   8.020   1.015   1.409 -0.3610  0.9865 -1.0119
   90MOL0     O11749   4.175   7.042   9.792 -0.2957  0.3516 -0.5246
   90MOL0     C11750   4.259   7.040   9.881 -0.5251  1.0051  0.6960
   90MOL0     O11751   4.245   7.087  10.006 -0.9175  0.3414  0.2922
   90MOL0     C11752   4.130   7.039  10.058  0.5311 -0.0544 -0.2189
   90MOL0     C11753   4.009   7.117  10.055 -0.3255  0.1790 -0.4904
   90MOL0     C11754   3.896   7.071  10.117 -0.0817  0.2831 -0.3638
   90MOL0     C11755   3.893   6.946  10.173 -0.4427 -0.0571 -0.0607
   90MOL0     O11756   3.771   6.886  10.210  0.1812  0.1811  0.2258
   90MOL0     C11757   3.727   6.897  10.347 -0.0216 -0.2559  0.0897
   90MOL0     C11758   3.576   6.875  10.370 -0.1085 -0.3497 -0.6951
   90MOL0     C11759   3.499   6.958  10.272 -0.6939  0.8150  0.1089
   90MOL0     C11760   3.349   6.918  10.262  0.7162 -0.0919 -0.4999
   90MOL0     C11761   3.266   7.017  10.193  0.7823 -0.5853 -1.4492
   90MOL0     C11762   3.334   7.074  10.064 -0.0892 -0.0919 -0.5902
   90MOL0     C11763   3.234   7.150   9.964  0.9171 -0.0464 -0.0031
   90MOL0     C11764   3.206   7.289  10.017 -0.3102 -0.1760  0.3268
   90MOL0     N11765   3.164   7.366   9.898 -0.1098  0.1732 -0.8617
   90MOL0     C11766   3.041   7.341   9.833 -0.3386 -0.3950  0.3254
   90MOL0     C11767   3.012   7.452   9.762 -0.0378 -0.0405 -0.2016
   90MOL0     C11768   2.879   7.474   9.693  0.6246 -0.8283  0.1680
   90MOL0     C11769   2.892   7.587   9.586 -0.3795 -0.1076  0.3246
   90MOL0     C11770   3.002   7.568   9.483  0.4021  0.0535 -0.6739
   90MOL0     C11771   3.036   7.689   9.416 -0.2927 -0.2420  0.4713
   90MOL0     O11772   3.122   7.656   9.308 -0.2699  0.1734  0.0115
   90MOL0     C11773   3.254   7.653   9.327  0.1466  0.8749 -0.2721
   90MOL0     C11774   3.323   7.630   9.215  0.2643  0.0828 -0.1295
   90MOL0     C11775   3.466   7.611   9.208  0.2622 -0.2104  0.0733
   90MOL0     C11776   3.541   7.633   9.322 -0.0854 -0.7186  0.0480
   90MOL0     C11777   3.687   7.626   9.320 -0.0477  0.3876 -0.8273
   90MOL0     O11778   3.741   7.593   9.198  0.6924  0.5240 -0.3664
   90MOL0     C11779   3.872   7.553   9.176  0.0103  0.1477 -0.1373
   90MOL0     C11780   3.985   7.628   9.226  0.8115  0.1152 -0.2609
   90MOL0     C11781   4.114   7.582   9.191 -0.8961  0.4631  0.0695
   90MOL0     C11782   4.139   7.461   9.127  1.2283  0.0521 -1.1222
   90MOL0     O11783   4.266   7.422   9.092  0.6578  0.4105  0.1873
   90MOL0     C11784   4.363   7.526   9.067 -0.7257  0.2955 -0.4091
   90MOL0     C11785   4.492   7.468   9.013  1.0674 -0.3638  0.3632
   90MOL0     C11786   4.604   7.568   8.998 -0.4477  0.7447 -0.3550
   90MOL0     C11787   4.724   7.491   8.935  0.1707  0.9197 -0.0858
   90MOL0     C11788   4.845   7.584   8.905 -0.0681  0.9737  0.3281
   90MOL0     C11789   4.959   7.475   8.885 -0.6737 -0.4742  0.1199
   90MOL0     C11790   5.099   7.526   8.831  0.5370 -0.7217 -0.1273
   90MOL0     C11791   5.162   7.625   8.932  0.8383 -0.5734  0.3256
   90MOL0    Cl11792   5.255   7.546   9.062 -0.3810  0.0679  0.1835
   90MOL0     C11793   4.028   7.386   9.080 -0.5425 -0.3912  0.3707
   90MOL0     C11794   3.902   7.440   9.097  0.3790 -0.6043 -0.4044
   90MOL0     O11795   3.756   7.640   9.423  0.3497 -0.2812 -0.4399
   90MOL0     C11796   3.463   7.650   9.445  0.2633 -0.3474 -0.3714
   90MOL0     C11797   3.322   7.658   9.444 -0.8758  0.0590 -0.4041
   90MOL0     N11798   3.116   7.544   9.790 -0.2005 -0.2888  0.7526
   90MOL0     N11799   3.204   7.491   9.868 -0.2302  0.1497  0.0592
   90MOL0     C11800   4.013   6.870  10.179  0.9656  0.0904  1.0525
   90MOL0     C11801   4.131   6.919  10.117 -0.2587 -0.0149  0.1337
   90MOL0     C11802   4.387   6.987   9.842 -0.1387  0.0084 -0.3908
   90MOL0     C11803   4.406   6.939   9.716  0.7802 -1.0363 -0.2915
   90MOL0     C11804   4.539   6.895   9.668 -0.0008 -0.4205 -0.0959
   90MOL0     C11805   4.642   6.891   9.758 -0.2039  0.2457  0.6831
   90MOL0     O11806   4.770   6.851   9.724 -0.0932 -0.5271 -0.5453
   90MOL0     C11807   4.789   6.795   9.603 -0.6104  0.7659  0.2106
   90MOL0     C11808   4.935   6.732   9.622  0.9053  0.8643  0.3976
   90MOL0     C11809   4.960   6.623   9.519  0.9974 -0.0862 -0.5429
   90MOL0     C11810   5.101   6.570   9.524  0.0952 -1.2677 -0.7520
   90MOL0     C11811   5.190   6.689   9.481 -0.0153  0.6446 -0.0948
   90MOL0     C11812   5.259   6.785   9.458 -0.6287  0.1854 -0.5323
   90MOL0     C11813   4.619   6.937   9.884 -1.2720  0.6353 -0.2095
   90MOL0     C11814   4.491   6.978   9.927  0.0515 -0.3841  0.3265
   90MOL0     H11815   3.999   7.207   9.995 -0.7551  1.8169  1.9021
   90MOL0     H11816   3.807   7.134  10.110  1.2208  2.5485  1.6179
   90MOL0     H11817   3.755   6.998  10.379  2.7251 -1.1172  0.6810
   90MOL0     H11818   3.783   6.830  10.412  0.4551  2.2050  2.3967
   90MOL0     H11819   3.547   6.878  10.475  2.3462 -0.2961  0.0514
   90MOL0     H11820   3.554   6.776  10.329 -4.2640  0.7163 -1.4381
   90MOL0     H11821   3.533   6.940  10.170 -0.1337 -0.1044  0.4481
   90MOL0     H11822   3.501   7.064  10.298 -1.6106  0.6057  1.1668
   90MOL0     H11823   3.345   6.825  10.205 -2.0425 -1.4311  1.6259
   90MOL0     H11824   3.307   6.904  10.362  0.0944  0.1220 -0.7295
   90MOL0     H11825   3.245   7.097  10.264 -0.4664  1.5982 -4.0837
   90MOL0     H11826   3.172   6.967  10.168  1.4027 -1.7814 -1.4584
   90MOL0     H11827   3.366   6.982  10.015  2.8764  0.1213  0.7609
   90MOL0     H11828   3.421   7.132  10.095 -1.0255 -0.3983  3.0743
   90MOL0     H11829   3.277   7.146   9.864  1.7380 -3.5047  0.3463
   90MOL0     H11830   3.135   7.104   9.959 -1.1338  3.7732  1.2216
   90MOL0     H11831   3.290   7.347  10.058 -2.7456  2.6548  1.6723
   90MOL0     H11832   3.126   7.291  10.091 -0.4083  1.7580  0.2252
   90MOL0     H11833   2.984   7.249   9.842 -0.1880 -0.3485  2.2875
   90MOL0     H11834   2.810   7.495   9.774  2.6101  1.6645  1.3775
   90MOL0     H11835   2.825   7.390   9.649 -0.7551 -2.0991  3.9497
   90MOL0     H11836   2.894   7.690   9.624  1.1823  1.3752 -3.3477
   90MOL0     H11837   2.797   7.580   9.531 -0.5752  1.6025  0.3911
   90MOL0     H11838   3.090   7.536   9.540  0.9666  1.4257 -0.7289
   90MOL0     H11839   2.985   7.493   9.405  1.7516 -2.1113  1.0015
   90MOL0     H11840   3.079   7.766   9.481 -1.8714  2.3777 -1.3842
   90MOL0     H11841   2.945   7.738   9.379  0.5077  1.8565  1.1118
   90MOL0     H11842   3.262   7.621   9.125  0.8361  1.6167 -0.7046
   90MOL0     H11843   3.519   7.581   9.118  1.2743 -1.2681  0.9782
   90MOL0     H11844   3.993   7.715   9.290  3.7896  0.1688 -0.5468
   90MOL0     H11845   4.197   7.636   9.237  0.6492 -0.6421 -1.3172
   90MOL0     H11846   4.396   7.575   9.159  1.3771 -2.4838  0.4635
   90MOL0     H11847   4.320   7.590   8.990 -1.4773  1.1026  0.6565
   90MOL0     H11848   4.465   7.417   8.920 -1.0579 -3.5775  2.5142
   90MOL0     H11849   4.518   7.394   9.089 -2.1624 -0.1971  1.8270
   90MOL0     H11850   4.636   7.626   9.085 -0.2226 -0.6927  0.5396
   90MOL0     H11851   4.575   7.636   8.917 -2.5803  0.3843  0.0709
   90MOL0     H11852   4.748   7.413   9.007 -0.3617 -0.2324 -1.1259
   90MOL0     H11853   4.693   7.446   8.840  1.6633 -1.2086  0.3531
   90MOL0     H11854   4.866   7.657   8.984 -0.9520  2.1355 -0.4728
   90MOL0     H11855   4.823   7.635   8.810  1.6937  3.2784  1.0547
   90MOL0     H11856   4.922   7.406   8.808 -1.0780  2.2033 -2.2194
   90MOL0     H11857   4.973   7.419   8.978  0.3397 -1.0793 -0.3750
   90MOL0     H11858   5.172   7.445   8.831  2.0924  0.6227  0.0444
   90MOL0     H11859   5.083   7.562   8.729 -0.4890 -0.6350  0.0585
   90MOL0     H11860   5.093   7.696   8.979 -0.2769 -1.9631  0.8643
   90MOL0     H11861   5.233   7.681   8.871  1.1796 -0.1677  1.0755
   90MOL0     H11862   4.036   7.286   9.039 -4.5408 -0.5206 -0.4990
   90MOL0     H11863   3.822   7.385   9.049 -1.2816  0.3004  1.1917
   90MOL0     H11864   3.522   7.677   9.532  0.0724  1.2381 -0.7050
   90MOL0     H11865   3.269   7.688   9.533  0.4238 -1.7531  1.0654
   90MOL0     H11866   4.004   6.771  10.222  0.9407 -0.5898 -0.4397
   90MOL0     H11867   4.219   6.855  10.112  0.4183  0.7662  1.4208
   90MOL0     H11868   4.329   6.941   9.639 -0.3075  1.4135  0.7632
   90MOL0     H11869   4.556   6.862   9.566  1.6961 -2.2537  0.7278
   90MOL0     H11870   4.803   6.876   9.531  2.7826 -1.3315 -1.7298
   90MOL0     H11871   4.717   6.717   9.576  2.5627 -2.5392  0.5504
   90MOL0     H11872   4.997   6.821   9.616  0.9099  0.7508 -1.9529
   90MOL0     H11873   4.952   6.680   9.718 -0.8269 -1.3611 -0.4059
   90MOL0     H11874   4.942   6.663   9.419 -1.1600  0.1615 -0.0997
   90MOL0     H11875   4.898   6.536   9.544  1.5589 -0.7449 -1.3837
   90MOL0     H11876   5.119   6.536   9.627  0.0782 -1.0713 -0.6832
   90MOL0     H11877   5.122   6.485   9.458 -1.6182 -0.6588 -2.1429
   90MOL0     H11878   5.313   6.878   9.457 -0.7602  0.4469  3.4331
   90MOL0     H11879   4.696   6.934   9.961 -2.4333 -2.0588  0.9748
   90MOL0     H11880   4.482   7.005  10.032 -1.9219 -0.8511  0.3116
   91MOL0     O11881  10.517   5.850   3.863 -0.0851  0.0868  0.2977
   91MOL0     C11882  10.589   5.891   3.956 -0.4211 -0.6568 -0.3090
   91MOL0     O11883  10.621   5.822   4.070  0.0313  0.2352 -0.7528
   91MOL0     C11884  10.582   5.689   4.079  0.3612  0.6556 -0.3962
   91MOL0     C11885  10.473   5.625   4.021  0.3433 -0.2757  0.6641
   91MOL0     C11886  10.430   5.496   4.055  0.2858 -0.2041 -0.6275
   91MOL0     C11887  10.495   5.428   4.163 -0.1263  0.5721 -0.4596
   91MOL0     O11888  10.473   5.314   4.234 -0.5120  1.0787  0.3458
   91MOL0     C11889  10.379   5.226   4.184 -0.7594  0.3165  0.5186
   91MOL0     C11890  10.356   5.105   4.280 -0.1916 -0.2562  0.3606
   91MOL0     C11891  10.309   4.975   4.197  0.0078  0.2234 -0.2537
   91MOL0     C11892  10.253   4.864   4.284  0.5703 -0.2434 -0.1698
   91MOL0     C11893  10.241   4.741   4.190  0.7602 -0.1196 -0.4533
   91MOL0     C11894  10.162   4.625   4.271 -0.8394  0.6074  0.7921
   91MOL0     C11895  10.163   4.486   4.201 -0.7240  0.0347 -0.1895
   91MOL0     C11896  10.305   4.437   4.175  0.6826  0.2062  0.5989
   91MOL0     N11897  10.376   4.436   4.307  0.2454  0.0337 -0.1467
   91MOL0     C11898  10.341   4.366   4.422 -0.6621 -1.1159 -0.2095
   91MOL0     C11899  10.428   4.404   4.521 -0.5164  0.6879 -0.1292
   91MOL0     C11900  10.444   4.353   4.664 -0.3157  0.4113  0.6636
   91MOL0     C11901  10.539   4.443   4.751 -0.1944 -0.2984  0.8485
   91MOL0     C11902  10.553   4.405   4.899  0.1346  0.8898 -0.5247
   91MOL0     C11903  10.601   4.264   4.947  0.2025 -0.1029  0.2634
   91MOL0     O11904  10.577   4.233   5.088  0.3992 -0.4248 -0.1114
   91MOL0     C11905  10.648   4.292   5.189  0.6333 -0.3907  1.0050
   91MOL0     C11906  10.585   4.295   5.311  0.0740  0.1381  0.7191
   91MOL0     C11907  10.657   4.341   5.415 -0.0631 -0.5800  0.1712
   91MOL0     C11908  10.794   4.398   5.403 -0.2682 -0.2015 -0.0218
   91MOL0     C11909  10.872   4.438   5.519  0.4366 -0.1994 -0.8492
   91MOL0     O11910  11.005   4.457   5.500 -0.7852 -0.5003  0.1530
   91MOL0     C11911  11.084   4.515   5.598 -0.7000 -0.3680  0.2385
   91MOL0     C11912  11.055   4.572   5.721 -0.2228  0.0563  0.3766
   91MOL0     C11913  11.145   4.624   5.806  0.5466  0.1647  0.0664
   91MOL0     C11914  11.280   4.625   5.767 -0.5799 -1.2883 -0.2817
   91MOL0     O11915  11.365   4.683   5.854  0.0430  0.5927 -0.3146
   91MOL0     C11916  11.441   4.799   5.797 -0.4450  0.4190 -0.7113
   91MOL0     C11917  11.582   4.821   5.858 -0.8749 -0.2867 -0.3891
   91MOL0     C11918  11.578   4.831   6.013  0.0029  0.0518  0.2052
   91MOL0     C11919  11.723   4.809   6.063  0.7985 -0.6018 -0.3967
   91MOL0     C11920  11.748   4.838   6.211 -0.6608  0.1620  0.7434
   91MOL0     C11921  11.881   4.781   6.262  0.2600  0.3017 -0.4137
   91MOL0     C11922  12.001   4.872   6.208 -0.3704  0.3091 -0.8370
   91MOL0     C11923  12.125   4.846   6.303  0.2506 -0.2426  0.3565
   91MOL0    Cl11924  12.206   5.007   6.344 -0.6325 -0.0599  0.7655
   91MOL0     C11925  11.310   4.572   5.647 -0.4340 -0.3723  1.0246
   91MOL0     C11926  11.220   4.520   5.560 -0.0032  0.2483  0.5172
   91MOL0     O11927  10.817   4.441   5.631 -0.1309 -0.0541  0.4439
   91MOL0     C11928  10.860   4.388   5.282  0.0845 -0.0518 -0.2947
   91MOL0     C11929  10.783   4.335   5.178 -0.6625 -0.1355  0.3302
   91MOL0     N11930  10.527   4.482   4.466  0.5007 -0.2392  0.7689
   91MOL0     N11931  10.488   4.507   4.340  0.0677 -0.3451 -0.4677
   91MOL0     C11932  10.609   5.485   4.212  0.1879  0.3750  0.4947
   91MOL0     C11933  10.646   5.619   4.177 -0.3546  0.7404 -0.5846
   91MOL0     C11934  10.647   6.029   3.947  0.6576  0.1538  0.0254
   91MOL0     C11935  10.709   6.075   4.059 -0.0164  0.2945  0.4202
   91MOL0     C11936  10.761   6.205   4.056 -0.0601  0.0771 -0.0981
   91MOL0     C11937  10.754   6.285   3.946  0.5079 -0.1511  0.4049
   91MOL0     O11938  10.806   6.417   3.947 -0.3916 -0.9071 -0.0198
   91MOL0     C11939  10.955   6.435   3.927 -0.0477  0.3902  0.0440
   91MOL0     C11940  11.048   6.428   4.045 -0.3717 -0.1120 -0.7407
   91MOL0     C11941  10.994   6.522   4.152 -0.1975 -0.1956  0.1933
   91MOL0     C11942  11.077   6.528   4.278 -0.8667  0.6071  0.2642
   91MOL0     C11943  11.031   6.628   4.374  0.2278  0.1451 -0.3201
   91MOL0     C11944  10.989   6.716   4.451 -0.2946 -0.6582 -0.4613
   91MOL0     C11945  10.694   6.235   3.831  0.3402  0.3914  0.2361
   91MOL0     C11946  10.639   6.109   3.831  0.5931 -0.8395  0.3810
   91MOL0     H11947  10.401   5.669   3.953  0.3324 -2.0391 -0.5421
   91MOL0     H11948  10.338   5.454   4.014  2.3376 -3.4597 -2.3407
   91MOL0     H11949  10.405   5.185   4.086 -2.0430 -2.2050  1.1489
   91MOL0     H11950  10.289   5.286   4.168  1.0507  3.0254 -0.1971
   91MOL0     H11951  10.283   5.129   4.359 -1.5637 -3.4722  0.2240
   91MOL0     H11952  10.450   5.087   4.332 -0.7666 -0.1774  1.4484
   91MOL0     H11953  10.390   4.942   4.131  0.0283  1.2676 -0.7631
   91MOL0     H11954  10.237   5.005   4.120 -1.1647  0.0264  0.7283
   91MOL0     H11955  10.313   4.839   4.371 -0.1383  0.0646  0.4183
   91MOL0     H11956  10.149   4.889   4.306 -0.7540 -1.5077 -4.1133
   91MOL0     H11957  10.341   4.707   4.160  0.1718 -0.4749 -2.0872
   91MOL0     H11958  10.190   4.763   4.096 -1.1221 -0.1592  0.5142
   91MOL0     H11959  10.057   4.653   4.284 -1.9624 -1.1737 -2.9463
   91MOL0     H11960  10.211   4.627   4.368 -0.1180 -1.0182  0.4973
   91MOL0     H11961  10.113   4.411   4.263  0.7502 -1.7612 -1.0645
   91MOL0     H11962  10.104   4.489   4.109 -0.3458  0.4744 -0.4233
   91MOL0     H11963  10.353   4.505   4.104  0.5196  0.4918  0.7622
   91MOL0     H11964  10.302   4.334   4.139 -1.2403  0.8327 -1.1963
   91MOL0     H11965  10.256   4.299   4.432 -0.9396 -0.9036 -1.0840
   91MOL0     H11966  10.477   4.249   4.660 -1.6713 -0.2362  3.7790
   91MOL0     H11967  10.342   4.353   4.703 -0.4105  1.2805  0.4521
   91MOL0     H11968  10.497   4.544   4.746 -3.4703 -1.3585  3.2188
   91MOL0     H11969  10.638   4.423   4.710  0.0699 -0.9305  1.7751
   91MOL0     H11970  10.619   4.480   4.943  1.7243 -1.7144  1.8661
   91MOL0     H11971  10.452   4.415   4.941  1.0197  1.5792  1.5519
   91MOL0     H11972  10.709   4.257   4.932 -0.0370  0.6471 -2.1629
   91MOL0     H11973  10.565   4.182   4.884 -1.3000  1.3857 -0.8836
   91MOL0     H11974  10.480   4.267   5.306 -0.2558  1.3537  0.5628
   91MOL0     H11975  10.619   4.353   5.516  1.9122 -0.2587  0.9382
   91MOL0     H11976  10.953   4.591   5.750 -0.0526 -0.7088  1.5444
   91MOL0     H11977  11.110   4.671   5.898 -1.2796  1.3405 -1.1593
   91MOL0     H11978  11.380   4.888   5.816 -1.2354 -0.4745  1.2027
   91MOL0     H11979  11.447   4.786   5.689 -1.8844 -0.0170 -0.7555
   91MOL0     H11980  11.624   4.914   5.818  1.0575 -1.8489 -2.2552
   91MOL0     H11981  11.639   4.735   5.822 -3.4123 -1.1210 -2.7617
   91MOL0     H11982  11.513   4.750   6.046  1.8487 -1.5543  0.1303
   91MOL0     H11983  11.540   4.925   6.052 -0.1363  1.1118 -2.3224
   91MOL0     H11984  11.753   4.708   6.035  1.8493 -0.5738  0.5483
   91MOL0     H11985  11.792   4.877   6.012  0.8177 -0.7409 -0.5569
   91MOL0     H11986  11.673   4.797   6.279  0.8210  0.1064  2.4217
   91MOL0     H11987  11.754   4.947   6.218  1.2049  0.3182 -1.8183
   91MOL0     H11988  11.898   4.676   6.237 -0.6749  0.0222  0.1069
   91MOL0     H11989  11.881   4.786   6.371 -0.4389  1.5821 -0.4560
   91MOL0     H11990  12.016   4.851   6.102 -2.9266  1.3209 -1.4627
   91MOL0     H11991  11.969   4.976   6.222  0.2899  0.1484  3.1639
   91MOL0     H11992  12.213   4.805   6.252  2.2123  4.9176 -1.1088
   91MOL0     H11993  12.095   4.791   6.392 -0.9292 -2.7935 -1.4725
   91MOL0     H11994  11.410   4.575   5.605 -2.5939  3.7314 -5.1959
   91MOL0     H11995  11.265   4.469   5.476  1.3683 -0.6474  1.7429
   91MOL0     H11996  10.961   4.422   5.258  1.4558 -3.9352 -0.7742
   91MOL0     H11997  10.848   4.331   5.091 -0.0808 -0.5842  0.7802
   91MOL0     H11998  10.652   5.451   4.305 -0.9330 -0.9892  0.5532
   91MOL0     H11999  10.726   5.663   4.235 -0.7704  0.6144  0.0836
   91MOL0     H12000  10.734   6.018   4.148 -1.3629 -0.6737  0.2037
   91MOL0     H12001  10.797   6.258   4.143  0.1854  3.6989 -2.1777
   91MOL0     H12002  10.972   6.529   3.872  0.2678  2.0801  2.8441
   91MOL0     H12003  10.986   6.354   3.859 -1.1439  0.2618 -0.3153
   91MOL0     H12004  11.052   6.325   4.081  1.4602 -0.1900 -1.0938
   91MOL0     H12005  11.147   6.465   4.019 -1.5643  5.8801  1.5915
   91MOL0     H12006  10.893   6.501   4.186  0.3117 -1.6854  0.8571
   91MOL0     H12007  10.976   6.624   4.117 -1.0903  1.0445  3.8383
   91MOL0     H12008  11.050   6.435   4.328  1.6503  0.7748  2.1378
   91MOL0     H12009  11.179   6.528   4.238 -0.5684 -3.3591  0.6338
   91MOL0     H12010  10.936   6.805   4.481 -0.2937 -1.1308  1.0197
   91MOL0     H12011  10.686   6.297   3.742  4.1898  2.0153  0.8002
   91MOL0     H12012  10.602   6.062   3.741  0.6864  1.0406 -0.6880
   92MOL0     O12013   0.495   7.897   4.580  0.2272  0.5325  1.0535
   92MOL0     C12014   0.593   7.843   4.631 -0.6007 -0.5321  0.4304
   92MOL0     O12015   0.589   7.739   4.719  0.2268 -0.3008 -0.0620
   92MOL0     C12016   0.487   7.651   4.720 -0.2407  0.4966  0.4564
   92MOL0     C12017   0.492   7.526   4.649  0.0718 -0.4055 -1.0474
   92MOL0     C12018   0.377   7.451   4.637  0.0077 -0.6268  0.4063
   92MOL0     C12019   0.254   7.497   4.692 -0.2526 -0.9888  0.3526
   92MOL0     O12020   0.150   7.408   4.672 -0.6634  0.1785 -0.5053
   92MOL0     C12021   0.020   7.428   4.727 -0.7653 -0.5235  0.5074
   92MOL0     C12022   0.017   7.378   4.874 -0.1544 -0.8033 -0.0977
   92MOL0     C12023   0.028   7.226   4.888  0.3519 -1.0204  0.0952
   92MOL0     C12024  -0.008   7.184   5.027  0.0722 -0.4021 -0.5636
   92MOL0     C12025  -0.133   7.100   5.024  0.2039 -0.3349  0.6071
   92MOL0     C12026  -0.159   7.037   5.163 -0.6301  0.0375 -0.2298
   92MOL0     C12027  -0.303   7.022   5.179  0.2337 -0.7654  0.2749
   92MOL0     C12028  -0.342   6.967   5.321  0.3406 -0.1197 -0.5957
   92MOL0     N12029  -0.486   6.924   5.317 -0.5077 -0.6762  0.2049
   92MOL0     C12030  -0.528   6.809   5.259 -0.4534 -0.8097 -0.4854
   92MOL0     C12031  -0.660   6.831   5.244 -0.4114  0.0772  0.9102
   92MOL0     C12032  -0.753   6.730   5.177 -0.1991 -0.6229  1.2054
   92MOL0     C12033  -0.830   6.637   5.274  0.6266 -1.0403 -0.6050
   92MOL0     C12034  -0.956   6.701   5.335  0.3923  0.3209 -0.2625
   92MOL0     C12035  -0.964   6.670   5.487 -0.3361  0.2966 -0.5200
   92MOL0     O12036  -0.978   6.531   5.510  0.3078  0.4362 -0.5586
   92MOL0     C12037  -1.097   6.498   5.566  0.4614  0.3808 -0.3152
   92MOL0     C12038  -1.191   6.425   5.493  0.7835  0.4157 -0.9187
   92MOL0     C12039  -1.315   6.384   5.546  0.6383  0.2456 -0.3578
   92MOL0     C12040  -1.346   6.403   5.680  0.4741  0.2107 -0.3981
   92MOL0     C12041  -1.470   6.361   5.745  0.6404 -0.1788  0.3436
   92MOL0     O12042  -1.548   6.278   5.670  0.3845  0.1566  0.1958
   92MOL0     C12043  -1.669   6.224   5.699  1.0012 -0.7441 -1.7485
   92MOL0     C12044  -1.709   6.120   5.627  0.4238  1.2645 -0.3227
   92MOL0     C12045  -1.823   6.048   5.649 -0.3646 -0.2243  0.2093
   92MOL0     C12046  -1.917   6.096   5.746  0.1992 -0.1270 -0.0867
   92MOL0     O12047  -2.046   6.052   5.759 -0.2097  0.0927 -0.3242
   92MOL0     C12048  -2.068   5.911   5.738 -0.4551  0.1002 -0.0695
   92MOL0     C12049  -2.217   5.883   5.762 -0.8409 -0.1701 -0.9690
   92MOL0     C12050  -2.319   5.962   5.681 -0.1568 -0.2784 -0.4151
   92MOL0     C12051  -2.441   5.900   5.702  0.1092  0.1459  0.2600
   92MOL0     C12052  -2.550   5.996   5.650 -1.1572 -0.4188 -0.0893
   92MOL0     C12053  -2.685   5.937   5.635  0.5031  0.0197  0.3870
   92MOL0     C12054  -2.795   6.038   5.600  1.3754 -0.4880  0.7927
   92MOL0     C12055  -2.899   5.981   5.506 -0.2707  0.5558  0.5460
   92MOL0    Cl12056  -2.979   5.817   5.559  0.5143 -0.4342 -0.2121
   92MOL0     C12057  -1.884   6.211   5.816 -0.6561  1.1801  0.4515
   92MOL0     C12058  -1.759   6.272   5.801 -0.2488  0.2856  0.4977
   92MOL0     O12059  -1.500   6.405   5.857 -0.6647  0.9530  0.4455
   92MOL0     C12060  -1.244   6.468   5.759  0.6253 -0.2205  0.1725
   92MOL0     C12061  -1.129   6.521   5.700  0.4964  0.2410  0.1249
   92MOL0     N12062  -0.694   6.956   5.284 -0.6595 -0.9314  0.3977
   92MOL0     N12063  -0.592   7.014   5.339 -0.5229 -0.2569  0.7009
   92MOL0     C12064   0.251   7.614   4.779  0.0561  0.1538  0.0167
   92MOL0     C12065   0.369   7.685   4.780 -0.2040 -0.2154 -1.1406
   92MOL0     C12066   0.727   7.889   4.588 -0.8188 -0.0623  0.6243
   92MOL0     C12067   0.744   7.962   4.477  0.3246  0.5816 -0.0234
   92MOL0     C12068   0.862   8.011   4.430  0.2642  0.2108  0.2187
   92MOL0     C12069   0.978   7.989   4.496  0.3042 -0.2248 -0.2928
   92MOL0     O12070   1.105   8.023   4.448  0.4942  0.0169 -1.2633
   92MOL0     C12071   1.116   8.156   4.398  0.4879 -0.0572  0.3969
   92MOL0     C12072   1.259   8.193   4.408 -0.3453  0.3565 -0.1403
   92MOL0     C12073   1.322   8.189   4.547  0.5006 -0.0271 -0.2970
   92MOL0     C12074   1.278   8.309   4.629 -0.3655  0.4613 -0.0910
   92MOL0     C12075   1.322   8.437   4.582  0.0732 -0.2098 -0.3729
   92MOL0     C12076   1.359   8.544   4.539 -0.2338 -0.1978  0.0793
   92MOL0     C12077   0.961   7.908   4.616  0.4318 -0.2146  0.5047
   92MOL0     C12078   0.839   7.854   4.659  0.1432  0.1448 -0.3798
   92MOL0     H12079   0.585   7.522   4.593  0.5560  0.1352 -0.3028
   92MOL0     H12080   0.376   7.359   4.581  3.2904 -0.9554  0.6807
   92MOL0     H12081  -0.053   7.373   4.667 -0.0857 -1.1288  0.2129
   92MOL0     H12082  -0.011   7.532   4.712  1.7069 -0.1386 -3.2857
   92MOL0     H12083  -0.082   7.402   4.913 -1.1320 -1.0237 -2.3236
   92MOL0     H12084   0.099   7.415   4.937  1.0074  1.6652 -2.8464
   92MOL0     H12085   0.131   7.201   4.861  1.6346  1.0974  2.5868
   92MOL0     H12086  -0.044   7.192   4.813  2.3389 -1.0423 -1.8933
   92MOL0     H12087   0.079   7.131   5.066  1.6227  1.3667 -1.4356
   92MOL0     H12088  -0.032   7.272   5.087 -3.2728 -1.4028 -0.2303
   92MOL0     H12089  -0.105   7.015   4.961  2.3699 -0.2720  1.3887
   92MOL0     H12090  -0.214   7.161   4.982 -1.6484 -1.3568  2.4906
   92MOL0     H12091  -0.124   7.106   5.241 -0.1113 -0.6100  0.1277
   92MOL0     H12092  -0.109   6.944   5.191  1.9693  0.7888 -2.0751
   92MOL0     H12093  -0.358   7.116   5.168 -0.1211 -1.2368 -3.1451
   92MOL0     H12094  -0.349   6.957   5.104 -4.2768  1.6761  0.5318
   92MOL0     H12095  -0.317   7.031   5.407 -1.9019 -0.7627  0.6121
   92MOL0     H12096  -0.285   6.874   5.334  0.3953 -0.5987 -3.6270
   92MOL0     H12097  -0.461   6.726   5.240  0.8060  0.0339  0.1432
   92MOL0     H12098  -0.683   6.666   5.123  0.3669  2.0236 -1.4342
   92MOL0     H12099  -0.816   6.784   5.106  1.8967 -0.4849 -0.6413
   92MOL0     H12100  -0.757   6.601   5.346  0.4082 -0.5781 -0.1470
   92MOL0     H12101  -0.874   6.551   5.223  0.7241 -2.5184  1.6710
   92MOL0     H12102  -0.950   6.809   5.316  1.0726  0.7335  1.9960
   92MOL0     H12103  -1.044   6.652   5.293 -0.5613  0.3626  1.5937
   92MOL0     H12104  -1.050   6.725   5.527 -1.2414 -0.6888 -1.0591
   92MOL0     H12105  -0.878   6.704   5.544 -1.0052 -0.2408  0.8599
   92MOL0     H12106  -1.184   6.398   5.388 -2.6737 -0.2761 -1.1108
   92MOL0     H12107  -1.386   6.324   5.490  1.1987 -0.6286 -0.1432
   92MOL0     H12108  -1.629   6.070   5.573  2.0655  1.4255  1.7771
   92MOL0     H12109  -1.840   5.959   5.590  1.0780  1.2968 -2.7411
   92MOL0     H12110  -1.999   5.852   5.798 -0.2403 -0.3357 -0.7408
   92MOL0     H12111  -2.045   5.886   5.634  1.2812 -0.7585  0.4837
   92MOL0     H12112  -2.243   5.893   5.868  0.1195 -2.6755 -0.4462
   92MOL0     H12113  -2.224   5.777   5.740  1.8405 -0.6924  0.2592
   92MOL0     H12114  -2.289   5.971   5.576 -0.1476  1.4344 -0.3026
   92MOL0     H12115  -2.326   6.065   5.718  2.1792 -0.6457  1.3120
   92MOL0     H12116  -2.448   5.807   5.644  1.3506  0.0890  0.1808
   92MOL0     H12117  -2.464   5.864   5.803  0.3125 -1.6157 -0.2823
   92MOL0     H12118  -2.518   6.048   5.559  0.1721  0.6457  0.9392
   92MOL0     H12119  -2.550   6.076   5.725  2.7032  0.2047 -0.5552
   92MOL0     H12120  -2.717   5.897   5.732 -1.3666 -1.4910 -0.7842
   92MOL0     H12121  -2.674   5.860   5.558  1.2380  2.0276 -1.6138
   92MOL0     H12122  -2.848   6.083   5.684 -0.4216  0.3528 -0.7344
   92MOL0     H12123  -2.747   6.126   5.556  0.8061 -1.0707 -1.0775
   92MOL0     H12124  -2.844   5.966   5.413 -1.8731 -2.4738 -0.0462
   92MOL0     H12125  -2.974   6.058   5.485  0.0901  0.1601 -2.6292
   92MOL0     H12126  -1.946   6.245   5.898  0.5444  3.7561  0.3950
   92MOL0     H12127  -1.737   6.362   5.858  0.0011 -0.4435  1.5660
   92MOL0     H12128  -1.256   6.470   5.867  0.1227  1.8689  0.1165
   92MOL0     H12129  -1.066   6.579   5.766 -1.3305  2.1045  0.3049
   92MOL0     H12130   0.170   7.649   4.842 -0.7123 -1.6879  0.1137
   92MOL0     H12131   0.372   7.778   4.837  2.3624  0.1543 -1.7276
   92MOL0     H12132   0.663   8.003   4.417  1.1283  2.7808  0.3061
   92MOL0     H12133   0.862   8.061   4.334 -3.0782  2.4358  1.2094
   92MOL0     H12134   1.055   8.223   4.459  2.5292  2.2151  0.1010
   92MOL0     H12135   1.085   8.159   4.294 -1.1104  0.4510  0.8590
   92MOL0     H12136   1.323   8.122   4.356  0.3373  1.5715 -1.0221
   92MOL0     H12137   1.270   8.285   4.350 -2.8316  0.4747 -0.5636
   92MOL0     H12138   1.431   8.182   4.537  0.3695 -1.8918 -0.6707
   92MOL0     H12139   1.293   8.097   4.597  2.3133 -0.4327  0.1018
   92MOL0     H12140   1.173   8.324   4.658 -0.3785 -0.5159  0.4196
   92MOL0     H12141   1.330   8.300   4.724  0.2978 -2.8019 -0.6420
   92MOL0     H12142   1.398   8.643   4.522 -2.1927  0.1644 -2.9981
   92MOL0     H12143   1.051   7.880   4.671  0.9291  0.2680 -0.0419
   92MOL0     H12144   0.830   7.800   4.753 -2.6726  1.8633  0.4456
   93MOL0     O12145   2.850   6.759  10.499  0.0318 -0.0877  0.0549
   93MOL0     C12146   2.869   6.667  10.428 -0.7467 -0.0218  0.0401
   93MOL0     O12147   2.802   6.632  10.317  0.6161  0.4600  0.1291
   93MOL0     C12148   2.681   6.690  10.303 -1.0668 -0.3490  0.5308
   93MOL0     C12149   2.565   6.675  10.383 -0.7133 -0.2484  0.0470
   93MOL0     C12150   2.449   6.747  10.360  0.3027  0.5972  0.9402
   93MOL0     C12151   2.439   6.830  10.243  0.8162 -0.2624  0.8061
   93MOL0     O12152   2.320   6.891  10.236 -0.1028 -0.8399 -0.2156
   93MOL0     C12153   2.281   6.960  10.116  0.6763 -0.5852 -0.2091
   93MOL0     C12154   2.179   6.880  10.040 -0.1081  0.0767 -0.2701
   93MOL0     C12155   2.048   6.847  10.128  0.1387  0.3000 -0.1301
   93MOL0     C12156   1.947   6.772  10.041 -0.3464 -0.9011  0.9877
   93MOL0     C12157   1.819   6.740  10.120 -0.2632 -0.4102  0.3872
   93MOL0     C12158   1.690   6.733  10.035 -0.4394  0.1055 -0.6651
   93MOL0     C12159   1.564   6.742  10.131 -0.5899  0.2568  0.3993
   93MOL0     C12160   1.552   6.891  10.172 -0.7478  0.4129  0.3244
   93MOL0     N12161   1.449   6.911  10.262  0.0930  0.4491 -0.1628
   93MOL0     C12162   1.321   6.945  10.218  0.0288  0.4757 -0.1730
   93MOL0     C12163   1.248   6.937  10.332 -0.1231 -0.0116  0.2933
   93MOL0     C12164   1.100   6.921  10.324  0.0621  0.1301  0.3599
   93MOL0     C12165   1.023   7.045  10.375  0.4595  0.5446  0.0162
   93MOL0     C12166   0.870   7.062  10.334  0.1977 -0.8234  0.5194
   93MOL0     C12167   0.798   6.943  10.372  0.0978  0.8305 -0.0912
   93MOL0     O12168   0.674   6.962  10.326 -0.8577 -0.5398 -0.3557
   93MOL0     C12169   0.572   6.971  10.420  0.6057  0.5071 -0.6907
   93MOL0     C12170   0.543   6.888  10.517  0.2726  0.0980  0.0109
   93MOL0     C12171   0.430   6.897  10.596  0.4388 -0.3506  0.2809
   93MOL0     C12172   0.341   7.003  10.573 -0.5744 -0.6686 -0.5860
   93MOL0     C12173   0.232   7.023  10.672 -0.8024 -0.4211  0.3873
   93MOL0     O12174   0.153   7.130  10.642 -0.0812  0.4869 -0.2310
   93MOL0     C12175   0.053   7.158  10.735 -0.6288 -0.1657  0.1973
   93MOL0     C12176   0.052   7.293  10.780  0.2468  0.1074 -0.0286
   93MOL0     C12177  -0.061   7.342  10.849  0.2569 -0.2322  0.0280
   93MOL0     C12178  -0.164   7.257  10.891 -0.7720  0.2094  0.0786
   93MOL0     O12179  -0.268   7.324  10.949  0.0978  0.0639  0.4834
   93MOL0     C12180  -0.382   7.235  10.976  0.2423 -0.1450 -0.3826
   93MOL0     C12181  -0.502   7.291  11.054 -0.2666  0.2261  0.1649
   93MOL0     C12182  -0.577   7.393  10.975 -0.5718  0.6620 -0.1912
   93MOL0     C12183  -0.503   7.521  10.940  1.2328 -0.2558  0.3361
   93MOL0     C12184  -0.597   7.613  10.857  0.4005  0.5080 -0.5098
   93MOL0     C12185  -0.573   7.759  10.845  0.4047 -0.3370 -0.0352
   93MOL0     C12186  -0.681   7.835  10.754  0.1873 -0.4805 -0.4725
   93MOL0     C12187  -0.663   7.987  10.724 -0.2852  0.5335 -0.6198
   93MOL0    Cl12188  -0.817   8.060  10.692 -0.0649 -0.3411  0.0943
   93MOL0     C12189  -0.150   7.122  10.853  0.6840  0.5706 -0.7855
   93MOL0     C12190  -0.045   7.072  10.773 -0.0830 -1.0649  0.3273
   93MOL0     O12191   0.225   6.945  10.764  0.0279  0.4517 -0.9015
   93MOL0     C12192   0.368   7.094  10.475 -0.3231  0.0049  0.0058
   93MOL0     C12193   0.478   7.070  10.397  0.0762  0.4956  0.5389
   93MOL0     N12194   1.329   6.927  10.442  0.1677  0.0949 -0.3463
   93MOL0     N12195   1.448   6.922  10.397 -0.1880  0.3613 -0.7703
   93MOL0     C12196   2.548   6.830  10.156  0.1425 -0.3284  1.1051
   93MOL0     C12197   2.673   6.769  10.194  0.1405  0.3227  0.1115
   93MOL0     C12198   3.012   6.609  10.432 -0.7966  0.5407 -0.0632
   93MOL0     C12199   3.047   6.501  10.346  0.1418 -0.4095  0.1044
   93MOL0     C12200   3.183   6.450  10.336  0.6950 -0.6777  0.0553
   93MOL0     C12201   3.272   6.502  10.424 -0.2296  0.2854  0.2262
   93MOL0     O12202   3.405   6.469  10.434 -0.0453 -0.0029  0.4086
   93MOL0     C12203   3.469   6.374  10.352 -0.3003 -0.2626  0.4736
   93MOL0     C12204   3.615   6.396  10.372 -0.4209  0.3478 -0.0134
   93MOL0     C12205   3.690   6.276  10.302  0.0040  0.8091  0.1873
   93MOL0     C12206   3.697   6.296  10.152  0.9312  0.2558  0.7090
   93MOL0     C12207   3.750   6.426  10.110 -0.1096  0.0274 -0.0405
   93MOL0     C12208   3.789   6.537  10.079 -0.4422  0.2068  0.4305
   93MOL0     C12209   3.238   6.596  10.516  0.2484  0.7081  0.7753
   93MOL0     C12210   3.112   6.651  10.521 -0.3025 -0.2661  0.1234
   93MOL0     H12211   2.571   6.595  10.456 -2.3142 -1.3824 -0.9886
   93MOL0     H12212   2.365   6.729  10.426  0.2489 -2.5733  0.1634
   93MOL0     H12213   2.357   6.993  10.045 -0.5780  1.4040 -0.7026
   93MOL0     H12214   2.225   7.048  10.151 -0.0373 -1.2806  0.4460
   93MOL0     H12215   2.212   6.776  10.025  1.5558  0.0325  2.8591
   93MOL0     H12216   2.164   6.928   9.943  2.1930  2.3569  0.4004
   93MOL0     H12217   2.002   6.941  10.160  1.0827  0.6456  0.2424
   93MOL0     H12218   2.070   6.780  10.212  2.0018 -0.6285 -1.3023
   93MOL0     H12219   1.926   6.846   9.963  1.0504  0.3603  1.7565
   93MOL0     H12220   1.984   6.678  10.000  0.6920 -0.2844  0.4769
   93MOL0     H12221   1.810   6.819  10.196 -4.6171  0.3299 -0.6218
   93MOL0     H12222   1.821   6.649  10.180  0.0765  0.3341  1.5453
   93MOL0     H12223   1.680   6.643   9.975 -1.9513  1.4091 -2.4940
   93MOL0     H12224   1.687   6.815   9.963 -0.7290  1.8260  1.2151
   93MOL0     H12225   1.479   6.704  10.075  0.8279 -3.5241  0.4896
   93MOL0     H12226   1.580   6.682  10.221  3.3221  0.1550 -0.1635
   93MOL0     H12227   1.556   6.962  10.088 -0.4308  2.8377  2.2668
   93MOL0     H12228   1.643   6.926  10.223 -0.5276 -0.7972  0.7781
   93MOL0     H12229   1.278   6.965  10.121 -0.6455 -0.3888 -0.0648
   93MOL0     H12230   1.083   6.826  10.375 -1.0766 -2.0312 -3.6722
   93MOL0     H12231   1.074   6.905  10.220 -0.1338  1.7527  0.1222
   93MOL0     H12232   1.082   7.130  10.341  0.5787  0.4867  0.0789
   93MOL0     H12233   1.037   7.048  10.483  2.7843  1.2841 -0.2436
   93MOL0     H12234   0.829   7.142  10.397  0.1298 -0.6325  0.2306
   93MOL0     H12235   0.860   7.079  10.227 -1.4494 -0.3727  0.7114
   93MOL0     H12236   0.806   6.938  10.481 -0.8151  0.2667 -0.0369
   93MOL0     H12237   0.830   6.846  10.335 -0.5023  0.3726  0.5598
   93MOL0     H12238   0.606   6.800  10.522 -1.0880 -1.1249 -2.4557
   93MOL0     H12239   0.412   6.833  10.682 -2.5426  0.9796  0.7907
   93MOL0     H12240   0.129   7.367  10.760 -1.0962  1.1675 -1.5738
   93MOL0     H12241  -0.070   7.449  10.862  0.4832 -0.3984  1.8051
   93MOL0     H12242  -0.353   7.147  11.035  1.3075 -1.3813 -2.6018
   93MOL0     H12243  -0.412   7.179  10.887 -1.3296 -3.0115  1.7731
   93MOL0     H12244  -0.462   7.320  11.152  1.4130 -1.2592 -0.0277
   93MOL0     H12245  -0.568   7.205  11.069  2.3767 -1.8714  0.7078
   93MOL0     H12246  -0.674   7.417  11.019 -1.6563 -0.5266 -1.7987
   93MOL0     H12247  -0.585   7.352  10.874  3.0415  1.6858 -1.0115
   93MOL0     H12248  -0.476   7.576  11.030  4.0233 -0.1031 -0.4974
   93MOL0     H12249  -0.406   7.508  10.892  0.7738  0.0115 -0.6864
   93MOL0     H12250  -0.702   7.600  10.887 -0.2961  1.2682 -2.4294
   93MOL0     H12251  -0.585   7.577  10.754  3.3877  2.1897 -0.8707
   93MOL0     H12252  -0.478   7.786  10.797 -0.2701  1.9474 -0.2046
   93MOL0     H12253  -0.594   7.793  10.947 -1.3314 -0.1584 -0.4112
   93MOL0     H12254  -0.697   7.772  10.666  2.0348  1.1541 -2.0955
   93MOL0     H12255  -0.771   7.836  10.816  0.4409  1.3244 -0.0822
   93MOL0     H12256  -0.600   8.000  10.636  1.4745 -0.0121  0.5019
   93MOL0     H12257  -0.620   8.033  10.814 -3.2738 -2.3844  2.6370
   93MOL0     H12258  -0.233   7.056  10.875 -0.4533  2.3173  0.3319
   93MOL0     H12259  -0.037   6.969  10.739 -2.9807 -2.2486  2.7129
   93MOL0     H12260   0.296   7.174  10.462 -1.1852 -0.7184  0.2432
   93MOL0     H12261   0.509   7.141  10.321 -0.3237  0.3649  0.2506
   93MOL0     H12262   2.545   6.880  10.060 -3.8344 -1.7841  0.2929
   93MOL0     H12263   2.766   6.778  10.140 -1.2429  1.0200 -2.3237
   93MOL0     H12264   2.979   6.453  10.277 -0.4132  1.2667 -0.5661
   93MOL0     H12265   3.210   6.382  10.256 -2.7594  0.4423 -2.2951
   93MOL0     H12266   3.437   6.378  10.248 -1.1924  1.4157  0.7771
   93MOL0     H12267   3.444   6.276  10.395  0.3851 -1.2238 -1.2196
   93MOL0     H12268   3.639   6.493  10.327  0.3281 -0.8554 -2.3349
   93MOL0     H12269   3.637   6.397  10.479  0.7740  2.1301 -0.2357
   93MOL0     H12270   3.659   6.178  10.337  1.5008  0.0283 -0.5739
   93MOL0     H12271   3.796   6.276  10.329  0.3975 -4.6890 -0.1917
   93MOL0     H12272   3.748   6.212  10.103 -2.3175 -2.7957  2.1021
   93MOL0     H12273   3.596   6.296  10.111  0.7864 -0.8066  1.0373
   93MOL0     H12274   3.822   6.638  10.064  0.2149  0.5289  3.3862
   93MOL0     H12275   3.316   6.628  10.583  2.0868  3.7078 -2.4340
   93MOL0     H12276   3.103   6.729  10.596 -0.5607 -1.3200  1.2249
   94MOL0     O12277   5.017   4.502   4.706 -0.0723 -0.1563  0.6095
   94MOL0     C12278   5.074   4.580   4.783  0.5106 -0.5768  0.5152
   94MOL0     O12279   5.016   4.663   4.876 -0.0439  0.0761  0.1886
   94MOL0     C12280   4.886   4.637   4.909  0.7021  0.3050 -0.6390
   94MOL0     C12281   4.791   4.738   4.882  0.2971 -0.3994 -0.2565
   94MOL0     C12282   4.663   4.731   4.929 -0.8350  0.2532 -0.1670
   94MOL0     C12283   4.617   4.609   4.982  0.3033 -0.2170 -0.9227
   94MOL0     O12284   4.489   4.574   5.014  0.3837 -0.5078  0.5032
   94MOL0     C12285   4.378   4.667   4.980 -0.8469  0.0814  0.3450
   94MOL0     C12286   4.239   4.618   5.013  0.0689  0.2192  0.1805
   94MOL0     C12287   4.230   4.461   5.008  0.5045 -0.6571  0.3412
   94MOL0     C12288   4.084   4.421   5.005  1.1704 -0.8283  0.3906
   94MOL0     C12289   4.056   4.282   5.069  0.9280  0.7248 -1.2614
   94MOL0     C12290   3.911   4.233   5.065  0.0326 -0.2194 -0.1405
   94MOL0     C12291   3.867   4.218   4.924 -0.7637 -0.9791  0.5647
   94MOL0     C12292   3.736   4.136   4.914  0.0782 -0.9116  0.1110
   94MOL0     N12293   3.618   4.220   4.930  0.3302  0.0420 -0.6617
   94MOL0     C12294   3.570   4.314   4.840  0.2914 -0.0615  0.3036
   94MOL0     C12295   3.453   4.344   4.894  0.8345 -0.2073 -1.0115
   94MOL0     C12296   3.355   4.427   4.815 -0.3626  0.5196 -0.4145
   94MOL0     C12297   3.272   4.513   4.918  0.3016 -0.1040 -0.7762
   94MOL0     C12298   3.140   4.432   4.959 -0.1194  0.5589 -1.2144
   94MOL0     C12299   3.072   4.485   5.086 -0.7145  0.5953  0.2185
   94MOL0     O12300   3.083   4.626   5.090 -0.1061 -0.3883  0.0291
   94MOL0     C12301   3.025   4.689   5.197  0.8667  0.5359 -0.2271
   94MOL0     C12302   2.969   4.626   5.312 -0.4936  0.1478 -1.2186
   94MOL0     C12303   2.919   4.713   5.415  0.5594 -0.1115  0.7405
   94MOL0     C12304   2.928   4.849   5.405 -0.3591  0.5237  0.0132
   94MOL0     C12305   2.893   4.930   5.517 -0.5744 -0.3072 -0.4130
   94MOL0     O12306   2.956   5.053   5.529 -0.3649  0.4691 -0.0368
   94MOL0     C12307   2.923   5.145   5.630  0.5346 -0.0906 -0.7613
   94MOL0     C12308   2.794   5.209   5.645 -0.3309  0.9524  0.0713
   94MOL0     C12309   2.778   5.306   5.742  0.5621  0.3814  0.2435
   94MOL0     C12310   2.885   5.347   5.822  0.4560 -0.3757  0.3702
   94MOL0     O12311   2.856   5.448   5.914  0.8420  0.8779  0.9494
   94MOL0     C12312   2.799   5.569   5.863  0.3388 -0.1029  0.8205
   94MOL0     C12313   2.813   5.682   5.958 -0.4420  0.7690  1.3167
   94MOL0     C12314   2.742   5.813   5.917  0.0673 -0.2622 -0.2682
   94MOL0     C12315   2.747   5.923   6.027 -0.0302 -0.6357 -0.2944
   94MOL0     C12316   2.755   6.070   5.973  0.5325  0.2680 -0.3174
   94MOL0     C12317   2.652   6.111   5.862 -0.1929 -0.1894  0.5594
   94MOL0     C12318   2.508   6.111   5.896  0.0246  0.4484  0.5592
   94MOL0     C12319   2.411   6.127   5.782 -0.2586 -0.0347  0.0038
   94MOL0    Cl12320   2.425   5.984   5.675 -0.1133  0.1849  0.0999
   94MOL0     C12321   3.010   5.296   5.817 -0.5124  0.1819 -0.1946
   94MOL0     C12322   3.027   5.193   5.720  1.1691  0.1776 -0.1540
   94MOL0     O12323   2.813   4.877   5.597 -0.5003  0.5770  0.0938
   94MOL0     C12324   2.996   4.899   5.296 -0.0692  0.3740  0.8841
   94MOL0     C12325   3.039   4.826   5.190 -0.4032 -0.2912  0.3231
   94MOL0     N12326   3.435   4.286   5.027  0.4505 -0.3953 -0.6850
   94MOL0     N12327   3.538   4.209   5.043 -0.0486  0.8822  0.1180
   94MOL0     C12328   4.710   4.507   5.004  1.0179  0.1881  0.4540
   94MOL0     C12329   4.844   4.525   4.973 -0.2351  0.1317 -0.6132
   94MOL0     C12330   5.213   4.579   4.776  0.1842  0.2682  0.3191
   94MOL0     C12331   5.288   4.688   4.826  0.5647 -0.0171  0.2347
   94MOL0     C12332   5.428   4.692   4.817 -0.6188  0.1365 -0.1213
   94MOL0     C12333   5.495   4.579   4.760  0.3792  0.5886 -0.7328
   94MOL0     O12334   5.624   4.570   4.725  0.4935 -0.4122  0.4556
   94MOL0     C12335   5.720   4.660   4.797  0.8155  0.5325  0.0085
   94MOL0     C12336   5.859   4.621   4.742 -0.1919 -0.1156 -0.9643
   94MOL0     C12337   5.969   4.646   4.850  0.1113  0.7459  0.4804
   94MOL0     C12338   6.101   4.603   4.781  0.6854 -0.3903 -0.2957
   94MOL0     C12339   6.211   4.610   4.870  0.1167  0.0055  0.1121
   94MOL0     C12340   6.314   4.610   4.934 -0.3445 -0.1152 -0.4868
   94MOL0     C12341   5.420   4.472   4.720  0.2227  0.4971 -0.4795
   94MOL0     C12342   5.282   4.470   4.724 -0.1009 -0.6847  0.1451
   94MOL0     H12343   4.821   4.836   4.846 -0.5959  0.7033  1.8036
   94MOL0     H12344   4.586   4.807   4.920 -0.5878  0.3676 -1.5457
   94MOL0     H12345   4.371   4.684   4.872 -2.5988  1.1716  0.5977
   94MOL0     H12346   4.386   4.767   5.024 -1.6123  0.3952 -0.1977
   94MOL0     H12347   4.169   4.665   4.944 -1.9588  0.0826  2.0188
   94MOL0     H12348   4.198   4.646   5.110 -3.9408  0.8823 -1.5005
   94MOL0     H12349   4.281   4.414   5.093  4.8051  0.2559 -1.4611
   94MOL0     H12350   4.279   4.430   4.916 -1.5269  3.1843 -2.3171
   94MOL0     H12351   4.019   4.494   5.055  1.2238 -0.9643  0.6613
   94MOL0     H12352   4.049   4.417   4.901  0.5152  0.0032  0.5637
   94MOL0     H12353   4.085   4.283   5.174 -1.7029 -0.4412 -0.4616
   94MOL0     H12354   4.116   4.206   5.018  4.1160  2.2531 -0.1045
   94MOL0     H12355   3.865   4.325   5.103  2.8207  0.4483  1.9816
   94MOL0     H12356   3.891   4.142   5.123 -1.6692 -1.3689 -2.3982
   94MOL0     H12357   3.838   4.316   4.884  4.3295  0.9697  0.9103
   94MOL0     H12358   3.942   4.181   4.852 -0.1617 -1.0954  1.2421
   94MOL0     H12359   3.741   4.056   4.989 -0.1899 -0.7945  0.2546
   94MOL0     H12360   3.720   4.095   4.814  0.5816 -0.2623 -0.2418
   94MOL0     H12361   3.616   4.340   4.746 -1.4558 -1.8242 -1.1204
   94MOL0     H12362   3.285   4.370   4.754 -1.7976  0.9543  0.7758
   94MOL0     H12363   3.405   4.491   4.742  2.5520 -1.0126  0.0843
   94MOL0     H12364   3.249   4.612   4.878  4.0771  0.6985 -1.3637
   94MOL0     H12365   3.325   4.526   5.013 -1.4719 -0.4596  0.3181
   94MOL0     H12366   3.067   4.429   4.878 -0.3663  2.2101 -1.0885
   94MOL0     H12367   3.168   4.331   4.991  0.8134  0.6619 -1.6653
   94MOL0     H12368   3.131   4.440   5.167  1.1436  2.9725  0.2780
   94MOL0     H12369   2.969   4.447   5.087  0.0043 -1.7250 -2.3520
   94MOL0     H12370   2.962   4.521   5.336 -0.1860 -0.1474 -2.3735
   94MOL0     H12371   2.872   4.658   5.496  2.7241 -3.4454 -0.0552
   94MOL0     H12372   2.716   5.162   5.586  2.7605 -2.3504 -1.7658
   94MOL0     H12373   2.678   5.348   5.755 -1.0644 -2.7925 -0.9656
   94MOL0     H12374   2.698   5.552   5.826  1.8126 -1.0534 -3.2123
   94MOL0     H12375   2.855   5.609   5.778 -0.8496 -0.2281 -0.0339
   94MOL0     H12376   2.921   5.695   5.964 -0.1478 -0.8478  0.2128
   94MOL0     H12377   2.768   5.657   6.054 -0.6669 -0.3498  0.9380
   94MOL0     H12378   2.641   5.787   5.884 -0.0853  2.9443 -2.8286
   94MOL0     H12379   2.791   5.867   5.835 -0.3364  0.8853  0.2213
   94MOL0     H12380   2.651   5.911   6.078 -0.0846  0.5170 -0.1049
   94MOL0     H12381   2.832   5.904   6.093 -0.8444 -0.4936  0.8176
   94MOL0     H12382   2.857   6.080   5.932 -0.3019 -0.7271 -2.8276
   94MOL0     H12383   2.746   6.131   6.063 -0.2722  0.5212 -0.5641
   94MOL0     H12384   2.662   6.045   5.776  1.9263 -0.2305  0.7915
   94MOL0     H12385   2.679   6.211   5.826 -0.2987 -0.6248 -0.7995
   94MOL0     H12386   2.484   6.019   5.951 -0.4453  1.0856  1.4447
   94MOL0     H12387   2.494   6.200   5.958  3.5178 -0.1942  2.5021
   94MOL0     H12388   2.421   6.222   5.729 -0.3554  0.9960  1.7462
   94MOL0     H12389   2.306   6.122   5.812 -0.4084  0.2823 -0.4622
   94MOL0     H12390   3.090   5.326   5.884  0.9456 -0.1774 -1.7106
   94MOL0     H12391   3.128   5.162   5.698  1.1047 -0.0798 -0.0949
   94MOL0     H12392   3.016   5.006   5.290 -1.0630  0.6030  1.4755
   94MOL0     H12393   3.098   4.870   5.110 -1.3986  3.0754  1.2829
   94MOL0     H12394   4.674   4.416   5.051 -1.0640  1.8277  2.2261
   94MOL0     H12395   4.914   4.448   5.004 -1.6682 -0.3691  1.6070
   94MOL0     H12396   5.237   4.768   4.880  1.8058  1.6423 -0.9202
   94MOL0     H12397   5.488   4.780   4.842  0.5991 -0.6104 -0.3067
   94MOL0     H12398   5.711   4.644   4.904 -1.5434 -2.4278 -0.5031
   94MOL0     H12399   5.695   4.760   4.759  0.7466 -0.6682 -3.4508
   94MOL0     H12400   5.855   4.514   4.718 -1.8490 -0.8582  2.1396
   94MOL0     H12401   5.886   4.673   4.650  0.6099 -0.1086 -0.7331
   94MOL0     H12402   5.940   4.592   4.941 -1.2073  1.5491  0.5725
   94MOL0     H12403   5.986   4.753   4.863  2.0698  0.2000  3.3462
   94MOL0     H12404   6.078   4.499   4.756 -3.5133 -0.6107  3.2216
   94MOL0     H12405   6.137   4.661   4.695 -2.1505 -0.6542 -1.7756
   94MOL0     H12406   6.406   4.618   4.988  0.0150  2.0506 -1.3045
   94MOL0     H12407   5.474   4.390   4.674  0.5842  0.6273 -0.2889
   94MOL0     H12408   5.229   4.385   4.681 -1.7519  0.1756  0.4094
   95MOL0     O12409  10.469   0.191   4.661 -0.5062 -0.0309  0.8334
   95MOL0     C12410  10.558   0.119   4.709  0.3698  0.0213  0.6340
   95MOL0     O12411  10.526  -0.004   4.771  0.1518 -0.5241 -0.1500
   95MOL0     C12412  10.399  -0.033   4.800  0.4943 -0.0578 -0.1958
   95MOL0     C12413  10.339   0.033   4.908  1.3383 -0.5136  0.0760
   95MOL0     C12414  10.217  -0.015   4.951  0.5237 -0.7761  0.9706
   95MOL0     C12415  10.151  -0.124   4.894  0.6367  0.4703  0.0365
   95MOL0     O12416  10.026  -0.176   4.931 -0.5432  0.5317  0.0143
   95MOL0     C12417   9.945  -0.110   5.026 -0.0483  0.7025 -0.1612
   95MOL0     C12418   9.810  -0.181   5.019 -0.2233  0.3074 -0.1152
   95MOL0     C12419   9.712  -0.162   5.136  0.0216  0.1577 -0.0460
   95MOL0     C12420   9.595  -0.267   5.137  0.1118  0.2285  0.3347
   95MOL0     C12421   9.479  -0.237   5.231  0.0644 -0.1059 -0.7941
   95MOL0     C12422   9.523  -0.176   5.362  0.4027 -0.2187  0.3588
   95MOL0     C12423   9.418  -0.151   5.476 -1.3229  0.1049 -0.2367
   95MOL0     C12424   9.313  -0.265   5.491 -0.0928  0.2317 -0.3233
   95MOL0     N12425   9.243  -0.208   5.612  0.1296  0.0257  0.0710
   95MOL0     C12426   9.265  -0.253   5.742 -0.5586 -0.0902  0.5594
   95MOL0     C12427   9.179  -0.173   5.809  0.0421  0.5588  0.0130
   95MOL0     C12428   9.172  -0.179   5.956  0.0288 -0.0893 -0.2217
   95MOL0     C12429   9.041  -0.212   6.002  0.3660 -0.1330 -0.1358
   95MOL0     C12430   8.989  -0.354   5.977 -0.4027  0.8089  0.3380
   95MOL0     C12431   8.839  -0.364   5.975 -0.4998  0.7928  0.1354
   95MOL0     O12432   8.785  -0.347   6.106  0.4339  0.1537 -0.4537
   95MOL0     C12433   8.658  -0.393   6.138  0.9060  0.1443 -0.4322
   95MOL0     C12434   8.582  -0.478   6.061 -0.2180 -0.3145  0.9729
   95MOL0     C12435   8.452  -0.524   6.102 -0.6116 -0.2807 -0.3512
   95MOL0     C12436   8.393  -0.482   6.225 -0.1116 -0.4003 -0.2212
   95MOL0     C12437   8.255  -0.530   6.260  0.4126  0.6355 -0.3473
   95MOL0     O12438   8.167  -0.449   6.337 -0.3883  0.2962  0.4119
   95MOL0     C12439   8.053  -0.499   6.382  0.6808  0.4620  0.9329
   95MOL0     C12440   7.949  -0.410   6.406  0.1689  0.3946 -0.6009
   95MOL0     C12441   7.825  -0.452   6.454  0.1376  0.3457 -0.9759
   95MOL0     C12442   7.799  -0.583   6.492 -0.1208  0.0931  0.6033
   95MOL0     O12443   7.686  -0.625   6.557  0.4536 -0.2322  0.6351
   95MOL0     C12444   7.567  -0.580   6.494  0.2457 -0.5479  0.0832
   95MOL0     C12445   7.479  -0.506   6.599  0.0263  0.5469 -0.5685
   95MOL0     C12446   7.342  -0.449   6.548 -0.4701  0.2773 -0.0538
   95MOL0     C12447   7.266  -0.387   6.666 -0.5703 -0.5720  0.0991
   95MOL0     C12448   7.189  -0.484   6.755 -0.7863  0.2054 -0.3390
   95MOL0     C12449   7.056  -0.527   6.693  0.2866  0.0481  0.9160
   95MOL0     C12450   6.994  -0.652   6.763  0.7207  0.1164  0.4281
   95MOL0     C12451   6.843  -0.688   6.748 -0.1898  0.1466  0.2776
   95MOL0    Cl12452   6.788  -0.678   6.569  0.1876  0.3535 -0.4772
   95MOL0     C12453   7.906  -0.674   6.479  0.7798 -0.9928 -0.5564
   95MOL0     C12454   8.030  -0.632   6.420  0.2848  0.2595 -0.7837
   95MOL0     O12455   8.227  -0.648   6.223  0.7089 -0.1553  0.6561
   95MOL0     C12456   8.470  -0.388   6.300  0.5019  0.5905 -0.5885
   95MOL0     C12457   8.599  -0.351   6.262  0.1372  0.1403  0.6136
   95MOL0     N12458   9.109  -0.089   5.722 -0.2383  0.2260 -0.1731
   95MOL0     N12459   9.155  -0.107   5.604 -0.1872  0.0477 -0.2872
   95MOL0     C12460  10.212  -0.189   4.794 -0.2755  0.2079 -0.3119
   95MOL0     C12461  10.331  -0.142   4.746 -0.4090 -0.4849  0.2808
   95MOL0     C12462  10.699   0.154   4.698  0.2885  1.1473 -0.2321
   95MOL0     C12463  10.807   0.063   4.722  0.0507 -0.0900  0.0646
   95MOL0     C12464  10.941   0.099   4.699  0.7567  0.6351 -0.7047
   95MOL0     C12465  10.966   0.238   4.657 -0.7566 -0.6824 -0.3599
   95MOL0     O12466  11.093   0.286   4.618 -0.4234  0.2641 -0.3088
   95MOL0     C12467  11.212   0.198   4.640 -0.1525 -0.5343 -0.3304
   95MOL0     C12468  11.336   0.263   4.599  0.3156 -0.3770  0.4226
   95MOL0     C12469  11.368   0.356   4.724  0.3349  0.6234 -1.0032
   95MOL0     C12470  11.501   0.431   4.709 -0.5684  0.5801  0.5088
   95MOL0     C12471  11.607   0.341   4.748  0.5160  0.0432 -0.0291
   95MOL0     C12472  11.696   0.274   4.790 -0.0070  0.4652  0.8978
   95MOL0     C12473  10.866   0.333   4.648  0.8899  0.8304 -0.5910
   95MOL0     C12474  10.734   0.287   4.657  0.0850 -0.2382 -0.1530
   95MOL0     H12475  10.390   0.113   4.960  0.6679 -0.3823  0.5457
   95MOL0     H12476  10.174   0.026   5.042  3.0320 -1.0945  2.3759
   95MOL0     H12477   9.938  -0.001   5.018 -1.4606  0.7442  0.9865
   95MOL0     H12478   9.994  -0.123   5.123 -1.1598  3.7710  0.9333
   95MOL0     H12479   9.828  -0.288   5.015  1.3395  0.5344  0.2460
   95MOL0     H12480   9.760  -0.152   4.926 -0.5220 -3.3382 -1.2533
   95MOL0     H12481   9.662  -0.065   5.139  0.7100  0.4887  1.4564
   95MOL0     H12482   9.772  -0.166   5.228  0.9274 -3.0763 -0.6454
   95MOL0     H12483   9.563  -0.290   5.035 -1.7898  2.2434  0.3984
   95MOL0     H12484   9.634  -0.363   5.170  2.3135  1.4657  1.5639
   95MOL0     H12485   9.445  -0.340   5.244  1.2550 -0.5219 -0.8230
   95MOL0     H12486   9.396  -0.175   5.194 -2.0569 -1.2111  1.7501
   95MOL0     H12487   9.583  -0.085   5.351 -1.2258  0.6142 -2.4887
   95MOL0     H12488   9.600  -0.244   5.402 -2.9910 -2.6309  3.4316
   95MOL0     H12489   9.462  -0.125   5.573 -1.1660  0.7269 -0.4659
   95MOL0     H12490   9.371  -0.055   5.451  0.5912  0.9752 -0.6744
   95MOL0     H12491   9.362  -0.359   5.517 -2.9485 -1.4303 -0.5488
   95MOL0     H12492   9.233  -0.273   5.417  0.8233  0.5769 -1.3875
   95MOL0     H12493   9.336  -0.330   5.769  0.6830  0.0731 -1.8980
   95MOL0     H12494   9.202  -0.082   5.995  2.1939 -0.4732 -0.8317
   95MOL0     H12495   9.241  -0.251   6.000 -1.1269 -1.0476  0.0915
   95MOL0     H12496   8.977  -0.129   5.972  2.5098  3.1067  3.3170
   95MOL0     H12497   9.056  -0.200   6.110  1.2999  2.8588 -0.5044
   95MOL0     H12498   9.012  -0.393   5.877 -4.4182 -5.1145  1.2308
   95MOL0     H12499   9.020  -0.420   6.058 -0.6778  2.9663  2.3093
   95MOL0     H12500   8.821  -0.460   5.926 -1.8956  0.5683  1.0515
   95MOL0     H12501   8.787  -0.288   5.916 -3.4137  0.5929  2.2359
   95MOL0     H12502   8.615  -0.520   5.966 -1.0459  1.6059 -0.2145
   95MOL0     H12503   8.385  -0.581   6.038 -1.6879 -1.6300  1.8635
   95MOL0     H12504   7.952  -0.306   6.377 -1.1140  0.3969 -0.7907
   95MOL0     H12505   7.743  -0.381   6.461 -1.1136 -1.1697  0.6276
   95MOL0     H12506   7.505  -0.668   6.472  0.5474 -0.7684  0.1125
   95MOL0     H12507   7.580  -0.527   6.399 -0.3423 -2.3729 -1.0781
   95MOL0     H12508   7.538  -0.426   6.645 -2.3409 -0.1281  4.2919
   95MOL0     H12509   7.443  -0.575   6.675 -0.3502  2.8706  1.4964
   95MOL0     H12510   7.284  -0.522   6.490 -1.2674 -0.6604  1.8358
   95MOL0     H12511   7.365  -0.369   6.478 -1.1624 -0.3365 -1.0101
   95MOL0     H12512   7.328  -0.325   6.731 -1.1954  0.3947 -0.1957
   95MOL0     H12513   7.198  -0.307   6.633  1.4601  2.1289  2.0155
   95MOL0     H12514   7.173  -0.438   6.853  3.1451 -1.6729  1.4162
   95MOL0     H12515   7.252  -0.573   6.765  1.1376  1.3329 -1.6737
   95MOL0     H12516   7.061  -0.556   6.588 -1.9977 -0.8826  1.0118
   95MOL0     H12517   6.983  -0.446   6.699  0.6391  0.2923  2.5292
   95MOL0     H12518   7.041  -0.738   6.714 -0.6280  0.2249 -1.1284
   95MOL0     H12519   7.012  -0.650   6.871  1.4817 -1.1129  0.3486
   95MOL0     H12520   6.784  -0.610   6.797  1.2551  1.2762  0.3107
   95MOL0     H12521   6.823  -0.789   6.783 -0.2891 -1.8312 -4.6725
   95MOL0     H12522   7.892  -0.775   6.518  1.3579 -0.0759  2.2286
   95MOL0     H12523   8.105  -0.710   6.415 -0.2728 -0.2491 -1.4270
   95MOL0     H12524   8.419  -0.347   6.386  0.0116 -0.7945 -0.1902
   95MOL0     H12525   8.657  -0.281   6.321 -1.3328  2.2462 -0.3052
   95MOL0     H12526  10.171  -0.279   4.749  1.0601 -1.3175  1.3909
   95MOL0     H12527  10.364  -0.197   4.658 -1.8613 -2.0346  0.6434
   95MOL0     H12528  10.781  -0.037   4.756  2.9640 -0.6277  0.9233
   95MOL0     H12529  11.027   0.033   4.701  1.0239  0.9386 -1.5793
   95MOL0     H12530  11.204   0.104   4.584 -2.2119 -0.1781 -0.6982
   95MOL0     H12531  11.219   0.152   4.739 -1.8559  2.1847  1.1742
   95MOL0     H12532  11.416   0.189   4.589  0.1310 -0.7283  1.4432
   95MOL0     H12533  11.325   0.324   4.509 -1.1330  0.4197  1.1146
   95MOL0     H12534  11.369   0.297   4.816 -1.0783  2.1907  0.0658
   95MOL0     H12535  11.290   0.431   4.737  1.7783  2.0735 -0.4176
   95MOL0     H12536  11.503   0.454   4.602 -4.4854  0.6134  0.3017
   95MOL0     H12537  11.514   0.515   4.778 -0.1463 -1.3597  2.9124
   95MOL0     H12538  11.776   0.210   4.823  0.0048  0.9076  1.7765
   95MOL0     H12539  10.902   0.432   4.621 -1.0454  1.7757  0.0892
   95MOL0     H12540  10.655   0.361   4.647  1.0295  0.5901 -2.0212
   96MOL0     O12541   8.566   0.339  10.199  0.3871  0.1843 -0.4389
   96MOL0     C12542   8.600   0.335  10.314 -0.4301  0.5988 -0.4960
   96MOL0     O12543   8.525   0.378  10.418  0.2381  0.2197  0.0590
   96MOL0     C12544   8.389   0.397  10.411  0.1281 -0.4482 -0.6781
   96MOL0     C12545   8.290   0.316  10.474 -0.4500 -0.6760 -0.1261
   96MOL0     C12546   8.158   0.355  10.455 -0.1696 -0.2025  0.5513
   96MOL0     C12547   8.121   0.469  10.378  1.2659  0.9330 -0.3626
   96MOL0     O12548   7.990   0.487  10.335  0.0669 -1.0201 -0.2901
   96MOL0     C12549   7.889   0.389  10.363 -0.2675 -0.7187 -0.8686
   96MOL0     C12550   7.766   0.447  10.303  1.3553  0.8642  0.3830
   96MOL0     C12551   7.697   0.574  10.352 -0.4024  0.7803  0.3098
   96MOL0     C12552   7.597   0.636  10.255  0.7119  0.2587 -0.6312
   96MOL0     C12553   7.546   0.768  10.310  0.7924 -0.8684 -0.2922
   96MOL0     C12554   7.445   0.846  10.226 -0.3078  0.4070  0.2589
   96MOL0     C12555   7.322   0.759  10.197  0.4740  0.7538 -0.4623
   96MOL0     C12556   7.206   0.860  10.209  0.2772 -0.2178  0.0623
   96MOL0     N12557   7.072   0.804  10.184  0.3967  0.2718  0.0773
   96MOL0     C12558   7.016   0.696  10.248  1.0616 -0.2450 -0.0927
   96MOL0     C12559   6.900   0.678  10.185 -0.1647  0.1605 -0.3499
   96MOL0     C12560   6.810   0.560  10.210  0.0089 -0.4752  0.3292
   96MOL0     C12561   6.685   0.597  10.284  0.1092 -0.4853  0.2653
   96MOL0     C12562   6.587   0.680  10.198 -0.7243  0.5367 -0.3190
   96MOL0     C12563   6.521   0.617  10.075 -0.1735 -0.1535 -0.4144
   96MOL0     O12564   6.428   0.717  10.022  0.7551  0.3953  0.1055
   96MOL0     C12565   6.298   0.726  10.073 -0.4164 -0.8056  0.7105
   96MOL0     C12566   6.204   0.816  10.011 -0.1006  0.1219  1.0451
   96MOL0     C12567   6.071   0.826  10.048 -0.5524 -0.2515 -0.4916
   96MOL0     C12568   6.032   0.741  10.152  1.1338 -0.4373  0.9073
   96MOL0     C12569   5.877   0.730  10.180 -0.6147 -0.1056  0.4917
   96MOL0     O12570   5.800   0.835  10.144 -0.4134  0.2994 -0.4757
   96MOL0     C12571   5.667   0.816  10.191  0.0787  0.5489 -0.0031
   96MOL0     C12572   5.575   0.769  10.112 -0.2880 -0.0565  0.1268
   96MOL0     C12573   5.445   0.757  10.143 -0.5273  0.2980 -0.1186
   96MOL0     C12574   5.399   0.797  10.272 -0.3105 -0.5509 -0.0345
   96MOL0     O12575   5.273   0.786  10.315 -0.3646  0.3829  0.2496
   96MOL0     C12576   5.181   0.885  10.281  0.3867 -0.2915 -0.4168
   96MOL0     C12577   5.053   0.813  10.223 -0.7278 -0.2667  0.5040
   96MOL0     C12578   4.926   0.895  10.251 -0.2413 -0.6423 -0.3730
   96MOL0     C12579   4.818   0.816  10.200  0.3514  0.4981 -0.5448
   96MOL0     C12580   4.678   0.866  10.233  0.3161 -0.2914  1.0084
   96MOL0     C12581   4.637   0.870  10.381 -0.3426 -0.4911 -0.6618
   96MOL0     C12582   4.486   0.851  10.406 -0.0622 -0.6453  0.2199
   96MOL0     C12583   4.431   0.722  10.454  1.2391 -0.2647  0.7082
   96MOL0    Cl12584   4.250   0.721  10.440 -0.1948 -0.4438 -0.2091
   96MOL0     C12585   5.499   0.843  10.359 -0.4041  0.0902  0.9558
   96MOL0     C12586   5.633   0.856  10.319  0.2650 -0.3887  1.1713
   96MOL0     O12587   5.837   0.634  10.240  0.3102  0.0248 -0.1823
   96MOL0     C12588   6.119   0.659  10.223 -0.8525 -0.4158  0.2439
   96MOL0     C12589   6.246   0.648  10.184 -0.3372 -0.0170  0.1007
   96MOL0     N12590   6.887   0.763  10.081 -0.2593  0.2230  0.4428
   96MOL0     N12591   6.996   0.828  10.076  1.4581 -0.3510  0.4767
   96MOL0     C12592   8.219   0.540  10.317  1.0289 -0.5671 -0.8568
   96MOL0     C12593   8.353   0.507  10.339 -1.4596  0.4765  0.3968
   96MOL0     C12594   8.743   0.315  10.350  0.0776 -0.6764  0.4356
   96MOL0     C12595   8.837   0.270  10.257 -0.3368 -0.6427 -0.4542
   96MOL0     C12596   8.976   0.252  10.287  0.3956  0.4976  0.3084
   96MOL0     C12597   9.021   0.287  10.414 -0.3319  0.0511  0.4560
   96MOL0     O12598   9.147   0.259  10.458 -0.2079 -0.4633 -0.4080
   96MOL0     C12599   9.248   0.330  10.392  0.0450 -0.3908  0.0755
   96MOL0     C12600   9.325   0.401  10.500 -0.5462  0.6500 -1.2101
   96MOL0     C12601   9.260   0.523  10.558 -0.0775 -0.0809 -0.5105
   96MOL0     C12602   9.219   0.632  10.462 -0.5067 -0.1201 -0.3720
   96MOL0     C12603   9.124   0.732  10.524  0.0561  0.3748 -1.2755
   96MOL0     C12604   9.053   0.824  10.566  0.2303  0.6289 -0.3158
   96MOL0     C12605   8.927   0.329  10.506 -0.2516 -1.3385 -0.0997
   96MOL0     C12606   8.791   0.340  10.476  0.3415  0.1918 -0.2060
   96MOL0     H12607   8.325   0.238  10.540  3.0239 -0.5494 -1.6211
   96MOL0     H12608   8.074   0.306  10.501 -1.0756 -0.3840 -1.1925
   96MOL0     H12609   7.878   0.379  10.471 -1.8196  1.3326 -0.7787
   96MOL0     H12610   7.927   0.294  10.324 -1.6307 -0.7424 -2.2639
   96MOL0     H12611   7.691   0.368  10.309  1.4523  0.5873 -1.5179
   96MOL0     H12612   7.787   0.464  10.197  2.5415  0.8467  0.5968
   96MOL0     H12613   7.774   0.644  10.388 -0.2245 -0.6363  2.9023
   96MOL0     H12614   7.638   0.540  10.437 -0.0059 -3.2879 -0.8369
   96MOL0     H12615   7.642   0.664  10.159 -0.2624 -1.5939 -1.6782
   96MOL0     H12616   7.515   0.569  10.227  1.3569  0.2084 -2.5467
   96MOL0     H12617   7.633   0.829  10.333 -0.5544  0.8495  0.4468
   96MOL0     H12618   7.502   0.744  10.407  0.2514 -0.0125 -0.3149
   96MOL0     H12619   7.480   0.883  10.129 -1.2840  0.5915 -0.0379
   96MOL0     H12620   7.416   0.935  10.283  1.1543  0.5265  0.8697
   96MOL0     H12621   7.323   0.714  10.098  2.3539  1.3730 -0.7469
   96MOL0     H12622   7.303   0.687  10.277  0.9813  2.4223  1.2382
   96MOL0     H12623   7.227   0.945  10.144  0.8659  1.4676  2.3356
   96MOL0     H12624   7.194   0.895  10.312 -0.8984  1.3994 -0.5863
   96MOL0     H12625   7.069   0.644  10.328  0.3972  0.9757  1.1987
   96MOL0     H12626   6.867   0.492  10.274 -0.5020 -2.2672 -1.0427
   96MOL0     H12627   6.784   0.524  10.110  2.2802 -0.5990 -0.2790
   96MOL0     H12628   6.720   0.653  10.371 -0.1689  0.8425 -0.4456
   96MOL0     H12629   6.638   0.504  10.318 -0.3569  0.2332  1.6742
   96MOL0     H12630   6.505   0.711  10.263 -1.1682  0.2646 -0.7448
   96MOL0     H12631   6.640   0.765  10.153 -1.6786  1.3590  0.0735
   96MOL0     H12632   6.469   0.524  10.098  1.0234 -1.1237 -1.4858
   96MOL0     H12633   6.596   0.575  10.008  0.0879  1.2362 -1.0367
   96MOL0     H12634   6.247   0.882   9.936  2.7543  0.1853  2.5925
   96MOL0     H12635   5.994   0.885  10.000 -0.3483  1.5803  1.3012
   96MOL0     H12636   5.602   0.743  10.010 -2.2000  0.8760 -0.6748
   96MOL0     H12637   5.390   0.710  10.062  0.5674  3.6071 -3.0124
   96MOL0     H12638   5.214   0.955  10.203 -0.7990 -1.2939 -1.8602
   96MOL0     H12639   5.149   0.934  10.373  2.2663  2.6617 -1.1783
   96MOL0     H12640   5.040   0.718  10.275  0.4852  0.7533  2.8247
   96MOL0     H12641   5.053   0.806  10.114  1.6600 -1.8326  0.5439
   96MOL0     H12642   4.926   0.997  10.211  1.0901 -0.5157 -0.0661
   96MOL0     H12643   4.902   0.918  10.355  0.7542  1.2425 -0.5199
   96MOL0     H12644   4.827   0.801  10.092  0.1745  0.8173 -0.6049
   96MOL0     H12645   4.831   0.715  10.241 -0.6183  0.8408  0.6802
   96MOL0     H12646   4.600   0.815  10.176  0.1964  2.7732 -1.8786
   96MOL0     H12647   4.662   0.961  10.180  2.3240 -1.1684 -1.3388
   96MOL0     H12648   4.670   0.967  10.419 -0.4023 -0.8333  0.2986
   96MOL0     H12649   4.693   0.799  10.443  0.2099  1.4015  1.1319
   96MOL0     H12650   4.466   0.931  10.477 -3.9641 -1.2174 -0.0450
   96MOL0     H12651   4.430   0.870  10.314  0.7392  4.2431  0.4787
   96MOL0     H12652   4.453   0.711  10.561 -0.0175 -1.6924  0.8557
   96MOL0     H12653   4.472   0.640  10.395  1.1138  0.2250 -0.0771
   96MOL0     H12654   5.490   0.866  10.464  2.9729  0.0982  1.3582
   96MOL0     H12655   5.699   0.895  10.396 -1.1068  0.1718  2.1022
   96MOL0     H12656   6.082   0.592  10.300  0.3576 -0.4547  0.8128
   96MOL0     H12657   6.309   0.589  10.249  2.0143  0.2591 -1.8036
   96MOL0     H12658   8.194   0.626  10.256 -2.8524  0.5285  1.9457
   96MOL0     H12659   8.428   0.571  10.293 -0.1468 -1.2373  0.0431
   96MOL0     H12660   8.812   0.236  10.158 -2.6618  0.0795 -0.1816
   96MOL0     H12661   9.032   0.202  10.209  0.4433  0.1449  0.5639
   96MOL0     H12662   9.211   0.399  10.315  1.4637  2.6995  1.9734
   96MOL0     H12663   9.323   0.264  10.348  2.1900  1.8447  0.1895
   96MOL0     H12664   9.343   0.330  10.581 -1.2813 -1.7276 -3.0069
   96MOL0     H12665   9.427   0.421  10.466  0.1598  2.3542  1.5754
   96MOL0     H12666   9.319   0.567  10.639  0.1910 -0.5371 -0.4585
   96MOL0     H12667   9.168   0.496  10.610 -0.2419  0.8576 -0.2986
   96MOL0     H12668   9.307   0.691  10.433  0.4505 -0.4332  1.7074
   96MOL0     H12669   9.171   0.581  10.378 -0.8959 -0.1595 -0.1284
   96MOL0     H12670   8.999   0.908  10.605  1.8912  2.0400 -0.9368
   96MOL0     H12671   8.954   0.342  10.610 -2.6033 -0.9383  0.5192
   96MOL0     H12672   8.733   0.370  10.562  1.3752 -0.0283  0.5889
   97MOL0     O12673   0.399  10.005   6.722 -0.3511 -0.6643 -0.3550
   97MOL0     C12674   0.396   9.898   6.672  0.3163  0.9064  0.4931
   97MOL0     O12675   0.494   9.840   6.602  0.4231 -0.0102 -0.8969
   97MOL0     C12676   0.627   9.844   6.635  0.2603 -0.0901 -0.5689
   97MOL0     C12677   0.695   9.925   6.737  0.4521 -0.1789  0.0441
   97MOL0     C12678   0.826   9.898   6.775  0.1029  0.0285 -0.0407
   97MOL0     C12679   0.902   9.806   6.704  0.9956 -0.1401 -0.4204
   97MOL0     O12680   1.032   9.769   6.732 -0.5763 -0.3044 -0.2528
   97MOL0     C12681   1.132   9.879   6.731  0.4263  0.6952 -0.2214
   97MOL0     C12682   1.276   9.836   6.763 -0.4024 -0.0329  0.2901
   97MOL0     C12683   1.324   9.721   6.675 -0.4533  0.8356  0.3852
   97MOL0     C12684   1.474   9.690   6.684 -0.0967 -0.1358  0.1139
   97MOL0     C12685   1.562   9.806   6.636 -0.2794 -0.2073  0.4438
   97MOL0     C12686   1.710   9.770   6.615 -0.1664  1.4152 -0.2060
   97MOL0     C12687   1.778   9.896   6.573  0.1231  0.1972  0.7361
   97MOL0     C12688   1.930   9.867   6.563 -0.3985 -0.7760 -0.5697
   97MOL0     N12689   2.001   9.978   6.488 -0.1362  0.1984 -0.3092
   97MOL0     C12690   2.140  10.004   6.494  0.8729 -0.5043  0.1562
   97MOL0     C12691   2.156  10.116   6.419 -0.1840  0.7950  0.2123
   97MOL0     C12692   2.289  10.194   6.400  0.5473 -0.0483  0.7061
   97MOL0     C12693   2.397  10.127   6.479 -0.1556 -0.0820 -0.2096
   97MOL0     C12694   2.505  10.232   6.515  0.9811  0.6844 -0.3384
   97MOL0     C12695   2.633  10.139   6.519 -0.8166  0.1365 -0.6345
   97MOL0     O12696   2.738  10.214   6.577  0.2811 -0.0655 -0.0528
   97MOL0     C12697   2.856  10.154   6.574  0.5403 -0.2070  0.0806
   97MOL0     C12698   2.961  10.218   6.514  0.4895  0.2319  0.0311
   97MOL0     C12699   3.085  10.154   6.482 -0.0476 -1.1558 -0.8614
   97MOL0     C12700   3.111  10.025   6.537  0.2435 -0.4228 -0.4874
   97MOL0     C12701   3.241   9.968   6.508  0.1196  0.2157 -0.1239
   97MOL0     O12702   3.350  10.053   6.490  0.6566 -0.0169 -0.1839
   97MOL0     C12703   3.473  10.003   6.482 -0.4642 -1.6157 -0.3829
   97MOL0     C12704   3.507   9.899   6.397  0.4197  0.2773 -0.1428
   97MOL0     C12705   3.635   9.857   6.388  0.4977 -0.6391  0.5876
   97MOL0     C12706   3.730   9.908   6.476 -0.9248  0.0195 -0.4880
   97MOL0     O12707   3.857   9.865   6.468 -0.4801  0.1602  0.7188
   97MOL0     C12708   3.969   9.936   6.532  0.2895 -0.7211  0.2854
   97MOL0     C12709   4.107   9.865   6.495 -0.9393  0.4620  0.1780
   97MOL0     C12710   4.220   9.938   6.575  0.0587 -0.3631 -0.0359
   97MOL0     C12711   4.352   9.876   6.521  0.7916  0.4718 -0.4775
   97MOL0     C12712   4.466   9.906   6.606 -0.1454 -0.4302 -0.0581
   97MOL0     C12713   4.606   9.857   6.552 -0.4453  0.4790  0.7318
   97MOL0     C12714   4.734   9.897   6.630  0.6121 -0.0737  0.2131
   97MOL0     C12715   4.864   9.844   6.573 -0.5027  0.3031  0.3604
   97MOL0    Cl12716   4.996   9.938   6.653  0.2784  0.4563 -0.4138
   97MOL0     C12717   3.697   9.997   6.580 -0.0458  0.7375  0.4426
   97MOL0     C12718   3.566  10.055   6.574 -0.6330  0.4503  0.7625
   97MOL0     O12719   3.252   9.845   6.524 -0.1845  0.3017  0.4128
   97MOL0     C12720   3.007   9.953   6.592 -0.0612 -0.2310 -0.1203
   97MOL0     C12721   2.880  10.016   6.613 -0.4477  0.3577  0.6103
   97MOL0     N12722   2.031  10.155   6.366 -1.1710  0.0194  0.4080
   97MOL0     N12723   1.940  10.088   6.435  0.2539  0.0715  0.1987
   97MOL0     C12724   0.845   9.746   6.598  0.8615  0.1140 -0.2940
   97MOL0     C12725   0.711   9.757   6.566 -0.0055  0.4943 -0.6773
   97MOL0     C12726   0.264   9.829   6.702  0.0826  0.5821 -0.1154
   97MOL0     C12727   0.254   9.695   6.663 -0.2687  0.9338  0.5470
   97MOL0     C12728   0.148   9.619   6.703  0.1837 -0.0457  0.2729
   97MOL0     C12729   0.046   9.674   6.786 -0.5274 -0.1225  0.7916
   97MOL0     O12730  -0.068   9.603   6.829 -0.5744 -0.1448  0.6530
   97MOL0     C12731  -0.106   9.484   6.758  1.0835 -0.2734  0.1878
   97MOL0     C12732  -0.231   9.416   6.818  0.8850  1.0222  0.5660
   97MOL0     C12733  -0.363   9.502   6.844 -0.1447  0.2549 -0.3385
   97MOL0     C12734  -0.464   9.438   6.941  0.2356 -0.8412 -0.7478
   97MOL0     C12735  -0.513   9.315   6.882  0.4650 -0.1321 -0.4448
   97MOL0     C12736  -0.544   9.202   6.836 -0.4619 -0.4420 -0.2586
   97MOL0     C12737   0.071   9.803   6.836 -0.1219  1.4895 -0.2032
   97MOL0     C12738   0.170   9.884   6.787  0.2253 -0.0554 -0.2198
   97MOL0     H12739   0.652  10.003   6.799  1.9654 -1.0465  2.3281
   97MOL0     H12740   0.870   9.953   6.857 -3.4139  0.8337  1.4890
   97MOL0     H12741   1.102   9.933   6.821 -0.6967 -0.5444  0.1755
   97MOL0     H12742   1.119   9.940   6.642 -0.7680  2.8912  1.3639
   97MOL0     H12743   1.296   9.819   6.869  1.5745 -1.6849 -0.2915
   97MOL0     H12744   1.334   9.926   6.738 -3.8462  2.3650  0.3054
   97MOL0     H12745   1.293   9.741   6.572 -2.0771  0.0313  0.6867
   97MOL0     H12746   1.275   9.627   6.701 -0.3230  0.0677 -1.9836
   97MOL0     H12747   1.495   9.674   6.790 -2.0484  1.5289  0.8147
   97MOL0     H12748   1.499   9.599   6.628  1.0710  1.3030 -1.8587
   97MOL0     H12749   1.548   9.880   6.716  2.0710 -1.5373  2.1836
   97MOL0     H12750   1.532   9.854   6.542 -0.1376 -1.9829 -0.5461
   97MOL0     H12751   1.715   9.696   6.535 -1.8398  0.2282  0.7296
   97MOL0     H12752   1.761   9.723   6.699 -0.7652  1.9659  0.4830
   97MOL0     H12753   1.733   9.932   6.480 -2.1902 -0.1951  1.6448
   97MOL0     H12754   1.774   9.970   6.654  1.9610  0.8963  0.2425
   97MOL0     H12755   1.960   9.778   6.508  1.1146 -1.1842  0.8379
   97MOL0     H12756   1.968   9.858   6.665 -3.0516 -0.9340  0.5086
   97MOL0     H12757   2.217   9.943   6.541  0.8695 -0.8273 -0.2563
   97MOL0     H12758   2.288  10.297   6.437  0.4446  1.0657 -2.1712
   97MOL0     H12759   2.315  10.198   6.294  1.1417 -0.7961  0.8137
   97MOL0     H12760   2.433  10.044   6.417 -3.5519 -0.2424 -2.1680
   97MOL0     H12761   2.373  10.091   6.579  2.6786 -0.4820  0.4364
   97MOL0     H12762   2.511  10.312   6.440 -1.2825  2.7017  1.4525
   97MOL0     H12763   2.481  10.269   6.615  0.9221 -1.8252  0.6379
   97MOL0     H12764   2.647  10.095   6.420 -1.3937 -3.2977  0.6385
   97MOL0     H12765   2.613  10.055   6.587 -2.1523  2.4740  2.0260
   97MOL0     H12766   2.925  10.313   6.473 -3.0985  0.5153  3.2833
   97MOL0     H12767   3.158  10.206   6.421 -0.6958  0.0974 -0.6105
   97MOL0     H12768   3.430   9.847   6.342  1.6595 -0.0509 -1.6189
   97MOL0     H12769   3.669   9.782   6.318  0.7255 -1.6156  1.7136
   97MOL0     H12770   3.956   9.945   6.640  1.8127  3.0013  0.3157
   97MOL0     H12771   3.954  10.037   6.493  0.0009  0.0352  2.2173
   97MOL0     H12772   4.123   9.852   6.388 -1.8492  2.0601 -0.1778
   97MOL0     H12773   4.100   9.764   6.538 -0.2565  0.7889  1.0924
   97MOL0     H12774   4.203   9.926   6.683  2.6826 -2.0013  0.2911
   97MOL0     H12775   4.220  10.047   6.565 -2.1031 -0.4600 -1.7546
   97MOL0     H12776   4.335   9.767   6.524  0.9222  0.4624  2.1375
   97MOL0     H12777   4.365   9.911   6.418  2.4752 -1.0688 -0.8484
   97MOL0     H12778   4.451   9.860   6.704 -1.5122  0.9853  0.4200
   97MOL0     H12779   4.475  10.013   6.627  1.9240 -0.1666 -1.9046
   97MOL0     H12780   4.617   9.903   6.453 -1.4792 -0.1061  0.3353
   97MOL0     H12781   4.609   9.749   6.539  1.6105  0.6110 -0.2586
   97MOL0     H12782   4.744  10.006   6.637 -1.9441  0.4538 -2.4004
   97MOL0     H12783   4.706   9.864   6.731  0.5081  2.7732  1.2303
   97MOL0     H12784   4.866   9.864   6.466 -4.3429  0.0766  0.1343
   97MOL0     H12785   4.863   9.734   6.576 -0.6643  0.2708 -0.5738
   97MOL0     H12786   3.773  10.026   6.651  1.0144  1.1664 -0.8245
   97MOL0     H12787   3.548  10.142   6.636  0.6735 -0.5692  2.6804
   97MOL0     H12788   3.016   9.853   6.633 -0.8262  0.7022  2.4848
   97MOL0     H12789   2.796   9.955   6.643 -1.9342 -0.4591 -4.2443
   97MOL0     H12790   0.907   9.681   6.536  0.8214  0.4244 -0.6662
   97MOL0     H12791   0.677   9.704   6.477 -0.0858 -0.6948  0.0481
   97MOL0     H12792   0.326   9.657   6.591 -1.9292 -0.5402 -0.4116
   97MOL0     H12793   0.133   9.524   6.653 -1.9561  1.8773 -3.1517
   97MOL0     H12794  -0.024   9.411   6.764 -0.5884 -2.3130 -0.6934
   97MOL0     H12795  -0.136   9.500   6.654  2.7430  2.4840  0.0220
   97MOL0     H12796  -0.251   9.332   6.750  0.5122 -1.0593  3.1003
   97MOL0     H12797  -0.200   9.370   6.912  2.0412 -0.2109 -0.3861
   97MOL0     H12798  -0.414   9.530   6.751 -1.0993  2.4155  0.7767
   97MOL0     H12799  -0.331   9.596   6.890 -0.1219  1.0139 -1.8353
   97MOL0     H12800  -0.423   9.415   7.039 -1.4944  0.1630  0.2709
   97MOL0     H12801  -0.540   9.517   6.948 -0.3892 -1.4920  0.0724
   97MOL0     H12802  -0.553   9.106   6.789 -0.7393  0.0397 -1.2256
   97MOL0     H12803  -0.005   9.846   6.901 -1.1949  3.8003 -2.7238
   97MOL0     H12804   0.172   9.989   6.816 -3.0421  0.3493 -1.0620
   98MOL0     O12805   6.494   1.208   4.989 -0.6268 -0.1697  0.1872
   98MOL0     C12806   6.548   1.256   4.895  0.6600  0.1531  0.8366
   98MOL0     O12807   6.484   1.325   4.791  0.2303  0.2841  0.9476
   98MOL0     C12808   6.356   1.356   4.818  0.0214  0.4997  0.6806
   98MOL0     C12809   6.323   1.490   4.846  0.2717 -1.2106 -0.8504
   98MOL0     C12810   6.200   1.537   4.868 -0.0286 -0.6259 -0.2203
   98MOL0     C12811   6.091   1.448   4.848 -1.2531  0.1207  1.1413
   98MOL0     O12812   5.966   1.504   4.849  0.2430 -1.6636 -0.9963
   98MOL0     C12813   5.866   1.440   4.776  0.3701  1.1442  0.1793
   98MOL0     C12814   5.745   1.523   4.747 -0.8983 -0.1428 -0.3158
   98MOL0     C12815   5.648   1.545   4.868 -0.3345 -0.4063 -0.1518
   98MOL0     C12816   5.535   1.638   4.820  0.3694 -0.0653  0.3223
   98MOL0     C12817   5.438   1.570   4.713 -0.3250 -0.2244 -0.3458
   98MOL0     C12818   5.363   1.451   4.765 -0.0338  0.2610  0.6250
   98MOL0     C12819   5.267   1.413   4.647 -0.5200 -0.2190 -0.1815
   98MOL0     C12820   5.208   1.266   4.668 -0.0151 -0.4064  0.5303
   98MOL0     N12821   5.145   1.232   4.537  0.0824  0.1515  0.6806
   98MOL0     C12822   5.023   1.167   4.519  0.0732  0.1301 -0.5659
   98MOL0     C12823   5.028   1.107   4.393  0.6273 -0.5085 -0.9288
   98MOL0     C12824   4.925   1.018   4.332  1.2688  0.5546  0.2675
   98MOL0     C12825   4.837   1.096   4.228  0.2447  0.8259 -0.1413
   98MOL0     C12826   4.785   0.978   4.136  0.6792 -0.3592  1.0878
   98MOL0     C12827   4.717   1.007   4.005 -0.2439  0.0289  1.1739
   98MOL0     O12828   4.585   1.063   4.027 -0.0834 -0.9823  0.5890
   98MOL0     C12829   4.492   1.058   3.934 -0.2051 -0.0022  0.6754
   98MOL0     C12830   4.496   0.983   3.817 -0.3208 -0.2963 -0.6991
   98MOL0     C12831   4.408   0.991   3.725  0.8679  0.0057  0.5179
   98MOL0     C12832   4.305   1.081   3.743  0.0010  0.0936  0.4419
   98MOL0     C12833   4.198   1.106   3.644  0.6161  0.4583 -0.5410
   98MOL0     O12834   4.235   1.120   3.516 -0.1422  0.4792 -0.2017
   98MOL0     C12835   4.142   1.170   3.428 -0.2878 -0.1100 -0.0703
   98MOL0     C12836   4.196   1.259   3.332 -0.6188  0.2387 -0.2207
   98MOL0     C12837   4.113   1.310   3.230 -0.1774 -0.3483  0.3767
   98MOL0     C12838   3.973   1.280   3.226 -1.1598  0.2723  0.2969
   98MOL0     O12839   3.905   1.341   3.120  0.1495  0.3443 -0.0655
   98MOL0     C12840   3.763   1.329   3.108 -0.0651 -0.0896 -0.6370
   98MOL0     C12841   3.739   1.204   3.021  0.7898  0.0885  0.7040
   98MOL0     C12842   3.584   1.186   2.981 -0.0582  0.1572  0.4780
   98MOL0     C12843   3.569   1.072   2.877 -0.2232 -0.3385 -0.0062
   98MOL0     C12844   3.422   1.046   2.841  0.1299  0.3495  0.2229
   98MOL0     C12845   3.332   1.172   2.814  1.0653 -0.4492  0.1411
   98MOL0     C12846   3.208   1.148   2.735  0.1205  0.8642  0.8713
   98MOL0     C12847   3.113   1.269   2.743 -0.6877  1.3941  0.6369
   98MOL0    Cl12848   3.190   1.422   2.685 -0.1802  0.1528  0.1167
   98MOL0     C12849   3.926   1.185   3.312 -0.3349  0.5216 -0.0038
   98MOL0     C12850   4.012   1.127   3.413 -0.3217  0.2143 -0.5941
   98MOL0     O12851   4.084   1.127   3.686 -0.5328  0.4637  0.1811
   98MOL0     C12852   4.289   1.154   3.861 -0.5174  0.8826  0.6008
   98MOL0     C12853   4.382   1.145   3.959 -0.0078  0.3646 -0.1789
   98MOL0     N12854   5.144   1.153   4.327 -0.3837 -1.0659 -0.7707
   98MOL0     N12855   5.208   1.225   4.414 -0.2036  0.2585 -0.5169
   98MOL0     C12856   6.120   1.312   4.828  0.5809 -0.0509  0.5515
   98MOL0     C12857   6.252   1.267   4.805  0.0832 -0.2319 -0.3366
   98MOL0     C12858   6.689   1.279   4.910  0.5193  0.2910  0.0161
   98MOL0     C12859   6.779   1.265   4.805 -0.3823  0.2610 -0.2595
   98MOL0     C12860   6.922   1.283   4.824  0.2007  0.4549  0.6434
   98MOL0     C12861   6.970   1.328   4.951 -0.5862  0.4430  0.4885
   98MOL0     O12862   7.100   1.345   4.986  0.2018 -0.4675 -0.1144
   98MOL0     C12863   7.205   1.322   4.897  0.2317 -0.5230  0.0283
   98MOL0     C12864   7.340   1.328   4.979  0.3690 -0.3015  0.2041
   98MOL0     C12865   7.398   1.472   4.991  0.1106 -0.0617  0.5390
   98MOL0     C12866   7.316   1.558   5.076 -0.3497 -0.2394  0.0475
   98MOL0     C12867   7.387   1.678   5.094 -0.2501  0.4893  0.3894
   98MOL0     C12868   7.451   1.772   5.123  0.2153 -0.1518 -1.6045
   98MOL0     C12869   6.881   1.345   5.055 -0.4766 -0.8610  0.0753
   98MOL0     C12870   6.737   1.329   5.032 -0.5651 -0.9302  0.0563
   98MOL0     H12871   6.412   1.552   4.854 -0.5431  0.3303 -3.0299
   98MOL0     H12872   6.181   1.643   4.881 -1.6516 -0.7013 -1.6877
   98MOL0     H12873   5.820   1.360   4.835  1.2417  1.1643  0.9173
   98MOL0     H12874   5.920   1.391   4.695  3.2353  3.0081  0.8267
   98MOL0     H12875   5.699   1.488   4.654  2.8970  2.2445 -3.4754
   98MOL0     H12876   5.793   1.621   4.731 -0.0820 -0.0433  2.3262
   98MOL0     H12877   5.687   1.585   4.962  1.3546 -3.1871  0.4730
   98MOL0     H12878   5.604   1.448   4.897 -3.2303  0.7235 -0.4128
   98MOL0     H12879   5.473   1.684   4.898 -0.3441 -0.1165 -0.2068
   98MOL0     H12880   5.585   1.707   4.751 -0.7834 -3.4035 -4.3659
   98MOL0     H12881   5.494   1.548   4.622 -0.3090  0.1536 -0.4282
   98MOL0     H12882   5.369   1.646   4.674 -0.0727  0.7563  1.0457
   98MOL0     H12883   5.307   1.469   4.857 -0.5241 -0.1116  0.4087
   98MOL0     H12884   5.435   1.370   4.773  0.3596  0.7619  2.6303
   98MOL0     H12885   5.189   1.490   4.639 -1.0308 -0.6828  0.2641
   98MOL0     H12886   5.320   1.421   4.552 -1.5627  0.4054 -0.7332
   98MOL0     H12887   5.137   1.260   4.751  0.6104 -0.4117  1.0707
   98MOL0     H12888   5.289   1.195   4.689 -1.0012 -2.1198 -1.1465
   98MOL0     H12889   4.952   1.146   4.598  0.0061 -0.8119 -0.8638
   98MOL0     H12890   4.867   0.964   4.408  0.8075  1.7439  0.7879
   98MOL0     H12891   4.987   0.951   4.271 -1.6865 -0.9925 -1.2890
   98MOL0     H12892   4.899   1.164   4.169 -1.7254  0.8922 -2.3135
   98MOL0     H12893   4.750   1.147   4.269 -0.8922 -0.4532 -0.8736
   98MOL0     H12894   4.866   0.909   4.114 -0.4116 -1.3333 -0.0144
   98MOL0     H12895   4.714   0.921   4.197  2.9457 -3.3865  1.0964
   98MOL0     H12896   4.715   0.912   3.949 -1.0623  0.4856  0.3963
   98MOL0     H12897   4.779   1.076   3.947 -0.4255 -1.6889 -1.2637
   98MOL0     H12898   4.581   0.921   3.789 -1.0155 -0.7220 -1.9512
   98MOL0     H12899   4.415   0.949   3.625  0.1636  2.9692 -0.8686
   98MOL0     H12900   4.290   1.307   3.357 -0.5772  0.8342 -1.4442
   98MOL0     H12901   4.160   1.384   3.166 -0.0261 -1.3846 -0.7602
   98MOL0     H12902   3.722   1.415   3.054 -4.2397 -2.9599 -2.5420
   98MOL0     H12903   3.721   1.327   3.209  2.3691  1.0440  0.4968
   98MOL0     H12904   3.780   1.115   3.070  0.5445 -0.2027  0.3853
   98MOL0     H12905   3.804   1.231   2.938  0.6478 -1.8492 -0.0883
   98MOL0     H12906   3.558   1.285   2.943  0.7969 -0.2376 -1.2170
   98MOL0     H12907   3.533   1.160   3.075 -0.8651 -1.9676 -0.4834
   98MOL0     H12908   3.630   1.092   2.788  0.5350  2.3852  1.0052
   98MOL0     H12909   3.584   0.973   2.921 -3.5545 -1.8163 -1.8268
   98MOL0     H12910   3.379   0.994   2.928  1.1054  1.4568  1.4164
   98MOL0     H12911   3.419   0.983   2.751  0.8301 -2.1445  1.8183
   98MOL0     H12912   3.389   1.245   2.754 -1.0407 -0.2727 -1.7745
   98MOL0     H12913   3.314   1.214   2.913 -1.0390 -0.5861 -0.1452
   98MOL0     H12914   3.233   1.120   2.632 -0.4660  0.3511  0.8668
   98MOL0     H12915   3.157   1.063   2.781  0.6442 -0.2120 -0.4781
   98MOL0     H12916   3.094   1.276   2.850 -0.5130 -1.0801  0.8888
   98MOL0     H12917   3.017   1.246   2.695  0.6198  0.4276 -1.7014
   98MOL0     H12918   3.828   1.140   3.302  1.4633 -3.5458 -1.6209
   98MOL0     H12919   3.969   1.054   3.480 -3.2093  0.4919 -2.0286
   98MOL0     H12920   4.205   1.216   3.892  0.8262  3.0709  0.0312
   98MOL0     H12921   4.385   1.204   4.051 -0.7393 -1.2665  0.9468
   98MOL0     H12922   6.034   1.245   4.819  0.0163  0.8995 -2.1073
   98MOL0     H12923   6.279   1.165   4.782  0.1140 -0.0606 -1.0774
   98MOL0     H12924   6.753   1.236   4.704  0.0584 -0.4967 -0.1653
   98MOL0     H12925   6.989   1.268   4.740 -1.1364 -0.8617 -0.2316
   98MOL0     H12926   7.207   1.400   4.820  2.2426  0.5772  1.1222
   98MOL0     H12927   7.203   1.226   4.843 -3.3480 -0.4073 -0.2259
   98MOL0     H12928   7.324   1.286   5.079  0.2043 -0.0478  0.2857
   98MOL0     H12929   7.416   1.270   4.927  0.9078  0.7472 -0.2067
   98MOL0     H12930   7.411   1.518   4.893 -1.4263  0.7661  0.6874
   98MOL0     H12931   7.496   1.454   5.036 -0.3542  1.9269  2.5195
   98MOL0     H12932   7.218   1.572   5.030 -0.2525 -1.4550 -0.5685
   98MOL0     H12933   7.301   1.510   5.173  2.4577 -0.1375  0.6175
   98MOL0     H12934   7.485   1.867   5.159 -2.1442  0.7361 -1.5471
   98MOL0     H12935   6.919   1.380   5.151 -0.4750  1.1659 -0.6112
   98MOL0     H12936   6.674   1.336   5.120 -1.3593 -2.4730 -0.3531
   99MOL0     O12937   6.261   6.491  10.755  0.5380 -0.3273 -0.4562
   99MOL0     C12938   6.295   6.605  10.726  0.4337 -0.5935 -1.1365
   99MOL0     O12939   6.221   6.725  10.760 -0.0389  0.2252 -0.1268
   99MOL0     C12940   6.090   6.701  10.791  0.2494  0.3267  0.4779
   99MOL0     C12941   6.043   6.754  10.907  1.1976 -0.0579  0.2724
   99MOL0     C12942   5.909   6.739  10.941  0.8058  0.1364  0.6828
   99MOL0     C12943   5.819   6.668  10.857  0.4055 -0.2925 -0.5675
   99MOL0     O12944   5.693   6.639  10.899 -0.1824 -0.4493 -0.2533
   99MOL0     C12945   5.656   6.502  10.902 -0.0133 -0.2951 -0.4574
   99MOL0     C12946   5.494   6.498  10.919 -0.1668  0.3934 -0.1621
   99MOL0     C12947   5.423   6.544  10.797  0.0696  0.4341  0.5491
   99MOL0     C12948   5.272   6.523  10.824  0.5159  0.1145  0.0275
   99MOL0     C12949   5.194   6.616  10.920 -1.4624 -0.8730 -0.2041
   99MOL0     C12950   5.221   6.761  10.894 -0.4046 -0.1492 -0.0192
   99MOL0     C12951   5.161   6.852  11.005 -0.6579  0.2555  0.3881
   99MOL0     C12952   5.250   6.846  11.130  0.2059 -0.0658 -0.0191
   99MOL0     N12953   5.204   6.948  11.226 -0.6684  0.0624 -0.7327
   99MOL0     C12954   5.156   6.908  11.348  0.5295 -0.0485  0.1275
   99MOL0     C12955   5.115   7.024  11.406 -0.4853  0.1508 -0.3653
   99MOL0     C12956   5.044   7.035  11.530  0.4292  0.3492 -0.4819
   99MOL0     C12957   4.893   7.036  11.518  0.6278 -0.1498 -0.1886
   99MOL0     C12958   4.825   7.066  11.653 -0.7790  0.1669 -0.2894
   99MOL0     C12959   4.676   7.053  11.634  0.7128 -0.4247 -0.7169
   99MOL0     O12960   4.617   7.162  11.564  0.3054 -0.4060  0.2104
   99MOL0     C12961   4.480   7.175  11.541  0.5822 -0.1630  1.4277
   99MOL0     C12962   4.380   7.086  11.582  0.4667 -0.1182  0.4538
   99MOL0     C12963   4.245   7.117  11.571 -0.6069  0.5744  0.5779
   99MOL0     C12964   4.203   7.241  11.506 -0.0229  0.5853 -0.2822
   99MOL0     C12965   4.066   7.272  11.485  0.2602 -1.0476 -0.0950
   99MOL0     O12966   4.036   7.402  11.455 -0.2191 -0.5814  0.2347
   99MOL0     C12967   3.912   7.428  11.413  0.9464 -0.4310 -0.9524
   99MOL0     C12968   3.798   7.395  11.482 -0.2943  0.7208 -0.5338
   99MOL0     C12969   3.676   7.432  11.448 -0.0926 -0.1595  0.5340
   99MOL0     C12970   3.660   7.529  11.343 -0.2212  0.4856 -0.1876
   99MOL0     O12971   3.551   7.601  11.311 -0.2411  0.1383  0.3932
   99MOL0     C12972   3.424   7.525  11.331 -0.6093  0.4654  0.4487
   99MOL0     C12973   3.303   7.599  11.269 -0.5032  0.3354  0.2495
   99MOL0     C12974   3.169   7.548  11.330  0.3220 -0.2820 -0.9066
   99MOL0     C12975   3.143   7.404  11.287 -0.0347 -0.1390  0.1360
   99MOL0     C12976   3.010   7.398  11.204 -0.6557 -0.0715  0.7799
   99MOL0     C12977   2.883   7.411  11.289  0.3853  0.4084  0.1320
   99MOL0     C12978   2.804   7.540  11.256 -0.8093  0.1660 -0.8970
   99MOL0     C12979   2.676   7.554  11.333  0.0484  0.1287 -0.6160
   99MOL0    Cl12980   2.582   7.396  11.327  0.4301  0.2662 -0.3776
   99MOL0     C12981   3.775   7.556  11.258 -0.1602 -0.2046  0.2762
   99MOL0     C12982   3.898   7.497  11.293  0.1708  0.5449 -0.1697
   99MOL0     O12983   3.980   7.184  11.499  0.3029 -0.0308 -0.5601
   99MOL0     C12984   4.303   7.330  11.469 -1.0994  0.5398 -0.7179
   99MOL0     C12985   4.436   7.293  11.480 -0.2019  0.6794 -1.4737
   99MOL0     N12986   5.159   7.125  11.315 -0.6284 -0.0714  0.5991
   99MOL0     N12987   5.202   7.081  11.204  0.2491 -0.3006  0.7256
   99MOL0     C12988   5.865   6.620  10.736 -0.4973 -0.0887  0.2690
   99MOL0     C12989   6.003   6.630  10.698 -0.4143  0.0279  0.3424
   99MOL0     C12990   6.428   6.616  10.663  0.0943 -0.7554  0.5895
   99MOL0     C12991   6.504   6.497  10.637 -0.7640 -0.2799 -0.7000
   99MOL0     C12992   6.629   6.504  10.564 -0.1830  0.8313 -0.2829
   99MOL0     C12993   6.686   6.625  10.530 -0.7627  1.0092 -1.2266
   99MOL0     O12994   6.808   6.637  10.467 -0.1879  0.3685 -0.9089
   99MOL0     C12995   6.914   6.549  10.513 -0.0407 -0.1489 -0.5600
   99MOL0     C12996   7.044   6.611  10.475  0.0317 -0.2799  0.2937
   99MOL0     C12997   7.155   6.513  10.512  0.3681  0.2469  0.2139
   99MOL0     C12998   7.299   6.552  10.465  0.0926 -0.5013  0.5039
   99MOL0     C12999   7.405   6.446  10.446 -0.0260  0.1548  0.4961
   99MOL0     C13000   7.496   6.362  10.437  0.1834  0.4006 -0.5945
   99MOL0     C13001   6.612   6.738  10.554  0.1305 -0.1846 -0.0096
   99MOL0     C13002   6.484   6.740  10.623 -1.0552  0.3456  0.5768
   99MOL0     H13003   6.103   6.796  10.987 -2.2005  1.9432  1.9873
   99MOL0     H13004   5.900   6.763  11.047  1.6204  1.6265  0.4498
   99MOL0     H13005   5.714   6.457  10.983 -1.8602 -1.2024  0.4420
   99MOL0     H13006   5.687   6.442  10.816 -0.9815  1.0132 -1.7692
   99MOL0     H13007   5.461   6.548  11.010  2.3480  0.6801  0.6855
   99MOL0     H13008   5.485   6.392  10.944 -0.1808  0.5517  0.5254
   99MOL0     H13009   5.454   6.484  10.711 -0.9105 -1.2585  1.3358
   99MOL0     H13010   5.449   6.645  10.763  1.3213 -0.8370 -2.5920
   99MOL0     H13011   5.233   6.545  10.724  1.6606  0.1272 -0.4414
   99MOL0     H13012   5.242   6.422  10.854  0.4714  0.3979  0.9601
   99MOL0     H13013   5.218   6.593  11.024 -1.1016 -1.1625 -0.3479
   99MOL0     H13014   5.088   6.595  10.908 -1.6020  0.4773 -1.7531
   99MOL0     H13015   5.162   6.778  10.803 -0.9032 -3.9284 -0.5463
   99MOL0     H13016   5.326   6.784  10.870  0.1706 -4.1221 -2.0358
   99MOL0     H13017   5.150   6.956  10.972 -0.0785 -0.6798 -3.1636
   99MOL0     H13018   5.063   6.826  11.046 -0.0436  0.6196  2.1581
   99MOL0     H13019   5.358   6.859  11.115  0.0865 -0.0280 -0.9169
   99MOL0     H13020   5.236   6.749  11.179 -2.4301  2.1606  4.2468
   99MOL0     H13021   5.144   6.808  11.387 -0.1426 -0.2383 -0.5348
   99MOL0     H13022   5.075   7.120  11.591 -0.6051  0.0047  0.5452
   99MOL0     H13023   5.064   6.941  11.582  4.0920 -0.3827 -2.7649
   99MOL0     H13024   4.870   6.936  11.482  2.0493 -0.7707  0.5578
   99MOL0     H13025   4.865   7.103  11.436  2.6933 -1.5235 -2.1468
   99MOL0     H13026   4.865   6.995  11.726  0.7548  1.8690  0.5884
   99MOL0     H13027   4.850   7.166  11.691 -1.3105 -0.5296  2.0936
   99MOL0     H13028   4.631   7.043  11.733 -2.3102 -3.1848 -2.1960
   99MOL0     H13029   4.645   6.963  11.579  0.5255  0.0833 -1.4685
   99MOL0     H13030   4.400   6.991  11.631 -1.9957  0.8772  3.8145
   99MOL0     H13031   4.175   7.034  11.575  1.7571 -1.5338  0.2306
   99MOL0     H13032   3.805   7.342  11.577 -1.5685  1.5840  0.0675
   99MOL0     H13033   3.597   7.408  11.518 -0.5231  1.4654  0.6603
   99MOL0     H13034   3.403   7.519  11.438 -0.0714  4.2338  0.9283
   99MOL0     H13035   3.435   7.426  11.286  2.7691  1.4118 -1.1117
   99MOL0     H13036   3.299   7.599  11.160 -1.1298  2.6485  0.2103
   99MOL0     H13037   3.315   7.706  11.290 -2.0225  0.4014  0.9533
   99MOL0     H13038   3.091   7.616  11.294 -0.3745 -1.6659 -2.1085
   99MOL0     H13039   3.166   7.560  11.439 -2.7472  0.9198 -0.9978
   99MOL0     H13040   3.221   7.379  11.215  0.1591  1.4179 -0.2407
   99MOL0     H13041   3.139   7.321  11.357  0.8528 -0.3308 -0.0250
   99MOL0     H13042   3.008   7.297  11.162 -0.7623 -0.8152  2.4644
   99MOL0     H13043   3.020   7.465  11.119 -1.2664 -2.0285 -0.9187
   99MOL0     H13044   2.916   7.407  11.393  2.5066 -1.2826 -0.5006
   99MOL0     H13045   2.822   7.322  11.270 -0.6525  0.7551  1.7211
   99MOL0     H13046   2.862   7.629  11.282 -1.8378  0.9787 -1.3356
   99MOL0     H13047   2.780   7.548  11.149 -0.1784 -0.4235 -1.0942
   99MOL0     H13048   2.622   7.642  11.296 -1.0742  0.6014  1.9477
   99MOL0     H13049   2.708   7.577  11.435  1.0900  1.6513 -1.2394
   99MOL0     H13050   3.757   7.604  11.163  1.8299 -0.5948 -0.3385
   99MOL0     H13051   3.988   7.505  11.232 -0.3131  1.6553 -0.7737
   99MOL0     H13052   4.283   7.427  11.424  2.1087  0.3953 -2.8097
   99MOL0     H13053   4.515   7.360  11.447  1.7153 -1.0757 -0.7178
   99MOL0     H13054   5.816   6.550  10.668 -1.1802  1.2375 -0.6385
   99MOL0     H13055   6.048   6.577  10.615 -1.4312 -0.8129  0.3154
   99MOL0     H13056   6.474   6.402  10.679  0.1791 -0.3696 -0.2098
   99MOL0     H13057   6.697   6.421  10.545  1.2946  2.2761 -1.5799
   99MOL0     H13058   6.906   6.452  10.463 -0.3348 -0.3597 -0.1144
   99MOL0     H13059   6.912   6.533  10.621  0.0367 -0.4388 -0.6008
   99MOL0     H13060   7.040   6.641  10.370 -0.8863  1.9272  0.9168
   99MOL0     H13061   7.058   6.701  10.535 -6.1107  1.7168 -0.6072
   99MOL0     H13062   7.133   6.424  10.452  1.5278 -1.0640  1.6328
   99MOL0     H13063   7.150   6.489  10.618  0.0337 -0.4317  0.0508
   99MOL0     H13064   7.303   6.615  10.376  2.2828  0.8382  1.4785
   99MOL0     H13065   7.324   6.617  10.549  1.6381  0.8006 -0.8960
   99MOL0     H13066   7.581   6.296  10.447  0.0517  0.1733 -0.9617
   99MOL0     H13067   6.638   6.842  10.541 -0.0258  0.3025  2.9645
   99MOL0     H13068   6.438   6.837  10.642  0.1578  0.9665  0.5032
  100MOL0     O13069   5.738  10.168   4.945 -0.0049 -0.8267  0.1587
  100MOL0     C13070   5.653  10.254   4.922 -1.7694  1.3536  0.2124
  100MOL0     O13071   5.521  10.232   4.924  0.2464 -0.5146  0.6135
  100MOL0     C13072   5.475  10.109   4.932  0.4014  0.5218  0.2368
  100MOL0     C13073   5.397  10.084   5.051 -0.0391 -0.0600  0.7609
  100MOL0     C13074   5.363   9.956   5.087  0.0735  0.4618  0.3163
  100MOL0     C13075   5.377   9.855   4.994  1.1057 -0.6230  0.7009
  100MOL0     O13076   5.329   9.735   5.022  0.1781 -0.1066  0.1079
  100MOL0     C13077   5.289   9.652   4.911 -0.1489  0.1918  0.1084
  100MOL0     C13078   5.223   9.516   4.958 -1.0941  0.2970 -0.4332
  100MOL0     C13079   5.066   9.533   4.971 -0.3345  0.2276 -0.0313
  100MOL0     C13080   4.997   9.430   5.050 -0.1919  0.3198 -0.1107
  100MOL0     C13081   4.850   9.451   5.022 -0.1101  0.6482 -0.1577
  100MOL0     C13082   4.762   9.341   5.078  1.1864  0.7517 -0.6925
  100MOL0     C13083   4.614   9.361   5.090  0.0709 -0.1646  1.0541
  100MOL0     C13084   4.555   9.334   4.948 -0.2043  0.5285 -0.2271
  100MOL0     N13085   4.406   9.356   4.934 -0.2951  1.6372  0.4480
  100MOL0     C13086   4.324   9.462   4.972  0.7697 -0.7124  0.3811
  100MOL0     C13087   4.203   9.441   4.918 -0.2809 -0.3781  0.0802
  100MOL0     C13088   4.084   9.529   4.909 -0.4509  0.1334  0.3498
  100MOL0     C13089   4.046   9.545   4.751 -0.6351 -0.6438 -0.4129
  100MOL0     C13090   3.898   9.605   4.752 -0.4905 -0.6637  0.0169
  100MOL0     C13091   3.856   9.674   4.613  0.0290 -0.4628  0.6263
  100MOL0     O13092   3.718   9.705   4.628  0.3011 -0.1493  0.0587
  100MOL0     C13093   3.651   9.763   4.519  0.2983 -0.1045 -1.2506
  100MOL0     C13094   3.699   9.784   4.393  0.3091  0.3179 -0.2643
  100MOL0     C13095   3.633   9.861   4.297  0.2105 -0.2607  0.5079
  100MOL0     C13096   3.502   9.904   4.328  0.4967 -0.6064  0.6519
  100MOL0     C13097   3.424   9.977   4.227  0.4635  0.6268  0.1928
  100MOL0     O13098   3.469   9.970   4.101  0.7833  0.4520  0.5601
  100MOL0     C13099   3.406  10.039   4.003  0.5242 -0.5759  0.0055
  100MOL0     C13100   3.270  10.026   3.978  0.3698  0.1487 -0.1182
  100MOL0     C13101   3.206  10.094   3.874  0.2895 -1.0267  0.2290
  100MOL0     C13102   3.286  10.192   3.810 -0.1618  0.5985  0.7382
  100MOL0     O13103   3.229  10.272   3.716 -0.3167  0.0686  0.3102
  100MOL0     C13104   3.084  10.287   3.705  0.2948 -0.1894 -0.1315
  100MOL0     C13105   3.061  10.435   3.706 -0.1492  0.8884 -0.3472
  100MOL0     C13106   2.937  10.481   3.612 -0.9602  1.0257  1.1738
  100MOL0     C13107   2.937  10.632   3.578  0.0225 -0.2207  0.1477
  100MOL0     C13108   2.857  10.654   3.439 -0.7207 -0.4038 -0.6523
  100MOL0     C13109   2.791  10.785   3.438  0.6328  0.1144  0.8954
  100MOL0     C13110   2.712  10.800   3.304 -0.1332 -1.1752  0.8724
  100MOL0     C13111   2.624  10.927   3.302  0.3371 -0.2840  0.9118
  100MOL0    Cl13112   2.734  11.071   3.294 -0.0754  0.3273 -0.2917
  100MOL0     C13113   3.424  10.206   3.835 -0.8538  0.4788 -0.5416
  100MOL0     C13114   3.490  10.121   3.928  0.3203 -0.3848 -0.4031
  100MOL0     O13115   3.323  10.031   4.265  0.2058 -0.5229  0.3008
  100MOL0     C13116   3.448   9.880   4.459  0.9352 -0.3436 -0.0658
  100MOL0     C13117   3.525   9.817   4.558 -0.5393 -0.3767 -0.0128
  100MOL0     N13118   4.212   9.316   4.848 -0.1965 -0.1038  0.2630
  100MOL0     N13119   4.330   9.271   4.851 -0.4271 -1.0622  0.6056
  100MOL0     C13120   5.454   9.877   4.878 -0.0135 -0.1676  0.3011
  100MOL0     C13121   5.509  10.004   4.850 -0.3556 -0.6936  0.6646
  100MOL0     C13122   5.725  10.385   4.907  0.5405  1.1083 -0.2644
  100MOL0     C13123   5.864  10.405   4.885 -0.6860 -0.3100 -0.0265
  100MOL0     C13124   5.923  10.532   4.869 -0.1603 -0.6875 -0.3456
  100MOL0     C13125   5.843  10.640   4.852  0.6256  0.1639 -1.0374
  100MOL0     O13126   5.891  10.766   4.830  0.3131 -0.2025 -0.1413
  100MOL0     C13127   6.027  10.791   4.846 -0.9594  0.1693 -0.1800
  100MOL0     C13128   6.064  10.941   4.857  0.2764 -0.3615 -0.2156
  100MOL0     C13129   5.973  11.033   4.938  0.2176 -0.4699 -0.3604
  100MOL0     C13130   5.944  10.992   5.088  0.0175 -0.4621  0.3388
  100MOL0     C13131   6.055  10.994   5.176  0.2574 -0.9183  0.5991
  100MOL0     C13132   6.155  11.000   5.248 -0.1698 -0.2103  0.8954
  100MOL0     C13133   5.706  10.628   4.869  0.1037  0.5750 -0.6850
  100MOL0     C13134   5.650  10.506   4.892  0.6583 -0.1794 -0.5191
  100MOL0     H13135   5.368  10.158   5.124 -0.7139  1.0942 -0.6312
  100MOL0     H13136   5.309   9.926   5.177 -1.9833 -3.2268 -1.9127
  100MOL0     H13137   5.379   9.622   4.857  0.3315 -0.4092  1.2183
  100MOL0     H13138   5.230   9.709   4.839  0.2614  1.3219  0.6392
  100MOL0     H13139   5.270   9.490   5.054  0.1129 -1.6985 -1.4951
  100MOL0     H13140   5.235   9.434   4.887 -1.5205 -0.6817  0.5911
  100MOL0     H13141   5.033   9.548   4.868  3.0073  3.2361 -0.8441
  100MOL0     H13142   5.048   9.623   5.031 -0.9858  0.1926 -0.1618
  100MOL0     H13143   5.015   9.332   5.004  2.3270 -0.2553  1.8491
  100MOL0     H13144   5.031   9.417   5.153 -3.0792 -0.4863  0.8175
  100MOL0     H13145   4.829   9.453   4.914  0.1706 -0.3253 -0.2430
  100MOL0     H13146   4.811   9.539   5.074 -2.9278 -2.5711  3.7352
  100MOL0     H13147   4.789   9.327   5.183  0.5485 -1.2687 -0.7670
  100MOL0     H13148   4.781   9.242   5.038 -0.2376  0.4700 -0.7251
  100MOL0     H13149   4.584   9.280   5.157  2.8067 -1.5486  0.7684
  100MOL0     H13150   4.585   9.456   5.134 -1.8006 -0.5521  0.7356
  100MOL0     H13151   4.584   9.234   4.914 -0.6435  0.5279 -0.6124
  100MOL0     H13152   4.599   9.408   4.880 -1.4017  2.2428  0.7984
  100MOL0     H13153   4.356   9.552   5.023 -1.1594 -0.1770  0.6956
  100MOL0     H13154   4.122   9.622   4.952 -1.7488 -0.0634  1.9892
  100MOL0     H13155   3.999   9.484   4.962 -1.1641 -2.1709 -2.4794
  100MOL0     H13156   4.059   9.447   4.702  1.2679 -1.4944  1.6480
  100MOL0     H13157   4.119   9.609   4.701 -0.5150 -0.5228 -0.0790
  100MOL0     H13158   3.832   9.523   4.782  0.0538 -0.5408  1.6387
  100MOL0     H13159   3.886   9.687   4.824  2.4839 -0.0650 -0.0435
  100MOL0     H13160   3.879   9.601   4.535 -3.0155 -0.3371 -0.5268
  100MOL0     H13161   3.909   9.768   4.601  0.1513 -0.7009 -0.9440
  100MOL0     H13162   3.801   9.754   4.369  0.8902 -0.1687  2.4622
  100MOL0     H13163   3.683   9.872   4.202 -0.2010  1.8330  0.4868
  100MOL0     H13164   3.199   9.971   4.040  0.7715  1.7601  1.8629
  100MOL0     H13165   3.103  10.078   3.842  1.6180 -1.4670 -4.5317
  100MOL0     H13166   3.029  10.254   3.793 -0.9087 -0.8529 -1.1103
  100MOL0     H13167   3.034  10.240   3.620  1.7111 -0.3386 -0.9205
  100MOL0     H13168   3.155  10.483   3.675  0.2794  0.6491  0.5379
  100MOL0     H13169   3.040  10.461   3.810 -0.6718 -4.2866  1.1266
  100MOL0     H13170   2.843  10.449   3.659  0.1692 -1.5736  1.8360
  100MOL0     H13171   2.950  10.424   3.520  0.9205  1.5619  1.0834
  100MOL0     H13172   2.878  10.690   3.650 -1.3923  1.9300 -2.5410
  100MOL0     H13173   3.035  10.682   3.575 -0.7647  1.4618  1.0018
  100MOL0     H13174   2.785  10.573   3.426  0.6630 -1.7203 -0.2990
  100MOL0     H13175   2.929  10.644   3.358 -0.0915 -2.8994  0.1240
  100MOL0     H13176   2.862  10.866   3.457  1.8201 -0.7155  0.1294
  100MOL0     H13177   2.716  10.793   3.517  0.2317  1.1026  0.4411
  100MOL0     H13178   2.783  10.804   3.221 -0.2937  2.1877  0.7609
  100MOL0     H13179   2.649  10.712   3.288 -0.4092 -1.3224  2.6198
  100MOL0     H13180   2.553  10.926   3.385 -0.1540 -2.5874  0.5334
  100MOL0     H13181   2.568  10.923   3.208  3.3687  1.1534 -1.1271
  100MOL0     H13182   3.490  10.262   3.769 -1.1478 -1.7373 -2.8912
  100MOL0     H13183   3.598  10.126   3.944  0.3114  2.1879 -0.6898
  100MOL0     H13184   3.345   9.907   4.478 -0.0719 -4.7445  1.9812
  100MOL0     H13185   3.485   9.813   4.659 -0.5635  2.9202  0.2359
  100MOL0     H13186   5.476   9.798   4.806  2.1121  1.6541 -1.2055
  100MOL0     H13187   5.578  10.013   4.767  1.4469 -2.3971  1.8918
  100MOL0     H13188   5.930  10.318   4.883 -0.6212 -0.3354  1.5040
  100MOL0     H13189   6.031  10.536   4.858  0.0247  4.1685  1.0119
  100MOL0     H13190   6.073  10.750   4.755 -0.5656  0.7928 -0.2636
  100MOL0     H13191   6.061  10.732   4.932  2.6844 -2.0022 -2.7723
  100MOL0     H13192   6.170  10.940   4.882  0.5720 -2.5100 -1.2846
  100MOL0     H13193   6.060  10.983   4.756  1.1766  0.7055  0.1783
  100MOL0     H13194   5.877  11.038   4.887  0.2070 -0.8408 -0.3859
  100MOL0     H13195   6.021  11.131   4.942  1.1478 -0.9478  1.9234
  100MOL0     H13196   5.869  11.060   5.129  0.6755  2.7758 -3.2071
  100MOL0     H13197   5.906  10.890   5.089 -1.7514  0.0536  4.2094
  100MOL0     H13198   6.241  11.014   5.309  2.4534  3.7748 -3.1098
  100MOL0     H13199   5.637  10.710   4.851  0.4297  0.3389 -3.3515
  100MOL0     H13200   5.542  10.507   4.901  0.7741 -1.7111  1.9083
  101MOL0     O13201   5.451   7.767   9.513 -0.7166 -1.4853  0.3938
  101MOL0     C13202   5.471   7.657   9.570 -0.0000  0.1383  1.0052
  101MOL0     O13203   5.385   7.549   9.589  0.3816  0.3701  0.3100
  101MOL0     C13204   5.260   7.567   9.556  0.0525 -0.3102 -0.6733
  101MOL0     C13205   5.202   7.512   9.437 -0.2715 -0.0903  0.3551
  101MOL0     C13206   5.074   7.539   9.396 -0.0877 -0.6211 -0.2464
  101MOL0     C13207   4.992   7.621   9.480 -0.5012 -0.5680  0.3391
  101MOL0     O13208   4.862   7.647   9.439 -0.8185 -1.2211 -0.0002
  101MOL0     C13209   4.765   7.716   9.516 -0.0618 -0.8296 -0.2524
  101MOL0     C13210   4.706   7.648   9.635 -0.3382 -0.0738 -1.7102
  101MOL0     C13211   4.600   7.749   9.701  0.5101 -0.6249 -0.6184
  101MOL0     C13212   4.547   7.715   9.837 -0.5321 -0.5925  0.3468
  101MOL0     C13213   4.429   7.796   9.873  0.2144  0.3182  0.2048
  101MOL0     C13214   4.443   7.952   9.882 -0.3394  0.1319 -0.1670
  101MOL0     C13215   4.499   8.000  10.020  0.0981 -0.2341  0.6155
  101MOL0     C13216   4.654   7.994  10.018 -0.1270 -0.0108 -0.1437
  101MOL0     N13217   4.714   8.060  10.135  0.6669 -0.4258 -0.0304
  101MOL0     C13218   4.837   8.035  10.188  0.3403  0.3310 -0.2597
  101MOL0     C13219   4.840   8.115  10.303 -0.0857 -0.1690 -0.0086
  101MOL0     C13220   4.961   8.132  10.395  0.3775 -0.5552  0.3689
  101MOL0     C13221   5.045   8.261  10.382 -0.3784  1.1795  0.2380
  101MOL0     C13222   5.088   8.293  10.244 -0.5243 -0.7725 -0.0304
  101MOL0     C13223   5.211   8.209  10.191 -0.1475  0.3165 -0.1907
  101MOL0     O13224   5.328   8.245  10.266  0.2919 -0.4345  0.0975
  101MOL0     C13225   5.448   8.193  10.207 -0.5666 -1.0131 -0.8316
  101MOL0     C13226   5.570   8.240  10.259 -0.1370 -0.3163 -0.4338
  101MOL0     C13227   5.691   8.183  10.229  0.2147  0.0662  0.9483
  101MOL0     C13228   5.694   8.067  10.148 -0.1778  0.5446  0.2913
  101MOL0     C13229   5.825   8.009  10.108  0.3427 -0.3579 -0.2864
  101MOL0     O13230   5.816   7.898  10.024 -0.8962  0.3190 -0.2068
  101MOL0     C13231   5.940   7.836   9.984 -0.1785 -0.0847  1.4952
  101MOL0     C13232   6.019   7.772  10.076  0.1850  0.7014  0.5480
  101MOL0     C13233   6.144   7.723  10.033 -0.6021  0.7973  0.1418
  101MOL0     C13234   6.187   7.720   9.899 -0.8310  0.6711 -0.1335
  101MOL0     O13235   6.314   7.662   9.877  0.1568 -0.3445  0.2544
  101MOL0     C13236   6.387   7.701   9.763 -0.6918 -1.6406 -0.0740
  101MOL0     C13237   6.519   7.614   9.760 -0.1465  0.4428  0.2897
  101MOL0     C13238   6.611   7.645   9.887 -0.5381  0.0202 -0.7656
  101MOL0     C13239   6.729   7.544   9.885  1.2316 -0.7188 -0.1151
  101MOL0     C13240   6.791   7.519  10.027  0.1343 -0.7018 -0.4770
  101MOL0     C13241   6.716   7.416  10.115  0.8749 -0.8543 -0.6173
  101MOL0     C13242   6.780   7.409  10.258  0.8553 -0.0046 -0.5232
  101MOL0     C13243   6.703   7.302  10.338  0.5236 -0.5428 -0.2446
  101MOL0    Cl13244   6.778   7.139  10.317 -0.4877  0.2289 -0.0121
  101MOL0     C13245   6.100   7.781   9.807 -0.7873 -0.8910  0.0146
  101MOL0     C13246   5.982   7.840   9.855 -1.1118 -0.1124  0.1341
  101MOL0     O13247   5.926   8.066  10.139  0.0451 -0.4610 -0.4871
  101MOL0     C13248   5.576   8.011  10.104 -0.0488  0.2129 -0.2781
  101MOL0     C13249   5.455   8.070  10.131  1.2725 -0.2337 -0.3288
  101MOL0     N13250   4.731   8.202  10.300  0.3442  0.1698 -0.6485
  101MOL0     N13251   4.655   8.159  10.202 -0.7427  0.0288 -0.2849
  101MOL0     C13252   5.047   7.679   9.598  0.0950 -0.1137  0.2085
  101MOL0     C13253   5.181   7.648   9.636  0.3838 -0.0301 -0.3060
  101MOL0     C13254   5.612   7.628   9.598  1.0604 -0.3922 -0.5306
  101MOL0     C13255   5.646   7.519   9.679 -0.4499  0.3840  0.7916
  101MOL0     C13256   5.781   7.484   9.703 -0.3062  0.7373  1.2540
  101MOL0     C13257   5.885   7.561   9.640  0.4454 -0.5786 -0.5849
  101MOL0     O13258   6.012   7.524   9.634 -0.2718 -0.0624 -0.0194
  101MOL0     C13259   6.066   7.445   9.744 -0.3394  0.5102 -0.2235
  101MOL0     C13260   6.194   7.375   9.715 -1.1508  0.5656 -0.4359
  101MOL0     C13261   6.187   7.282   9.597 -0.6137 -0.7606 -0.0042
  101MOL0     C13262   6.121   7.151   9.626 -0.8708 -0.2132  0.1041
  101MOL0     C13263   5.977   7.144   9.609  0.0734  1.0033  0.9115
  101MOL0     C13264   5.858   7.155   9.582 -0.4304 -0.2259  0.3661
  101MOL0     C13265   5.849   7.683   9.576 -1.1437 -1.2041 -0.9194
  101MOL0     C13266   5.717   7.713   9.549  1.2742 -0.6603 -0.3147
  101MOL0     H13267   5.266   7.448   9.378 -0.0652  1.4967 -1.2230
  101MOL0     H13268   5.031   7.495   9.307  0.3811 -3.6072  0.8948
  101MOL0     H13269   4.682   7.736   9.447 -0.9248 -1.5782  0.5401
  101MOL0     H13270   4.801   7.815   9.544 -2.3738  0.1374 -0.4505
  101MOL0     H13271   4.788   7.620   9.703 -1.6484 -0.4319 -0.2166
  101MOL0     H13272   4.645   7.562   9.607 -0.6601 -0.1637 -0.7828
  101MOL0     H13273   4.523   7.770   9.626  2.4893  4.2929 -1.6371
  101MOL0     H13274   4.657   7.842   9.707 -0.2143 -0.2123  0.2743
  101MOL0     H13275   4.509   7.612   9.831 -0.4129 -0.5842 -0.9796
  101MOL0     H13276   4.622   7.714   9.916 -0.4613 -0.9005  0.2791
  101MOL0     H13277   4.394   7.756   9.969 -1.0351  0.8624  0.0010
  101MOL0     H13278   4.351   7.755   9.809  1.0138 -1.9688  0.6197
  101MOL0     H13279   4.342   7.993   9.879  0.4697  2.1769 -1.1791
  101MOL0     H13280   4.489   8.012   9.803 -0.9283  2.4603  1.1583
  101MOL0     H13281   4.473   8.105  10.037  0.5801 -0.2931  1.7661
  101MOL0     H13282   4.458   7.940  10.102  3.3912  0.0531  2.6544
  101MOL0     H13283   4.693   8.041   9.927 -0.4440  1.7799  0.5884
  101MOL0     H13284   4.689   7.891  10.017  3.2755  0.9131  2.5289
  101MOL0     H13285   4.908   7.969  10.138  0.1778  0.7420 -1.0511
  101MOL0     H13286   5.026   8.047  10.375 -1.2529 -1.6879 -0.3253
  101MOL0     H13287   4.918   8.123  10.495 -0.0861 -1.3265  0.1087
  101MOL0     H13288   5.128   8.268  10.454 -0.3971  1.1251  0.2646
  101MOL0     H13289   4.981   8.347  10.406 -0.1923  0.7138  2.7372
  101MOL0     H13290   5.010   8.284  10.168 -2.8056 -0.8891  2.2200
  101MOL0     H13291   5.122   8.397  10.253 -1.4798 -0.4710  0.1326
  101MOL0     H13292   5.215   8.221  10.082 -1.6888  1.6904 -0.1359
  101MOL0     H13293   5.175   8.106  10.203 -2.1080  0.9003 -0.6861
  101MOL0     H13294   5.564   8.314  10.338 -0.7660 -2.5127  1.7031
  101MOL0     H13295   5.782   8.223  10.272 -0.5259  1.8536  0.9721
  101MOL0     H13296   5.989   7.770  10.180  1.2749  1.8498  0.9089
  101MOL0     H13297   6.212   7.680  10.106  1.2856  0.8995 -1.4733
  101MOL0     H13298   6.409   7.808   9.770  1.7898 -2.0356 -0.9424
  101MOL0     H13299   6.331   7.699   9.669 -0.0025  2.6058 -0.7941
  101MOL0     H13300   6.579   7.637   9.672 -0.9217 -1.4818 -0.7978
  101MOL0     H13301   6.481   7.512   9.755  0.4774  0.1576  1.1944
  101MOL0     H13302   6.558   7.647   9.983 -0.3980  2.1851 -0.6855
  101MOL0     H13303   6.649   7.747   9.890  1.8379 -0.8172  1.4532
  101MOL0     H13304   6.689   7.451   9.844  1.3134 -0.2417 -1.3014
  101MOL0     H13305   6.809   7.580   9.820  3.4486 -0.0182  2.8048
  101MOL0     H13306   6.796   7.613  10.082  0.4934  0.3569 -2.2321
  101MOL0     H13307   6.890   7.480  10.002 -0.6787 -2.9752 -0.3730
  101MOL0     H13308   6.737   7.323  10.062  0.9556  0.9372 -4.0430
  101MOL0     H13309   6.608   7.431  10.111  0.6045 -2.7132 -2.5958
  101MOL0     H13310   6.875   7.362  10.230 -0.6630 -2.4098 -2.0421
  101MOL0     H13311   6.793   7.505  10.307  1.7841  0.8633 -2.3718
  101MOL0     H13312   6.596   7.285  10.321  0.2028 -2.1293  2.6701
  101MOL0     H13313   6.711   7.311  10.447  2.2522 -1.7302 -0.2253
  101MOL0     H13314   6.117   7.792   9.701 -0.4395 -0.0322  0.1476
  101MOL0     H13315   5.909   7.888   9.791 -0.9587 -0.8685 -0.6314
  101MOL0     H13316   5.572   7.920  10.045 -0.0313  0.8248 -1.2527
  101MOL0     H13317   5.358   8.030  10.102 -1.4189  2.5566  3.8084
  101MOL0     H13318   4.988   7.741   9.665 -1.8242 -3.3895  1.7989
  101MOL0     H13319   5.225   7.679   9.730 -2.2106 -1.1197  1.3949
  101MOL0     H13320   5.574   7.461   9.736 -2.3693  0.9057 -0.9865
  101MOL0     H13321   5.807   7.400   9.766  4.6557  1.2054  0.2935
  101MOL0     H13322   6.001   7.367   9.783 -0.3477  2.0991  3.3312
  101MOL0     H13323   6.079   7.511   9.830 -1.0759  2.3535 -1.4611
  101MOL0     H13324   6.270   7.451   9.694  0.2056 -1.1904 -2.2066
  101MOL0     H13325   6.222   7.318   9.805  0.7933 -0.1487 -1.4417
  101MOL0     H13326   6.290   7.257   9.569 -0.6342 -0.2876 -0.4946
  101MOL0     H13327   6.140   7.324   9.508  0.1735 -4.1772 -2.2194
  101MOL0     H13328   6.169   7.085   9.553 -0.5604  0.7280 -0.5626
  101MOL0     H13329   6.155   7.124   9.726 -0.2362  0.8726  0.1913
  101MOL0     H13330   5.753   7.155   9.560  0.2099 -0.0454 -3.3030
  101MOL0     H13331   5.924   7.744   9.527  1.2846 -2.3741  1.0956
  101MOL0     H13332   5.691   7.803   9.495 -1.9474 -2.9335 -2.9875
  102MOL0     O13333   4.551   5.368   2.010  0.3379  0.6281  0.6275
  102MOL0     C13334   4.608   5.452   2.075 -0.0843  0.7179 -0.0720
  102MOL0     O13335   4.562   5.525   2.183  0.6308 -0.0816  0.1077
  102MOL0     C13336   4.446   5.507   2.249  0.1613  0.0885  0.4708
  102MOL0     C13337   4.335   5.437   2.200  0.0745  0.2607 -0.1232
  102MOL0     C13338   4.219   5.430   2.268  0.2263  0.1419 -0.3906
  102MOL0     C13339   4.209   5.485   2.393 -0.1559 -0.1728  1.0044
  102MOL0     O13340   4.091   5.468   2.459 -0.7062 -0.6367 -0.4186
  102MOL0     C13341   4.071   5.520   2.586  0.2611 -0.0897  0.2566
  102MOL0     C13342   3.935   5.490   2.644 -0.0800  0.0387 -0.7140
  102MOL0     C13343   3.909   5.584   2.763 -0.0880 -0.3274  0.9204
  102MOL0     C13344   3.880   5.734   2.733 -0.4107  0.0135  0.7623
  102MOL0     C13345   3.853   5.821   2.853 -0.3704  0.0345 -0.4644
  102MOL0     C13346   3.720   5.774   2.929  0.7105 -0.3327 -0.1915
  102MOL0     C13347   3.671   5.875   3.031  0.4519  0.0987  0.2488
  102MOL0     C13348   3.610   6.007   2.964  0.5499  0.8366 -0.0197
  102MOL0     N13349   3.482   5.974   2.897 -0.5733  0.7240 -0.4058
  102MOL0     C13350   3.461   5.931   2.769  0.8168 -1.1607 -0.2120
  102MOL0     C13351   3.333   5.899   2.762  0.2851  0.3510 -1.0125
  102MOL0     C13352   3.282   5.828   2.639 -0.3024 -0.2613 -0.1077
  102MOL0     C13353   3.339   5.689   2.617  0.3554  0.0473 -0.4661
  102MOL0     C13354   3.320   5.641   2.476  0.0680 -0.0967 -0.7479
  102MOL0     C13355   3.359   5.492   2.453 -0.7745 -0.0846 -0.5709
  102MOL0     O13356   3.273   5.398   2.512  0.2865 -0.8009 -0.6133
  102MOL0     C13357   3.293   5.260   2.495  0.1511 -0.7452 -0.0443
  102MOL0     C13358   3.186   5.187   2.536  0.6664 -0.5433 -0.4806
  102MOL0     C13359   3.178   5.050   2.521  0.8025  0.3430  0.4203
  102MOL0     C13360   3.284   4.983   2.459 -0.2040  0.5371  0.4807
  102MOL0     C13361   3.277   4.836   2.438  0.3904 -0.3327  0.7681
  102MOL0     O13362   3.153   4.780   2.416 -0.7581 -0.3218 -0.3269
  102MOL0     C13363   3.129   4.651   2.374  0.5843  0.0604  0.9838
  102MOL0     C13364   3.005   4.592   2.421  0.7841 -0.1005 -0.5378
  102MOL0     C13365   2.977   4.458   2.405  0.1704  0.1216  0.6712
  102MOL0     C13366   3.065   4.380   2.319 -1.1526  0.3555 -0.7138
  102MOL0     O13367   3.043   4.246   2.284  0.4892 -0.2645 -0.6119
  102MOL0     C13368   2.921   4.192   2.336  0.1239 -0.2271  0.1763
  102MOL0     C13369   2.907   4.050   2.289  1.3098  0.5305  0.7462
  102MOL0     C13370   2.779   3.968   2.322 -0.3299  0.2956 -0.5241
  102MOL0     C13371   2.773   3.938   2.478 -0.9755 -0.3888 -0.2768
  102MOL0     C13372   2.637   3.970   2.538 -0.3042 -0.0822 -0.6780
  102MOL0     C13373   2.531   3.876   2.482  1.1728 -0.6216  0.3739
  102MOL0     C13374   2.394   3.915   2.541  0.4714  0.3959  0.4297
  102MOL0     C13375   2.285   3.826   2.487 -0.4535 -0.9564  0.0532
  102MOL0    Cl13376   2.131   3.896   2.539  0.0602 -0.1074  0.3776
  102MOL0     C13377   3.186   4.440   2.277  0.2801  0.2063  0.1120
  102MOL0     C13378   3.221   4.571   2.300 -0.1044 -0.6112  0.4284
  102MOL0     O13379   3.382   4.774   2.432  0.0981 -0.0410 -0.2119
  102MOL0     C13380   3.396   5.055   2.409 -0.1845  0.0856 -0.3907
  102MOL0     C13381   3.403   5.196   2.438 -0.0392  0.1317 -0.0093
  102MOL0     N13382   3.265   5.946   2.875 -0.3295  0.0399  0.4538
  102MOL0     N13383   3.354   5.991   2.947 -0.0935 -0.1585  0.2455
  102MOL0     C13384   4.320   5.551   2.445  0.0798 -0.6076 -0.6472
  102MOL0     C13385   4.435   5.560   2.372 -0.3588  0.6453 -0.4112
  102MOL0     C13386   4.739   5.481   2.027 -0.2217  0.2809  0.0300
  102MOL0     C13387   4.772   5.453   1.894  0.8011 -0.3808 -0.0643
  102MOL0     C13388   4.906   5.472   1.858  0.1489  0.0068  0.8669
  102MOL0     C13389   5.002   5.515   1.945 -0.7282  0.3461 -0.8793
  102MOL0     O13390   5.125   5.523   1.894 -1.0340 -0.3610  0.5371
  102MOL0     C13391   5.223   5.597   1.970  0.9482  0.5370  0.2752
  102MOL0     C13392   5.352   5.627   1.896  0.5814 -0.0774 -0.2317
  102MOL0     C13393   5.456   5.675   1.994  0.8127  0.4123  0.2322
  102MOL0     C13394   5.540   5.567   2.058 -0.5150  0.0252 -0.5874
  102MOL0     C13395   5.598   5.469   1.968 -0.3762  0.2369 -0.0133
  102MOL0     C13396   5.657   5.386   1.904  0.6477  0.3659  0.0668
  102MOL0     C13397   4.970   5.541   2.076  0.7353 -0.9066 -0.1792
  102MOL0     C13398   4.842   5.524   2.120 -0.3621 -0.6828  0.2282
  102MOL0     H13399   4.337   5.402   2.097 -0.7239 -0.6004  0.1411
  102MOL0     H13400   4.130   5.380   2.230  0.8254 -0.6678 -0.7690
  102MOL0     H13401   4.084   5.629   2.585  0.8220 -0.0433  3.0688
  102MOL0     H13402   4.150   5.484   2.652  2.2336 -0.4797 -2.2085
  102MOL0     H13403   3.937   5.384   2.672  1.8135  0.3448  0.5051
  102MOL0     H13404   3.857   5.501   2.568 -0.4052  2.9303 -0.0909
  102MOL0     H13405   3.993   5.584   2.832  1.6509  0.9438 -1.0777
  102MOL0     H13406   3.821   5.535   2.806  0.2464 -1.7434  0.0400
  102MOL0     H13407   3.957   5.789   2.678 -0.6920  1.4600  1.7688
  102MOL0     H13408   3.796   5.734   2.663 -0.0869 -0.0886  0.3703
  102MOL0     H13409   3.848   5.927   2.825 -2.5519  0.3020  0.7260
  102MOL0     H13410   3.935   5.806   2.924  1.0505 -0.9468 -2.2250
  102MOL0     H13411   3.744   5.674   2.969 -0.6607 -1.7505 -2.6761
  102MOL0     H13412   3.640   5.763   2.856  0.5403 -0.7860  0.0553
  102MOL0     H13413   3.604   5.818   3.097  3.8474 -0.5628  3.5112
  102MOL0     H13414   3.757   5.896   3.095  1.4284  0.5081 -1.1527
  102MOL0     H13415   3.678   6.047   2.889 -0.3067  1.4819 -0.4684
  102MOL0     H13416   3.592   6.081   3.042 -0.5943 -1.4897  2.0826
  102MOL0     H13417   3.537   5.899   2.698 -0.7403 -0.5964 -2.1892
  102MOL0     H13418   3.306   5.893   2.555  0.8603 -3.1902 -2.2004
  102MOL0     H13419   3.173   5.827   2.646 -0.6525  0.7460 -3.7744
  102MOL0     H13420   3.286   5.628   2.691  1.2807  0.6194  0.7033
  102MOL0     H13421   3.446   5.677   2.638 -0.0197 -0.5237  1.3078
  102MOL0     H13422   3.213   5.652   2.457 -0.3724  0.0745  1.5679
  102MOL0     H13423   3.364   5.709   2.403  1.0161 -1.5108 -1.5481
  102MOL0     H13424   3.465   5.470   2.467 -0.9744 -0.2993  0.7030
  102MOL0     H13425   3.351   5.483   2.344  0.6581  0.3241 -0.7254
  102MOL0     H13426   3.107   5.251   2.575  1.1320 -0.1471 -0.1587
  102MOL0     H13427   3.096   5.001   2.572  1.1602  1.1489  1.8317
  102MOL0     H13428   2.936   4.648   2.483  1.2209 -3.2777  3.2372
  102MOL0     H13429   2.881   4.417   2.437 -0.0701 -1.0178 -1.3466
  102MOL0     H13430   2.837   4.254   2.303 -0.8738  0.6712  3.9007
  102MOL0     H13431   2.906   4.198   2.445  1.1872  2.3988  0.2560
  102MOL0     H13432   2.997   3.994   2.316  0.9444 -0.6026 -0.2989
  102MOL0     H13433   2.927   4.046   2.182  4.1795  0.1941  1.2167
  102MOL0     H13434   2.765   3.873   2.271  4.1414 -1.0913  0.4251
  102MOL0     H13435   2.691   4.027   2.293 -1.8598 -0.9309  1.3211
  102MOL0     H13436   2.789   3.831   2.494 -3.2944 -0.4411  2.3958
  102MOL0     H13437   2.846   3.994   2.537  1.0139 -0.6800 -2.3196
  102MOL0     H13438   2.600   4.071   2.514  2.0432  1.3138  1.1204
  102MOL0     H13439   2.642   3.951   2.645  4.0006 -3.3624 -1.1978
  102MOL0     H13440   2.567   3.778   2.513  0.7427 -1.3763 -1.3957
  102MOL0     H13441   2.539   3.888   2.373  1.7267  0.6410  0.5352
  102MOL0     H13442   2.396   3.889   2.647  0.8379  2.1927  0.9063
  102MOL0     H13443   2.372   4.021   2.524 -0.7447  0.2054  0.6695
  102MOL0     H13444   2.293   3.719   2.509 -0.8848 -1.3302 -1.5028
  102MOL0     H13445   2.278   3.840   2.379 -0.0780  2.6224  0.3798
  102MOL0     H13446   3.262   4.382   2.226  0.9592  0.3581  0.9364
  102MOL0     H13447   3.318   4.601   2.260 -0.2124 -0.1146  0.5222
  102MOL0     H13448   3.485   5.021   2.356  1.1067  1.9397  0.4788
  102MOL0     H13449   3.487   5.261   2.414  1.6798 -0.7884  3.0698
  102MOL0     H13450   4.325   5.597   2.543  0.2180  1.2029 -1.4758
  102MOL0     H13451   4.512   5.621   2.419  0.0514 -0.6884  0.7178
  102MOL0     H13452   4.689   5.434   1.827 -1.7769  4.3673  1.3276
  102MOL0     H13453   4.942   5.462   1.757  3.4448  0.4807  1.8963
  102MOL0     H13454   5.241   5.551   2.068  1.0299  1.9662  0.9499
  102MOL0     H13455   5.184   5.692   2.006  2.5029 -0.0816  4.2196
  102MOL0     H13456   5.389   5.540   1.841  0.8168 -0.0561 -0.1101
  102MOL0     H13457   5.335   5.708   1.824 -1.2201 -2.3280 -2.5310
  102MOL0     H13458   5.412   5.732   2.077  1.7776  0.7966  0.4869
  102MOL0     H13459   5.523   5.738   1.936  0.2918  0.2291 -0.5769
  102MOL0     H13460   5.611   5.622   2.121 -0.4552 -0.3865 -0.2934
  102MOL0     H13461   5.476   5.517   2.131 -1.2768  3.5435  1.3577
  102MOL0     H13462   5.695   5.307   1.842 -0.9748 -0.5450  0.1756
  102MOL0     H13463   5.037   5.579   2.152  1.4044 -0.3378 -1.0211
  102MOL0     H13464   4.817   5.566   2.217  2.6955  2.6088 -0.2252
  103MOL0     O13465  11.091   8.104   0.761 -0.2095  1.2283  0.2453
  103MOL0     C13466  11.153   8.105   0.869  0.8437  0.0681 -0.3145
  103MOL0     O13467  11.090   8.110   0.988  0.0761  0.1493 -0.1858
  103MOL0     C13468  10.949   8.116   0.984 -0.0619  0.7373 -0.5824
  103MOL0     C13469  10.886   7.995   1.013  0.3772  0.2600  0.1457
  103MOL0     C13470  10.753   7.991   0.995 -0.1143  0.3426  0.0791
  103MOL0     C13471  10.670   8.091   0.942 -0.4733  0.0717 -0.4010
  103MOL0     O13472  10.538   8.081   0.919  0.4281  0.4951  0.3163
  103MOL0     C13473  10.457   7.999   1.008  0.2701  0.2733  0.0528
  103MOL0     C13474  10.312   8.048   0.989  0.6957 -0.3397 -0.0272
  103MOL0     C13475  10.250   8.052   0.846 -0.9217  0.5159 -0.2176
  103MOL0     C13476  10.111   8.104   0.839  0.3113 -0.1013  0.2877
  103MOL0     C13477   9.991   8.006   0.873 -0.9035  0.3216 -0.0629
  103MOL0     C13478   9.855   8.068   0.835  0.7433 -0.1727  0.4153
  103MOL0     C13479   9.730   7.997   0.897 -0.1716 -0.4807 -0.1718
  103MOL0     C13480   9.613   8.094   0.899 -0.0184  0.2947 -0.4617
  103MOL0     N13481   9.560   8.149   0.774 -0.5314 -0.1318  0.0667
  103MOL0     C13482   9.493   8.083   0.671 -0.0530  0.1083 -0.8563
  103MOL0     C13483   9.474   8.180   0.579 -1.0185 -0.3901 -1.4570
  103MOL0     C13484   9.415   8.161   0.450  0.8266 -0.4325  0.3285
  103MOL0     C13485   9.253   8.146   0.460 -0.9626 -0.9206  0.3542
  103MOL0     C13486   9.187   8.286   0.490  0.5310 -0.4144  0.2185
  103MOL0     C13487   9.038   8.280   0.473  0.1979 -0.5384  1.0633
  103MOL0     O13488   8.991   8.192   0.577  0.8874  0.2175  0.6580
  103MOL0     C13489   8.854   8.179   0.591 -0.3803  0.5237  0.9183
  103MOL0     C13490   8.757   8.220   0.495 -0.5796 -0.0045  0.5688
  103MOL0     C13491   8.619   8.209   0.519 -0.7520  0.5197  0.6655
  103MOL0     C13492   8.576   8.138   0.639 -0.1514 -0.2022  0.0238
  103MOL0     C13493   8.439   8.097   0.648  0.6209  1.2364 -0.4211
  103MOL0     O13494   8.363   8.127   0.538 -0.4574 -0.0353  0.0980
  103MOL0     C13495   8.230   8.141   0.548  0.1702 -0.5620  0.5081
  103MOL0     C13496   8.165   8.113   0.433  0.0717 -0.2106 -0.7172
  103MOL0     C13497   8.026   8.117   0.430 -0.8336 -0.8204 -0.6380
  103MOL0     C13498   7.945   8.151   0.541 -0.0264 -0.4535 -1.0326
  103MOL0     O13499   7.809   8.133   0.531 -0.5048 -0.1467 -0.4692
  103MOL0     C13500   7.722   8.194   0.630  1.1645  0.2238  0.4092
  103MOL0     C13501   7.587   8.128   0.611 -0.1050 -0.8519 -0.7558
  103MOL0     C13502   7.581   7.973   0.619 -0.1303 -0.5811  0.4537
  103MOL0     C13503   7.442   7.918   0.612  0.0155  0.8062 -0.3352
  103MOL0     C13504   7.454   7.756   0.627 -0.4454 -0.1213 -0.2264
  103MOL0     C13505   7.316   7.697   0.600  0.2455 -1.0531  0.1952
  103MOL0     C13506   7.301   7.549   0.637 -0.0068 -0.0603  0.8723
  103MOL0     C13507   7.159   7.501   0.621  0.0964 -0.5507 -0.3649
  103MOL0    Cl13508   7.100   7.480   0.454  0.5077 -0.1409 -0.4219
  103MOL0     C13509   8.014   8.183   0.661  0.1092 -0.9885 -1.3300
  103MOL0     C13510   8.148   8.172   0.665 -0.1766 -0.9093  0.5025
  103MOL0     O13511   8.397   8.037   0.752 -0.1202 -0.4910  1.1009
  103MOL0     C13512   8.669   8.084   0.723  0.2564 -0.4811 -0.6786
  103MOL0     C13513   8.810   8.104   0.697 -0.7331 -0.6788  0.2177
  103MOL0     N13514   9.528   8.302   0.637  0.5565 -0.4942 -0.1564
  103MOL0     N13515   9.566   8.280   0.750  0.5023  0.1296 -0.2143
  103MOL0     C13516  10.737   8.213   0.919 -0.2376  0.2773  0.2255
  103MOL0     C13517  10.877   8.222   0.928  0.3164 -0.5871 -0.2264
  103MOL0     C13518  11.297   8.064   0.869  0.5578 -0.1381  0.4243
  103MOL0     C13519  11.378   8.054   0.759  0.3839 -0.4424 -0.3907
  103MOL0     C13520  11.518   8.027   0.773  0.9440 -0.2891  0.2328
  103MOL0     C13521  11.583   8.006   0.897 -0.0924 -0.2600  0.2412
  103MOL0     O13522  11.723   7.990   0.922 -0.2530 -0.4867  0.2976
  103MOL0     C13523  11.807   8.096   0.885  0.3346 -0.3233  0.7093
  103MOL0     C13524  11.925   8.080   0.964 -0.1070  0.8269 -0.4965
  103MOL0     C13525  12.031   8.191   0.935  1.1047 -0.1524  0.2746
  103MOL0     C13526  12.166   8.160   1.000  0.2324  0.3125 -0.2790
  103MOL0     C13527  12.276   8.248   0.958 -0.3412  0.1001  0.8504
  103MOL0     C13528  12.360   8.336   0.932 -0.4211  0.2336 -0.0805
  103MOL0     C13529  11.490   7.990   1.005  0.5268  0.5558  0.5302
  103MOL0     C13530  11.358   8.020   0.989  0.2722 -0.2448 -0.1781
  103MOL0     H13531  10.939   7.912   1.057 -0.0496  1.9931  4.4152
  103MOL0     H13532  10.691   7.903   1.010  1.3755 -0.2464  4.1272
  103MOL0     H13533  10.493   8.011   1.110  0.5824  2.8362 -0.2961
  103MOL0     H13534  10.451   7.892   0.983  2.7267 -0.3237  1.6816
  103MOL0     H13535  10.300   8.147   1.035  0.6483  0.3116 -1.3836
  103MOL0     H13536  10.249   7.996   1.062 -0.5159  3.6243  2.0566
  103MOL0     H13537  10.255   7.948   0.812  1.6524  0.1534  0.9693
  103MOL0     H13538  10.321   8.111   0.787  1.0195  0.9456  2.3363
  103MOL0     H13539  10.091   8.190   0.903  2.1382 -0.1753  1.0258
  103MOL0     H13540  10.090   8.142   0.738 -0.3910 -0.7670  0.1765
  103MOL0     H13541   9.994   7.981   0.980 -0.3316  4.9829  1.2309
  103MOL0     H13542  10.004   7.913   0.818  0.0357  0.5014 -0.1610
  103MOL0     H13543   9.852   8.054   0.726 -0.5952 -1.5351  0.5896
  103MOL0     H13544   9.855   8.176   0.852 -1.7384  0.1557 -1.1263
  103MOL0     H13545   9.702   7.915   0.829 -2.9447 -0.6213  1.0120
  103MOL0     H13546   9.758   7.947   0.990  1.8871 -1.0441 -1.0245
  103MOL0     H13547   9.645   8.184   0.953  0.6839  1.1768 -2.2425
  103MOL0     H13548   9.528   8.054   0.954 -1.3591  2.3036 -0.9524
  103MOL0     H13549   9.459   7.980   0.671  0.4846 -0.2119  2.6578
  103MOL0     H13550   9.453   8.074   0.397 -0.5837 -0.6948 -0.2746
  103MOL0     H13551   9.430   8.246   0.382  1.4303 -0.1670  0.7770
  103MOL0     H13552   9.239   8.076   0.543 -0.7602  1.2261  2.3224
  103MOL0     H13553   9.208   8.103   0.370  0.7168 -0.8933 -0.5344
  103MOL0     H13554   9.190   8.315   0.596  0.1892 -1.8924  0.6659
  103MOL0     H13555   9.233   8.369   0.435  3.0350 -1.2039  0.9856
  103MOL0     H13556   9.011   8.247   0.372  3.1612 -0.2236  0.0619
  103MOL0     H13557   8.989   8.376   0.491  0.8839 -0.1220  0.7262
  103MOL0     H13558   8.787   8.268   0.402 -1.8975 -0.0397  0.1032
  103MOL0     H13559   8.560   8.260   0.443  2.0065  3.6606  0.3972
  103MOL0     H13560   8.216   8.083   0.342  0.7722  0.9592 -0.7239
  103MOL0     H13561   7.971   8.086   0.342 -0.7206 -0.3378 -0.8787
  103MOL0     H13562   7.720   8.302   0.609  0.0244 -0.1420 -1.6662
  103MOL0     H13563   7.753   8.181   0.733  2.0515 -0.2769  0.0889
  103MOL0     H13564   7.543   8.159   0.515 -0.3773  0.4510 -0.2348
  103MOL0     H13565   7.526   8.177   0.688  1.5513 -1.9580  1.3506
  103MOL0     H13566   7.632   7.925   0.703  2.2982 -0.3946 -0.8350
  103MOL0     H13567   7.642   7.943   0.533  0.2627  1.2510  0.0354
  103MOL0     H13568   7.378   7.940   0.698 -0.9946 -3.0062  0.0767
  103MOL0     H13569   7.386   7.943   0.522 -2.2972  1.6827  1.2610
  103MOL0     H13570   7.476   7.732   0.731 -3.4422  1.4950  0.9002
  103MOL0     H13571   7.533   7.717   0.562 -1.9356 -2.5277 -0.7353
  103MOL0     H13572   7.290   7.717   0.496  1.2371  3.3602  0.5566
  103MOL0     H13573   7.246   7.751   0.666 -0.0782  0.0821 -1.0365
  103MOL0     H13574   7.374   7.490   0.580  0.0390  0.7394  0.0706
  103MOL0     H13575   7.320   7.539   0.744 -1.0994 -1.2564  0.9798
  103MOL0     H13576   7.090   7.561   0.681 -0.1731 -2.2873  1.1209
  103MOL0     H13577   7.156   7.410   0.681  0.6737  0.6906  1.6352
  103MOL0     H13578   7.964   8.193   0.757 -5.0850  0.1483 -3.7999
  103MOL0     H13579   8.198   8.207   0.755 -0.7972  0.6012  0.2985
  103MOL0     H13580   8.636   8.018   0.802 -2.5507 -0.3432 -1.6368
  103MOL0     H13581   8.885   8.051   0.755 -1.5403  1.6958  3.7308
  103MOL0     H13582  10.679   8.299   0.885 -0.8256 -0.0937  0.2704
  103MOL0     H13583  10.926   8.315   0.900 -0.3013  0.7956  2.8173
  103MOL0     H13584  11.332   8.080   0.664 -2.8301  1.1446  1.4256
  103MOL0     H13585  11.578   8.008   0.684 -1.3060  0.9787 -1.6460
  103MOL0     H13586  11.753   8.190   0.897 -3.2462 -1.7421 -2.3142
  103MOL0     H13587  11.838   8.094   0.780  0.0645  0.7438  0.5995
  103MOL0     H13588  11.885   8.102   1.063 -1.8836  3.2433 -1.6445
  103MOL0     H13589  11.962   7.977   0.960 -3.2281 -0.3685 -2.9213
  103MOL0     H13590  12.000   8.291   0.968  2.3495 -0.0109  1.0731
  103MOL0     H13591  12.037   8.201   0.826 -0.6130  1.3770  0.2640
  103MOL0     H13592  12.157   8.169   1.109  0.3860 -0.2245 -0.2221
  103MOL0     H13593  12.207   8.064   0.969 -1.5672 -0.9595  1.0669
  103MOL0     H13594  12.432   8.414   0.920  0.9690 -0.9952  0.0651
  103MOL0     H13595  11.529   7.981   1.106  0.3543  1.4626  0.6824
  103MOL0     H13596  11.291   8.029   1.074 -0.9488 -5.4273 -0.2698
  104MOL0     O13597   6.298   5.708   3.679  1.1832 -0.6013  0.4038
  104MOL0     C13598   6.209   5.648   3.744  0.0995  0.3306 -0.3677
  104MOL0     O13599   6.236   5.538   3.820 -0.3357 -0.6956 -0.6130
  104MOL0     C13600   6.356   5.467   3.828 -0.0353  0.1302 -0.3113
  104MOL0     C13601   6.481   5.501   3.778  0.1264  0.4737 -0.1604
  104MOL0     C13602   6.593   5.421   3.812 -0.2527 -0.7657 -0.5837
  104MOL0     C13603   6.571   5.307   3.887  0.1094 -1.1016 -0.4662
  104MOL0     O13604   6.679   5.228   3.920 -0.2838 -0.6685  0.7872
  104MOL0     C13605   6.708   5.227   4.064 -0.6781  0.2242 -0.2265
  104MOL0     C13606   6.859   5.211   4.095 -0.1692  0.3773  0.3852
  104MOL0     C13607   6.942   5.286   3.987  1.0630 -0.1657  0.0072
  104MOL0     C13608   7.096   5.286   4.026  0.6570 -0.0127  0.3089
  104MOL0     C13609   7.199   5.338   3.921 -0.1530 -0.7655 -0.4599
  104MOL0     C13610   7.204   5.251   3.796 -0.2884  1.0373  0.3545
  104MOL0     C13611   7.317   5.296   3.701 -1.0064 -0.0306 -0.1483
  104MOL0     C13612   7.466   5.284   3.758 -0.1336  0.7154 -0.5872
  104MOL0     N13613   7.487   5.142   3.808 -0.7356  0.8642 -0.0827
  104MOL0     C13614   7.445   5.082   3.925  0.4393  0.4012 -0.4133
  104MOL0     C13615   7.507   4.960   3.933  0.6367 -0.1236  0.8898
  104MOL0     C13616   7.510   4.870   4.052 -0.1456  0.4169 -0.4874
  104MOL0     C13617   7.636   4.912   4.142  0.1123  1.2868  0.4585
  104MOL0     C13618   7.728   4.792   4.179 -0.3728  0.6140  0.6521
  104MOL0     C13619   7.831   4.761   4.074  0.7249  0.2201 -0.0542
  104MOL0     O13620   7.921   4.658   4.117  0.2360 -0.5078 -0.1284
  104MOL0     C13621   8.049   4.669   4.072 -0.2460  1.1365 -0.0712
  104MOL0     C13622   8.137   4.592   4.147 -1.3059  0.3645  0.1063
  104MOL0     C13623   8.271   4.586   4.111  0.2196  0.1985 -0.8230
  104MOL0     C13624   8.322   4.653   3.995 -0.2651  0.2212 -0.1122
  104MOL0     C13625   8.469   4.657   3.973  0.1378  0.9825  0.3809
  104MOL0     O13626   8.523   4.708   3.850 -0.0368  1.0377  0.8231
  104MOL0     C13627   8.661   4.715   3.814 -0.8555 -0.1375 -0.8263
  104MOL0     C13628   8.783   4.716   3.897 -0.6242  0.3654 -0.3081
  104MOL0     C13629   8.909   4.740   3.845  0.0174  0.0696  0.8761
  104MOL0     C13630   8.932   4.753   3.703  0.8039 -0.4469 -0.0373
  104MOL0     O13631   9.054   4.775   3.639  0.4621 -0.0192  0.2542
  104MOL0     C13632   9.178   4.739   3.707  0.3601  0.7671 -0.1508
  104MOL0     C13633   9.296   4.735   3.605 -0.3550  0.4970 -0.1777
  104MOL0     C13634   9.431   4.728   3.681 -0.6191 -0.0303 -0.0138
  104MOL0     C13635   9.447   4.615   3.784 -0.8021  0.0687 -0.0453
  104MOL0     C13636   9.597   4.589   3.816 -0.3215  0.2876 -0.0009
  104MOL0     C13637   9.622   4.446   3.872  0.0500  0.6474  0.5430
  104MOL0     C13638   9.765   4.441   3.914  0.1718 -0.3375 -0.2919
  104MOL0     C13639   9.803   4.293   3.967  0.6117 -0.1792  0.0469
  104MOL0    Cl13640   9.974   4.280   4.000 -0.3975 -0.3884 -0.1750
  104MOL0     C13641   8.813   4.760   3.617 -0.0181  0.1549 -0.0457
  104MOL0     C13642   8.683   4.735   3.673 -0.3992 -0.2434 -0.1266
  104MOL0     O13643   8.541   4.605   4.057  0.3694 -0.6721  0.1502
  104MOL0     C13644   8.232   4.716   3.915  1.0113 -0.0496  0.9044
  104MOL0     C13645   8.101   4.732   3.962  1.1500 -0.4963 -0.1615
  104MOL0     N13646   7.588   4.948   3.821 -0.0053 -0.8276  0.3148
  104MOL0     N13647   7.567   5.051   3.747  0.0725 -0.5428  0.1876
  104MOL0     C13648   6.455   5.273   3.954  0.7843  0.6989  0.1552
  104MOL0     C13649   6.347   5.353   3.917 -0.4376 -0.6026  0.0231
  104MOL0     C13650   6.070   5.703   3.719  0.6794  0.7012  0.0669
  104MOL0     C13651   5.972   5.674   3.812 -0.9172 -0.7010  0.2281
  104MOL0     C13652   5.843   5.717   3.790  0.5307 -0.1480 -0.1112
  104MOL0     C13653   5.814   5.791   3.668 -0.6410  0.5294  0.0375
  104MOL0     O13654   5.681   5.796   3.642  0.1019  0.5790 -0.2795
  104MOL0     C13655   5.645   5.838   3.507  0.6349  0.1266 -0.1087
  104MOL0     C13656   5.637   5.991   3.503  0.5645  0.7228 -0.1795
  104MOL0     C13657   5.533   6.043   3.608 -1.7230  0.5282  0.7733
  104MOL0     C13658   5.558   6.192   3.638  0.2858 -0.3815  0.7082
  104MOL0     C13659   5.465   6.237   3.732 -0.4158  0.5527 -0.2204
  104MOL0     C13660   5.385   6.252   3.822 -0.0968 -1.0878 -0.4868
  104MOL0     C13661   5.918   5.833   3.589  0.0126 -0.7059  0.1328
  104MOL0     C13662   6.043   5.780   3.609 -0.3827 -0.1388  0.3721
  104MOL0     H13663   6.506   5.588   3.717 -1.3288 -0.3125 -1.9872
  104MOL0     H13664   6.688   5.468   3.788 -0.5300 -0.0503 -0.2935
  104MOL0     H13665   6.651   5.147   4.113 -0.7091  0.5053  0.2019
  104MOL0     H13666   6.681   5.322   4.110 -0.8191  0.4047 -0.6836
  104MOL0     H13667   6.880   5.104   4.095 -1.7430 -0.0066  2.6413
  104MOL0     H13668   6.889   5.249   4.193  0.5492 -1.6513  0.9977
  104MOL0     H13669   6.895   5.385   3.976 -0.2750 -0.7472  0.2846
  104MOL0     H13670   6.934   5.243   3.887 -0.9124  3.1378 -1.4357
  104MOL0     H13671   7.113   5.349   4.114  3.8609 -0.2876  0.0123
  104MOL0     H13672   7.115   5.184   4.061 -3.6128 -1.6899 -1.4902
  104MOL0     H13673   7.297   5.350   3.968 -0.9169  2.5522  0.6411
  104MOL0     H13674   7.162   5.437   3.891 -1.9935 -0.3801  2.6183
  104MOL0     H13675   7.107   5.267   3.748 -0.7460 -4.9214 -1.5706
  104MOL0     H13676   7.204   5.143   3.813  2.6290  0.6750 -1.2519
  104MOL0     H13677   7.309   5.235   3.611 -0.0558 -1.0635  0.4362
  104MOL0     H13678   7.317   5.400   3.669  0.2787 -0.5443 -1.9753
  104MOL0     H13679   7.476   5.347   3.847 -0.1986 -0.2620  0.1240
  104MOL0     H13680   7.536   5.309   3.677 -1.6901  3.4019 -1.2509
  104MOL0     H13681   7.378   5.110   4.005  0.0175 -1.3146 -0.1128
  104MOL0     H13682   7.510   4.763   4.028 -2.2613 -0.9759  4.4777
  104MOL0     H13683   7.418   4.894   4.106  1.4477  4.4752  0.7813
  104MOL0     H13684   7.593   4.950   4.235 -2.3710 -1.9754  0.8137
  104MOL0     H13685   7.702   4.986   4.095  0.9557  0.6813  0.6612
  104MOL0     H13686   7.778   4.801   4.276  1.3331  0.3411 -0.1671
  104MOL0     H13687   7.670   4.699   4.184 -2.4159  1.8530  1.2824
  104MOL0     H13688   7.876   4.860   4.061 -1.6012  1.0673 -2.3985
  104MOL0     H13689   7.782   4.728   3.982  2.6833 -3.6688  0.0913
  104MOL0     H13690   8.103   4.519   4.220  0.1015  0.0532  0.4711
  104MOL0     H13691   8.350   4.532   4.163 -0.1098 -1.1716 -1.6839
  104MOL0     H13692   8.771   4.710   4.005  2.2223  1.8395  0.1903
  104MOL0     H13693   8.992   4.744   3.914 -0.7422  0.7950  1.7696
  104MOL0     H13694   9.166   4.642   3.755  1.0485 -0.5669 -2.5382
  104MOL0     H13695   9.197   4.821   3.778 -2.7538  2.9663 -1.5968
  104MOL0     H13696   9.300   4.827   3.546  0.7791  1.2042  0.9488
  104MOL0     H13697   9.280   4.645   3.544  1.3444  1.3014 -1.9223
  104MOL0     H13698   9.453   4.823   3.730  2.7749 -2.8449  4.7983
  104MOL0     H13699   9.508   4.739   3.605  1.0884 -1.0188  1.5022
  104MOL0     H13700   9.384   4.622   3.873  0.1550  2.7165  0.4965
  104MOL0     H13701   9.419   4.520   3.738  2.8062 -0.3896 -1.6508
  104MOL0     H13702   9.625   4.659   3.896 -0.5868  1.2756 -0.7468
  104MOL0     H13703   9.657   4.609   3.726 -0.2541 -0.8757 -0.2258
  104MOL0     H13704   9.599   4.375   3.792 -2.4906 -0.7377  2.3709
  104MOL0     H13705   9.555   4.421   3.955 -0.8887 -1.7524 -0.8421
  104MOL0     H13706   9.836   4.468   3.836  0.6734 -3.4095 -1.0163
  104MOL0     H13707   9.761   4.504   4.004 -0.1435 -1.3655  0.4321
  104MOL0     H13708   9.787   4.221   3.887  0.3931 -0.7528  0.5991
  104MOL0     H13709   9.737   4.263   4.049 -0.6628 -2.7800 -1.8009
  104MOL0     H13710   8.830   4.769   3.510  1.0733  1.6304  0.2226
  104MOL0     H13711   8.588   4.726   3.622 -0.9700 -1.8902  1.1752
  104MOL0     H13712   8.255   4.764   3.821 -0.9367 -2.6004 -1.0187
  104MOL0     H13713   8.029   4.778   3.895  0.7311  0.6858  1.0625
  104MOL0     H13714   6.455   5.192   4.026 -1.9602  0.1827 -0.3103
  104MOL0     H13715   6.245   5.339   3.950 -0.6278  0.9188  0.1417
  104MOL0     H13716   5.999   5.614   3.898  0.8541 -0.5340 -0.1914
  104MOL0     H13717   5.772   5.684   3.864  1.6439  0.9118  1.4998
  104MOL0     H13718   5.549   5.796   3.475  0.9156 -0.0186 -0.7753
  104MOL0     H13719   5.711   5.808   3.425 -1.9511  3.2671 -3.7240
  104MOL0     H13720   5.734   6.038   3.520 -0.3715  4.0398 -2.8618
  104MOL0     H13721   5.606   6.012   3.400  1.3375  0.0541 -0.5598
  104MOL0     H13722   5.531   5.992   3.704  0.1240 -3.4808 -1.0612
  104MOL0     H13723   5.431   6.021   3.576 -2.5604 -0.7680  3.9919
  104MOL0     H13724   5.659   6.209   3.678  1.1355 -1.3044 -0.9269
  104MOL0     H13725   5.549   6.254   3.549 -1.4949  0.1699  1.2227
  104MOL0     H13726   5.316   6.282   3.898  0.4862  1.3139 -0.8262
  104MOL0     H13727   5.906   5.896   3.501 -0.0369 -1.9431 -0.7692
  104MOL0     H13728   6.111   5.792   3.524 -0.3342 -1.4959  0.1981
  105MOL0     O13729   2.721   2.119   5.431 -0.3058 -0.3112  0.8962
  105MOL0     C13730   2.777   2.160   5.529 -0.7910  1.1604 -0.6829
  105MOL0     O13731   2.727   2.229   5.634  0.3033 -0.7946 -0.3607
  105MOL0     C13732   2.593   2.264   5.636 -0.5544  0.3101  0.8145
  105MOL0     C13733   2.573   2.396   5.592 -0.2441 -0.2038  0.0638
  105MOL0     C13734   2.445   2.444   5.592  0.0942  0.3376  0.2697
  105MOL0     C13735   2.341   2.364   5.637  0.3720 -0.0890 -0.2020
  105MOL0     O13736   2.215   2.410   5.632 -0.3416 -0.3049  0.5993
  105MOL0     C13737   2.095   2.350   5.691 -0.2708  0.8070  0.5216
  105MOL0     C13738   1.981   2.444   5.670  0.2620  1.0925 -0.2626
  105MOL0     C13739   1.856   2.399   5.734 -1.1098 -0.1431  0.6234
  105MOL0     C13740   1.756   2.517   5.736  1.0248  0.1806  0.0325
  105MOL0     C13741   1.609   2.480   5.691  0.7791 -0.3234 -0.2833
  105MOL0     C13742   1.525   2.612   5.678 -0.1345  0.0321  0.5381
  105MOL0     C13743   1.404   2.580   5.592 -0.8780  0.8514 -0.7988
  105MOL0     C13744   1.306   2.695   5.576 -0.7592  0.1448  0.3436
  105MOL0     N13745   1.237   2.683   5.447 -0.1693  1.1089 -0.3401
  105MOL0     C13746   1.143   2.584   5.412  0.0440 -0.2667 -0.5810
  105MOL0     C13747   1.093   2.611   5.292  0.1189  0.1802 -0.8073
  105MOL0     C13748   1.003   2.522   5.210 -0.4785  0.4002 -0.1394
  105MOL0     C13749   0.867   2.511   5.276  0.3887  0.0559 -0.2943
  105MOL0     C13750   0.796   2.372   5.270  0.4296  0.6654 -0.1430
  105MOL0     C13751   0.644   2.380   5.311  0.9561 -0.1182  0.0489
  105MOL0     O13752   0.579   2.247   5.326 -0.0108 -0.0742 -0.5610
  105MOL0     C13753   0.439   2.232   5.312 -0.3158 -0.2103 -0.3517
  105MOL0     C13754   0.361   2.341   5.292  1.0299 -0.0358 -0.7365
  105MOL0     C13755   0.223   2.324   5.280 -0.3614 -0.0172  0.6345
  105MOL0     C13756   0.164   2.197   5.286 -0.5696 -0.4026 -0.5943
  105MOL0     C13757   0.017   2.182   5.261  0.1474 -0.0600 -0.1908
  105MOL0     O13758  -0.043   2.060   5.288 -0.2145  0.1871  0.0679
  105MOL0     C13759  -0.172   2.046   5.238 -0.5352  1.1951 -0.1028
  105MOL0     C13760  -0.265   1.995   5.334 -0.2744  0.3153 -0.1480
  105MOL0     C13761  -0.392   1.953   5.300  0.6882 -0.0651 -0.4765
  105MOL0     C13762  -0.436   1.989   5.172 -0.7871  0.4652 -0.4200
  105MOL0     O13763  -0.570   1.984   5.138  0.0869 -0.2160 -0.1196
  105MOL0     C13764  -0.677   1.946   5.235 -0.8348 -0.6262  0.2235
  105MOL0     C13765  -0.819   1.986   5.192 -0.8095 -0.2639  0.0657
  105MOL0     C13766  -0.828   2.130   5.148 -0.6523  0.2344 -0.1788
  105MOL0     C13767  -0.961   2.163   5.072 -1.0919 -0.6980 -0.4350
  105MOL0     C13768  -0.959   2.096   4.933  0.4840  0.5008 -0.0659
  105MOL0     C13769  -1.081   2.133   4.839 -0.5464  0.2838 -0.7180
  105MOL0     C13770  -1.217   2.066   4.880  0.6815 -0.2864  0.1005
  105MOL0     C13771  -1.343   2.144   4.836  0.9505 -0.2672 -0.7800
  105MOL0    Cl13772  -1.355   2.126   4.663 -0.6316  0.0692 -0.1804
  105MOL0     C13773  -0.346   2.041   5.078  0.7560  1.1025 -0.1883
  105MOL0     C13774  -0.210   2.058   5.103 -0.0632  0.1424 -0.0789
  105MOL0     O13775  -0.041   2.282   5.213  0.7623 -0.2286 -0.3438
  105MOL0     C13776   0.250   2.089   5.320 -0.3521 -0.1129  0.2040
  105MOL0     C13777   0.383   2.107   5.332  0.2461 -1.2275  0.1873
  105MOL0     N13778   1.140   2.737   5.269  1.1133  0.0485  0.3252
  105MOL0     N13779   1.217   2.783   5.356  0.3659 -0.0742  0.1387
  105MOL0     C13780   2.366   2.234   5.673  0.6098  0.5037  0.5987
  105MOL0     C13781   2.490   2.179   5.678 -0.1861 -0.6655  0.5259
  105MOL0     C13782   2.924   2.121   5.554 -0.1788  0.2400 -1.3331
  105MOL0     C13783   3.004   2.077   5.448  0.5843 -0.0278 -0.2880
  105MOL0     C13784   3.129   2.032   5.466 -0.1466 -0.0620  0.0856
  105MOL0     C13785   3.183   2.023   5.597  0.1933 -0.4035  0.4870
  105MOL0     O13786   3.303   1.958   5.606 -0.1334 -0.4867 -0.3400
  105MOL0     C13787   3.402   2.018   5.694 -0.0880  0.2510  0.1011
  105MOL0     C13788   3.492   2.132   5.635  0.1770 -0.1483 -0.5897
  105MOL0     C13789   3.530   2.112   5.485 -0.7858  0.4220  0.2844
  105MOL0     C13790   3.651   2.030   5.456 -0.4322 -0.0482  0.6934
  105MOL0     C13791   3.766   2.041   5.541  0.3911 -0.5014 -0.4631
  105MOL0     C13792   3.857   2.027   5.613  0.0431 -0.3643 -0.1247
  105MOL0     C13793   3.100   2.062   5.705  0.0777  0.0427 -0.4014
  105MOL0     C13794   2.969   2.110   5.685  0.3146 -0.7541 -0.3488
  105MOL0     H13795   2.649   2.464   5.554 -1.1822  0.5374 -0.5458
  105MOL0     H13796   2.415   2.545   5.565 -1.9789  0.1242  1.5457
  105MOL0     H13797   2.102   2.348   5.800  0.9851  2.8242  0.5196
  105MOL0     H13798   2.066   2.249   5.660 -1.7092  1.3974 -0.1565
  105MOL0     H13799   1.961   2.458   5.564 -1.3205  1.7871  0.0947
  105MOL0     H13800   2.009   2.542   5.711  1.6723  0.0755  1.3666
  105MOL0     H13801   1.875   2.367   5.836 -2.6323 -3.2860  0.0479
  105MOL0     H13802   1.820   2.310   5.681 -1.0837 -0.5599  1.3004
  105MOL0     H13803   1.730   2.553   5.836 -1.6297  0.7431 -0.7639
  105MOL0     H13804   1.786   2.600   5.672 -1.2795  1.3641  0.3497
  105MOL0     H13805   1.564   2.417   5.769  0.1707 -1.0080 -1.1609
  105MOL0     H13806   1.613   2.424   5.597  4.1236 -0.2506 -0.2985
  105MOL0     H13807   1.587   2.688   5.629  0.2625 -0.2794  0.5528
  105MOL0     H13808   1.484   2.647   5.773 -1.0402  0.1551  0.1228
  105MOL0     H13809   1.449   2.537   5.502 -1.1579 -1.7496  0.2265
  105MOL0     H13810   1.353   2.495   5.637  2.0027 -1.5095 -1.6951
  105MOL0     H13811   1.358   2.790   5.560 -0.1133 -0.0269  1.3663
  105MOL0     H13812   1.246   2.720   5.664  0.5249  0.9661  1.0146
  105MOL0     H13813   1.124   2.490   5.463  0.2304 -0.6392 -1.1827
  105MOL0     H13814   1.051   2.424   5.211 -0.1334  0.5328 -1.5428
  105MOL0     H13815   1.008   2.549   5.104  0.3547 -1.0837 -0.4948
  105MOL0     H13816   0.805   2.587   5.227 -1.5333  0.6265  2.7633
  105MOL0     H13817   0.859   2.545   5.380 -3.7135 -1.8718  0.2359
  105MOL0     H13818   0.792   2.326   5.170 -3.6413 -0.2869  0.2712
  105MOL0     H13819   0.837   2.304   5.345 -2.6890 -0.7672  0.4163
  105MOL0     H13820   0.600   2.435   5.227  1.2143 -0.5782 -0.3971
  105MOL0     H13821   0.638   2.449   5.395 -1.1053  1.3318 -1.1985
  105MOL0     H13822   0.393   2.444   5.294 -1.2126  0.7120 -1.3341
  105MOL0     H13823   0.170   2.414   5.252  3.0413  2.5999  1.8653
  105MOL0     H13824  -0.232   1.995   5.438 -4.1972 -0.5706  1.2620
  105MOL0     H13825  -0.461   1.925   5.379  0.5486 -2.7483 -1.4635
  105MOL0     H13826  -0.661   1.992   5.332 -2.6177 -2.0292  1.2368
  105MOL0     H13827  -0.671   1.837   5.242  1.2834 -0.8137 -2.4606
  105MOL0     H13828  -0.870   1.971   5.288  1.3679  2.0768  1.7609
  105MOL0     H13829  -0.834   1.912   5.113 -0.9383 -1.5010  1.1993
  105MOL0     H13830  -0.737   2.170   5.101 -0.9523  0.3606 -0.6589
  105MOL0     H13831  -0.830   2.188   5.240 -0.0062  1.5118 -0.9306
  105MOL0     H13832  -1.045   2.134   5.137 -1.3880  2.8881  1.0072
  105MOL0     H13833  -0.966   2.271   5.052  0.8429 -0.5811 -0.4289
  105MOL0     H13834  -0.961   1.987   4.943  0.6348  0.3592 -1.3971
  105MOL0     H13835  -0.858   2.110   4.893  1.5436 -3.6374  0.7152
  105MOL0     H13836  -1.066   2.094   4.738 -0.6911 -1.4005 -0.1216
  105MOL0     H13837  -1.093   2.242   4.832 -2.4078  0.2852  1.4972
  105MOL0     H13838  -1.224   1.964   4.841 -0.6289  0.7402 -2.5795
  105MOL0     H13839  -1.231   2.050   4.988 -3.2681  0.8539 -0.0993
  105MOL0     H13840  -1.336   2.250   4.862 -1.5183 -1.0151  3.9707
  105MOL0     H13841  -1.432   2.108   4.890  2.2999 -1.0580  1.0284
  105MOL0     H13842  -0.382   2.073   4.981 -0.7777 -2.4745 -0.9684
  105MOL0     H13843  -0.141   2.094   5.027  1.7949 -3.4164 -0.2791
  105MOL0     H13844   0.203   1.993   5.336 -0.8448  0.6418  4.2281
  105MOL0     H13845   0.446   2.022   5.353  1.4386  0.2829  3.3557
  105MOL0     H13846   2.281   2.173   5.700  0.7740 -0.6444 -1.2749
  105MOL0     H13847   2.509   2.076   5.705 -0.3863 -0.8835 -0.1570
  105MOL0     H13848   2.957   2.083   5.351 -0.7120  2.0504  0.4057
  105MOL0     H13849   3.180   1.993   5.378  0.2126 -0.4439  0.4605
  105MOL0     H13850   3.469   1.933   5.710 -0.2547  0.1175  0.1005
  105MOL0     H13851   3.371   2.040   5.797  0.2416 -3.6585  1.1845
  105MOL0     H13852   3.418   2.212   5.638 -0.7074 -0.9722 -0.2686
  105MOL0     H13853   3.586   2.165   5.681  1.8694  1.3931 -4.6881
  105MOL0     H13854   3.546   2.211   5.442  1.5465 -0.1523 -0.2864
  105MOL0     H13855   3.451   2.054   5.435 -0.8051 -1.7710  2.6224
  105MOL0     H13856   3.629   1.924   5.443 -1.1902  0.1418  0.3494
  105MOL0     H13857   3.666   2.063   5.352  0.9955 -0.9631  0.5888
  105MOL0     H13858   3.935   2.019   5.686 -0.3927  1.1210  0.5455
  105MOL0     H13859   3.127   2.053   5.810 -2.3678 -5.5793  0.1178
  105MOL0     H13860   2.909   2.141   5.770  1.5757 -2.5640  1.3035
  106MOL0     O13861  10.807   2.332  10.681  0.1067  0.3371  0.2274
  106MOL0     C13862  10.887   2.362  10.769 -0.8944 -0.3553 -0.0080
  106MOL0     O13863  10.890   2.305  10.893 -0.4284 -0.0138 -0.4584
  106MOL0     C13864  10.791   2.220  10.935  0.4495  0.2326 -0.0617
  106MOL0     C13865  10.658   2.242  10.913 -0.8194  1.2383 -0.0187
  106MOL0     C13866  10.549   2.164  10.952 -0.0683 -0.0259  0.4058
  106MOL0     C13867  10.581   2.051  11.029 -0.0615  0.7222 -0.2001
  106MOL0     O13868  10.502   1.954  11.080  0.2119 -0.1297  0.3743
  106MOL0     C13869  10.362   1.953  11.058 -0.2028  0.3866 -0.1873
  106MOL0     C13870  10.314   1.865  10.939 -0.1689 -1.4781  0.2663
  106MOL0     C13871  10.391   1.735  10.923  0.3251  0.9132 -0.3628
  106MOL0     C13872  10.359   1.637  11.038  0.2710  0.5439 -0.0188
  106MOL0     C13873  10.212   1.587  11.029 -0.4761  0.6714  0.6167
  106MOL0     C13874  10.171   1.509  11.149 -0.2733  0.6884 -1.7414
  106MOL0     C13875  10.061   1.413  11.119 -0.0574 -0.2334 -0.0406
  106MOL0     C13876  10.025   1.328  11.246 -0.2125 -0.3169  0.3057
  106MOL0     N13877   9.920   1.233  11.221  0.7195  0.4610 -0.7170
  106MOL0     C13878   9.908   1.110  11.289  0.2323  0.2425 -0.8154
  106MOL0     C13879   9.804   1.041  11.235 -0.3373 -0.0399  0.0657
  106MOL0     C13880   9.745   0.905  11.277 -0.7136 -0.3066  0.5726
  106MOL0     C13881   9.618   0.915  11.361  0.0022 -0.4964  0.0286
  106MOL0     C13882   9.530   0.790  11.336 -0.1261  0.2472  1.4996
  106MOL0     C13883   9.414   0.783  11.415 -0.8347 -0.9542  0.4234
  106MOL0     O13884   9.337   0.904  11.406  0.1331 -0.6026  0.5754
  106MOL0     C13885   9.201   0.898  11.417 -0.4350  0.1750  1.0412
  106MOL0     C13886   9.134   0.794  11.481 -0.1200  0.0633  0.7418
  106MOL0     C13887   8.998   0.791  11.480  0.2669 -0.2592 -0.4787
  106MOL0     C13888   8.920   0.897  11.433 -1.5747 -0.6132 -0.7543
  106MOL0     C13889   8.778   0.903  11.448  0.5978  0.2190 -0.0861
  106MOL0     O13890   8.711   0.799  11.512 -0.6464 -0.6986  0.2308
  106MOL0     C13891   8.570   0.805  11.530 -0.1993  0.1500  0.5856
  106MOL0     C13892   8.480   0.852  11.430  0.0721 -0.0749  0.2916
  106MOL0     C13893   8.340   0.862  11.463  0.4794  0.2055  0.4018
  106MOL0     C13894   8.294   0.803  11.584  0.5962  0.1153 -0.2579
  106MOL0     O13895   8.159   0.821  11.618  1.1765 -0.3404  0.5829
  106MOL0     C13896   8.112   0.836  11.749  0.5074 -0.6994  0.5629
  106MOL0     C13897   7.955   0.838  11.756 -0.2003  0.0551 -0.9620
  106MOL0     C13898   7.894   0.964  11.692 -0.5020  0.3077 -0.3877
  106MOL0     C13899   7.747   0.982  11.704 -0.5107  0.2959 -1.2386
  106MOL0     C13900   7.704   1.127  11.658 -0.8596  0.9928  0.2925
  106MOL0     C13901   7.559   1.144  11.686 -0.2365  0.8257  0.0827
  106MOL0     C13902   7.493   1.283  11.648  0.2528 -0.5175 -0.4491
  106MOL0     C13903   7.575   1.399  11.707 -0.2914 -1.0515  0.5680
  106MOL0    Cl13904   7.511   1.559  11.672 -0.0773 -0.1448 -0.0458
  106MOL0     C13905   8.385   0.767  11.680  0.2829  0.3631  1.0605
  106MOL0     C13906   8.526   0.767  11.660 -0.3001  0.1655  0.5385
  106MOL0     O13907   8.717   1.002  11.415 -0.4555  0.3239  0.6357
  106MOL0     C13908   8.982   0.995  11.357  0.4628  0.1898  0.5248
  106MOL0     C13909   9.123   0.998  11.353 -0.2735  0.4850 -0.2020
  106MOL0     N13910   9.768   1.115  11.119 -0.1208 -0.0044  0.0145
  106MOL0     N13911   9.829   1.233  11.112 -0.0434 -0.0050  0.3328
  106MOL0     C13912  10.718   2.020  11.049 -0.6443 -0.4336  0.8010
  106MOL0     C13913  10.819   2.106  11.008 -0.0975  0.0422  0.4311
  106MOL0     C13914  11.000   2.460  10.743 -0.1111 -0.6694  0.5766
  106MOL0     C13915  10.999   2.545  10.634  0.7072  0.5038  0.3886
  106MOL0     C13916  11.109   2.621  10.590  0.1708 -0.0171  0.6139
  106MOL0     C13917  11.231   2.619  10.661  0.8285  0.5312  0.5799
  106MOL0     O13918  11.340   2.695  10.616 -0.8707 -0.7174 -0.7491
  106MOL0     C13919  11.376   2.685  10.476  0.4293  0.3089 -0.1781
  106MOL0     C13920  11.511   2.621  10.457  0.5015 -0.4045  0.1765
  106MOL0     C13921  11.619   2.725  10.481  0.3414 -0.0725 -0.0367
  106MOL0     C13922  11.643   2.744  10.632  0.4040  0.2991  0.7189
  106MOL0     C13923  11.770   2.816  10.648 -0.0664  0.3872 -0.2771
  106MOL0     C13924  11.869   2.889  10.682 -0.5810  1.3392  0.2834
  106MOL0     C13925  11.229   2.542  10.776  0.5024  0.1552  0.2162
  106MOL0     C13926  11.113   2.466  10.823  0.0415  0.0126  0.6849
  106MOL0     H13927  10.638   2.341  10.874  1.1180  1.2934 -0.9918
  106MOL0     H13928  10.442   2.183  10.944 -0.1943 -0.1915  1.5014
  106MOL0     H13929  10.325   2.056  11.048  0.1373  0.3999 -1.5034
  106MOL0     H13930  10.305   1.904  11.137  1.9944  2.2151  2.7240
  106MOL0     H13931  10.312   1.926  10.848  0.9761 -1.9869 -0.1213
  106MOL0     H13932  10.206   1.853  10.952 -0.4361  1.3610  1.3844
  106MOL0     H13933  10.500   1.749  10.932  1.0506 -3.9674  1.9707
  106MOL0     H13934  10.361   1.690  10.828 -0.1146 -0.1598  0.2724
  106MOL0     H13935  10.430   1.554  11.030  1.1039  0.8221  3.0702
  106MOL0     H13936  10.369   1.677  11.139  4.2018 -0.4744  0.1693
  106MOL0     H13937  10.195   1.539  10.932 -3.8618  0.6826  1.0860
  106MOL0     H13938  10.149   1.676  11.019  0.1933  1.0128 -0.8641
  106MOL0     H13939  10.141   1.579  11.228 -1.3736 -0.0282 -1.5001
  106MOL0     H13940  10.258   1.449  11.177 -0.1145  1.8585  0.5782
  106MOL0     H13941   9.970   1.467  11.092 -0.6710 -0.1950  1.9388
  106MOL0     H13942  10.084   1.341  11.040  0.0646 -0.1069 -0.1201
  106MOL0     H13943   9.996   1.399  11.323  1.2091 -0.4369  0.9913
  106MOL0     H13944  10.116   1.273  11.274  0.4951  0.2046 -0.8791
  106MOL0     H13945   9.934   1.077  11.389 -4.8646  2.1259  1.4854
  106MOL0     H13946   9.826   0.844  11.317  0.6307  1.5799  0.8534
  106MOL0     H13947   9.710   0.862  11.182 -1.5229 -1.0499  1.1850
  106MOL0     H13948   9.554   1.001  11.339 -1.1811 -1.3315  0.0717
  106MOL0     H13949   9.646   0.925  11.466  1.5130 -1.0631 -0.3038
  106MOL0     H13950   9.507   0.783  11.229  1.4504 -0.6119  1.1824
  106MOL0     H13951   9.584   0.702  11.371 -4.2001 -1.9169  2.8748
  106MOL0     H13952   9.462   0.769  11.512  0.0445 -0.1896  0.1212
  106MOL0     H13953   9.363   0.689  11.393  1.6735 -1.9781 -1.6480
  106MOL0     H13954   9.188   0.718  11.536  0.0337 -0.2299  0.2029
  106MOL0     H13955   8.952   0.726  11.554  2.2869 -0.8182  0.3397
  106MOL0     H13956   8.515   0.876  11.329 -1.3569  1.7634  0.1686
  106MOL0     H13957   8.264   0.914  11.405  1.8594  0.5985 -1.1355
  106MOL0     H13958   8.162   0.928  11.781  0.2868  0.2535 -1.6519
  106MOL0     H13959   8.142   0.750  11.811  0.1534  0.8466  3.0167
  106MOL0     H13960   7.934   0.837  11.864  2.4812 -4.8142 -0.1701
  106MOL0     H13961   7.921   0.745  11.709 -3.0096 -0.5113  1.8212
  106MOL0     H13962   7.918   0.970  11.586  0.2558 -2.1461 -0.4157
  106MOL0     H13963   7.933   1.046  11.754 -0.7379  1.1464 -1.3235
  106MOL0     H13964   7.698   0.904  11.646  2.0716  0.3935 -3.7553
  106MOL0     H13965   7.719   0.964  11.808 -1.5518  1.6041 -1.2642
  106MOL0     H13966   7.729   1.141  11.553 -1.2247 -1.9017 -0.2536
  106MOL0     H13967   7.763   1.195  11.721  0.0405  1.1423 -0.6849
  106MOL0     H13968   7.528   1.108  11.785 -0.4986  0.0535 -0.2665
  106MOL0     H13969   7.503   1.067  11.632  0.9158 -0.8863  1.2355
  106MOL0     H13970   7.469   1.304  11.544  0.7347  1.5548 -0.1979
  106MOL0     H13971   7.389   1.287  11.682 -0.3352  1.0899 -2.2836
  106MOL0     H13972   7.677   1.387  11.670  0.3656 -3.6233  2.8655
  106MOL0     H13973   7.588   1.392  11.815  2.2586 -2.0131  0.2646
  106MOL0     H13974   8.358   0.728  11.778  1.8232  0.5582  1.5975
  106MOL0     H13975   8.602   0.750  11.735  0.5005  0.3088 -0.2149
  106MOL0     H13976   8.917   1.074  11.321 -1.2953 -1.3427  0.1937
  106MOL0     H13977   9.176   1.070  11.292 -0.8629  0.6544 -0.5224
  106MOL0     H13978  10.745   1.929  11.103  2.8326 -0.7394 -1.1390
  106MOL0     H13979  10.925   2.090  11.024 -0.4996 -0.7162  2.6957
  106MOL0     H13980  10.909   2.528  10.576  1.2355 -1.9507  0.2080
  106MOL0     H13981  11.105   2.675  10.496  1.0000 -0.2968  0.4102
  106MOL0     H13982  11.374   2.784  10.430  0.1985  1.0220  1.3106
  106MOL0     H13983  11.305   2.629  10.415 -0.0417  0.6985  0.0058
  106MOL0     H13984  11.520   2.524  10.506  2.0847 -1.3068 -1.7741
  106MOL0     H13985  11.531   2.591  10.354 -0.0485  0.3586 -0.1595
  106MOL0     H13986  11.596   2.821  10.432  0.6386 -0.3429 -0.7305
  106MOL0     H13987  11.710   2.684  10.435 -1.0099 -3.9600  0.4488
  106MOL0     H13988  11.559   2.804  10.669  0.4195  0.0868  1.1078
  106MOL0     H13989  11.654   2.646  10.680  1.0970  0.9172  1.8732
  106MOL0     H13990  11.947   2.961  10.689  0.5888  0.0070  1.5725
  106MOL0     H13991  11.316   2.519  10.836  0.8526 -2.6973 -1.2195
  106MOL0     H13992  11.129   2.398  10.906  3.3355 -2.5835 -1.8019
  107MOL0     O13993   8.255   3.736   4.631  0.5726 -0.0291  0.2700
  107MOL0     C13994   8.288   3.721   4.511  0.2112 -0.2204 -0.9716
  107MOL0     O13995   8.191   3.702   4.406  0.2995 -0.1203 -0.6770
  107MOL0     C13996   8.055   3.717   4.441 -0.4393  0.1072 -0.4493
  107MOL0     C13997   7.995   3.623   4.521 -0.1679  0.0322  0.8774
  107MOL0     C13998   7.859   3.629   4.535 -0.4135 -0.6930 -0.4070
  107MOL0     C13999   7.796   3.744   4.498 -0.6154  0.8389  0.6543
  107MOL0     O14000   7.663   3.742   4.511  0.1300 -0.3410  0.5272
  107MOL0     C14001   7.580   3.642   4.447 -0.4041 -0.0741 -0.4379
  107MOL0     C14002   7.428   3.699   4.443 -0.4949 -0.0802 -0.0316
  107MOL0     C14003   7.423   3.821   4.345 -0.1174 -0.5549 -0.1355
  107MOL0     C14004   7.277   3.888   4.344 -0.5124  0.4558  0.9643
  107MOL0     C14005   7.274   4.013   4.260 -0.6706  0.5667  0.3126
  107MOL0     C14006   7.140   4.077   4.278  0.5510  0.1698  0.2217
  107MOL0     C14007   7.025   4.022   4.195 -0.5431  0.5895 -0.2113
  107MOL0     C14008   6.906   4.117   4.168  0.0705  0.3599 -0.1553
  107MOL0     N14009   6.825   4.142   4.288  0.4687 -0.8085  0.2188
  107MOL0     C14010   6.686   4.130   4.284  0.2782 -0.5117 -0.4461
  107MOL0     C14011   6.649   4.155   4.415 -0.0924  0.3620 -0.5509
  107MOL0     C14012   6.506   4.179   4.468  0.8183  0.8932 -1.2979
  107MOL0     C14013   6.432   4.041   4.488 -0.1819 -0.5320  0.4159
  107MOL0     C14014   6.327   4.054   4.594  1.1904 -0.6141  0.2446
  107MOL0     C14015   6.234   4.168   4.565  0.6849 -0.2108 -0.0190
  107MOL0     O14016   6.106   4.140   4.628 -0.5039  0.5304  0.6497
  107MOL0     C14017   6.005   4.218   4.573 -0.2679 -0.6795 -0.3730
  107MOL0     C14018   5.874   4.171   4.599  0.2581  0.1524  0.5375
  107MOL0     C14019   5.764   4.245   4.551  0.4389  0.2108  0.6907
  107MOL0     C14020   5.784   4.366   4.490  0.2749 -0.4194  0.3037
  107MOL0     C14021   5.670   4.454   4.427 -0.1212  0.6232 -0.1700
  107MOL0     O14022   5.544   4.388   4.418  0.5369  0.6164  1.0365
  107MOL0     C14023   5.436   4.425   4.350 -0.0375 -0.2948 -1.1146
  107MOL0     C14024   5.370   4.320   4.291 -0.5852  0.3844 -0.8978
  107MOL0     C14025   5.248   4.349   4.215 -0.3927  1.3880 -0.4922
  107MOL0     C14026   5.195   4.473   4.205 -0.6283  0.9616 -0.1512
  107MOL0     O14027   5.079   4.494   4.135  0.2968 -0.0689  0.5243
  107MOL0     C14028   5.034   4.627   4.124 -0.5086 -0.7047 -0.0188
  107MOL0     C14029   5.080   4.694   4.008  0.2973 -0.4824  0.3322
  107MOL0     C14030   5.064   4.628   3.877  0.4611 -1.3983 -0.2828
  107MOL0     C14031   5.101   4.708   3.753 -0.5567  0.0944 -0.8574
  107MOL0     C14032   5.066   4.628   3.626  0.4962  0.5129 -0.0125
  107MOL0     C14033   5.152   4.505   3.603  1.0018 -0.0889 -0.0869
  107MOL0     C14034   5.134   4.439   3.464  0.1849  0.2273  0.5485
  107MOL0     C14035   5.218   4.316   3.436  0.5314 -0.4324  0.1683
  107MOL0    Cl14036   5.398   4.338   3.477 -0.2365 -0.4017  0.1311
  107MOL0     C14037   5.273   4.581   4.262 -0.1813 -0.3357 -1.0355
  107MOL0     C14038   5.394   4.554   4.327  0.7953 -0.1614 -0.4377
  107MOL0     O14039   5.703   4.574   4.393  0.0588  0.7124 -0.2117
  107MOL0     C14040   5.915   4.416   4.470 -0.1515  0.3639 -0.8446
  107MOL0     C14041   6.024   4.349   4.510  0.1700  0.7642 -0.8212
  107MOL0     N14042   6.759   4.167   4.489 -0.1010 -0.1709  0.0469
  107MOL0     N14043   6.859   4.160   4.415 -0.4252 -0.3317  0.4239
  107MOL0     C14044   7.855   3.842   4.416  0.4077  0.8478 -0.2755
  107MOL0     C14045   7.986   3.822   4.387 -0.1342 -0.3814  0.0274
  107MOL0     C14046   8.428   3.701   4.483  0.1634  0.4224 -0.4966
  107MOL0     C14047   8.469   3.656   4.359  0.6779 -0.4065  0.4322
  107MOL0     C14048   8.599   3.619   4.333  0.1438 -0.8659  0.2524
  107MOL0     C14049   8.699   3.644   4.430 -0.4229  0.0909 -0.7610
  107MOL0     O14050   8.833   3.640   4.408  0.3572  0.1036 -0.4907
  107MOL0     C14051   8.877   3.527   4.331 -0.4206 -0.3063  0.2548
  107MOL0     C14052   9.033   3.522   4.325  0.7025 -0.1649  0.2035
  107MOL0     C14053   9.075   3.638   4.241  0.3900  0.4220  0.1503
  107MOL0     C14054   9.219   3.626   4.208 -0.1874 -0.0810 -0.0506
  107MOL0     C14055   9.245   3.724   4.104 -1.0856  0.2091 -0.2889
  107MOL0     C14056   9.271   3.803   4.024 -0.0529 -0.2369 -0.4003
  107MOL0     C14057   8.659   3.687   4.559 -0.2898  0.0160  0.3999
  107MOL0     C14058   8.523   3.703   4.582 -0.5247  0.5475 -0.3334
  107MOL0     H14059   8.051   3.539   4.562 -0.8342 -0.4643  0.7954
  107MOL0     H14060   7.814   3.549   4.593 -2.0163  0.4631  0.0108
  107MOL0     H14061   7.593   3.549   4.504  0.6085 -0.4177 -1.2106
  107MOL0     H14062   7.610   3.614   4.346 -2.6354 -0.9121 -0.9245
  107MOL0     H14063   7.402   3.739   4.541 -2.8558 -2.0241  0.2207
  107MOL0     H14064   7.370   3.611   4.414  1.8592 -0.4526 -4.3962
  107MOL0     H14065   7.448   3.779   4.247  1.4472 -2.7691  1.1419
  107MOL0     H14066   7.486   3.905   4.374 -0.3936 -0.4943  0.2936
  107MOL0     H14067   7.198   3.820   4.312  0.6061 -0.2162 -0.4929
  107MOL0     H14068   7.266   3.907   4.451  1.1238  0.6769  1.1308
  107MOL0     H14069   7.294   3.988   4.156 -3.0356  2.2462 -0.6342
  107MOL0     H14070   7.357   4.081   4.285 -0.2482 -0.2151  1.0931
  107MOL0     H14071   7.148   4.181   4.248 -2.5904 -0.1258 -2.0496
  107MOL0     H14072   7.111   4.081   4.384 -3.2697 -1.1992 -0.6005
  107MOL0     H14073   7.060   3.996   4.095 -2.6144  2.2497 -1.4567
  107MOL0     H14074   6.988   3.930   4.241  0.2384  1.3941  2.2123
  107MOL0     H14075   6.840   4.077   4.090 -1.7302  2.0670  0.4090
  107MOL0     H14076   6.944   4.212   4.129  2.6970 -0.1582  0.9735
  107MOL0     H14077   6.622   4.115   4.197  0.0724  1.2844 -0.6369
  107MOL0     H14078   6.451   4.243   4.399 -2.6270  0.4641  0.8399
  107MOL0     H14079   6.508   4.228   4.566 -1.9262  0.5512 -0.9977
  107MOL0     H14080   6.508   3.964   4.502  0.9943  0.3400 -0.9409
  107MOL0     H14081   6.376   4.008   4.400 -0.6126  3.7698 -1.1363
  107MOL0     H14082   6.263   3.965   4.598  0.8685 -0.5031 -1.5795
  107MOL0     H14083   6.373   4.049   4.693  1.2535 -0.4484  0.2248
  107MOL0     H14084   6.227   4.174   4.456  0.7604 -2.2944 -0.1723
  107MOL0     H14085   6.282   4.254   4.614 -0.4507 -0.4326  1.5629
  107MOL0     H14086   5.867   4.069   4.636 -0.0341 -1.4663 -3.3843
  107MOL0     H14087   5.664   4.207   4.569  1.0517 -1.6595  0.3513
  107MOL0     H14088   5.405   4.219   4.307 -2.2660 -0.2689 -1.0744
  107MOL0     H14089   5.187   4.264   4.187  0.2131  0.5128  0.7552
  107MOL0     H14090   5.058   4.683   4.215  0.1231 -0.4042 -0.3707
  107MOL0     H14091   4.924   4.629   4.117 -0.4946 -0.0063 -0.0723
  107MOL0     H14092   5.184   4.729   4.014 -0.4438  1.7981  0.9176
  107MOL0     H14093   5.030   4.791   3.998  2.3944  0.8498  1.8134
  107MOL0     H14094   4.969   4.573   3.868 -0.8967  0.0230  3.5179
  107MOL0     H14095   5.137   4.547   3.881  0.6990 -1.2092 -0.7126
  107MOL0     H14096   5.045   4.802   3.750  2.9927  2.3714 -2.1356
  107MOL0     H14097   5.207   4.736   3.750 -0.7283  0.8146 -0.4904
  107MOL0     H14098   5.093   4.702   3.550 -1.7438  0.9651 -0.4613
  107MOL0     H14099   4.959   4.604   3.625  0.0911  2.1359 -1.1052
  107MOL0     H14100   5.134   4.444   3.692 -1.2683  4.6223  3.0778
  107MOL0     H14101   5.257   4.536   3.604  0.8092  0.5856 -0.4718
  107MOL0     H14102   5.029   4.421   3.441  0.6937 -1.6444 -0.5467
  107MOL0     H14103   5.169   4.515   3.394 -1.1709 -0.2334 -0.6644
  107MOL0     H14104   5.204   4.291   3.331  0.8673  5.0516 -1.4959
  107MOL0     H14105   5.175   4.230   3.489  1.0855 -1.3732 -0.8482
  107MOL0     H14106   5.242   4.684   4.251 -1.0507 -0.3924  0.5935
  107MOL0     H14107   5.452   4.635   4.369  0.9462 -1.5634  2.2369
  107MOL0     H14108   5.924   4.508   4.413  1.2143  0.1990 -0.9262
  107MOL0     H14109   6.123   4.391   4.500  0.4922  0.7821  1.7814
  107MOL0     H14110   7.807   3.929   4.374  2.4310  1.6281 -1.0544
  107MOL0     H14111   8.051   3.887   4.330 -1.7459  0.4014 -0.9974
  107MOL0     H14112   8.393   3.649   4.282 -0.6004 -0.3511  1.6517
  107MOL0     H14113   8.622   3.579   4.235  0.5731  2.1079 -0.9599
  107MOL0     H14114   8.827   3.515   4.234 -0.9622 -2.6472  0.7797
  107MOL0     H14115   8.845   3.434   4.379 -1.0631  1.1743  2.8811
  107MOL0     H14116   9.067   3.542   4.427  0.4517  0.2703  0.2040
  107MOL0     H14117   9.064   3.423   4.291 -2.7089 -0.9922 -0.8572
  107MOL0     H14118   9.052   3.733   4.291 -1.7536  0.7610 -1.3276
  107MOL0     H14119   9.012   3.635   4.152 -2.3728 -0.9936  1.9942
  107MOL0     H14120   9.294   3.652   4.283  1.5695 -3.7723 -0.2877
  107MOL0     H14121   9.246   3.528   4.167  0.0365  1.3814 -3.8173
  107MOL0     H14122   9.284   3.886   3.958  1.4000 -0.8560 -0.9307
  107MOL0     H14123   8.735   3.703   4.634 -0.4705 -2.2236  1.1284
  107MOL0     H14124   8.509   3.729   4.687  0.3273 -0.5278  0.0669
  108MOL0     O14125   8.451   1.479   6.144 -0.3216 -0.2040 -0.1954
  108MOL0     C14126   8.414   1.364   6.128 -0.5036 -0.4967  0.7425
  108MOL0     O14127   8.489   1.271   6.068 -0.6703  0.5239  0.4266
  108MOL0     C14128   8.615   1.293   6.009 -0.0478  0.6176  0.7114
  108MOL0     C14129   8.645   1.208   5.901 -0.1346  0.3380  0.7600
  108MOL0     C14130   8.771   1.213   5.834 -0.1633 -0.8892  0.1406
  108MOL0     C14131   8.871   1.292   5.896  0.0729 -0.3795 -0.0376
  108MOL0     O14132   8.993   1.297   5.824  0.0788  0.2822 -1.2308
  108MOL0     C14133   9.109   1.289   5.913  0.6770 -0.3164  0.1706
  108MOL0     C14134   9.205   1.188   5.869  0.9645 -0.8957 -0.2388
  108MOL0     C14135   9.168   1.044   5.906  0.7274  0.2367 -0.2849
  108MOL0     C14136   9.070   0.980   5.813 -0.8361  0.2346  0.0163
  108MOL0     C14137   9.048   0.832   5.828 -0.2034 -0.5665 -0.5399
  108MOL0     C14138   8.937   0.803   5.932  0.2431 -0.4285 -0.3511
  108MOL0     C14139   8.901   0.654   5.922  0.6099 -0.7025 -0.1897
  108MOL0     C14140   8.817   0.630   5.791 -0.2114 -0.0033  0.0228
  108MOL0     N14141   8.717   0.731   5.745 -0.0582  0.3541  0.6049
  108MOL0     C14142   8.733   0.823   5.642 -0.1156 -0.7456 -0.5695
  108MOL0     C14143   8.610   0.876   5.634  0.0589  0.6895  0.6487
  108MOL0     C14144   8.568   0.975   5.535 -0.1370 -0.6372  0.5345
  108MOL0     C14145   8.575   0.936   5.386 -0.3712 -0.0410 -0.2428
  108MOL0     C14146   8.549   1.054   5.291  0.6005 -1.1396 -0.3895
  108MOL0     C14147   8.407   1.104   5.281 -0.4419 -0.5268  1.2030
  108MOL0     O14148   8.320   0.988   5.266 -0.5990 -0.8787 -0.1793
  108MOL0     C14149   8.186   1.012   5.256  0.4820 -0.3889  0.3615
  108MOL0     C14150   8.102   0.902   5.244 -0.4518 -0.8349  0.3700
  108MOL0     C14151   7.965   0.916   5.219 -0.3231  0.4377 -0.2325
  108MOL0     C14152   7.914   1.041   5.184  0.2878  0.2088 -1.1862
  108MOL0     C14153   7.769   1.059   5.147 -0.0088 -0.0863 -0.5559
  108MOL0     O14154   7.687   0.948   5.152  0.3795 -0.2946  0.8394
  108MOL0     C14155   7.551   0.955   5.123  0.2108  0.7792  0.0157
  108MOL0     C14156   7.458   1.015   5.206 -0.0613 -0.4783 -0.4991
  108MOL0     C14157   7.321   1.019   5.170 -0.4188  0.6585 -0.7234
  108MOL0     C14158   7.273   0.955   5.051 -0.1079 -0.7393 -0.1615
  108MOL0     O14159   7.142   0.946   5.008  0.7106 -0.4440 -0.1055
  108MOL0     C14160   7.037   1.007   5.088  0.0779  0.6511  0.2924
  108MOL0     C14161   6.982   0.898   5.180  0.3261  0.0716 -0.2319
  108MOL0     C14162   6.865   0.964   5.259 -0.3702 -0.8284  0.4669
  108MOL0     C14163   6.793   0.862   5.344 -0.0929 -0.4304  0.9136
  108MOL0     C14164   6.662   0.919   5.393 -0.8162 -0.7633 -0.1300
  108MOL0     C14165   6.588   0.814   5.474  0.2397  0.1897  0.3367
  108MOL0     C14166   6.460   0.845   5.544  0.3645  0.0337  0.2561
  108MOL0     C14167   6.418   0.711   5.605 -0.1541  0.3671 -0.9564
  108MOL0    Cl14168   6.403   0.555   5.509 -0.3320 -0.4969  0.1427
  108MOL0     C14169   7.368   0.909   4.966  0.2306 -0.2842  0.1301
  108MOL0     C14170   7.504   0.908   4.999  0.2633  0.1932 -0.8426
  108MOL0     O14171   7.733   1.180   5.135 -0.3966 -0.1116 -0.3938
  108MOL0     C14172   7.995   1.151   5.205  0.0124  0.4144 -0.3411
  108MOL0     C14173   8.127   1.136   5.242 -0.5685  0.1660 -0.4106
  108MOL0     N14174   8.520   0.829   5.726  0.0574  0.2823 -0.3156
  108MOL0     N14175   8.587   0.734   5.784  0.5666 -0.4813  0.8741
  108MOL0     C14176   8.838   1.384   5.996 -0.2476 -0.1133 -0.1718
  108MOL0     C14177   8.713   1.380   6.059  0.1765 -0.1166  0.9110
  108MOL0     C14178   8.272   1.338   6.164  0.3501  0.2106 -0.3266
  108MOL0     C14179   8.209   1.210   6.144 -0.0019 -2.2149  0.3445
  108MOL0     C14180   8.091   1.182   6.207 -0.9489  0.6785 -0.2508
  108MOL0     C14181   8.020   1.282   6.280 -0.2304  1.0691  0.2764
  108MOL0     O14182   7.898   1.261   6.347 -0.3866  0.6444 -0.4594
  108MOL0     C14183   7.827   1.141   6.296  0.4865 -0.1853 -0.4907
  108MOL0     C14184   7.677   1.155   6.308 -0.7879 -0.7184  0.0694
  108MOL0     C14185   7.645   1.197   6.453  0.1109 -0.3764 -0.0984
  108MOL0     C14186   7.494   1.187   6.476 -0.7363  0.6549  1.1221
  108MOL0     C14187   7.452   1.053   6.498  0.2102  0.8268  0.3820
  108MOL0     C14188   7.422   0.940   6.515 -0.3319  0.7981  0.6756
  108MOL0     C14189   8.077   1.406   6.300 -0.4985  0.0742  0.3314
  108MOL0     C14190   8.204   1.433   6.240  0.3619  0.4519 -0.6131
  108MOL0     H14191   8.570   1.137   5.868  3.4489 -2.1997 -2.7893
  108MOL0     H14192   8.776   1.155   5.742 -1.5796  1.9145 -1.8696
  108MOL0     H14193   9.078   1.259   6.013  2.7690  0.6085  1.1641
  108MOL0     H14194   9.162   1.385   5.917 -2.3645  1.4808  0.1088
  108MOL0     H14195   9.304   1.214   5.907  2.2573 -0.0927 -3.7918
  108MOL0     H14196   9.217   1.191   5.761  0.9534  0.1943 -0.2160
  108MOL0     H14197   9.126   1.048   6.007  1.6883 -0.5560  0.1667
  108MOL0     H14198   9.257   0.981   5.902 -0.2999 -1.1770 -2.0670
  108MOL0     H14199   8.977   1.037   5.823 -0.5878  0.9462 -1.5320
  108MOL0     H14200   9.109   0.979   5.711  3.3871 -5.7026  1.1759
  108MOL0     H14201   9.139   0.776   5.852 -0.1608  0.6044  2.2977
  108MOL0     H14202   9.009   0.790   5.734 -1.6312 -1.0061  0.2281
  108MOL0     H14203   8.851   0.867   5.912  0.9167  1.0862  1.3770
  108MOL0     H14204   8.969   0.820   6.035  0.9000  0.6024 -0.7118
  108MOL0     H14205   8.993   0.595   5.930  1.4080  0.7148  2.0345
  108MOL0     H14206   8.834   0.623   6.003  0.1964 -2.8617 -1.2723
  108MOL0     H14207   8.758   0.539   5.804  0.4091 -0.3732  0.2832
  108MOL0     H14208   8.882   0.622   5.703  0.0740  1.2295  0.1005
  108MOL0     H14209   8.821   0.838   5.579  1.3174  2.8740  1.9766
  108MOL0     H14210   8.624   1.067   5.556  0.2580 -0.8428  0.4033
  108MOL0     H14211   8.465   0.997   5.561 -0.1575  0.4079 -0.3424
  108MOL0     H14212   8.509   0.851   5.366  2.4920 -2.4049 -0.4729
  108MOL0     H14213   8.672   0.891   5.359 -1.5707 -3.1919  0.2506
  108MOL0     H14214   8.623   1.128   5.324 -1.3015 -0.7530  3.4773
  108MOL0     H14215   8.573   1.031   5.187  0.4454  3.3521 -1.6302
  108MOL0     H14216   8.402   1.170   5.194 -0.6672  2.1760  3.1226
  108MOL0     H14217   8.374   1.161   5.369 -2.6459 -0.3098  0.2762
  108MOL0     H14218   8.157   0.809   5.258  1.8466  0.7634  3.1013
  108MOL0     H14219   7.894   0.833   5.218  0.1899 -0.0427  1.1823
  108MOL0     H14220   7.481   1.070   5.297 -2.7459 -0.6326  0.3660
  108MOL0     H14221   7.255   1.064   5.244  1.0517 -0.1337  1.1582
  108MOL0     H14222   6.958   1.040   5.020  0.2354  0.0703 -0.1835
  108MOL0     H14223   7.074   1.100   5.133 -0.1631  0.1137  1.6633
  108MOL0     H14224   7.060   0.856   5.244 -1.3410 -0.4641  1.5527
  108MOL0     H14225   6.945   0.814   5.120 -0.8836 -0.1157  0.7371
  108MOL0     H14226   6.786   1.008   5.197 -0.7995 -2.6146 -0.3156
  108MOL0     H14227   6.907   1.043   5.322 -0.7503  1.1562 -1.6463
  108MOL0     H14228   6.765   0.780   5.276 -1.6111  0.6677  0.1526
  108MOL0     H14229   6.858   0.827   5.424  1.4285 -1.2849 -0.6285
  108MOL0     H14230   6.596   0.956   5.314  0.0028 -2.3120 -1.6137
  108MOL0     H14231   6.693   1.000   5.460 -0.9305 -2.4402  2.0529
  108MOL0     H14232   6.652   0.753   5.538  0.6139  1.0521  0.8104
  108MOL0     H14233   6.549   0.745   5.399 -2.3454  1.3796  0.4475
  108MOL0     H14234   6.500   0.909   5.623  0.8984  0.6598 -0.5068
  108MOL0     H14235   6.391   0.890   5.473  0.5288  0.0619  0.1142
  108MOL0     H14236   6.322   0.718   5.658  1.3812 -0.7927  2.1997
  108MOL0     H14237   6.485   0.683   5.687  0.1350 -0.3342 -1.4270
  108MOL0     H14238   7.330   0.868   4.873 -0.1488 -0.6712  0.4518
  108MOL0     H14239   7.563   0.853   4.927  0.3185 -1.1556  0.2056
  108MOL0     H14240   7.970   1.253   5.178  0.7508  0.9104  0.7893
  108MOL0     H14241   8.185   1.223   5.267  0.5961 -0.5767 -0.4651
  108MOL0     H14242   8.915   1.451   6.031 -0.5443 -0.9640  2.2941
  108MOL0     H14243   8.704   1.455   6.137  1.7342  3.4260 -1.9906
  108MOL0     H14244   8.256   1.132   6.085  2.7204 -1.2200  1.0614
  108MOL0     H14245   8.063   1.078   6.220  1.2672 -0.0847 -1.1301
  108MOL0     H14246   7.848   1.047   6.348  2.7508  1.4902  1.9345
  108MOL0     H14247   7.850   1.122   6.191  1.0921  0.2752 -0.4464
  108MOL0     H14248   7.638   1.233   6.242 -2.6438 -0.4108  1.4356
  108MOL0     H14249   7.626   1.062   6.282  0.0585 -0.9554 -0.8208
  108MOL0     H14250   7.680   1.300   6.460 -0.8579  0.2001 -2.5842
  108MOL0     H14251   7.692   1.126   6.522 -1.9603 -0.3752  1.4033
  108MOL0     H14252   7.454   1.259   6.548  2.2674  1.8398  1.7476
  108MOL0     H14253   7.441   1.211   6.383 -1.2210 -2.1879  0.5712
  108MOL0     H14254   7.400   0.836   6.531 -0.6890  0.8726  0.6712
  108MOL0     H14255   8.018   1.487   6.344  1.2048  1.0701  0.8669
  108MOL0     H14256   8.252   1.530   6.254  1.6831 -0.5298  2.5256
  109MOL0     O14257   1.123   6.646   6.832 -0.8946  0.1767  0.4746
  109MOL0     C14258   1.153   6.758   6.869 -0.5169 -0.7148  0.1108
  109MOL0     O14259   1.080   6.836   6.956 -0.2456 -0.1624 -0.9474
  109MOL0     C14260   0.949   6.807   6.950  0.9614  0.5580 -0.1803
  109MOL0     C14261   0.895   6.729   7.047 -0.2243 -0.6183  0.9988
  109MOL0     C14262   0.760   6.696   7.041  0.4677 -0.3025  0.8830
  109MOL0     C14263   0.681   6.746   6.939 -0.6930  0.4995  0.2701
  109MOL0     O14264   0.549   6.717   6.933 -0.3692 -0.2961  0.1547
  109MOL0     C14265   0.507   6.576   6.934 -0.0434  0.0945  0.3209
  109MOL0     C14266   0.365   6.576   6.892  1.0212  0.2001  1.1895
  109MOL0     C14267   0.306   6.435   6.879 -0.5728  0.7120 -0.0395
  109MOL0     C14268   0.178   6.436   6.789 -0.7179 -0.3657  0.0647
  109MOL0     C14269   0.145   6.298   6.744  0.6606  0.7703  0.1377
  109MOL0     C14270   0.016   6.301   6.648  0.4730 -0.4387 -0.4697
  109MOL0     C14271  -0.015   6.166   6.582 -0.1150 -0.1723  0.1686
  109MOL0     C14272  -0.158   6.161   6.532 -0.4603 -0.5209 -0.4206
  109MOL0     N14273  -0.171   6.066   6.426 -0.1437  0.0342  0.3063
  109MOL0     C14274  -0.202   5.935   6.450  0.1334  0.2342  0.0706
  109MOL0     C14275  -0.228   5.885   6.322  0.2954  0.1914  0.1263
  109MOL0     C14276  -0.269   5.740   6.304  0.8265 -0.4651  0.3492
  109MOL0     C14277  -0.379   5.725   6.195 -0.7304  1.3877 -1.0711
  109MOL0     C14278  -0.514   5.789   6.234  0.9170  0.1094  0.1312
  109MOL0     C14279  -0.621   5.728   6.152 -0.5333 -0.3554 -0.6882
  109MOL0     O14280  -0.734   5.824   6.153 -0.2815  0.1873  0.0458
  109MOL0     C14281  -0.854   5.769   6.120 -0.7520 -0.2735  0.4391
  109MOL0     C14282  -0.874   5.653   6.047  0.4558  0.1699  0.1705
  109MOL0     C14283  -1.001   5.605   6.014  0.3832  0.3143 -0.3334
  109MOL0     C14284  -1.112   5.678   6.057  0.2939  0.1394  0.2426
  109MOL0     C14285  -1.243   5.616   6.045 -0.6435 -0.2370  0.5488
  109MOL0     O14286  -1.251   5.490   6.004 -0.5419 -0.3265 -0.4153
  109MOL0     C14287  -1.377   5.435   6.017 -0.3800 -0.3618 -0.6252
  109MOL0     C14288  -1.400   5.378   6.145  0.7556  1.1471  0.3279
  109MOL0     C14289  -1.501   5.279   6.158  0.0481  0.7410  0.7327
  109MOL0     C14290  -1.588   5.250   6.049 -0.6590 -0.0563 -1.3772
  109MOL0     O14291  -1.689   5.158   6.049 -0.3511  0.0807  0.0574
  109MOL0     C14292  -1.770   5.153   6.168 -0.1981  0.0876 -0.3614
  109MOL0     C14293  -1.901   5.110   6.103 -0.4279 -0.4941  0.1309
  109MOL0     C14294  -2.018   5.131   6.196  0.2210 -0.0964 -0.2857
  109MOL0     C14295  -2.150   5.107   6.123 -0.5920  0.2655  0.8552
  109MOL0     C14296  -2.266   5.123   6.231 -0.0469  0.4888 -0.3959
  109MOL0     C14297  -2.402   5.091   6.165 -0.3113 -0.1133  0.8545
  109MOL0     C14298  -2.516   5.096   6.271 -0.1510 -0.2553 -0.7197
  109MOL0     C14299  -2.535   5.246   6.317 -0.1282  0.0037  0.7092
  109MOL0    Cl14300  -2.612   5.334   6.179  0.1310 -0.6698 -0.4716
  109MOL0     C14301  -1.570   5.322   5.928  0.6312  0.0039 -0.5254
  109MOL0     C14302  -1.459   5.412   5.912  0.0111 -0.2614 -0.1902
  109MOL0     O14303  -1.332   5.698   6.056  0.9457 -0.3404 -0.0042
  109MOL0     C14304  -1.095   5.796   6.134  0.0044 -0.0107  0.0099
  109MOL0     C14305  -0.965   5.848   6.151  0.1874 -0.5609 -0.5034
  109MOL0     N14306  -0.204   5.982   6.233  0.0755  0.1938  0.8279
  109MOL0     N14307  -0.163   6.094   6.291 -0.6555 -0.9629 -0.0934
  109MOL0     C14308   0.728   6.827   6.841 -0.0999 -1.2734  0.6192
  109MOL0     C14309   0.872   6.854   6.849  0.1144  0.2210 -0.5894
  109MOL0     C14310   1.296   6.811   6.845  0.4546  0.6394 -0.6755
  109MOL0     C14311   1.337   6.937   6.883  0.3874 -0.7034 -0.1618
  109MOL0     C14312   1.464   6.982   6.863  0.1661 -0.0175 -0.0979
  109MOL0     C14313   1.557   6.905   6.801  0.7733  0.4248  1.0297
  109MOL0     O14314   1.684   6.956   6.792 -0.1614  1.2449 -0.5713
  109MOL0     C14315   1.781   6.877   6.864  0.3776  0.2474 -0.0646
  109MOL0     C14316   1.924   6.935   6.837  0.6471 -0.4134  0.7205
  109MOL0     C14317   2.017   6.866   6.945 -0.9818  0.0601 -0.4831
  109MOL0     C14318   2.173   6.875   6.897  0.4598 -0.1182  0.5633
  109MOL0     C14319   2.206   7.023   6.914  0.2242  0.1208  0.7153
  109MOL0     C14320   2.241   7.143   6.920 -0.1550  0.8584 -0.2596
  109MOL0     C14321   1.521   6.773   6.765  1.1613 -0.0489  0.7444
  109MOL0     C14322   1.395   6.723   6.788  0.5798  0.0468  0.9306
  109MOL0     H14323   0.956   6.688   7.127 -1.6732 -1.2721  1.7846
  109MOL0     H14324   0.711   6.637   7.117  0.2819 -0.0594  0.9497
  109MOL0     H14325   0.510   6.539   7.037  3.0465  1.4165  0.8402
  109MOL0     H14326   0.557   6.511   6.863  0.4690  1.2845 -0.4499
  109MOL0     H14327   0.362   6.620   6.792  4.3138  1.7486  1.6391
  109MOL0     H14328   0.301   6.633   6.959 -1.2373  0.2240 -0.8531
  109MOL0     H14329   0.295   6.387   6.976 -1.4779 -1.6026 -1.1955
  109MOL0     H14330   0.381   6.376   6.825 -0.1820  1.0167  0.1713
  109MOL0     H14331   0.094   6.477   6.845  0.4948 -0.5311  2.1287
  109MOL0     H14332   0.206   6.499   6.704  0.0546 -1.0896 -0.2337
  109MOL0     H14333   0.117   6.232   6.826  1.4901  0.6993  0.3649
  109MOL0     H14334   0.226   6.249   6.690 -0.5394 -1.5754  0.3203
  109MOL0     H14335   0.027   6.376   6.569  0.3640  0.1834  0.0882
  109MOL0     H14336  -0.068   6.328   6.713  0.9810 -1.4207  0.6385
  109MOL0     H14337   0.053   6.150   6.498  1.3979  0.6832  1.1831
  109MOL0     H14338  -0.000   6.074   6.640 -1.0330 -0.2270  0.3263
  109MOL0     H14339  -0.177   6.259   6.488  0.6962  1.0947  2.4360
  109MOL0     H14340  -0.244   6.139   6.597  0.1359 -1.3261  0.1118
  109MOL0     H14341  -0.212   5.883   6.545 -2.6359  1.7912  0.7460
  109MOL0     H14342  -0.297   5.704   6.403  1.0705 -0.5935  0.3726
  109MOL0     H14343  -0.187   5.673   6.276  1.2815  0.2689 -0.1400
  109MOL0     H14344  -0.394   5.618   6.178  1.8784  0.7773 -0.0742
  109MOL0     H14345  -0.341   5.774   6.105  1.5389 -0.1691 -1.0441
  109MOL0     H14346  -0.541   5.772   6.339 -0.4769 -3.9077 -0.6915
  109MOL0     H14347  -0.514   5.895   6.208 -2.2754  0.3184  0.5694
  109MOL0     H14348  -0.648   5.630   6.193 -2.5960  1.8366  3.8968
  109MOL0     H14349  -0.580   5.706   6.053 -0.3491 -1.4579 -0.3875
  109MOL0     H14350  -0.789   5.590   6.020  0.6120 -1.1081  3.2529
  109MOL0     H14351  -1.014   5.507   5.971  1.6214  0.9849 -2.3912
  109MOL0     H14352  -1.326   5.401   6.222  0.1487  0.2697  1.1944
  109MOL0     H14353  -1.519   5.227   6.251 -1.3916 -3.1215 -1.4735
  109MOL0     H14354  -1.780   5.257   6.199  1.8106  0.7771 -1.8825
  109MOL0     H14355  -1.741   5.075   6.240  1.3069  1.2931  0.3902
  109MOL0     H14356  -1.895   5.008   6.065  0.3757 -0.0420 -1.0069
  109MOL0     H14357  -1.919   5.169   6.012 -2.0848  1.2795  1.5281
  109MOL0     H14358  -2.016   5.233   6.237  3.2386 -0.2675  0.2148
  109MOL0     H14359  -2.003   5.056   6.274 -0.5051 -0.2839 -0.3137
  109MOL0     H14360  -2.158   5.179   6.040  1.4870  1.6181  1.7457
  109MOL0     H14361  -2.158   5.006   6.082 -0.8123  0.3340  0.7243
  109MOL0     H14362  -2.259   5.223   6.276 -0.4185 -0.3845  1.7359
  109MOL0     H14363  -2.247   5.056   6.316 -1.7255  0.2520 -0.1783
  109MOL0     H14364  -2.391   4.992   6.121 -1.7455  1.5545 -3.8071
  109MOL0     H14365  -2.425   5.148   6.075  1.7161 -0.7660 -0.1245
  109MOL0     H14366  -2.613   5.060   6.236 -0.7445 -0.4431  0.9921
  109MOL0     H14367  -2.470   5.042   6.355  1.0913  0.3640 -0.9773
  109MOL0     H14368  -2.441   5.293   6.349  0.2589 -1.0998  1.2275
  109MOL0     H14369  -2.609   5.251   6.397 -3.5589  1.0763 -2.2535
  109MOL0     H14370  -1.640   5.307   5.845 -1.8670  0.1764  1.4220
  109MOL0     H14371  -1.441   5.445   5.810 -2.9319 -0.6484 -0.9242
  109MOL0     H14372  -1.179   5.843   6.183  0.5202  0.1118  0.7829
  109MOL0     H14373  -0.955   5.941   6.207 -1.3403  0.4179 -1.7783
  109MOL0     H14374   0.656   6.863   6.769 -1.6453  0.7899  3.0730
  109MOL0     H14375   0.926   6.904   6.769  0.5094  0.6293 -0.0698
  109MOL0     H14376   1.270   7.011   6.928  3.3240  1.7556  0.5428
  109MOL0     H14377   1.495   7.083   6.889 -1.6309  0.4604  0.2861
  109MOL0     H14378   1.768   6.770   6.843  2.4038 -0.5656  2.3709
  109MOL0     H14379   1.765   6.880   6.972  4.9459 -0.9132  0.8585
  109MOL0     H14380   1.956   6.918   6.733  0.8353  1.0396  0.5284
  109MOL0     H14381   1.921   7.042   6.855 -0.3071  0.0551 -1.7163
  109MOL0     H14382   1.992   6.761   6.958  2.2003 -0.9906 -1.7606
  109MOL0     H14383   2.006   6.919   7.040 -1.6443 -1.2689  0.2038
  109MOL0     H14384   2.227   6.822   6.976  0.5418  1.3442  1.5112
  109MOL0     H14385   2.179   6.821   6.802 -3.1578 -0.3363  0.3098
  109MOL0     H14386   2.271   7.245   6.927 -0.0353  0.7288  4.1741
  109MOL0     H14387   1.587   6.700   6.719 -0.2166 -0.4004 -0.7301
  109MOL0     H14388   1.373   6.617   6.777 -0.1782  0.1862  1.0124
  110MOL0     O14389   6.059   6.866   3.249 -0.1074  1.3771  0.3113
  110MOL0     C14390   6.097   6.861   3.135  0.2033  0.1758 -0.4726
  110MOL0     O14391   6.035   6.808   3.032  0.3079  0.1732  0.0996
  110MOL0     C14392   5.925   6.729   3.059 -0.1827 -0.3410  0.0760
  110MOL0     C14393   5.939   6.593   3.055 -0.1992 -0.3541 -0.6138
  110MOL0     C14394   5.833   6.505   3.072  0.4647 -0.5405  0.2905
  110MOL0     C14395   5.700   6.560   3.091 -0.7971  0.7397  0.0110
  110MOL0     O14396   5.590   6.484   3.100 -0.2935 -0.4444 -0.0893
  110MOL0     C14397   5.601   6.351   3.053 -0.3423 -0.0048  0.0643
  110MOL0     C14398   5.452   6.293   3.061 -0.4113 -0.2023  0.9626
  110MOL0     C14399   5.445   6.140   3.063 -0.4854  0.4185  0.8399
  110MOL0     C14400   5.305   6.089   3.059 -0.1205  0.2916  0.2140
  110MOL0     C14401   5.326   5.942   3.020  0.6372  0.5127 -0.5506
  110MOL0     C14402   5.388   5.842   3.123 -0.3720 -0.5298 -0.2911
  110MOL0     C14403   5.379   5.702   3.069  0.4765 -0.5469 -0.5868
  110MOL0     C14404   5.360   5.595   3.183 -0.4659 -0.4825  0.0100
  110MOL0     N14405   5.481   5.571   3.261  0.1246 -0.9187  0.2423
  110MOL0     C14406   5.473   5.519   3.386 -1.1636 -0.3982 -1.0292
  110MOL0     C14407   5.607   5.508   3.428  0.3563 -0.0683 -0.5135
  110MOL0     C14408   5.662   5.445   3.557 -0.3854  0.7491 -0.6107
  110MOL0     C14409   5.799   5.375   3.533  0.6543 -0.7122 -0.2867
  110MOL0     C14410   5.839   5.318   3.673 -0.0975 -0.5715 -0.2327
  110MOL0     C14411   5.967   5.244   3.663 -0.4829  0.0420 -0.4586
  110MOL0     O14412   5.985   5.161   3.779 -0.2973  0.4335 -0.6564
  110MOL0     C14413   6.102   5.091   3.799 -0.0196 -0.4662  0.1431
  110MOL0     C14414   6.214   5.088   3.706  0.1785  0.9624  0.0465
  110MOL0     C14415   6.330   5.019   3.744  0.5859  0.5283 -0.1831
  110MOL0     C14416   6.328   4.944   3.860  0.2312  0.2743  0.7953
  110MOL0     C14417   6.449   4.864   3.894 -0.3291  0.0682 -0.1850
  110MOL0     O14418   6.575   4.902   3.844 -0.0721  0.3882 -0.9443
  110MOL0     C14419   6.695   4.839   3.890 -0.0349  0.4118  0.1872
  110MOL0     C14420   6.714   4.697   3.888 -0.2254 -0.2045  0.0169
  110MOL0     C14421   6.843   4.644   3.910 -0.2416 -0.8918 -0.5277
  110MOL0     C14422   6.944   4.722   3.958 -0.4786 -0.2960  0.9838
  110MOL0     O14423   7.065   4.669   3.991  0.8855 -0.5876  0.1870
  110MOL0     C14424   7.095   4.688   4.127 -0.3154 -0.0949  0.3503
  110MOL0     C14425   7.226   4.619   4.156  0.6611 -0.0194 -0.0442
  110MOL0     C14426   7.233   4.476   4.094 -0.0775 -0.4978 -0.3169
  110MOL0     C14427   7.372   4.412   4.127 -0.0609 -0.2629 -0.4171
  110MOL0     C14428   7.400   4.299   4.038 -0.3056 -0.2760 -0.3523
  110MOL0     C14429   7.534   4.223   4.067 -0.0150 -0.6080  0.1378
  110MOL0     C14430   7.558   4.087   4.004  0.7725  0.2890  0.2526
  110MOL0     C14431   7.661   4.004   4.075  0.9012 -0.0734  0.8033
  110MOL0    Cl14432   7.830   4.062   4.076 -0.0837 -0.2460  0.3055
  110MOL0     C14433   6.923   4.860   3.966 -0.3478 -0.3109 -0.4056
  110MOL0     C14434   6.804   4.912   3.925 -0.8104 -0.3864 -0.0554
  110MOL0     O14435   6.437   4.762   3.962  0.5921  0.2627  0.2563
  110MOL0     C14436   6.219   4.939   3.939  0.2416 -0.8086  0.9516
  110MOL0     C14437   6.108   5.012   3.912  0.1694  0.3203 -0.2076
  110MOL0     N14438   5.692   5.549   3.324 -0.3049 -0.8582 -0.6627
  110MOL0     N14439   5.611   5.592   3.225 -0.5619  0.0038 -0.6653
  110MOL0     C14440   5.683   6.696   3.084  0.3714  1.2197 -0.1596
  110MOL0     C14441   5.791   6.778   3.071 -0.7728  0.3902  0.2386
  110MOL0     C14442   6.232   6.923   3.105 -1.0506 -0.2047  0.3918
  110MOL0     C14443   6.329   6.939   3.199  0.5512  0.0447 -0.6702
  110MOL0     C14444   6.451   6.994   3.162 -0.5003 -0.2570 -0.4643
  110MOL0     C14445   6.483   7.023   3.022 -0.9597  0.4597 -0.2092
  110MOL0     O14446   6.599   7.082   2.985 -0.7261 -0.7193 -0.0305
  110MOL0     C14447   6.678   7.154   3.082 -0.5119  0.2231 -0.7777
  110MOL0     C14448   6.785   7.250   3.025  0.5945 -0.0714  0.2970
  110MOL0     C14449   6.903   7.252   3.120 -0.0044 -1.2765 -0.1260
  110MOL0     C14450   7.003   7.371   3.106  0.1883 -0.9058 -0.4615
  110MOL0     C14451   7.110   7.372   3.201 -0.5486  0.4302 -0.4235
  110MOL0     C14452   7.197   7.357   3.289 -0.2261 -0.5059  0.7391
  110MOL0     C14453   6.384   7.004   2.929  1.3537  1.1384  0.6242
  110MOL0     C14454   6.260   6.954   2.967 -0.1604  0.4642  0.4571
  110MOL0     H14455   6.036   6.543   3.048 -0.0562 -0.2050  0.1707
  110MOL0     H14456   5.859   6.400   3.079  1.1626 -0.3620  0.4365
  110MOL0     H14457   5.657   6.305   3.135  0.0483  0.2646 -0.0483
  110MOL0     H14458   5.650   6.345   2.955 -0.8319  2.2476 -0.3768
  110MOL0     H14459   5.389   6.337   2.983  1.5446  1.5645  0.2837
  110MOL0     H14460   5.419   6.321   3.162 -0.5347  0.8591  0.6345
  110MOL0     H14461   5.497   6.105   3.152  0.0557  0.4402  0.5358
  110MOL0     H14462   5.510   6.116   2.978  3.8952  2.4100  3.2685
  110MOL0     H14463   5.247   6.105   3.151 -0.4952  0.4954 -0.0558
  110MOL0     H14464   5.246   6.146   2.987 -0.7082  1.9772  1.9374
  110MOL0     H14465   5.385   5.938   2.927  0.1777  2.5994 -0.9774
  110MOL0     H14466   5.223   5.910   3.000  1.5442 -1.7832 -2.0272
  110MOL0     H14467   5.331   5.850   3.216  0.1587  0.0362 -0.0075
  110MOL0     H14468   5.492   5.874   3.140 -1.2114  1.0271  2.5919
  110MOL0     H14469   5.296   5.695   2.998 -0.9067  2.0251  0.6103
  110MOL0     H14470   5.471   5.672   3.019  0.2618  0.5733 -1.7105
  110MOL0     H14471   5.344   5.498   3.133 -0.3348  1.0040 -3.1440
  110MOL0     H14472   5.271   5.622   3.240 -1.1503  1.3374 -1.8021
  110MOL0     H14473   5.381   5.494   3.438 -1.2200  0.6413 -0.5964
  110MOL0     H14474   5.593   5.375   3.606 -0.5365  0.7949 -0.7565
  110MOL0     H14475   5.678   5.525   3.629 -2.2894  0.2189  0.4757
  110MOL0     H14476   5.873   5.452   3.512  2.2661 -1.8247  0.9903
  110MOL0     H14477   5.799   5.299   3.454 -0.1612  1.2945 -2.2941
  110MOL0     H14478   5.847   5.393   3.752  0.7896 -2.3862  1.5058
  110MOL0     H14479   5.768   5.240   3.703  1.1214 -2.9372 -2.9521
  110MOL0     H14480   6.051   5.308   3.635 -0.5120  0.6585  0.7760
  110MOL0     H14481   5.953   5.172   3.582 -3.8101 -2.1877  1.8152
  110MOL0     H14482   6.205   5.125   3.605  1.6603 -2.4743 -1.5147
  110MOL0     H14483   6.417   5.012   3.678  1.2780 -1.1565  0.8504
  110MOL0     H14484   6.649   4.619   3.849  0.5845 -0.6652 -0.4508
  110MOL0     H14485   6.864   4.538   3.908  1.1085 -0.6474 -1.0455
  110MOL0     H14486   7.011   4.635   4.171 -0.4806 -1.5424 -1.5806
  110MOL0     H14487   7.093   4.793   4.157  2.0373  0.6398 -1.6814
  110MOL0     H14488   7.243   4.607   4.263 -0.9089  2.8455  0.6281
  110MOL0     H14489   7.307   4.679   4.112 -0.9310  1.9862 -0.3493
  110MOL0     H14490   7.221   4.479   3.985 -1.5252 -3.1277 -0.3224
  110MOL0     H14491   7.148   4.420   4.133  0.4970  0.2848  2.2232
  110MOL0     H14492   7.455   4.484   4.126 -0.1297 -0.0795  1.8543
  110MOL0     H14493   7.372   4.369   4.227 -2.6562  1.6849  0.5332
  110MOL0     H14494   7.391   4.331   3.934 -0.2394 -0.4790 -0.4208
  110MOL0     H14495   7.323   4.222   4.050  0.0232 -0.5559 -0.0342
  110MOL0     H14496   7.536   4.220   4.176  0.7170 -0.3079  0.1376
  110MOL0     H14497   7.614   4.289   4.033 -0.3164 -1.2856 -2.0905
  110MOL0     H14498   7.473   4.020   4.010  1.6844 -1.1150 -1.5430
  110MOL0     H14499   7.580   4.101   3.898  0.6643  0.6070  0.2711
  110MOL0     H14500   7.654   3.911   4.017  0.1886  0.4275  0.0510
  110MOL0     H14501   7.628   4.001   4.179  1.4259 -1.1218  0.9476
  110MOL0     H14502   7.014   4.915   3.989  0.2352 -1.4761  0.1120
  110MOL0     H14503   6.788   5.019   3.915 -0.0454  0.3450  4.4264
  110MOL0     H14504   6.219   4.867   4.020  1.9072 -1.9636 -0.0165
  110MOL0     H14505   6.026   4.996   3.981  1.8506 -1.8113  1.4478
  110MOL0     H14506   5.583   6.738   3.091  0.4280  1.1673  5.3925
  110MOL0     H14507   5.773   6.885   3.077 -1.9495  0.2986 -1.0618
  110MOL0     H14508   6.297   6.918   3.300 -1.4622 -1.8623 -1.6049
  110MOL0     H14509   6.519   7.013   3.244 -2.9378 -0.4130  1.7129
  110MOL0     H14510   6.737   7.086   3.144  3.3249  1.3685 -2.8621
  110MOL0     H14511   6.612   7.215   3.144  1.5283 -1.3516  3.2989
  110MOL0     H14512   6.821   7.208   2.931 -0.9371  1.0824 -0.8597
  110MOL0     H14513   6.735   7.343   2.994  2.2933  0.9504  0.5119
  110MOL0     H14514   6.957   7.158   3.115  1.8236 -0.1770 -2.6056
  110MOL0     H14515   6.856   7.248   3.219 -0.6000 -0.0356 -0.3422
  110MOL0     H14516   7.039   7.372   3.003 -4.3024 -2.1223 -2.2803
  110MOL0     H14517   6.950   7.465   3.126 -1.5186 -1.8721 -0.2263
  110MOL0     H14518   7.266   7.345   3.370  0.1007  2.8773  1.1216
  110MOL0     H14519   6.397   7.042   2.828  3.7107 -0.3496  0.2949
  110MOL0     H14520   6.176   6.939   2.900  0.2816 -0.8026  0.1503
  111MOL0     O14521   6.306   8.054   3.246  0.3384  0.2168  0.4378
  111MOL0     C14522   6.265   8.155   3.299  0.0980 -0.4569 -0.2853
  111MOL0     O14523   6.141   8.170   3.351  0.3750  0.0587 -0.5261
  111MOL0     C14524   6.037   8.077   3.340 -0.7307  0.6076  0.0492
  111MOL0     C14525   6.063   7.939   3.333 -0.2640 -0.5093  0.8373
  111MOL0     C14526   5.958   7.848   3.332  0.9126 -0.6651 -1.1291
  111MOL0     C14527   5.830   7.892   3.351  0.2956 -0.6670  0.8634
  111MOL0     O14528   5.724   7.803   3.363 -0.0697 -0.2191  0.1101
  111MOL0     C14529   5.590   7.844   3.360  0.6770  0.0247  0.4058
  111MOL0     C14530   5.548   7.892   3.496 -0.8208 -0.2732  0.3780
  111MOL0     C14531   5.414   7.959   3.490 -0.2132 -0.6310  0.3103
  111MOL0     C14532   5.307   7.858   3.429 -0.2786 -0.8121 -0.1602
  111MOL0     C14533   5.166   7.920   3.466  0.3893 -0.2212  0.1381
  111MOL0     C14534   5.048   7.825   3.449 -0.0884 -1.0310  0.6548
  111MOL0     C14535   4.913   7.893   3.471 -0.0345 -0.0505  0.4972
  111MOL0     C14536   4.873   7.878   3.618 -0.2437 -0.3375  0.3129
  111MOL0     N14537   4.750   7.949   3.634  0.1722  0.2114  0.2452
  111MOL0     C14538   4.628   7.933   3.581 -0.5705  0.3382 -0.8027
  111MOL0     C14539   4.544   8.021   3.644 -0.6019  0.1011 -0.4671
  111MOL0     C14540   4.388   8.015   3.626 -0.4561  1.3041  0.1939
  111MOL0     C14541   4.345   8.137   3.555 -0.9866 -0.3394  0.1144
  111MOL0     C14542   4.207   8.185   3.586  0.5131  0.0583  0.3756
  111MOL0     C14543   4.210   8.305   3.674  0.6984 -0.1731  0.1329
  111MOL0     O14544   4.179   8.428   3.601 -0.4655  0.3963  0.0251
  111MOL0     C14545   4.047   8.442   3.572 -0.3516 -2.0957  0.9686
  111MOL0     C14546   4.014   8.569   3.518  1.3169  0.2089 -0.5766
  111MOL0     C14547   3.876   8.600   3.503  0.6202 -0.4923  0.4438
  111MOL0     C14548   3.773   8.502   3.514 -0.5588  0.5355  0.1099
  111MOL0     C14549   3.630   8.542   3.496  0.7687  0.5990 -0.5438
  111MOL0     O14550   3.537   8.443   3.495  0.0704 -0.4664  0.7838
  111MOL0     C14551   3.404   8.466   3.493 -0.4240 -0.2863 -0.1444
  111MOL0     C14552   3.335   8.572   3.426 -0.5084 -0.1666 -0.1467
  111MOL0     C14553   3.196   8.596   3.445  0.6253 -0.3135  0.1368
  111MOL0     C14554   3.118   8.505   3.514  0.1211 -0.1311  0.4680
  111MOL0     O14555   2.979   8.531   3.506 -0.2596 -0.4183 -0.7594
  111MOL0     C14556   2.926   8.534   3.639 -0.5332  0.2588 -0.6540
  111MOL0     C14557   2.807   8.619   3.654 -0.2954 -0.6671 -0.0407
  111MOL0     C14558   2.845   8.762   3.607  0.5938  0.4297  0.5464
  111MOL0     C14559   2.725   8.859   3.615 -0.6166  0.1569  0.7840
  111MOL0     C14560   2.771   9.001   3.570 -0.8409  0.6121 -0.6941
  111MOL0     C14561   2.663   9.102   3.562  0.8048  0.0854 -0.0393
  111MOL0     C14562   2.711   9.235   3.533  0.0351  0.2232  0.4247
  111MOL0     C14563   2.607   9.343   3.505  0.5545 -0.1295 -0.0467
  111MOL0    Cl14564   2.665   9.515   3.517 -0.2644  0.1601  0.1270
  111MOL0     C14565   3.179   8.394   3.563 -0.2239  0.4422 -0.9486
  111MOL0     C14566   3.317   8.374   3.554 -0.5023 -0.2915 -0.4144
  111MOL0     O14567   3.603   8.661   3.490  0.0131 -0.0230  0.4581
  111MOL0     C14568   3.812   8.374   3.565 -0.1373  0.0415 -0.9460
  111MOL0     C14569   3.945   8.347   3.593 -0.6706  0.2257  0.2690
  111MOL0     N14570   4.616   8.097   3.730  0.4798 -0.1624 -0.3548
  111MOL0     N14571   4.736   8.053   3.720 -0.3446  0.0771 -0.7049
  111MOL0     C14572   5.800   8.028   3.361  0.4189 -0.8665  0.5000
  111MOL0     C14573   5.905   8.117   3.350  0.6025 -0.2599 -0.4752
  111MOL0     C14574   6.339   8.277   3.316 -0.6528 -0.8448 -0.2044
  111MOL0     C14575   6.311   8.397   3.394  0.9630 -0.0256 -0.4311
  111MOL0     C14576   6.400   8.503   3.413 -0.9802 -0.3354  0.4642
  111MOL0     C14577   6.523   8.506   3.348  0.5618 -0.0197  0.2735
  111MOL0     O14578   6.619   8.607   3.361  0.2494  0.1465  0.2276
  111MOL0     C14579   6.579   8.744   3.334  0.1519 -0.3033 -0.3468
  111MOL0     C14580   6.569   8.767   3.185  0.5655 -0.8880  0.2702
  111MOL0     C14581   6.439   8.731   3.116 -0.2328 -0.4316  0.2162
  111MOL0     C14582   6.456   8.714   2.967 -0.4452  0.6354  0.2381
  111MOL0     C14583   6.536   8.593   2.937 -0.0190  0.3381 -0.2938
  111MOL0     C14584   6.575   8.476   2.928  0.4215 -0.2786 -0.0643
  111MOL0     C14585   6.546   8.398   3.257  0.1611 -1.0478 -0.2598
  111MOL0     C14586   6.459   8.286   3.244 -0.1872 -0.2578 -0.1088
  111MOL0     H14587   6.161   7.893   3.333  0.2971  0.5595 -1.0661
  111MOL0     H14588   5.967   7.740   3.320 -0.5407 -1.0254  0.5974
  111MOL0     H14589   5.528   7.757   3.339  0.8162  0.1762 -0.7219
  111MOL0     H14590   5.576   7.906   3.271  1.7741 -0.5236 -0.1641
  111MOL0     H14591   5.626   7.957   3.539  1.3405 -1.7771 -1.0723
  111MOL0     H14592   5.526   7.805   3.558 -1.7200 -1.4152 -1.4922
  111MOL0     H14593   5.410   8.049   3.428  2.0299 -2.3236 -2.5566
  111MOL0     H14594   5.390   7.992   3.592 -2.5909  1.5016 -0.8337
  111MOL0     H14595   5.321   7.849   3.321  1.3297 -2.5559  0.1308
  111MOL0     H14596   5.325   7.758   3.470  0.0205 -0.6331  0.1580
  111MOL0     H14597   5.152   8.002   3.394 -1.9425  0.7682  1.6013
  111MOL0     H14598   5.152   7.953   3.569  0.8881  0.3344  0.0358
  111MOL0     H14599   5.059   7.748   3.525 -3.7145 -2.9083 -0.5031
  111MOL0     H14600   5.051   7.781   3.348  0.7874 -1.2025  0.7493
  111MOL0     H14601   4.915   7.998   3.440  1.8270 -0.0378  0.5757
  111MOL0     H14602   4.840   7.847   3.404  0.7128  0.6012 -0.7887
  111MOL0     H14603   4.955   7.910   3.682 -1.6844  0.3033  1.9053
  111MOL0     H14604   4.854   7.772   3.639  1.4653 -0.7924 -0.2071
  111MOL0     H14605   4.594   7.850   3.520  0.0413  1.3418 -2.5513
  111MOL0     H14606   4.341   8.007   3.724  0.5751  1.5708  0.7275
  111MOL0     H14607   4.360   7.927   3.568  2.3634  1.7364 -2.0599
  111MOL0     H14608   4.361   8.111   3.450 -2.2257  0.8744 -0.4107
  111MOL0     H14609   4.417   8.217   3.574  0.2472 -0.3875 -3.6882
  111MOL0     H14610   4.157   8.213   3.493 -0.5836  2.5979  1.6355
  111MOL0     H14611   4.148   8.107   3.635  2.4189 -1.6607  0.0700
  111MOL0     H14612   4.307   8.307   3.724  1.7614 -1.2567 -1.7128
  111MOL0     H14613   4.145   8.283   3.759 -1.7737  0.4186 -1.4760
  111MOL0     H14614   4.099   8.636   3.511  1.3172  0.8552  3.4232
  111MOL0     H14615   3.847   8.695   3.458  2.1593 -0.5568 -0.7870
  111MOL0     H14616   3.398   8.645   3.378  0.2757  0.2240  1.4236
  111MOL0     H14617   3.150   8.675   3.386  0.6251 -1.6992 -1.8290
  111MOL0     H14618   3.000   8.562   3.714 -1.6975 -1.6099  1.2930
  111MOL0     H14619   2.890   8.434   3.662 -2.4404  1.2931  1.1655
  111MOL0     H14620   2.777   8.613   3.759  0.8287 -2.3782  0.2254
  111MOL0     H14621   2.730   8.578   3.588  1.5644 -1.7140 -1.6580
  111MOL0     H14622   2.885   8.756   3.505  0.3314 -2.1878  0.5448
  111MOL0     H14623   2.932   8.802   3.660  1.5569 -0.5285 -0.2668
  111MOL0     H14624   2.637   8.819   3.564 -0.2140  1.0171 -0.6516
  111MOL0     H14625   2.707   8.859   3.723  0.2380  0.5784  0.9343
  111MOL0     H14626   2.825   8.999   3.475  2.1796 -1.4204  0.8928
  111MOL0     H14627   2.840   9.042   3.646  1.2264 -0.8867 -1.6778
  111MOL0     H14628   2.627   9.111   3.665  2.0635 -1.7432  0.6132
  111MOL0     H14629   2.577   9.082   3.496  0.7882  3.1444 -1.0886
  111MOL0     H14630   2.783   9.273   3.605  1.4635  1.5506 -1.5763
  111MOL0     H14631   2.775   9.218   3.446 -2.0722  1.0762 -1.4135
  111MOL0     H14632   2.526   9.338   3.578 -0.3065 -1.2399 -1.0408
  111MOL0     H14633   2.567   9.327   3.405 -1.8377  4.8503 -0.2025
  111MOL0     H14634   3.129   8.316   3.620  3.5240 -1.4123  0.1856
  111MOL0     H14635   3.355   8.285   3.604 -1.2987 -0.9109 -0.8666
  111MOL0     H14636   3.738   8.295   3.575  1.3456 -1.6488 -2.5860
  111MOL0     H14637   3.960   8.247   3.631  3.5733 -0.3219 -2.1519
  111MOL0     H14638   5.699   8.069   3.371  0.2759 -1.0579 -0.1263
  111MOL0     H14639   5.878   8.220   3.370 -0.4319 -0.9066  1.7122
  111MOL0     H14640   6.212   8.397   3.439 -2.4542 -2.0950 -6.6743
  111MOL0     H14641   6.401   8.585   3.484  5.8358 -0.7595  1.5906
  111MOL0     H14642   6.650   8.800   3.395  0.5415 -2.4990  1.3221
  111MOL0     H14643   6.478   8.764   3.372  0.1072  0.5447 -0.8692
  111MOL0     H14644   6.591   8.872   3.163  3.0671 -0.9719  1.9776
  111MOL0     H14645   6.652   8.707   3.145  2.0441 -0.0748  1.9799
  111MOL0     H14646   6.375   8.817   3.135  0.6343 -0.3794  3.5022
  111MOL0     H14647   6.403   8.634   3.153  1.2418 -1.8689 -1.8893
  111MOL0     H14648   6.357   8.694   2.924  0.5129 -0.7168 -1.4726
  111MOL0     H14649   6.505   8.799   2.919 -3.0314  0.6509 -2.7460
  111MOL0     H14650   6.617   8.382   2.898  1.2968  0.5438 -1.5125
  111MOL0     H14651   6.637   8.406   3.198  0.4032  1.2770  0.3122
  111MOL0     H14652   6.482   8.211   3.169 -2.1541  0.5048 -1.5501
  112MOL0     O14653   1.362   6.733   7.665  0.2914 -0.6133  0.9323
  112MOL0     C14654   1.435   6.679   7.743 -1.2347  0.9986 -0.0457
  112MOL0     O14655   1.407   6.591   7.843 -0.6805 -0.6532 -0.2135
  112MOL0     C14656   1.282   6.550   7.880  0.2895 -0.3998  0.3082
  112MOL0     C14657   1.162   6.597   7.838  0.3447  0.0351 -0.0532
  112MOL0     C14658   1.040   6.540   7.866 -0.4231  0.9036 -0.6921
  112MOL0     C14659   1.030   6.447   7.964  0.0176  0.2171 -0.3081
  112MOL0     O14660   0.913   6.393   8.005 -0.7237 -0.3214 -0.4836
  112MOL0     C14661   0.832   6.487   8.065 -0.1753 -0.1962  0.8333
  112MOL0     C14662   0.725   6.430   8.160 -0.1886 -0.0388 -0.1587
  112MOL0     C14663   0.638   6.540   8.194  0.3782 -0.3296 -0.8813
  112MOL0     C14664   0.513   6.499   8.275 -0.6589 -0.5671  0.9978
  112MOL0     C14665   0.417   6.402   8.195  0.4298 -0.2100 -0.2734
  112MOL0     C14666   0.297   6.377   8.288  0.1152 -0.1998 -0.5062
  112MOL0     C14667   0.181   6.299   8.229  0.4223 -0.7559 -0.2464
  112MOL0     C14668   0.036   6.332   8.295 -0.1934  0.9799  0.4688
  112MOL0     N14669  -0.062   6.283   8.204  0.1595  0.4403 -0.2978
  112MOL0     C14670  -0.099   6.332   8.085 -0.4394 -1.0911  0.0367
  112MOL0     C14671  -0.194   6.259   8.048 -0.3060 -0.0746 -0.3442
  112MOL0     C14672  -0.251   6.283   7.913  0.3705  0.0713  0.1186
  112MOL0     C14673  -0.250   6.174   7.822  0.0965  0.8078  0.3486
  112MOL0     C14674  -0.329   6.200   7.692 -0.3149  0.3348 -0.5364
  112MOL0     C14675  -0.290   6.326   7.612  0.5919  0.2542  0.2229
  112MOL0     O14676  -0.148   6.328   7.592 -0.8836 -0.2079 -0.0651
  112MOL0     C14677  -0.072   6.438   7.621 -0.5714 -0.8784 -0.0812
  112MOL0     C14678   0.066   6.427   7.627  0.2358 -0.0246  0.3122
  112MOL0     C14679   0.141   6.538   7.648  0.1073 -0.7185  0.3330
  112MOL0     C14680   0.088   6.666   7.659  0.6642 -0.5932 -0.7685
  112MOL0     C14681   0.174   6.786   7.670 -0.2796 -0.0220  0.1585
  112MOL0     O14682   0.119   6.905   7.636  0.1415 -0.7509 -0.0375
  112MOL0     C14683   0.184   7.023   7.616  1.6661 -0.6613  0.2475
  112MOL0     C14684   0.084   7.121   7.609  1.1878 -0.1439  0.1466
  112MOL0     C14685   0.115   7.249   7.574 -0.9074  0.1706 -0.4132
  112MOL0     C14686   0.249   7.277   7.534  0.6049  1.1017 -0.6585
  112MOL0     O14687   0.292   7.395   7.492  0.5204 -0.3624  0.6174
  112MOL0     C14688   0.209   7.475   7.408  0.0288 -0.4057  0.0415
  112MOL0     C14689   0.294   7.569   7.330 -0.4110  0.5978  0.1576
  112MOL0     C14690   0.373   7.671   7.413 -0.8369  0.3971  0.5739
  112MOL0     C14691   0.419   7.773   7.305  0.5069  0.5303 -0.6859
  112MOL0     C14692   0.541   7.859   7.346  0.2802 -0.1252  0.1087
  112MOL0     C14693   0.680   7.791   7.342 -0.0856 -0.6394 -0.0740
  112MOL0     C14694   0.712   7.760   7.194 -0.5117 -0.1880  0.0238
  112MOL0     C14695   0.864   7.707   7.202  1.1245 -0.0531  0.1701
  112MOL0    Cl14696   0.920   7.647   7.036 -0.4967 -0.1349 -0.0566
  112MOL0     C14697   0.340   7.173   7.534 -0.7992 -0.1179 -1.0091
  112MOL0     C14698   0.317   7.042   7.584 -0.6076 -0.4498 -0.3006
  112MOL0     O14699   0.292   6.764   7.700 -0.1568  0.3023 -0.1211
  112MOL0     C14700  -0.048   6.682   7.652  0.7689 -0.0714 -0.3431
  112MOL0     C14701  -0.126   6.572   7.634 -0.5836  0.1141  0.9872
  112MOL0     N14702  -0.224   6.161   8.144 -0.1108 -0.2098  0.5301
  112MOL0     N14703  -0.138   6.169   8.235  0.3274  0.2458  0.5172
  112MOL0     C14704   1.155   6.399   8.021  0.9131 -0.2458  0.1834
  112MOL0     C14705   1.279   6.452   7.982 -0.3589  0.4914  0.7739
  112MOL0     C14706   1.581   6.726   7.742  0.3326  0.0102 -0.3094
  112MOL0     C14707   1.658   6.742   7.625  0.0382 -1.1646 -0.1258
  112MOL0     C14708   1.796   6.765   7.630 -0.7983 -0.3820 -0.4737
  112MOL0     C14709   1.860   6.794   7.755  0.1943 -0.0350  1.5185
  112MOL0     O14710   1.991   6.829   7.762  0.2424 -0.2500  0.5137
  112MOL0     C14711   2.096   6.769   7.682  0.5961  0.5294 -0.0225
  112MOL0     C14712   2.185   6.680   7.762  0.8569  0.0221 -0.9025
  112MOL0     C14713   2.270   6.752   7.863  0.0769 -0.5977  0.2698
  112MOL0     C14714   2.363   6.678   7.958 -0.0204 -0.1791 -0.3590
  112MOL0     C14715   2.456   6.590   7.880  0.1280 -0.4390 -0.2425
  112MOL0     C14716   2.531   6.518   7.816  0.4229  0.4815  0.1223
  112MOL0     C14717   1.790   6.784   7.873  0.3874  0.2243 -0.7537
  112MOL0     C14718   1.652   6.749   7.868  0.2186 -0.0369 -0.1047
  112MOL0     H14719   1.157   6.676   7.764  1.1131  1.0856  0.9734
  112MOL0     H14720   0.938   6.565   7.837 -0.5641  0.1352 -0.8741
  112MOL0     H14721   0.788   6.540   7.980 -0.2632 -1.1824  0.2503
  112MOL0     H14722   0.898   6.556   8.120  0.1503 -2.0648  2.9492
  112MOL0     H14723   0.784   6.394   8.245  1.0884  3.7405  0.7507
  112MOL0     H14724   0.666   6.360   8.100 -2.9898  1.7446  0.3608
  112MOL0     H14725   0.615   6.596   8.103 -0.5526  0.3602 -0.2347
  112MOL0     H14726   0.689   6.615   8.255  0.4827 -2.3355  1.6880
  112MOL0     H14727   0.540   6.453   8.371  1.9227  1.1887  1.2294
  112MOL0     H14728   0.461   6.592   8.297 -1.9548 -1.4634  1.8959
  112MOL0     H14729   0.460   6.308   8.159 -0.6880 -0.7944 -0.1265
  112MOL0     H14730   0.378   6.447   8.104 -2.2233 -2.3864 -0.3290
  112MOL0     H14731   0.263   6.476   8.320  1.3167  0.1146 -0.1692
  112MOL0     H14732   0.332   6.326   8.378  0.5443  2.6991  1.1189
  112MOL0     H14733   0.166   6.318   8.122 -2.0080  0.2815  0.2035
  112MOL0     H14734   0.200   6.192   8.236  3.0001 -0.4225 -0.8315
  112MOL0     H14735   0.014   6.440   8.296  2.5352  1.6677 -1.5796
  112MOL0     H14736   0.014   6.296   8.396  1.8156  0.6421  0.8279
  112MOL0     H14737  -0.061   6.425   8.045  1.0320 -1.7341 -0.1178
  112MOL0     H14738  -0.207   6.376   7.876 -2.1121  1.9668  1.5920
  112MOL0     H14739  -0.356   6.313   7.926  0.1896  0.2924 -1.5945
  112MOL0     H14740  -0.300   6.092   7.874  1.8641 -0.8145 -0.3995
  112MOL0     H14741  -0.155   6.126   7.800 -1.2472 -0.5992 -3.0302
  112MOL0     H14742  -0.328   6.118   7.620 -1.2960 -0.7902  0.6839
  112MOL0     H14743  -0.433   6.207   7.727 -0.9418  1.0814 -2.3879
  112MOL0     H14744  -0.326   6.412   7.670 -4.5085 -1.6082  0.3005
  112MOL0     H14745  -0.341   6.325   7.516  1.2276  3.1250 -0.2358
  112MOL0     H14746   0.111   6.329   7.614  0.5103  0.0921  0.3654
  112MOL0     H14747   0.249   6.528   7.647  0.6220  3.2146  0.7624
  112MOL0     H14748  -0.017   7.100   7.642  0.5440  1.4585 -0.6945
  112MOL0     H14749   0.041   7.329   7.577 -1.3462 -0.1277  4.1525
  112MOL0     H14750   0.139   7.531   7.470  0.6690 -0.7060  1.0591
  112MOL0     H14751   0.154   7.416   7.334 -0.0937  1.3617 -1.3388
  112MOL0     H14752   0.227   7.628   7.266 -1.2074 -2.1405 -1.7150
  112MOL0     H14753   0.353   7.509   7.261 -0.6999  1.7689 -1.1476
  112MOL0     H14754   0.461   7.621   7.456 -1.1662  0.4750  1.3508
  112MOL0     H14755   0.312   7.726   7.484 -3.4533  0.6121 -1.6915
  112MOL0     H14756   0.448   7.714   7.217  1.0349  0.2332 -0.3223
  112MOL0     H14757   0.332   7.833   7.279 -2.0543 -2.7559 -0.4244
  112MOL0     H14758   0.512   7.902   7.443  0.0973  2.0123 -0.8441
  112MOL0     H14759   0.546   7.937   7.270  2.1333 -1.1699 -0.8943
  112MOL0     H14760   0.657   7.697   7.393 -2.5415  0.2931  0.7082
  112MOL0     H14761   0.756   7.849   7.395  1.6182 -1.0122 -1.9947
  112MOL0     H14762   0.648   7.684   7.148 -1.7609 -0.5212  2.1702
  112MOL0     H14763   0.699   7.847   7.130 -0.2873 -0.3959 -0.3066
  112MOL0     H14764   0.873   7.622   7.271 -1.5261  0.8965  1.8497
  112MOL0     H14765   0.922   7.792   7.238 -1.0305  0.5093  2.5932
  112MOL0     H14766   0.441   7.201   7.502  0.7910  0.0045  3.4557
  112MOL0     H14767   0.394   6.965   7.582  2.1105  1.9782  1.1206
  112MOL0     H14768  -0.105   6.775   7.643 -3.0208 -2.3480 -2.3116
  112MOL0     H14769  -0.234   6.585   7.638 -0.6959 -0.9934  3.0431
  112MOL0     H14770   1.147   6.321   8.096 -0.3878  0.5921  0.9670
  112MOL0     H14771   1.371   6.414   8.023 -0.7289 -0.0332  1.1330
  112MOL0     H14772   1.611   6.735   7.528 -2.7951  1.1761  0.9225
  112MOL0     H14773   1.846   6.767   7.533  0.1731 -0.3236  0.0116
  112MOL0     H14774   2.167   6.840   7.640  3.2857 -1.5394  0.7538
  112MOL0     H14775   2.052   6.717   7.596  0.0928  0.4359  0.2882
  112MOL0     H14776   2.128   6.612   7.825  1.5133  0.2945  0.0110
  112MOL0     H14777   2.250   6.618   7.699  0.2185 -2.1148  0.4241
  112MOL0     H14778   2.203   6.808   7.929  0.7464  0.0417  0.4096
  112MOL0     H14779   2.333   6.826   7.814  0.0782 -2.2602 -2.4574
  112MOL0     H14780   2.413   6.752   8.021 -0.4658 -0.7515  0.7037
  112MOL0     H14781   2.306   6.610   8.022 -1.1204 -0.0276 -1.1556
  112MOL0     H14782   2.609   6.460   7.771 -0.2461 -1.0432  0.8903
  112MOL0     H14783   1.836   6.805   7.969 -0.5863 -1.5877  0.1630
  112MOL0     H14784   1.582   6.752   7.951 -0.4341 -0.1675 -0.6411
  113MOL0     O14785   7.405   9.661   6.531  0.6704 -0.2152  0.5446
  113MOL0     C14786   7.427   9.747   6.451 -0.3719 -0.0356  0.5754
  113MOL0     O14787   7.358   9.862   6.435 -0.0433  0.4375 -0.6889
  113MOL0     C14788   7.249   9.886   6.515  0.7068 -0.3937 -0.1516
  113MOL0     C14789   7.271   9.954   6.633  0.0373  0.2927 -0.4001
  113MOL0     C14790   7.157   9.974   6.713 -0.0213 -0.8429  0.0981
  113MOL0     C14791   7.028   9.934   6.682  0.1254  0.4254  1.1135
  113MOL0     O14792   6.912   9.932   6.754  0.3913  0.0977  0.2969
  113MOL0     C14793   6.917  10.003   6.880  0.6437 -0.3591  0.0340
  113MOL0     C14794   6.770  10.048   6.918  0.4675 -0.1671  0.4170
  113MOL0     C14795   6.668   9.946   6.947  1.2733 -0.1478 -0.2719
  113MOL0     C14796   6.541   9.994   7.031 -0.2055  0.7124 -0.0135
  113MOL0     C14797   6.432   9.888   7.001 -0.0895 -0.1699  0.3171
  113MOL0     C14798   6.301   9.916   7.082 -0.1974  0.2105  0.6563
  113MOL0     C14799   6.198   9.799   7.060  0.0940  0.4491 -0.6963
  113MOL0     C14800   6.064   9.842   7.107 -0.6635  0.4388  0.6804
  113MOL0     N14801   5.959   9.739   7.082  0.3231  0.1867 -0.2834
  113MOL0     C14802   5.882   9.759   6.972 -1.1796  0.8547  0.1373
  113MOL0     C14803   5.800   9.646   6.981 -0.1740 -0.0141  0.1022
  113MOL0     C14804   5.685   9.620   6.888 -0.3512  0.1203 -0.4347
  113MOL0     C14805   5.545   9.657   6.942 -0.7465 -0.3418 -0.5506
  113MOL0     C14806   5.503   9.554   7.052  0.0479 -0.7980 -0.6924
  113MOL0     C14807   5.350   9.549   7.065 -0.7307 -0.1750 -0.2507
  113MOL0     O14808   5.333   9.476   7.185 -0.0325  0.4771  0.0854
  113MOL0     C14809   5.215   9.465   7.248 -0.2513 -0.4860  0.0890
  113MOL0     C14810   5.209   9.423   7.382 -0.8895 -1.0331  0.4371
  113MOL0     C14811   5.084   9.394   7.440  0.7697 -0.9897 -0.5535
  113MOL0     C14812   4.964   9.430   7.385  0.6629  0.1723 -0.0041
  113MOL0     C14813   4.838   9.398   7.462  0.0179 -0.2846  0.1645
  113MOL0     O14814   4.716   9.449   7.417 -0.0187  0.0772  0.2883
  113MOL0     C14815   4.594   9.414   7.478 -0.0492  0.2121  0.0313
  113MOL0     C14816   4.543   9.485   7.590 -1.0020  0.5594 -0.2608
  113MOL0     C14817   4.411   9.463   7.636  0.1773  0.7280  0.1182
  113MOL0     C14818   4.330   9.371   7.571  0.8754  0.4674  0.1131
  113MOL0     O14819   4.199   9.365   7.613  0.4081 -1.0226 -0.1184
  113MOL0     C14820   4.103   9.266   7.568  0.4088  0.2811 -0.3111
  113MOL0     C14821   4.019   9.312   7.442  0.0472 -0.4431 -0.1303
  113MOL0     C14822   3.866   9.330   7.470 -0.2138 -1.0158  0.9693
  113MOL0     C14823   3.840   9.426   7.596  0.7076  1.0700 -0.7655
  113MOL0     C14824   3.699   9.473   7.600  0.4828  0.4322 -0.0238
  113MOL0     C14825   3.606   9.374   7.655  1.6233  0.3326  0.0116
  113MOL0     C14826   3.481   9.444   7.691 -0.1298 -0.3383 -0.2187
  113MOL0     C14827   3.353   9.358   7.702  1.4122  0.0764  0.9957
  113MOL0    Cl14828   3.343   9.240   7.831  0.0356 -0.3800  0.3473
  113MOL0     C14829   4.388   9.289   7.469  0.8733  0.2928  0.2139
  113MOL0     C14830   4.514   9.314   7.418 -1.0123 -0.2156  0.0361
  113MOL0     O14831   4.853   9.320   7.559 -0.1770 -0.6391 -0.8227
  113MOL0     C14832   4.971   9.490   7.258  0.2040  1.4038  0.2426
  113MOL0     C14833   5.092   9.501   7.190 -0.6474 -0.7011 -0.1489
  113MOL0     N14834   5.843   9.549   7.071 -0.1606 -0.1789  0.3531
  113MOL0     N14835   5.931   9.623   7.141  0.0108  0.4540  0.9708
  113MOL0     C14836   7.016   9.869   6.554 -0.1886 -0.0376 -0.6180
  113MOL0     C14837   7.131   9.844   6.469  1.6348  0.0826 -0.1821
  113MOL0     C14838   7.536   9.731   6.346 -0.5379 -0.1991 -0.1527
  113MOL0     C14839   7.563   9.836   6.255  0.6732 -0.4314 -0.5018
  113MOL0     C14840   7.648   9.809   6.148 -0.1732 -0.8296  0.3605
  113MOL0     C14841   7.716   9.690   6.134  0.0695  0.1026  0.2440
  113MOL0     O14842   7.794   9.662   6.017 -0.3011  0.0728 -0.0897
  113MOL0     C14843   7.907   9.580   6.026 -0.8095  0.5522 -0.0129
  113MOL0     C14844   7.903   9.459   5.912 -0.1234 -0.9345  0.3047
  113MOL0     C14845   7.999   9.488   5.795  0.0382  0.0088  0.2999
  113MOL0     C14846   7.975   9.621   5.714 -0.5766  0.0254 -0.1266
  113MOL0     C14847   8.039   9.610   5.589 -0.9900  0.4799 -0.0086
  113MOL0     C14848   8.102   9.594   5.487  0.6962 -0.2275 -0.3237
  113MOL0     C14849   7.699   9.588   6.235 -0.1678 -0.2459  0.0670
  113MOL0     C14850   7.603   9.609   6.332  0.4343 -0.6981 -0.1444
  113MOL0     H14851   7.372   9.988   6.654  1.3226 -3.1433 -0.3961
  113MOL0     H14852   7.178  10.005   6.815 -2.6656  0.5831  0.2989
  113MOL0     H14853   6.986  10.086   6.863 -0.3507  0.1082 -2.1340
  113MOL0     H14854   6.967   9.951   6.961  3.7112  3.0026  0.5542
  113MOL0     H14855   6.732  10.108   6.834 -2.1643 -3.0839 -0.6825
  113MOL0     H14856   6.782  10.113   7.005  0.6575  0.1301  0.1738
  113MOL0     H14857   6.711   9.859   6.998  0.6094 -2.7831 -3.8009
  113MOL0     H14858   6.632   9.916   6.848 -1.6584  1.7509  0.0782
  113MOL0     H14859   6.557   9.999   7.139  1.7455 -0.3038 -0.2120
  113MOL0     H14860   6.504  10.088   6.988 -1.0244 -0.2739 -1.5814
  113MOL0     H14861   6.470   9.789   7.025  2.9294  0.3043 -1.9098
  113MOL0     H14862   6.411   9.873   6.895  0.2528 -0.6998  0.3253
  113MOL0     H14863   6.245  10.004   7.050  0.8621  1.9139  3.0966
  113MOL0     H14864   6.336   9.922   7.186  3.1868  0.0917 -0.3695
  113MOL0     H14865   6.195   9.773   6.954  4.6381 -1.1719 -0.6519
  113MOL0     H14866   6.229   9.704   7.105  0.0994 -0.1631 -1.9562
  113MOL0     H14867   6.034   9.942   7.073  1.5701  0.1962 -2.3736
  113MOL0     H14868   6.068   9.861   7.215  0.3266 -0.9661  0.9178
  113MOL0     H14869   5.867   9.849   6.914  0.1680  1.3147  0.4571
  113MOL0     H14870   5.691   9.515   6.861  2.8312 -0.2612  1.2109
  113MOL0     H14871   5.700   9.678   6.796  4.2605  1.0924  0.6826
  113MOL0     H14872   5.477   9.650   6.857  0.5068 -0.5399 -1.5698
  113MOL0     H14873   5.537   9.759   6.982 -2.3003 -0.8685  0.5745
  113MOL0     H14874   5.532   9.450   7.032 -0.4147 -1.7782  2.9914
  113MOL0     H14875   5.555   9.578   7.145 -0.9977  0.1483 -0.3388
  113MOL0     H14876   5.313   9.491   6.980 -0.9626 -0.4743  0.0532
  113MOL0     H14877   5.310   9.651   7.074 -1.5884 -0.7055  3.8453
  113MOL0     H14878   5.297   9.398   7.441  2.5398  3.4638 -2.1411
  113MOL0     H14879   5.079   9.344   7.536  0.5897  2.4294  1.3676
  113MOL0     H14880   4.605   9.562   7.635  1.0775 -1.7845  1.1436
  113MOL0     H14881   4.380   9.516   7.725  0.1854  3.6441 -1.4643
  113MOL0     H14882   4.034   9.235   7.646  3.0174 -2.6788  1.0265
  113MOL0     H14883   4.155   9.174   7.539 -1.3476 -0.1562 -2.3549
  113MOL0     H14884   4.041   9.236   7.366 -0.9006 -0.3644 -0.5024
  113MOL0     H14885   4.055   9.412   7.415  1.6682 -0.8625  0.3272
  113MOL0     H14886   3.819   9.234   7.492  1.5401 -1.2484  4.4107
  113MOL0     H14887   3.830   9.386   7.383 -0.2549 -1.8240  0.4552
  113MOL0     H14888   3.879   9.394   7.693  3.4427  2.9717 -1.1316
  113MOL0     H14889   3.894   9.518   7.572 -1.7452  2.5515 -1.0543
  113MOL0     H14890   3.658   9.496   7.501  0.7125 -1.1813 -0.5249
  113MOL0     H14891   3.698   9.554   7.673 -0.9236 -0.6879  1.2794
  113MOL0     H14892   3.634   9.312   7.740 -2.3121  1.3623  2.2940
  113MOL0     H14893   3.596   9.293   7.581  0.6497  0.8379 -0.4274
  113MOL0     H14894   3.493   9.472   7.796  0.9673 -4.3300  0.8821
  113MOL0     H14895   3.466   9.532   7.627  1.9204  0.0792 -0.1663
  113MOL0     H14896   3.353   9.295   7.613 -1.7023  1.1784  0.1107
  113MOL0     H14897   3.264   9.420   7.695 -0.6212 -2.8247 -0.8390
  113MOL0     H14898   4.331   9.208   7.426  0.2130  0.4796  0.7202
  113MOL0     H14899   4.549   9.246   7.341 -1.2614 -1.3843  0.9212
  113MOL0     H14900   4.882   9.519   7.203 -0.0462  0.5475  0.1781
  113MOL0     H14901   5.092   9.533   7.086  1.6193 -0.3358 -0.0840
  113MOL0     H14902   6.922   9.833   6.514  0.0535  0.3827 -1.6061
  113MOL0     H14903   7.136   9.786   6.377  1.1237 -2.1087  1.0864
  113MOL0     H14904   7.513   9.932   6.261  3.5344  1.2425 -1.8766
  113MOL0     H14905   7.650   9.880   6.065  1.1942  0.8807  1.7632
  113MOL0     H14906   7.932   9.544   6.126 -0.1330  0.0090 -0.3697
  113MOL0     H14907   7.996   9.641   6.012  0.1067  0.0494  2.9231
  113MOL0     H14908   7.944   9.370   5.960  1.5954  1.7930  4.4980
  113MOL0     H14909   7.799   9.430   5.893 -0.0119 -2.0255  1.2418
  113MOL0     H14910   7.995   9.403   5.726 -2.1443  0.6049 -0.3894
  113MOL0     H14911   8.096   9.501   5.844 -1.4495  0.6582  3.3377
  113MOL0     H14912   7.867   9.633   5.700 -0.1155  1.5340 -3.1729
  113MOL0     H14913   8.019   9.710   5.758  1.5146 -0.1882 -1.6057
  113MOL0     H14914   8.172   9.576   5.408 -0.4063 -0.9307 -1.1726
  113MOL0     H14915   7.745   9.491   6.218  1.2103  0.8404 -3.0453
  113MOL0     H14916   7.575   9.522   6.392  0.7558  1.3218  3.1812
  114MOL0     O14917   7.623   0.515   9.483 -0.1657  0.7203  0.7269
  114MOL0     C14918   7.622   0.398   9.439  0.4659  0.3477  0.4543
  114MOL0     O14919   7.512   0.322   9.416 -0.2428 -0.5077  0.0000
  114MOL0     C14920   7.391   0.378   9.408 -0.0179  0.1291 -0.5030
  114MOL0     C14921   7.296   0.278   9.394 -1.3565  0.2110 -0.7861
  114MOL0     C14922   7.165   0.306   9.382 -0.0113 -0.0914  0.3638
  114MOL0     C14923   7.114   0.437   9.384 -0.0309 -0.7361 -0.2935
  114MOL0     O14924   6.979   0.466   9.372 -0.3458 -0.7077 -0.3095
  114MOL0     C14925   6.890   0.399   9.286 -0.3814  0.7287  0.1298
  114MOL0     C14926   6.766   0.479   9.264  0.5665  0.6059 -0.5311
  114MOL0     C14927   6.674   0.400   9.167 -0.1627 -0.2732  0.4495
  114MOL0     C14928   6.552   0.483   9.141 -0.5507 -0.4294  0.2246
  114MOL0     C14929   6.423   0.408   9.122  0.2071  0.5926 -0.2207
  114MOL0     C14930   6.358   0.340   9.246 -1.1987 -0.0664 -0.1033
  114MOL0     C14931   6.208   0.319   9.224  0.1217  0.3514 -0.2753
  114MOL0     C14932   6.184   0.178   9.178 -0.6094  0.8239  0.0770
  114MOL0     N14933   6.043   0.139   9.201 -0.2254 -0.4297  0.6702
  114MOL0     C14934   5.932   0.217   9.199 -0.3240 -1.1319 -0.5188
  114MOL0     C14935   5.828   0.142   9.244  0.5964  0.1074 -0.1134
  114MOL0     C14936   5.689   0.179   9.277 -0.1270  0.6628  0.1883
  114MOL0     C14937   5.652   0.150   9.424 -0.9659 -0.1587 -1.3258
  114MOL0     C14938   5.548   0.249   9.476  0.6562 -0.0769  0.4547
  114MOL0     C14939   5.419   0.258   9.388 -0.0865 -0.2720  0.4748
  114MOL0     O14940   5.345   0.368   9.437 -0.1032  0.4210  0.3694
  114MOL0     C14941   5.211   0.364   9.442 -0.2579 -0.5573  0.2779
  114MOL0     C14942   5.137   0.255   9.395 -0.2085  0.2095  0.3172
  114MOL0     C14943   5.007   0.248   9.428  0.6836  0.1050  0.3218
  114MOL0     C14944   4.937   0.353   9.498  0.6308  0.4104 -0.0033
  114MOL0     C14945   4.795   0.339   9.540 -0.5915  0.6204  0.4084
  114MOL0     O14946   4.735   0.441   9.606 -0.4111  0.3399 -0.2696
  114MOL0     C14947   4.600   0.453   9.645  0.6162 -0.3589  0.4867
  114MOL0     C14948   4.497   0.382   9.604  0.3458 -0.4296  0.0352
  114MOL0     C14949   4.369   0.400   9.649 -0.7647 -0.2414  0.2225
  114MOL0     C14950   4.335   0.501   9.739 -0.1963 -0.7115  0.8294
  114MOL0     O14951   4.209   0.536   9.771 -0.2239 -0.1836  0.0413
  114MOL0     C14952   4.122   0.550   9.654 -0.0571  0.1294 -0.0983
  114MOL0     C14953   3.985   0.603   9.686  0.2932  0.4910  0.3464
  114MOL0     C14954   3.987   0.743   9.753 -0.7558  0.8925  0.5215
  114MOL0     C14955   3.851   0.791   9.798  0.2542 -0.0082  0.2995
  114MOL0     C14956   3.863   0.862   9.936  0.3620  0.4094 -0.5735
  114MOL0     C14957   3.869   0.770  10.055 -0.0245  0.1795  0.9732
  114MOL0     C14958   3.940   0.815  10.180  0.3275  0.2689  0.4214
  114MOL0     C14959   3.951   0.690  10.283 -0.4859  0.4851 -0.1703
  114MOL0    Cl14960   3.810   0.595  10.359 -0.0004  0.0265 -0.1086
  114MOL0     C14961   4.450   0.583   9.784  0.1790  0.0928 -0.0327
  114MOL0     C14962   4.580   0.559   9.739  0.6488 -0.2859 -0.9760
  114MOL0     O14963   4.740   0.236   9.504 -0.0814  0.7460 -0.1618
  114MOL0     C14964   5.022   0.447   9.559 -0.6763 -0.2714  0.4254
  114MOL0     C14965   5.156   0.461   9.527 -1.3066  0.5740 -0.7505
  114MOL0     N14966   5.881   0.009   9.263 -0.1421 -0.5949 -0.8706
  114MOL0     N14967   6.009   0.018   9.246  0.2379  0.2992  0.3326
  114MOL0     C14968   7.210   0.544   9.394 -0.6960  1.0107 -0.6042
  114MOL0     C14969   7.346   0.513   9.402 -0.7476  0.0272 -0.5812
  114MOL0     C14970   7.750   0.332   9.413 -0.2542  0.6338  0.1419
  114MOL0     C14971   7.751   0.212   9.352 -0.1228  0.0766  1.0017
  114MOL0     C14972   7.879   0.155   9.313 -0.0645  0.0882  0.4144
  114MOL0     C14973   8.000   0.229   9.325 -0.7597 -0.2029 -0.1710
  114MOL0     O14974   8.125   0.180   9.277  0.2280  0.3818  0.1010
  114MOL0     C14975   8.132   0.137   9.144  0.2319  0.9266 -0.2368
  114MOL0     C14976   8.253   0.182   9.068  0.4646 -0.3032  0.9572
  114MOL0     C14977   8.236   0.332   9.016  1.0161  0.7017  0.3340
  114MOL0     C14978   8.340   0.374   8.905  1.2178 -0.7071 -0.1553
  114MOL0     C14979   8.314   0.507   8.836  0.0902  1.1755 -0.2885
  114MOL0     C14980   8.278   0.615   8.783  0.0827  0.1883 -0.1628
  114MOL0     C14981   7.992   0.347   9.397 -0.5985  0.4585  0.9495
  114MOL0     C14982   7.873   0.396   9.436 -0.1793  0.6906  0.0109
  114MOL0     H14983   7.325   0.175   9.413  1.1367  1.1538  1.0574
  114MOL0     H14984   7.104   0.216   9.384  0.3810 -0.3492  2.3619
  114MOL0     H14985   6.876   0.307   9.342  1.5091  2.2870  3.5101
  114MOL0     H14986   6.933   0.380   9.187  1.0022  0.8163  0.6921
  114MOL0     H14987   6.778   0.579   9.222 -2.9830  0.5416 -2.0724
  114MOL0     H14988   6.720   0.493   9.362  0.9659 -1.9654  0.0835
  114MOL0     H14989   6.636   0.310   9.216 -0.1821 -1.6245 -1.9155
  114MOL0     H14990   6.716   0.366   9.072  1.6281  1.6786  0.4846
  114MOL0     H14991   6.539   0.554   9.222  0.4286 -0.5029  0.4639
  114MOL0     H14992   6.567   0.534   9.045  2.0026 -1.6384 -0.1360
  114MOL0     H14993   6.418   0.330   9.046 -2.6798  0.1016  0.3665
  114MOL0     H14994   6.350   0.484   9.091  0.5806  0.6665 -0.9651
  114MOL0     H14995   6.376   0.401   9.335  2.6881  0.5820 -1.1527
  114MOL0     H14996   6.414   0.252   9.279 -0.4020 -0.0288 -1.2964
  114MOL0     H14997   6.164   0.354   9.318 -0.4265  0.8741 -0.7172
  114MOL0     H14998   6.166   0.379   9.143  0.5550 -0.9793 -1.5298
  114MOL0     H14999   6.239   0.100   9.232  0.2003  1.6748  0.5001
  114MOL0     H15000   6.210   0.174   9.072 -2.4734  0.0282 -0.3964
  114MOL0     H15001   5.935   0.320   9.166 -0.9811 -0.4617  1.3856
  114MOL0     H15002   5.623   0.116   9.217 -0.9758  1.9936 -0.3179
  114MOL0     H15003   5.685   0.285   9.249 -1.6975  0.6097  0.1386
  114MOL0     H15004   5.740   0.150   9.489 -1.1390  0.5840 -1.0864
  114MOL0     H15005   5.605   0.052   9.439 -2.2294  0.7331  1.2568
  114MOL0     H15006   5.508   0.218   9.573 -0.9436 -0.5716 -0.3351
  114MOL0     H15007   5.591   0.349   9.489 -1.0189  0.5266  1.6559
  114MOL0     H15008   5.365   0.164   9.403 -0.2122 -0.0182  1.6737
  114MOL0     H15009   5.429   0.282   9.282 -0.8098 -1.9211  0.0055
  114MOL0     H15010   5.174   0.164   9.348 -1.2920 -0.4479  0.7091
  114MOL0     H15011   4.956   0.162   9.385  0.3227  0.5677 -0.1931
  114MOL0     H15012   4.522   0.295   9.544 -0.5633 -0.6177 -0.0865
  114MOL0     H15013   4.294   0.339   9.599 -2.0953  2.3460 -1.2105
  114MOL0     H15014   4.118   0.456   9.598  0.5225 -0.0409  0.1463
  114MOL0     H15015   4.168   0.626   9.590 -0.9042  0.2088 -0.6286
  114MOL0     H15016   3.939   0.530   9.753 -0.1834 -2.5961 -3.0731
  114MOL0     H15017   3.931   0.606   9.591  0.6427  1.2261  0.1603
  114MOL0     H15018   4.019   0.820   9.683  1.6423 -0.6254 -0.1941
  114MOL0     H15019   4.054   0.727   9.839  1.9004 -0.4900 -1.6386
  114MOL0     H15020   3.824   0.864   9.721  0.9162  1.6869  1.6108
  114MOL0     H15021   3.772   0.715   9.797 -0.0588  0.1378  3.5103
  114MOL0     H15022   3.773   0.924   9.944 -3.8712 -5.1198  0.8240
  114MOL0     H15023   3.948   0.930   9.945 -1.5261  2.8467  0.1004
  114MOL0     H15024   3.908   0.676  10.013 -0.2444  0.3626  0.3491
  114MOL0     H15025   3.762   0.753  10.070 -0.1895 -0.4828 -0.7087
  114MOL0     H15026   4.045   0.841  10.162  0.9200 -1.1604  1.5944
  114MOL0     H15027   3.886   0.900  10.224 -0.4279  0.8259 -1.4994
  114MOL0     H15028   4.002   0.733  10.369  0.0664 -0.0997 -0.1978
  114MOL0     H15029   4.024   0.624  10.234 -0.7991  1.9621 -2.8513
  114MOL0     H15030   4.405   0.654   9.853 -0.4032 -1.8602  1.7112
  114MOL0     H15031   4.659   0.622   9.778  0.5733 -0.2101 -0.9438
  114MOL0     H15032   4.967   0.516   9.622 -1.4201  1.3937 -1.9050
  114MOL0     H15033   5.215   0.545   9.563  0.3382  0.6860 -3.3926
  114MOL0     H15034   7.173   0.647   9.394  0.3008  1.3867 -1.3177
  114MOL0     H15035   7.424   0.588   9.406  2.7223 -3.3431  1.6001
  114MOL0     H15036   7.661   0.152   9.343 -1.3494  1.3711  3.5487
  114MOL0     H15037   7.882   0.058   9.264 -0.4756  0.1750  0.2153
  114MOL0     H15038   8.048   0.176   9.087 -0.8660 -1.6838 -0.5567
  114MOL0     H15039   8.128   0.028   9.155 -0.4848  1.0336  0.7488
  114MOL0     H15040   8.344   0.191   9.129  0.3543  0.8670  0.9796
  114MOL0     H15041   8.286   0.114   8.989  2.7652 -0.7352  2.1812
  114MOL0     H15042   8.241   0.411   9.091  0.5863  1.0917 -0.0361
  114MOL0     H15043   8.137   0.347   8.972  1.2661 -0.8028 -0.8331
  114MOL0     H15044   8.436   0.373   8.958 -0.5507 -1.0236  3.3163
  114MOL0     H15045   8.352   0.301   8.824  0.5210 -0.7320 -0.2426
  114MOL0     H15046   8.248   0.705   8.733 -2.9977 -1.2817 -1.2125
  114MOL0     H15047   8.089   0.395   9.409  0.9212 -1.4172 -2.3646
  114MOL0     H15048   7.854   0.498   9.469 -0.5894  1.9401 -3.6000
  115MOL0     O15049   6.065   9.294  10.779 -0.2269 -0.5859  0.0779
  115MOL0     C15050   6.028   9.195  10.726 -0.5283  0.2886  0.0241
  115MOL0     O15051   6.080   9.077  10.748  0.0330  0.1259 -0.3134
  115MOL0     C15052   6.203   9.064  10.812 -0.0486 -0.3581  0.5062
  115MOL0     C15053   6.207   8.978  10.926 -0.0384  0.3056 -0.1727
  115MOL0     C15054   6.331   8.961  10.986 -0.2346 -0.1900  0.2013
  115MOL0     C15055   6.450   9.019  10.947  0.7104 -0.2212  0.3968
  115MOL0     O15056   6.566   9.004  11.014 -1.0341  0.3681 -0.0751
  115MOL0     C15057   6.599   8.901  11.102 -0.1105 -0.3652 -0.1899
  115MOL0     C15058   6.737   8.860  11.083  0.5088  0.3092 -0.1890
  115MOL0     C15059   6.781   8.764  11.200  0.0224 -0.3973  0.8285
  115MOL0     C15060   6.931   8.730  11.205 -0.0380 -0.4494 -0.1484
  115MOL0     C15061   6.975   8.671  11.336 -1.1197 -0.3323  0.3033
  115MOL0     C15062   6.939   8.521  11.346  0.1430  0.0159  0.6623
  115MOL0     C15063   7.009   8.439  11.463  0.4066  0.9476 -0.1215
  115MOL0     C15064   6.939   8.309  11.477 -0.1873  1.0250 -0.1482
  115MOL0     N15065   6.990   8.233  11.597  0.1813 -0.9328  0.6935
  115MOL0     C15066   6.975   8.093  11.614 -0.1786 -0.3184  0.2915
  115MOL0     C15067   7.048   8.072  11.733  0.4150  0.2165  0.3779
  115MOL0     C15068   7.079   7.934  11.782  0.6351  0.1582 -0.3492
  115MOL0     C15069   6.998   7.881  11.913 -0.3050  0.2345 -0.9586
  115MOL0     C15070   6.848   7.886  11.900  0.0673 -0.4460 -0.4123
  115MOL0     C15071   6.779   7.770  11.830  0.1643  0.6398 -0.3730
  115MOL0     O15072   6.817   7.775  11.698 -0.0573  0.2736 -0.4409
  115MOL0     C15073   6.745   7.847  11.609  0.5247 -0.2192  0.5781
  115MOL0     C15074   6.773   7.814  11.479  0.5990  0.2747  0.2867
  115MOL0     C15075   6.727   7.890  11.370 -0.6409  0.8377 -0.5276
  115MOL0     C15076   6.653   8.007  11.397  0.1424  0.1739  0.0788
  115MOL0     C15077   6.624   8.099  11.288  1.2530 -0.5922  0.1626
  115MOL0     O15078   6.549   8.212  11.322  0.0466  1.5047 -1.1333
  115MOL0     C15079   6.483   8.286  11.237  0.9917  0.2399  0.6592
  115MOL0     C15080   6.351   8.253  11.205  1.1371  0.5896 -0.5859
  115MOL0     C15081   6.287   8.317  11.100 -0.3195  1.2771  0.8488
  115MOL0     C15082   6.348   8.425  11.030 -0.4944  0.4263  0.1213
  115MOL0     O15083   6.280   8.520  10.955  0.2860  0.5065 -0.0264
  115MOL0     C15084   6.165   8.466  10.884  0.1943 -0.2492 -0.2669
  115MOL0     C15085   6.149   8.579  10.778  0.5884  0.4626 -0.5617
  115MOL0     C15086   6.023   8.560  10.694  0.2120  0.3252 -0.0144
  115MOL0     C15087   6.022   8.658  10.583 -0.4796  0.5709  0.5460
  115MOL0     C15088   5.916   8.645  10.474 -0.5462 -0.5415 -0.7555
  115MOL0     C15089   5.784   8.683  10.541 -0.6988 -0.1511 -0.3859
  115MOL0     C15090   5.687   8.681  10.428  1.0239 -0.0844  0.2357
  115MOL0     C15091   5.541   8.712  10.496  0.5267 -0.7702 -0.3795
  115MOL0    Cl15092   5.413   8.664  10.387 -0.1145  0.0155  0.6845
  115MOL0     C15093   6.484   8.461  11.068  0.3980 -0.0729 -0.2341
  115MOL0     C15094   6.547   8.389  11.169 -1.1426  0.5532 -0.6562
  115MOL0     O15095   6.664   8.072  11.173  0.4290  0.0681  0.4924
  115MOL0     C15096   6.620   8.035  11.535  0.1716  0.5194  0.1544
  115MOL0     C15097   6.662   7.956  11.638  0.0410  1.0145  0.1248
  115MOL0     N15098   7.091   8.191  11.782  0.6452 -0.1146  0.3119
  115MOL0     N15099   7.052   8.289  11.709 -0.0891  0.1937 -0.1682
  115MOL0     C15100   6.443   9.113  10.841  0.0265 -0.1518 -0.2322
  115MOL0     C15101   6.324   9.121  10.760 -0.5016 -0.4917 -0.0839
  115MOL0     C15102   5.897   9.182  10.655 -0.4956 -0.2137  0.3124
  115MOL0     C15103   5.872   9.065  10.572 -0.4766 -0.1569 -0.2126
  115MOL0     C15104   5.742   9.043  10.517 -0.1214  0.6802  0.0712
  115MOL0     C15105   5.638   9.138  10.551  0.1619 -0.4325  0.5621
  115MOL0     O15106   5.507   9.115  10.512 -0.6397  0.3888 -0.3928
  115MOL0     C15107   5.493   9.073  10.376  0.3238 -0.1702  0.3343
  115MOL0     C15108   5.341   9.076  10.342  0.9307 -0.4245 -0.2320
  115MOL0     C15109   5.298   9.224  10.354 -0.7696 -0.4157  0.2585
  115MOL0     C15110   5.163   9.261  10.292 -0.3170 -0.0807 -0.5323
  115MOL0     C15111   5.051   9.244  10.383 -0.0555 -0.7225 -0.3601
  115MOL0     C15112   4.940   9.220  10.437 -0.5968 -0.4599 -0.0183
  115MOL0     C15113   5.662   9.257  10.627 -0.0906  0.3151  0.5333
  115MOL0     C15114   5.792   9.279  10.670  0.0804  1.0843 -0.8928
  115MOL0     H15115   6.112   8.933  10.953  1.6850 -2.7195  1.2717
  115MOL0     H15116   6.338   8.896  11.074 -2.0223  0.1681  0.6540
  115MOL0     H15117   6.530   8.816  11.093 -1.6442  0.6581  1.2030
  115MOL0     H15118   6.595   8.950  11.200  1.5556  2.7997 -1.5568
  115MOL0     H15119   6.797   8.951  11.078  0.0800  0.6942  1.1504
  115MOL0     H15120   6.748   8.799  10.993  0.1185 -1.8028  1.1271
  115MOL0     H15121   6.714   8.678  11.202 -2.2344  1.2661  0.5823
  115MOL0     H15122   6.769   8.824  11.291 -0.1022 -1.4351  1.5029
  115MOL0     H15123   6.968   8.662  11.128  2.7941  1.6058 -0.7641
  115MOL0     H15124   6.985   8.821  11.176  0.2013 -1.5121 -3.4932
  115MOL0     H15125   6.933   8.718  11.425 -1.8885 -3.6463  1.8528
  115MOL0     H15126   7.083   8.675  11.352 -1.2375  0.0001  1.0632
  115MOL0     H15127   6.944   8.460  11.256 -2.3932 -1.4181  1.3951
  115MOL0     H15128   6.831   8.517  11.361 -0.2631 -1.4692 -2.0199
  115MOL0     H15129   7.118   8.432  11.463  0.5502  2.5287 -1.1611
  115MOL0     H15130   6.997   8.500  11.553  2.3606  1.6224 -0.2715
  115MOL0     H15131   6.962   8.252  11.386 -1.2883  2.2617 -1.2445
  115MOL0     H15132   6.830   8.317  11.482 -0.5046 -1.1029 -2.0949
  115MOL0     H15133   6.942   8.018  11.542  0.9015  1.4244 -2.1592
  115MOL0     H15134   7.188   7.926  11.790  0.7169 -0.4784 -1.8127
  115MOL0     H15135   7.046   7.856  11.713  0.6528  2.1987 -2.8034
  115MOL0     H15136   7.016   7.936  12.006  1.4513  0.6068 -1.4622
  115MOL0     H15137   7.025   7.775  11.919 -1.8168 -0.1713 -0.9946
  115MOL0     H15138   6.809   7.870  12.001 -0.5204 -0.7327 -0.6778
  115MOL0     H15139   6.810   7.981  11.863  0.2102 -1.1473 -2.4787
  115MOL0     H15140   6.672   7.786  11.847  0.5566  0.7497  2.5336
  115MOL0     H15141   6.798   7.670  11.869  1.3715  0.8265 -0.4551
  115MOL0     H15142   6.837   7.728  11.463  1.1435  0.4954  1.2173
  115MOL0     H15143   6.763   7.887  11.268 -0.9658  2.2167 -0.6942
  115MOL0     H15144   6.307   8.169  11.259  1.7140 -2.4426 -4.3608
  115MOL0     H15145   6.182   8.296  11.081 -0.1257  0.2495  0.8356
  115MOL0     H15146   6.081   8.473  10.954 -1.0640 -0.4568 -1.7213
  115MOL0     H15147   6.181   8.365  10.847  0.4562 -0.1406 -0.4546
  115MOL0     H15148   6.238   8.583  10.714 -0.7580  1.5666 -2.5007
  115MOL0     H15149   6.140   8.676  10.828  3.7641  1.4926 -1.7310
  115MOL0     H15150   5.931   8.565  10.754  1.1600 -0.5047  1.5928
  115MOL0     H15151   6.031   8.459  10.652 -0.9697  0.6798 -1.1565
  115MOL0     H15152   6.020   8.760  10.623  0.7346 -0.9799  5.0738
  115MOL0     H15153   6.119   8.664  10.532 -0.6762  0.9554  0.2089
  115MOL0     H15154   5.909   8.545  10.430  0.3143 -0.0533 -2.0823
  115MOL0     H15155   5.931   8.714  10.391 -2.2244  0.5093 -0.2170
  115MOL0     H15156   5.787   8.784  10.584 -1.3942 -0.6909  1.0048
  115MOL0     H15157   5.747   8.612  10.615 -1.1167  1.6647  1.2319
  115MOL0     H15158   5.702   8.759  10.353  1.8196 -2.5188 -2.3172
  115MOL0     H15159   5.681   8.587  10.374  0.7337  0.0935 -0.0443
  115MOL0     H15160   5.541   8.817  10.525 -2.5539 -0.5360 -0.9273
  115MOL0     H15161   5.536   8.655  10.589  0.1479  1.3266  0.9458
  115MOL0     H15162   6.541   8.541  11.023  0.1092  0.8185  0.9547
  115MOL0     H15163   6.647   8.414  11.203 -0.1196 -1.2833 -2.1784
  115MOL0     H15164   6.568   8.127  11.560 -0.9027  0.2974 -1.1483
  115MOL0     H15165   6.634   7.986  11.739 -2.9585  0.9751 -0.6061
  115MOL0     H15166   6.536   9.167  10.825  0.3251 -1.4505 -3.7836
  115MOL0     H15167   6.328   9.194  10.680 -0.3343 -0.2410  0.1501
  115MOL0     H15168   5.957   9.006  10.539  1.7574  2.6297  0.1667
  115MOL0     H15169   5.718   8.958  10.454  0.7301 -0.9977  1.8881
  115MOL0     H15170   5.523   8.968  10.370  3.5142  0.6266  0.5056
  115MOL0     H15171   5.554   9.140  10.315 -1.9479  1.8591  0.1229
  115MOL0     H15172   5.324   9.026  10.246 -0.5112 -0.8395  0.2248
  115MOL0     H15173   5.282   9.012  10.409 -2.7565 -1.0902 -3.7216
  115MOL0     H15174   5.381   9.278  10.308  0.5571 -0.1656  2.7527
  115MOL0     H15175   5.295   9.257  10.458 -2.0873  0.7489 -0.1077
  115MOL0     H15176   5.179   9.363  10.254  1.1413  1.0540  2.7527
  115MOL0     H15177   5.135   9.207  10.201  0.8200  0.7347 -1.3971
  115MOL0     H15178   4.836   9.204  10.459 -0.4532  1.6506  2.7488
  115MOL0     H15179   5.580   9.326  10.642 -1.1089 -0.7274 -0.0453
  115MOL0     H15180   5.817   9.372  10.720  1.0626 -0.3199  1.4736
  116MOL0     O15181   7.222   7.231   8.555  0.5215  0.3728 -1.1455
  116MOL0     C15182   7.177   7.343   8.579 -0.4933 -0.8900  0.6765
  116MOL0     O15183   7.073   7.410   8.504 -0.3972  0.2900 -0.4393
  116MOL0     C15184   7.014   7.342   8.402  0.6462 -2.0907  0.2509
  116MOL0     C15185   7.063   7.234   8.311 -0.1684 -0.2705 -0.0642
  116MOL0     C15186   6.988   7.200   8.199  0.0245  0.1246 -0.3774
  116MOL0     C15187   6.866   7.253   8.173  0.0086 -0.0181 -0.5795
  116MOL0     O15188   6.805   7.213   8.059  0.5362  0.0647  0.5971
  116MOL0     C15189   6.656   7.172   8.070 -0.5989  0.1892  0.3022
  116MOL0     C15190   6.626   7.016   8.052 -0.1444  1.2497 -0.2485
  116MOL0     C15191   6.509   6.971   8.147 -0.5324  0.1502  0.3546
  116MOL0     C15192   6.439   6.852   8.082 -0.4642  0.2982 -0.5953
  116MOL0     C15193   6.348   6.782   8.178 -0.3337  0.4949  0.6110
  116MOL0     C15194   6.200   6.824   8.181 -0.6291 -0.5216  0.2757
  116MOL0     C15195   6.124   6.722   8.272 -0.6945 -0.5111  0.0124
  116MOL0     C15196   5.978   6.768   8.275 -0.2263 -0.5385  0.0820
  116MOL0     N15197   5.887   6.681   8.350  0.0104 -0.5477  0.1312
  116MOL0     C15198   5.882   6.697   8.489  0.3591  0.3436  0.2135
  116MOL0     C15199   5.764   6.638   8.525 -1.1951  0.4684  0.0310
  116MOL0     C15200   5.711   6.655   8.657  1.0978  0.0967 -0.4593
  116MOL0     C15201   5.608   6.769   8.658  0.6822 -0.8129  0.3659
  116MOL0     C15202   5.527   6.769   8.786  0.4123  0.4603 -0.6462
  116MOL0     C15203   5.425   6.881   8.807  0.9085  0.2683  0.0386
  116MOL0     O15204   5.303   6.849   8.729  0.1777  0.2737 -0.0774
  116MOL0     C15205   5.184   6.904   8.768  0.1071  1.0045  0.4434
  116MOL0     C15206   5.080   6.817   8.760  0.2145  0.5304 -1.0608
  116MOL0     C15207   4.948   6.856   8.807  0.1940  0.7437  0.6314
  116MOL0     C15208   4.928   6.986   8.852  0.5045 -0.3306  0.0656
  116MOL0     C15209   4.797   7.034   8.899  0.3607  0.7457  0.4628
  116MOL0     O15210   4.698   6.943   8.902  0.1412  0.2649 -0.3482
  116MOL0     C15211   4.568   6.966   8.953 -0.2549  0.5430 -0.0640
  116MOL0     C15212   4.500   7.095   8.977 -0.5895  1.4371 -0.0114
  116MOL0     C15213   4.378   7.109   9.036  0.0513 -0.5000  0.3702
  116MOL0     C15214   4.303   6.988   9.058 -0.1972 -1.3455  0.1577
  116MOL0     O15215   4.177   6.987   9.100 -0.1337 -0.4010  0.2062
  116MOL0     C15216   4.163   7.049   9.238  0.1944  0.7459  0.1912
  116MOL0     C15217   4.017   7.047   9.270 -0.2396  0.6929  0.1435
  116MOL0     C15218   3.999   7.137   9.387  0.0852 -0.9300 -0.1420
  116MOL0     C15219   3.852   7.146   9.436 -0.4643  0.1622  0.4363
  116MOL0     C15220   3.789   7.016   9.495  0.4254 -0.0643  0.0639
  116MOL0     C15221   3.884   6.965   9.614 -0.4975  0.2353  0.5104
  116MOL0     C15222   3.807   6.866   9.701  0.0804  0.1696 -0.6518
  116MOL0     C15223   3.727   6.939   9.804  0.7947 -0.4114  0.3613
  116MOL0    Cl15224   3.640   6.813   9.912  0.1214 -0.5200  0.4496
  116MOL0     C15225   4.360   6.865   9.027  0.7123 -1.0007 -0.6387
  116MOL0     C15226   4.487   6.856   8.978  0.3514 -0.5941  1.5165
  116MOL0     O15227   4.790   7.151   8.933 -0.3045  0.0234 -0.1556
  116MOL0     C15228   5.046   7.064   8.866  0.4099  0.3066 -0.7605
  116MOL0     C15229   5.176   7.027   8.825 -0.1684 -1.1982 -0.0835
  116MOL0     N15230   5.691   6.589   8.411 -0.5113  1.1191 -0.9991
  116MOL0     N15231   5.767   6.612   8.315 -0.6687 -0.1589  0.2972
  116MOL0     C15232   6.809   7.351   8.265  0.1597 -1.3049  0.3473
  116MOL0     C15233   6.890   7.396   8.376 -0.0439 -0.2107  0.8495
  116MOL0     C15234   7.226   7.409   8.700  0.1582  0.1986  0.1446
  116MOL0     C15235   7.313   7.354   8.797 -0.4207 -0.0671 -0.2486
  116MOL0     C15236   7.366   7.420   8.906 -1.2395  0.6002 -0.1085
  116MOL0     C15237   7.343   7.551   8.925 -0.0995  0.2604  0.0004
  116MOL0     O15238   7.403   7.610   9.036  0.6604 -0.2338 -0.2036
  116MOL0     C15239   7.381   7.747   9.060 -0.3842 -0.8604 -0.3325
  116MOL0     C15240   7.499   7.806   9.142  0.2811  0.3262  0.7161
  116MOL0     C15241   7.631   7.818   9.064 -0.0413 -0.1324  0.3403
  116MOL0     C15242   7.750   7.829   9.157 -0.6714  0.3415 -0.2109
  116MOL0     C15243   7.870   7.840   9.076  0.2091 -0.5854 -0.6500
  116MOL0     C15244   7.964   7.874   9.011 -0.4842 -1.2691 -0.4211
  116MOL0     C15245   7.247   7.612   8.842  1.3551  0.2937 -0.2845
  116MOL0     C15246   7.190   7.540   8.731  0.1567 -0.8322 -0.2317
  116MOL0     H15247   7.156   7.189   8.342 -1.1594 -1.3128  1.5354
  116MOL0     H15248   7.038   7.140   8.123 -0.0721  0.0687 -0.3968
  116MOL0     H15249   6.604   7.240   8.003 -0.0637 -0.7566 -1.1311
  116MOL0     H15250   6.630   7.190   8.175  1.7367 -1.9604  1.3640
  116MOL0     H15251   6.703   6.950   8.093  1.0751  4.0131  2.2756
  116MOL0     H15252   6.600   6.986   7.950  2.8961  0.8262 -1.0267
  116MOL0     H15253   6.445   7.058   8.165 -0.2936  0.6436 -1.0630
  116MOL0     H15254   6.556   6.955   8.244  1.0635 -1.1726 -0.5815
  116MOL0     H15255   6.380   6.899   8.003  0.9683  2.1258 -0.6507
  116MOL0     H15256   6.508   6.780   8.037 -0.3162  0.5306 -0.7384
  116MOL0     H15257   6.390   6.793   8.278  0.1205  3.9483  0.1345
  116MOL0     H15258   6.352   6.676   8.150 -1.8910  0.2232  1.2539
  116MOL0     H15259   6.155   6.829   8.081 -1.1235 -0.7460  0.4801
  116MOL0     H15260   6.193   6.925   8.221 -2.0817 -0.9937  1.2914
  116MOL0     H15261   6.135   6.623   8.228 -0.8920 -0.2894 -0.5328
  116MOL0     H15262   6.178   6.718   8.368  3.5585 -2.5080 -2.1629
  116MOL0     H15263   5.938   6.767   8.173 -0.9605  1.5578  0.3038
  116MOL0     H15264   5.962   6.869   8.315 -1.1966 -0.6826  0.0945
  116MOL0     H15265   5.949   6.749   8.557 -0.0565  1.6687 -0.3656
  116MOL0     H15266   5.778   6.690   8.737 -1.5540  1.7808  1.2176
  116MOL0     H15267   5.664   6.561   8.686 -2.6005  1.4591 -1.4967
  116MOL0     H15268   5.541   6.757   8.573 -0.8608 -1.2065  1.5884
  116MOL0     H15269   5.646   6.870   8.643  2.1083 -1.4101 -0.3139
  116MOL0     H15270   5.467   6.677   8.787  2.9382 -1.2995 -0.6404
  116MOL0     H15271   5.591   6.770   8.874  1.9594 -2.8913 -1.5423
  116MOL0     H15272   5.456   6.984   8.789  0.2159  0.3349 -0.8387
  116MOL0     H15273   5.406   6.876   8.915  0.8035  1.4303  0.0835
  116MOL0     H15274   5.101   6.718   8.720  0.0650 -1.2875  2.9567
  116MOL0     H15275   4.873   6.778   8.801  0.8060 -0.0436  2.4582
  116MOL0     H15276   4.549   7.190   8.958  1.2945  0.8513  1.5555
  116MOL0     H15277   4.332   7.202   9.069  0.7570 -0.4088  1.1187
  116MOL0     H15278   4.201   7.151   9.233  1.1122  0.4331  0.4512
  116MOL0     H15279   4.214   6.990   9.316  1.1279 -0.4996 -1.3097
  116MOL0     H15280   4.000   6.940   9.283  0.6403  0.1613 -2.5426
  116MOL0     H15281   3.971   7.096   9.184  1.3496  1.6173 -0.2288
  116MOL0     H15282   4.033   7.239   9.365 -1.8590 -0.6155 -2.0181
  116MOL0     H15283   4.054   7.091   9.470 -2.5373 -3.8573  0.1278
  116MOL0     H15284   3.858   7.217   9.519 -0.9851  0.8365 -0.0975
  116MOL0     H15285   3.789   7.173   9.351  0.5371  0.7691 -0.1395
  116MOL0     H15286   3.781   6.934   9.423  3.9260  1.7932 -2.7825
  116MOL0     H15287   3.697   7.039   9.550  0.5698  0.2542  0.1749
  116MOL0     H15288   3.919   7.047   9.678 -3.2113  1.2781  0.7657
  116MOL0     H15289   3.964   6.914   9.560  0.6344 -1.2443  3.3380
  116MOL0     H15290   3.741   6.809   9.634  0.4645  2.1702 -2.8431
  116MOL0     H15291   3.873   6.806   9.765 -0.0628  1.2824  0.5769
  116MOL0     H15292   3.650   7.000   9.755  0.9087 -2.4913 -2.6909
  116MOL0     H15293   3.790   7.005   9.864  0.3083 -1.0793  1.6450
  116MOL0     H15294   4.293   6.784   9.056  1.1425 -0.9177  0.6804
  116MOL0     H15295   4.532   6.758   8.964  2.3386  0.4872 -0.1124
  116MOL0     H15296   5.031   7.161   8.913 -3.3128 -0.1262 -0.8097
  116MOL0     H15297   5.262   7.093   8.827  0.4871 -1.9207 -2.0147
  116MOL0     H15298   6.716   7.404   8.246  1.5699  0.5330 -2.0451
  116MOL0     H15299   6.841   7.473   8.434 -1.8793 -0.6427 -0.0473
  116MOL0     H15300   7.354   7.256   8.773  0.5644  1.2250 -4.7977
  116MOL0     H15301   7.433   7.364   8.971  0.3300  1.0761 -1.2555
  116MOL0     H15302   7.287   7.759   9.115 -1.8826 -0.4992 -2.7867
  116MOL0     H15303   7.381   7.801   8.965  2.2796 -1.1926 -0.5870
  116MOL0     H15304   7.471   7.905   9.179 -2.0670 -0.2059  0.5767
  116MOL0     H15305   7.497   7.740   9.229 -2.8703 -1.8760 -0.7814
  116MOL0     H15306   7.634   7.908   9.001  1.9413 -2.1475 -2.7197
  116MOL0     H15307   7.640   7.730   9.001 -3.8053  0.7481 -1.7481
  116MOL0     H15308   7.753   7.918   9.221 -0.9280 -0.1857  0.5513
  116MOL0     H15309   7.761   7.751   9.232 -3.2182  0.7701  0.7231
  116MOL0     H15310   8.043   7.891   8.940 -0.8497 -0.7926 -0.7226
  116MOL0     H15311   7.214   7.715   8.856  2.4206  0.4332  1.4054
  116MOL0     H15312   7.107   7.594   8.686  1.0574 -0.9282 -2.0740
  117MOL0     O15313   2.908   4.525   8.211  0.1416 -0.7028 -0.1660
  117MOL0     C15314   2.971   4.443   8.135 -0.2583  0.5039  0.2368
  117MOL0     O15315   2.927   4.322   8.085  0.5680  0.0212 -0.3499
  117MOL0     C15316   2.793   4.292   8.088  0.9510 -0.2296 -0.5189
  117MOL0     C15317   2.761   4.172   8.157  0.5562  0.2772  0.8555
  117MOL0     C15318   2.621   4.145   8.182 -0.1718  0.4316 -0.0243
  117MOL0     C15319   2.524   4.211   8.114  0.1960 -0.3014 -0.1872
  117MOL0     O15320   2.399   4.158   8.132  0.0010  0.1470 -0.1859
  117MOL0     C15321   2.284   4.217   8.078 -0.1797 -0.6657 -0.9153
  117MOL0     C15322   2.168   4.170   8.166 -0.0642 -0.3877  0.4051
  117MOL0     C15323   2.029   4.186   8.092 -0.5494 -0.2283 -0.0734
  117MOL0     C15324   2.003   4.096   7.967 -0.5194 -0.8833  0.4226
  117MOL0     C15325   1.855   4.046   7.967  0.0856  0.0793  0.0767
  117MOL0     C15326   1.750   4.149   7.929  0.0341  0.0458  0.1022
  117MOL0     C15327   1.616   4.100   7.963 -0.1208  0.6867 -0.6289
  117MOL0     C15328   1.568   3.974   7.888 -0.2993  0.2064 -0.6784
  117MOL0     N15329   1.426   3.959   7.871 -0.1397 -0.1122 -0.4999
  117MOL0     C15330   1.343   3.911   7.970 -0.8236 -1.0667  0.3338
  117MOL0     C15331   1.217   3.922   7.921  0.4979  0.3085 -0.3612
  117MOL0     C15332   1.089   3.904   8.000  0.0341 -0.0288  0.8103
  117MOL0     C15333   0.963   3.865   7.916 -0.2895 -0.1514 -0.6110
  117MOL0     C15334   0.977   3.723   7.864  0.4143 -0.1920  0.6256
  117MOL0     C15335   0.886   3.696   7.734  0.2260 -0.3291 -1.0781
  117MOL0     O15336   0.753   3.674   7.784  0.5683 -0.8098 -0.0824
  117MOL0     C15337   0.704   3.542   7.788  0.2768  0.2465 -0.4797
  117MOL0     C15338   0.728   3.437   7.691 -0.2053 -0.3019  1.2839
  117MOL0     C15339   0.677   3.306   7.706 -0.7105  0.5494  0.0759
  117MOL0     C15340   0.616   3.276   7.830  0.7225 -0.4950 -0.5769
  117MOL0     C15341   0.577   3.138   7.853  0.6390  0.2971  0.0046
  117MOL0     O15342   0.668   3.046   7.807  0.1047  0.1986  0.1145
  117MOL0     C15343   0.634   2.915   7.812  1.4219 -0.3633  0.1171
  117MOL0     C15344   0.737   2.823   7.816  0.4186 -0.6180 -0.2743
  117MOL0     C15345   0.707   2.686   7.809 -1.1410  0.0674 -0.9517
  117MOL0     C15346   0.582   2.633   7.780 -0.7377  0.0345 -0.7394
  117MOL0     O15347   0.563   2.502   7.795  0.2788 -0.0207 -0.0630
  117MOL0     C15348   0.451   2.435   7.734  0.2519 -0.0288  0.4392
  117MOL0     C15349   0.327   2.398   7.822 -0.0088  0.1365 -0.6189
  117MOL0     C15350   0.204   2.367   7.728 -0.7060  0.5086 -0.0613
  117MOL0     C15351   0.092   2.316   7.810  0.0677 -0.3362  0.4098
  117MOL0     C15352  -0.014   2.235   7.734  0.7597 -0.1690  0.3414
  117MOL0     C15353  -0.089   2.141   7.834 -0.3159  0.0854  0.7164
  117MOL0     C15354  -0.203   2.060   7.773 -0.1215 -0.6074  0.6790
  117MOL0     C15355  -0.313   2.148   7.730  0.6480  0.3129  0.1166
  117MOL0    Cl15356  -0.393   2.239   7.867 -0.3334  0.4141  0.4448
  117MOL0     C15357   0.474   2.728   7.773 -0.4561 -0.1684  0.6114
  117MOL0     C15358   0.498   2.864   7.791 -0.5207 -0.2814  0.4377
  117MOL0     O15359   0.474   3.111   7.922 -0.9119  0.0621  0.1936
  117MOL0     C15360   0.599   3.371   7.929  0.3763  0.5828 -0.2745
  117MOL0     C15361   0.636   3.502   7.904 -0.3341  0.3374  0.4368
  117MOL0     N15362   1.228   3.963   7.787 -0.3671 -0.1704 -0.1779
  117MOL0     N15363   1.354   3.990   7.761  0.6695  0.1371  0.7978
  117MOL0     C15364   2.552   4.326   8.040 -0.7835 -0.7892  0.1403
  117MOL0     C15365   2.689   4.364   8.030 -0.5543  0.0806  0.2858
  117MOL0     C15366   3.118   4.469   8.125  0.3807 -0.7902 -0.2580
  117MOL0     C15367   3.212   4.365   8.094  0.6214  0.0286 -0.4007
  117MOL0     C15368   3.349   4.407   8.088  0.0969 -0.3604 -0.3770
  117MOL0     C15369   3.391   4.539   8.105  0.0729  0.1378 -0.0618
  117MOL0     O15370   3.529   4.559   8.092  0.3193  0.6885  0.6232
  117MOL0     C15371   3.579   4.696   8.115  0.2954 -0.3010 -0.1598
  117MOL0     C15372   3.612   4.775   7.981  0.0909 -0.6245 -0.8763
  117MOL0     C15373   3.651   4.685   7.864 -0.1265  0.5761 -0.1793
  117MOL0     C15374   3.659   4.752   7.732  0.9774 -0.2906 -0.9159
  117MOL0     C15375   3.764   4.859   7.727 -0.1836  0.4714  0.3233
  117MOL0     C15376   3.859   4.938   7.729 -0.7919  0.6597 -1.2703
  117MOL0     C15377   3.289   4.632   8.118 -0.7430 -0.3102  0.2439
  117MOL0     C15378   3.161   4.605   8.131  0.0974 -1.1033 -0.3684
  117MOL0     H15379   2.843   4.116   8.201 -2.3595 -4.0836  1.3520
  117MOL0     H15380   2.590   4.060   8.242  0.3074 -1.2421 -2.0507
  117MOL0     H15381   2.264   4.183   7.976 -2.7870 -1.0353 -0.3481
  117MOL0     H15382   2.295   4.325   8.091  0.0785 -0.7460 -0.4581
  117MOL0     H15383   2.160   4.219   8.263 -1.1293 -0.8830  0.5842
  117MOL0     H15384   2.180   4.063   8.185 -1.7212 -0.2256  2.8659
  117MOL0     H15385   2.005   4.286   8.054  1.2927 -0.6767 -2.7262
  117MOL0     H15386   1.957   4.170   8.172 -1.3212  3.0346  0.0556
  117MOL0     H15387   2.033   4.138   7.871 -1.9627 -1.4250 -0.2889
  117MOL0     H15388   2.080   4.019   7.972  0.5009 -0.0635 -1.6172
  117MOL0     H15389   1.825   4.013   8.067 -0.8837  2.2603  0.5645
  117MOL0     H15390   1.843   3.966   7.894  1.3069 -1.2052  1.2173
  117MOL0     H15391   1.750   4.161   7.820  1.5534 -4.1526 -0.5480
  117MOL0     H15392   1.779   4.241   7.981 -1.1062 -1.0037  2.7634
  117MOL0     H15393   1.616   4.072   8.069 -0.4455  0.0825 -0.7826
  117MOL0     H15394   1.544   4.182   7.954 -0.0486  1.2397  2.6322
  117MOL0     H15395   1.607   3.884   7.935  1.5396  0.2910 -1.9408
  117MOL0     H15396   1.595   3.988   7.782 -0.8779  3.7989 -0.4898
  117MOL0     H15397   1.366   3.876   8.070  1.2355 -1.9719 -0.3942
  117MOL0     H15398   1.073   3.998   8.053 -3.4118 -0.4991  0.8289
  117MOL0     H15399   1.092   3.829   8.079  1.0818  0.3780  1.1635
  117MOL0     H15400   0.966   3.933   7.830  0.3660 -1.0710 -1.3381
  117MOL0     H15401   0.870   3.876   7.972 -0.9563  2.0733 -2.0492
  117MOL0     H15402   1.076   3.709   7.819  0.2377 -0.8201  0.4289
  117MOL0     H15403   0.959   3.651   7.944  1.9358 -1.1055  0.1878
  117MOL0     H15404   0.927   3.606   7.686  0.2214 -0.3747 -0.9971
  117MOL0     H15405   0.887   3.786   7.672 -0.5392 -0.1352 -0.8188
  117MOL0     H15406   0.784   3.452   7.599 -3.5658 -3.4232 -1.5837
  117MOL0     H15407   0.699   3.223   7.640  0.1458  2.5925 -2.4198
  117MOL0     H15408   0.836   2.857   7.844 -0.0118 -0.2897  0.9270
  117MOL0     H15409   0.787   2.619   7.837 -1.1474  0.9650  1.4580
  117MOL0     H15410   0.490   2.348   7.680  2.3625  1.6456 -0.9162
  117MOL0     H15411   0.409   2.500   7.656  1.3326  1.7853  1.3050
  117MOL0     H15412   0.291   2.476   7.890 -0.3733 -1.2727  0.8881
  117MOL0     H15413   0.347   2.305   7.876 -0.1230  0.7215  0.4645
  117MOL0     H15414   0.236   2.292   7.656 -2.1179 -1.0815  0.9030
  117MOL0     H15415   0.175   2.457   7.672 -3.5815  1.1775  2.2429
  117MOL0     H15416   0.123   2.246   7.889 -1.5055 -0.7488  0.6971
  117MOL0     H15417   0.048   2.404   7.858 -0.6535 -1.0464  1.0984
  117MOL0     H15418   0.035   2.173   7.658  0.6874 -0.9197  0.8887
  117MOL0     H15419  -0.089   2.304   7.694 -0.9810 -2.4209 -0.4735
  117MOL0     H15420  -0.131   2.204   7.913 -0.4330  2.9999 -1.4849
  117MOL0     H15421  -0.016   2.071   7.875 -1.3440 -0.4783  1.6763
  117MOL0     H15422  -0.157   2.010   7.687 -0.6646  1.7062 -1.0487
  117MOL0     H15423  -0.240   1.988   7.846 -0.3089  0.0256  1.2127
  117MOL0     H15424  -0.393   2.088   7.686  0.8496 -0.2692  0.5467
  117MOL0     H15425  -0.282   2.216   7.650  2.0760 -0.3610  0.0863
  117MOL0     H15426   0.369   2.701   7.775 -1.8112  4.3001  1.0708
  117MOL0     H15427   0.406   2.921   7.799 -0.1945  0.3315 -0.1284
  117MOL0     H15428   0.543   3.349   8.020  0.8982 -1.2137 -0.3566
  117MOL0     H15429   0.627   3.586   7.973 -2.5779 -0.1611  0.8372
  117MOL0     H15430   2.481   4.378   7.975  0.8848 -0.1128 -1.2066
  117MOL0     H15431   2.721   4.458   7.988  0.6338 -0.4842 -0.1066
  117MOL0     H15432   3.180   4.264   8.075 -0.5775  0.6235 -1.6809
  117MOL0     H15433   3.412   4.326   8.055 -0.7083 -0.7284 -1.0538
  117MOL0     H15434   3.673   4.695   8.170  1.7354  1.0319 -2.4686
  117MOL0     H15435   3.518   4.749   8.190 -3.3656 -1.4768 -2.0333
  117MOL0     H15436   3.527   4.835   7.948  0.9053  2.8777  2.6935
  117MOL0     H15437   3.694   4.846   7.997 -1.0844  1.3410 -2.9563
  117MOL0     H15438   3.586   4.599   7.843 -0.2961  0.1797  1.7975
  117MOL0     H15439   3.751   4.648   7.889  0.0537  0.2891 -1.2518
  117MOL0     H15440   3.677   4.682   7.650  3.3099 -1.9333  0.8778
  117MOL0     H15441   3.560   4.792   7.707  2.2055  3.8439  0.0930
  117MOL0     H15442   3.948   4.997   7.729 -0.5375  0.4850  2.2852
  117MOL0     H15443   3.312   4.735   8.093 -0.4850 -0.8431 -1.8438
  117MOL0     H15444   3.092   4.688   8.144  0.0435 -1.3041  0.7257
  118MOL0     O15445   9.952   2.425  10.181  0.2316  0.4902 -0.3243
  118MOL0     C15446  10.038   2.378  10.257 -0.2089 -0.1727  0.8690
  118MOL0     O15447  10.024   2.266  10.335 -0.0736 -0.1326 -0.2528
  118MOL0     C15448   9.904   2.206  10.347  0.1468 -0.0160 -0.2439
  118MOL0     C15449   9.813   2.262  10.439 -0.6746 -0.0146  0.4794
  118MOL0     C15450   9.685   2.215  10.454  0.2267 -0.2245  0.4081
  118MOL0     C15451   9.656   2.090  10.403 -0.1830 -0.4788  0.8056
  118MOL0     O15452   9.540   2.031  10.428 -0.5806  0.2740 -0.4255
  118MOL0     C15453   9.430   2.117  10.470  0.3004 -0.1882 -0.7095
  118MOL0     C15454   9.301   2.043  10.433 -0.2417  0.2352 -0.0086
  118MOL0     C15455   9.274   2.025  10.286  0.2498  0.8511 -0.0558
  118MOL0     C15456   9.286   2.152  10.206 -0.9636  0.8421  0.6902
  118MOL0     C15457   9.224   2.142  10.078 -0.0894 -0.0374  0.2100
  118MOL0     C15458   9.225   2.279  10.001 -0.6603 -0.0244 -1.2553
  118MOL0     C15459   9.103   2.299   9.910  0.4299  0.0067  0.2452
  118MOL0     C15460   9.075   2.451   9.880  0.6235 -0.6079 -0.4732
  118MOL0     N15461   9.178   2.509   9.783  0.1683 -0.2310  0.5588
  118MOL0     C15462   9.223   2.640   9.772  0.1111  0.5359  0.8002
  118MOL0     C15463   9.294   2.658   9.656 -0.3436 -0.6705  1.0377
  118MOL0     C15464   9.361   2.781   9.589  0.2035  0.3975  0.0347
  118MOL0     C15465   9.249   2.854   9.505 -0.0666 -0.0406 -0.1811
  118MOL0     C15466   9.176   2.782   9.386 -0.4273  0.0679 -0.2698
  118MOL0     C15467   9.065   2.861   9.306 -0.9326  0.1491 -0.8406
  118MOL0     O15468   9.020   2.776   9.198 -0.0841 -0.3481  0.3966
  118MOL0     C15469   8.887   2.781   9.163  0.7446 -0.6151 -0.4346
  118MOL0     C15470   8.827   2.662   9.135  0.5621  0.3401  0.3727
  118MOL0     C15471   8.688   2.658   9.097 -0.3018  0.1614  0.6450
  118MOL0     C15472   8.616   2.777   9.087  0.4132  0.2594  0.4006
  118MOL0     C15473   8.471   2.769   9.056 -0.6375 -1.2000  0.0617
  118MOL0     O15474   8.417   2.647   9.084  0.3083 -0.1495  0.2068
  118MOL0     C15475   8.281   2.629   9.078  0.4032  0.4656 -0.3664
  118MOL0     C15476   8.234   2.537   9.170 -0.5109 -0.0215 -0.2389
  118MOL0     C15477   8.100   2.498   9.179 -0.2317 -0.1936 -0.0083
  118MOL0     C15478   8.010   2.555   9.092 -0.0302  0.1186  0.4498
  118MOL0     O15479   7.878   2.522   9.108 -0.0947 -0.3599  0.0229
  118MOL0     C15480   7.803   2.482   8.989 -0.8641 -1.4376  0.2113
  118MOL0     C15481   7.674   2.423   9.036  0.8926  0.1639  0.6793
  118MOL0     C15482   7.561   2.524   9.059  0.5217 -0.7601 -0.4381
  118MOL0     C15483   7.427   2.454   9.070 -0.0488  0.4053 -0.4870
  118MOL0     C15484   7.313   2.559   9.030 -0.4399 -0.7370 -1.4133
  118MOL0     C15485   7.181   2.488   9.022 -0.4608  0.6729  0.0124
  118MOL0     C15486   7.073   2.589   8.991  0.5679  1.0353  0.8171
  118MOL0     C15487   6.936   2.515   8.976  0.1324  0.2312 -0.0823
  118MOL0    Cl15488   6.810   2.637   8.950  0.4288 -0.4130  0.2902
  118MOL0     C15489   8.057   2.629   8.983 -0.8413  0.5722  0.0141
  118MOL0     C15490   8.190   2.672   8.980 -0.0269  0.2187 -0.0769
  118MOL0     O15491   8.412   2.870   9.025  0.4750  0.3198 -0.2324
  118MOL0     C15492   8.676   2.900   9.105 -0.0521  0.8439  0.6042
  118MOL0     C15493   8.813   2.901   9.142  0.2653 -0.4110 -0.7537
  118MOL0     N15494   9.303   2.528   9.613  0.3962  0.4352  0.8121
  118MOL0     N15495   9.227   2.448   9.677  0.2311 -0.3279  0.6104
  118MOL0     C15496   9.749   2.026  10.315 -0.4286  0.6648 -0.4170
  118MOL0     C15497   9.869   2.092  10.284  0.6826 -0.0261  0.2139
  118MOL0     C15498  10.161   2.453  10.274 -0.7297 -0.4751  0.1119
  118MOL0     C15499  10.254   2.410  10.377 -0.2140 -0.3711 -0.1832
  118MOL0     C15500  10.361   2.490  10.414  0.7754 -0.6740 -0.2396
  118MOL0     C15501  10.388   2.602  10.339 -0.3245 -0.5800 -1.2088
  118MOL0     O15502  10.502   2.672  10.381 -0.4709 -0.1335 -0.5019
  118MOL0     C15503  10.513   2.809  10.345 -0.4497 -0.5889 -0.0626
  118MOL0     C15504  10.655   2.851  10.383 -0.3451  0.5973 -1.0976
  118MOL0     C15505  10.652   3.001  10.403 -0.3836 -0.1727  0.0010
  118MOL0     C15506  10.801   3.054  10.405  0.2546  0.6151 -0.2346
  118MOL0     C15507  10.861   3.007  10.530 -1.3078  0.3328  0.0823
  118MOL0     C15508  10.901   2.967  10.639 -0.2574 -0.6110  1.0760
  118MOL0     C15509  10.303   2.647  10.237 -0.7953  0.1272  0.7014
  118MOL0     C15510  10.192   2.571  10.204 -0.4195 -0.2641  0.0371
  118MOL0     H15511   9.836   2.349  10.499 -3.8187 -0.0502  1.9271
  118MOL0     H15512   9.621   2.238  10.538 -0.8605 -1.5725 -0.0106
  118MOL0     H15513   9.413   2.219  10.435 -3.3116  0.4948  2.4503
  118MOL0     H15514   9.436   2.129  10.579 -1.1615 -0.8669 -0.5296
  118MOL0     H15515   9.212   2.094  10.472 -0.5515 -0.6451  0.4611
  118MOL0     H15516   9.307   1.944  10.479 -3.1041 -0.5491 -1.0843
  118MOL0     H15517   9.172   1.988  10.271  0.1665  0.9783  0.1886
  118MOL0     H15518   9.352   1.956  10.255  0.9834  1.0586  1.2318
  118MOL0     H15519   9.235   2.230  10.264  1.3991  2.0231  1.2999
  118MOL0     H15520   9.389   2.185  10.190 -1.7925  2.8122 -1.1426
  118MOL0     H15521   9.119   2.130  10.107 -0.6143  2.5238 -0.3345
  118MOL0     H15522   9.269   2.065  10.015  0.8794 -0.0785  0.9290
  118MOL0     H15523   9.316   2.280   9.941  0.2583 -1.4309  0.0553
  118MOL0     H15524   9.241   2.354  10.079 -1.1231 -1.7602  0.5985
  118MOL0     H15525   9.110   2.239   9.819 -4.2559  0.6337 -0.8015
  118MOL0     H15526   9.013   2.259   9.958  1.2920  0.9610  2.8263
  118MOL0     H15527   9.066   2.510   9.972 -0.0544  1.2186 -1.6466
  118MOL0     H15528   8.981   2.450   9.825  1.5547  0.6605 -2.2055
  118MOL0     H15529   9.203   2.720   9.843 -2.1921  0.2374  0.5631
  118MOL0     H15530   9.449   2.758   9.528  1.5274  0.2712  1.9040
  118MOL0     H15531   9.394   2.840   9.675 -0.8058  0.4254  0.4125
  118MOL0     H15532   9.295   2.945   9.466  4.3131 -1.3072  1.5091
  118MOL0     H15533   9.174   2.887   9.578 -1.2296 -0.1484 -1.2957
  118MOL0     H15534   9.253   2.751   9.314 -1.6208  2.5202 -2.7841
  118MOL0     H15535   9.132   2.690   9.425  1.6502 -0.6182  0.5965
  118MOL0     H15536   9.093   2.960   9.266 -1.0515 -0.9982 -4.1058
  118MOL0     H15537   8.981   2.879   9.372 -0.1354  1.1503 -0.0631
  118MOL0     H15538   8.879   2.567   9.138  0.1979 -0.0716 -2.9878
  118MOL0     H15539   8.633   2.564   9.095 -3.8612  2.1104 -0.9574
  118MOL0     H15540   8.321   2.502   9.225  0.7498  3.0881 -0.0566
  118MOL0     H15541   8.083   2.429   9.262  2.8639  0.6039  1.4060
  118MOL0     H15542   7.859   2.414   8.925  0.3988 -0.9665  0.7846
  118MOL0     H15543   7.793   2.578   8.936 -0.1972 -0.2790  2.0693
  118MOL0     H15544   7.696   2.363   9.125  2.7803 -1.5771 -0.8792
  118MOL0     H15545   7.629   2.350   8.968 -4.4498  0.5482  3.2726
  118MOL0     H15546   7.564   2.592   8.973  2.3600  0.0723  0.2300
  118MOL0     H15547   7.579   2.588   9.147  0.0727  0.6331 -1.3292
  118MOL0     H15548   7.422   2.371   8.999 -3.8643  2.2457 -2.6841
  118MOL0     H15549   7.407   2.419   9.172  1.9583  1.7375  0.4268
  118MOL0     H15550   7.341   2.604   8.934 -0.2721 -2.3987 -2.1717
  118MOL0     H15551   7.312   2.640   9.104  0.8770 -2.3807  0.5401
  118MOL0     H15552   7.165   2.439   9.119 -1.9763  0.0993 -0.4996
  118MOL0     H15553   7.176   2.410   8.946  3.4044  0.5394 -0.3006
  118MOL0     H15554   7.072   2.658   9.075  1.9670 -0.1552  1.8586
  118MOL0     H15555   7.093   2.657   8.907 -0.3533  1.2399  0.7521
  118MOL0     H15556   6.909   2.458   9.066 -0.6895 -0.8453 -0.9827
  118MOL0     H15557   6.937   2.450   8.888 -3.6692  0.4900 -0.4729
  118MOL0     H15558   8.005   2.674   8.898 -0.1281 -1.1734 -1.4236
  118MOL0     H15559   8.240   2.720   8.896 -1.6764 -0.2767 -1.3808
  118MOL0     H15560   8.621   2.993   9.102 -3.1845 -0.8127  1.2507
  118MOL0     H15561   8.847   3.001   9.166 -2.3746  0.8286 -1.7091
  118MOL0     H15562   9.714   1.930  10.279  2.0166  0.3522 -2.1427
  118MOL0     H15563   9.930   2.052  10.203  1.1337 -0.2082  0.6338
  118MOL0     H15564  10.246   2.317  10.433 -2.1714 -1.1397 -1.6266
  118MOL0     H15565  10.431   2.480  10.496 -0.0893 -0.7371  0.5137
  118MOL0     H15566  10.446   2.868  10.408 -2.5463 -1.6972 -1.1249
  118MOL0     H15567  10.498   2.825  10.238  1.1066  0.4030 -0.1637
  118MOL0     H15568  10.686   2.807  10.478 -0.2891  1.5263 -0.6721
  118MOL0     H15569  10.726   2.822  10.306 -1.1713 -1.4796 -1.1302
  118MOL0     H15570  10.616   3.031  10.502  0.4478  3.0248 -0.5729
  118MOL0     H15571  10.596   3.055  10.326  1.2860  4.0132  1.4262
  118MOL0     H15572  10.853   3.034  10.311 -0.9690 -0.8544 -0.6314
  118MOL0     H15573  10.803   3.164  10.405 -1.9708  0.7108 -1.3643
  118MOL0     H15574  10.931   2.909  10.724 -2.0860 -2.2422  0.6829
  118MOL0     H15575  10.322   2.738  10.181  2.0639  0.8099  2.5373
  118MOL0     H15576  10.115   2.608  10.137 -0.7245  1.9205  1.4766
  119MOL0     O15577   9.766   3.950   2.781  0.3892 -0.2668 -0.7155
  119MOL0     C15578   9.856   4.023   2.816  0.9806  0.6608  0.6910
  119MOL0     O15579   9.844   4.148   2.877  1.2901 -0.1399 -0.1660
  119MOL0     C15580   9.720   4.203   2.904  0.0560  0.5466 -0.8231
  119MOL0     C15581   9.693   4.281   3.024  0.2733  0.1926 -0.1077
  119MOL0     C15582   9.564   4.316   3.066 -0.1187  0.6293 -0.4509
  119MOL0     C15583   9.456   4.271   2.987  0.1737  0.1767  0.3166
  119MOL0     O15584   9.327   4.298   3.031  0.3760  0.4161 -0.5531
  119MOL0     C15585   9.223   4.204   2.974 -0.6229 -0.6201  0.1039
  119MOL0     C15586   9.106   4.243   3.050  0.1922 -0.1906 -1.2366
  119MOL0     C15587   8.990   4.154   3.045  1.1411 -0.2009  0.0201
  119MOL0     C15588   8.935   4.106   2.908 -0.6855 -0.6781  0.3316
  119MOL0     C15589   8.860   4.209   2.820 -0.4277 -0.0478 -0.3530
  119MOL0     C15590   8.711   4.230   2.845  0.3607  0.0899 -0.4106
  119MOL0     C15591   8.647   4.333   2.760  0.8624 -0.1488  0.5247
  119MOL0     C15592   8.515   4.284   2.694  0.0425 -0.5838 -0.5297
  119MOL0     N15593   8.515   4.162   2.603  0.0217 -0.8314  0.5087
  119MOL0     C15594   8.620   4.134   2.519 -0.6749 -0.6285 -0.0462
  119MOL0     C15595   8.588   4.010   2.466  0.4279  0.7956  0.5048
  119MOL0     C15596   8.655   3.942   2.345 -0.3259 -0.4829 -0.7531
  119MOL0     C15597   8.803   3.910   2.372  0.3107  1.1568 -0.3924
  119MOL0     C15598   8.865   3.893   2.234 -0.7991  0.0163  0.3174
  119MOL0     C15599   9.014   3.844   2.256 -0.3945  0.1556  0.2905
  119MOL0     O15600   9.057   3.782   2.139 -0.6470  0.4829  0.4666
  119MOL0     C15601   9.174   3.699   2.139 -1.0449  0.5797 -0.3343
  119MOL0     C15602   9.284   3.722   2.230  0.0917  0.6398  0.7220
  119MOL0     C15603   9.404   3.655   2.223  0.0417 -0.0966  0.1603
  119MOL0     C15604   9.422   3.559   2.113  0.2264 -0.0285 -0.0434
  119MOL0     C15605   9.546   3.473   2.097 -0.8845 -0.5681  0.6339
  119MOL0     O15606   9.654   3.496   2.182 -0.2375  0.2725 -0.1241
  119MOL0     C15607   9.752   3.406   2.164 -0.7467 -0.1834  0.0842
  119MOL0     C15608   9.821   3.394   2.045  0.3782 -0.5175 -0.3597
  119MOL0     C15609   9.949   3.337   2.038  0.6027  0.2528 -0.3313
  119MOL0     C15610   9.996   3.273   2.152  0.5685 -0.8860 -0.2867
  119MOL0     O15611  10.128   3.235   2.130 -0.3584 -0.3501  0.2913
  119MOL0     C15612  10.189   3.166   2.240  0.0131 -0.0775 -0.2607
  119MOL0     C15613  10.334   3.126   2.212 -0.6534 -1.1155  0.3407
  119MOL0     C15614  10.340   3.002   2.122 -0.4928 -0.0107  0.6361
  119MOL0     C15615  10.485   2.966   2.082  0.4685 -0.9759 -0.0749
  119MOL0     C15616  10.547   3.065   1.973  0.9648 -1.0305 -0.4339
  119MOL0     C15617  10.693   3.034   1.941 -0.6009 -0.8433 -1.1803
  119MOL0     C15618  10.746   3.125   1.817 -0.5038 -0.2846  0.2426
  119MOL0     C15619  10.893   3.091   1.786 -0.3475 -0.5520 -0.5580
  119MOL0    Cl15620  11.007   3.117   1.931  0.0780  0.4203  0.1638
  119MOL0     C15621   9.908   3.258   2.269 -1.2033 -0.2253  1.1520
  119MOL0     C15622   9.793   3.332   2.277  0.3543  0.2618 -0.1473
  119MOL0     O15623   9.535   3.382   2.011 -0.4788 -0.0004 -0.7211
  119MOL0     C15624   9.307   3.532   2.034 -0.1689 -0.3813  0.7027
  119MOL0     C15625   9.189   3.602   2.044  0.6851 -0.6165  0.3370
  119MOL0     N15626   8.460   3.971   2.513 -0.1398  0.0474  0.3352
  119MOL0     N15627   8.425   4.062   2.601 -1.2314 -0.7249  0.9647
  119MOL0     C15628   9.477   4.221   2.858 -0.2854 -0.4809  0.5170
  119MOL0     C15629   9.609   4.192   2.820 -0.0340 -0.1047  0.4959
  119MOL0     C15630   9.994   3.963   2.821 -0.5525  0.2992 -0.0903
  119MOL0     C15631  10.021   3.828   2.795 -0.9337  0.2799 -0.9149
  119MOL0     C15632  10.146   3.772   2.795 -0.8076 -0.2177 -0.8815
  119MOL0     C15633  10.256   3.850   2.817 -0.2813 -0.5039  0.9599
  119MOL0     O15634  10.380   3.789   2.833 -0.2028  0.2782 -0.4958
  119MOL0     C15635  10.498   3.861   2.830  0.2379 -0.3373 -0.2780
  119MOL0     C15636  10.610   3.757   2.854  0.0516  1.0650 -0.3972
  119MOL0     C15637  10.752   3.816   2.852  0.3698  0.1958 -0.3142
  119MOL0     C15638  10.851   3.706   2.892  0.8894  0.4617  0.1188
  119MOL0     C15639  10.997   3.737   2.896  0.7382 -0.1400  0.1409
  119MOL0     C15640  11.116   3.752   2.925  0.3627 -0.5593  0.4817
  119MOL0     C15641  10.237   3.989   2.828 -0.6064  0.4260  0.4183
  119MOL0     C15642  10.109   4.048   2.846 -0.1982  1.5120  1.1703
  119MOL0     H15643   9.770   4.313   3.094  0.2979 -1.2926  0.5995
  119MOL0     H15644   9.564   4.376   3.156  3.3911 -0.1101  0.1843
  119MOL0     H15645   9.232   4.096   2.992  0.1479 -1.3188 -3.6610
  119MOL0     H15646   9.198   4.220   2.868  1.5947 -1.1159 -0.5413
  119MOL0     H15647   9.086   4.347   3.021 -1.2697  0.8689  2.8700
  119MOL0     H15648   9.130   4.244   3.157 -1.6656 -0.4091 -0.7806
  119MOL0     H15649   8.914   4.220   3.089 -1.2767 -2.1149 -1.1063
  119MOL0     H15650   8.992   4.072   3.118  1.1125 -1.8484 -1.7747
  119MOL0     H15651   9.020   4.073   2.847 -2.0476 -1.5130 -1.1794
  119MOL0     H15652   8.868   4.021   2.927 -0.5561 -0.9941 -0.6041
  119MOL0     H15653   8.865   4.183   2.714 -2.3470  1.5241 -0.9057
  119MOL0     H15654   8.905   4.308   2.830 -0.3879 -0.2321  1.5716
  119MOL0     H15655   8.688   4.247   2.951 -3.2545  4.3451 -1.5899
  119MOL0     H15656   8.656   4.139   2.818  2.1750 -0.7230 -1.4821
  119MOL0     H15657   8.627   4.429   2.809 -0.1566 -0.4589  0.7537
  119MOL0     H15658   8.717   4.362   2.681 -0.8663  2.8549 -0.0534
  119MOL0     H15659   8.488   4.363   2.623 -3.2865 -0.8903  0.2249
  119MOL0     H15660   8.430   4.275   2.762 -1.2799 -0.1508 -2.0905
  119MOL0     H15661   8.702   4.198   2.487 -1.5514 -0.6160 -2.4802
  119MOL0     H15662   8.644   4.002   2.254 -0.1769 -2.0557 -1.8405
  119MOL0     H15663   8.603   3.849   2.322 -1.6787  0.6531 -2.6229
  119MOL0     H15664   8.802   3.817   2.430 -1.1726  1.3001 -0.1613
  119MOL0     H15665   8.853   3.988   2.430  0.4637  2.9900 -2.8676
  119MOL0     H15666   8.809   3.820   2.176  1.7168  1.2702 -4.2109
  119MOL0     H15667   8.867   3.988   2.179  3.2506  1.0476  1.8219
  119MOL0     H15668   9.027   3.774   2.340  0.0986 -3.3122 -2.4400
  119MOL0     H15669   9.063   3.940   2.277 -1.5714  1.3765 -2.1503
  119MOL0     H15670   9.248   3.785   2.311 -3.1248  3.8632 -2.7551
  119MOL0     H15671   9.482   3.659   2.298 -0.0180 -1.2666  0.3001
  119MOL0     H15672   9.788   3.452   1.959 -1.8719  0.1222  0.8648
  119MOL0     H15673  10.012   3.352   1.951  2.1143  0.6117  0.7870
  119MOL0     H15674  10.132   3.075   2.260  0.3024 -0.3748 -0.7664
  119MOL0     H15675  10.184   3.236   2.324  1.8071  0.3483 -0.4634
  119MOL0     H15676  10.380   3.092   2.305 -0.2888 -2.1675 -0.2199
  119MOL0     H15677  10.391   3.207   2.166 -3.0332  0.5105  0.0468
  119MOL0     H15678  10.283   3.022   2.031  1.1742  0.1768 -0.4097
  119MOL0     H15679  10.296   2.913   2.167 -2.4652  1.2506  1.3393
  119MOL0     H15680  10.535   2.974   2.178 -4.4907  3.5103  2.6938
  119MOL0     H15681  10.499   2.866   2.039 -1.5381 -0.4056 -2.3204
  119MOL0     H15682  10.534   3.171   1.999 -2.6024 -1.0192 -1.7611
  119MOL0     H15683  10.486   3.054   1.883  2.0879 -1.9494 -1.1132
  119MOL0     H15684  10.713   2.929   1.919  0.2952 -0.8521 -0.3701
  119MOL0     H15685  10.757   3.047   2.029  1.1441 -2.3050 -2.1655
  119MOL0     H15686  10.692   3.104   1.724  1.1037 -0.6505 -0.6619
  119MOL0     H15687  10.741   3.231   1.845  5.2015 -0.3692  3.0023
  119MOL0     H15688  10.922   3.153   1.700 -0.6292  1.3882  0.6889
  119MOL0     H15689  10.902   2.989   1.747 -0.8880 -1.5225  1.6858
  119MOL0     H15690   9.935   3.190   2.349  0.9157 -1.1126 -0.2339
  119MOL0     H15691   9.726   3.331   2.363 -0.5230  1.7723 -0.7742
  119MOL0     H15692   9.306   3.455   1.957  0.3156 -1.8188  2.0710
  119MOL0     H15693   9.104   3.572   1.984 -1.2344  2.0410  1.5063
  119MOL0     H15694   9.394   4.206   2.790  0.0251  1.7555 -0.4679
  119MOL0     H15695   9.618   4.156   2.718  0.1618  1.5842 -0.0989
  119MOL0     H15696   9.933   3.767   2.774 -0.6135 -0.3082 -0.5944
  119MOL0     H15697  10.170   3.666   2.785  1.3610 -0.0404  1.3241
  119MOL0     H15698  10.493   3.935   2.911  1.7792  0.2421 -0.6680
  119MOL0     H15699  10.511   3.927   2.744  2.4722  0.8110  0.8311
  119MOL0     H15700  10.597   3.704   2.949 -0.4172  1.3859 -0.2796
  119MOL0     H15701  10.593   3.685   2.773 -2.0200  0.5213  0.4502
  119MOL0     H15702  10.756   3.891   2.931  2.7421 -1.0123  0.8359
  119MOL0     H15703  10.778   3.856   2.753 -1.3062 -0.2687 -0.9781
  119MOL0     H15704  10.824   3.674   2.993 -1.6621 -1.7657 -1.1547
  119MOL0     H15705  10.836   3.624   2.821  2.4795 -2.2873  2.7228
  119MOL0     H15706  11.221   3.769   2.937  0.4060 -0.6710  0.2654
  119MOL0     H15707  10.324   4.051   2.848  0.3823 -0.9350  0.4995
  119MOL0     H15708  10.110   4.156   2.855  0.2108  1.7462 -1.1204
  120MOL0     O15709   9.972   4.817   9.182  0.0006  0.1204 -0.0527
  120MOL0     C15710   9.968   4.705   9.233 -0.3223 -0.1702 -0.0870
  120MOL0     O15711  10.055   4.602   9.214  0.4352  0.1481 -0.4269
  120MOL0     C15712  10.166   4.608   9.131 -0.6999  0.4967  0.5514
  120MOL0     C15713  10.232   4.722   9.076 -0.3885 -0.0805 -0.5218
  120MOL0     C15714  10.343   4.708   8.997  0.8681 -0.1083  0.2902
  120MOL0     C15715  10.394   4.583   8.970 -0.0573  0.7242  1.0517
  120MOL0     O15716  10.519   4.577   8.905  0.2560  0.6587 -0.7475
  120MOL0     C15717  10.607   4.478   8.955  0.1632  0.3521 -0.2383
  120MOL0     C15718  10.726   4.450   8.870  0.1201  0.0300 -1.2418
  120MOL0     C15719  10.683   4.398   8.729 -0.3525 -0.4787 -0.7840
  120MOL0     C15720  10.808   4.350   8.647  0.1157 -1.0599 -0.1862
  120MOL0     C15721  10.867   4.469   8.573 -0.6721 -0.1673  0.5782
  120MOL0     C15722  10.992   4.425   8.489  0.0060 -0.0672 -0.0286
  120MOL0     C15723  11.014   4.519   8.377 -0.0022 -0.1491 -0.3403
  120MOL0     C15724  10.933   4.477   8.253  0.7123 -0.8684 -1.0085
  120MOL0     N15725  10.939   4.575   8.147  0.4940 -0.1377  0.6166
  120MOL0     C15726  11.038   4.568   8.064  0.4772  0.2405  0.4100
  120MOL0     C15727  10.985   4.618   7.949 -0.3269 -0.4507 -0.5954
  120MOL0     C15728  11.055   4.597   7.817 -0.8170  0.3255  0.7880
  120MOL0     C15729  10.953   4.529   7.720 -0.6719  0.0810 -0.3015
  120MOL0     C15730  10.968   4.380   7.733 -0.1633 -0.4911 -0.3164
  120MOL0     C15731  10.872   4.333   7.632 -0.6934  0.1495  0.7715
  120MOL0     O15732  10.902   4.190   7.624 -0.3223  0.6811  0.0499
  120MOL0     C15733  10.807   4.125   7.549 -0.1961  0.3853  0.1901
  120MOL0     C15734  10.674   4.099   7.590 -0.6227 -0.2096 -0.4900
  120MOL0     C15735  10.581   4.025   7.508 -0.6365 -0.0826 -0.2569
  120MOL0     C15736  10.624   3.973   7.383 -0.0031 -0.1485  1.3421
  120MOL0     C15737  10.529   3.885   7.312  0.6908  0.6841 -0.0913
  120MOL0     O15738  10.399   3.882   7.349  0.2771 -0.2122 -0.3098
  120MOL0     C15739  10.297   3.798   7.307  0.5015  1.0219 -0.5605
  120MOL0     C15740  10.314   3.678   7.229 -0.5906 -0.0602  0.0038
  120MOL0     C15741  10.202   3.591   7.200 -0.1836 -0.5268 -0.8410
  120MOL0     C15742  10.078   3.627   7.247  0.1738  0.2461 -1.2350
  120MOL0     O15743   9.968   3.548   7.225 -0.0392  0.6195 -0.5171
  120MOL0     C15744   9.970   3.471   7.103 -0.0021  0.2178 -0.3206
  120MOL0     C15745   9.823   3.445   7.064  0.2483  0.6413  0.0412
  120MOL0     C15746   9.745   3.569   7.020 -0.0832 -0.1379 -0.2046
  120MOL0     C15747   9.602   3.541   6.966 -0.0944 -0.2113 -0.2114
  120MOL0     C15748   9.520   3.487   7.085 -0.2463 -0.4814  0.9077
  120MOL0     C15749   9.385   3.440   7.040  1.1448  0.8030  0.3277
  120MOL0     C15750   9.290   3.552   7.023  0.2373 -0.4966  0.4762
  120MOL0     C15751   9.146   3.513   7.012 -0.3396 -0.2823  0.4019
  120MOL0    Cl15752   9.054   3.667   6.997 -0.1297 -0.0911  0.5199
  120MOL0     C15753  10.059   3.743   7.324 -0.7796 -0.0612  0.4363
  120MOL0     C15754  10.165   3.827   7.353 -0.2217  0.3445  0.4675
  120MOL0     O15755  10.578   3.829   7.213  0.3929 -0.2954 -0.5610
  120MOL0     C15756  10.755   4.009   7.338  0.6787  0.2245  0.5401
  120MOL0     C15757  10.843   4.071   7.420 -0.8655 -0.0593 -0.4068
  120MOL0     N15758  10.862   4.669   7.970  0.7864  0.1796  0.5664
  120MOL0     N15759  10.830   4.639   8.092  0.2294  0.0351  0.6169
  120MOL0     C15760  10.327   4.462   9.007 -0.3346 -0.4285  0.1784
  120MOL0     C15761  10.227   4.482   9.096  0.7013 -0.7167 -0.1187
  120MOL0     C15762   9.861   4.686   9.335  0.0601 -0.2566  0.1646
  120MOL0     C15763   9.868   4.565   9.404  0.5067  0.3881  0.4448
  120MOL0     C15764   9.766   4.535   9.503  0.8314  1.3319 -0.2205
  120MOL0     C15765   9.660   4.626   9.523  1.1848  1.3739 -0.2093
  120MOL0     O15766   9.550   4.582   9.602 -0.2879 -0.4647  0.8366
  120MOL0     C15767   9.522   4.674   9.714 -0.1184  0.3393 -0.4038
  120MOL0     C15768   9.377   4.673   9.766 -0.7256  0.2130  0.5312
  120MOL0     C15769   9.326   4.535   9.814  0.2203 -0.1041 -0.4037
  120MOL0     C15770   9.191   4.555   9.884 -0.7723  0.9870  0.0754
  120MOL0     C15771   9.210   4.615  10.010  0.0467  0.8190  0.5393
  120MOL0     C15772   9.216   4.669  10.118 -1.1885 -0.9795 -0.0292
  120MOL0     C15773   9.652   4.743   9.445 -0.2247 -0.0043 -0.4449
  120MOL0     C15774   9.759   4.786   9.367 -0.6762  0.8251 -0.1850
  120MOL0     H15775  10.199   4.821   9.104 -4.0212 -1.4472  0.5511
  120MOL0     H15776  10.390   4.795   8.953 -1.0639  0.8846  0.0495
  120MOL0     H15777  10.556   4.382   8.968  0.5896  0.0677 -0.6311
  120MOL0     H15778  10.636   4.501   9.058  1.1118 -1.0612 -0.1556
  120MOL0     H15779  10.780   4.368   8.919  0.7445  1.1554  0.0470
  120MOL0     H15780  10.789   4.539   8.868  0.8937 -0.4138  0.8402
  120MOL0     H15781  10.643   4.487   8.679 -0.9662 -0.2173  0.1543
  120MOL0     H15782  10.604   4.326   8.753 -1.8075  1.9945  2.6451
  120MOL0     H15783  10.885   4.309   8.713  1.8655  1.6177 -0.4073
  120MOL0     H15784  10.776   4.271   8.578 -3.4079 -1.6892  1.9078
  120MOL0     H15785  10.891   4.544   8.648 -2.6419  1.5505 -0.4070
  120MOL0     H15786  10.794   4.510   8.502  0.2594 -0.6151 -0.6728
  120MOL0     H15787  10.962   4.323   8.461 -1.1090 -1.2029  4.5135
  120MOL0     H15788  11.085   4.403   8.543  1.0601 -1.3690 -2.2222
  120MOL0     H15789  10.993   4.623   8.403 -1.5973 -0.5407  0.0398
  120MOL0     H15790  11.122   4.515   8.364 -0.0791  0.9148 -1.5118
  120MOL0     H15791  10.829   4.476   8.285  1.0106 -0.5330  0.0419
  120MOL0     H15792  10.958   4.375   8.225 -1.3405 -1.1845 -1.8412
  120MOL0     H15793  11.135   4.521   8.073  0.4732  0.0708 -0.3927
  120MOL0     H15794  11.149   4.545   7.836 -0.4465  1.3091  1.8294
  120MOL0     H15795  11.087   4.692   7.775  2.8067 -0.8191  0.6399
  120MOL0     H15796  10.972   4.558   7.616  0.0543  0.7151 -0.0018
  120MOL0     H15797  10.852   4.560   7.750 -1.0675 -2.6189  1.5734
  120MOL0     H15798  11.068   4.337   7.725  1.4770  2.8289  0.6091
  120MOL0     H15799  10.930   4.340   7.827  1.3338 -0.1066  0.4865
  120MOL0     H15800  10.896   4.387   7.541  2.6137 -2.4480 -0.0881
  120MOL0     H15801  10.767   4.346   7.658 -0.9266 -1.3881  0.7092
  120MOL0     H15802  10.642   4.128   7.690 -2.2482 -0.9175 -0.7731
  120MOL0     H15803  10.478   4.011   7.539  0.0256 -2.7408  0.9822
  120MOL0     H15804  10.411   3.655   7.186 -1.4792 -0.2058 -2.0796
  120MOL0     H15805  10.220   3.505   7.137 -0.0047 -1.4421  0.4154
  120MOL0     H15806  10.023   3.378   7.127 -5.3399 -2.4346  3.3269
  120MOL0     H15807  10.022   3.528   7.025 -0.3338 -1.2222 -1.6594
  120MOL0     H15808   9.778   3.403   7.155  1.0911 -0.5315 -0.0630
  120MOL0     H15809   9.817   3.367   6.988  0.1431  1.9208 -1.3035
  120MOL0     H15810   9.802   3.603   6.933 -0.7964 -1.7872 -1.3899
  120MOL0     H15811   9.748   3.648   7.095 -4.1605  1.6035 -1.5777
  120MOL0     H15812   9.555   3.632   6.927 -0.1979  1.4283  3.3023
  120MOL0     H15813   9.603   3.464   6.889  0.2322 -0.0107 -0.4105
  120MOL0     H15814   9.513   3.569   7.157 -2.0821 -0.1364  0.4125
  120MOL0     H15815   9.567   3.402   7.134  2.4140  1.9434  2.9237
  120MOL0     H15816   9.343   3.390   7.127 -0.7898 -0.1701 -1.0937
  120MOL0     H15817   9.402   3.373   6.955  0.2460 -0.3581  1.0468
  120MOL0     H15818   9.292   3.610   7.116  1.2463 -0.4321  0.4211
  120MOL0     H15819   9.315   3.620   6.941 -1.7084  0.3602  0.5270
  120MOL0     H15820   9.110   3.458   7.100 -1.3913  0.1504  0.2613
  120MOL0     H15821   9.137   3.447   6.925  0.6468  1.1381 -0.8238
  120MOL0     H15822   9.959   3.763   7.363 -0.9086  0.5947 -0.2202
  120MOL0     H15823  10.149   3.915   7.413 -0.3958  1.6569 -1.4226
  120MOL0     H15824  10.782   3.971   7.240 -0.1968  3.3998 -1.0626
  120MOL0     H15825  10.937   4.085   7.368 -1.2849 -0.5282 -1.3224
  120MOL0     H15826  10.361   4.366   8.971  0.3156 -0.2941  0.4280
  120MOL0     H15827  10.162   4.401   9.128  1.5084 -1.3071  0.0655
  120MOL0     H15828   9.949   4.495   9.390  1.1938  1.0373  1.0442
  120MOL0     H15829   9.763   4.436   9.548  0.1857  1.9574  1.1947
  120MOL0     H15830   9.550   4.778   9.694  1.3074  0.4007  1.6585
  120MOL0     H15831   9.590   4.646   9.794  1.7501  1.2649 -1.5883
  120MOL0     H15832   9.368   4.750   9.842 -1.9263  1.0643 -0.4466
  120MOL0     H15833   9.317   4.699   9.679 -0.4875 -1.6489 -0.2577
  120MOL0     H15834   9.401   4.496   9.884 -0.8070  0.6974  1.2244
  120MOL0     H15835   9.307   4.456   9.741 -2.4338 -1.8664  1.9785
  120MOL0     H15836   9.112   4.600   9.823  0.3055 -0.3340 -2.4941
  120MOL0     H15837   9.160   4.452   9.908 -0.9316  0.6383 -1.4778
  120MOL0     H15838   9.229   4.733  10.203  1.0784  1.4717 -2.0402
  120MOL0     H15839   9.567   4.811   9.447 -0.1312  0.0945  0.9478
  120MOL0     H15840   9.756   4.883   9.319 -1.2469 -0.1411 -2.2117
  121MOL0     O15841   8.843  10.577  10.306 -0.1457 -0.0115  0.2782
  121MOL0     C15842   8.773  10.544  10.213 -0.5765 -0.0393 -0.0050
  121MOL0     O15843   8.828  10.475  10.095  0.1177  0.2259 -0.0287
  121MOL0     C15844   8.962  10.434  10.105 -0.4938  0.8238  0.1304
  121MOL0     C15845   8.997  10.304  10.065 -0.2635  1.0389 -0.5940
  121MOL0     C15846   9.128  10.264  10.066 -0.6128 -0.9389  0.2565
  121MOL0     C15847   9.231  10.349  10.110 -0.4313  0.3371  0.6838
  121MOL0     O15848   9.354  10.288  10.100 -0.6235  0.0109  0.6938
  121MOL0     C15849   9.469  10.334  10.175  0.2957  0.7627  0.3037
  121MOL0     C15850   9.595  10.275  10.114  0.0880 -0.5857  0.2785
  121MOL0     C15851   9.716  10.289  10.210 -0.2430 -0.3282  0.9338
  121MOL0     C15852   9.844  10.233  10.135  0.3408 -0.1182 -0.7908
  121MOL0     C15853   9.975  10.288  10.191 -0.0440  0.4331  0.1841
  121MOL0     C15854  10.088  10.310  10.090  0.3533 -0.3960  1.3357
  121MOL0     C15855  10.068  10.411   9.970  0.2179  0.6078 -0.7096
  121MOL0     C15856  10.064  10.562  10.011 -0.0001 -0.3025  0.3587
  121MOL0     N15857   9.945  10.611  10.062 -0.2483 -0.3932 -0.1296
  121MOL0     C15858   9.842  10.660   9.987  0.3552  0.0962 -0.1286
  121MOL0     C15859   9.761  10.736  10.069 -0.6381  0.1862  0.9736
  121MOL0     C15860   9.642  10.819  10.047 -0.0464 -0.4270 -0.1211
  121MOL0     C15861   9.662  10.910   9.924 -0.4679  0.0378  0.0026
  121MOL0     C15862   9.533  10.949   9.843 -0.1162  0.2392 -0.2454
  121MOL0     C15863   9.430  10.840   9.835 -0.1099  0.0105  1.3547
  121MOL0     O15864   9.332  10.846   9.933 -0.0861  0.5191 -0.2420
  121MOL0     C15865   9.201  10.792   9.908 -0.7813  0.7037 -0.9990
  121MOL0     C15866   9.096  10.863   9.957  0.3248  0.4473 -0.5373
  121MOL0     C15867   8.962  10.823   9.930 -0.6418 -0.0844 -0.1159
  121MOL0     C15868   8.932  10.733   9.824  0.5526  0.2219 -0.2353
  121MOL0     C15869   8.789  10.712   9.776 -0.2653  0.9401  0.2578
  121MOL0     O15870   8.768  10.619   9.675  0.0605 -0.1712 -0.0274
  121MOL0     C15871   8.640  10.597   9.625 -0.4386  0.5396  0.1271
  121MOL0     C15872   8.531  10.574   9.696  0.2036  0.8997 -0.8614
  121MOL0     C15873   8.404  10.546   9.641  0.3072  0.1188 -0.1054
  121MOL0     C15874   8.398  10.555   9.500  1.2123 -0.2708 -0.3017
  121MOL0     O15875   8.278  10.553   9.434  0.4362 -0.4444 -0.7085
  121MOL0     C15876   8.211  10.423   9.433  0.3631  0.4870  0.2283
  121MOL0     C15877   8.104  10.410   9.333 -0.5623  0.6510 -0.1226
  121MOL0     C15878   8.013  10.526   9.334  0.9517 -0.5441  0.5712
  121MOL0     C15879   7.933  10.507   9.203 -0.2144 -0.3145 -0.6498
  121MOL0     C15880   7.791  10.539   9.218  0.0658  0.5172 -0.3319
  121MOL0     C15881   7.764  10.693   9.253 -0.3399  0.4060  0.2863
  121MOL0     C15882   7.740  10.772   9.117  0.1290  0.2881  0.3780
  121MOL0     C15883   7.675  10.908   9.111 -0.4005  0.0721 -1.1723
  121MOL0    Cl15884   7.796  11.015   9.196  0.2047 -0.2257  0.0883
  121MOL0     C15885   8.511  10.586   9.424  0.3572  0.4074 -0.0822
  121MOL0     C15886   8.632  10.604   9.488 -0.0533  0.5609 -0.2435
  121MOL0     O15887   8.705  10.778   9.831 -0.5645  0.4546  0.3369
  121MOL0     C15888   9.039  10.671   9.761 -0.1514  0.4434 -0.3385
  121MOL0     C15889   9.172  10.693   9.800  0.2919 -0.0462 -0.5278
  121MOL0     N15890   9.826  10.729  10.193  1.0026 -0.8485 -0.9123
  121MOL0     N15891   9.933  10.678  10.184 -0.0768  0.1004 -0.5514
  121MOL0     C15892   9.203  10.478  10.145  0.9509 -0.0707 -0.2248
  121MOL0     C15893   9.067  10.520  10.143  0.3406  0.4651 -0.0681
  121MOL0     C15894   8.625  10.566  10.222  0.5315  0.7775 -0.3042
  121MOL0     C15895   8.544  10.541  10.116  0.5226 -0.4156 -0.3973
  121MOL0     C15896   8.404  10.580  10.122 -0.7498 -0.1368  0.0057
  121MOL0     C15897   8.347  10.647  10.228 -0.4679  0.1931  0.8656
  121MOL0     O15898   8.212  10.677  10.207  0.4130  0.4978 -0.9252
  121MOL0     C15899   8.150  10.760  10.300 -0.0136 -0.0770  0.3861
  121MOL0     C15900   8.007  10.792  10.252  0.4486 -0.6331  0.1418
  121MOL0     C15901   7.931  10.872  10.348 -0.8333 -0.5521  0.0253
  121MOL0     C15902   7.798  10.925  10.303  0.3560 -0.5833  1.1070
  121MOL0     C15903   7.773  11.046  10.377  0.9887  0.1194 -0.4347
  121MOL0     C15904   7.749  11.150  10.439 -0.4918  0.4071 -0.7107
  121MOL0     C15905   8.433  10.676  10.330 -0.7441  0.5833 -0.3641
  121MOL0     C15906   8.570  10.644  10.328  0.6420 -0.0944  0.7568
  121MOL0     H15907   8.925  10.226  10.045  0.4556  0.8548 -2.7136
  121MOL0     H15908   9.148  10.169  10.017  1.2928  0.5439 -2.0041
  121MOL0     H15909   9.465  10.301  10.280  1.4930 -0.4405  0.0071
  121MOL0     H15910   9.481  10.442  10.191  0.2507  0.6817  0.9398
  121MOL0     H15911   9.609  10.324  10.018  1.5973 -0.8593  0.3380
  121MOL0     H15912   9.578  10.168  10.097  0.9880 -0.7475  0.3690
  121MOL0     H15913   9.705  10.239  10.307  2.6463  0.8036  1.9562
  121MOL0     H15914   9.729  10.396  10.227 -2.5023 -0.1224  1.7883
  121MOL0     H15915   9.837  10.124  10.128 -0.5218 -0.1658  0.5601
  121MOL0     H15916   9.830  10.256  10.029 -1.5869  0.1130 -0.5092
  121MOL0     H15917  10.010  10.221  10.270 -1.2544  0.3444  0.6718
  121MOL0     H15918   9.972  10.387  10.238  2.2328  1.2521 -1.2381
  121MOL0     H15919  10.114  10.212  10.049  1.7221  0.6041 -0.3110
  121MOL0     H15920  10.179  10.338  10.144  0.3878 -0.8447  1.5188
  121MOL0     H15921  10.161  10.410   9.912 -0.0954  4.6306 -1.5486
  121MOL0     H15922   9.973  10.393   9.919 -2.7291  0.9193  3.9899
  121MOL0     H15923  10.091  10.619   9.921  0.6837  1.9176  1.8896
  121MOL0     H15924  10.141  10.575  10.088 -1.5048 -2.2817  2.3037
  121MOL0     H15925   9.817  10.626   9.887 -1.5847 -1.6970  0.8669
  121MOL0     H15926   9.615  10.887  10.128  0.0265  0.1507 -0.5789
  121MOL0     H15927   9.565  10.741  10.038 -1.4947  0.8171  1.0219
  121MOL0     H15928   9.730  10.866   9.851 -0.9697  2.0598 -1.7970
  121MOL0     H15929   9.713  11.000   9.961 -0.7241  0.2150 -0.0778
  121MOL0     H15930   9.491  11.035   9.895  1.0479 -0.6803  2.4150
  121MOL0     H15931   9.576  10.981   9.748  0.7958 -1.2501 -0.3734
  121MOL0     H15932   9.475  10.741   9.836  0.5855  0.2937 -0.0800
  121MOL0     H15933   9.382  10.855   9.738 -1.4729  1.6696  2.2436
  121MOL0     H15934   9.111  10.955  10.014 -0.3292  0.1995  0.0465
  121MOL0     H15935   8.880  10.882   9.970 -0.3115  0.8843 -0.8255
  121MOL0     H15936   8.533  10.582   9.804 -1.6380  1.0424 -0.8013
  121MOL0     H15937   8.313  10.534   9.699  0.6972 -1.3568  0.2397
  121MOL0     H15938   8.169  10.403   9.532 -1.2511  0.4992 -0.4336
  121MOL0     H15939   8.288  10.347   9.412  1.7890  0.9795  3.1482
  121MOL0     H15940   8.065  10.310   9.352  1.7476 -0.2236  0.3900
  121MOL0     H15941   8.156  10.411   9.237  0.4482  1.6603  0.4117
  121MOL0     H15942   8.059  10.625   9.334  0.4013 -0.2797  1.0638
  121MOL0     H15943   7.946  10.527   9.421  0.4355  1.8492  0.1983
  121MOL0     H15944   7.982  10.555   9.118 -1.6015  0.8276 -0.8573
  121MOL0     H15945   7.938  10.404   9.165  0.1305 -0.6320  0.2373
  121MOL0     H15946   7.745  10.472   9.291 -1.7166 -0.6007 -2.3666
  121MOL0     H15947   7.748  10.505   9.124 -0.1165  1.6846 -0.6849
  121MOL0     H15948   7.844  10.737   9.312 -1.7433 -0.0389  2.6362
  121MOL0     H15949   7.687  10.709   9.329  1.6310  3.8606  1.8039
  121MOL0     H15950   7.840  10.778   9.073 -0.5842 -2.7133 -2.0554
  121MOL0     H15951   7.678  10.709   9.052  0.6365  0.3853 -0.2090
  121MOL0     H15952   7.584  10.904   9.171  0.4267 -1.5248  0.0483
  121MOL0     H15953   7.639  10.941   9.013 -2.2871  1.0534 -0.2146
  121MOL0     H15954   8.510  10.585   9.315  1.4294 -2.1695 -0.1305
  121MOL0     H15955   8.723  10.621   9.431  2.7250 -2.8573  2.6475
  121MOL0     H15956   9.032  10.609   9.672  3.3014 -1.8380  0.7642
  121MOL0     H15957   9.251  10.658   9.735  1.0356  0.0423  0.3102
  121MOL0     H15958   9.280  10.551  10.168 -0.1248  0.9704  0.1730
  121MOL0     H15959   9.044  10.626  10.154 -0.9088  0.1389  0.5586
  121MOL0     H15960   8.585  10.485  10.033  2.3606 -1.2156  0.9925
  121MOL0     H15961   8.349  10.575  10.028  0.3568 -1.4223 -0.6096
  121MOL0     H15962   8.211  10.849  10.313  1.1480 -0.8217  0.1555
  121MOL0     H15963   8.145  10.712  10.399  0.6256 -2.5068 -0.6789
  121MOL0     H15964   8.028  10.847  10.159 -1.1408 -1.3557 -0.6819
  121MOL0     H15965   7.958  10.699  10.222  1.7354 -1.7546  1.3691
  121MOL0     H15966   7.994  10.956  10.376 -2.0736  1.9123 -3.8877
  121MOL0     H15967   7.904  10.819  10.440  0.2699 -2.1189 -0.4995
  121MOL0     H15968   7.794  10.968  10.203 -1.3046  1.8180  2.1072
  121MOL0     H15969   7.709  10.864  10.319 -0.7464  1.1278  1.7217
  121MOL0     H15970   7.721  11.234  10.499 -1.7233 -0.7407  0.3691
  121MOL0     H15971   8.407  10.718  10.427 -1.8570 -0.2030 -0.2969
  121MOL0     H15972   8.628  10.691  10.407  1.2372 -1.7975  1.3654
  122MOL0     O15973  10.665   1.324   7.565  0.6146  0.2095 -0.1738
  122MOL0     C15974  10.713   1.302   7.673 -0.0727 -0.5868 -0.4481
  122MOL0     O15975  10.661   1.224   7.772  0.4061 -0.4231  0.1274
  122MOL0     C15976  10.538   1.160   7.746  0.9423 -0.6473 -0.9615
  122MOL0     C15977  10.542   1.022   7.730 -0.3016 -0.3459 -0.4186
  122MOL0     C15978  10.418   0.956   7.694 -0.7350 -0.2062 -0.5786
  122MOL0     C15979  10.297   1.025   7.689 -0.2946 -0.2803  0.2899
  122MOL0     O15980  10.180   0.957   7.666 -0.1854  0.2846 -0.4490
  122MOL0     C15981  10.153   0.836   7.740  0.4968  0.8357 -0.3721
  122MOL0     C15982  10.007   0.828   7.773 -0.5176 -0.1502  0.1535
  122MOL0     C15983   9.918   0.843   7.644 -0.5504  0.1676  0.2214
  122MOL0     C15984   9.937   0.731   7.544 -0.1134  0.1267  0.1963
  122MOL0     C15985   9.838   0.756   7.423 -0.1873 -0.7351  0.5068
  122MOL0     C15986   9.800   0.614   7.388 -0.9749  0.4560 -0.6749
  122MOL0     C15987   9.727   0.604   7.253  0.0022  0.3214  0.2548
  122MOL0     C15988   9.612   0.503   7.241  0.2708  0.1308 -1.0497
  122MOL0     N15989   9.482   0.532   7.308  0.0354  0.2091  1.0817
  122MOL0     C15990   9.403   0.640   7.285 -0.2369 -0.1806  0.3507
  122MOL0     C15991   9.283   0.601   7.329 -0.2667 -1.0753  0.1324
  122MOL0     C15992   9.166   0.686   7.330  0.6119 -0.0825 -0.0360
  122MOL0     C15993   9.058   0.625   7.243 -0.0448 -0.6194  0.9077
  122MOL0     C15994   9.110   0.597   7.097 -0.4525 -0.2585  0.3778
  122MOL0     C15995   8.990   0.558   7.009  0.1583  1.3681  0.7731
  122MOL0     O15996   8.922   0.443   7.077 -0.5472 -0.9232  0.2241
  122MOL0     C15997   8.796   0.413   7.035  0.8775  0.9603 -0.1381
  122MOL0     C15998   8.739   0.435   6.910  1.2298 -0.6034  0.0796
  122MOL0     C15999   8.613   0.382   6.882  0.7239  0.5592 -0.1267
  122MOL0     C16000   8.539   0.309   6.985 -0.5937 -0.1569  0.6503
  122MOL0     C16001   8.403   0.260   6.969  0.0893 -1.1817 -0.3447
  122MOL0     O16002   8.343   0.246   7.086  0.7057 -0.0140 -0.3622
  122MOL0     C16003   8.223   0.188   7.108 -0.1279 -0.9741  0.4581
  122MOL0     C16004   8.151   0.107   7.020 -0.4584 -0.0886 -0.3673
  122MOL0     C16005   8.031   0.051   7.070  0.2754  0.1549 -0.1990
  122MOL0     C16006   7.959   0.092   7.179 -0.0784  0.2586  0.6964
  122MOL0     O16007   7.842   0.043   7.219  0.5966  0.1199 -0.6805
  122MOL0     C16008   7.731   0.047   7.123 -0.4177 -0.1882 -0.2665
  122MOL0     C16009   7.609  -0.043   7.161 -0.1162  0.0195  0.8074
  122MOL0     C16010   7.501  -0.041   7.053  0.1752 -0.9752  0.0981
  122MOL0     C16011   7.394  -0.134   7.092  0.1277  0.3954 -0.8140
  122MOL0     C16012   7.295  -0.088   7.199  0.4643  0.6638 -0.0680
  122MOL0     C16013   7.172  -0.171   7.209 -0.5591  0.0250 -0.2649
  122MOL0     C16014   7.057  -0.107   7.131 -0.2142 -0.2813 -0.9451
  122MOL0     C16015   6.938  -0.196   7.091  0.1750 -0.1157  0.1558
  122MOL0    Cl16016   7.005  -0.303   6.967 -0.3262 -0.3850  0.4127
  122MOL0     C16017   8.034   0.173   7.270 -0.7319  0.0761  0.6390
  122MOL0     C16018   8.168   0.225   7.233 -0.1730 -0.2927 -0.6082
  122MOL0     O16019   8.361   0.228   6.859  0.3882 -0.1405 -0.2964
  122MOL0     C16020   8.605   0.280   7.103 -0.0585 -0.1955 -0.3397
  122MOL0     C16021   8.735   0.325   7.128 -1.0817  0.2377 -0.0597
  122MOL0     N16022   9.294   0.476   7.397  0.7715  0.1678 -0.0445
  122MOL0     N16023   9.410   0.436   7.376  0.3547  0.1985  0.1227
  122MOL0     C16024  10.302   1.162   7.698  0.0918 -0.4430  0.1488
  122MOL0     C16025  10.419   1.232   7.729 -0.8858 -0.1729 -0.3962
  122MOL0     C16026  10.820   1.382   7.728 -0.4729 -0.2266  0.1677
  122MOL0     C16027  10.902   1.448   7.635 -0.9531 -0.0096 -0.0555
  122MOL0     C16028  10.997   1.540   7.683  0.0289 -0.3208  0.7648
  122MOL0     C16029  11.011   1.574   7.816 -0.6027  0.2097  0.0526
  122MOL0     O16030  11.116   1.665   7.835 -0.6511  0.0808  0.1010
  122MOL0     C16031  11.170   1.689   7.967  0.0616  0.6059  0.3318
  122MOL0     C16032  11.289   1.784   7.970 -0.5522  1.3110  0.4084
  122MOL0     C16033  11.326   1.837   8.109  0.1441 -0.7568  0.0380
  122MOL0     C16034  11.472   1.894   8.122 -0.6001 -0.3507 -0.2993
  122MOL0     C16035  11.498   1.943   8.259  0.1391  0.6628 -0.9791
  122MOL0     C16036  11.517   1.965   8.377  0.4962  0.3892 -0.5555
  122MOL0     C16037  10.937   1.503   7.910  0.3726  0.1477 -0.1311
  122MOL0     C16038  10.837   1.409   7.868 -0.6476  0.2535 -0.1386
  122MOL0     H16039  10.637   0.973   7.742 -0.9857 -1.7958 -0.7354
  122MOL0     H16040  10.409   0.850   7.674 -2.9017 -0.2602  0.3260
  122MOL0     H16041  10.194   0.842   7.842 -0.2694  1.3185 -0.0756
  122MOL0     H16042  10.189   0.742   7.698 -1.1426  0.2121 -0.4895
  122MOL0     H16043   9.998   0.921   7.831  2.4468  1.3274 -1.5701
  122MOL0     H16044   9.977   0.745   7.838 -2.1202 -0.6646 -1.1602
  122MOL0     H16045   9.940   0.933   7.587  0.7098 -0.2786 -0.0454
  122MOL0     H16046   9.815   0.845   7.680 -0.3948 -1.9047  0.9233
  122MOL0     H16047  10.034   0.743   7.495 -0.9883 -1.5328 -2.1403
  122MOL0     H16048   9.931   0.632   7.589  3.1691 -0.9844 -1.5011
  122MOL0     H16049   9.885   0.803   7.336 -1.0636  3.5295  2.0804
  122MOL0     H16050   9.756   0.823   7.450 -0.6942 -0.8662 -0.6333
  122MOL0     H16051   9.729   0.569   7.458 -1.6616  1.7313 -0.5126
  122MOL0     H16052   9.883   0.543   7.380 -1.5873 -0.4660  0.6616
  122MOL0     H16053   9.697   0.708   7.233 -0.5117 -0.0433 -0.9816
  122MOL0     H16054   9.806   0.569   7.186  0.7912  2.0039  0.2638
  122MOL0     H16055   9.663   0.417   7.286  2.2371  1.7298 -0.0340
  122MOL0     H16056   9.593   0.483   7.135 -0.4499  3.8189 -1.7395
  122MOL0     H16057   9.427   0.736   7.241  0.7979  0.2036  1.6697
  122MOL0     H16058   9.192   0.788   7.298 -0.1260  0.8626  2.1583
  122MOL0     H16059   9.137   0.688   7.435 -2.2893  0.0383 -0.7462
  122MOL0     H16060   8.966   0.684   7.238  1.0398  1.0405 -1.2865
  122MOL0     H16061   9.031   0.528   7.284 -3.5863 -0.5642 -0.8682
  122MOL0     H16062   9.160   0.685   7.058 -1.6726  0.4970  0.4626
  122MOL0     H16063   9.184   0.516   7.103 -0.6604 -0.4548  0.3160
  122MOL0     H16064   9.015   0.530   6.906 -1.2563 -3.4901  1.5014
  122MOL0     H16065   8.919   0.641   7.009  0.6471  1.8208 -0.5999
  122MOL0     H16066   8.769   0.502   6.831 -1.9487 -0.3701 -1.0486
  122MOL0     H16067   8.555   0.391   6.790 -1.5169 -2.7748  0.7836
  122MOL0     H16068   8.190   0.066   6.928  1.8949 -2.1438  1.4064
  122MOL0     H16069   7.988  -0.024   7.003  1.8517  1.1551 -2.4515
  122MOL0     H16070   7.768   0.025   7.023  2.6323 -3.1491  1.3177
  122MOL0     H16071   7.698   0.151   7.118 -2.1912 -0.6844  0.3530
  122MOL0     H16072   7.562  -0.010   7.254 -0.2625  1.9430  0.0909
  122MOL0     H16073   7.648  -0.143   7.183 -0.9598 -0.4797  0.1172
  122MOL0     H16074   7.532  -0.069   6.952 -3.9250  0.5823 -1.8366
  122MOL0     H16075   7.455   0.058   7.049 -0.3466 -1.2534 -1.8807
  122MOL0     H16076   7.340  -0.150   6.999 -0.4983  1.5155 -0.6650
  122MOL0     H16077   7.446  -0.227   7.115 -3.0147 -1.1756  0.4652
  122MOL0     H16078   7.282   0.019   7.178  1.6792  0.8742  0.1708
  122MOL0     H16079   7.335  -0.093   7.301  0.7270 -0.0062 -0.2009
  122MOL0     H16080   7.147  -0.175   7.316  4.0618  0.7635  1.0526
  122MOL0     H16081   7.181  -0.275   7.178  0.2583  0.3859 -1.2970
  122MOL0     H16082   7.023  -0.021   7.190 -1.2810 -2.6068  2.1148
  122MOL0     H16083   7.104  -0.055   7.048  3.9242 -0.6642  0.9288
  122MOL0     H16084   6.861  -0.123   7.063 -0.1000  0.3864  2.0705
  122MOL0     H16085   6.895  -0.252   7.174 -2.3108 -1.0871 -1.6477
  122MOL0     H16086   7.985   0.208   7.360 -0.0511 -1.5792  1.7109
  122MOL0     H16087   8.215   0.300   7.295 -1.8305  0.2218  0.0702
  122MOL0     H16088   8.559   0.218   7.179 -1.7642  0.0084 -1.1570
  122MOL0     H16089   8.781   0.304   7.224 -1.4840 -0.1148  0.0598
  122MOL0     H16090  10.214   1.223   7.684 -0.2520 -1.1412 -0.9103
  122MOL0     H16091  10.416   1.340   7.719 -1.1822 -0.3570 -3.2187
  122MOL0     H16092  10.903   1.424   7.530  1.2730  1.3322 -0.3999
  122MOL0     H16093  11.062   1.579   7.606  0.2392 -0.6049  0.7949
  122MOL0     H16094  11.212   1.591   7.990  1.4459  0.3591 -2.7213
  122MOL0     H16095  11.096   1.718   8.043 -0.6435  1.1627 -0.5387
  122MOL0     H16096  11.375   1.728   7.934 -2.1929 -0.1755 -1.4025
  122MOL0     H16097  11.274   1.865   7.898 -1.5761  3.2535  2.6572
  122MOL0     H16098  11.321   1.753   8.179 -0.6559 -3.0494 -2.5959
  122MOL0     H16099  11.255   1.917   8.136  1.3183 -0.0741  1.2123
  122MOL0     H16100  11.548   1.816   8.110 -0.6865 -0.5836  0.5906
  122MOL0     H16101  11.487   1.968   8.042 -1.6002 -0.6387 -0.7764
  122MOL0     H16102  11.519   1.996   8.479  4.0421  1.5673 -0.8585
  122MOL0     H16103  10.942   1.524   8.016  0.3988 -3.5646  0.7495
  122MOL0     H16104  10.770   1.359   7.937  1.2035 -1.4432  0.5270
  123MOL0     O16105   1.889  10.474   8.091 -0.0514 -0.1271 -0.0415
  123MOL0     C16106   1.891  10.427   7.982  0.3337  0.5270  0.5958
  123MOL0     O16107   1.783  10.389   7.905 -0.2173 -0.4856  0.7409
  123MOL0     C16108   1.654  10.406   7.940  0.3049 -0.0248  0.1408
  123MOL0     C16109   1.602  10.471   8.050 -0.1339 -0.1307 -0.1745
  123MOL0     C16110   1.470  10.519   8.054  0.4606 -0.3468  0.5072
  123MOL0     C16111   1.380  10.468   7.966  0.5594 -0.0765 -0.2820
  123MOL0     O16112   1.256  10.513   7.969  0.1495  0.4022  0.3873
  123MOL0     C16113   1.193  10.555   8.086 -0.2352 -0.5078 -1.2356
  123MOL0     C16114   1.045  10.538   8.075 -1.0523  0.0702 -0.9151
  123MOL0     C16115   0.967  10.645   7.987  0.4071 -0.1055 -0.4052
  123MOL0     C16116   0.812  10.631   8.005 -0.0291  0.8432  0.0289
  123MOL0     C16117   0.756  10.731   7.913 -0.2553  0.2550 -0.0628
  123MOL0     C16118   0.600  10.723   7.919  0.5732  0.9247  0.2039
  123MOL0     C16119   0.523  10.815   7.835 -0.2346 -0.6726  0.6184
  123MOL0     C16120   0.377  10.822   7.862  0.2755  0.7293  0.5411
  123MOL0     N16121   0.312  10.724   7.778 -0.2343 -0.9434  0.5854
  123MOL0     C16122   0.247  10.747   7.659  0.3283  0.0440  0.2801
  123MOL0     C16123   0.185  10.622   7.630  0.2590 -0.6376 -0.1925
  123MOL0     C16124   0.121  10.586   7.500  0.1539  0.1002 -0.4388
  123MOL0     C16125   0.025  10.699   7.456  0.4712 -0.2458 -0.6274
  123MOL0     C16126  -0.034  10.657   7.320 -0.4180 -0.8401  0.7269
  123MOL0     C16127  -0.145  10.748   7.269 -0.5467 -0.9063  1.0698
  123MOL0     O16128  -0.256  10.774   7.356 -0.1445 -0.2390  0.0973
  123MOL0     C16129  -0.346  10.678   7.393 -0.1613 -0.2260 -0.4226
  123MOL0     C16130  -0.443  10.716   7.488 -1.4059  0.2312 -0.8231
  123MOL0     C16131  -0.534  10.615   7.526 -0.4662 -0.2188  0.3304
  123MOL0     C16132  -0.539  10.491   7.466 -0.0590 -0.1449  0.3531
  123MOL0     C16133  -0.664  10.416   7.489 -0.1912  1.2962  1.2340
  123MOL0     O16134  -0.764  10.461   7.562 -0.1290  0.3023  0.1098
  123MOL0     C16135  -0.854  10.364   7.601 -0.3551 -0.2178 -0.0983
  123MOL0     C16136  -0.834  10.271   7.711  1.7564 -0.2230  0.8891
  123MOL0     C16137  -0.946  10.177   7.737 -0.2015 -0.7909 -0.7697
  123MOL0     C16138  -1.066  10.185   7.674  0.8136 -0.2451 -0.8623
  123MOL0     O16139  -1.178  10.110   7.690  0.1498 -0.6707 -0.5289
  123MOL0     C16140  -1.197  10.036   7.809  0.5037 -0.2257 -0.8295
  123MOL0     C16141  -1.319   9.954   7.799  0.3213  0.4927 -0.3066
  123MOL0     C16142  -1.455  10.037   7.801 -0.1663 -0.0987 -0.4435
  123MOL0     C16143  -1.567   9.940   7.829 -0.3674  0.5884  0.1802
  123MOL0     C16144  -1.693  10.024   7.822 -0.4824  0.4403 -0.0612
  123MOL0     C16145  -1.809   9.938   7.833 -1.1697 -0.4856  0.5749
  123MOL0     C16146  -1.945  10.017   7.828 -0.7802  0.1008 -0.7629
  123MOL0     C16147  -2.054   9.928   7.864  0.1001  0.6231 -0.9074
  123MOL0    Cl16148  -2.214  10.012   7.845  0.1583 -0.0952  0.5610
  123MOL0     C16149  -1.079  10.285   7.574 -1.1438  0.6925  0.3038
  123MOL0     C16150  -0.974  10.360   7.536 -0.5740  1.0951  0.5284
  123MOL0     O16151  -0.662  10.301   7.434 -0.2570 -0.1337 -0.1730
  123MOL0     C16152  -0.444  10.456   7.379 -0.7365  0.1767  0.1173
  123MOL0     C16153  -0.347  10.546   7.346 -0.4766 -0.8195  0.7532
  123MOL0     N16154   0.220  10.539   7.728  0.1648  0.3086  0.3001
  123MOL0     N16155   0.287  10.600   7.814  0.3999 -0.5231 -0.7644
  123MOL0     C16156   1.423  10.395   7.856  0.3215  0.7218  0.3198
  123MOL0     C16157   1.560  10.370   7.845  0.1462 -0.1675 -1.2676
  123MOL0     C16158   2.023  10.381   7.940  0.2130 -0.2402  1.0130
  123MOL0     C16159   2.142  10.454   7.988  0.2620 -0.1308 -0.1953
  123MOL0     C16160   2.269  10.420   7.942  0.7221  0.4660 -0.3864
  123MOL0     C16161   2.283  10.316   7.845 -0.1767 -0.2982 -0.9189
  123MOL0     O16162   2.398  10.273   7.799  0.6915 -0.9489 -0.0459
  123MOL0     C16163   2.520  10.332   7.855  0.5047 -0.7130  0.8287
  123MOL0     C16164   2.642  10.262   7.820  0.5250 -0.1513 -0.1649
  123MOL0     C16165   2.662  10.275   7.670  0.6912 -0.8740  0.1384
  123MOL0     C16166   2.713  10.415   7.632 -0.8868 -0.2794  0.0695
  123MOL0     C16167   2.842  10.445   7.687 -0.2319 -0.4836 -0.5058
  123MOL0     C16168   2.957  10.453   7.737  0.8731  0.8440 -0.0405
  123MOL0     C16169   2.169  10.245   7.807 -0.5889 -0.9992 -0.5427
  123MOL0     C16170   2.042  10.280   7.846  0.2123 -0.6070  0.0294
  123MOL0     H16171   1.664  10.482   8.138  0.3854  1.7145 -0.7297
  123MOL0     H16172   1.438  10.588   8.131 -0.7289 -3.1020  2.6539
  123MOL0     H16173   1.203  10.663   8.099  0.3728 -0.5704 -1.1256
  123MOL0     H16174   1.235  10.507   8.175 -0.1878 -0.1306 -1.0548
  123MOL0     H16175   1.001  10.517   8.173  0.0590  0.5107 -0.3060
  123MOL0     H16176   1.032  10.444   8.021  2.4090 -1.5239  0.7560
  123MOL0     H16177   0.997  10.629   7.883  0.5962  1.7825 -0.6677
  123MOL0     H16178   0.997  10.747   8.012 -1.0767  1.2326 -3.5029
  123MOL0     H16179   0.774  10.529   7.989 -5.2513  2.4388  0.3809
  123MOL0     H16180   0.777  10.654   8.106 -3.5686 -1.2010 -0.5700
  123MOL0     H16181   0.793  10.719   7.811 -0.6956  2.0917 -0.4746
  123MOL0     H16182   0.780  10.836   7.931  2.7310 -0.0917 -1.4976
  123MOL0     H16183   0.573  10.742   8.023 -0.5547  1.4143 -0.1691
  123MOL0     H16184   0.565  10.622   7.893  1.3456  1.3554 -2.8419
  123MOL0     H16185   0.568  10.915   7.840  2.5636 -1.4889 -3.2779
  123MOL0     H16186   0.538  10.800   7.728  0.3773 -1.9894  0.8730
  123MOL0     H16187   0.333  10.919   7.838  2.4982  2.0404  1.4589
  123MOL0     H16188   0.367  10.786   7.965  0.5976  0.8749  0.6242
  123MOL0     H16189   0.251  10.843   7.607 -0.2415 -0.4732 -0.7494
  123MOL0     H16190   0.080  10.486   7.515  0.9497 -0.2907 -0.7585
  123MOL0     H16191   0.205  10.582   7.429 -0.1228  0.9536 -0.8258
  123MOL0     H16192   0.088  10.788   7.446  0.8225 -0.4713 -0.4386
  123MOL0     H16193  -0.056  10.710   7.528  0.7750 -0.5011 -0.2408
  123MOL0     H16194   0.046  10.655   7.246 -0.7496 -0.1647  0.3395
  123MOL0     H16195  -0.082  10.559   7.328  0.5295 -1.7260 -2.7405
  123MOL0     H16196  -0.183  10.697   7.179  1.3837 -0.3313 -0.1196
  123MOL0     H16197  -0.097  10.843   7.248 -2.7360  0.8089  3.2539
  123MOL0     H16198  -0.452  10.821   7.513  0.5218 -0.2370  2.3733
  123MOL0     H16199  -0.605  10.649   7.600  0.3327 -1.1605  1.5582
  123MOL0     H16200  -0.754  10.264   7.784  0.0361 -1.7683  2.7362
  123MOL0     H16201  -0.932  10.105   7.817  1.1932  3.9200  3.8007
  123MOL0     H16202  -1.207  10.094   7.900  0.7591 -1.3410 -0.0684
  123MOL0     H16203  -1.107   9.975   7.823 -0.5764 -1.3108  1.9087
  123MOL0     H16204  -1.330   9.873   7.872 -2.0924  1.8979  1.0312
  123MOL0     H16205  -1.312   9.892   7.709  0.3616  0.9324 -0.6131
  123MOL0     H16206  -1.465  10.097   7.710 -1.2253  1.1167  0.4519
  123MOL0     H16207  -1.451  10.115   7.877 -1.9697  1.8585 -2.2043
  123MOL0     H16208  -1.577   9.861   7.754  2.4209  0.6018 -0.2974
  123MOL0     H16209  -1.555   9.890   7.926  1.3204  0.4360 -0.0681
  123MOL0     H16210  -1.693  10.092   7.737  3.2042  0.2477 -0.3944
  123MOL0     H16211  -1.699  10.081   7.915 -4.9324  0.2976 -0.0382
  123MOL0     H16212  -1.804   9.872   7.920  0.3816 -1.6259 -0.3260
  123MOL0     H16213  -1.817   9.868   7.750 -1.5975 -1.4057  1.3765
  123MOL0     H16214  -1.929  10.094   7.904  1.3814  1.3780 -2.3605
  123MOL0     H16215  -1.974  10.064   7.734 -1.9064 -2.3804 -1.7452
  123MOL0     H16216  -2.056   9.884   7.964  2.7733 -1.4747 -1.6358
  123MOL0     H16217  -2.042   9.837   7.805  0.6535 -0.4964  0.8494
  123MOL0     H16218  -1.170  10.307   7.518  1.4404  3.8972 -3.1824
  123MOL0     H16219  -0.990  10.432   7.457 -0.8129  2.5565  1.8460
  123MOL0     H16220  -0.427  10.352   7.352  0.8669 -0.8100  4.2226
  123MOL0     H16221  -0.273  10.520   7.272 -0.8741  4.2779 -1.8724
  123MOL0     H16222   1.365  10.368   7.769 -0.6845  0.0306  1.1785
  123MOL0     H16223   1.596  10.313   7.760  1.9423 -2.4612  0.8983
  123MOL0     H16224   2.127  10.532   8.062  3.1846 -0.2690  0.6600
  123MOL0     H16225   2.356  10.471   7.981  0.1843  1.5402 -0.5605
  123MOL0     H16226   2.520  10.343   7.964  0.3774  0.1317  0.7494
  123MOL0     H16227   2.519  10.434   7.816  0.1279 -1.3743 -0.9624
  123MOL0     H16228   2.729  10.294   7.876 -2.0177  1.2824  3.2935
  123MOL0     H16229   2.616  10.161   7.852  2.5506 -0.3868  0.8134
  123MOL0     H16230   2.573  10.260   7.608 -0.9289  3.6775  0.9995
  123MOL0     H16231   2.736  10.200   7.640  0.1396 -1.3624 -0.0410
  123MOL0     H16232   2.726  10.429   7.524  0.4551 -0.5407  0.1782
  123MOL0     H16233   2.645  10.495   7.664  1.9010  2.7000 -0.9046
  123MOL0     H16234   3.061  10.445   7.765  0.5819 -1.7335  0.5542
  123MOL0     H16235   2.185  10.158   7.744  1.9543 -0.7031 -0.4121
  123MOL0     H16236   1.958  10.242   7.789  1.5135 -1.4605 -1.3879
  124MOL0     O16237   1.612   0.662   1.019 -0.9413 -0.5059  0.2430
  124MOL0     C16238   1.544   0.710   0.934  0.2283  0.0017 -0.4248
  124MOL0     O16239   1.437   0.787   0.954  0.9261 -0.7570 -0.3605
  124MOL0     C16240   1.406   0.848   1.077 -0.3884  0.2944 -0.8326
  124MOL0     C16241   1.281   0.918   1.083  1.2869  0.2217  0.7140
  124MOL0     C16242   1.242   0.989   1.188 -0.9087 -0.6587 -0.3046
  124MOL0     C16243   1.323   1.005   1.297 -0.0320  0.5426  0.1708
  124MOL0     O16244   1.289   1.077   1.403  0.4831 -0.2700 -0.7794
  124MOL0     C16245   1.330   1.217   1.410 -0.3417  0.4406 -0.0894
  124MOL0     C16246   1.250   1.308   1.502  0.1197  0.4105 -0.2742
  124MOL0     C16247   1.124   1.373   1.428  0.1355 -0.4361  0.3936
  124MOL0     C16248   1.004   1.274   1.414 -0.1501 -0.3217 -0.2759
  124MOL0     C16249   0.959   1.206   1.543  0.5024  0.0108  0.1932
  124MOL0     C16250   0.908   1.302   1.649  0.4503 -0.6203  0.8540
  124MOL0     C16251   0.772   1.384   1.617 -0.8752  0.7105 -0.7659
  124MOL0     C16252   0.764   1.519   1.700  0.1265  0.0308 -0.6694
  124MOL0     N16253   0.791   1.501   1.847 -0.2070 -0.9364  0.5131
  124MOL0     C16254   0.912   1.517   1.915  0.2435 -0.7050  0.4500
  124MOL0     C16255   0.874   1.536   2.043 -0.6364  0.5017 -0.0638
  124MOL0     C16256   0.966   1.572   2.165 -0.3134  0.3753  0.9664
  124MOL0     C16257   1.002   1.726   2.183 -0.0852  0.0031 -0.5987
  124MOL0     C16258   1.083   1.797   2.070 -0.3373 -0.0976 -0.2923
  124MOL0     C16259   1.238   1.758   2.094 -0.4110 -0.4231  0.3696
  124MOL0     O16260   1.301   1.871   2.041  0.9506 -0.2809 -0.0681
  124MOL0     C16261   1.439   1.869   2.024 -0.0311 -0.2278  0.0443
  124MOL0     C16262   1.523   1.767   2.072 -0.2095  0.1823 -0.0204
  124MOL0     C16263   1.656   1.783   2.065 -0.7997  0.7997  0.6311
  124MOL0     C16264   1.721   1.900   2.022 -1.4520  0.9405 -0.3832
  124MOL0     C16265   1.869   1.919   2.008 -1.1355  0.8142  0.4712
  124MOL0     O16266   1.925   2.018   1.932  0.7264  0.9518  0.2224
  124MOL0     C16267   2.058   2.014   1.931 -0.7169  0.2839  0.1041
  124MOL0     C16268   2.124   1.926   1.845 -0.2577  0.1034 -0.6836
  124MOL0     C16269   2.266   1.927   1.829  0.4640 -0.3703  0.3456
  124MOL0     C16270   2.342   2.035   1.890  0.0562  0.1650  0.2890
  124MOL0     O16271   2.477   2.041   1.867  0.5454 -0.2492 -0.3845
  124MOL0     C16272   2.562   2.101   1.970 -0.0220 -0.6905 -0.2298
  124MOL0     C16273   2.689   2.027   1.973 -0.1713 -0.7606  0.8012
  124MOL0     C16274   2.770   2.066   1.846 -0.8742 -0.5209 -0.4245
  124MOL0     C16275   2.910   2.004   1.864 -0.7994  0.2402 -0.6253
  124MOL0     C16276   2.999   2.053   1.744 -0.3718 -0.4244 -0.1309
  124MOL0     C16277   3.148   2.049   1.780  0.0347 -0.1504  0.2105
  124MOL0     C16278   3.235   1.993   1.669  0.6899 -1.1631 -0.0579
  124MOL0     C16279   3.382   1.968   1.717  0.5828 -1.0702  0.0991
  124MOL0    Cl16280   3.444   2.113   1.791 -0.0899 -0.2078 -0.0714
  124MOL0     C16281   2.274   2.126   1.970 -0.9874  0.3837  0.3348
  124MOL0     C16282   2.135   2.109   1.992  0.0048  0.0413 -0.0284
  124MOL0     O16283   1.934   1.850   2.094  0.1283 -0.4658  0.6215
  124MOL0     C16284   1.638   2.002   1.977  0.5759  0.4813  0.3518
  124MOL0     C16285   1.495   1.984   1.978  0.1630 -0.7385  0.0838
  124MOL0     N16286   0.739   1.525   2.057 -0.3076 -0.8337 -0.1341
  124MOL0     N16287   0.691   1.507   1.939  0.4392  0.4566 -0.0732
  124MOL0     C16288   1.446   0.932   1.305  0.5256  0.7846  0.2627
  124MOL0     C16289   1.491   0.858   1.189 -0.0117 -0.1377 -0.5846
  124MOL0     C16290   1.553   0.651   0.794 -0.1878  0.4988  0.0536
  124MOL0     C16291   1.675   0.597   0.742 -0.7430  0.4958  0.1602
  124MOL0     C16292   1.679   0.542   0.613  0.2545  0.3280 -0.0692
  124MOL0     C16293   1.560   0.533   0.529  0.3222 -0.9361 -0.1889
  124MOL0     O16294   1.571   0.470   0.405  0.2397 -0.1693 -0.3274
  124MOL0     C16295   1.453   0.416   0.347  0.1631 -0.2451 -0.5080
  124MOL0     C16296   1.394   0.295   0.438  0.1017 -0.1325 -0.0242
  124MOL0     C16297   1.503   0.214   0.502 -0.0144  0.4020 -0.4924
  124MOL0     C16298   1.484   0.069   0.494 -0.4347  0.5672  0.1698
  124MOL0     C16299   1.519   0.032   0.357  0.2693 -0.1430 -0.2322
  124MOL0     C16300   1.557   0.009   0.249  0.4851 -0.1633 -0.2712
  124MOL0     C16301   1.449   0.587   0.579 -0.0249 -0.1418 -0.6142
  124MOL0     C16302   1.442   0.647   0.708 -0.0208 -0.0770  0.2440
  124MOL0     H16303   1.213   0.921   0.998 -0.7766  0.9572  2.2833
  124MOL0     H16304   1.146   1.039   1.183 -1.5270 -1.4864  1.8935
  124MOL0     H16305   1.330   1.263   1.311 -0.7581  1.3014  0.2959
  124MOL0     H16306   1.437   1.228   1.431 -0.2072  0.0026 -0.5380
  124MOL0     H16307   1.313   1.394   1.523  1.1027 -0.0245 -1.3532
  124MOL0     H16308   1.228   1.262   1.599 -2.2143  0.9796 -0.4659
  124MOL0     H16309   1.156   1.400   1.327  0.2656 -2.0489 -0.0187
  124MOL0     H16310   1.094   1.466   1.478 -1.4626 -0.5140 -0.3610
  124MOL0     H16311   0.921   1.332   1.372  0.1790  0.7853  0.5723
  124MOL0     H16312   1.024   1.193   1.343  0.6958  1.0272 -1.6425
  124MOL0     H16313   1.040   1.145   1.582 -1.4503 -1.7671  1.7246
  124MOL0     H16314   0.878   1.137   1.514 -0.0963  1.0047 -0.5783
  124MOL0     H16315   0.985   1.378   1.663  0.2463 -0.5623  1.7774
  124MOL0     H16316   0.903   1.254   1.748  1.2342 -1.0271  0.7069
  124MOL0     H16317   0.767   1.421   1.514  0.9804 -0.2682 -1.2313
  124MOL0     H16318   0.683   1.328   1.650 -3.6207  4.4747 -1.0411
  124MOL0     H16319   0.669   1.570   1.687  0.9718  1.1634 -2.7476
  124MOL0     H16320   0.835   1.594   1.665  3.7398 -2.0928  1.4698
  124MOL0     H16321   1.008   1.524   1.864 -0.4989 -0.7604 -1.0052
  124MOL0     H16322   1.057   1.514   2.145 -0.9897 -0.6377  0.7343
  124MOL0     H16323   0.924   1.526   2.255 -0.4629  1.0963  1.2719
  124MOL0     H16324   1.047   1.741   2.282 -1.7672 -2.1567  0.5720
  124MOL0     H16325   0.906   1.774   2.203 -0.2525  0.1925 -1.7532
  124MOL0     H16326   1.049   1.763   1.972 -0.2182  2.7009 -1.4215
  124MOL0     H16327   1.075   1.906   2.078  0.1381 -0.2122  2.3659
  124MOL0     H16328   1.265   1.666   2.041  0.6648 -1.2572  2.2591
  124MOL0     H16329   1.257   1.744   2.201  2.0373  3.3702  0.6029
  124MOL0     H16330   1.480   1.670   2.094 -0.6417 -0.0714 -1.8321
  124MOL0     H16331   1.708   1.693   2.096 -2.4546 -0.2736  0.3854
  124MOL0     H16332   2.065   1.851   1.794 -0.7368 -0.1917  0.2795
  124MOL0     H16333   2.315   1.866   1.754  0.9455  0.8960 -0.4248
  124MOL0     H16334   2.517   2.107   2.069  0.6142  1.4617 -0.0225
  124MOL0     H16335   2.581   2.201   1.930 -2.4854 -1.9178 -5.4304
  124MOL0     H16336   2.677   1.919   1.965  0.7909 -0.9822  1.9672
  124MOL0     H16337   2.753   2.045   2.060  1.0634 -1.5289  0.0782
  124MOL0     H16338   2.776   2.174   1.832 -0.4161 -0.6899 -1.6928
  124MOL0     H16339   2.730   2.026   1.753  3.6791 -3.6184 -1.4087
  124MOL0     H16340   2.954   2.027   1.961 -3.8748  3.2734  0.2897
  124MOL0     H16341   2.892   1.897   1.856 -2.4313  0.5718 -2.1480
  124MOL0     H16342   2.969   2.157   1.731  1.2922  0.6002  3.1371
  124MOL0     H16343   2.978   1.992   1.655  1.8608 -2.8708  0.8854
  124MOL0     H16344   3.153   1.974   1.859 -1.8955 -1.4265 -0.8246
  124MOL0     H16345   3.189   2.139   1.827  3.6828 -1.8294  0.6337
  124MOL0     H16346   3.196   1.897   1.633  0.3735 -1.3844  0.8457
  124MOL0     H16347   3.230   2.063   1.586 -1.7003  0.7442  1.5794
  124MOL0     H16348   3.435   1.943   1.625 -0.5496 -2.5663 -0.1915
  124MOL0     H16349   3.391   1.882   1.785  2.3854  0.3518  1.7861
  124MOL0     H16350   2.330   2.202   2.023 -2.2790  0.2037  2.0659
  124MOL0     H16351   2.092   2.176   2.066 -3.3742  0.1213 -1.8788
  124MOL0     H16352   1.693   2.088   1.942  4.8077 -1.2332  2.1215
  124MOL0     H16353   1.432   2.064   1.941 -1.4026 -0.8072  2.3763
  124MOL0     H16354   1.504   0.929   1.397  3.3478 -2.4145 -1.3653
  124MOL0     H16355   1.594   0.823   1.181 -0.6338 -1.7120 -2.3987
  124MOL0     H16356   1.766   0.593   0.801  1.0530  2.2893 -2.3338
  124MOL0     H16357   1.753   0.469   0.582  1.5107  0.9992  1.2907
  124MOL0     H16358   1.480   0.380   0.248 -1.1385  1.5680 -1.5743
  124MOL0     H16359   1.374   0.489   0.328 -1.4872 -1.8060 -0.0490
  124MOL0     H16360   1.333   0.342   0.516  1.0649  2.3901 -0.6842
  124MOL0     H16361   1.331   0.229   0.377  1.2511 -0.1108 -1.2936
  124MOL0     H16362   1.508   0.240   0.608 -0.7775 -0.1525 -0.3138
  124MOL0     H16363   1.600   0.238   0.457 -0.1890  1.9778 -0.0827
  124MOL0     H16364   1.558   0.008   0.548  0.8157 -0.4167 -2.4992
  124MOL0     H16365   1.392   0.025   0.533 -0.7295 -0.0695 -1.1716
  124MOL0     H16366   1.585  -0.012   0.148 -2.6452  0.2532 -1.3334
  124MOL0     H16367   1.352   0.568   0.533  0.3578  0.2119 -1.5842
  124MOL0     H16368   1.344   0.688   0.730 -0.0624 -0.1609  0.2143
  125MOL0     O16369   0.379   2.685   1.850  0.5326 -0.1405 -0.1058
  125MOL0     C16370   0.396   2.650   1.965  0.3719  0.2892 -0.5621
  125MOL0     O16371   0.313   2.569   2.037  0.4253  0.6000  0.0155
  125MOL0     C16372   0.166   2.562   2.020  0.3792  0.8050  0.5986
  125MOL0     C16373   0.103   2.469   2.101  1.0524 -0.5907  0.1950
  125MOL0     C16374  -0.041   2.472   2.114 -0.2218 -0.4179  0.3442
  125MOL0     C16375  -0.115   2.573   2.055  0.7094 -0.2321  0.2248
  125MOL0     O16376  -0.249   2.573   2.089 -0.1207  0.3712  0.3089
  125MOL0     C16377  -0.326   2.682   2.042 -0.6728 -0.0797  0.8106
  125MOL0     C16378  -0.475   2.677   2.092 -0.2983 -0.0948 -0.0513
  125MOL0     C16379  -0.463   2.711   2.240 -0.2284 -0.0631  0.0575
  125MOL0     C16380  -0.605   2.708   2.314 -0.1678 -0.9600  0.5824
  125MOL0     C16381  -0.573   2.720   2.460  0.3218  0.2160 -0.5125
  125MOL0     C16382  -0.682   2.679   2.555 -0.4703  0.0908 -0.4122
  125MOL0     C16383  -0.815   2.759   2.552  0.3774  0.1150 -0.2058
  125MOL0     C16384  -0.908   2.715   2.438 -0.0044 -0.7038  1.0976
  125MOL0     N16385  -1.036   2.765   2.476 -0.3626 -0.0369 -0.0796
  125MOL0     C16386  -1.142   2.687   2.522 -0.2605 -0.2282 -0.2363
  125MOL0     C16387  -1.256   2.758   2.514  0.5434  0.1841  0.2096
  125MOL0     C16388  -1.394   2.711   2.562 -0.6973  0.9365  0.5429
  125MOL0     C16389  -1.431   2.600   2.464 -0.0582 -0.3932  0.5041
  125MOL0     C16390  -1.562   2.541   2.500 -0.1246 -0.2817 -0.6043
  125MOL0     C16391  -1.620   2.486   2.365  0.3235 -1.2160  0.6846
  125MOL0     O16392  -1.738   2.403   2.389 -0.5551  0.7273  0.8083
  125MOL0     C16393  -1.867   2.460   2.355  0.2256  0.6276 -0.2119
  125MOL0     C16394  -1.975   2.374   2.336  0.2962 -0.6838 -0.2783
  125MOL0     C16395  -2.104   2.426   2.317  0.1423 -0.2685 -0.3301
  125MOL0     C16396  -2.130   2.566   2.306  0.2478 -0.7945  0.5275
  125MOL0     C16397  -2.269   2.617   2.303  0.0885 -0.1419 -0.8172
  125MOL0     O16398  -2.354   2.517   2.277  0.2848 -0.2651  0.5998
  125MOL0     C16399  -2.487   2.550   2.247  0.1177 -0.0252  0.4377
  125MOL0     C16400  -2.529   2.658   2.162 -0.0454 -0.4098 -0.0345
  125MOL0     C16401  -2.658   2.691   2.129  0.0658  0.0256 -0.6987
  125MOL0     C16402  -2.756   2.604   2.183 -0.3575 -0.8669  0.0935
  125MOL0     O16403  -2.884   2.631   2.153 -0.0767  0.3956 -0.6419
  125MOL0     C16404  -2.988   2.526   2.167 -0.9902  1.1462  0.7808
  125MOL0     C16405  -3.109   2.563   2.086  0.5329  0.0764  0.6450
  125MOL0     C16406  -3.110   2.572   1.926 -0.6940 -0.3191 -0.4748
  125MOL0     C16407  -2.973   2.555   1.859  0.2596  0.6140 -0.1199
  125MOL0     C16408  -2.993   2.555   1.712 -0.1337 -0.0946 -0.1720
  125MOL0     C16409  -3.049   2.420   1.653 -0.6694 -0.1172  1.0686
  125MOL0     C16410  -3.060   2.429   1.498  0.0633 -1.1667  0.5960
  125MOL0     C16411  -3.130   2.322   1.424 -0.6640 -0.4054 -0.3432
  125MOL0    Cl16412  -3.122   2.353   1.258  0.2817 -0.2144 -0.2675
  125MOL0     C16413  -2.721   2.502   2.277 -0.0647 -0.0314  1.2636
  125MOL0     C16414  -2.587   2.476   2.308 -0.1268  0.9071 -0.2761
  125MOL0     O16415  -2.307   2.736   2.324 -0.1674  0.2037 -0.1524
  125MOL0     C16416  -2.023   2.654   2.349 -0.0286  0.5982  0.4034
  125MOL0     C16417  -1.899   2.602   2.380 -0.2465 -0.6392 -0.6050
  125MOL0     N16418  -1.217   2.886   2.470 -0.3617  0.3648 -0.5398
  125MOL0     N16419  -1.087   2.886   2.437  0.2499  0.1784  0.2109
  125MOL0     C16420  -0.052   2.667   1.971 -0.5523 -0.0609 -0.1798
  125MOL0     C16421   0.085   2.656   1.953 -0.1534 -0.2108  0.3224
  125MOL0     C16422   0.533   2.677   2.012  0.2350  0.1199 -1.0144
  125MOL0     C16423   0.598   2.582   2.096  0.3544  0.0409 -0.1054
  125MOL0     C16424   0.728   2.606   2.139  0.1173  0.4854  0.4054
  125MOL0     C16425   0.795   2.725   2.108  1.2125 -0.1701  0.0414
  125MOL0     O16426   0.920   2.752   2.163 -0.6388 -0.3469 -0.2797
  125MOL0     C16427   0.967   2.680   2.278 -0.2390 -0.0236 -0.1450
  125MOL0     C16428   1.082   2.749   2.351  0.0845 -0.9187 -0.1375
  125MOL0     C16429   1.195   2.774   2.248  0.2870 -0.2495 -0.4304
  125MOL0     C16430   1.257   2.636   2.214  0.3060 -0.7300 -0.4129
  125MOL0     C16431   1.403   2.665   2.194 -0.5587 -0.3190  0.3945
  125MOL0     C16432   1.522   2.687   2.181 -0.1353  0.4391 -0.3688
  125MOL0     C16433   0.725   2.814   2.023  0.0603 -0.1988 -0.3891
  125MOL0     C16434   0.600   2.791   1.972  0.0772 -0.3515 -0.4580
  125MOL0     H16435   0.171   2.402   2.153  0.0210 -1.3590  0.6098
  125MOL0     H16436  -0.095   2.405   2.181  1.0521 -0.3863  1.4572
  125MOL0     H16437  -0.333   2.674   1.933  2.1862  0.3948  0.5250
  125MOL0     H16438  -0.285   2.778   2.075 -0.9154  0.3054  0.0372
  125MOL0     H16439  -0.513   2.576   2.076  1.9832 -0.7676 -1.9253
  125MOL0     H16440  -0.540   2.752   2.047 -2.2272 -1.7224 -0.1151
  125MOL0     H16441  -0.408   2.805   2.254  1.0418 -0.5867 -1.1411
  125MOL0     H16442  -0.405   2.626   2.278 -2.4330 -1.7914 -0.2307
  125MOL0     H16443  -0.658   2.796   2.277 -1.3451 -2.7784 -2.4113
  125MOL0     H16444  -0.662   2.619   2.287 -2.9279  0.4005  1.6227
  125MOL0     H16445  -0.543   2.822   2.484  1.6244 -0.2251 -0.2046
  125MOL0     H16446  -0.488   2.655   2.482 -0.7100 -0.8115  0.5897
  125MOL0     H16447  -0.645   2.698   2.656 -0.7930  1.5301 -0.5450
  125MOL0     H16448  -0.700   2.571   2.546 -1.5136  0.1563  0.6416
  125MOL0     H16449  -0.876   2.747   2.642 -0.8215  3.2986 -0.4607
  125MOL0     H16450  -0.789   2.865   2.560  0.3757  0.1357 -0.4682
  125MOL0     H16451  -0.900   2.608   2.416  2.2619 -0.2093 -0.9627
  125MOL0     H16452  -0.886   2.756   2.339  0.4891 -0.1392  1.4376
  125MOL0     H16453  -1.136   2.581   2.543  0.1796 -0.0874  0.3754
  125MOL0     H16454  -1.466   2.793   2.554 -1.6943  0.2718  2.1567
  125MOL0     H16455  -1.388   2.673   2.665 -1.9465  0.7258  0.5605
  125MOL0     H16456  -1.361   2.516   2.464 -1.3936 -1.6872 -3.0165
  125MOL0     H16457  -1.431   2.645   2.365  0.4286 -1.0519  0.1982
  125MOL0     H16458  -1.546   2.460   2.572  3.9690 -0.2775 -1.2606
  125MOL0     H16459  -1.623   2.620   2.545 -1.7712 -1.7386 -0.1814
  125MOL0     H16460  -1.553   2.430   2.300 -1.3603  0.2886 -2.6153
  125MOL0     H16461  -1.655   2.575   2.312 -3.5240 -1.6136  2.2087
  125MOL0     H16462  -1.962   2.267   2.325 -1.3471 -0.9819  0.4047
  125MOL0     H16463  -2.183   2.352   2.314 -1.7397  1.5648  1.0183
  125MOL0     H16464  -2.447   2.707   2.110 -0.1353  0.8067  0.9356
  125MOL0     H16465  -2.681   2.777   2.067 -1.3094  0.0136 -0.2503
  125MOL0     H16466  -3.016   2.496   2.269  2.2323 -0.5561  1.2735
  125MOL0     H16467  -2.942   2.432   2.136  2.0996  1.9101  2.6709
  125MOL0     H16468  -3.144   2.662   2.115 -1.5826  0.8039 -3.6203
  125MOL0     H16469  -3.182   2.485   2.113  2.3841 -2.5406 -1.3728
  125MOL0     H16470  -3.171   2.661   1.907 -0.0563  0.8664  2.4768
  125MOL0     H16471  -3.169   2.486   1.894 -2.6476  1.2383 -1.3077
  125MOL0     H16472  -2.907   2.634   1.895  2.1380 -1.4635  1.2878
  125MOL0     H16473  -2.908   2.471   1.884  2.3779  1.6679 -1.7298
  125MOL0     H16474  -2.898   2.581   1.665  0.4702 -1.0444  0.4903
  125MOL0     H16475  -3.061   2.636   1.684 -0.4896 -0.7884 -1.4236
  125MOL0     H16476  -3.152   2.403   1.685 -0.9004 -3.7985 -1.0255
  125MOL0     H16477  -2.990   2.333   1.684 -0.6890 -0.4528  0.2126
  125MOL0     H16478  -3.115   2.519   1.471 -0.8207 -1.7568  0.3704
  125MOL0     H16479  -2.961   2.449   1.454 -1.6288  2.7793 -2.0072
  125MOL0     H16480  -3.234   2.317   1.455 -1.5462  0.1837 -2.9334
  125MOL0     H16481  -3.086   2.225   1.451 -0.2209  0.2466  1.3465
  125MOL0     H16482  -2.797   2.439   2.323 -0.4608 -0.4582  0.0659
  125MOL0     H16483  -2.552   2.396   2.373  0.2273  0.6929 -0.7256
  125MOL0     H16484  -2.048   2.759   2.357 -1.6937  0.4728 -2.0650
  125MOL0     H16485  -1.822   2.666   2.420 -0.5124 -0.8825  0.3202
  125MOL0     H16486  -0.102   2.744   1.912  1.1267  2.7950  1.8443
  125MOL0     H16487   0.125   2.734   1.889 -3.5731  1.4782  0.0142
  125MOL0     H16488   0.539   2.493   2.119 -1.6268  1.9927  3.1485
  125MOL0     H16489   0.778   2.518   2.179 -1.8917 -1.1509 -0.4677
  125MOL0     H16490   0.988   2.574   2.262  1.2173 -0.0681  1.7512
  125MOL0     H16491   0.884   2.675   2.349 -1.7902 -0.3198 -1.8978
  125MOL0     H16492   1.049   2.848   2.386  0.7903  0.0785 -2.1331
  125MOL0     H16493   1.107   2.697   2.444 -0.5657 -1.4308 -0.2429
  125MOL0     H16494   1.261   2.843   2.301 -2.0051  0.8903  1.1046
  125MOL0     H16495   1.157   2.820   2.156 -1.2175 -3.4002 -1.5547
  125MOL0     H16496   1.252   2.571   2.302  0.5444 -1.1216 -0.6807
  125MOL0     H16497   1.211   2.592   2.125 -2.1173 -0.8655  0.8514
  125MOL0     H16498   1.627   2.708   2.177  0.3570 -1.1047  2.0780
  125MOL0     H16499   0.762   2.911   1.990 -2.0174  0.6853 -0.2886
  125MOL0     H16500   0.552   2.876   1.926  0.0447  0.9615  1.8306
  126MOL0     O16501   1.647   5.140   8.356 -0.2737 -0.1248 -0.0763
  126MOL0     C16502   1.584   5.073   8.435 -0.0391  0.7430  0.3512
  126MOL0     O16503   1.608   5.062   8.561 -0.4418  1.1315  0.6678
  126MOL0     C16504   1.705   5.137   8.623 -0.1718 -0.0464 -1.1177
  126MOL0     C16505   1.671   5.203   8.737  0.0734  0.2556 -0.8159
  126MOL0     C16506   1.757   5.295   8.798  0.4315 -0.5963 -0.5794
  126MOL0     C16507   1.873   5.320   8.733 -0.5580 -0.0079  0.1817
  126MOL0     O16508   1.956   5.407   8.796 -1.0312 -0.5817  0.0107
  126MOL0     C16509   2.057   5.358   8.884  0.3500 -0.3583  0.3869
  126MOL0     C16510   1.987   5.344   9.026  0.2547  0.6082 -0.1293
  126MOL0     C16511   2.100   5.330   9.126 -0.2222 -0.1523 -0.0838
  126MOL0     C16512   2.070   5.292   9.268  0.3702  0.5031 -0.5897
  126MOL0     C16513   1.992   5.407   9.338  0.5428  0.6082 -0.2127
  126MOL0     C16514   2.060   5.543   9.357 -0.3383  0.1939 -0.2990
  126MOL0     C16515   1.960   5.641   9.428  0.4779 -0.1258  0.6783
  126MOL0     C16516   2.039   5.771   9.474  1.2653  0.1964  0.5273
  126MOL0     N16517   1.941   5.879   9.500  0.3880 -0.3732  0.4711
  126MOL0     C16518   1.828   5.926   9.424 -0.5616 -0.3184 -0.8613
  126MOL0     C16519   1.765   6.015   9.509 -0.6304  0.8262  0.8346
  126MOL0     C16520   1.644   6.088   9.466 -0.0533  0.4793  0.1064
  126MOL0     C16521   1.545   6.066   9.577 -0.2344 -0.4796  0.2086
  126MOL0     C16522   1.395   6.071   9.530  0.7861  0.5078 -0.2270
  126MOL0     C16523   1.294   6.071   9.647  0.7880  0.2005  0.8452
  126MOL0     O16524   1.161   6.058   9.586 -0.4916 -0.3333 -0.6073
  126MOL0     C16525   1.054   6.108   9.655  0.3153  0.0514 -0.4031
  126MOL0     C16526   1.054   6.144   9.789  0.6433 -0.2914  0.7501
  126MOL0     C16527   0.932   6.178   9.852  0.7048 -0.3194 -0.1053
  126MOL0     C16528   0.815   6.157   9.794  0.9090  0.1998 -0.6887
  126MOL0     C16529   0.686   6.174   9.868 -0.6625 -0.2853  0.3375
  126MOL0     O16530   0.583   6.180   9.783 -0.2126  0.7960 -0.5678
  126MOL0     C16531   0.462   6.232   9.826 -0.7371 -0.1162  0.1445
  126MOL0     C16532   0.374   6.164   9.915 -0.8301 -0.0235 -0.0307
  126MOL0     C16533   0.257   6.227   9.959  0.3393 -0.3976 -0.4404
  126MOL0     C16534   0.218   6.359   9.922  0.3237  1.1514  0.5780
  126MOL0     O16535   0.112   6.428   9.978  0.2581 -0.0791  0.2691
  126MOL0     C16536   0.008   6.353  10.042 -0.0021 -0.0527  0.5879
  126MOL0     C16537  -0.129   6.418  10.055 -0.6279  0.0172  0.1218
  126MOL0     C16538  -0.208   6.377  10.178  0.1284 -0.6993  0.5705
  126MOL0     C16539  -0.343   6.453  10.193  0.7623  0.8803 -0.3969
  126MOL0     C16540  -0.415   6.397  10.317 -0.3835  0.0082  0.2755
  126MOL0     C16541  -0.552   6.468  10.340  0.3000 -0.0181  0.3349
  126MOL0     C16542  -0.640   6.394  10.440  0.4113 -0.0269 -0.7657
  126MOL0     C16543  -0.782   6.446  10.463  0.2004 -0.1577 -1.9410
  126MOL0    Cl16544  -0.862   6.468  10.308 -0.0840  0.4748  0.3591
  126MOL0     C16545   0.300   6.415   9.832  0.0505 -0.4935 -0.2585
  126MOL0     C16546   0.422   6.364   9.793  0.6939  0.2296  0.1710
  126MOL0     O16547   0.683   6.196   9.987  0.0294  0.3919  0.0587
  126MOL0     C16548   0.812   6.121   9.663 -0.6134  0.0822 -0.0942
  126MOL0     C16549   0.930   6.108   9.594 -0.7622  0.5045 -0.8106
  126MOL0     N16550   1.842   6.021   9.626  0.3968 -0.2683  0.2539
  126MOL0     N16551   1.934   5.937   9.621  0.5066 -0.0575 -0.3869
  126MOL0     C16552   1.926   5.232   8.624 -0.1051 -0.9457  0.8629
  126MOL0     C16553   1.830   5.150   8.568 -0.0314  0.4106  0.3796
  126MOL0     C16554   1.476   4.993   8.372 -0.0650 -0.5069 -1.1974
  126MOL0     C16555   1.410   5.028   8.260  0.2708 -0.1009 -0.8376
  126MOL0     C16556   1.305   4.948   8.203  0.3187 -0.5476  0.7902
  126MOL0     C16557   1.280   4.825   8.264 -0.2233 -0.2537  0.2374
  126MOL0     O16558   1.201   4.726   8.209 -0.0763  0.0627  0.1615
  126MOL0     C16559   1.075   4.781   8.156 -0.0627  0.0235 -1.2782
  126MOL0     C16560   0.983   4.656   8.155 -0.4039 -0.1976 -0.0949
  126MOL0     C16561   0.862   4.671   8.055 -0.8153 -0.0058 -0.2257
  126MOL0     C16562   0.762   4.788   8.097  0.1258  0.1885  0.3005
  126MOL0     C16563   0.679   4.743   8.205  0.3979  0.7150 -0.5088
  126MOL0     C16564   0.586   4.692   8.257  0.0931  1.6514 -0.2953
  126MOL0     C16565   1.348   4.787   8.379  0.7060  1.3051 -1.1696
  126MOL0     C16566   1.438   4.871   8.436  0.6321 -0.6088  0.4713
  126MOL0     H16567   1.577   5.170   8.781  0.5479  1.8572  1.5297
  126MOL0     H16568   1.726   5.343   8.890  0.5309 -1.3012 -0.1724
  126MOL0     H16569   2.146   5.421   8.884  1.3123 -1.6735  0.6567
  126MOL0     H16570   2.106   5.267   8.846  0.5698 -0.5763  1.1749
  126MOL0     H16571   1.916   5.262   9.015  0.5258  0.2750  0.5726
  126MOL0     H16572   1.929   5.436   9.042  1.0800  0.9398  1.1003
  126MOL0     H16573   2.160   5.422   9.126  0.6156 -0.6669 -0.9380
  126MOL0     H16574   2.162   5.248   9.089  1.6826  0.2474  2.0268
  126MOL0     H16575   2.005   5.204   9.268  0.0629  0.6666 -2.7697
  126MOL0     H16576   2.154   5.264   9.332 -2.3377 -1.9574  2.2295
  126MOL0     H16577   1.970   5.363   9.436  1.2560  0.8100  0.0449
  126MOL0     H16578   1.902   5.430   9.281 -0.5515 -3.0376 -0.1979
  126MOL0     H16579   2.099   5.590   9.265  1.1772 -1.8039 -0.7477
  126MOL0     H16580   2.148   5.535   9.422 -0.2608  3.0273  0.0681
  126MOL0     H16581   1.884   5.667   9.353  2.6448 -1.7951 -2.3012
  126MOL0     H16582   1.915   5.603   9.520  1.1207 -0.1576  0.9804
  126MOL0     H16583   2.113   5.809   9.403 -1.0109  2.7728 -0.6691
  126MOL0     H16584   2.093   5.741   9.564 -0.9300 -2.3232  1.1386
  126MOL0     H16585   1.794   5.889   9.328 -0.9308 -4.2670  0.6199
  126MOL0     H16586   1.616   6.047   9.368 -0.0682  2.4604 -0.7739
  126MOL0     H16587   1.666   6.194   9.451  0.6681  0.2202 -0.8216
  126MOL0     H16588   1.557   6.139   9.658 -0.1810  0.3515 -0.5370
  126MOL0     H16589   1.557   5.975   9.637 -0.5101  0.8973  2.4536
  126MOL0     H16590   1.381   6.150   9.456  2.0129 -0.0360 -1.0537
  126MOL0     H16591   1.376   5.986   9.464  0.8684  1.9082 -2.1433
  126MOL0     H16592   1.299   6.170   9.694  0.9398 -0.0331  1.3263
  126MOL0     H16593   1.299   5.991   9.721 -0.6618  0.3322  1.1085
  126MOL0     H16594   1.137   6.141   9.860  0.5688 -1.1087  0.8216
  126MOL0     H16595   0.939   6.207   9.956 -0.7401  1.7818 -0.5474
  126MOL0     H16596   0.398   6.068   9.960 -4.1905 -0.9497  0.0101
  126MOL0     H16597   0.201   6.179  10.038 -1.5901 -1.2882 -2.2574
  126MOL0     H16598   0.035   6.324  10.144 -0.1955 -1.0976  0.3448
  126MOL0     H16599  -0.009   6.262   9.984  1.7284  0.5262 -0.9238
  126MOL0     H16600  -0.180   6.400   9.960 -0.6472 -3.2039  0.6474
  126MOL0     H16601  -0.104   6.524  10.066 -2.3354  0.3539  1.2117
  126MOL0     H16602  -0.143   6.398  10.263 -0.6836 -1.1807  1.3337
  126MOL0     H16603  -0.210   6.267  10.174  0.8122 -0.6963 -1.7030
  126MOL0     H16604  -0.331   6.562  10.204  3.1476  0.4944  1.5153
  126MOL0     H16605  -0.407   6.444  10.104  2.1527  1.8637 -1.5502
  126MOL0     H16606  -0.345   6.401  10.402  0.8163 -0.0616 -0.6817
  126MOL0     H16607  -0.448   6.296  10.292 -0.2522  0.1531 -0.5013
  126MOL0     H16608  -0.593   6.466  10.238  0.0955 -2.3201  0.4159
  126MOL0     H16609  -0.533   6.573  10.363 -1.4106 -0.0042  1.9055
  126MOL0     H16610  -0.646   6.293  10.400  1.5956 -0.8724  1.0624
  126MOL0     H16611  -0.587   6.401  10.536 -1.9271  0.6323  0.5754
  126MOL0     H16612  -0.767   6.540  10.518 -2.6933 -1.4513  1.4820
  126MOL0     H16613  -0.840   6.372  10.520  0.8109 -0.7011 -2.0175
  126MOL0     H16614   0.264   6.515   9.808 -0.9148 -0.3337  1.6125
  126MOL0     H16615   0.482   6.419   9.721 -0.4369  0.0186 -0.9649
  126MOL0     H16616   0.719   6.110   9.608  0.5479  3.5103 -3.1121
  126MOL0     H16617   0.930   6.083   9.489  1.7321  0.2918 -0.8173
  126MOL0     H16618   2.025   5.238   8.580 -0.4438 -1.5213 -0.0180
  126MOL0     H16619   1.865   5.086   8.487  2.4627  1.7680  0.2810
  126MOL0     H16620   1.438   5.128   8.229  2.2430  0.4435  2.2433
  126MOL0     H16621   1.266   4.989   8.110  1.6259 -0.4050  0.2978
  126MOL0     H16622   1.094   4.809   8.052  0.2472 -1.4819 -1.6553
  126MOL0     H16623   1.032   4.861   8.217  0.4733 -1.2652  0.8976
  126MOL0     H16624   1.041   4.572   8.116 -3.0109 -1.1227 -2.2593
  126MOL0     H16625   0.945   4.642   8.257 -5.7259 -1.9812 -2.0143
  126MOL0     H16626   0.817   4.571   8.053  2.1158 -1.4246 -2.2256
  126MOL0     H16627   0.913   4.701   7.964  2.2126  0.4882  1.5075
  126MOL0     H16628   0.820   4.876   8.128  0.3780  0.3599 -0.6103
  126MOL0     H16629   0.696   4.817   8.015 -1.4262 -0.2859  1.3589
  126MOL0     H16630   0.507   4.643   8.309  1.1901  0.0331 -0.0733
  126MOL0     H16631   1.327   4.691   8.427 -2.0824  3.8500  3.4844
  126MOL0     H16632   1.472   4.846   8.536  0.7547 -0.1887  0.5376
  127MOL0     O16633   3.438   0.796   3.272  0.0600 -0.2654 -0.3199
  127MOL0     C16634   3.456   0.752   3.160  1.2727 -0.9828 -0.1406
  127MOL0     O16635   3.570   0.711   3.106 -0.6107  0.2518  0.2270
  127MOL0     C16636   3.675   0.701   3.186 -0.3349 -0.3784  0.1934
  127MOL0     C16637   3.709   0.574   3.239  0.1897  0.1734 -0.3085
  127MOL0     C16638   3.798   0.564   3.339 -0.7942  0.2953 -0.1765
  127MOL0     C16639   3.875   0.677   3.375  0.3028 -0.0080  0.2955
  127MOL0     O16640   3.983   0.676   3.456 -0.1499  0.2499 -0.1030
  127MOL0     C16641   4.066   0.565   3.455 -0.3378  0.4372 -0.1570
  127MOL0     C16642   4.163   0.597   3.569 -0.3657  0.3194  0.1232
  127MOL0     C16643   4.275   0.486   3.583  0.1570 -0.3701 -0.0622
  127MOL0     C16644   4.210   0.349   3.603 -0.2169 -0.0165  0.0829
  127MOL0     C16645   4.319   0.254   3.653  0.4135  0.2302  0.1083
  127MOL0     C16646   4.259   0.119   3.686 -0.5727  0.8174 -1.1732
  127MOL0     C16647   4.249   0.096   3.843  0.5370 -0.2925 -0.5473
  127MOL0     C16648   4.155   0.201   3.918 -0.8996 -0.8271 -0.2157
  127MOL0     N16649   4.017   0.182   3.863 -0.4446  0.2316  0.1969
  127MOL0     C16650   3.918   0.275   3.853 -0.5774 -0.8134  0.0133
  127MOL0     C16651   3.803   0.202   3.840 -0.4742 -0.6674 -0.6685
  127MOL0     C16652   3.662   0.251   3.831 -0.4697  0.6095 -0.3437
  127MOL0     C16653   3.628   0.286   3.682 -1.0169  0.1524 -0.4719
  127MOL0     C16654   3.485   0.320   3.653 -0.5507  0.5113 -0.6060
  127MOL0     C16655   3.477   0.376   3.512  0.4038 -0.9329  0.0056
  127MOL0     O16656   3.399   0.491   3.495  0.0859  0.6986 -0.3382
  127MOL0     C16657   3.273   0.495   3.540 -0.0284 -0.4778 -0.2222
  127MOL0     C16658   3.187   0.388   3.570  0.0878  0.2458 -0.4194
  127MOL0     C16659   3.051   0.414   3.594  0.2617 -0.4081 -0.1486
  127MOL0     C16660   3.006   0.546   3.617  0.3608 -0.2424 -0.3273
  127MOL0     C16661   2.870   0.585   3.664  0.3877 -0.4116 -0.0560
  127MOL0     O16662   2.812   0.480   3.743  0.8004  0.1294 -0.0392
  127MOL0     C16663   2.679   0.507   3.774  0.2624 -0.0855 -0.1333
  127MOL0     C16664   2.649   0.556   3.897 -0.3479 -0.3339 -0.9414
  127MOL0     C16665   2.516   0.588   3.915  0.0580 -0.0254 -0.5268
  127MOL0     C16666   2.421   0.575   3.810  0.1294 -0.0332 -0.4413
  127MOL0     O16667   2.291   0.623   3.817 -0.7747  0.2554  0.2113
  127MOL0     C16668   2.256   0.717   3.916 -0.4881  0.4020 -0.1213
  127MOL0     C16669   2.107   0.720   3.922 -0.2228 -0.3605 -0.4367
  127MOL0     C16670   2.054   0.773   3.792 -0.0161  0.6600 -0.6934
  127MOL0     C16671   1.903   0.752   3.787  0.0773  0.0337 -0.4312
  127MOL0     C16672   1.845   0.769   3.651 -0.6543  0.3049 -0.1549
  127MOL0     C16673   1.691   0.753   3.671  0.3393 -0.4689 -0.4321
  127MOL0     C16674   1.610   0.784   3.539  0.6923 -0.7871 -0.4242
  127MOL0     C16675   1.459   0.775   3.554 -0.6366  0.1960  0.3884
  127MOL0    Cl16676   1.417   0.915   3.657  0.3472  0.5986 -0.3446
  127MOL0     C16677   2.459   0.522   3.688  0.4199  0.3240  0.0720
  127MOL0     C16678   2.592   0.486   3.667  0.1315 -0.1929 -0.1851
  127MOL0     O16679   2.818   0.697   3.625 -0.3233 -0.1340 -0.2448
  127MOL0     C16680   3.098   0.655   3.587  0.1266 -0.3202  0.1309
  127MOL0     C16681   3.226   0.623   3.549  0.7016  0.1500  0.7880
  127MOL0     N16682   3.836   0.066   3.849  0.0268  0.6801 -0.1317
  127MOL0     N16683   3.963   0.058   3.850  0.3373 -0.6730  0.2061
  127MOL0     C16684   3.852   0.804   3.321 -0.8401 -0.2028  0.4882
  127MOL0     C16685   3.751   0.816   3.224 -0.7640  0.3599 -0.4430
  127MOL0     C16686   3.327   0.723   3.073  1.1868  0.3162 -0.4557
  127MOL0     C16687   3.192   0.719   3.119 -0.4080  0.0867  0.3773
  127MOL0     C16688   3.083   0.699   3.039  0.1225 -0.1681  0.7493
  127MOL0     C16689   3.100   0.687   2.900 -0.8842 -0.9216  0.0445
  127MOL0     O16690   2.988   0.691   2.817 -0.3978  0.3099  0.8245
  127MOL0     C16691   2.979   0.625   2.679  0.3873  0.4017  0.2931
  127MOL0     C16692   2.960   0.720   2.562  0.6379 -0.2845  0.2037
  127MOL0     C16693   3.084   0.802   2.538  0.0964  0.0996 -0.1415
  127MOL0     C16694   3.203   0.726   2.476 -0.4705 -0.1194  0.1884
  127MOL0     C16695   3.197   0.754   2.333 -0.1258  0.0097  0.7806
  127MOL0     C16696   3.177   0.771   2.215 -0.9530 -0.0954  0.5036
  127MOL0     C16697   3.230   0.692   2.853 -0.1773  0.2961  0.6853
  127MOL0     C16698   3.339   0.702   2.937  0.9985  0.0581  0.2403
  127MOL0     H16699   3.656   0.481   3.220 -2.2210  1.3753  0.1934
  127MOL0     H16700   3.824   0.468   3.383 -0.1464  0.1030 -0.9459
  127MOL0     H16701   4.129   0.552   3.366  0.5605  3.0672  0.0006
  127MOL0     H16702   4.007   0.474   3.470  0.2980  0.2607  1.4660
  127MOL0     H16703   4.100   0.584   3.658 -0.1187 -5.3060 -0.2074
  127MOL0     H16704   4.205   0.697   3.556  0.9376 -0.4720 -2.4731
  127MOL0     H16705   4.330   0.508   3.675 -1.2703  0.8643  0.5456
  127MOL0     H16706   4.342   0.470   3.498  0.1234  0.7696 -0.3198
  127MOL0     H16707   4.124   0.356   3.670 -0.6191  0.3783 -0.4683
  127MOL0     H16708   4.172   0.318   3.505 -0.0083  1.6145 -0.5373
  127MOL0     H16709   4.381   0.301   3.730  0.9205 -5.6831  3.9671
  127MOL0     H16710   4.384   0.233   3.568  0.3581  0.7570 -0.0736
  127MOL0     H16711   4.309   0.036   3.636 -0.8362 -1.3119  1.7716
  127MOL0     H16712   4.157   0.108   3.648 -0.4195 -1.0522 -1.1169
  127MOL0     H16713   4.212  -0.004   3.868  2.0865 -0.3971  1.6094
  127MOL0     H16714   4.345   0.094   3.896 -0.8199 -1.2389  2.0173
  127MOL0     H16715   4.186   0.303   3.894 -2.3501 -0.3641 -0.1597
  127MOL0     H16716   4.143   0.189   4.026 -2.2734 -0.1799 -0.2842
  127MOL0     H16717   3.923   0.383   3.862  1.0446 -0.9694  1.5654
  127MOL0     H16718   3.645   0.336   3.898 -2.4904 -0.8023  1.0425
  127MOL0     H16719   3.605   0.164   3.862  2.6599 -1.3321  0.4338
  127MOL0     H16720   3.658   0.199   3.623 -0.0435 -0.0215  0.2390
  127MOL0     H16721   3.694   0.371   3.663 -1.2230  0.9736  2.0459
  127MOL0     H16722   3.424   0.230   3.669  1.0281 -0.3282  1.1408
  127MOL0     H16723   3.459   0.396   3.727 -0.1361 -0.3198  0.4156
  127MOL0     H16724   3.435   0.302   3.444 -2.2434 -1.5882  2.1881
  127MOL0     H16725   3.577   0.399   3.473  0.6943 -0.2518  1.0848
  127MOL0     H16726   3.226   0.289   3.548 -0.1345  0.0684 -0.0347
  127MOL0     H16727   2.970   0.342   3.604  1.7766 -2.1567  0.1866
  127MOL0     H16728   2.720   0.567   3.978 -0.5372  1.8212 -1.0152
  127MOL0     H16729   2.497   0.633   4.012 -2.4341 -0.5572 -0.7057
  127MOL0     H16730   2.297   0.818   3.899  0.2502  0.2985  0.9051
  127MOL0     H16731   2.305   0.702   4.013 -0.0816 -2.4266 -0.6846
  127MOL0     H16732   2.074   0.781   4.007 -1.4523  1.2654 -1.9893
  127MOL0     H16733   2.073   0.617   3.928  1.1285 -0.8247 -0.5870
  127MOL0     H16734   2.083   0.703   3.713  1.9122  0.7555 -0.1434
  127MOL0     H16735   2.085   0.878   3.782 -2.6637  1.6908  0.8229
  127MOL0     H16736   1.862   0.659   3.828  0.2524  0.2743  0.3077
  127MOL0     H16737   1.866   0.838   3.844 -0.1129 -0.8121  0.7778
  127MOL0     H16738   1.887   0.696   3.583 -2.3246 -0.1605 -0.7367
  127MOL0     H16739   1.858   0.873   3.620  0.7592  1.4513  3.6642
  127MOL0     H16740   1.662   0.826   3.747 -0.5286 -1.1554 -0.0865
  127MOL0     H16741   1.674   0.651   3.708  0.0162 -0.4145 -0.4249
  127MOL0     H16742   1.652   0.882   3.512  1.6622 -0.5226  1.8709
  127MOL0     H16743   1.640   0.718   3.456  0.8507 -0.3607 -0.7122
  127MOL0     H16744   1.424   0.681   3.600  0.3823 -0.8714 -0.9475
  127MOL0     H16745   1.412   0.781   3.456 -1.8993  2.6901  1.0606
  127MOL0     H16746   2.380   0.512   3.614 -1.2728 -1.9964  2.0425
  127MOL0     H16747   2.635   0.439   3.579  1.1183 -2.5697  1.4634
  127MOL0     H16748   3.098   0.763   3.597  1.6478 -0.4515  2.5735
  127MOL0     H16749   3.295   0.697   3.511  0.5913  0.0362  0.3590
  127MOL0     H16750   3.911   0.894   3.337 -0.7005 -0.0485 -0.7671
  127MOL0     H16751   3.723   0.910   3.179 -2.4894 -0.2079 -0.6443
  127MOL0     H16752   3.186   0.730   3.227 -0.3432 -0.1533  0.4053
  127MOL0     H16753   2.982   0.685   3.077 -0.8371 -0.3122 -1.6624
  127MOL0     H16754   2.900   0.551   2.689 -0.5781  1.1146 -1.5269
  127MOL0     H16755   3.067   0.561   2.668 -1.1031 -1.7398  0.4021
  127MOL0     H16756   2.950   0.668   2.466 -0.4827  1.8710 -0.9232
  127MOL0     H16757   2.866   0.773   2.577 -0.6732 -3.1226  3.2417
  127MOL0     H16758   3.118   0.841   2.634  3.5524  0.6904 -1.4616
  127MOL0     H16759   3.060   0.897   2.490 -2.1446  0.5994  1.7760
  127MOL0     H16760   3.304   0.753   2.509 -0.3272 -4.0538  3.8566
  127MOL0     H16761   3.195   0.619   2.499  0.7280 -0.0381  1.0985
  127MOL0     H16762   3.183   0.786   2.110 -1.9589  0.7657  0.5564
  127MOL0     H16763   3.241   0.697   2.746 -3.7029  0.1296  0.1925
  127MOL0     H16764   3.442   0.708   2.904  1.2443  4.0581  1.1184
  128MOL0     O16765   7.882   5.289   6.962 -0.1476 -0.3415  0.8115
  128MOL0     C16766   7.885   5.409   6.922 -0.3507  0.1714  0.0035
  128MOL0     O16767   7.792   5.502   6.948 -0.2083 -0.0127  0.8023
  128MOL0     C16768   7.660   5.464   6.965  0.6713 -0.4076  0.0187
  128MOL0     C16769   7.581   5.571   7.021  0.0646 -1.2079 -0.0225
  128MOL0     C16770   7.450   5.559   7.057  0.4605 -0.5537 -0.5310
  128MOL0     C16771   7.383   5.441   7.022 -0.1179  0.6979  0.6309
  128MOL0     O16772   7.246   5.420   7.031 -0.3198 -0.6011  0.2338
  128MOL0     C16773   7.163   5.524   7.074 -0.0394  1.7249 -0.3128
  128MOL0     C16774   7.012   5.481   7.067 -0.1547  0.0743 -0.8520
  128MOL0     C16775   6.920   5.608   7.078  1.0152 -0.1517  0.5391
  128MOL0     C16776   6.779   5.559   7.085 -0.0188  0.1311  0.6642
  128MOL0     C16777   6.680   5.662   7.132 -0.6623 -0.0517  0.6893
  128MOL0     C16778   6.637   5.767   7.028  0.3859 -0.4876  0.5366
  128MOL0     C16779   6.547   5.720   6.914  0.3063  0.7984 -0.2194
  128MOL0     C16780   6.501   5.843   6.830 -0.7724 -0.1308  0.3871
  128MOL0     N16781   6.418   5.798   6.719 -0.8606  0.4104 -0.2308
  128MOL0     C16782   6.285   5.764   6.738 -0.0446  0.8867  0.1193
  128MOL0     C16783   6.236   5.730   6.619  0.3838 -0.8922  0.2842
  128MOL0     C16784   6.093   5.704   6.613 -0.3247 -0.3890 -0.3241
  128MOL0     C16785   6.075   5.563   6.556 -0.2490 -0.3120 -0.3399
  128MOL0     C16786   5.932   5.521   6.571 -0.5407  0.1101  0.4340
  128MOL0     C16787   5.906   5.373   6.526 -0.4544 -0.6204  0.0862
  128MOL0     O16788   5.992   5.301   6.614 -0.5227  0.1098 -0.1049
  128MOL0     C16789   5.952   5.257   6.731 -0.0979 -0.6328  0.2261
  128MOL0     C16790   5.824   5.199   6.750 -0.1395 -0.0093 -0.4556
  128MOL0     C16791   5.775   5.183   6.883 -0.1185 -0.7411 -0.4544
  128MOL0     C16792   5.850   5.225   6.994 -0.0805  0.6515  0.1777
  128MOL0     C16793   5.798   5.206   7.131 -0.5120 -1.2782 -0.1420
  128MOL0     O16794   5.699   5.111   7.147  0.0211  0.2496 -0.4849
  128MOL0     C16795   5.672   5.072   7.271 -0.0586  0.4681  0.1913
  128MOL0     C16796   5.538   5.037   7.293 -1.1750  0.6451 -0.2060
  128MOL0     C16797   5.509   4.979   7.416 -0.0060 -0.5230 -0.2625
  128MOL0     C16798   5.598   4.949   7.516 -0.0482  0.1392 -0.0563
  128MOL0     O16799   5.572   4.879   7.633  0.2075 -0.4791  0.2129
  128MOL0     C16800   5.466   4.948   7.709  0.1837  0.3028  0.1198
  128MOL0     C16801   5.517   5.082   7.753  0.2324 -0.7189  0.1512
  128MOL0     C16802   5.404   5.156   7.830 -0.7924  0.0234 -0.9709
  128MOL0     C16803   5.305   5.234   7.751  0.0816  0.2281  0.3468
  128MOL0     C16804   5.169   5.228   7.813 -0.4680  0.0913  0.2952
  128MOL0     C16805   5.108   5.089   7.816  0.5498  1.1702  0.7211
  128MOL0     C16806   5.020   5.062   7.935  1.3396  0.4382 -0.3102
  128MOL0     C16807   4.890   5.128   7.933 -0.4728  0.1552  0.9137
  128MOL0    Cl16808   4.780   5.075   8.052 -0.3027 -0.1470 -0.0069
  128MOL0     C16809   5.733   4.973   7.488 -0.2945  0.2300 -0.1749
  128MOL0     C16810   5.774   5.032   7.366  0.4520  0.1486 -0.3083
  128MOL0     O16811   5.850   5.272   7.221  0.1805 -0.2672 -0.0902
  128MOL0     C16812   5.979   5.281   6.970  0.8736 -0.1896 -0.3237
  128MOL0     C16813   6.029   5.289   6.840  0.2920  0.9249  0.2522
  128MOL0     N16814   6.342   5.747   6.532  0.3753 -0.2218 -0.3788
  128MOL0     N16815   6.447   5.774   6.594 -0.0569  0.2290 -0.0899
  128MOL0     C16816   7.460   5.333   6.971  0.6226 -0.1082 -0.6431
  128MOL0     C16817   7.595   5.341   6.941  0.6584 -0.9232 -0.6049
  128MOL0     C16818   8.005   5.450   6.853 -0.4449 -0.0550  0.1044
  128MOL0     C16819   8.005   5.568   6.780  1.2154 -1.0728 -0.5414
  128MOL0     C16820   8.125   5.615   6.721  0.3303  0.0040 -0.0548
  128MOL0     C16821   8.246   5.546   6.747 -0.6331 -0.4547 -0.0934
  128MOL0     O16822   8.358   5.606   6.691 -0.8384 -0.1575 -0.3092
  128MOL0     C16823   8.496   5.597   6.748  0.5501  0.0784 -0.0531
  128MOL0     C16824   8.572   5.492   6.674 -0.5220 -1.6837 -0.3101
  128MOL0     C16825   8.592   5.525   6.522 -0.5977 -0.4455  0.5588
  128MOL0     C16826   8.628   5.685   6.505  0.7049 -0.1188 -0.2699
  128MOL0     C16827   8.687   5.710   6.373 -0.5484 -0.8966 -0.0469
  128MOL0     C16828   8.724   5.761   6.269  0.5229  0.2601  0.3706
  128MOL0     C16829   8.240   5.438   6.831 -0.8991 -0.5737 -0.5882
  128MOL0     C16830   8.122   5.380   6.874  0.6746  0.3386  0.7106
  128MOL0     H16831   7.632   5.665   7.040 -0.0606 -0.8231 -1.4866
  128MOL0     H16832   7.397   5.649   7.088 -0.1350 -0.5763 -1.4421
  128MOL0     H16833   7.184   5.610   7.009  2.6665  1.7146  0.4623
  128MOL0     H16834   7.189   5.548   7.177 -1.6668 -3.9868  1.7900
  128MOL0     H16835   6.989   5.415   7.152  2.0780  2.0549  1.4327
  128MOL0     H16836   6.987   5.422   6.978 -1.3542 -0.5674 -0.1164
  128MOL0     H16837   6.934   5.667   6.986  3.1266 -0.0061  0.8980
  128MOL0     H16838   6.945   5.664   7.168  0.1258  1.1197  0.0259
  128MOL0     H16839   6.746   5.525   6.987  4.0958 -2.2581 -0.0973
  128MOL0     H16840   6.769   5.479   7.159 -0.0765 -0.1712  0.3288
  128MOL0     H16841   6.728   5.698   7.223 -3.0809 -1.1467  2.5013
  128MOL0     H16842   6.591   5.608   7.163 -1.2783  1.3954  1.5324
  128MOL0     H16843   6.725   5.809   6.980 -0.0873 -2.1834 -1.9558
  128MOL0     H16844   6.585   5.845   7.086  0.4483 -1.5800  2.1376
  128MOL0     H16845   6.598   5.651   6.845  0.6940  0.8292  0.0301
  128MOL0     H16846   6.461   5.666   6.955  0.5522  0.0782 -0.6399
  128MOL0     H16847   6.583   5.907   6.795  1.1249 -1.8422  1.4461
  128MOL0     H16848   6.436   5.911   6.887  0.1501  0.0534  1.2691
  128MOL0     H16849   6.227   5.760   6.830  0.8897  1.0723  0.7288
  128MOL0     H16850   6.041   5.775   6.549 -1.9398 -1.1235  0.1058
  128MOL0     H16851   6.042   5.706   6.710  0.7698  1.2680  0.2613
  128MOL0     H16852   6.143   5.488   6.595 -0.0195  1.8149  3.8334
  128MOL0     H16853   6.095   5.576   6.449  1.9608  1.1648  0.1901
  128MOL0     H16854   5.902   5.523   6.676 -0.0100 -3.8391  0.8363
  128MOL0     H16855   5.875   5.589   6.508 -0.1321 -0.5609 -0.6909
  128MOL0     H16856   5.939   5.376   6.422  1.8894  0.7464  0.7995
  128MOL0     H16857   5.798   5.361   6.540 -0.1496 -0.8923  2.7626
  128MOL0     H16858   5.766   5.154   6.669 -0.7877 -0.5120  0.2701
  128MOL0     H16859   5.672   5.151   6.883  0.4629 -2.7638  1.1526
  128MOL0     H16860   5.461   5.059   7.220  1.4683 -0.3987 -3.5491
  128MOL0     H16861   5.406   4.953   7.442  0.1857  0.4987  1.7571
  128MOL0     H16862   5.443   4.890   7.799 -1.5244 -1.1061 -1.1508
  128MOL0     H16863   5.371   4.953   7.655  1.1587  2.7163 -1.5483
  128MOL0     H16864   5.545   5.148   7.671 -0.3140  2.1090  2.1063
  128MOL0     H16865   5.606   5.069   7.816 -0.0523  1.1369  1.0159
  128MOL0     H16866   5.443   5.230   7.900  0.1743 -1.8504  0.5751
  128MOL0     H16867   5.354   5.086   7.897  0.2765  0.2573  0.0964
  128MOL0     H16868   5.335   5.338   7.739  0.0738  0.1510 -0.4068
  128MOL0     H16869   5.306   5.187   7.651  0.8826 -0.8433  0.8333
  128MOL0     H16870   5.107   5.285   7.743  1.9691  3.3420  0.5752
  128MOL0     H16871   5.168   5.269   7.914 -0.1884 -0.2621  0.4411
  128MOL0     H16872   5.187   5.014   7.824  3.3842  4.0492  2.2543
  128MOL0     H16873   5.066   5.063   7.719  0.1680 -2.1785  1.6595
  128MOL0     H16874   4.999   4.954   7.937 -0.1279  0.7115  0.5398
  128MOL0     H16875   5.066   5.082   8.032 -1.3167  2.6841  0.6078
  128MOL0     H16876   4.842   5.115   7.835  1.2642 -0.0545  0.0410
  128MOL0     H16877   4.914   5.234   7.938 -2.4477  0.6067  4.5252
  128MOL0     H16878   5.816   4.929   7.542  2.5408  1.5291 -3.1170
  128MOL0     H16879   5.875   5.065   7.344 -0.0674  1.1386 -1.2871
  128MOL0     H16880   6.040   5.316   7.052  0.5874 -0.5800  0.0573
  128MOL0     H16881   6.122   5.344   6.848 -0.2937  1.8909  0.5995
  128MOL0     H16882   7.417   5.234   6.959  0.6603 -0.6716  2.9437
  128MOL0     H16883   7.647   5.254   6.902  2.0433 -0.2301 -0.3636
  128MOL0     H16884   7.916   5.631   6.777  3.3709  2.2092 -2.1297
  128MOL0     H16885   8.128   5.702   6.656  2.3298  1.4495  1.7919
  128MOL0     H16886   8.485   5.568   6.852  1.1834 -0.4677 -0.1311
  128MOL0     H16887   8.560   5.686   6.747  2.0440 -0.9387  0.5997
  128MOL0     H16888   8.671   5.479   6.719 -0.5518 -2.3203 -0.4191
  128MOL0     H16889   8.520   5.397   6.688  1.5761 -2.5975  2.1336
  128MOL0     H16890   8.502   5.507   6.463 -1.2550  1.0408  1.0559
  128MOL0     H16891   8.671   5.457   6.488 -1.1325 -0.1453 -1.4451
  128MOL0     H16892   8.539   5.745   6.524 -0.1556  0.1302 -4.2104
  128MOL0     H16893   8.703   5.714   6.579  1.0700 -1.7903  0.0595
  128MOL0     H16894   8.752   5.812   6.179 -1.2459 -0.0178 -0.3625
  128MOL0     H16895   8.335   5.393   6.861  0.3477  1.5856 -1.1006
  128MOL0     H16896   8.121   5.287   6.930 -1.2490 -0.5154 -0.6371
  129MOL0     O16897   4.110  11.247   2.355  0.2137  0.3383 -0.2526
  129MOL0     C16898   4.144  11.272   2.468 -0.2474  0.3245  0.4223
  129MOL0     O16899   4.060  11.298   2.572  0.8056  0.1822  0.4575
  129MOL0     C16900   3.926  11.255   2.557 -1.0389  0.6793  0.2094
  129MOL0     C16901   3.836  11.357   2.535 -0.1738  0.6303  0.8955
  129MOL0     C16902   3.703  11.318   2.506  0.5135 -0.1232 -0.6174
  129MOL0     C16903   3.660  11.184   2.517 -0.2882 -0.1746  0.4093
  129MOL0     O16904   3.527  11.151   2.516 -0.0159  0.3419 -0.2452
  129MOL0     C16905   3.447  11.201   2.408  0.5478  1.0818  0.0508
  129MOL0     C16906   3.327  11.105   2.386 -0.5192 -0.3039 -0.1760
  129MOL0     C16907   3.221  11.147   2.492 -0.1167  0.4072  0.1506
  129MOL0     C16908   3.105  11.051   2.517  0.3256  0.5222 -0.1787
  129MOL0     C16909   3.022  11.043   2.391  0.3154  0.0194 -0.7211
  129MOL0     C16910   2.907  10.935   2.411 -0.2862 -0.0811  0.4065
  129MOL0     C16911   2.837  10.912   2.272 -0.3412 -0.6497  0.0286
  129MOL0     C16912   2.747  10.785   2.282 -0.4738 -0.4119  0.1054
  129MOL0     N16913   2.615  10.815   2.351 -1.4264 -0.1610  0.4658
  129MOL0     C16914   2.525  10.898   2.299  0.5539 -0.8166 -0.7437
  129MOL0     C16915   2.444  10.912   2.415 -0.8167 -0.6243 -0.5975
  129MOL0     C16916   2.309  10.987   2.401 -0.4044  0.0664  0.5884
  129MOL0     C16917   2.196  10.900   2.335  0.0749 -0.6579  0.3639
  129MOL0     C16918   2.062  10.973   2.303  0.2880 -0.5592 -0.0403
  129MOL0     C16919   1.974  11.026   2.420 -0.2869  0.2621  0.1961
  129MOL0     O16920   1.901  10.917   2.496 -0.0076 -0.1960  0.4077
  129MOL0     C16921   1.795  10.949   2.562  0.4051 -0.5237 -0.3367
  129MOL0     C16922   1.711  10.851   2.594 -0.2720 -0.3077 -0.5088
  129MOL0     C16923   1.592  10.868   2.670 -0.5781 -0.2643 -0.4845
  129MOL0     C16924   1.565  11.000   2.716 -0.3272 -0.2739  0.2425
  129MOL0     C16925   1.435  11.020   2.783 -0.0346  0.3435 -0.1071
  129MOL0     O16926   1.359  10.916   2.816  0.2063  0.3029  0.0076
  129MOL0     C16927   1.226  10.924   2.856  1.5191 -0.2548 -0.6159
  129MOL0     C16928   1.178  11.028   2.947 -0.6701  0.1908  0.6433
  129MOL0     C16929   1.054  11.009   3.004  0.7154  0.4244  0.5668
  129MOL0     C16930   0.969  10.900   2.977 -0.0112  0.1909 -0.3203
  129MOL0     O16931   0.839  10.879   3.033 -1.2360  0.2102  0.2348
  129MOL0     C16932   0.788  10.971   3.120 -0.7840  0.0709 -0.8667
  129MOL0     C16933   0.646  10.921   3.150  1.0511  0.1913  0.2037
  129MOL0     C16934   0.595  10.952   3.296  0.0760 -0.1888 -1.1009
  129MOL0     C16935   0.588  11.108   3.322 -0.3552 -0.5002  0.4098
  129MOL0     C16936   0.491  11.144   3.432 -0.4946  0.3529  0.2172
  129MOL0     C16937   0.516  11.077   3.567 -0.9570 -0.9347 -0.2033
  129MOL0     C16938   0.446  11.145   3.683  0.0420 -0.0617 -0.1456
  129MOL0     C16939   0.297  11.152   3.679  0.7023 -0.6381 -0.4169
  129MOL0    Cl16940   0.228  10.985   3.650 -0.0154  0.8657  0.2118
  129MOL0     C16941   1.011  10.806   2.883  0.3796 -0.0366 -0.6626
  129MOL0     C16942   1.142  10.821   2.825 -0.1620 -0.0754 -0.7763
  129MOL0     O16943   1.397  11.137   2.799 -0.5456 -0.2341 -0.1082
  129MOL0     C16944   1.653  11.104   2.689 -0.8160 -0.3321 -0.4552
  129MOL0     C16945   1.769  11.082   2.616 -0.2709  0.3408 -0.7620
  129MOL0     N16946   2.487  10.833   2.519 -1.1423  0.0766 -0.0636
  129MOL0     N16947   2.594  10.775   2.472  0.0884  0.0943  0.0742
  129MOL0     C16948   3.755  11.083   2.551 -0.1479  0.2082 -0.0567
  129MOL0     C16949   3.883  11.125   2.572  0.2671  0.9499 -0.4366
  129MOL0     C16950   4.289  11.268   2.487  0.2438  0.3031 -0.1376
  129MOL0     C16951   4.342  11.335   2.593 -0.6962  0.0287  0.0981
  129MOL0     C16952   4.483  11.350   2.609  0.1177  0.6350 -0.1268
  129MOL0     C16953   4.572  11.284   2.524  0.2116 -0.6260  0.2008
  129MOL0     O16954   4.705  11.273   2.538 -0.9733  0.5184  0.2578
  129MOL0     C16955   4.768  11.320   2.657 -0.1104 -0.1055 -0.2543
  129MOL0     C16956   4.910  11.255   2.651 -0.3338  0.0780 -0.6213
  129MOL0     C16957   4.999  11.319   2.764 -0.0500 -0.3397  0.2960
  129MOL0     C16958   5.124  11.249   2.792  0.2972 -0.3780  0.0330
  129MOL0     C16959   5.111  11.103   2.804  0.8405  0.3272 -0.3500
  129MOL0     C16960   5.107  10.980   2.827 -0.3475  0.0276  0.5102
  129MOL0     C16961   4.512  11.207   2.417  0.1417  0.3735 -0.7080
  129MOL0     C16962   4.371  11.202   2.403  0.0604  0.8355  0.3511
  129MOL0     H16963   3.873  11.459   2.536 -0.0290  0.5872  2.5621
  129MOL0     H16964   3.620  11.388   2.501 -0.5819 -0.9110  3.0248
  129MOL0     H16965   3.498  11.205   2.311 -0.9786  0.9093 -0.7937
  129MOL0     H16966   3.416  11.298   2.447  0.9780  0.2703  2.5308
  129MOL0     H16967   3.367  11.006   2.412  0.5627 -0.0576 -0.8301
  129MOL0     H16968   3.283  11.109   2.286 -2.2065  0.0671  0.5489
  129MOL0     H16969   3.181  11.246   2.467 -2.5717 -0.9846 -1.8696
  129MOL0     H16970   3.267  11.156   2.590 -1.2070  4.8635  0.4900
  129MOL0     H16971   3.143  10.950   2.538  1.8827  0.6439 -2.0694
  129MOL0     H16972   3.045  11.095   2.597  1.3487 -0.3532  1.1066
  129MOL0     H16973   3.080  11.000   2.309 -1.5386 -3.4279 -0.4087
  129MOL0     H16974   2.977  11.138   2.362  1.5876  0.8128 -0.1612
  129MOL0     H16975   2.831  10.969   2.482 -0.6170  1.6596 -0.7103
  129MOL0     H16976   2.937  10.837   2.449  4.9782  1.1214  0.1780
  129MOL0     H16977   2.790  11.003   2.233  1.7311 -0.1195 -1.3433
  129MOL0     H16978   2.905  10.883   2.192  2.1890  2.8451  0.6814
  129MOL0     H16979   2.805  10.705   2.328  2.7812 -0.0061 -2.8644
  129MOL0     H16980   2.720  10.741   2.186 -3.5507  1.7877 -0.1954
  129MOL0     H16981   2.505  10.956   2.209  0.5144 -0.6836 -0.6493
  129MOL0     H16982   2.321  11.081   2.347 -0.1533  0.6519  1.6205
  129MOL0     H16983   2.290  11.026   2.502 -1.2004  0.7939  0.1654
  129MOL0     H16984   2.174  10.812   2.397  1.2610  0.2628  2.1694
  129MOL0     H16985   2.249  10.869   2.245  3.2675 -1.0370  2.2298
  129MOL0     H16986   2.075  11.059   2.237 -1.0314  1.1128  1.7751
  129MOL0     H16987   2.000  10.901   2.248 -4.6170  4.5074 -2.1092
  129MOL0     H16988   1.893  11.085   2.378  0.3557  0.4163 -0.8484
  129MOL0     H16989   2.034  11.085   2.490 -0.5807 -1.5846  2.1335
  129MOL0     H16990   1.727  10.750   2.555 -0.5992 -0.4443 -0.2937
  129MOL0     H16991   1.523  10.786   2.685  1.0279 -1.8142 -1.2408
  129MOL0     H16992   1.236  11.113   2.981  1.6859 -0.6423 -1.0611
  129MOL0     H16993   1.017  11.077   3.081 -1.0762  1.1570 -0.8611
  129MOL0     H16994   0.775  11.066   3.067 -1.4071  0.5043  0.0385
  129MOL0     H16995   0.851  10.980   3.209 -0.4797 -0.8007 -0.9871
  129MOL0     H16996   0.642  10.812   3.145  3.7202 -0.0453  1.4932
  129MOL0     H16997   0.573  10.969   3.084 -0.2277  0.9739  2.1145
  129MOL0     H16998   0.659  10.909   3.374  1.9245  2.5454 -0.9714
  129MOL0     H16999   0.494  10.910   3.297 -0.7433  1.6743 -1.1703
  129MOL0     H17000   0.687  11.150   3.342  0.3563  0.9318 -4.8146
  129MOL0     H17001   0.549  11.160   3.235  2.3219  3.2831  1.2119
  129MOL0     H17002   0.395  11.108   3.395  0.2458 -1.2963 -0.1736
  129MOL0     H17003   0.491  11.254   3.432 -1.7865  0.4191  2.4217
  129MOL0     H17004   0.622  11.082   3.594 -0.9146  0.5388 -0.5804
  129MOL0     H17005   0.493  10.970   3.564  0.2874 -1.2689  0.8364
  129MOL0     H17006   0.476  11.096   3.776 -2.9077  1.8342  1.9673
  129MOL0     H17007   0.506  11.236   3.697  0.7574 -0.0773 -2.6173
  129MOL0     H17008   0.274  11.219   3.595 -0.4317  0.3685  0.6655
  129MOL0     H17009   0.252  11.193   3.770 -1.8624 -3.5220 -0.2078
  129MOL0     H17010   0.951  10.719   2.861 -0.0816 -0.1971  1.0955
  129MOL0     H17011   1.176  10.749   2.752  0.8078 -2.2022  1.6204
  129MOL0     H17012   1.633  11.200   2.738 -0.1491 -0.5083  0.1827
  129MOL0     H17013   1.841  11.162   2.606  4.5439 -3.2767  1.1798
  129MOL0     H17014   3.723  10.983   2.579  2.7521 -1.0966 -1.0932
  129MOL0     H17015   3.956  11.051   2.601  0.6872  1.3129 -0.5626
  129MOL0     H17016   4.283  11.388   2.667 -1.8551  0.1739 -0.9028
  129MOL0     H17017   4.527  11.396   2.697  1.1020 -1.4936  0.5632
  129MOL0     H17018   4.715  11.288   2.747  0.8435 -1.4269 -0.1287
  129MOL0     H17019   4.766  11.429   2.660  1.2251 -0.0733  0.3966
  129MOL0     H17020   4.893  11.149   2.674  2.4931  0.5172  5.2137
  129MOL0     H17021   4.946  11.265   2.548 -0.5352 -0.4364 -0.7492
  129MOL0     H17022   4.948  11.319   2.861 -0.8000  2.2835 -0.0193
  129MOL0     H17023   5.018  11.421   2.728  1.6697 -0.8821 -0.4559
  129MOL0     H17024   5.190  11.273   2.708 -0.0466  1.8830  0.3571
  129MOL0     H17025   5.164  11.286   2.887  0.0618  0.6103 -0.2438
  129MOL0     H17026   5.091  10.875   2.837  0.7967 -0.2356 -0.2742
  129MOL0     H17027   4.577  11.147   2.354  3.3866  1.4265  1.3485
  129MOL0     H17028   4.323  11.147   2.323  1.0805  0.7897 -0.2574
  130MOL0     O17029   5.269   3.287   6.981  0.8082  0.4426  0.1947
  130MOL0     C17030   5.308   3.391   7.039  0.3905  0.9925  0.2554
  130MOL0     O17031   5.228   3.496   7.080  0.2447  0.3011  0.1423
  130MOL0     C17032   5.092   3.509   7.079 -0.6577 -0.6678  0.3102
  130MOL0     C17033   5.007   3.440   6.990  0.8825 -0.1250 -0.4426
  130MOL0     C17034   4.867   3.475   6.983 -0.5799  0.3608  1.1658
  130MOL0     C17035   4.815   3.571   7.065 -0.5932  0.4212 -0.1578
  130MOL0     O17036   4.683   3.591   7.072 -1.1750 -0.3065  0.2502
  130MOL0     C17037   4.601   3.556   6.959  0.4422 -0.4806 -0.5927
  130MOL0     C17038   4.453   3.604   6.985  0.8749 -0.7657  0.2267
  130MOL0     C17039   4.438   3.751   7.026 -1.6277 -0.2675 -0.3868
  130MOL0     C17040   4.286   3.776   7.061  0.8550 -0.1297 -0.3100
  130MOL0     C17041   4.258   3.912   7.134  0.3772 -0.2929  0.1165
  130MOL0     C17042   4.317   3.913   7.280 -0.1676  0.0847  1.2001
  130MOL0     C17043   4.305   4.038   7.361 -0.0432 -1.3891  1.0750
  130MOL0     C17044   4.308   4.015   7.508 -0.5949  0.9029 -1.1462
  130MOL0     N17045   4.293   4.142   7.577 -0.5568  0.2350 -0.1823
  130MOL0     C17046   4.188   4.214   7.634  1.0588  0.2589 -0.4484
  130MOL0     C17047   4.240   4.323   7.682 -1.1906  0.0991 -0.0460
  130MOL0     C17048   4.174   4.448   7.739 -0.1464  0.2906  0.3904
  130MOL0     C17049   4.101   4.517   7.626  0.1316 -0.5699  0.3767
  130MOL0     C17050   4.053   4.660   7.658  0.0084 -0.3540  0.2661
  130MOL0     C17051   4.177   4.756   7.684 -0.2869 -0.1853 -0.4962
  130MOL0     O17052   4.260   4.774   7.570 -0.5185  0.8787 -0.4278
  130MOL0     C17053   4.394   4.778   7.607 -0.1662 -0.9452  0.4368
  130MOL0     C17054   4.474   4.662   7.598 -0.2827  0.3713 -0.0015
  130MOL0     C17055   4.610   4.668   7.629 -0.4102  0.5036  0.4323
  130MOL0     C17056   4.676   4.788   7.664 -0.2058  0.2218 -0.0671
  130MOL0     C17057   4.821   4.806   7.697  0.1743  0.0314 -0.1098
  130MOL0     O17058   4.874   4.692   7.760 -0.4733  0.2256 -0.4809
  130MOL0     C17059   5.010   4.646   7.767  0.4047  0.2089  0.3631
  130MOL0     C17060   5.023   4.526   7.839 -0.5376 -0.8909 -1.4232
  130MOL0     C17061   5.147   4.478   7.869  0.3138 -1.3323 -0.1186
  130MOL0     C17062   5.262   4.538   7.812 -0.0354  0.3706  0.0239
  130MOL0     O17063   5.379   4.478   7.854 -0.0413 -0.5429 -0.5160
  130MOL0     C17064   5.495   4.576   7.861  0.2832  0.3031  0.6197
  130MOL0     C17065   5.610   4.520   7.932 -0.0070 -0.2098 -0.2860
  130MOL0     C17066   5.730   4.608   7.942 -1.0845  0.2190  0.5663
  130MOL0     C17067   5.848   4.531   8.012 -0.2448  0.1326  0.4112
  130MOL0     C17068   5.986   4.583   7.951 -0.3820 -0.0774 -0.2997
  130MOL0     C17069   6.088   4.485   7.984 -0.1428  0.3020  0.5025
  130MOL0     C17070   6.226   4.548   7.949 -0.2021  0.1641 -1.4815
  130MOL0     C17071   6.327   4.511   8.053  0.0846  0.0587 -0.3456
  130MOL0    Cl17072   6.288   4.598   8.206 -0.1455 -0.5749 -0.0201
  130MOL0     C17073   5.248   4.654   7.728 -0.2390 -0.7032 -0.6823
  130MOL0     C17074   5.120   4.708   7.707  0.4107 -0.4846 -0.7021
  130MOL0     O17075   4.883   4.901   7.656 -0.1470 -0.1467 -0.2678
  130MOL0     C17076   4.591   4.905   7.662 -0.6981  0.2813  0.6234
  130MOL0     C17077   4.451   4.904   7.637 -0.5749  0.7416 -0.1590
  130MOL0     N17078   4.375   4.316   7.666 -0.3197 -0.2736  0.4827
  130MOL0     N17079   4.412   4.212   7.600 -0.0069  0.3365  0.2086
  130MOL0     C17080   4.895   3.632   7.158 -0.9414  1.2634 -0.1802
  130MOL0     C17081   5.034   3.602   7.165 -0.2118 -0.2771 -0.6042
  130MOL0     C17082   5.452   3.404   7.069 -0.2913 -0.4439  0.4366
  130MOL0     C17083   5.545   3.306   7.028  0.7680  0.1917  0.2623
  130MOL0     C17084   5.686   3.334   7.039  1.0284 -0.2764  0.3743
  130MOL0     C17085   5.725   3.466   7.073 -0.4954  0.1750 -0.4416
  130MOL0     O17086   5.853   3.500   7.037 -0.5304 -0.1035 -0.1936
  130MOL0     C17087   5.913   3.613   7.092 -0.0032 -0.0888 -0.5699
  130MOL0     C17088   6.049   3.620   7.035 -0.1405 -0.0964  0.4465
  130MOL0     C17089   6.132   3.486   7.015  0.4149 -0.1343  0.9208
  130MOL0     C17090   6.145   3.400   7.141 -0.2850 -0.0242  0.0929
  130MOL0     C17091   6.241   3.295   7.119  0.1740  0.2440  0.1777
  130MOL0     C17092   6.333   3.213   7.116 -0.0536  0.0251  0.1113
  130MOL0     C17093   5.635   3.552   7.130 -0.1303  0.7579 -0.5246
  130MOL0     C17094   5.496   3.523   7.121  0.5018  0.3669  0.6795
  130MOL0     H17095   5.042   3.365   6.919  0.8262  0.4592 -1.0970
  130MOL0     H17096   4.801   3.409   6.927  0.3030 -0.0225  0.5429
  130MOL0     H17097   4.597   3.449   6.937 -1.5490 -0.4874 -0.3228
  130MOL0     H17098   4.628   3.618   6.872  0.0591 -1.4991 -1.4629
  130MOL0     H17099   4.415   3.530   7.056 -5.0800 -0.0841 -1.6373
  130MOL0     H17100   4.379   3.587   6.906 -0.2788  3.4217  0.1717
  130MOL0     H17101   4.457   3.826   6.949 -0.4783  1.0221  1.0783
  130MOL0     H17102   4.500   3.777   7.113 -0.3365 -0.0200 -1.3528
  130MOL0     H17103   4.237   3.776   6.963 -1.8208 -0.7396  0.9255
  130MOL0     H17104   4.242   3.688   7.110 -0.5069 -0.7840 -2.5646
  130MOL0     H17105   4.149   3.918   7.136  0.3585  0.2005 -1.3975
  130MOL0     H17106   4.311   3.990   7.079 -0.7893  1.2594  1.1027
  130MOL0     H17107   4.421   3.877   7.273 -0.3023  0.0699 -2.0314
  130MOL0     H17108   4.257   3.837   7.331  0.7167 -0.8400  0.9190
  130MOL0     H17109   4.387   4.108   7.345 -2.4296  0.8556 -2.9359
  130MOL0     H17110   4.209   4.081   7.333  0.2155 -1.3449  0.2155
  130MOL0     H17111   4.404   3.969   7.535 -0.2350  1.0979 -2.0786
  130MOL0     H17112   4.241   3.942   7.555  0.9608 -1.1738 -1.9732
  130MOL0     H17113   4.087   4.183   7.656  1.2908  1.0278  1.9244
  130MOL0     H17114   4.254   4.503   7.790 -2.2976  1.9760  2.1842
  130MOL0     H17115   4.103   4.416   7.817 -2.0254  0.4618 -1.1718
  130MOL0     H17116   4.021   4.448   7.597  0.0440 -0.1752 -0.3330
  130MOL0     H17117   4.163   4.524   7.536 -0.1103 -0.1433  0.2443
  130MOL0     H17118   3.998   4.699   7.571 -1.6221 -1.1579  0.8995
  130MOL0     H17119   3.988   4.660   7.746 -1.8475 -1.5832 -1.0309
  130MOL0     H17120   4.232   4.711   7.767 -0.0452 -2.3010 -1.7214
  130MOL0     H17121   4.144   4.853   7.722  1.2675 -0.2420  1.1222
  130MOL0     H17122   4.426   4.565   7.588 -0.6578  0.4863  0.6002
  130MOL0     H17123   4.680   4.585   7.634 -0.4376  0.1259 -3.1412
  130MOL0     H17124   4.940   4.469   7.879  0.4785 -0.9640  0.7256
  130MOL0     H17125   5.157   4.387   7.927  1.9403 -1.1118 -0.0016
  130MOL0     H17126   5.465   4.671   7.907  0.8446  1.4258 -1.2423
  130MOL0     H17127   5.526   4.597   7.759 -2.8850  1.5263 -0.2023
  130MOL0     H17128   5.649   4.434   7.877 -1.0498 -1.2884  0.6067
  130MOL0     H17129   5.581   4.482   8.030  1.5755 -2.5536 -0.6470
  130MOL0     H17130   5.714   4.702   7.996  2.9096  1.8794 -0.7185
  130MOL0     H17131   5.741   4.620   7.834 -0.8952  0.6059  0.6243
  130MOL0     H17132   5.852   4.546   8.120  2.5594 -2.0890  0.7256
  130MOL0     H17133   5.836   4.424   7.994 -1.3894  0.2513  0.4183
  130MOL0     H17134   6.011   4.675   8.004  0.6738 -0.8188  0.5326
  130MOL0     H17135   5.977   4.583   7.842  1.6178 -2.3941 -0.5369
  130MOL0     H17136   6.073   4.386   7.939 -0.6210  0.2501  0.7634
  130MOL0     H17137   6.074   4.468   8.091 -1.9777 -2.6549 -0.0850
  130MOL0     H17138   6.257   4.519   7.848 -0.3242 -0.2759 -1.3930
  130MOL0     H17139   6.217   4.657   7.956 -2.3836 -0.0728  3.0310
  130MOL0     H17140   6.427   4.538   8.017  0.5778  0.1338  1.0172
  130MOL0     H17141   6.308   4.406   8.078  0.1180  0.0324 -0.4335
  130MOL0     H17142   5.335   4.688   7.673  1.4081 -2.8558  0.4040
  130MOL0     H17143   5.115   4.801   7.652 -0.1218 -0.8054 -1.2085
  130MOL0     H17144   4.636   5.001   7.684  1.2980 -0.5505  0.3353
  130MOL0     H17145   4.383   4.988   7.648 -1.3021  0.1787 -0.2766
  130MOL0     H17146   4.836   3.690   7.228 -2.6116 -0.7790  0.2057
  130MOL0     H17147   5.082   3.665   7.238 -0.8912 -1.0776  0.5560
  130MOL0     H17148   5.520   3.209   6.986  0.5293  0.3522  0.0311
  130MOL0     H17149   5.756   3.259   7.004  1.5174 -0.2975  1.3476
  130MOL0     H17150   5.916   3.602   7.200  1.1664  4.2824  0.0359
  130MOL0     H17151   5.869   3.710   7.066  0.5665  1.0746  2.4042
  130MOL0     H17152   6.023   3.665   6.939 -2.0377 -1.5072  0.2467
  130MOL0     H17153   6.112   3.690   7.091 -2.4722 -0.0396  3.1975
  130MOL0     H17154   6.236   3.513   6.995  1.2871 -2.3555  2.0860
  130MOL0     H17155   6.084   3.434   6.932  1.1537  1.0694 -0.3032
  130MOL0     H17156   6.179   3.468   7.220  1.1925 -0.8202  0.1947
  130MOL0     H17157   6.051   3.353   7.171 -0.4077 -0.3111 -0.7158
  130MOL0     H17158   6.413   3.142   7.122  0.0644 -0.0327 -1.6646
  130MOL0     H17159   5.650   3.644   7.186  3.1025  0.9032 -1.4171
  130MOL0     H17160   5.443   3.608   7.161  1.9108  0.2887  2.8972
  131MOL0     O17161   8.043   4.941   2.127  0.7319  0.2678  0.2362
  131MOL0     C17162   8.113   5.002   2.045  0.6039 -0.2601  0.6126
  131MOL0     O17163   8.069   5.083   1.945 -0.2840 -0.3618 -0.4836
  131MOL0     C17164   7.932   5.080   1.926 -0.0237 -0.5829 -0.0858
  131MOL0     C17165   7.865   5.203   1.935 -0.4137  0.6433 -0.0347
  131MOL0     C17166   7.733   5.213   1.879  0.6080 -0.1046  0.2749
  131MOL0     C17167   7.666   5.100   1.837 -0.3331 -0.5674 -0.0001
  131MOL0     O17168   7.531   5.109   1.810 -0.8326 -0.3282  0.5657
  131MOL0     C17169   7.441   5.079   1.922 -0.2500  0.3191  0.4278
  131MOL0     C17170   7.398   4.935   1.915  0.4637 -0.1695  0.4383
  131MOL0     C17171   7.259   4.920   1.976  0.8340  0.1855  0.8541
  131MOL0     C17172   7.233   4.764   1.980 -0.5572 -0.6850  0.1670
  131MOL0     C17173   7.087   4.742   2.025  0.0850 -0.4861  0.0010
  131MOL0     C17174   6.992   4.729   1.906  1.7790  0.4754 -0.7020
  131MOL0     C17175   6.838   4.722   1.949 -0.2659 -0.4050 -0.0239
  131MOL0     C17176   6.769   4.867   1.957  0.6061  0.6788 -0.0368
  131MOL0     N17177   6.714   4.918   1.832 -1.0063 -0.2727  0.5178
  131MOL0     C17178   6.582   4.899   1.799  0.6242 -0.7292  0.4072
  131MOL0     C17179   6.545   4.994   1.710  0.1994  0.1432 -0.5375
  131MOL0     C17180   6.408   5.012   1.654 -0.2124  0.4212 -0.1008
  131MOL0     C17181   6.314   5.076   1.752 -0.3247  0.3874 -0.1836
  131MOL0     C17182   6.173   5.106   1.700 -0.5397  0.3587  0.5098
  131MOL0     C17183   6.101   5.216   1.768  0.3991 -0.0978  0.3361
  131MOL0     O17184   6.163   5.348   1.768 -0.1725 -0.1435 -0.2624
  131MOL0     C17185   6.122   5.454   1.854  0.2238  0.4933  0.7744
  131MOL0     C17186   6.196   5.567   1.830  0.8495 -0.6405 -0.6517
  131MOL0     C17187   6.157   5.688   1.875 -0.3032 -0.7346 -0.8887
  131MOL0     C17188   6.044   5.699   1.965 -0.4939 -0.2134  0.3318
  131MOL0     C17189   6.001   5.830   2.036 -0.4916  0.9371  0.1399
  131MOL0     O17190   5.895   5.819   2.109 -0.4044  0.5268 -0.1271
  131MOL0     C17191   5.857   5.916   2.197 -0.4947  1.0163  0.1405
  131MOL0     C17192   5.733   5.969   2.176  0.2373  1.0105 -0.1009
  131MOL0     C17193   5.685   6.060   2.271  0.1471  0.3251 -0.6902
  131MOL0     C17194   5.750   6.092   2.387 -0.9694 -0.2755  0.6874
  131MOL0     O17195   5.677   6.175   2.465  0.4675 -0.7914 -0.1547
  131MOL0     C17196   5.732   6.241   2.587 -0.2484  0.1153  0.6409
  131MOL0     C17197   5.638   6.362   2.609  0.7594 -0.3839  0.3166
  131MOL0     C17198   5.484   6.336   2.636 -0.0075 -0.6283  0.2818
  131MOL0     C17199   5.424   6.470   2.673 -0.0106 -0.3799  0.3023
  131MOL0     C17200   5.282   6.469   2.724 -0.9388  0.0741 -0.3472
  131MOL0     C17201   5.182   6.371   2.652  0.2370  0.2058  0.1676
  131MOL0     C17202   5.057   6.380   2.731  1.0125  0.4838 -0.1332
  131MOL0     C17203   4.947   6.283   2.684 -0.6807 -0.3163 -0.1695
  131MOL0    Cl17204   4.988   6.111   2.687 -0.5595 -0.5131  0.2922
  131MOL0     C17205   5.865   6.027   2.424  0.4778  0.1730  0.0748
  131MOL0     C17206   5.917   5.942   2.319  0.0221  1.0470  0.1849
  131MOL0     O17207   6.054   5.935   2.008 -0.6308 -0.1182  0.0899
  131MOL0     C17208   5.969   5.580   1.991  0.7892 -0.0535  0.0669
  131MOL0     C17209   6.007   5.456   1.929 -0.0638 -0.7388 -0.5596
  131MOL0     N17210   6.657   5.069   1.683  0.4737  0.3929 -0.3311
  131MOL0     N17211   6.764   5.022   1.756 -1.0310  0.3239  0.5835
  131MOL0     C17212   7.727   4.981   1.847 -0.7389  0.1810  0.3852
  131MOL0     C17213   7.860   4.966   1.892 -0.1634  0.5247 -0.5695
  131MOL0     C17214   8.254   4.984   2.060  0.9977  0.3056 -0.4543
  131MOL0     C17215   8.343   5.081   2.013 -0.1702 -0.1718  0.1037
  131MOL0     C17216   8.483   5.049   2.029  0.7014 -0.3655  0.4655
  131MOL0     C17217   8.528   4.938   2.099 -1.0657  0.9281  0.2495
  131MOL0     O17218   8.658   4.918   2.128 -0.8367  0.0556 -0.6696
  131MOL0     C17219   8.724   4.812   2.194 -1.1583  0.4324  0.0036
  131MOL0     C17220   8.871   4.859   2.212  0.7598  0.6821 -0.8932
  131MOL0     C17221   8.975   4.745   2.230  0.0856 -0.3276  0.3429
  131MOL0     C17222   9.081   4.733   2.122 -0.1510  0.2743  0.5875
  131MOL0     C17223   9.187   4.650   2.172 -0.3646 -0.6108 -0.4791
  131MOL0     C17224   9.284   4.586   2.216  0.1963  0.1380 -0.6760
  131MOL0     C17225   8.435   4.847   2.146  0.0341  0.9412 -0.7068
  131MOL0     C17226   8.297   4.868   2.126 -0.2905 -0.5677  0.6662
  131MOL0     H17227   7.914   5.293   1.969 -0.8364  0.6939  0.4519
  131MOL0     H17228   7.672   5.302   1.877 -0.4805 -0.8301  0.3207
  131MOL0     H17229   7.353   5.143   1.911  1.0679  2.0451 -0.6229
  131MOL0     H17230   7.503   5.106   2.008  0.9256 -0.1285 -0.2526
  131MOL0     H17231   7.473   4.880   1.974  1.9347  0.6226 -0.6247
  131MOL0     H17232   7.408   4.901   1.812  0.9979  1.6793 -0.1533
  131MOL0     H17233   7.181   4.968   1.917 -0.7611 -0.5904  2.2572
  131MOL0     H17234   7.244   4.968   2.072  0.4792  5.5270 -1.5458
  131MOL0     H17235   7.254   4.719   1.882 -0.6203  1.6207 -0.9712
  131MOL0     H17236   7.303   4.717   2.049  0.7743 -1.5069 -1.6627
  131MOL0     H17237   7.057   4.833   2.077 -0.7221 -0.8759  0.2294
  131MOL0     H17238   7.078   4.664   2.101  1.2633  2.7799  3.8398
  131MOL0     H17239   7.017   4.639   1.849  0.5306  0.7883 -1.8165
  131MOL0     H17240   7.002   4.805   1.828  1.7938 -0.3068 -1.4830
  131MOL0     H17241   6.785   4.667   1.871 -0.0261  2.4500 -2.3893
  131MOL0     H17242   6.836   4.670   2.045  0.3164 -1.1870 -0.4196
  131MOL0     H17243   6.845   4.930   2.003  0.0797  0.3720  1.3034
  131MOL0     H17244   6.692   4.860   2.034 -1.0643  2.0952 -1.4814
  131MOL0     H17245   6.516   4.828   1.848 -0.0621 -0.4254 -0.0625
  131MOL0     H17246   6.369   4.916   1.620  1.3990 -0.5479  0.7327
  131MOL0     H17247   6.418   5.085   1.572 -0.6483 -0.4133 -0.9112
  131MOL0     H17248   6.367   5.163   1.794  0.2451  1.1173 -2.2773
  131MOL0     H17249   6.306   5.012   1.841 -0.5932 -0.1753 -0.6106
  131MOL0     H17250   6.166   5.137   1.596 -3.2931  3.4217  1.4318
  131MOL0     H17251   6.110   5.017   1.713 -0.8282  0.8016  2.3937
  131MOL0     H17252   6.091   5.175   1.869 -0.2412  2.6027  1.4912
  131MOL0     H17253   6.000   5.232   1.729 -0.1644  0.6116  1.9674
  131MOL0     H17254   6.280   5.572   1.761  0.4472  2.9180 -1.0999
  131MOL0     H17255   6.202   5.778   1.834 -2.5804  1.5769  1.2958
  131MOL0     H17256   5.670   5.932   2.095 -1.4746 -1.5387  2.2323
  131MOL0     H17257   5.589   6.106   2.249 -1.2108 -1.5154  0.9970
  131MOL0     H17258   5.828   6.285   2.559 -0.5225  1.2288  1.3625
  131MOL0     H17259   5.727   6.168   2.668  2.0318  0.4892  1.1688
  131MOL0     H17260   5.630   6.421   2.517 -0.3831 -1.1975 -0.1319
  131MOL0     H17261   5.674   6.420   2.694 -2.8725  0.5392  1.3971
  131MOL0     H17262   5.461   6.258   2.710 -1.6358 -0.1752  0.2991
  131MOL0     H17263   5.427   6.304   2.548 -1.4079 -2.4861  1.7601
  131MOL0     H17264   5.483   6.529   2.744 -0.8757  3.0076 -1.5715
  131MOL0     H17265   5.425   6.516   2.574  0.7872  0.0041  0.4821
  131MOL0     H17266   5.236   6.568   2.712 -0.1063  0.6104  0.7925
  131MOL0     H17267   5.289   6.445   2.830 -2.5045 -0.4569 -0.3393
  131MOL0     H17268   5.228   6.273   2.662 -0.1323 -0.4665 -3.4201
  131MOL0     H17269   5.171   6.388   2.544  1.3030  2.3679  0.3339
  131MOL0     H17270   5.084   6.350   2.832 -1.1335 -2.0077 -0.2120
  131MOL0     H17271   5.012   6.480   2.733 -0.7909 -0.2338 -1.4114
  131MOL0     H17272   4.928   6.316   2.581 -2.8290  2.3813  0.9544
  131MOL0     H17273   4.852   6.293   2.737 -0.4914  2.7919 -0.2664
  131MOL0     H17274   5.907   6.037   2.524 -1.3489  1.7999  0.7372
  131MOL0     H17275   6.015   5.895   2.323  0.2940  1.6866  1.5126
  131MOL0     H17276   5.889   5.571   2.063  0.6972 -2.5270 -0.2494
  131MOL0     H17277   5.966   5.358   1.953  1.6273 -1.0266  1.4728
  131MOL0     H17278   7.670   4.892   1.823  0.5433 -0.4319 -0.4581
  131MOL0     H17279   7.910   4.869   1.894 -1.6998 -0.3070 -0.8724
  131MOL0     H17280   8.310   5.169   1.959  0.3258  0.0162  0.1054
  131MOL0     H17281   8.550   5.126   1.991 -0.9883  0.9366  0.0350
  131MOL0     H17282   8.710   4.723   2.131 -3.4489 -0.0678  1.1160
  131MOL0     H17283   8.674   4.787   2.288  0.8297  1.9949  1.5517
  131MOL0     H17284   8.908   4.919   2.129  0.8438  1.5353 -0.2521
  131MOL0     H17285   8.868   4.914   2.306 -1.4691 -2.9032  1.3871
  131MOL0     H17286   8.941   4.648   2.269  1.1142  0.4780  3.6122
  131MOL0     H17287   9.034   4.769   2.319 -0.1357 -0.7365  0.6041
  131MOL0     H17288   9.044   4.693   2.028 -2.4803 -2.2208  2.4234
  131MOL0     H17289   9.120   4.834   2.107 -2.0414  0.9564  0.0159
  131MOL0     H17290   9.375   4.536   2.241  0.4634 -0.3605 -2.5292
  131MOL0     H17291   8.459   4.761   2.207  0.9462  2.0361  0.5253
  131MOL0     H17292   8.231   4.796   2.172 -0.8462  0.4431  1.4574
  132MOL0     O17293  11.079   0.630   3.665 -0.5088  0.2118  0.3008
  132MOL0     C17294  11.107   0.544   3.746 -0.2921 -0.0733 -0.3687
  132MOL0     O17295  11.026   0.479   3.830  0.1855 -0.3587 -0.5457
  132MOL0     C17296  10.898   0.521   3.850  0.1520 -0.4103 -0.3128
  132MOL0     C17297  10.791   0.428   3.854 -0.3261  0.1636 -0.2009
  132MOL0     C17298  10.658   0.465   3.887 -1.2634 -0.3379  1.1914
  132MOL0     C17299  10.621   0.589   3.924 -0.4540  0.0996 -0.3075
  132MOL0     O17300  10.499   0.637   3.962 -1.0598  0.6749 -0.6527
  132MOL0     C17301  10.403   0.536   3.989  0.1663  0.8373 -0.5009
  132MOL0     C17302  10.331   0.504   3.859  0.6136  0.2132 -0.4312
  132MOL0     C17303  10.230   0.386   3.879 -0.4577 -0.1452  0.4593
  132MOL0     C17304  10.106   0.439   3.956  0.9609  0.0559  0.1955
  132MOL0     C17305  10.014   0.325   4.016 -0.0174  0.4298  0.1114
  132MOL0     C17306   9.911   0.393   4.094 -0.4713 -0.4318  0.9409
  132MOL0     C17307   9.797   0.295   4.138  0.3429  0.5029  0.2342
  132MOL0     C17308   9.708   0.360   4.239 -0.7142 -1.0493 -0.0133
  132MOL0     N17309   9.577   0.295   4.250  0.7549 -0.1424  0.4017
  132MOL0     C17310   9.450   0.353   4.237  0.5643  1.0433 -0.0361
  132MOL0     C17311   9.367   0.245   4.235  0.7225 -0.8106  0.6237
  132MOL0     C17312   9.227   0.257   4.216 -0.0054  0.3983  0.8174
  132MOL0     C17313   9.157   0.342   4.331 -0.8075  0.0572 -0.0498
  132MOL0     C17314   9.005   0.354   4.298 -0.5550  0.6764  0.5691
  132MOL0     C17315   8.933   0.225   4.230 -0.0158 -0.0676  0.1255
  132MOL0     O17316   8.808   0.265   4.178 -0.4849 -0.5681  0.6627
  132MOL0     C17317   8.696   0.279   4.256  0.2974  0.9167 -0.3962
  132MOL0     C17318   8.673   0.222   4.382 -0.6006 -0.2335 -0.3463
  132MOL0     C17319   8.549   0.252   4.447  0.5736  0.2652 -0.3536
  132MOL0     C17320   8.441   0.313   4.382  0.0131 -0.0603  0.1149
  132MOL0     C17321   8.308   0.320   4.448  0.1913  0.2665 -0.0525
  132MOL0     O17322   8.306   0.251   4.578  0.5723 -0.1921 -0.0740
  132MOL0     C17323   8.186   0.199   4.618  0.9292 -0.0664 -0.4540
  132MOL0     C17324   8.152   0.066   4.596 -0.0100 -0.1558  0.1274
  132MOL0     C17325   8.041   0.009   4.647 -0.7464 -1.1996 -0.6012
  132MOL0     C17326   7.939   0.086   4.706 -0.3443 -0.1443  0.6005
  132MOL0     O17327   7.829   0.019   4.753 -0.1038  0.0376  0.1618
  132MOL0     C17328   7.708   0.094   4.742 -0.2356 -0.1475 -0.8951
  132MOL0     C17329   7.597   0.007   4.678  0.3788  0.3969 -0.1795
  132MOL0     C17330   7.470   0.089   4.672  0.4260 -0.0530 -0.1524
  132MOL0     C17331   7.363   0.006   4.596 -0.1374 -0.2768  0.2407
  132MOL0     C17332   7.254   0.114   4.550 -0.4081  0.3364  0.1294
  132MOL0     C17333   7.275   0.149   4.395 -0.2748 -0.0525  0.1540
  132MOL0     C17334   7.194   0.267   4.336 -0.5193 -0.7043 -0.0531
  132MOL0     C17335   7.060   0.213   4.272 -1.2193  0.3791 -0.5186
  132MOL0    Cl17336   6.952   0.147   4.400 -0.0479 -0.2868 -0.3390
  132MOL0     C17337   7.967   0.226   4.723 -0.1932 -0.0519 -0.5488
  132MOL0     C17338   8.084   0.285   4.675  0.4224  0.1854  0.3606
  132MOL0     O17339   8.204   0.342   4.380  0.4094 -0.4280  0.2534
  132MOL0     C17340   8.473   0.365   4.250 -0.1031  0.2086 -0.4033
  132MOL0     C17341   8.599   0.356   4.195  1.0192  0.0110  0.5546
  132MOL0     N17342   9.436   0.126   4.234 -0.3120  0.2200 -1.1379
  132MOL0     N17343   9.558   0.160   4.255 -0.2457  0.8593  0.0347
  132MOL0     C17344  10.723   0.680   3.907 -0.2072 -0.7883 -0.2441
  132MOL0     C17345  10.857   0.655   3.887  0.6143 -0.5889  0.3632
  132MOL0     C17346  11.253   0.510   3.748 -0.3400  0.3076 -1.0216
  132MOL0     C17347  11.307   0.443   3.861 -0.5524 -0.2745  0.4910
  132MOL0     C17348  11.444   0.402   3.866 -0.1754  0.2796  0.6552
  132MOL0     C17349  11.529   0.446   3.763  0.7605 -0.6158  0.6238
  132MOL0     O17350  11.656   0.409   3.753  0.3497  0.3886 -0.5825
  132MOL0     C17351  11.693   0.323   3.647 -0.4640 -0.5663 -0.1511
  132MOL0     C17352  11.833   0.254   3.667  1.0646 -0.4598  0.0905
  132MOL0     C17353  11.954   0.343   3.617 -0.4531  0.1624  0.9995
  132MOL0     C17354  12.088   0.314   3.691  0.6192 -0.3349 -0.8787
  132MOL0     C17355  12.117   0.172   3.692  0.0451  0.8620  0.9434
  132MOL0     C17356  12.144   0.057   3.653  0.3612 -0.2936  0.1001
  132MOL0     C17357  11.476   0.515   3.658  0.4296 -0.1896  0.5967
  132MOL0     C17358  11.341   0.552   3.657  0.4761  0.7511  0.7720
  132MOL0     H17359  10.816   0.327   3.822  0.7230  0.1544  0.5761
  132MOL0     H17360  10.590   0.380   3.886  0.2211 -1.6529 -1.3412
  132MOL0     H17361  10.335   0.583   4.061  0.3947  0.8705 -0.3043
  132MOL0     H17362  10.446   0.452   4.044  0.0265 -0.1960 -1.9143
  132MOL0     H17363  10.418   0.480   3.798  0.9679  1.9033 -0.6140
  132MOL0     H17364  10.273   0.589   3.823 -0.3487 -0.0150  0.5290
  132MOL0     H17365  10.281   0.295   3.912  1.1669  1.7699  3.7836
  132MOL0     H17366  10.185   0.373   3.780  0.8414 -1.0191 -0.0377
  132MOL0     H17367  10.134   0.501   4.042 -0.4665  1.6705 -0.4386
  132MOL0     H17368  10.043   0.502   3.893  0.9393 -2.5310 -2.6002
  132MOL0     H17369  10.068   0.263   4.088 -1.0902  0.6059  1.1041
  132MOL0     H17370   9.982   0.246   3.948 -3.3933  1.4244  0.3491
  132MOL0     H17371   9.859   0.467   4.031  0.9205 -2.0716 -2.4123
  132MOL0     H17372   9.952   0.442   4.182  1.6034 -4.5055  2.5014
  132MOL0     H17373   9.748   0.256   4.048  2.6742 -1.0559 -0.4503
  132MOL0     H17374   9.844   0.213   4.193 -2.7040  0.8538  3.7066
  132MOL0     H17375   9.701   0.466   4.211  2.6087 -0.2598  1.6226
  132MOL0     H17376   9.759   0.361   4.335  0.1065 -2.5052 -0.4025
  132MOL0     H17377   9.426   0.458   4.222  2.9327  1.4442 -1.5108
  132MOL0     H17378   9.184   0.156   4.209  0.4293  0.2763 -0.1692
  132MOL0     H17379   9.196   0.306   4.124 -0.7233  3.1883  2.4323
  132MOL0     H17380   9.196   0.444   4.342 -1.1155  0.3643 -1.5235
  132MOL0     H17381   9.179   0.289   4.424 -1.2409  1.2126  0.7267
  132MOL0     H17382   8.952   0.368   4.393 -1.8563  0.1803 -0.0650
  132MOL0     H17383   8.996   0.441   4.232  0.8094 -1.1010 -2.1428
  132MOL0     H17384   8.922   0.147   4.306 -1.4403 -1.1474 -1.1100
  132MOL0     H17385   8.985   0.182   4.144 -0.8654  1.5741 -1.2848
  132MOL0     H17386   8.743   0.162   4.438 -3.2679 -3.5891 -0.2711
  132MOL0     H17387   8.555   0.202   4.543 -0.1911 -0.8699 -0.8760
  132MOL0     H17388   8.229   0.005   4.551 -0.5134 -1.2288  0.6794
  132MOL0     H17389   8.023  -0.095   4.620 -2.9130 -1.3297  1.0919
  132MOL0     H17390   7.719   0.180   4.674 -4.7346  0.8658 -0.6060
  132MOL0     H17391   7.682   0.120   4.845  0.0166 -0.9036 -0.6325
  132MOL0     H17392   7.580  -0.078   4.745 -2.5138  1.0687  0.0782
  132MOL0     H17393   7.626  -0.054   4.593  2.1586  0.8714  0.0497
  132MOL0     H17394   7.489   0.191   4.638  1.0084  0.0925  0.5898
  132MOL0     H17395   7.430   0.104   4.773 -0.7420  0.8722 -0.7240
  132MOL0     H17396   7.415  -0.047   4.516  0.5011 -1.1025  1.1819
  132MOL0     H17397   7.322  -0.073   4.659  0.7333 -1.2457 -0.3892
  132MOL0     H17398   7.270   0.210   4.600 -0.5278 -0.0875  1.0143
  132MOL0     H17399   7.151   0.082   4.571 -0.9325  0.2941 -2.2603
  132MOL0     H17400   7.256   0.061   4.333  1.7756 -2.0984  2.2328
  132MOL0     H17401   7.377   0.185   4.380  0.5995 -1.2000  2.7616
  132MOL0     H17402   7.174   0.337   4.417  0.4072  0.8095 -1.0792
  132MOL0     H17403   7.255   0.314   4.258 -0.3694 -1.2159 -0.2461
  132MOL0     H17404   7.096   0.141   4.197 -0.2473  1.1047 -0.7648
  132MOL0     H17405   7.015   0.297   4.218 -1.1968  0.9274  0.2937
  132MOL0     H17406   7.896   0.294   4.768 -0.8658  1.6063 -3.8294
  132MOL0     H17407   8.090   0.393   4.672 -1.1693  0.2840 -0.7794
  132MOL0     H17408   8.384   0.415   4.213 -2.2235 -1.1817  2.4402
  132MOL0     H17409   8.612   0.401   4.097  1.2647  1.9092  1.4173
  132MOL0     H17410  10.715   0.784   3.937  1.9248 -0.2543 -1.3705
  132MOL0     H17411  10.922   0.738   3.910  0.6008 -0.6121  0.4817
  132MOL0     H17412  11.245   0.427   3.948 -2.1750  2.7049  0.0320
  132MOL0     H17413  11.483   0.338   3.944  1.4961 -1.9664 -1.8550
  132MOL0     H17414  11.711   0.396   3.568  1.0676 -0.3695  0.3497
  132MOL0     H17415  11.617   0.251   3.617 -3.9884  3.0490 -0.6376
  132MOL0     H17416  11.834   0.259   3.776 -1.6899  3.6381  0.1590
  132MOL0     H17417  11.825   0.147   3.649 -0.2944 -0.5958  1.3364
  132MOL0     H17418  11.921   0.443   3.651 -1.5174 -0.8924  3.3524
  132MOL0     H17419  11.963   0.346   3.508 -0.5206 -1.3633  0.9415
  132MOL0     H17420  12.168   0.366   3.637  0.8193  0.7976  0.4770
  132MOL0     H17421  12.087   0.345   3.795  2.6949 -0.6964 -0.6979
  132MOL0     H17422  12.186  -0.031   3.608  1.9057 -0.5880  1.9951
  132MOL0     H17423  11.546   0.538   3.578  0.0563  0.9692  0.5784
  132MOL0     H17424  11.304   0.591   3.562 -0.8697 -1.2270  0.4214
  133MOL0     O17425   8.361   9.420   4.130 -0.6002  0.7645  0.3046
  133MOL0     C17426   8.405   9.313   4.103 -1.3806  0.3440  0.7537
  133MOL0     O17427   8.349   9.218   4.026  0.3429  0.4740 -0.4613
  133MOL0     C17428   8.246   9.235   3.932 -0.3909  0.1429 -0.9266
  133MOL0     C17429   8.216   9.361   3.877 -0.1723  0.2431  0.3421
  133MOL0     C17430   8.111   9.369   3.783  1.3819 -0.2667  0.5195
  133MOL0     C17431   8.034   9.251   3.752  0.3688  0.1902 -0.0333
  133MOL0     O17432   7.929   9.258   3.666  0.3291 -0.4034 -0.1555
  133MOL0     C17433   7.818   9.174   3.692 -0.1213 -0.9477 -0.6164
  133MOL0     C17434   7.682   9.226   3.629  0.2294  0.2087 -0.2218
  133MOL0     C17435   7.626   9.351   3.709 -0.1672  0.0270  0.8042
  133MOL0     C17436   7.497   9.409   3.652  0.0164  0.3788  0.8851
  133MOL0     C17437   7.384   9.310   3.648  0.1481  0.1654 -0.2791
  133MOL0     C17438   7.247   9.365   3.591  0.7430 -0.2962  0.1939
  133MOL0     C17439   7.135   9.257   3.600  0.8125 -0.6085 -0.1562
  133MOL0     C17440   7.004   9.321   3.555  0.2526  0.2746 -0.3136
  133MOL0     N17441   6.980   9.302   3.407  0.0653 -0.8598  0.3374
  133MOL0     C17442   6.958   9.394   3.301 -0.6553 -0.2453 -0.9228
  133MOL0     C17443   6.920   9.320   3.196  0.3624  0.4483  0.6602
  133MOL0     C17444   6.874   9.368   3.060 -0.0770 -0.3727  0.3691
  133MOL0     C17445   6.739   9.435   3.070  0.5454  0.1038  1.3573
  133MOL0     C17446   6.661   9.438   2.933 -0.8202  0.5604 -0.2082
  133MOL0     C17447   6.531   9.521   2.920  0.9051  0.0064  0.0139
  133MOL0     O17448   6.438   9.477   3.023 -0.4358 -0.2518  0.3120
  133MOL0     C17449   6.306   9.515   3.002  0.1885 -0.0086 -0.3868
  133MOL0     C17450   6.204   9.434   3.054  0.0394 -0.0068  0.3129
  133MOL0     C17451   6.068   9.459   3.030  0.3994 -0.3474 -0.4520
  133MOL0     C17452   6.032   9.567   2.964 -0.4799 -0.7306 -0.0801
  133MOL0     C17453   5.882   9.592   2.940  0.5641  0.2524  0.1830
  133MOL0     O17454   5.786   9.497   2.940  0.9056  0.2590 -0.1792
  133MOL0     C17455   5.656   9.525   2.897  0.3462 -0.5629 -0.3213
  133MOL0     C17456   5.614   9.587   2.778  0.2786 -0.1894 -0.1801
  133MOL0     C17457   5.483   9.609   2.747  0.4911 -0.1843 -0.3675
  133MOL0     C17458   5.386   9.539   2.814  0.0187 -0.2074 -0.7044
  133MOL0     O17459   5.263   9.551   2.760 -0.6325 -0.0093 -0.7073
  133MOL0     C17460   5.176   9.435   2.778  0.3354  0.2189 -0.2607
  133MOL0     C17461   5.056   9.448   2.672  0.2121 -0.2644  0.8311
  133MOL0     C17462   4.991   9.586   2.668 -0.3337 -0.4142 -0.3858
  133MOL0     C17463   4.882   9.597   2.558 -0.0596  0.6914 -0.5680
  133MOL0     C17464   4.799   9.716   2.591  0.1808 -0.2814 -0.3019
  133MOL0     C17465   4.687   9.737   2.483  0.1927  0.4044  0.2501
  133MOL0     C17466   4.585   9.840   2.527  0.4601  0.6083  0.8707
  133MOL0     C17467   4.506   9.792   2.646  0.0856 -0.2567 -0.6473
  133MOL0    Cl17468   4.353   9.892   2.663  0.3551  0.1787  0.2023
  133MOL0     C17469   5.417   9.464   2.933 -0.4606  0.5733  0.3916
  133MOL0     C17470   5.556   9.460   2.974  0.7526  0.2908  0.6972
  133MOL0     O17471   5.858   9.712   2.919  0.4574  0.4567 -0.1535
  133MOL0     C17472   6.129   9.666   2.923 -0.2735 -0.2750 -0.3235
  133MOL0     C17473   6.264   9.632   2.938  0.7947 -0.9577 -0.3415
  133MOL0     N17474   6.913   9.190   3.234 -0.1710  0.5779  0.5374
  133MOL0     N17475   6.951   9.178   3.356 -0.5665  0.0323  0.0289
  133MOL0     C17476   8.072   9.133   3.807  0.3279  0.5532 -0.4611
  133MOL0     C17477   8.178   9.121   3.898  0.2845  0.4358 -0.0454
  133MOL0     C17478   8.536   9.281   4.171  0.6145  0.4224  0.1414
  133MOL0     C17479   8.599   9.373   4.250 -0.1576  0.4299  0.4951
  133MOL0     C17480   8.720   9.348   4.311 -0.7274  0.5663  0.8327
  133MOL0     C17481   8.793   9.220   4.295  1.1551  0.6375 -0.2182
  133MOL0     O17482   8.917   9.213   4.361 -0.8884 -0.1671  0.1076
  133MOL0     C17483   8.995   9.099   4.347  0.2046 -0.2975 -0.1767
  133MOL0     C17484   9.137   9.108   4.404  0.5040 -0.7065 -0.1250
  133MOL0     C17485   9.212   9.222   4.354 -0.3209  0.5856  0.1763
  133MOL0     C17486   9.278   9.301   4.468 -0.3410  0.0333 -0.4379
  133MOL0     C17487   9.383   9.232   4.531 -0.3897  0.0013  0.3775
  133MOL0     C17488   9.460   9.181   4.609 -0.3823 -0.6925  0.2046
  133MOL0     C17489   8.727   9.125   4.220  0.5093 -0.2813  0.2657
  133MOL0     C17490   8.599   9.158   4.161  0.7761 -0.5162  0.7591
  133MOL0     H17491   8.274   9.445   3.915 -0.7422  1.3978 -1.2139
  133MOL0     H17492   8.080   9.464   3.741 -2.7289 -0.2831  2.9631
  133MOL0     H17493   7.803   9.156   3.798  1.2675  1.2542  0.0225
  133MOL0     H17494   7.840   9.078   3.645 -1.1412  0.0395 -3.3225
  133MOL0     H17495   7.614   9.140   3.632  0.6681 -0.1306  0.2604
  133MOL0     H17496   7.704   9.254   3.526  5.4788 -0.2520  0.5247
  133MOL0     H17497   7.706   9.425   3.704  0.5740 -0.8274 -0.2660
  133MOL0     H17498   7.610   9.333   3.816  2.7147 -1.0533  1.1351
  133MOL0     H17499   7.475   9.497   3.712  2.6262 -0.6978  3.6280
  133MOL0     H17500   7.513   9.448   3.551 -1.7690 -0.1922  0.3405
  133MOL0     H17501   7.358   9.276   3.748  0.3959 -0.3479 -0.3826
  133MOL0     H17502   7.413   9.221   3.592 -1.8202 -0.2441 -0.7192
  133MOL0     H17503   7.267   9.394   3.487 -3.1443 -3.3475 -1.6976
  133MOL0     H17504   7.217   9.450   3.653 -0.6852  0.7441 -1.8088
  133MOL0     H17505   7.160   9.159   3.559  1.7925  0.1456 -1.4449
  133MOL0     H17506   7.118   9.236   3.706 -0.9596  0.2364 -0.2295
  133MOL0     H17507   7.004   9.427   3.580 -0.8342 -0.1199  1.4917
  133MOL0     H17508   6.928   9.269   3.613  0.4690 -0.5664 -0.7586
  133MOL0     H17509   6.987   9.499   3.295 -1.7275  0.2893  1.7892
  133MOL0     H17510   6.870   9.289   2.984 -0.3606  0.3635 -0.4072
  133MOL0     H17511   6.947   9.442   3.026 -2.5824  3.1191  1.9348
  133MOL0     H17512   6.766   9.537   3.097  1.8933  0.7597 -2.0163
  133MOL0     H17513   6.686   9.412   3.163 -0.2215  0.5112  1.0294
  133MOL0     H17514   6.731   9.471   2.856 -1.8794  0.3665 -1.2823
  133MOL0     H17515   6.639   9.333   2.910 -2.9294  1.0246 -0.5466
  133MOL0     H17516   6.476   9.499   2.828 -2.1474 -2.2874  2.1749
  133MOL0     H17517   6.547   9.628   2.938  0.9894 -0.1369  0.8238
  133MOL0     H17518   6.230   9.343   3.107  1.1980 -0.0075 -0.2285
  133MOL0     H17519   5.992   9.395   3.075 -1.8046  2.1107 -0.4343
  133MOL0     H17520   5.688   9.635   2.715  1.1246 -1.2665 -0.0367
  133MOL0     H17521   5.459   9.667   2.658  0.3158 -0.1436 -0.2946
  133MOL0     H17522   5.124   9.431   2.874  1.0173 -0.4309  0.0886
  133MOL0     H17523   5.227   9.344   2.744  1.1558  0.4448  0.3485
  133MOL0     H17524   4.979   9.379   2.706 -2.0300  0.9299 -1.5183
  133MOL0     H17525   5.089   9.411   2.574 -0.0314 -0.0068  0.6483
  133MOL0     H17526   5.066   9.665   2.654 -0.5083 -0.4145 -1.3848
  133MOL0     H17527   4.958   9.597   2.772 -0.1464  0.6327 -0.4224
  133MOL0     H17528   4.929   9.605   2.460 -2.5004 -0.3768 -1.8932
  133MOL0     H17529   4.821   9.506   2.552  0.2945  0.4420 -0.4549
  133MOL0     H17530   4.870   9.799   2.594 -1.8463  1.5275  2.0567
  133MOL0     H17531   4.748   9.697   2.686 -1.5762 -2.1503 -1.5299
  133MOL0     H17532   4.637   9.642   2.466  2.4397 -0.7889 -0.0353
  133MOL0     H17533   4.726   9.764   2.385 -0.6515 -0.7523 -0.4188
  133MOL0     H17534   4.631   9.936   2.553  0.6293  0.3058  1.7151
  133MOL0     H17535   4.524   9.846   2.437  1.2522  0.0312  0.2760
  133MOL0     H17536   4.564   9.800   2.738  2.5225  2.1083 -2.2247
  133MOL0     H17537   4.467   9.690   2.644 -3.8116  0.8035  3.8306
  133MOL0     H17538   5.345   9.401   2.984 -1.1821  0.3837 -0.8197
  133MOL0     H17539   5.599   9.398   3.052 -0.4244 -2.8170 -0.9430
  133MOL0     H17540   6.104   9.756   2.869  1.4378  0.6836  0.3998
  133MOL0     H17541   6.347   9.701   2.930 -0.2173  0.0559 -3.9000
  133MOL0     H17542   8.025   9.039   3.782 -0.7903  0.4327  1.8310
  133MOL0     H17543   8.199   9.021   3.935  0.0792 -0.8561 -3.1562
  133MOL0     H17544   8.551   9.470   4.259  0.4596  0.8247 -0.3143
  133MOL0     H17545   8.786   9.419   4.359  2.3971 -1.5873  0.0800
  133MOL0     H17546   8.998   9.079   4.239  1.7497 -0.0492 -0.1942
  133MOL0     H17547   8.941   9.017   4.395  0.5652 -0.6338 -0.3388
  133MOL0     H17548   9.129   9.109   4.513  0.0470 -3.8346 -0.0228
  133MOL0     H17549   9.184   9.012   4.379 -1.2837 -1.2077 -1.7669
  133MOL0     H17550   9.152   9.292   4.297  0.4207  1.4583  0.4330
  133MOL0     H17551   9.289   9.184   4.287  1.2758  1.7559  1.2624
  133MOL0     H17552   9.312   9.400   4.435 -0.4634 -0.3020 -1.6414
  133MOL0     H17553   9.210   9.317   4.551  1.5080  1.1275  0.9373
  133MOL0     H17554   9.514   9.146   4.695 -0.5455  0.8556  0.9750
  133MOL0     H17555   8.740   9.017   4.223 -2.5420 -0.7197  1.3193
  133MOL0     H17556   8.547   9.080   4.106 -0.6799 -0.1074  1.4920
  134MOL0     O17557   6.185   3.066   5.829  0.7270  0.0808  0.5279
  134MOL0     C17558   6.241   3.082   5.939 -0.1034  0.3910 -0.3065
  134MOL0     O17559   6.178   3.118   6.056 -0.0858  0.4261 -0.5058
  134MOL0     C17560   6.040   3.128   6.069 -0.6682 -0.5370 -0.2615
  134MOL0     C17561   5.940   3.129   5.963 -0.1136  0.7019 -0.2523
  134MOL0     C17562   5.812   3.152   6.005 -0.3167  0.7667  0.4996
  134MOL0     C17563   5.771   3.166   6.136  1.0419 -0.1755 -0.7165
  134MOL0     O17564   5.638   3.173   6.176  0.5310 -0.5161 -0.3384
  134MOL0     C17565   5.525   3.201   6.090  0.0614  0.5597  0.5510
  134MOL0     C17566   5.394   3.202   6.172  0.0749 -0.8559  0.0958
  134MOL0     C17567   5.319   3.064   6.180  0.9938 -0.0548  0.7327
  134MOL0     C17568   5.274   3.019   6.035  0.8649 -0.6175 -0.6059
  134MOL0     C17569   5.223   2.870   6.061  0.4661  0.4295  0.0886
  134MOL0     C17570   5.078   2.867   6.118  0.0028  0.3473 -0.0876
  134MOL0     C17571   5.039   2.719   6.157  0.4978  0.0731 -0.0976
  134MOL0     C17572   4.896   2.701   6.215  0.1506  0.2249 -0.3158
  134MOL0     N17573   4.793   2.712   6.124  0.2467  0.3668  0.8017
  134MOL0     C17574   4.698   2.812   6.112  0.6856 -1.0830  0.5301
  134MOL0     C17575   4.608   2.776   6.013 -0.8893  0.4586 -0.1504
  134MOL0     C17576   4.494   2.864   5.964  0.5692  0.0535 -0.7036
  134MOL0     C17577   4.368   2.791   6.006 -0.6175 -0.2343  0.5594
  134MOL0     C17578   4.259   2.881   5.969  0.1116 -0.2798  0.0262
  134MOL0     C17579   4.125   2.801   5.980  0.3815 -0.2850 -0.3834
  134MOL0     O17580   4.044   2.851   5.877 -0.2374 -0.8046 -0.3685
  134MOL0     C17581   3.902   2.839   5.899 -1.0364  0.6730  0.0688
  134MOL0     C17582   3.840   2.749   5.987  0.3903 -0.5959 -0.3922
  134MOL0     C17583   3.702   2.749   5.996  0.0850  0.0176 -0.1548
  134MOL0     C17584   3.624   2.833   5.911 -0.3827  0.1989 -1.2193
  134MOL0     C17585   3.482   2.840   5.941  0.3819 -0.2372 -0.4894
  134MOL0     O17586   3.409   2.846   5.824 -0.0951  0.0485 -0.3904
  134MOL0     C17587   3.269   2.834   5.831  0.0125 -0.1342  0.4857
  134MOL0     C17588   3.202   2.925   5.918 -0.8838  0.3956  0.1165
  134MOL0     C17589   3.068   2.900   5.931 -0.0359 -0.4858  0.1091
  134MOL0     C17590   2.992   2.793   5.873 -0.3190 -0.7824 -0.5155
  134MOL0     O17591   2.864   2.774   5.913  0.8280  0.0265  0.2661
  134MOL0     C17592   2.759   2.739   5.816 -0.3532  0.6407 -0.7307
  134MOL0     C17593   2.676   2.863   5.765  0.4610  0.0687 -0.4601
  134MOL0     C17594   2.738   2.925   5.636  0.8363 -0.7236 -0.1690
  134MOL0     C17595   2.631   3.015   5.570  0.6650 -0.3842  0.2395
  134MOL0     C17596   2.650   3.010   5.414 -0.6363  0.6871 -0.3027
  134MOL0     C17597   2.553   3.101   5.341  0.1944 -0.0804 -0.2491
  134MOL0     C17598   2.585   3.134   5.204  0.3246  0.5811  0.4059
  134MOL0     C17599   2.567   3.013   5.105 -0.7810 -1.0286  0.1570
  134MOL0    Cl17600   2.413   2.928   5.126 -0.2547  0.1065  0.2043
  134MOL0     C17601   3.059   2.709   5.791 -0.1363  0.2339 -0.0927
  134MOL0     C17602   3.195   2.726   5.771  0.0701 -0.3821  0.0947
  134MOL0     O17603   3.441   2.823   6.054  0.0364  0.6117  1.5485
  134MOL0     C17604   3.684   2.923   5.820 -0.0127  0.3434  0.0301
  134MOL0     C17605   3.822   2.923   5.824  0.4035 -0.4529 -0.3929
  134MOL0     N17606   4.643   2.649   5.988  0.5266 -1.3062 -0.1914
  134MOL0     N17607   4.749   2.608   6.045  0.3105 -0.2811 -0.5907
  134MOL0     C17608   5.870   3.173   6.239  0.6928  0.1823  0.9876
  134MOL0     C17609   6.003   3.152   6.199 -0.1825  0.3279 -0.4236
  134MOL0     C17610   6.382   3.065   5.941 -0.3209  1.5422  0.1381
  134MOL0     C17611   6.464   3.108   6.050  0.3174 -0.0416 -0.1940
  134MOL0     C17612   6.607   3.099   6.042  0.2290  0.7814  0.5434
  134MOL0     C17613   6.670   3.027   5.939  0.3427 -0.3764 -0.3178
  134MOL0     O17614   6.808   3.011   5.943 -0.0202 -0.4863 -1.1273
  134MOL0     C17615   6.888   2.938   5.855 -0.9164  0.0738 -0.8106
  134MOL0     C17616   7.012   2.913   5.931  0.0118  0.2869 -0.2746
  134MOL0     C17617   7.100   2.842   5.823  0.4392  0.5439 -0.1318
  134MOL0     C17618   7.246   2.812   5.866  0.4741 -0.5175  0.2978
  134MOL0     C17619   7.247   2.714   5.976  0.1571  0.1511 -0.0683
  134MOL0     C17620   7.269   2.649   6.073  0.5892  0.4644 -0.1024
  134MOL0     C17621   6.584   2.975   5.838 -0.1629  0.5739  0.3495
  134MOL0     C17622   6.444   2.989   5.840 -0.0503 -0.3567 -0.0937
  134MOL0     H17623   5.963   3.125   5.857 -0.4705 -0.9112 -0.2940
  134MOL0     H17624   5.738   3.150   5.926  2.0153 -2.1930 -1.8299
  134MOL0     H17625   5.526   3.130   6.007  5.4008  1.7080 -0.7644
  134MOL0     H17626   5.548   3.298   6.045  1.4955 -0.2296 -0.5305
  134MOL0     H17627   5.335   3.283   6.128 -1.8873 -1.9895  0.5551
  134MOL0     H17628   5.414   3.252   6.267 -0.8181  2.4868 -1.3138
  134MOL0     H17629   5.227   3.062   6.239 -0.8955 -1.2622 -2.0366
  134MOL0     H17630   5.388   3.000   6.237  1.4320  0.6077  0.9620
  134MOL0     H17631   5.190   3.082   6.005  0.9679 -1.2909 -2.4100
  134MOL0     H17632   5.343   3.029   5.950  0.1398  3.3783 -0.9494
  134MOL0     H17633   5.296   2.828   6.132  2.8762  1.9683 -1.3060
  134MOL0     H17634   5.222   2.809   5.970 -1.8688  0.2303  0.1896
  134MOL0     H17635   5.002   2.884   6.042  1.1099 -1.0224 -1.5791
  134MOL0     H17636   5.067   2.934   6.204  0.4240  1.4325 -0.8580
  134MOL0     H17637   5.050   2.649   6.073 -0.2049  0.6611 -0.6989
  134MOL0     H17638   5.110   2.675   6.227  3.0131  2.0487 -1.2560
  134MOL0     H17639   4.890   2.774   6.297  0.3139 -1.3128  1.1225
  134MOL0     H17640   4.888   2.599   6.253 -0.5101  0.1954 -0.5264
  134MOL0     H17641   4.711   2.914   6.145  0.6373 -0.9103  0.0151
  134MOL0     H17642   4.501   2.871   5.855 -0.1530  3.5267 -0.6256
  134MOL0     H17643   4.493   2.960   6.015  1.7149  0.3524 -1.2277
  134MOL0     H17644   4.353   2.775   6.113 -0.1621 -2.7811  0.3159
  134MOL0     H17645   4.368   2.698   5.949  1.6605  1.1956 -2.0306
  134MOL0     H17646   4.262   2.974   6.026  4.0277  0.2880 -0.8262
  134MOL0     H17647   4.260   2.908   5.863 -1.9460 -2.1315 -0.5373
  134MOL0     H17648   4.088   2.819   6.081  0.3437 -3.6102  0.3013
  134MOL0     H17649   4.140   2.693   5.976 -1.3093 -0.5763  0.3487
  134MOL0     H17650   3.898   2.682   6.050  1.6701  2.8917  2.4295
  134MOL0     H17651   3.658   2.687   6.073 -2.0116  0.7913 -0.6397
  134MOL0     H17652   3.249   3.011   5.965 -0.8645  0.2164  0.4296
  134MOL0     H17653   3.003   2.959   5.994  1.6950  4.4919 -2.2187
  134MOL0     H17654   2.686   2.681   5.873  0.9614 -1.3534 -0.9544
  134MOL0     H17655   2.791   2.674   5.734 -1.3434 -1.3849  0.4131
  134MOL0     H17656   2.677   2.952   5.828 -2.9110 -0.2453  0.2454
  134MOL0     H17657   2.571   2.835   5.749  1.0981 -1.2281 -2.8080
  134MOL0     H17658   2.770   2.850   5.563  1.1959  0.1016 -0.8772
  134MOL0     H17659   2.826   2.982   5.665 -1.1506  1.9538  1.0019
  134MOL0     H17660   2.535   2.970   5.598  0.2272  0.9426  0.9515
  134MOL0     H17661   2.628   3.120   5.600 -0.4941 -0.1151 -0.7596
  134MOL0     H17662   2.634   2.908   5.378  0.0212  1.1233 -1.9110
  134MOL0     H17663   2.747   3.055   5.391 -0.6257  1.2914  0.8433
  134MOL0     H17664   2.564   3.196   5.394 -1.0035  0.6054 -1.1652
  134MOL0     H17665   2.449   3.073   5.360 -0.4798  2.5260  0.3391
  134MOL0     H17666   2.518   3.216   5.175  1.2193  1.1042 -0.2555
  134MOL0     H17667   2.682   3.182   5.187  0.6905 -0.6712 -1.3368
  134MOL0     H17668   2.659   2.956   5.117  1.3925  2.0095 -0.8689
  134MOL0     H17669   2.571   3.034   4.998  1.5022  0.0483  0.4043
  134MOL0     H17670   3.017   2.620   5.744 -0.9030  0.8399 -0.5682
  134MOL0     H17671   3.248   2.657   5.705  1.8361 -2.4042  3.3814
  134MOL0     H17672   3.630   2.992   5.756  0.5455  1.4360  0.7113
  134MOL0     H17673   3.867   2.996   5.758 -0.2627  1.6787  1.3743
  134MOL0     H17674   5.832   3.184   6.340  1.1253  0.5359  1.1170
  134MOL0     H17675   6.075   3.153   6.280 -1.3455 -4.6052  0.9936
  134MOL0     H17676   6.414   3.168   6.125  2.9042  1.7736  0.2434
  134MOL0     H17677   6.661   3.129   6.132 -0.1291 -0.4487  1.1896
  134MOL0     H17678   6.902   2.983   5.756 -0.5603 -1.6048 -1.5701
  134MOL0     H17679   6.834   2.843   5.845  1.6162 -1.7426  1.3806
  134MOL0     H17680   7.065   2.997   5.975  2.3445 -0.4715 -1.4437
  134MOL0     H17681   6.993   2.846   6.015  0.3346 -0.0289 -0.4493
  134MOL0     H17682   7.107   2.918   5.744  1.6667  0.1648 -0.4104
  134MOL0     H17683   7.051   2.754   5.781 -0.6546 -0.8517  3.7122
  134MOL0     H17684   7.307   2.777   5.782 -0.2577  0.6247 -0.7438
  134MOL0     H17685   7.293   2.899   5.912  3.0673 -1.5611 -0.2087
  134MOL0     H17686   7.290   2.589   6.159 -1.9444  2.5842  2.1616
  134MOL0     H17687   6.629   2.921   5.755  0.8073 -1.5952  2.1595
  134MOL0     H17688   6.393   2.959   5.750 -0.8128  2.2126 -0.6080
  135MOL0     O17689   4.248   7.002  10.717 -0.1326  0.9679 -0.2042
  135MOL0     C17690   4.255   6.997  10.600  0.1901  0.8478 -0.3395
  135MOL0     O17691   4.147   6.980  10.512  0.3354  0.3553 -0.1349
  135MOL0     C17692   4.027   7.022  10.568  0.2211  0.8275  0.3124
  135MOL0     C17693   3.980   6.924  10.658 -0.1960 -0.1264 -0.6778
  135MOL0     C17694   3.862   6.941  10.720  0.6562 -0.1951 -0.2034
  135MOL0     C17695   3.788   7.064  10.694  0.0664  0.5874 -0.4927
  135MOL0     O17696   3.671   7.089  10.764  0.1809  0.6780 -0.2168
  135MOL0     C17697   3.558   7.114  10.679 -0.4957 -0.5742  0.1836
  135MOL0     C17698   3.422   7.056  10.729  0.0550 -0.5205 -1.0140
  135MOL0     C17699   3.308   7.109  10.638  1.2715 -0.7088  0.0627
  135MOL0     C17700   3.165   7.066  10.689 -0.1281  0.0946 -0.5439
  135MOL0     C17701   3.054   7.152  10.627  0.7664 -0.5824  0.4149
  135MOL0     C17702   3.013   7.087  10.500  0.1159 -0.4140 -0.6477
  135MOL0     C17703   2.926   7.171  10.410 -0.1032 -0.0799 -0.0347
  135MOL0     C17704   2.862   7.054  10.327  1.1260 -0.9744  0.7530
  135MOL0     N17705   2.840   7.095  10.188 -0.6273  0.2371 -0.1776
  135MOL0     C17706   2.761   7.195  10.144  0.3153  0.2839  0.9119
  135MOL0     C17707   2.753   7.179  10.011 -0.9740 -0.5656  1.0444
  135MOL0     C17708   2.662   7.259   9.913 -0.1920 -0.1446  0.3709
  135MOL0     C17709   2.510   7.232   9.953  0.0172  0.6314  0.6427
  135MOL0     C17710   2.415   7.293   9.839 -0.4847  0.0995  0.4579
  135MOL0     C17711   2.269   7.246   9.877 -0.1973 -0.2325 -1.2613
  135MOL0     O17712   2.184   7.272   9.767  0.0591  0.2311  0.1902
  135MOL0     C17713   2.051   7.291   9.794 -0.4559  0.6548 -0.5301
  135MOL0     C17714   1.995   7.397   9.723  0.2398 -0.7009  0.3612
  135MOL0     C17715   1.858   7.399   9.740 -1.0669  0.6153 -1.0161
  135MOL0     C17716   1.778   7.317   9.832 -1.2046 -1.2337 -0.4743
  135MOL0     C17717   1.630   7.336   9.840  0.3799 -0.3099  0.9476
  135MOL0     O17718   1.565   7.253   9.939  0.3699  0.1398  1.0109
  135MOL0     C17719   1.430   7.266   9.974 -0.0857  0.8510 -1.2767
  135MOL0     C17720   1.320   7.288   9.893  0.3341  0.7300  0.0113
  135MOL0     C17721   1.195   7.306   9.953  0.0885  0.4700 -0.2551
  135MOL0     C17722   1.176   7.305  10.088  0.7496 -0.1507 -0.1580
  135MOL0     O17723   1.050   7.325  10.138 -0.0760 -0.5311  0.0783
  135MOL0     C17724   1.018   7.437  10.219 -0.6255  0.5522  0.7168
  135MOL0     C17725   0.909   7.509  10.143 -0.2035  0.5311  0.1078
  135MOL0     C17726   0.773   7.433  10.158 -0.4556  0.1076 -0.5027
  135MOL0     C17727   0.634   7.485  10.118 -0.6230 -0.5226 -0.1369
  135MOL0     C17728   0.587   7.607  10.201 -0.0469 -0.2352  0.6431
  135MOL0     C17729   0.584   7.592  10.353 -0.4843 -0.1370 -0.3065
  135MOL0     C17730   0.520   7.456  10.394 -0.6368 -0.9827  0.0175
  135MOL0     C17731   0.485   7.436  10.547  0.5799 -0.3125  0.0104
  135MOL0    Cl17732   0.321   7.493  10.585 -0.3341  0.2584  0.3527
  135MOL0     C17733   1.289   7.289  10.171 -0.0065  0.3418  0.3450
  135MOL0     C17734   1.411   7.261  10.107 -0.5272  0.0029 -0.8730
  135MOL0     O17735   1.574   7.433   9.784  0.2703  0.6113 -0.0613
  135MOL0     C17736   1.843   7.227   9.908 -0.2895 -0.1622  0.0216
  135MOL0     C17737   1.982   7.207   9.886  0.0118 -1.0591 -0.2920
  135MOL0     N17738   2.854   7.090   9.972 -0.5999  0.6365  0.1385
  135MOL0     N17739   2.902   7.038  10.082 -0.1271 -0.0186  0.0854
  135MOL0     C17740   3.835   7.154  10.600  0.5100 -0.0034  0.0682
  135MOL0     C17741   3.956   7.132  10.536 -0.7144 -0.3378  0.4225
  135MOL0     C17742   4.383   6.976  10.532  0.2598  0.5252  0.0219
  135MOL0     C17743   4.388   6.907  10.411 -0.6432  0.0810  0.3904
  135MOL0     C17744   4.508   6.885  10.333  0.1376 -0.7126  0.0969
  135MOL0     C17745   4.626   6.933  10.370 -0.7069  0.1419 -0.4226
  135MOL0     O17746   4.748   6.903  10.301  0.1848  0.0198  0.6868
  135MOL0     C17747   4.863   6.979  10.350  0.4021  1.0669 -0.1596
  135MOL0     C17748   4.983   6.950  10.264  0.1960 -0.1402  0.3020
  135MOL0     C17749   4.973   7.021  10.128  0.5348 -0.1266 -0.3279
  135MOL0     C17750   5.062   6.959  10.027  0.1417  0.9151  0.2082
  135MOL0     C17751   5.029   6.817  10.007  0.0170  0.8868  0.2657
  135MOL0     C17752   5.000   6.693   9.989  0.1833  0.2552 -0.0888
  135MOL0     C17753   4.628   7.017  10.487  0.4088  1.1535 -0.7013
  135MOL0     C17754   4.509   7.033  10.564  0.3022  0.2418 -0.1538
  135MOL0     H17755   4.036   6.836  10.688 -0.1911 -0.3286 -1.2591
  135MOL0     H17756   3.831   6.883  10.806  0.7215  1.6492  1.1157
  135MOL0     H17757   3.584   7.082  10.577  1.9334 -2.2655  1.2626
  135MOL0     H17758   3.547   7.223  10.679 -1.5945 -0.6576  1.4234
  135MOL0     H17759   3.408   7.087  10.833  0.4779 -1.9982 -0.4871
  135MOL0     H17760   3.433   6.947  10.726  2.9542 -0.3451 -0.1093
  135MOL0     H17761   3.321   7.086  10.532 -1.9503 -1.1210 -0.3442
  135MOL0     H17762   3.302   7.218  10.633 -1.1722 -0.8428 -1.2087
  135MOL0     H17763   3.152   6.958  10.675  0.6401 -0.3739  1.8220
  135MOL0     H17764   3.160   7.085  10.797  0.6907  2.1796 -0.8251
  135MOL0     H17765   3.102   7.248  10.607  0.8282 -0.4839  1.0204
  135MOL0     H17766   2.966   7.157  10.691 -1.2720  2.0799 -2.3407
  135MOL0     H17767   2.948   7.005  10.531 -1.1016 -0.6269 -3.4996
  135MOL0     H17768   3.101   7.047  10.448  3.0713  0.9928  2.7795
  135MOL0     H17769   2.851   7.230  10.464  0.9163  1.1656  0.0571
  135MOL0     H17770   2.988   7.243  10.356 -4.3386  3.4144 -0.8049
  135MOL0     H17771   2.767   7.023  10.371  0.5448 -1.9460 -1.0734
  135MOL0     H17772   2.932   6.971  10.315  1.6652 -0.6720  1.6955
  135MOL0     H17773   2.700   7.268  10.196 -2.8330 -1.5275  0.0562
  135MOL0     H17774   2.695   7.253   9.809  1.6767  1.5338  0.8007
  135MOL0     H17775   2.666   7.366   9.933 -0.8226  0.6564 -3.0675
  135MOL0     H17776   2.487   7.279  10.049  0.8497  1.0245  0.6510
  135MOL0     H17777   2.492   7.124   9.964  2.8427 -0.0944 -0.9091
  135MOL0     H17778   2.427   7.402   9.841 -0.8114  0.1427  2.2381
  135MOL0     H17779   2.443   7.251   9.742 -0.8190  0.0072  0.4001
  135MOL0     H17780   2.239   7.293   9.972  1.4432  0.4843 -1.0437
  135MOL0     H17781   2.275   7.140   9.903  1.8939 -0.3930 -2.1587
  135MOL0     H17782   2.058   7.463   9.664  2.0167 -0.1963  2.6610
  135MOL0     H17783   1.803   7.457   9.667 -2.6937  2.8818  1.7834
  135MOL0     H17784   1.305   7.302   9.787 -0.7837  0.4898  0.1175
  135MOL0     H17785   1.111   7.324   9.886  0.5494  1.2482 -0.6363
  135MOL0     H17786   1.100   7.508  10.210 -0.0899 -0.3575 -2.8545
  135MOL0     H17787   0.996   7.417  10.325 -0.6599  0.7912  0.7558
  135MOL0     H17788   0.927   7.501  10.036 -1.4426  0.7271 -0.1386
  135MOL0     H17789   0.898   7.615  10.170  0.3133  1.3606 -2.7115
  135MOL0     H17790   0.771   7.413  10.265 -0.7193  1.2196 -0.2862
  135MOL0     H17791   0.786   7.335  10.111 -1.4464  0.0288 -0.6344
  135MOL0     H17792   0.621   7.520  10.015 -1.5783 -1.6186 -0.4114
  135MOL0     H17793   0.567   7.401  10.137 -4.1364  1.4361 -2.5951
  135MOL0     H17794   0.481   7.612  10.178  0.2228 -1.1313 -0.8604
  135MOL0     H17795   0.638   7.698  10.167 -1.9085 -0.4329 -3.1540
  135MOL0     H17796   0.526   7.672  10.401 -1.9311 -0.4038 -1.5204
  135MOL0     H17797   0.684   7.591  10.397  0.2689  2.6861 -1.7123
  135MOL0     H17798   0.430   7.449  10.332  1.0912  1.9674 -3.1978
  135MOL0     H17799   0.581   7.370  10.367 -1.6489 -1.9204  0.6224
  135MOL0     H17800   0.563   7.497  10.595 -0.0735  1.1178 -0.6722
  135MOL0     H17801   0.509   7.331  10.566 -0.8218 -0.4993  0.8297
  135MOL0     H17802   1.271   7.272  10.277 -2.7406 -0.2139 -0.1370
  135MOL0     H17803   1.497   7.246  10.171 -0.8731  2.2879  0.2203
  135MOL0     H17804   1.792   7.163   9.979  1.2787  2.5895  3.9861
  135MOL0     H17805   2.026   7.130   9.948 -2.1023 -1.0795  1.2715
  135MOL0     H17806   3.781   7.246  10.583  1.0444  0.8798  2.6837
  135MOL0     H17807   3.982   7.202  10.457 -2.6644  0.3544  0.3265
  135MOL0     H17808   4.296   6.864  10.372  0.8748 -1.2314 -2.0188
  135MOL0     H17809   4.507   6.834  10.237 -3.2577 -0.5683 -0.0807
  135MOL0     H17810   4.889   6.965  10.456  3.6642  1.6649 -0.7532
  135MOL0     H17811   4.840   7.085  10.339 -0.0678  1.2665  2.2257
  135MOL0     H17812   5.070   6.997  10.310  1.1867 -4.0343  2.8345
  135MOL0     H17813   4.995   6.841  10.264 -0.3822 -0.2350 -1.4979
  135MOL0     H17814   4.984   7.129  10.129 -0.4632 -0.0109 -0.3363
  135MOL0     H17815   4.869   7.006  10.098  0.6551 -0.2446 -0.6992
  135MOL0     H17816   5.043   7.000   9.927  4.6527 -3.5351 -3.0434
  135MOL0     H17817   5.165   6.978  10.057 -0.5768  5.2522  0.4402
  135MOL0     H17818   4.978   6.591   9.965 -1.6497 -0.0016  2.2921
  135MOL0     H17819   4.720   7.050  10.533 -0.3983 -2.0341  3.7295
  135MOL0     H17820   4.523   7.091  10.654 -1.4241  1.5543 -0.6711
  136MOL0     O17821   6.539   8.674   4.108  0.8925  1.1466  0.1855
  136MOL0     C17822   6.607   8.650   4.008 -0.0666  0.6128 -0.6934
  136MOL0     O17823   6.578   8.566   3.899 -0.0461  0.8213 -0.3019
  136MOL0     C17824   6.468   8.476   3.893 -0.7079 -0.0597  0.1055
  136MOL0     C17825   6.447   8.416   3.771 -0.5402  0.0618  0.5109
  136MOL0     C17826   6.330   8.350   3.748 -0.0656 -0.3742 -0.6753
  136MOL0     C17827   6.238   8.333   3.844 -0.0755  0.1234  0.2854
  136MOL0     O17828   6.124   8.266   3.824  1.0889 -0.5565 -0.3044
  136MOL0     C17829   6.109   8.148   3.738 -0.2270 -0.2806  0.2115
  136MOL0     C17830   6.005   8.046   3.777  0.6990  0.2378 -0.7903
  136MOL0     C17831   5.876   8.113   3.831  0.1690  0.0237 -0.0098
  136MOL0     C17832   5.759   8.010   3.856 -0.2446 -0.2322  0.3911
  136MOL0     C17833   5.633   8.079   3.902 -0.6799  0.3519  0.5619
  136MOL0     C17834   5.520   7.981   3.894  0.6482  0.8909 -0.2175
  136MOL0     C17835   5.524   7.864   4.004 -0.1770  0.8268 -0.3436
  136MOL0     C17836   5.439   7.744   3.965  0.0977 -0.7481  0.2695
  136MOL0     N17837   5.300   7.779   3.969 -0.6123 -0.0282 -0.1738
  136MOL0     C17838   5.224   7.749   4.075  0.2803  0.2902 -0.5947
  136MOL0     C17839   5.096   7.747   4.030 -0.1462 -0.0625 -0.5829
  136MOL0     C17840   4.974   7.692   4.109 -1.0593 -0.4978 -0.8691
  136MOL0     C17841   4.903   7.572   4.049  0.8620 -1.2727  0.1452
  136MOL0     C17842   4.776   7.536   4.138  0.2173 -0.1915 -0.0128
  136MOL0     C17843   4.657   7.630   4.104 -0.7333  0.1984 -0.3421
  136MOL0     O17844   4.601   7.617   3.975 -0.3642 -0.3493  0.2834
  136MOL0     C17845   4.478   7.672   3.968  0.1765 -0.3561  0.3989
  136MOL0     C17846   4.462   7.805   3.996  0.3833  0.3147 -0.4753
  136MOL0     C17847   4.331   7.859   3.984 -0.6855  0.4507  0.5230
  136MOL0     C17848   4.223   7.777   3.937  1.0598  0.1930  0.2408
  136MOL0     C17849   4.083   7.838   3.918 -0.5028 -0.4221 -0.2062
  136MOL0     O17850   4.067   7.973   3.920 -0.2972 -0.1808  0.9518
  136MOL0     C17851   3.934   8.020   3.899 -0.7759  0.5866 -0.5899
  136MOL0     C17852   3.864   7.990   3.785 -0.5036 -0.2673 -0.2213
  136MOL0     C17853   3.732   8.046   3.779 -0.2679  0.5101 -0.1025
  136MOL0     C17854   3.668   8.117   3.884  0.5030 -0.0578  0.1891
  136MOL0     O17855   3.539   8.150   3.853 -0.1538  0.5093 -0.3752
  136MOL0     C17856   3.498   8.243   3.956 -0.0520 -0.1898 -0.2672
  136MOL0     C17857   3.364   8.298   3.904  0.7075  1.2771  0.2709
  136MOL0     C17858   3.284   8.371   4.024  0.7622  0.3332 -0.1532
  136MOL0     C17859   3.146   8.418   3.962 -0.2041 -0.7984  0.7245
  136MOL0     C17860   3.052   8.455   4.079 -0.3433  0.2761  0.0337
  136MOL0     C17861   2.911   8.459   4.026  0.2460 -0.6996  0.5657
  136MOL0     C17862   2.814   8.489   4.137 -0.9992 -0.1082 -0.6911
  136MOL0     C17863   2.676   8.491   4.092  0.0522  0.0104  0.2687
  136MOL0    Cl17864   2.556   8.557   4.219 -0.2414  0.5413  0.4922
  136MOL0     C17865   3.744   8.143   3.999 -0.1352  0.1313  0.5815
  136MOL0     C17866   3.877   8.093   4.000 -0.3457  0.1569 -0.2388
  136MOL0     O17867   3.995   7.750   3.892  0.2527  0.7735  0.1617
  136MOL0     C17868   4.251   7.640   3.911  0.5003  1.0925  0.3532
  136MOL0     C17869   4.380   7.589   3.920 -0.8030 -0.2659 -1.5437
  136MOL0     N17870   5.088   7.778   3.892 -0.2991 -0.5520 -0.4194
  136MOL0     N17871   5.213   7.795   3.856 -0.5313  0.1271 -0.3379
  136MOL0     C17872   6.256   8.399   3.962  0.2565  0.2303  0.3353
  136MOL0     C17873   6.371   8.464   3.996 -0.4974 -0.2402  0.3495
  136MOL0     C17874   6.745   8.709   3.999 -0.1065  0.5923 -1.1221
  136MOL0     C17875   6.835   8.672   3.890 -0.3608 -0.8188  0.5273
  136MOL0     C17876   6.962   8.727   3.870 -0.6805  0.1113  0.4213
  136MOL0     C17877   7.013   8.806   3.963  0.0469  0.5511 -1.0030
  136MOL0     O17878   7.137   8.853   3.941 -1.0994 -0.0339  0.0022
  136MOL0     C17879   7.156   8.994   3.957 -0.7523 -0.4146  0.0874
  136MOL0     C17880   7.304   9.005   4.015 -0.1033 -0.3285 -0.7821
  136MOL0     C17881   7.357   9.146   4.035 -1.6891 -0.3765  0.8980
  136MOL0     C17882   7.439   9.152   4.170  0.7883 -0.1458 -0.5505
  136MOL0     C17883   7.354   9.131   4.301 -0.9037 -0.4040  1.1347
  136MOL0     C17884   7.288   9.134   4.407 -0.6246  0.4869 -0.3428
  136MOL0     C17885   6.939   8.831   4.083 -0.6665 -0.3892  0.3938
  136MOL0     C17886   6.803   8.790   4.096  0.1085  1.2037  0.5838
  136MOL0     H17887   6.523   8.421   3.693  1.1954  0.5594  2.1654
  136MOL0     H17888   6.319   8.301   3.652  0.3659  0.6892 -1.2969
  136MOL0     H17889   6.199   8.087   3.731 -0.6750 -0.9972  0.5752
  136MOL0     H17890   6.077   8.185   3.639 -1.7258 -0.9715  0.4106
  136MOL0     H17891   6.055   7.977   3.846  2.2119  2.4887  0.4937
  136MOL0     H17892   5.978   7.985   3.690  0.3796  0.9441 -1.1852
  136MOL0     H17893   5.844   8.185   3.755  0.0602  0.0178  0.0310
  136MOL0     H17894   5.898   8.161   3.926  1.8735 -1.4524  0.3924
  136MOL0     H17895   5.743   7.960   3.760 -1.7719  0.8634  0.0393
  136MOL0     H17896   5.806   7.943   3.928  2.1277 -0.4477 -1.2311
  136MOL0     H17897   5.625   8.166   3.836  0.6714  0.1929  0.1526
  136MOL0     H17898   5.644   8.114   4.005  4.0946 -0.4256  0.5345
  136MOL0     H17899   5.534   7.932   3.796  0.5096 -0.3289  0.3459
  136MOL0     H17900   5.422   8.029   3.892 -0.3059 -0.8259  1.4489
  136MOL0     H17901   5.630   7.842   4.017 -0.5302 -1.4195 -0.8881
  136MOL0     H17902   5.487   7.912   4.095  1.0301  1.0658  0.0343
  136MOL0     H17903   5.447   7.655   4.028  0.6387 -0.5394  0.5092
  136MOL0     H17904   5.459   7.708   3.864  2.1880  0.1125  0.3156
  136MOL0     H17905   5.242   7.711   4.175 -2.8791 -3.0825 -1.0981
  136MOL0     H17906   4.898   7.768   4.126 -0.8732 -0.7226  1.2611
  136MOL0     H17907   4.999   7.658   4.210  1.2746 -1.6995 -1.7653
  136MOL0     H17908   4.984   7.499   4.040  3.4491  1.4864 -0.6056
  136MOL0     H17909   4.867   7.597   3.949 -0.0127 -3.1300 -0.0515
  136MOL0     H17910   4.766   7.429   4.115 -1.8953  0.0187 -0.2579
  136MOL0     H17911   4.793   7.541   4.246 -0.3290 -3.2006  0.3171
  136MOL0     H17912   4.693   7.733   4.108 -0.8261  0.3378 -2.1059
  136MOL0     H17913   4.577   7.616   4.178 -0.6089  2.5429  0.3395
  136MOL0     H17914   4.545   7.872   4.018  0.0538  0.0990  1.5755
  136MOL0     H17915   4.299   7.960   4.008  1.7178  1.4485 -0.1902
  136MOL0     H17916   3.917   7.942   3.703  0.7171 -0.3905  0.6093
  136MOL0     H17917   3.675   8.024   3.689  0.5740 -0.4961 -0.4001
  136MOL0     H17918   3.570   8.325   3.974  1.8392 -1.5868 -1.1032
  136MOL0     H17919   3.494   8.182   4.047  1.1100 -0.2938 -0.2687
  136MOL0     H17920   3.300   8.216   3.870 -0.5784  2.1576  0.4798
  136MOL0     H17921   3.382   8.357   3.815 -0.1044 -1.2865 -1.7203
  136MOL0     H17922   3.342   8.457   4.058  2.1873 -0.6095 -0.1057
  136MOL0     H17923   3.270   8.295   4.101 -1.2670 -1.5030 -2.1838
  136MOL0     H17924   3.161   8.513   3.910 -2.0447 -1.1800 -0.6285
  136MOL0     H17925   3.099   8.351   3.889  0.4702  2.1163 -2.7158
  136MOL0     H17926   3.073   8.554   4.121 -1.1429 -0.6333  2.8283
  136MOL0     H17927   3.054   8.387   4.165  0.1893 -0.0484 -0.2263
  136MOL0     H17928   2.898   8.358   3.987  0.6004  0.1414 -1.8953
  136MOL0     H17929   2.905   8.526   3.939 -1.2274 -1.6981 -0.1415
  136MOL0     H17930   2.828   8.421   4.222  1.7308 -0.9577 -1.7073
  136MOL0     H17931   2.844   8.590   4.165  0.2160 -0.8037  0.6912
  136MOL0     H17932   2.646   8.391   4.060  3.3868 -2.0914  2.9578
  136MOL0     H17933   2.654   8.555   4.007  0.4272  0.1134  0.2483
  136MOL0     H17934   3.702   8.190   4.088 -1.8385  1.4931 -0.8550
  136MOL0     H17935   3.934   8.107   4.091  0.4381  1.3357 -0.8791
  136MOL0     H17936   4.175   7.569   3.880  0.7008  1.2352 -0.5098
  136MOL0     H17937   4.399   7.487   3.890  5.7253 -0.3053  1.1994
  136MOL0     H17938   6.187   8.398   4.045 -0.5800  0.1856 -0.3484
  136MOL0     H17939   6.366   8.530   4.082 -2.6177 -0.4941  0.4785
  136MOL0     H17940   6.801   8.603   3.814 -0.7886 -1.4337  1.2572
  136MOL0     H17941   7.013   8.705   3.777 -2.5721 -2.0052 -0.2146
  136MOL0     H17942   7.074   9.047   4.005 -0.3043  0.6920 -0.3277
  136MOL0     H17943   7.151   9.048   3.862 -1.0104  0.6052  0.6652
  136MOL0     H17944   7.292   8.943   4.104  0.5810 -1.3928 -1.4020
  136MOL0     H17945   7.372   8.950   3.949  0.8736 -0.8501  0.6069
  136MOL0     H17946   7.263   9.203   4.041 -1.8788 -0.6224  0.3001
  136MOL0     H17947   7.417   9.182   3.951 -2.6718  2.5675  1.3173
  136MOL0     H17948   7.513   9.072   4.171 -0.3825 -1.2983 -1.5153
  136MOL0     H17949   7.483   9.252   4.169 -3.8353  2.1845  0.4684
  136MOL0     H17950   7.227   9.139   4.495 -1.9460  1.8559 -1.2853
  136MOL0     H17951   6.986   8.897   4.156 -0.7156  1.3727 -1.0990
  136MOL0     H17952   6.749   8.821   4.185  0.6482  1.6519  0.7605
  137MOL0     O17953   3.405   6.366   7.202 -0.3350  0.1792  0.5016
  137MOL0     C17954   3.470   6.263   7.229  0.3295  0.2313 -0.3021
  137MOL0     O17955   3.426   6.136   7.200 -0.4630 -0.4632  0.7901
  137MOL0     C17956   3.320   6.124   7.110  0.0967  0.4123  0.1494
  137MOL0     C17957   3.342   6.162   6.975  1.0560 -1.1022 -0.2105
  137MOL0     C17958   3.243   6.139   6.870 -0.0793 -0.1573 -0.8223
  137MOL0     C17959   3.124   6.060   6.912 -0.7159 -0.2469  0.6087
  137MOL0     O17960   3.034   6.034   6.813 -0.3018 -0.5494  0.0540
  137MOL0     C17961   2.909   5.962   6.837  0.5356 -0.1008  0.4193
  137MOL0     C17962   2.820   5.984   6.728  0.3192 -0.1392  0.4384
  137MOL0     C17963   2.669   5.935   6.741  0.7635 -0.2904 -0.3369
  137MOL0     C17964   2.572   6.033   6.667 -0.6228  0.2706 -0.6899
  137MOL0     C17965   2.426   6.020   6.712  0.4442  0.3438  0.1027
  137MOL0     C17966   2.326   6.099   6.613 -0.4057 -0.8127  0.1767
  137MOL0     C17967   2.180   6.077   6.638  0.6240  0.7397  0.3459
  137MOL0     C17968   2.131   6.114   6.779  0.2337 -0.0879 -0.5417
  137MOL0     N17969   1.987   6.079   6.792 -0.2450  0.4234 -0.6647
  137MOL0     C17970   1.949   5.955   6.843 -0.1619  0.1535 -0.1252
  137MOL0     C17971   1.810   5.957   6.832  0.1889  0.2444 -0.2077
  137MOL0     C17972   1.726   5.836   6.848  0.4420  0.2237  0.7880
  137MOL0     C17973   1.783   5.715   6.765  0.7222  0.3242 -0.4660
  137MOL0     C17974   1.688   5.597   6.757 -0.1706  0.2651  0.2717
  137MOL0     C17975   1.611   5.555   6.879  0.1494 -1.0120  0.2224
  137MOL0     O17976   1.535   5.437   6.850  0.0313  0.1189  0.5213
  137MOL0     C17977   1.446   5.406   6.947  0.4735 -0.5160  0.2369
  137MOL0     C17978   1.339   5.486   6.961  0.0139 -0.4684  0.9907
  137MOL0     C17979   1.241   5.468   7.059 -0.9969 -0.4217  0.7483
  137MOL0     C17980   1.266   5.367   7.151  0.3598 -0.0935  0.4811
  137MOL0     C17981   1.168   5.348   7.258  0.3824 -0.2305 -0.3944
  137MOL0     O17982   1.050   5.406   7.229 -0.2779  0.3084 -0.2270
  137MOL0     C17983   0.942   5.377   7.312 -0.3329  0.2074 -0.2953
  137MOL0     C17984   0.865   5.486   7.368 -0.5084  0.2095 -0.7072
  137MOL0     C17985   0.752   5.462   7.439 -0.7367 -0.6638  0.1971
  137MOL0     C17986   0.703   5.331   7.455 -0.4206 -0.3972  0.5807
  137MOL0     O17987   0.599   5.306   7.538 -0.1808  0.5241  1.1178
  137MOL0     C17988   0.600   5.355   7.669 -1.3461 -0.6096  0.1280
  137MOL0     C17989   0.589   5.253   7.761 -0.4026 -0.1381 -0.0685
  137MOL0     C17990   0.712   5.160   7.766  0.5520 -0.1508  0.2874
  137MOL0     C17991   0.842   5.232   7.802  0.2475  0.1421  0.3742
  137MOL0     C17992   0.956   5.164   7.724  1.2454  0.0500 -0.5335
  137MOL0     C17993   1.087   5.179   7.802  0.1224  0.0436  0.5195
  137MOL0     C17994   1.198   5.105   7.711  0.5749 -0.0210 -0.2495
  137MOL0     C17995   1.323   5.064   7.784  0.3087  0.9336 -0.6374
  137MOL0    Cl17996   1.414   5.214   7.820  0.6889 -0.3156  0.0099
  137MOL0     C17997   0.768   5.229   7.391 -0.1361  0.3479  0.3151
  137MOL0     C17998   0.889   5.245   7.325 -0.1035 -0.3153  0.8149
  137MOL0     O17999   1.192   5.284   7.358 -0.5292 -0.0990  0.3075
  137MOL0     C18000   1.384   5.284   7.143 -0.7554 -0.4087  1.2763
  137MOL0     C18001   1.474   5.304   7.043 -0.5305  0.3292  0.3358
  137MOL0     N18002   1.773   6.069   6.769 -0.1457 -0.2145 -0.6978
  137MOL0     N18003   1.875   6.143   6.740 -0.2751  0.4289  0.0626
  137MOL0     C18004   3.115   6.019   7.040  0.6264  0.0037  0.1317
  137MOL0     C18005   3.203   6.056   7.143  0.3213  0.4517 -0.6256
  137MOL0     C18006   3.598   6.273   7.294 -0.1332 -0.1061  1.3953
  137MOL0     C18007   3.636   6.187   7.401  0.1768  0.1264  0.5684
  137MOL0     C18008   3.763   6.186   7.449 -0.4829 -0.5356 -0.4750
  137MOL0     C18009   3.860   6.274   7.399  0.0095 -0.1689 -0.5499
  137MOL0     O18010   3.988   6.242   7.444  0.8130  0.7188 -0.0133
  137MOL0     C18011   4.094   6.297   7.366 -0.0119  0.3063 -0.0275
  137MOL0     C18012   4.212   6.276   7.454  0.6364  0.2567  0.2334
  137MOL0     C18013   4.333   6.354   7.404  0.3894 -0.2023  0.1735
  137MOL0     C18014   4.326   6.501   7.462  0.5459 -0.3232 -0.1058
  137MOL0     C18015   4.468   6.547   7.465  0.1907  0.2269  0.0211
  137MOL0     C18016   4.587   6.563   7.442 -0.0778 -0.8623 -0.1465
  137MOL0     C18017   3.825   6.363   7.295 -0.3096  0.5994  1.4936
  137MOL0     C18018   3.693   6.360   7.244 -0.4888  0.1566 -0.3985
  137MOL0     H18019   3.436   6.210   6.953  1.8735 -0.9575  3.0936
  137MOL0     H18020   3.252   6.157   6.763  1.1841 -2.2225 -1.1241
  137MOL0     H18021   2.858   6.006   6.924 -0.2052  1.6799 -0.8506
  137MOL0     H18022   2.918   5.854   6.851 -1.6442 -0.5021 -0.8146
  137MOL0     H18023   2.863   5.947   6.634  1.5758  0.1987  0.8602
  137MOL0     H18024   2.810   6.092   6.711 -0.8821 -0.1152  1.1989
  137MOL0     H18025   2.630   5.937   6.843 -2.8711  0.1267 -1.5803
  137MOL0     H18026   2.655   5.831   6.708 -0.3020 -1.0204  2.1843
  137MOL0     H18027   2.613   6.131   6.691 -3.1377  0.9466  1.2961
  137MOL0     H18028   2.573   6.008   6.560 -1.5719 -1.7951 -0.2642
  137MOL0     H18029   2.420   6.054   6.815 -0.7109  0.3028  0.0664
  137MOL0     H18030   2.395   5.916   6.698  0.2511  0.4399 -0.2070
  137MOL0     H18031   2.349   6.081   6.508 -1.4292  1.8980 -0.5963
  137MOL0     H18032   2.338   6.206   6.635  1.5336 -0.7427 -0.9652
  137MOL0     H18033   2.124   6.144   6.573  2.5432 -1.2134 -3.6919
  137MOL0     H18034   2.156   5.976   6.604  1.3239  1.1679 -1.5494
  137MOL0     H18035   2.139   6.223   6.784  0.5996 -0.1647  1.8525
  137MOL0     H18036   2.190   6.071   6.860  0.4432 -0.1361 -0.7188
  137MOL0     H18037   2.020   5.876   6.867 -0.0233  0.4152  0.3265
  137MOL0     H18038   1.627   5.845   6.803  1.1830 -0.4339 -1.0703
  137MOL0     H18039   1.731   5.801   6.951  1.1066 -0.0546  0.6684
  137MOL0     H18040   1.867   5.678   6.824 -2.8321 -1.9434  3.7518
  137MOL0     H18041   1.817   5.746   6.666  3.2698  0.1080  0.2682
  137MOL0     H18042   1.618   5.618   6.676  0.0089 -0.8169 -0.1721
  137MOL0     H18043   1.740   5.507   6.725 -3.7602 -1.7221 -0.5241
  137MOL0     H18044   1.539   5.633   6.906  1.1255 -0.5881  1.7517
  137MOL0     H18045   1.689   5.551   6.956  1.8373 -4.5830 -1.4416
  137MOL0     H18046   1.321   5.569   6.893  1.3235 -0.9041  0.0779
  137MOL0     H18047   1.150   5.528   7.059 -0.5606  0.2740 -0.8614
  137MOL0     H18048   0.909   5.583   7.349  0.6721 -0.5316 -1.8908
  137MOL0     H18049   0.704   5.538   7.499 -0.9803  1.2706 -2.3083
  137MOL0     H18050   0.516   5.423   7.686 -0.1158  2.0507 -3.2770
  137MOL0     H18051   0.689   5.414   7.692 -2.1139  0.7510 -0.2942
  137MOL0     H18052   0.506   5.189   7.730 -1.6348  1.9060 -1.2090
  137MOL0     H18053   0.572   5.291   7.862 -0.4332  3.2171 -1.2271
  137MOL0     H18054   0.713   5.111   7.669 -0.5370  0.5744 -0.1038
  137MOL0     H18055   0.683   5.084   7.840  2.3171  0.2946  1.5066
  137MOL0     H18056   0.844   5.340   7.791  2.4194  0.4498  2.9692
  137MOL0     H18057   0.862   5.210   7.907  1.3204 -0.8580 -0.0151
  137MOL0     H18058   0.965   5.217   7.629 -1.1939  1.1856 -0.2095
  137MOL0     H18059   0.932   5.059   7.704  1.7712  0.0219 -1.0352
  137MOL0     H18060   1.071   5.133   7.900 -3.3578  3.4360  1.8025
  137MOL0     H18061   1.116   5.283   7.821  1.4056 -0.2371  0.1893
  137MOL0     H18062   1.163   5.008   7.674  1.1753 -1.3102  2.3285
  137MOL0     H18063   1.212   5.180   7.633 -1.5653  0.7161 -0.0017
  137MOL0     H18064   1.384   4.999   7.721  1.1954  0.9015  0.2195
  137MOL0     H18065   1.309   5.019   7.883 -0.8228 -0.4486 -1.3925
  137MOL0     H18066   0.727   5.130   7.408 -0.8495  1.1096  3.5946
  137MOL0     H18067   0.951   5.163   7.292  1.5437  0.7376  1.2193
  137MOL0     H18068   1.401   5.202   7.212  0.5649  0.1996  1.7058
  137MOL0     H18069   1.558   5.237   7.025  1.8086  3.9255 -4.0972
  137MOL0     H18070   3.029   5.958   7.067  0.5817 -0.6315 -1.3175
  137MOL0     H18071   3.190   6.025   7.246  1.6833 -0.5906 -0.7345
  137MOL0     H18072   3.569   6.118   7.450 -0.8511 -0.9627 -2.1514
  137MOL0     H18073   3.794   6.119   7.529  3.8036  0.3977 -1.1103
  137MOL0     H18074   4.082   6.397   7.323 -0.3796 -0.5441 -1.9724
  137MOL0     H18075   4.104   6.235   7.277  0.2817  0.3910 -0.0560
  137MOL0     H18076   4.186   6.301   7.558 -0.8569 -1.8789  0.4354
  137MOL0     H18077   4.231   6.169   7.462 -5.0631 -1.0335  1.3178
  137MOL0     H18078   4.342   6.355   7.295 -1.7266 -0.0958 -0.0284
  137MOL0     H18079   4.421   6.301   7.442 -1.3817 -2.9080  0.7507
  137MOL0     H18080   4.272   6.566   7.393 -0.3146 -2.2052 -1.3102
  137MOL0     H18081   4.286   6.500   7.564 -0.2283 -1.2102 -0.4007
  137MOL0     H18082   4.683   6.582   7.397 -0.2148 -2.6509 -1.3183
  137MOL0     H18083   3.892   6.421   7.233  0.4828 -0.3627  1.4206
  137MOL0     H18084   3.672   6.432   7.166  2.0844 -0.4777 -1.8232
  138MOL0     O18085   2.552   6.758   3.042  0.3501  0.2189 -0.0537
  138MOL0     C18086   2.653   6.698   2.995  0.0803 -0.6997  0.6817
  138MOL0     O18087   2.657   6.628   2.882  0.6814  0.2293  0.0957
  138MOL0     C18088   2.555   6.605   2.801  0.1246  0.5485 -0.4747
  138MOL0     C18089   2.423   6.572   2.831 -0.6440  0.3440 -0.3681
  138MOL0     C18090   2.332   6.543   2.721 -0.9481  0.2982  0.0961
  138MOL0     C18091   2.377   6.536   2.595 -0.0402  0.2914 -0.0731
  138MOL0     O18092   2.277   6.502   2.505 -0.4169  0.1434  0.1605
  138MOL0     C18093   2.317   6.488   2.375  0.4054  0.3692  0.3720
  138MOL0     C18094   2.201   6.458   2.287  0.2100 -0.3845  0.2956
  138MOL0     C18095   2.133   6.595   2.246 -1.0604  0.5348 -0.5802
  138MOL0     C18096   2.014   6.580   2.157  0.0638  0.8505  0.3174
  138MOL0     C18097   1.906   6.692   2.144  0.6557  1.0415 -0.0611
  138MOL0     C18098   1.950   6.836   2.143  0.6573 -0.3959  0.2825
  138MOL0     C18099   1.832   6.931   2.192 -0.0226  0.8100 -0.4012
  138MOL0     C18100   1.755   6.979   2.074  0.7911  0.1606 -0.4300
  138MOL0     N18101   1.669   6.866   2.019 -0.5353 -0.4191 -0.4694
  138MOL0     C18102   1.595   6.775   2.089 -0.4204 -0.8659 -0.2681
  138MOL0     C18103   1.492   6.737   2.009 -0.4832 -0.7260  0.1604
  138MOL0     C18104   1.392   6.634   2.053 -0.2031 -0.0556  0.9094
  138MOL0     C18105   1.280   6.691   2.144 -1.7313 -0.3704  0.5198
  138MOL0     C18106   1.203   6.806   2.072  0.1539 -0.3979  0.1229
  138MOL0     C18107   1.075   6.763   1.987 -0.0104 -0.0197 -0.5995
  138MOL0     O18108   0.986   6.699   2.072  0.6479  0.1962  0.0963
  138MOL0     C18109   0.866   6.654   2.024 -0.0304 -0.0224  0.5324
  138MOL0     C18110   0.769   6.601   2.115 -1.2787  0.1225  0.0944
  138MOL0     C18111   0.646   6.550   2.077  0.1200 -0.0920  1.1104
  138MOL0     C18112   0.610   6.565   1.934 -0.0611  0.6960 -0.1809
  138MOL0     C18113   0.477   6.518   1.885 -1.1941  0.4693 -0.4647
  138MOL0     O18114   0.438   6.537   1.759 -0.5324 -0.6439 -0.2192
  138MOL0     C18115   0.314   6.482   1.727  0.8719  0.2525 -0.2722
  138MOL0     C18116   0.299   6.354   1.693 -0.0654  0.9673 -0.2325
  138MOL0     C18117   0.180   6.307   1.637 -1.0515  0.9828 -1.4106
  138MOL0     C18118   0.069   6.389   1.646 -0.0924 -0.2570  1.3062
  138MOL0     O18119  -0.056   6.349   1.602 -0.5629 -0.5845  0.1757
  138MOL0     C18120  -0.118   6.240   1.685 -0.3200 -0.0594 -0.1341
  138MOL0     C18121  -0.257   6.213   1.640  0.1778 -0.7208 -0.9828
  138MOL0     C18122  -0.302   6.086   1.733  0.4336  0.1198  0.6358
  138MOL0     C18123  -0.439   6.049   1.672  1.4568  0.7089  0.8797
  138MOL0     C18124  -0.495   5.921   1.731  0.0340  1.0643  0.5481
  138MOL0     C18125  -0.647   5.930   1.766 -0.3396  0.3499 -0.7728
  138MOL0     C18126  -0.660   5.950   1.912  1.2893 -0.4487  0.5102
  138MOL0     C18127  -0.651   6.100   1.940  0.7981 -0.1770 -0.4579
  138MOL0    Cl18128  -0.711   6.124   2.113 -0.6221 -0.8484 -0.0780
  138MOL0     C18129   0.087   6.519   1.681  0.5947 -0.3480  0.3711
  138MOL0     C18130   0.210   6.572   1.720  0.2181  0.7889 -0.0069
  138MOL0     O18131   0.402   6.482   1.975  0.0907  0.0585  0.2343
  138MOL0     C18132   0.698   6.622   1.844 -0.8217  0.0836 -0.0078
  138MOL0     C18133   0.820   6.670   1.895  0.2037  0.1110  1.1006
  138MOL0     N18134   1.502   6.812   1.896 -0.3581 -0.0044 -0.0717
  138MOL0     N18135   1.598   6.892   1.902 -0.3832  0.5847 -0.3945
  138MOL0     C18136   2.509   6.550   2.570  0.1244  0.0096  1.4800
  138MOL0     C18137   2.595   6.586   2.668 -0.6612 -0.4724 -0.5670
  138MOL0     C18138   2.768   6.710   3.083 -0.3717  0.9341 -0.3868
  138MOL0     C18139   2.884   6.647   3.036 -0.1512 -1.0006  0.0105
  138MOL0     C18140   2.997   6.644   3.114 -0.0754 -0.0543 -0.1880
  138MOL0     C18141   3.000   6.709   3.242  0.6457  0.1197  0.3028
  138MOL0     O18142   3.106   6.703   3.328  0.1086  0.1556 -0.5491
  138MOL0     C18143   3.215   6.606   3.304  0.2910  0.5759  0.6711
  138MOL0     C18144   3.167   6.458   3.331  0.4883  0.0334  0.1185
  138MOL0     C18145   3.290   6.371   3.290  0.3111 -0.1050  0.0196
  138MOL0     C18146   3.292   6.326   3.152  0.6249  0.0478  0.5912
  138MOL0     C18147   3.369   6.422   3.063 -0.5415  0.6509 -0.4563
  138MOL0     C18148   3.440   6.488   2.993 -0.0369  0.4616  0.4376
  138MOL0     C18149   2.875   6.770   3.288  0.0985  0.5828  0.0049
  138MOL0     C18150   2.762   6.775   3.209 -0.6077  0.6108 -0.1676
  138MOL0     H18151   2.402   6.589   2.936  2.6184  1.6097  0.2130
  138MOL0     H18152   2.229   6.509   2.736 -1.3456  1.3256 -0.2206
  138MOL0     H18153   2.382   6.400   2.371 -2.7673 -2.1046 -2.9576
  138MOL0     H18154   2.371   6.577   2.342  1.4299  1.2186  3.8682
  138MOL0     H18155   2.130   6.389   2.333 -0.5401 -0.8283 -1.4467
  138MOL0     H18156   2.239   6.414   2.194 -0.6423 -2.3218  0.8101
  138MOL0     H18157   2.210   6.664   2.207  0.7661 -0.9362  0.2879
  138MOL0     H18158   2.093   6.636   2.339 -1.6679 -1.5623  0.1384
  138MOL0     H18159   2.050   6.572   2.054 -0.3088  1.8931  0.0945
  138MOL0     H18160   1.958   6.487   2.170 -0.6406  1.1811 -0.2724
  138MOL0     H18161   1.838   6.666   2.225  0.0778 -2.7374 -1.5607
  138MOL0     H18162   1.860   6.660   2.050  1.0940 -0.5704  0.2402
  138MOL0     H18163   2.010   6.866   2.057  2.2219 -1.1395  1.0581
  138MOL0     H18164   2.033   6.840   2.215  2.2908 -0.7096 -1.5065
  138MOL0     H18165   1.763   6.869   2.251 -0.7596  0.8559 -1.1872
  138MOL0     H18166   1.873   7.009   2.257  0.6682  0.8334 -0.8521
  138MOL0     H18167   1.816   7.024   1.996 -1.2283 -0.9520 -2.7842
  138MOL0     H18168   1.691   7.061   2.108 -2.0179 -1.9547 -0.1812
  138MOL0     H18169   1.617   6.730   2.185  3.1032 -0.0880 -0.5877
  138MOL0     H18170   1.444   6.548   2.096  0.9636  0.0387 -0.2665
  138MOL0     H18171   1.345   6.611   1.957  1.8286  1.4427 -0.5495
  138MOL0     H18172   1.328   6.727   2.236  0.5067 -0.5884 -0.5173
  138MOL0     H18173   1.212   6.614   2.182 -0.5144 -1.6393  0.1952
  138MOL0     H18174   1.171   6.880   2.147 -1.2002 -1.5777  0.7519
  138MOL0     H18175   1.261   6.863   1.999 -5.5502 -0.1410 -5.0479
  138MOL0     H18176   1.104   6.692   1.908  4.3348 -0.1551  0.8442
  138MOL0     H18177   1.029   6.852   1.943  0.3942 -0.7317 -2.5806
  138MOL0     H18178   0.808   6.587   2.215  0.9565  1.2681 -0.5514
  138MOL0     H18179   0.573   6.501   2.140  1.8413 -4.2420  0.1994
  138MOL0     H18180   0.378   6.279   1.697  0.6365  1.7102  3.3293
  138MOL0     H18181   0.182   6.205   1.601 -0.9962  0.2972  0.4436
  138MOL0     H18182  -0.104   6.267   1.790  4.3031  1.0157 -0.8231
  138MOL0     H18183  -0.061   6.149   1.667 -0.1715 -0.1222  0.6349
  138MOL0     H18184  -0.258   6.189   1.534 -3.4742 -1.1411 -0.9729
  138MOL0     H18185  -0.317   6.303   1.649  1.7444  0.3661 -1.0627
  138MOL0     H18186  -0.313   6.106   1.840 -2.2245 -1.0675  0.6651
  138MOL0     H18187  -0.232   6.002   1.723 -0.4572 -0.6121  0.3129
  138MOL0     H18188  -0.506   6.130   1.703 -1.4082 -0.7080 -1.2102
  138MOL0     H18189  -0.446   6.032   1.564 -1.1793 -3.3622  1.4495
  138MOL0     H18190  -0.436   5.885   1.816  0.6945  3.8375  1.3766
  138MOL0     H18191  -0.485   5.843   1.656 -1.3288 -0.2571  1.6994
  138MOL0     H18192  -0.696   5.834   1.750  0.9509 -0.7502  1.4821
  138MOL0     H18193  -0.704   6.003   1.707 -1.9271 -0.7387 -0.6521
  138MOL0     H18194  -0.761   5.919   1.938  1.8187 -0.5527  2.6167
  138MOL0     H18195  -0.589   5.902   1.979 -1.7022 -0.2740  4.1569
  138MOL0     H18196  -0.715   6.156   1.872 -0.3771 -1.2681 -0.2951
  138MOL0     H18197  -0.549   6.136   1.925  0.2094  1.1215 -1.5003
  138MOL0     H18198  -0.000   6.584   1.673  0.9480  0.2615  1.3000
  138MOL0     H18199   0.221   6.679   1.736  0.0583  0.6474  1.1676
  138MOL0     H18200   0.672   6.623   1.739 -0.6239 -0.3227 -0.0616
  138MOL0     H18201   0.880   6.729   1.826 -2.4593  3.5156  1.4541
  138MOL0     H18202   2.560   6.547   2.474  0.8015  0.4268  1.8178
  138MOL0     H18203   2.700   6.604   2.651 -0.9638  3.3080  0.6704
  138MOL0     H18204   2.874   6.580   2.952  0.6931 -1.1322  0.0054
  138MOL0     H18205   3.076   6.578   3.081  0.8007  0.4709  0.8032
  138MOL0     H18206   3.295   6.627   3.376 -0.5430 -0.8085  2.0686
  138MOL0     H18207   3.249   6.611   3.200  1.1739 -2.1167  0.7465
  138MOL0     H18208   3.150   6.440   3.437  2.6267  0.5769  0.6084
  138MOL0     H18209   3.076   6.433   3.277  0.6674  1.3348 -0.8655
  138MOL0     H18210   3.289   6.290   3.364  0.3154  0.6361  0.8533
  138MOL0     H18211   3.382   6.429   3.305 -1.4645  2.6976  0.7870
  138MOL0     H18212   3.337   6.227   3.147  0.8663  0.1174  1.2681
  138MOL0     H18213   3.190   6.306   3.116  1.1577 -1.6844 -0.0464
  138MOL0     H18214   3.513   6.549   2.945  0.4695 -1.3648 -1.2634
  138MOL0     H18215   2.853   6.785   3.393  0.8705 -1.1716  0.4686
  138MOL0     H18216   2.665   6.806   3.246 -1.6025  0.3722 -2.3850
  139MOL0     O18217   7.328   9.148   5.366  0.0660 -0.4504  0.7995
  139MOL0     C18218   7.306   9.261   5.317  0.3107  0.6117  0.3618
  139MOL0     O18219   7.215   9.286   5.223 -0.1738 -0.8316  0.6717
  139MOL0     C18220   7.112   9.200   5.195 -0.3156  0.1484  1.0767
  139MOL0     C18221   7.082   9.149   5.064 -0.1814 -0.3600  0.1954
  139MOL0     C18222   6.958   9.079   5.043 -0.3302  0.3721 -0.8013
  139MOL0     C18223   6.887   9.035   5.151  0.5603  0.3495 -0.1678
  139MOL0     O18224   6.774   8.952   5.115 -0.1144 -0.2281 -0.5218
  139MOL0     C18225   6.744   8.858   5.216 -0.5352  0.4291 -0.3953
  139MOL0     C18226   6.852   8.754   5.235 -0.1702  0.5413 -0.1086
  139MOL0     C18227   6.824   8.638   5.333  0.2812 -0.4200 -1.1225
  139MOL0     C18228   6.803   8.685   5.488 -0.8682 -0.4830  0.6944
  139MOL0     C18229   6.926   8.769   5.537 -0.8530  0.3676 -0.0581
  139MOL0     C18230   6.945   8.776   5.690  0.3257 -0.4668 -0.4348
  139MOL0     C18231   7.081   8.832   5.722 -1.0802 -0.0271  1.6305
  139MOL0     C18232   7.108   8.978   5.680  0.1530  0.5474 -0.3432
  139MOL0     N18233   7.237   9.024   5.731 -0.2130 -0.0360 -0.3322
  139MOL0     C18234   7.272   9.029   5.864  0.0166 -0.4978 -0.5395
  139MOL0     C18235   7.393   9.088   5.854  0.2846 -0.1008  0.6535
  139MOL0     C18236   7.492   9.140   5.957  0.1095  0.1980  0.1858
  139MOL0     C18237   7.484   9.294   5.975 -0.4515  0.5570 -0.0272
  139MOL0     C18238   7.354   9.341   6.030  1.0309 -0.0012  0.6146
  139MOL0     C18239   7.344   9.490   6.039 -0.2437 -0.3515  0.8309
  139MOL0     O18240   7.218   9.529   6.073  0.3239  0.2911 -0.2107
  139MOL0     C18241   7.192   9.664   6.093  0.2165  0.3758 -0.2317
  139MOL0     C18242   7.282   9.770   6.088  0.5742 -0.1056 -0.4361
  139MOL0     C18243   7.233   9.903   6.096 -0.4337  0.1540  0.0001
  139MOL0     C18244   7.100   9.930   6.118  0.1124 -0.2169  0.6502
  139MOL0     C18245   7.052  10.070   6.122  0.3866 -0.5326 -0.4894
  139MOL0     O18246   7.122  10.162   6.062 -0.8764 -0.9956  0.7061
  139MOL0     C18247   7.083  10.300   6.055 -0.3373  0.3461  0.2477
  139MOL0     C18248   6.991  10.369   6.139 -0.0817 -0.3717  0.0478
  139MOL0     C18249   6.980  10.511   6.131  0.1058  0.1040 -0.1942
  139MOL0     C18250   7.057  10.578   6.029  0.6635 -0.7405  0.0768
  139MOL0     O18251   7.048  10.713   6.018  0.3639 -0.6139  0.0716
  139MOL0     C18252   7.129  10.793   6.107  0.0583  0.3393 -0.0712
  139MOL0     C18253   7.055  10.891   6.206  0.5736 -0.6021  0.1920
  139MOL0     C18254   7.111  11.033   6.197  0.3648  0.9844  0.5102
  139MOL0     C18255   7.093  11.096   6.049 -0.5804 -0.7348 -0.0366
  139MOL0     C18256   7.127  11.250   6.059 -0.2801 -0.2851 -0.7424
  139MOL0     C18257   7.282  11.272   6.105  0.3951 -1.0724  0.1811
  139MOL0     C18258   7.322  11.409   6.162  0.3201 -0.5693 -0.2468
  139MOL0     C18259   7.463  11.429   6.180 -0.6205 -0.4363  1.0409
  139MOL0    Cl18260   7.518  11.333   6.320  0.1214 -0.1052 -0.1013
  139MOL0     C18261   7.139  10.507   5.939  0.1124 -0.0112  0.5016
  139MOL0     C18262   7.154  10.369   5.956 -0.0991  0.1284  0.6632
  139MOL0     O18263   6.947  10.094   6.182  0.3014  0.2116 -0.0855
  139MOL0     C18264   7.001   9.829   6.131 -0.4729  0.4080  0.3303
  139MOL0     C18265   7.056   9.698   6.108  0.8375 -0.6371  0.1062
  139MOL0     N18266   7.414   9.114   5.721 -0.2106 -0.8602 -0.0452
  139MOL0     N18267   7.327   9.072   5.642  0.1495 -0.9065 -0.2690
  139MOL0     C18268   6.927   9.075   5.278 -0.5188 -0.7165  0.0608
  139MOL0     C18269   7.033   9.155   5.297 -0.7340 -0.2719  0.6251
  139MOL0     C18270   7.396   9.372   5.350 -0.0876  0.2076 -0.8567
  139MOL0     C18271   7.466   9.378   5.471  1.0999 -0.1580  0.7479
  139MOL0     C18272   7.563   9.471   5.496 -0.6311 -0.1151 -0.5116
  139MOL0     C18273   7.600   9.568   5.399  0.9026 -0.0441  0.7159
  139MOL0     O18274   7.699   9.655   5.430  0.9549 -0.6327 -0.3063
  139MOL0     C18275   7.771   9.718   5.320  0.2306  0.6062 -0.0185
  139MOL0     C18276   7.852   9.829   5.368  0.5160  0.0252  0.9483
  139MOL0     C18277   7.945   9.898   5.265  0.3197  0.6382 -0.5154
  139MOL0     C18278   8.016  10.025   5.310  0.0727 -0.0646 -0.1747
  139MOL0     C18279   7.963  10.111   5.417 -0.5908  0.8403 -0.4480
  139MOL0     C18280   7.932  10.181   5.513 -0.2204 -0.2184 -1.2936
  139MOL0     C18281   7.530   9.568   5.265  0.1509  0.6985  0.5825
  139MOL0     C18282   7.423   9.477   5.257 -0.1982 -0.4218 -0.3223
  139MOL0     H18283   7.130   9.192   4.976  0.1840 -0.8961  0.1302
  139MOL0     H18284   6.938   9.046   4.942 -1.2766 -0.3592 -0.3856
  139MOL0     H18285   6.655   8.799   5.191 -1.2037  1.2334  0.0137
  139MOL0     H18286   6.728   8.910   5.311  0.6349 -1.5778  0.9566
  139MOL0     H18287   6.952   8.791   5.259  0.5151 -1.0744 -0.3603
  139MOL0     H18288   6.862   8.709   5.136 -5.4400  3.3767 -2.3064
  139MOL0     H18289   6.906   8.565   5.334  0.3260 -0.3953  0.7075
  139MOL0     H18290   6.741   8.579   5.294 -0.6708  0.9388 -1.2293
  139MOL0     H18291   6.714   8.745   5.508  0.4835  1.5356  1.0754
  139MOL0     H18292   6.810   8.592   5.545 -1.7957 -2.8181 -2.7246
  139MOL0     H18293   6.916   8.869   5.494  2.6351 -0.4557 -3.3823
  139MOL0     H18294   7.024   8.737   5.498 -1.3066 -0.3652 -0.6321
  139MOL0     H18295   6.936   8.677   5.737  1.8935 -0.2886  0.3042
  139MOL0     H18296   6.865   8.834   5.738 -0.2954 -3.2459  2.2614
  139MOL0     H18297   7.110   8.823   5.827  1.9945 -0.4801  0.8205
  139MOL0     H18298   7.151   8.767   5.669  0.8706  1.4923  2.2593
  139MOL0     H18299   7.022   9.029   5.724  0.0806 -3.1187  4.6406
  139MOL0     H18300   7.106   8.989   5.572  0.1333  2.3606 -0.1985
  139MOL0     H18301   7.213   9.004   5.952 -0.1890 -1.2483 -0.8802
  139MOL0     H18302   7.596   9.132   5.923  0.5087  1.1254  1.1580
  139MOL0     H18303   7.470   9.091   6.053 -2.2050 -2.7107 -1.6593
  139MOL0     H18304   7.497   9.343   5.878 -0.4551 -1.0917 -0.8961
  139MOL0     H18305   7.569   9.322   6.038 -0.0062 -1.0916  0.1574
  139MOL0     H18306   7.277   9.315   5.956  1.6079 -2.6665  0.8616
  139MOL0     H18307   7.330   9.290   6.123  2.0656  0.1095  0.9526
  139MOL0     H18308   7.377   9.534   5.944 -2.4714 -0.6086 -0.1275
  139MOL0     H18309   7.422   9.523   6.108  1.1742  0.7917 -1.1969
  139MOL0     H18310   7.384   9.740   6.068  0.4206 -1.6424  0.8890
  139MOL0     H18311   7.299   9.988   6.085  2.0552 -1.6534  0.0543
  139MOL0     H18312   6.953  10.316   6.226  2.0018 -2.0345  0.0258
  139MOL0     H18313   6.914  10.562   6.200  0.8345  1.5572 -0.5052
  139MOL0     H18314   7.202  10.850   6.049  2.0023 -0.2139  1.6614
  139MOL0     H18315   7.187  10.726   6.173 -1.5882 -3.2803 -2.0003
  139MOL0     H18316   7.075  10.852   6.306  1.0285 -0.8333  0.0132
  139MOL0     H18317   6.949  10.893   6.183  0.5354 -0.8319  0.3394
  139MOL0     H18318   7.219  11.026   6.214  0.4275  1.3869  0.3037
  139MOL0     H18319   7.061  11.096   6.270 -1.7296 -0.7891  0.6880
  139MOL0     H18320   7.150  11.052   5.966  0.8382 -1.4678  1.2801
  139MOL0     H18321   6.985  11.094   6.029 -0.2110  1.8201 -3.2756
  139MOL0     H18322   7.060  11.298   6.130  1.5557  2.0467 -0.4780
  139MOL0     H18323   7.099  11.288   5.960 -1.2832  1.7535  0.2563
  139MOL0     H18324   7.346  11.257   6.018  1.6164 -1.7515  1.1625
  139MOL0     H18325   7.308  11.203   6.186 -0.2842 -1.7174 -0.1360
  139MOL0     H18326   7.275  11.487   6.101 -2.7555  0.3223  2.9309
  139MOL0     H18327   7.284  11.415   6.264  1.4833  1.3061  0.1231
  139MOL0     H18328   7.489  11.535   6.191  1.4114 -1.0324  2.5172
  139MOL0     H18329   7.520  11.394   6.093 -1.0586 -3.1513  1.7495
  139MOL0     H18330   7.211  10.551   5.871  0.3127 -0.6796  0.2725
  139MOL0     H18331   7.231  10.313   5.902  0.1653 -1.6954  2.7780
  139MOL0     H18332   6.897   9.856   6.148 -0.3045 -0.4743  3.2797
  139MOL0     H18333   6.987   9.614   6.103  1.6603 -1.4377  1.5728
  139MOL0     H18334   6.867   9.020   5.350 -1.1015 -6.2525 -4.0689
  139MOL0     H18335   7.046   9.176   5.403 -0.8242  2.7628  0.1201
  139MOL0     H18336   7.462   9.295   5.542  1.7622 -1.9630 -1.2171
  139MOL0     H18337   7.603   9.465   5.596  3.8023 -3.1960 -2.1608
  139MOL0     H18338   7.705   9.752   5.239  1.0850 -1.8373 -1.8668
  139MOL0     H18339   7.830   9.644   5.266  2.1082  0.6830  1.8197
  139MOL0     H18340   7.779   9.905   5.398 -0.1474 -0.5985  0.9185
  139MOL0     H18341   7.906   9.798   5.458  0.6471  0.3983  1.0039
  139MOL0     H18342   7.887   9.923   5.176  0.7290 -0.5155 -1.1215
  139MOL0     H18343   8.014   9.818   5.239  0.2947 -0.9487  3.5254
  139MOL0     H18344   8.118   9.995   5.333  0.0700 -0.6948 -0.9212
  139MOL0     H18345   8.026  10.095   5.226  3.1346  0.3504  0.4398
  139MOL0     H18346   7.921  10.243   5.600  3.2225 -1.1834  0.0064
  139MOL0     H18347   7.562   9.619   5.175 -0.0568 -0.4500 -0.1567
  139MOL0     H18348   7.373   9.462   5.162  1.7040 -1.7382 -1.1636
  140MOL0     O18349   1.279   9.825  10.794 -0.2872  0.8901  0.4307
  140MOL0     C18350   1.182   9.822  10.870 -0.4983 -0.7408 -0.8082
  140MOL0     O18351   1.068   9.903  10.860  0.4170 -0.0039 -0.4157
  140MOL0     C18352   1.048   9.969  10.746  0.5139 -0.5653 -0.9601
  140MOL0     C18353   1.044   9.905  10.615 -0.7455 -0.0884 -0.1961
  140MOL0     C18354   1.034   9.977  10.492  0.6145 -0.1316  0.1670
  140MOL0     C18355   1.016  10.113  10.495 -0.0799 -0.2812 -0.4153
  140MOL0     O18356   0.991  10.171  10.381  0.1188  0.0832  0.3830
  140MOL0     C18357   0.856  10.216  10.384  0.2183  0.1760  1.0108
  140MOL0     C18358   0.804  10.229  10.238  0.0937 -0.0195 -0.1635
  140MOL0     C18359   0.666  10.282  10.246  0.9817 -0.3143 -0.4483
  140MOL0     C18360   0.622  10.331  10.108  0.0765 -0.4946 -0.3024
  140MOL0     C18361   0.472  10.350  10.094 -0.2148  0.3822 -0.0860
  140MOL0     C18362   0.438  10.424   9.963 -0.6553  0.1784 -0.3578
  140MOL0     C18363   0.289  10.457   9.964 -0.9561 -0.8169  0.2891
  140MOL0     C18364   0.249  10.518   9.828 -0.5753 -0.5598  0.0286
  140MOL0     N18365   0.128  10.596   9.815  0.6452  0.2162 -0.6942
  140MOL0     C18366   0.112  10.726   9.862  0.4161  0.4935  0.0129
  140MOL0     C18367   0.000  10.763   9.814  0.8617 -0.1551 -0.7610
  140MOL0     C18368  -0.059  10.895   9.852 -0.2263 -0.5719 -0.3933
  140MOL0     C18369  -0.124  10.907   9.991 -0.0539 -0.4001 -0.1231
  140MOL0     C18370  -0.140  11.057  10.021 -0.1539 -0.3110 -0.3681
  140MOL0     C18371  -0.261  11.126   9.950  0.3546 -0.5352  0.0828
  140MOL0     O18372  -0.381  11.097  10.027 -0.2314 -1.0456 -0.3024
  140MOL0     C18373  -0.503  11.126   9.972  0.7443 -0.0732  1.3062
  140MOL0     C18374  -0.614  11.121  10.059  0.1432  0.7416  0.2429
  140MOL0     C18375  -0.740  11.160  10.011  0.6363  0.0920  0.0649
  140MOL0     C18376  -0.769  11.204   9.884  0.4164 -0.1377 -0.2901
  140MOL0     C18377  -0.911  11.228   9.842 -0.0214 -0.7584 -0.1479
  140MOL0     O18378  -1.010  11.224   9.933 -0.1246 -0.9396  0.2067
  140MOL0     C18379  -1.128  11.271   9.888  0.5211 -0.0929 -0.1240
  140MOL0     C18380  -1.242  11.186   9.899  0.2720  0.6849  0.9109
  140MOL0     C18381  -1.369  11.233   9.873 -0.0484 -0.4127 -0.8915
  140MOL0     C18382  -1.388  11.366   9.822 -0.2634  0.3447 -0.4925
  140MOL0     O18383  -1.514  11.420   9.810  0.7816  0.7836  0.3462
  140MOL0     C18384  -1.537  11.544   9.743  0.3462 -0.2366 -0.0557
  140MOL0     C18385  -1.682  11.591   9.733 -1.1449 -0.0590 -0.4377
  140MOL0     C18386  -1.759  11.480   9.666  0.7312 -0.5315 -0.0980
  140MOL0     C18387  -1.906  11.519   9.635  0.1335 -0.2313 -0.3634
  140MOL0     C18388  -1.997  11.413   9.582  1.3787  0.2133 -0.5084
  140MOL0     C18389  -2.114  11.482   9.523 -0.5034  0.5246  0.2955
  140MOL0     C18390  -2.207  11.381   9.458  0.3729  0.1626 -0.8552
  140MOL0     C18391  -2.306  11.440   9.351  0.5998  0.3465 -0.3010
  140MOL0    Cl18392  -2.408  11.571   9.409 -0.3385 -0.2817  0.1991
  140MOL0     C18393  -1.280  11.445   9.811  0.9175 -1.0841 -0.3282
  140MOL0     C18394  -1.150  11.408   9.851  0.1969  1.1835  0.2722
  140MOL0     O18395  -0.919  11.259   9.724  0.8231 -0.2351  0.6444
  140MOL0     C18396  -0.659  11.204   9.795  0.4333  0.2608  0.8248
  140MOL0     C18397  -0.530  11.162   9.838 -0.1593 -0.0667 -0.4794
  140MOL0     N18398  -0.060  10.659   9.743  0.7867 -0.0296  0.0979
  140MOL0     N18399   0.027  10.561   9.741 -0.0812 -0.8919 -0.1937
  140MOL0     C18400   1.016  10.176  10.618 -0.3605 -0.6535 -1.1169
  140MOL0     C18401   1.035  10.103  10.743 -0.1408 -0.2982  0.3983
  140MOL0     C18402   1.178   9.724  10.990  0.1971 -0.6131  0.1836
  140MOL0     C18403   1.066   9.741  11.081 -0.6444 -0.8527  0.2763
  140MOL0     C18404   1.064   9.645  11.186  0.0503 -0.5863  0.1526
  140MOL0     C18405   1.160   9.540  11.196  0.1151  0.7662 -0.3744
  140MOL0     O18406   1.138   9.435  11.280  0.4345  0.0784 -1.2227
  140MOL0     C18407   1.109   9.461  11.420 -0.2473 -0.0085  0.9921
  140MOL0     C18408   1.244   9.505  11.479 -0.8277  0.9830 -0.9119
  140MOL0     C18409   1.265   9.490  11.631  0.3208 -0.3198  0.1243
  140MOL0     C18410   1.382   9.576  11.690  0.2293  0.3214 -0.0297
  140MOL0     C18411   1.410   9.527  11.817 -0.6995  0.2674  0.0261
  140MOL0     C18412   1.470   9.492  11.917  0.6579 -0.0524  0.7341
  140MOL0     C18413   1.261   9.523  11.096  0.1957 -0.9529  0.6671
  140MOL0     C18414   1.263   9.619  10.988  0.3312  0.2529  0.4266
  140MOL0     H18415   1.046   9.796  10.623 -2.0941  0.0141  2.7011
  140MOL0     H18416   1.014   9.913  10.406  3.5530 -1.8100  0.5922
  140MOL0     H18417   0.855  10.314  10.433  0.0302  1.2765 -1.0862
  140MOL0     H18418   0.789  10.137  10.418  2.4456 -3.2955 -1.8598
  140MOL0     H18419   0.816  10.137  10.179  1.1044  1.9510 -3.2923
  140MOL0     H18420   0.864  10.301  10.181  2.2702 -1.0103  0.7501
  140MOL0     H18421   0.676  10.367  10.314  0.1374 -0.1150 -0.5675
  140MOL0     H18422   0.601  10.208  10.294 -0.0782  2.2925  2.4449
  140MOL0     H18423   0.682  10.420  10.090 -0.5261  0.1846  0.8961
  140MOL0     H18424   0.656  10.258  10.034  1.2585  1.4564 -1.7501
  140MOL0     H18425   0.437  10.400  10.184  1.9476  1.7958  0.0501
  140MOL0     H18426   0.418  10.255  10.086 -1.8322  0.8570  3.3481
  140MOL0     H18427   0.467  10.363   9.877 -2.6167 -1.1328 -0.1379
  140MOL0     H18428   0.501  10.513   9.952  0.7234 -0.7266 -0.1100
  140MOL0     H18429   0.228  10.376  10.005 -1.2607 -1.2188 -0.9136
  140MOL0     H18430   0.264  10.535  10.036 -3.0034  0.7280 -1.8997
  140MOL0     H18431   0.250  10.433   9.758 -3.7465 -1.0972  0.4776
  140MOL0     H18432   0.329  10.583   9.794  0.1092 -1.6458 -0.5219
  140MOL0     H18433   0.181  10.775   9.930  1.9810  1.5492 -2.2046
  140MOL0     H18434  -0.132  10.927   9.778  1.9914  3.1211 -1.2174
  140MOL0     H18435   0.027  10.962   9.851 -0.2711 -0.4678  0.7817
  140MOL0     H18436  -0.064  10.851  10.063  3.0013  1.6017 -0.9180
  140MOL0     H18437  -0.225  10.867   9.988 -1.4886  2.8388  0.7221
  140MOL0     H18438  -0.149  11.071  10.129  0.8287  0.0101 -0.3221
  140MOL0     H18439  -0.048  11.102   9.982 -0.4764 -0.5574 -1.4673
  140MOL0     H18440  -0.265  11.108   9.842 -2.4423 -0.8836  0.1548
  140MOL0     H18441  -0.245  11.233   9.965 -0.7334 -0.6772  2.7301
  140MOL0     H18442  -0.600  11.110  10.166 -1.2217 -0.9116  0.2906
  140MOL0     H18443  -0.813  11.166  10.091 -1.1208  3.1641 -1.5798
  140MOL0     H18444  -1.246  11.083   9.935 -1.8386 -0.5232 -2.3588
  140MOL0     H18445  -1.460  11.174   9.873 -0.4799  0.0959 -4.1484
  140MOL0     H18446  -1.492  11.528   9.644  3.1287 -0.2021  1.1048
  140MOL0     H18447  -1.479  11.627   9.786 -0.0997  1.1451 -1.9715
  140MOL0     H18448  -1.698  11.678   9.669 -0.2133 -1.7652 -3.1199
  140MOL0     H18449  -1.713  11.611   9.837  1.5918  0.6834  0.3404
  140MOL0     H18450  -1.742  11.389   9.724  1.5039  0.2083  0.8583
  140MOL0     H18451  -1.709  11.469   9.569 -1.1228  1.0405 -1.3242
  140MOL0     H18452  -1.943  11.550   9.733  1.2914  0.6893 -0.1877
  140MOL0     H18453  -1.900  11.608   9.572 -2.1203  0.3114  0.1185
  140MOL0     H18454  -2.034  11.340   9.655  2.2312  0.8870  0.6248
  140MOL0     H18455  -1.942  11.347   9.514 -2.0601 -1.4485 -1.9409
  140MOL0     H18456  -2.085  11.560   9.452 -0.2154  1.9047  1.8610
  140MOL0     H18457  -2.170  11.536   9.599  2.2670 -0.3898  3.2244
  140MOL0     H18458  -2.144  11.311   9.401  1.1907  0.3338 -0.1858
  140MOL0     H18459  -2.265  11.327   9.533  1.2359 -1.2956 -1.1851
  140MOL0     H18460  -2.369  11.361   9.310  0.8718  0.6561 -1.3305
  140MOL0     H18461  -2.252  11.479   9.264  1.4032 -3.1435 -1.5245
  140MOL0     H18462  -1.277  11.543   9.765  2.9517 -2.0259 -2.4225
  140MOL0     H18463  -1.079  11.488   9.833  0.6513  1.0184  1.2745
  140MOL0     H18464  -0.672  11.233   9.691 -0.5206 -1.9022  0.2803
  140MOL0     H18465  -0.453  11.153   9.761 -0.0572 -1.7984 -0.2275
  140MOL0     H18466   1.001  10.283  10.616 -0.9387 -0.7259 -0.8505
  140MOL0     H18467   1.024  10.148  10.842  2.7412 -0.5426  0.9151
  140MOL0     H18468   0.986   9.815  11.083  1.8656  2.0292  1.6889
  140MOL0     H18469   0.991   9.658  11.266 -1.5433 -2.7148 -0.8389
  140MOL0     H18470   1.079   9.372  11.476  2.5929 -1.9642 -0.3512
  140MOL0     H18471   1.035   9.535  11.452 -0.5734 -1.0111  2.6990
  140MOL0     H18472   1.310   9.424  11.447 -0.2395  0.7790  0.7331
  140MOL0     H18473   1.272   9.607  11.449 -0.5444  0.3804 -2.8383
  140MOL0     H18474   1.287   9.385  11.653 -0.2255 -0.4164  0.2133
  140MOL0     H18475   1.168   9.513  11.676 -0.0186  0.0422 -0.7637
  140MOL0     H18476   1.477   9.573  11.634 -1.4551 -1.9669 -3.1099
  140MOL0     H18477   1.353   9.682  11.694 -1.5145 -0.1545  0.8399
  140MOL0     H18478   1.510   9.472  12.014 -0.1300 -2.1541  0.6869
  140MOL0     H18479   1.344   9.454  11.096 -0.4229 -1.7149 -0.6334
  140MOL0     H18480   1.325   9.619  10.899  1.5494  2.7705  1.1981
  141MOL0     O18481   3.218   6.003   3.935 -0.9846 -0.7626  0.5803
  141MOL0     C18482   3.270   6.036   4.041 -0.9663  0.7954 -0.2692
  141MOL0     O18483   3.205   6.092   4.152 -0.2254  0.3620 -0.3750
  141MOL0     C18484   3.078   6.146   4.146  0.0214  0.1386  0.3073
  141MOL0     C18485   2.987   6.133   4.258 -0.2692 -0.1090  0.1463
  141MOL0     C18486   2.859   6.185   4.239 -0.6018 -0.9609  0.0215
  141MOL0     C18487   2.820   6.265   4.134 -0.4669 -0.9852  0.0756
  141MOL0     O18488   2.695   6.324   4.127  1.0015  0.3888 -0.5320
  141MOL0     C18489   2.654   6.389   4.006  0.0370 -0.1747  0.7743
  141MOL0     C18490   2.508   6.411   4.001  0.1648  1.3093  0.2655
  141MOL0     C18491   2.431   6.290   4.064  0.8122 -0.1637  0.2005
  141MOL0     C18492   2.282   6.323   4.063 -0.3859  1.0733  0.1274
  141MOL0     C18493   2.198   6.217   4.123  0.0661  0.3498  1.0857
  141MOL0     C18494   2.044   6.240   4.124  0.3041 -0.5987 -0.9316
  141MOL0     C18495   1.966   6.118   4.178 -0.6997  0.1839 -0.0241
  141MOL0     C18496   1.817   6.143   4.216  0.8349 -0.1398 -0.2579
  141MOL0     N18497   1.766   6.014   4.261  0.2071 -0.0106 -0.5369
  141MOL0     C18498   1.769   5.970   4.394 -0.2863 -0.1415 -0.3683
  141MOL0     C18499   1.766   5.835   4.374  0.6917  0.2943 -0.0541
  141MOL0     C18500   1.773   5.729   4.488 -0.2168 -0.0457 -0.4257
  141MOL0     C18501   1.815   5.591   4.441 -0.5004 -0.6093  0.1447
  141MOL0     C18502   1.817   5.496   4.563  0.1527  0.3115  0.2827
  141MOL0     C18503   1.923   5.508   4.667  0.4219  0.5337  0.1710
  141MOL0     O18504   2.047   5.510   4.594 -0.7853 -0.6481 -0.7978
  141MOL0     C18505   2.162   5.548   4.656 -0.2279 -1.0583  0.1892
  141MOL0     C18506   2.177   5.576   4.786  0.3723 -0.2492 -0.7682
  141MOL0     C18507   2.306   5.620   4.832 -0.1233 -0.6456 -0.0862
  141MOL0     C18508   2.417   5.622   4.739  0.4325 -0.1884  0.1672
  141MOL0     C18509   2.544   5.670   4.786  0.6095 -0.5734  0.3483
  141MOL0     O18510   2.649   5.668   4.698 -0.3600 -0.5285  0.5813
  141MOL0     C18511   2.785   5.674   4.731 -0.0820  0.3938 -0.1754
  141MOL0     C18512   2.831   5.664   4.866  0.1795 -0.5935  0.2765
  141MOL0     C18513   2.964   5.646   4.890 -0.1029 -0.6323 -0.0873
  141MOL0     C18514   3.055   5.636   4.777  0.2409 -0.3381 -0.7332
  141MOL0     O18515   3.186   5.620   4.811 -0.2568  0.3330 -0.1615
  141MOL0     C18516   3.272   5.558   4.720  0.3828 -0.3765 -0.2225
  141MOL0     C18517   3.394   5.533   4.799  0.0159 -0.3069  0.2415
  141MOL0     C18518   3.510   5.565   4.709 -1.2196 -0.4167 -0.1152
  141MOL0     C18519   3.650   5.544   4.775  0.7990 -0.1449 -0.6599
  141MOL0     C18520   3.763   5.537   4.671 -0.0654 -0.0557 -0.5506
  141MOL0     C18521   3.897   5.528   4.739 -0.1916  0.6244 -0.7762
  141MOL0     C18522   4.018   5.489   4.647  1.8366  0.3376 -0.8378
  141MOL0     C18523   4.159   5.495   4.707 -0.4139  0.5080  0.0300
  141MOL0    Cl18524   4.282   5.422   4.593  0.0943 -0.0350  0.2926
  141MOL0     C18525   3.011   5.661   4.650  0.2173  0.0614  0.1850
  141MOL0     C18526   2.873   5.679   4.627  0.7285  0.2986  0.0978
  141MOL0     O18527   2.546   5.718   4.902 -0.0748 -0.3708  0.8802
  141MOL0     C18528   2.399   5.597   4.603  1.1585  0.0170  0.4487
  141MOL0     C18529   2.266   5.558   4.570 -0.4937 -0.0920  0.1081
  141MOL0     N18530   1.742   5.794   4.245 -0.5180 -0.1164 -0.0058
  141MOL0     N18531   1.755   5.901   4.178  0.8585  0.5395  0.6586
  141MOL0     C18532   2.918   6.298   4.042  0.0658  0.1870  0.4460
  141MOL0     C18533   3.042   6.237   4.040  0.1268  1.5045 -0.2187
  141MOL0     C18534   3.418   6.023   4.052 -0.9346  0.1203  0.0065
  141MOL0     C18535   3.491   6.010   3.939  0.3484 -0.1210  0.0585
  141MOL0     C18536   3.623   5.974   3.936  0.0197 -0.0982 -0.0496
  141MOL0     C18537   3.683   5.951   4.060 -0.2273 -0.0012 -0.4208
  141MOL0     O18538   3.824   5.918   4.059  0.4393 -0.1417 -0.7967
  141MOL0     C18539   3.901   6.031   4.085 -0.4058 -0.1790 -0.2889
  141MOL0     C18540   4.058   6.008   4.075  0.9321 -0.4666 -0.1293
  141MOL0     C18541   4.120   5.899   4.155 -0.1462  0.1314 -0.4492
  141MOL0     C18542   4.272   5.911   4.119 -0.4156  0.6335  0.0088
  141MOL0     C18543   4.347   5.790   4.154 -0.2623  0.5777 -0.0804
  141MOL0     C18544   4.421   5.705   4.199  0.3528 -0.2912 -0.9665
  141MOL0     C18545   3.612   5.961   4.176 -0.0587 -0.6766 -0.0171
  141MOL0     C18546   3.476   6.003   4.175  1.2664 -0.6624  0.7874
  141MOL0     H18547   3.028   6.078   4.342  0.8956  0.7840  0.1727
  141MOL0     H18548   2.786   6.169   4.317 -1.7431  1.0917 -0.5504
  141MOL0     H18549   2.680   6.329   3.918 -4.3669  0.6712 -1.3832
  141MOL0     H18550   2.700   6.488   4.003 -0.6786  0.1479  0.3923
  141MOL0     H18551   2.489   6.426   3.894  0.2091 -0.8625 -0.0974
  141MOL0     H18552   2.480   6.497   4.063  0.0718  1.8559 -0.5284
  141MOL0     H18553   2.454   6.270   4.169  3.3304  0.5570 -0.1582
  141MOL0     H18554   2.459   6.196   4.016  4.0381  0.5282  0.5227
  141MOL0     H18555   2.266   6.415   4.119 -0.4890  1.3970 -0.4243
  141MOL0     H18556   2.242   6.348   3.964 -1.0573  0.5408  0.2620
  141MOL0     H18557   2.239   6.202   4.223  1.6193 -3.6287  0.0393
  141MOL0     H18558   2.195   6.123   4.067 -0.2395  0.5940  0.6846
  141MOL0     H18559   2.010   6.269   4.025 -1.1888 -0.5929 -0.4392
  141MOL0     H18560   2.020   6.326   4.188 -1.0727  0.0552 -2.2792
  141MOL0     H18561   1.969   6.034   4.107  0.1281  0.7213 -0.6496
  141MOL0     H18562   2.021   6.088   4.267  1.7225  2.3866 -0.6682
  141MOL0     H18563   1.755   6.170   4.130  3.1333  0.0260 -1.9765
  141MOL0     H18564   1.812   6.225   4.288  0.4896  1.1069 -1.6618
  141MOL0     H18565   1.790   6.016   4.490 -1.9464 -2.3268  1.1536
  141MOL0     H18566   1.677   5.715   4.537  0.3783 -2.0125  0.2555
  141MOL0     H18567   1.841   5.771   4.563 -3.3363  1.1082  1.9756
  141MOL0     H18568   1.917   5.605   4.406 -0.8823 -0.1334 -0.8180
  141MOL0     H18569   1.750   5.558   4.359 -0.7702  0.5768 -0.1427
  141MOL0     H18570   1.713   5.496   4.597  0.2358 -2.1863  0.7520
  141MOL0     H18571   1.814   5.392   4.527 -0.3356  0.1215  0.8628
  141MOL0     H18572   1.915   5.426   4.739 -0.1716  0.6447  0.2301
  141MOL0     H18573   1.907   5.595   4.731  0.5419  1.0428 -0.4768
  141MOL0     H18574   2.101   5.571   4.863  1.5280  3.3306  0.8530
  141MOL0     H18575   2.320   5.645   4.936 -1.5644 -0.0125 -0.0245
  141MOL0     H18576   2.760   5.637   4.944 -1.3834  0.9132 -0.5497
  141MOL0     H18577   2.987   5.621   4.993 -0.2095 -0.4854 -0.0284
  141MOL0     H18578   3.290   5.626   4.636  2.2422 -3.2420 -2.3528
  141MOL0     H18579   3.233   5.468   4.674 -2.2157  1.2987 -1.5314
  141MOL0     H18580   3.398   5.427   4.825  4.2381 -0.7590 -1.4691
  141MOL0     H18581   3.393   5.597   4.888  2.7573  0.2787 -0.0364
  141MOL0     H18582   3.506   5.671   4.682  0.1994 -0.2913  0.0643
  141MOL0     H18583   3.506   5.497   4.623  2.0021 -0.5740 -0.2609
  141MOL0     H18584   3.671   5.631   4.839 -1.1687  1.9650 -2.7117
  141MOL0     H18585   3.635   5.447   4.825 -0.7828 -1.1490 -2.9174
  141MOL0     H18586   3.769   5.627   4.608 -2.7060  0.8566  0.3743
  141MOL0     H18587   3.755   5.449   4.607  1.1304 -0.6116  0.0412
  141MOL0     H18588   3.901   5.450   4.816 -0.2318 -0.9233 -2.3061
  141MOL0     H18589   3.919   5.620   4.794 -0.6477  0.5885 -0.5226
  141MOL0     H18590   3.995   5.391   4.602 -0.1925  1.4580 -2.4635
  141MOL0     H18591   4.013   5.556   4.561 -1.0376 -1.9193 -2.6305
  141MOL0     H18592   4.160   5.452   4.807  2.0396 -0.8730 -0.5239
  141MOL0     H18593   4.188   5.599   4.726  0.6961 -0.0204  1.3520
  141MOL0     H18594   3.077   5.645   4.565 -0.4895 -0.7123 -0.2375
  141MOL0     H18595   2.825   5.684   4.530 -1.3657 -1.5055  0.9387
  141MOL0     H18596   2.473   5.598   4.524  0.1059 -0.4043 -0.5722
  141MOL0     H18597   2.250   5.542   4.463 -4.0914  0.5662  0.4367
  141MOL0     H18598   2.903   6.365   3.959  2.0189  1.1444  0.8069
  141MOL0     H18599   3.121   6.270   3.973 -0.6444  0.9459 -1.4367
  141MOL0     H18600   3.440   6.025   3.844  5.1579  4.4507 -2.3135
  141MOL0     H18601   3.689   5.964   3.850  0.5362  2.6026 -0.0586
  141MOL0     H18602   3.877   6.072   4.184  0.5514  3.3310 -1.3774
  141MOL0     H18603   3.884   6.117   4.019 -1.6433  2.2213  2.8932
  141MOL0     H18604   4.082   5.984   3.971  0.2650  0.2800 -0.4708
  141MOL0     H18605   4.105   6.105   4.091 -0.5357 -0.0129  1.8404
  141MOL0     H18606   4.079   5.802   4.126  0.5220 -0.1316 -0.5474
  141MOL0     H18607   4.097   5.921   4.259  1.4270 -0.0478 -0.0308
  141MOL0     H18608   4.278   5.917   4.010 -1.8523  0.5859 -0.0985
  141MOL0     H18609   4.320   5.998   4.164  1.1233 -1.3264  2.3992
  141MOL0     H18610   4.491   5.632   4.235  0.5095  0.2124 -0.2191
  141MOL0     H18611   3.675   5.945   4.263  2.2450 -1.4082 -1.7191
  141MOL0     H18612   3.445   6.012   4.279  0.2972  3.3053  0.3445
  142MOL0     O18613  10.537   1.467   5.721 -0.5785 -0.0472  0.6637
  142MOL0     C18614  10.468   1.546   5.658  0.9482  0.2822  0.3633
  142MOL0     O18615  10.516   1.646   5.584  0.0201 -0.6693  0.5772
  142MOL0     C18616  10.648   1.639   5.531 -0.3911 -0.0661  0.4563
  142MOL0     C18617  10.751   1.699   5.603 -0.7214  0.1923  0.6463
  142MOL0     C18618  10.886   1.691   5.561  0.2431 -0.0644 -0.1796
  142MOL0     C18619  10.923   1.610   5.451  0.4786 -0.6011 -0.5206
  142MOL0     O18620  11.060   1.585   5.436  0.3467 -0.4208  0.5919
  142MOL0     C18621  11.110   1.566   5.307  0.7409  0.2574  0.2967
  142MOL0     C18622  11.222   1.665   5.275 -0.1614 -0.3749 -0.9918
  142MOL0     C18623  11.299   1.612   5.152 -0.1971  0.2797  0.4767
  142MOL0     C18624  11.448   1.562   5.174 -0.0726  0.0710  0.0132
  142MOL0     C18625  11.522   1.507   5.049  0.6134 -0.0515  0.1123
  142MOL0     C18626  11.471   1.370   5.006  0.1358 -0.0213  0.5968
  142MOL0     C18627  11.532   1.258   5.077 -0.1195  1.1564 -0.6866
  142MOL0     C18628  11.465   1.122   5.041  0.0695 -0.4907  0.0976
  142MOL0     N18629  11.332   1.116   5.091 -0.1215 -0.1302 -0.3674
  142MOL0     C18630  11.294   1.052   5.210  1.0711  0.2846  0.2647
  142MOL0     C18631  11.155   1.058   5.208 -0.9547  0.3446  0.7684
  142MOL0     C18632  11.068   1.001   5.308 -0.2229  0.3911 -0.8938
  142MOL0     C18633  11.051   1.093   5.434 -0.0630 -0.0204  1.4581
  142MOL0     C18634  10.961   1.221   5.408  0.6147  0.9008 -0.3766
  142MOL0     C18635  10.804   1.187   5.381 -0.4190  0.3152 -0.3566
  142MOL0     O18636  10.746   1.133   5.504  0.0210  0.8997  0.1322
  142MOL0     C18637  10.608   1.127   5.515 -0.5673  0.4002 -0.7889
  142MOL0     C18638  10.509   1.165   5.419 -0.5927  0.8446 -0.3204
  142MOL0     C18639  10.375   1.152   5.450 -0.2001  0.0295  0.3629
  142MOL0     C18640  10.330   1.106   5.573 -0.3350 -0.2096 -1.0543
  142MOL0     C18641  10.192   1.103   5.604 -0.0175  0.5629  0.1963
  142MOL0     O18642  10.157   1.001   5.690  0.1760  0.6074 -0.4851
  142MOL0     C18643  10.043   0.992   5.755  0.5629 -0.1565  0.0486
  142MOL0     C18644   9.917   1.052   5.725  0.3716 -0.3180 -0.2594
  142MOL0     C18645   9.807   1.051   5.812  0.3619 -0.5473  0.0935
  142MOL0     C18646   9.809   0.971   5.924 -0.4210  0.5696 -0.0584
  142MOL0     O18647   9.710   0.956   6.020 -0.3539  0.1050 -0.2498
  142MOL0     C18648   9.589   1.035   5.990  0.4495  0.3934  0.6399
  142MOL0     C18649   9.497   1.040   6.106 -0.5940  0.3123 -1.0134
  142MOL0     C18650   9.430   0.908   6.123 -0.1694  0.4829  0.6170
  142MOL0     C18651   9.335   0.892   6.241 -0.6464  0.0139 -0.4697
  142MOL0     C18652   9.218   0.802   6.211 -0.2003 -0.0032 -0.0166
  142MOL0     C18653   9.132   0.771   6.336 -0.3059 -1.3197 -0.5165
  142MOL0     C18654   9.011   0.687   6.306 -0.7143 -0.5342  0.6655
  142MOL0     C18655   8.922   0.667   6.425  0.1931 -0.0395 -0.1149
  142MOL0    Cl18656   8.990   0.548   6.541 -0.4135 -0.1900  0.4052
  142MOL0     C18657   9.927   0.909   5.959  0.4583 -0.6666  0.2504
  142MOL0     C18658  10.044   0.924   5.879  0.3737 -0.3719  0.1865
  142MOL0     O18659  10.117   1.172   5.536  0.4351  0.0723  0.0777
  142MOL0     C18660  10.434   1.074   5.675  0.0019  0.5216  0.1521
  142MOL0     C18661  10.570   1.087   5.646  0.6014  0.0975  0.6356
  142MOL0     N18662  11.118   1.108   5.078 -0.0214  0.0340 -0.9855
  142MOL0     N18663  11.219   1.140   5.014  0.9377 -0.2816 -0.5188
  142MOL0     C18664  10.820   1.553   5.384 -0.0532 -0.0343  1.5004
  142MOL0     C18665  10.685   1.575   5.415 -0.4942 -0.5482 -0.0073
  142MOL0     C18666  10.322   1.543   5.668  0.6981  0.1386  0.8119
  142MOL0     C18667  10.239   1.634   5.597  0.2576  0.3355  0.5815
  142MOL0     C18668  10.096   1.623   5.600 -0.4916  0.3452 -0.5061
  142MOL0     C18669  10.037   1.528   5.677  0.2255  0.3778 -0.3725
  142MOL0     O18670   9.904   1.522   5.710 -0.2742 -0.9003 -0.6306
  142MOL0     C18671   9.821   1.562   5.600  0.5811 -0.3146  0.6522
  142MOL0     C18672   9.680   1.530   5.640  0.0232 -0.0818  0.3464
  142MOL0     C18673   9.658   1.377   5.620  0.4517  0.0010 -0.7857
  142MOL0     C18674   9.521   1.343   5.675  0.3040  0.0454 -0.4004
  142MOL0     C18675   9.492   1.201   5.662  0.1453 -1.0374  0.3442
  142MOL0     C18676   9.469   1.089   5.652  0.0010  0.8244  0.1335
  142MOL0     C18677  10.115   1.442   5.754  0.3482  0.3824  0.2265
  142MOL0     C18678  10.253   1.444   5.743  0.3549  0.3868  0.4230
  142MOL0     H18679  10.723   1.745   5.697 -2.4328 -1.6383  1.1172
  142MOL0     H18680  10.956   1.740   5.627 -1.4642  1.8555  0.3196
  142MOL0     H18681  11.035   1.581   5.229  0.9925  2.0400  0.3467
  142MOL0     H18682  11.160   1.469   5.300 -1.2690 -0.8926  1.1890
  142MOL0     H18683  11.294   1.684   5.355 -0.4955  1.2297 -1.0445
  142MOL0     H18684  11.171   1.760   5.256 -1.5161 -0.0682  3.2363
  142MOL0     H18685  11.310   1.687   5.073 -0.5538  2.3957  2.3521
  142MOL0     H18686  11.239   1.539   5.098 -1.8927  1.8479  0.1501
  142MOL0     H18687  11.506   1.646   5.215  0.2067  0.5343 -1.2794
  142MOL0     H18688  11.440   1.490   5.255  0.6801 -1.2767 -1.0758
  142MOL0     H18689  11.627   1.496   5.078  0.8001 -2.7198 -1.3588
  142MOL0     H18690  11.529   1.576   4.964  1.1789 -0.8034 -0.4522
  142MOL0     H18691  11.510   1.351   4.905 -1.7506  1.1245 -0.3981
  142MOL0     H18692  11.362   1.362   5.002  0.0621  1.1929 -0.5764
  142MOL0     H18693  11.640   1.256   5.057 -0.1010 -1.0501 -0.6223
  142MOL0     H18694  11.523   1.270   5.185  1.4447  0.1577 -0.4085
  142MOL0     H18695  11.508   1.029   5.080 -0.6981 -1.4846 -1.3221
  142MOL0     H18696  11.464   1.104   4.933  1.0905 -0.8927  0.1487
  142MOL0     H18697  11.360   1.007   5.284  0.9833  3.0852  2.2246
  142MOL0     H18698  11.118   0.911   5.345  0.6410 -0.2678 -3.4670
  142MOL0     H18699  10.978   0.956   5.265 -0.0299 -2.8140  1.6285
  142MOL0     H18700  11.153   1.125   5.459  2.0298 -0.1190 -5.0808
  142MOL0     H18701  11.016   1.040   5.523  1.7942  0.4201  2.5157
  142MOL0     H18702  10.975   1.285   5.495  1.3452  0.2574 -0.0059
  142MOL0     H18703  10.995   1.285   5.326  1.8937  1.1010  0.2903
  142MOL0     H18704  10.792   1.115   5.300  1.8464 -0.9776  0.3735
  142MOL0     H18705  10.755   1.279   5.346 -0.9065 -0.1524 -0.9263
  142MOL0     H18706  10.543   1.189   5.318  4.9412 -3.0793  0.1449
  142MOL0     H18707  10.301   1.184   5.377  1.0499  2.8764  0.2275
  142MOL0     H18708   9.913   1.108   5.632  2.0371  0.1819 -0.0749
  142MOL0     H18709   9.716   1.101   5.780  0.3736  1.0434  2.3075
  142MOL0     H18710   9.533   0.990   5.908 -0.5896  0.4398  1.3052
  142MOL0     H18711   9.622   1.135   5.958 -0.8817  0.1569 -1.6244
  142MOL0     H18712   9.423   1.121   6.101 -0.7769  0.1640 -0.7651
  142MOL0     H18713   9.558   1.074   6.191 -0.0765  4.1560 -2.6831
  142MOL0     H18714   9.509   0.833   6.122  1.2077  1.8768 -0.5363
  142MOL0     H18715   9.372   0.883   6.034 -0.4044  2.9128 -0.0063
  142MOL0     H18716   9.384   0.856   6.332 -2.3300  2.6378  1.6643
  142MOL0     H18717   9.305   0.992   6.276  0.7738  0.3479 -0.1612
  142MOL0     H18718   9.263   0.710   6.171 -0.4270 -0.0387 -0.1944
  142MOL0     H18719   9.153   0.847   6.135  0.0586 -0.8102 -0.7308
  142MOL0     H18720   9.102   0.865   6.383 -0.4583 -2.6556  2.2581
  142MOL0     H18721   9.195   0.718   6.408 -0.6739  1.2038  1.8692
  142MOL0     H18722   8.951   0.739   6.230 -2.7474 -3.5117  0.0227
  142MOL0     H18723   9.045   0.589   6.272 -0.4586 -0.0884 -0.3986
  142MOL0     H18724   8.835   0.615   6.384  0.0511 -1.7199  2.1366
  142MOL0     H18725   8.902   0.762   6.475 -1.2252 -0.9391  1.0817
  142MOL0     H18726   9.936   0.839   6.041  4.0169 -1.5362 -0.6757
  142MOL0     H18727  10.137   0.881   5.913 -0.2587 -0.4925  1.8641
  142MOL0     H18728  10.399   1.054   5.776 -2.7304  1.2884 -0.5422
  142MOL0     H18729  10.636   1.055   5.726 -1.4714 -1.5147  1.7935
  142MOL0     H18730  10.841   1.489   5.299  0.3209  0.1900  1.4223
  142MOL0     H18731  10.607   1.526   5.356  0.1546 -0.5470 -0.8856
  142MOL0     H18732  10.279   1.709   5.530 -0.8680  2.2837  1.9644
  142MOL0     H18733  10.045   1.702   5.546 -0.8901 -0.9651 -2.1225
  142MOL0     H18734   9.833   1.514   5.503 -1.9991  2.9531 -1.4958
  142MOL0     H18735   9.823   1.672   5.598  0.6702 -0.0522  4.7518
  142MOL0     H18736   9.659   1.550   5.745 -3.7096 -2.8635  0.3492
  142MOL0     H18737   9.605   1.583   5.580 -0.6872  1.4683  2.4939
  142MOL0     H18738   9.737   1.331   5.679  0.0101 -0.3310 -0.4516
  142MOL0     H18739   9.665   1.339   5.518  1.8307  1.0388 -1.1144
  142MOL0     H18740   9.517   1.382   5.777  1.6769 -0.9460  0.0717
  142MOL0     H18741   9.450   1.397   5.612  0.7537  0.1919 -0.7911
  142MOL0     H18742   9.436   0.987   5.640 -1.2866  0.6480  3.9360
  142MOL0     H18743  10.076   1.362   5.815  2.8549 -0.4897  0.7924
  142MOL0     H18744  10.308   1.367   5.796  0.3293  0.2993  0.3241
  143MOL0     O18745   8.561   6.626  11.153 -0.2691 -1.3123  0.6129
  143MOL0     C18746   8.519   6.571  11.050 -1.0209 -0.0334  0.1986
  143MOL0     O18747   8.597   6.530  10.940 -0.7053 -0.5168 -0.5660
  143MOL0     C18748   8.729   6.570  10.929 -0.3318 -0.9047 -0.7954
  143MOL0     C18749   8.821   6.582  11.038  0.0165  0.0503 -0.7224
  143MOL0     C18750   8.958   6.607  11.026  0.4890  0.0646 -0.2150
  143MOL0     C18751   9.010   6.618  10.895 -0.0393  0.3310 -0.0792
  143MOL0     O18752   9.144   6.662  10.885  0.3317 -0.6587  0.3946
  143MOL0     C18753   9.218   6.632  10.760  0.5575 -0.5026  0.8088
  143MOL0     C18754   9.358   6.676  10.788 -0.0795  1.3748  0.3005
  143MOL0     C18755   9.368   6.827  10.781 -0.1774 -0.5477  0.1457
  143MOL0     C18756   9.510   6.887  10.772  0.0667  0.5014  0.1141
  143MOL0     C18757   9.596   6.877  10.895  0.7338  0.2103 -0.4629
  143MOL0     C18758   9.679   6.749  10.885  0.3955  0.8543 -0.0172
  143MOL0     C18759   9.771   6.745  11.008  0.7776  0.2235  0.1309
  143MOL0     C18760   9.871   6.853  11.014 -0.4478  0.1813  0.5771
  143MOL0     N18761   9.968   6.825  11.128  0.4677 -0.5440 -0.4602
  143MOL0     C18762  10.073   6.734  11.123  0.1966  0.6059 -1.0422
  143MOL0     C18763  10.146   6.754  11.234 -0.5571 -0.2732 -0.1538
  143MOL0     C18764  10.266   6.664  11.268 -1.0733  0.5380 -0.3785
  143MOL0     C18765  10.276   6.516  11.219  0.4935 -0.6850  0.5360
  143MOL0     C18766  10.383   6.429  11.282 -0.0216 -0.8562 -0.1859
  143MOL0     C18767  10.400   6.299  11.204 -1.0327  0.0289  0.1779
  143MOL0     O18768  10.474   6.200  11.275  0.8063  0.4810  0.3192
  143MOL0     C18769  10.606   6.227  11.303  0.6565 -0.3714 -0.0248
  143MOL0     C18770  10.687   6.309  11.224 -0.7136  0.0520 -0.2457
  143MOL0     C18771  10.826   6.325  11.264 -0.0626 -0.1891  0.0641
  143MOL0     C18772  10.874   6.258  11.379  0.2890  0.5095  0.0817
  143MOL0     C18773  11.017   6.264  11.417  0.7183  0.3030  0.6776
  143MOL0     O18774  11.091   6.370  11.376 -0.0424  0.7518 -0.5094
  143MOL0     C18775  11.226   6.362  11.368 -0.5251  0.1093 -0.8336
  143MOL0     C18776  11.298   6.247  11.354 -0.8020 -0.0062 -0.0738
  143MOL0     C18777  11.440   6.255  11.353  0.4795 -0.0880  0.9868
  143MOL0     C18778  11.506   6.385  11.346 -0.5011  0.8579 -0.6650
  143MOL0     O18779  11.640   6.390  11.361  0.0045 -0.1067  0.6479
  143MOL0     C18780  11.710   6.476  11.259 -0.3880 -0.2826  0.0610
  143MOL0     C18781  11.802   6.404  11.168 -0.4845  0.7146  1.0079
  143MOL0     C18782  11.894   6.314  11.237 -0.5603  0.7260  0.5026
  143MOL0     C18783  11.995   6.251  11.135 -1.4765 -0.2003 -0.9594
  143MOL0     C18784  12.132   6.317  11.141  0.8642 -0.3672 -0.0919
  143MOL0     C18785  12.217   6.233  11.047  0.1799  0.5492  0.0432
  143MOL0     C18786  12.366   6.269  11.059 -1.2966  0.7395 -0.4528
  143MOL0     C18787  12.448   6.205  10.943 -0.0503  0.8225  0.8514
  143MOL0    Cl18788  12.517   6.043  10.970 -0.2588 -0.0230  0.2272
  143MOL0     C18789  11.430   6.502  11.348 -0.3301 -0.1239 -0.7148
  143MOL0     C18790  11.290   6.489  11.358 -0.5194 -0.2307  0.6228
  143MOL0     O18791  11.062   6.164  11.474  0.4157  0.3695 -1.0974
  143MOL0     C18792  10.787   6.175  11.454 -0.8280  0.0197  0.6343
  143MOL0     C18793  10.651   6.159  11.418  0.5349 -0.0556 -0.4717
  143MOL0     N18794  10.078   6.852  11.309 -0.8868  0.2266 -0.4502
  143MOL0     N18795   9.975   6.893  11.244  0.1019 -0.1092 -0.4982
  143MOL0     C18796   8.924   6.590  10.784  0.0356  0.7435 -0.9673
  143MOL0     C18797   8.789   6.574  10.804 -0.2987  0.5259  1.3442
  143MOL0     C18798   8.378   6.533  11.055 -0.6310  1.0531  0.3397
  143MOL0     C18799   8.304   6.500  10.942  0.1257 -0.1370  0.2118
  143MOL0     C18800   8.168   6.461  10.959 -0.2483  0.8770  0.0624
  143MOL0     C18801   8.099   6.467  11.084  0.1442 -0.4955 -0.2271
  143MOL0     O18802   7.966   6.451  11.072  0.3324  0.1379  0.0527
  143MOL0     C18803   7.875   6.507  11.177 -0.0723 -0.5277 -0.0955
  143MOL0     C18804   7.861   6.411  11.304 -0.7632  0.4716  0.2904
  143MOL0     C18805   7.872   6.258  11.282  0.7186  0.1638  1.0613
  143MOL0     C18806   7.768   6.210  11.173  0.0178 -0.2827 -0.0944
  143MOL0     C18807   7.630   6.269  11.183 -0.0137 -0.7509  0.1132
  143MOL0     C18808   7.523   6.313  11.199  0.3248  0.3038  0.2133
  143MOL0     C18809   8.165   6.509  11.192 -0.1472  0.2327  0.1789
  143MOL0     C18810   8.298   6.542  11.177 -0.1817  0.5064 -0.6555
  143MOL0     H18811   8.783   6.575  11.139  0.3143 -0.8128 -0.6612
  143MOL0     H18812   9.025   6.627  11.108 -0.6839  2.0907  0.3058
  143MOL0     H18813   9.174   6.692  10.680 -0.7641 -1.7525  0.5556
  143MOL0     H18814   9.201   6.526  10.738 -0.0338 -0.3861  0.6698
  143MOL0     H18815   9.433   6.631  10.722 -0.7572 -0.5724  0.7904
  143MOL0     H18816   9.381   6.633  10.886  3.4943  1.9949 -0.1443
  143MOL0     H18817   9.308   6.872  10.861 -3.3023 -2.4562 -0.9829
  143MOL0     H18818   9.314   6.864  10.694 -2.5086 -3.3462  0.2771
  143MOL0     H18819   9.557   6.846  10.682 -0.4896  1.2370 -0.5172
  143MOL0     H18820   9.488   6.988  10.739  0.0340 -0.0527 -1.6551
  143MOL0     H18821   9.544   6.873  10.991  0.4840 -0.6429 -0.6231
  143MOL0     H18822   9.661   6.965  10.899 -1.6200  2.0699 -0.9721
  143MOL0     H18823   9.744   6.756  10.797  2.6099 -1.0914  1.3615
  143MOL0     H18824   9.612   6.666  10.864  0.0835  0.7479  1.3113
  143MOL0     H18825   9.704   6.748  11.094 -0.7193 -4.2273 -0.5957
  143MOL0     H18826   9.805   6.641  11.016 -0.6208 -0.2745 -0.0247
  143MOL0     H18827   9.827   6.953  11.022  0.7599  1.1041 -2.8184
  143MOL0     H18828   9.933   6.862  10.924  0.1441  2.3757  1.1399
  143MOL0     H18829  10.100   6.665  11.044  0.5390 -0.6508  0.1255
  143MOL0     H18830  10.272   6.661  11.377  2.6629 -0.7761 -0.4833
  143MOL0     H18831  10.364   6.701  11.238 -0.7882 -1.3427 -1.9360
  143MOL0     H18832  10.283   6.506  11.110 -1.5827  0.9182  0.1871
  143MOL0     H18833  10.175   6.480  11.240 -0.1422  1.0785  0.6833
  143MOL0     H18834  10.470   6.495  11.289 -1.7175  1.3076  2.6705
  143MOL0     H18835  10.362   6.396  11.384  2.2105 -0.7597  0.3443
  143MOL0     H18836  10.448   6.322  11.108 -0.8578  1.7412  0.6529
  143MOL0     H18837  10.302   6.261  11.172 -1.2067  0.4242  0.2391
  143MOL0     H18838  10.654   6.353  11.130 -0.9649 -2.6419 -1.5237
  143MOL0     H18839  10.886   6.382  11.193  0.1849 -0.9846 -0.3791
  143MOL0     H18840  11.253   6.148  11.361 -2.1706  0.5901 -0.1798
  143MOL0     H18841  11.506   6.169  11.354 -0.2413 -0.7220 -1.2830
  143MOL0     H18842  11.772   6.543  11.319  0.8908 -0.2119 -1.2766
  143MOL0     H18843  11.637   6.531  11.198  0.7816  0.6111 -0.5926
  143MOL0     H18844  11.848   6.469  11.092  1.5394 -0.9948  0.6739
  143MOL0     H18845  11.753   6.334  11.100 -0.8434  1.3121  0.6409
  143MOL0     H18846  11.835   6.234  11.282 -0.1760  0.0122 -0.2475
  143MOL0     H18847  11.956   6.366  11.311  1.5848  2.4892 -2.3431
  143MOL0     H18848  11.998   6.144  11.156  1.0529  0.2181  1.2611
  143MOL0     H18849  11.968   6.261  11.029  2.3704 -0.8425 -2.1566
  143MOL0     H18850  12.175   6.318  11.242 -1.2757  3.7756  0.9832
  143MOL0     H18851  12.116   6.420  11.110 -2.4239 -0.6500  0.3318
  143MOL0     H18852  12.178   6.245  10.945 -1.6087 -0.6595  0.5376
  143MOL0     H18853  12.208   6.128  11.075 -1.8255  0.6970  0.1615
  143MOL0     H18854  12.382   6.377  11.042  2.5710  0.7644  2.0540
  143MOL0     H18855  12.412   6.249  11.156 -1.1084 -2.1118 -1.0599
  143MOL0     H18856  12.526   6.275  10.911 -0.8957  1.5553  0.3393
  143MOL0     H18857  12.393   6.202  10.848  1.8261  1.6030 -0.3218
  143MOL0     H18858  11.479   6.599  11.357  2.2378 -1.3872 -0.1707
  143MOL0     H18859  11.216   6.567  11.366 -1.9711 -1.4559 -0.4085
  143MOL0     H18860  10.814   6.119  11.543 -1.9068  1.3446  1.8483
  143MOL0     H18861  10.585   6.095  11.477 -2.3088  0.8644 -2.4665
  143MOL0     H18862   8.949   6.618  10.682 -1.8457  0.9129 -1.4235
  143MOL0     H18863   8.712   6.576  10.728 -1.7333  2.1001  2.7774
  143MOL0     H18864   8.348   6.496  10.843 -1.3686 -0.6248 -0.4668
  143MOL0     H18865   8.110   6.431  10.872  0.1966  0.1517  0.0085
  143MOL0     H18866   7.779   6.517  11.125 -2.6450 -1.0305  4.0586
  143MOL0     H18867   7.899   6.609  11.209 -3.8736  0.2091  0.9295
  143MOL0     H18868   7.943   6.435  11.372 -0.2080  3.5356 -1.3232
  143MOL0     H18869   7.765   6.417  11.355 -0.1914 -3.2188  2.1577
  143MOL0     H18870   7.860   6.212  11.381  1.0984  0.6379  1.3306
  143MOL0     H18871   7.976   6.234  11.258  0.6692  1.2631 -0.4097
  143MOL0     H18872   7.815   6.231  11.077 -0.9593 -0.6837 -0.6779
  143MOL0     H18873   7.761   6.103  11.191 -0.1366 -0.1279  0.8029
  143MOL0     H18874   7.426   6.346  11.230 -0.6354 -4.0498  2.6865
  143MOL0     H18875   8.122   6.514  11.291 -0.2849 -1.4274  0.2196
  143MOL0     H18876   8.351   6.561  11.270 -0.2257  0.4223 -0.6126
  144MOL0     O18877   6.495  10.865   2.072  0.2088 -0.0140 -0.1738
  144MOL0     C18878   6.473  10.800   1.973 -0.9931  0.5360 -0.0156
  144MOL0     O18879   6.570  10.734   1.899 -0.0032 -0.5563  0.5837
  144MOL0     C18880   6.702  10.761   1.931 -0.0143 -1.0904 -0.0066
  144MOL0     C18881   6.758  10.762   2.064  1.1977  1.1417 -0.7888
  144MOL0     C18882   6.896  10.786   2.084  0.3569 -0.5258 -0.2890
  144MOL0     C18883   6.980  10.825   1.982  0.0425  0.7158  0.0644
  144MOL0     O18884   7.112  10.852   2.014  0.0778 -1.2433  0.1014
  144MOL0     C18885   7.205  10.844   1.897  0.1498  0.4982  0.4756
  144MOL0     C18886   7.354  10.832   1.940  0.7813  0.1846  0.2043
  144MOL0     C18887   7.410  10.955   2.010  0.5494 -0.2710  0.6617
  144MOL0     C18888   7.547  10.923   2.066 -0.7430  0.4997 -0.5182
  144MOL0     C18889   7.655  10.933   1.958  0.6498 -0.0289  0.1243
  144MOL0     C18890   7.791  10.967   2.023  0.5852  0.9055 -0.4499
  144MOL0     C18891   7.892  11.011   1.920  0.2382 -0.0510  0.0297
  144MOL0     C18892   8.016  11.045   1.988  0.4678  0.3698 -0.9947
  144MOL0     N18893   8.099  11.146   1.913 -0.1196 -0.0169 -0.4932
  144MOL0     C18894   8.226  11.122   1.862  0.4779 -0.4938  1.0798
  144MOL0     C18895   8.269  11.248   1.837  0.1096 -1.0076  0.3628
  144MOL0     C18896   8.397  11.292   1.766 -0.6555  0.1143 -0.2028
  144MOL0     C18897   8.506  11.356   1.856  0.0205 -0.6285  0.6302
  144MOL0     C18898   8.626  11.400   1.766 -0.5050  0.6278  0.5782
  144MOL0     C18899   8.747  11.450   1.839 -0.6372  0.0873 -0.5239
  144MOL0     O18900   8.821  11.518   1.737  0.4187 -0.5555  0.6801
  144MOL0     C18901   8.953  11.536   1.756  0.4217 -0.4383 -0.3321
  144MOL0     C18902   9.046  11.579   1.654 -0.1720 -0.3291 -0.1857
  144MOL0     C18903   9.186  11.598   1.671 -0.1196 -0.2294 -0.2466
  144MOL0     C18904   9.233  11.586   1.803  0.1372 -0.2812 -0.5001
  144MOL0     C18905   9.377  11.621   1.834 -0.5210 -0.5116  0.2149
  144MOL0     O18906   9.432  11.692   1.735 -0.0689 -0.4748 -0.3145
  144MOL0     C18907   9.559  11.750   1.751  0.2544 -0.4492 -0.3287
  144MOL0     C18908   9.605  11.836   1.858 -0.1818 -0.3967  0.5460
  144MOL0     C18909   9.733  11.891   1.866  0.2224  0.0385 -0.0209
  144MOL0     C18910   9.834  11.857   1.775  0.0504 -0.1089 -0.7344
  144MOL0     O18911   9.964  11.915   1.775  0.7908  0.4063 -0.2069
  144MOL0     C18912  10.012  11.970   1.899 -0.6666  0.1306 -0.3505
  144MOL0     C18913  10.059  11.870   1.998  0.3893 -0.3751  0.1558
  144MOL0     C18914  10.200  11.824   1.976  0.0070  0.1268  0.0196
  144MOL0     C18915  10.243  11.731   2.093  0.4156 -0.0728 -0.2938
  144MOL0     C18916  10.395  11.714   2.072  1.0618 -0.0469  0.1823
  144MOL0     C18917  10.465  11.638   2.186 -0.1628  0.2934  0.7600
  144MOL0     C18918  10.527  11.726   2.290 -0.4011 -0.2416  0.3141
  144MOL0     C18919  10.522  11.663   2.428  0.8138  0.4678 -0.1893
  144MOL0    Cl18920  10.591  11.499   2.424  0.6478  0.5912 -0.4136
  144MOL0     C18921   9.788  11.792   1.664  0.7919  0.2474 -0.0007
  144MOL0     C18922   9.658  11.736   1.648 -0.3339 -0.4235 -0.1751
  144MOL0     O18923   9.438  11.579   1.928  0.6621  0.2090 -0.8883
  144MOL0     C18924   9.145  11.563   1.910  1.0197  0.8162 -0.3652
  144MOL0     C18925   9.008  11.530   1.884 -1.0903  0.4206 -0.0142
  144MOL0     N18926   8.168  11.341   1.853 -0.5770 -0.4814  0.3027
  144MOL0     N18927   8.069  11.279   1.894  0.3181 -0.9117 -0.6164
  144MOL0     C18928   6.921  10.846   1.854 -0.0345 -0.6167  0.0450
  144MOL0     C18929   6.791  10.805   1.833  0.0270  0.7470  0.2148
  144MOL0     C18930   6.334  10.797   1.914  0.2542  0.3220 -0.2712
  144MOL0     C18931   6.241  10.893   1.946  0.5643 -0.7847 -0.5431
  144MOL0     C18932   6.116  10.898   1.886  0.4330 -0.1839  0.3981
  144MOL0     C18933   6.079  10.787   1.800 -1.8154 -0.3441 -0.4209
  144MOL0     O18934   5.959  10.789   1.728  0.0985 -0.0501 -0.4836
  144MOL0     C18935   5.889  10.922   1.729  0.7626  0.8437 -0.3984
  144MOL0     C18936   5.778  10.911   1.622 -0.7982 -0.5374  0.2703
  144MOL0     C18937   5.682  11.038   1.621 -1.0258  0.6195  0.5960
  144MOL0     C18938   5.578  11.022   1.512  0.3246  0.2114  0.0795
  144MOL0     C18939   5.479  11.136   1.519 -0.0061 -0.0322 -0.0831
  144MOL0     C18940   5.405  11.235   1.543  0.4249  0.1008 -0.6863
  144MOL0     C18941   6.164  10.678   1.788 -0.4992  0.2931 -0.3132
  144MOL0     C18942   6.294  10.690   1.838  0.6825 -0.3112  0.5081
  144MOL0     H18943   6.697  10.742   2.152  2.9851 -0.1112  0.2402
  144MOL0     H18944   6.930  10.775   2.187  3.4623 -2.4284 -1.4063
  144MOL0     H18945   7.196  10.936   1.839 -4.0528 -0.6041 -0.9830
  144MOL0     H18946   7.180  10.758   1.833  0.4663  0.2512  0.6804
  144MOL0     H18947   7.408  10.817   1.846  0.7695 -4.1787  0.6729
  144MOL0     H18948   7.357  10.741   2.000 -2.6123  0.2935  0.7661
  144MOL0     H18949   7.353  11.006   2.088  0.9922  1.0088  0.1767
  144MOL0     H18950   7.420  11.036   1.937 -0.0328 -0.2622  0.5820
  144MOL0     H18951   7.567  10.980   2.157 -1.4096 -0.9502  0.5839
  144MOL0     H18952   7.551  10.822   2.107  0.5755  1.0786  0.8663
  144MOL0     H18953   7.637  11.015   1.888  0.2723 -1.5183 -1.6091
  144MOL0     H18954   7.661  10.841   1.900  0.8488 -0.6099  1.0443
  144MOL0     H18955   7.843  10.887   2.076 -0.2478  1.2113  0.8775
  144MOL0     H18956   7.774  11.054   2.087 -2.1763  1.5641 -1.9105
  144MOL0     H18957   7.924  10.934   1.849  2.9197  0.9617  0.0229
  144MOL0     H18958   7.850  11.095   1.863  0.8742 -0.1028 -0.5233
  144MOL0     H18959   8.067  10.950   2.003 -2.8890 -2.4610 -5.0164
  144MOL0     H18960   8.002  11.091   2.086  2.0462  3.5074 -2.0590
  144MOL0     H18961   8.290  11.037   1.841  0.5839  0.0442 -1.0148
  144MOL0     H18962   8.375  11.362   1.684  1.2809 -0.0687 -0.9480
  144MOL0     H18963   8.442  11.204   1.719 -2.2632  0.1488 -1.9344
  144MOL0     H18964   8.545  11.288   1.933  0.6521  0.4160  1.2584
  144MOL0     H18965   8.467  11.433   1.923  0.0439 -1.7866  2.0402
  144MOL0     H18966   8.658  11.313   1.709 -0.4704 -0.2609  1.9276
  144MOL0     H18967   8.588  11.479   1.699  2.4543  0.2410 -1.7441
  144MOL0     H18968   8.808  11.365   1.869 -0.0002  0.1702 -1.5075
  144MOL0     H18969   8.728  11.514   1.925  0.5903  4.1657 -2.9483
  144MOL0     H18970   9.012  11.579   1.551 -2.8968 -1.0885  0.6243
  144MOL0     H18971   9.235  11.644   1.586 -0.3859 -0.1054 -0.3346
  144MOL0     H18972   9.545  11.868   1.942 -1.2460 -1.8680  0.3830
  144MOL0     H18973   9.743  11.958   1.950  0.3020 -2.0016  1.6640
  144MOL0     H18974   9.938  12.021   1.962  3.0096 -1.0118  5.7536
  144MOL0     H18975  10.093  12.041   1.881  0.4958 -0.6226  1.6227
  144MOL0     H18976   9.982  11.792   2.004  0.4937 -0.4368  0.6992
  144MOL0     H18977  10.052  11.912   2.099 -2.4568  1.5357 -0.6864
  144MOL0     H18978  10.274  11.904   1.967  0.2452 -0.2909 -3.0120
  144MOL0     H18979  10.210  11.767   1.882  0.8349  0.1359  0.0957
  144MOL0     H18980  10.227  11.778   2.190  0.5233  0.7237 -0.6539
  144MOL0     H18981  10.192  11.634   2.099  0.6332 -0.1533  0.3145
  144MOL0     H18982  10.450  11.809   2.061  0.6401  0.1427 -0.3516
  144MOL0     H18983  10.410  11.656   1.980 -1.0969  2.1372 -1.6902
  144MOL0     H18984  10.552  11.585   2.147 -0.4998  1.1068 -1.1954
  144MOL0     H18985  10.398  11.567   2.236 -0.4229  2.0818  3.1031
  144MOL0     H18986  10.622  11.768   2.254 -0.3020 -2.1991 -1.9540
  144MOL0     H18987  10.475  11.820   2.308  0.7039  0.9931 -2.3931
  144MOL0     H18988  10.420  11.658   2.465  1.1831  2.0402  1.1376
  144MOL0     H18989  10.587  11.724   2.492 -0.0970  1.1463  0.1025
  144MOL0     H18990   9.863  11.766   1.590 -2.0698 -0.7526 -2.8063
  144MOL0     H18991   9.641  11.680   1.556  0.8657 -1.9168  0.4673
  144MOL0     H18992   9.182  11.563   2.012 -0.4365  3.0006  0.2268
  144MOL0     H18993   8.947  11.498   1.968 -0.9556 -2.7411 -0.9831
  144MOL0     H18994   6.974  10.882   1.766  1.0325  0.4022  1.0722
  144MOL0     H18995   6.751  10.791   1.733  4.2044  0.7432 -1.6767
  144MOL0     H18996   6.272  10.958   2.028 -0.3822  1.1919 -1.6783
  144MOL0     H18997   6.053  10.980   1.918  0.2398 -0.4206  0.6180
  144MOL0     H18998   5.956  11.006   1.709  0.9838  1.0116  0.9842
  144MOL0     H18999   5.837  10.953   1.820 -1.6626  1.1711 -1.8073
  144MOL0     H19000   5.834  10.910   1.529  2.0389  1.0552  1.8397
  144MOL0     H19001   5.729  10.814   1.639  1.0026 -0.8617  5.8286
  144MOL0     H19002   5.754  11.119   1.608  2.4177 -1.8475  2.7896
  144MOL0     H19003   5.639  11.054   1.721  2.1397  1.5922  1.9239
  144MOL0     H19004   5.636  11.013   1.420  3.2548  1.7287  1.6283
  144MOL0     H19005   5.521  10.929   1.526  1.2903 -0.0494  2.7777
  144MOL0     H19006   5.346  11.316   1.581  0.0434  0.3837 -1.8510
  144MOL0     H19007   6.150  10.603   1.711 -1.5007  0.5515 -0.4015
  144MOL0     H19008   6.363  10.608   1.821 -0.2497 -0.6057 -2.3404
  145MOL0     O19009   2.654   6.280   0.897  0.3378 -0.8013  0.0768
  145MOL0     C19010   2.691   6.190   0.823 -0.7983 -0.4507  0.1652
  145MOL0     O19011   2.613   6.089   0.766 -0.0783  0.1846  0.1803
  145MOL0     C19012   2.495   6.053   0.808  0.0795 -0.3305 -0.1146
  145MOL0     C19013   2.430   5.970   0.717 -0.2380  0.3776  0.2442
  145MOL0     C19014   2.311   5.912   0.749  0.7923 -0.6276 -0.4906
  145MOL0     C19015   2.243   5.948   0.868  0.1720  0.1022  0.3182
  145MOL0     O19016   2.122   5.886   0.901  0.2777  0.9125  0.0625
  145MOL0     C19017   2.012   5.908   0.802 -1.0046 -0.6570  0.5431
  145MOL0     C19018   1.917   5.793   0.816  0.0683  0.2107 -0.5821
  145MOL0     C19019   1.960   5.665   0.732 -1.2005 -0.6687 -0.1527
  145MOL0     C19020   1.851   5.560   0.747 -0.9499 -0.5014  0.3329
  145MOL0     C19021   1.847   5.506   0.886 -0.0694 -0.2163  1.0211
  145MOL0     C19022   1.775   5.370   0.902  0.3109 -0.5227  1.0076
  145MOL0     C19023   1.871   5.257   0.857  0.0593  0.8547  0.6601
  145MOL0     C19024   1.806   5.122   0.880 -0.7322 -0.2483 -0.2314
  145MOL0     N19025   1.678   5.098   0.803 -0.3271 -0.5603 -0.4469
  145MOL0     C19026   1.663   5.121   0.675  0.7490  0.3865 -0.2469
  145MOL0     C19027   1.528   5.150   0.661 -0.8482 -0.3591 -0.1953
  145MOL0     C19028   1.466   5.191   0.525 -0.3816  0.1171 -0.4669
  145MOL0     C19029   1.547   5.291   0.450 -0.0187 -0.5715  0.5483
  145MOL0     C19030   1.575   5.418   0.528  0.0815  0.1887  0.8016
  145MOL0     C19031   1.685   5.492   0.438  0.0968 -0.2225 -0.5625
  145MOL0     O19032   1.807   5.424   0.417  0.1885  0.5186 -0.8946
  145MOL0     C19033   1.927   5.485   0.396  0.0052 -0.1408  0.5968
  145MOL0     C19034   1.932   5.588   0.305 -0.4642  0.6589  0.2036
  145MOL0     C19035   2.059   5.651   0.285 -0.2403 -0.1161  0.1565
  145MOL0     C19036   2.176   5.602   0.345 -0.2005  0.0041 -0.1182
  145MOL0     C19037   2.308   5.678   0.344  0.0018 -0.0637  1.2010
  145MOL0     O19038   2.417   5.616   0.397 -0.1005 -0.5741  0.2390
  145MOL0     C19039   2.542   5.660   0.385  0.2838 -0.1419 -0.3597
  145MOL0     C19040   2.587   5.790   0.368 -0.4172  0.2010 -0.2501
  145MOL0     C19041   2.726   5.814   0.378  0.2121  0.4576  0.0162
  145MOL0     C19042   2.818   5.705   0.382  0.7556 -0.3261 -0.1371
  145MOL0     O19043   2.955   5.714   0.370  0.0626  0.4103 -0.0244
  145MOL0     C19044   3.009   5.845   0.329  1.2256 -0.1943 -0.2668
  145MOL0     C19045   3.163   5.840   0.305  1.3334 -0.4071 -0.4028
  145MOL0     C19046   3.233   5.799   0.439 -0.3398 -0.0154 -0.9931
  145MOL0     C19047   3.376   5.747   0.411  0.6752  0.0108 -0.0665
  145MOL0     C19048   3.436   5.730   0.552  0.5573 -0.4079  0.3331
  145MOL0     C19049   3.581   5.703   0.535 -0.0631  0.3886 -0.4306
  145MOL0     C19050   3.660   5.703   0.664  0.1686 -0.0580 -1.0757
  145MOL0     C19051   3.799   5.714   0.635  0.3557  0.0531 -0.1635
  145MOL0    Cl19052   3.896   5.670   0.776 -0.0556  0.2428 -0.3662
  145MOL0     C19053   2.768   5.583   0.406 -1.1440  0.1591 -0.1319
  145MOL0     C19054   2.632   5.559   0.425 -0.1571 -0.0647 -0.7013
  145MOL0     O19055   2.308   5.785   0.286 -0.3829  1.1722  0.4528
  145MOL0     C19056   2.174   5.488   0.429  0.5383  0.8540 -0.8707
  145MOL0     C19057   2.049   5.426   0.442 -0.5187 -0.7518  0.1299
  145MOL0     N19058   1.468   5.139   0.781 -0.4560 -0.1976 -0.5535
  145MOL0     N19059   1.557   5.095   0.865  0.3060  0.0045  0.0935
  145MOL0     C19060   2.295   6.042   0.956 -0.4357 -0.2392 -0.2331
  145MOL0     C19061   2.423   6.090   0.924 -0.4361  0.1200 -0.3737
  145MOL0     C19062   2.822   6.212   0.766  0.6133  0.6653 -0.5767
  145MOL0     C19063   2.857   6.157   0.644 -0.7550  0.1644  0.7281
  145MOL0     C19064   2.986   6.176   0.595  0.9319  0.2082 -0.5808
  145MOL0     C19065   3.080   6.255   0.658 -0.4620 -0.7569 -1.1815
  145MOL0     O19066   3.192   6.270   0.586  0.1199  0.2256 -0.0444
  145MOL0     C19067   3.306   6.321   0.658 -0.0794 -0.2095  0.1643
  145MOL0     C19068   3.383   6.202   0.711  0.5021  0.4531  0.6534
  145MOL0     C19069   3.526   6.236   0.744 -0.1101  1.1165  0.2612
  145MOL0     C19070   3.625   6.132   0.686  0.6673 -0.8390  0.9449
  145MOL0     C19071   3.760   6.177   0.709 -0.0212  0.3344 -0.6673
  145MOL0     C19072   3.872   6.207   0.737  0.7331 -0.1004  0.1246
  145MOL0     C19073   3.048   6.301   0.787  0.3649  0.0313 -0.3210
  145MOL0     C19074   2.920   6.282   0.847 -0.5756 -0.1346  0.0333
  145MOL0     H19075   2.483   5.937   0.628 -0.4367  1.0034 -0.1117
  145MOL0     H19076   2.268   5.841   0.679  0.3028 -1.2488  0.4131
  145MOL0     H19077   2.055   5.903   0.702 -0.3470 -2.3404  0.8711
  145MOL0     H19078   1.962   6.003   0.823 -1.0284 -0.2092 -1.3806
  145MOL0     H19079   1.822   5.822   0.770 -0.3567  2.9268  1.7279
  145MOL0     H19080   1.910   5.780   0.924  0.8030 -1.1725 -0.6770
  145MOL0     H19081   2.059   5.632   0.764 -0.0352  2.7718  0.1655
  145MOL0     H19082   1.969   5.690   0.625  0.9700 -3.6330 -0.7905
  145MOL0     H19083   1.752   5.595   0.717 -2.7193 -2.4916  3.3491
  145MOL0     H19084   1.880   5.474   0.686 -1.9818 -2.4269  2.4249
  145MOL0     H19085   1.786   5.576   0.944  0.8678  2.5815 -1.1766
  145MOL0     H19086   1.950   5.500   0.922  0.5861  1.5349 -0.4376
  145MOL0     H19087   1.679   5.371   0.850 -0.0478  2.1633  1.5837
  145MOL0     H19088   1.761   5.367   1.011 -1.7348  0.6850  0.8300
  145MOL0     H19089   1.886   5.257   0.749 -0.7633 -4.4642  0.2377
  145MOL0     H19090   1.971   5.257   0.900 -0.4895 -0.7369  2.0632
  145MOL0     H19091   1.791   5.112   0.988  0.2902 -0.0381 -0.0615
  145MOL0     H19092   1.877   5.043   0.850 -0.0999  0.1604  0.1760
  145MOL0     H19093   1.737   5.116   0.596  1.9893 -0.4042  0.9030
  145MOL0     H19094   1.373   5.246   0.541  1.2151  2.8782  0.1333
  145MOL0     H19095   1.436   5.107   0.462 -1.2976 -1.3734  1.8443
  145MOL0     H19096   1.489   5.325   0.364 -0.1361 -0.7442  0.5577
  145MOL0     H19097   1.640   5.240   0.424 -1.1975 -3.9689  2.3162
  145MOL0     H19098   1.483   5.477   0.528  0.4890  0.8605 -0.3173
  145MOL0     H19099   1.602   5.418   0.634  0.4088  0.7979  0.7225
  145MOL0     H19100   1.697   5.584   0.495  0.8547 -0.0121 -1.0471
  145MOL0     H19101   1.645   5.519   0.339 -1.8968  2.3654  0.8187
  145MOL0     H19102   1.835   5.620   0.269 -1.1464 -0.0630  1.3599
  145MOL0     H19103   2.067   5.743   0.228 -2.2678  1.3387  2.0659
  145MOL0     H19104   2.519   5.873   0.358  0.0449  0.7115  0.7646
  145MOL0     H19105   2.767   5.913   0.359  0.6993 -0.1278 -2.3316
  145MOL0     H19106   2.980   5.921   0.402  0.2587  1.9649 -2.7594
  145MOL0     H19107   2.961   5.876   0.236  0.8447  0.4922  0.1526
  145MOL0     H19108   3.208   5.934   0.272  0.3667 -0.8311 -3.2743
  145MOL0     H19109   3.184   5.762   0.231 -1.2917 -0.5233 -1.1199
  145MOL0     H19110   3.183   5.717   0.491 -0.2665  1.0909  0.9032
  145MOL0     H19111   3.233   5.881   0.512  0.2244 -0.5263 -0.4072
  145MOL0     H19112   3.386   5.657   0.350  0.3833  0.4807 -0.8245
  145MOL0     H19113   3.436   5.823   0.360 -1.9632  2.6946  0.5503
  145MOL0     H19114   3.387   5.651   0.610 -0.6391 -0.1206 -0.2510
  145MOL0     H19115   3.423   5.822   0.610  0.2437  0.1275 -0.5712
  145MOL0     H19116   3.628   5.770   0.463  0.9423 -1.8143 -1.9451
  145MOL0     H19117   3.578   5.605   0.486 -2.1831  0.9088 -1.4883
  145MOL0     H19118   3.630   5.781   0.734  3.1037  1.0828 -0.9610
  145MOL0     H19119   3.639   5.606   0.711  3.5212 -0.2750  0.3071
  145MOL0     H19120   3.815   5.810   0.585 -0.2598  0.4730  0.4343
  145MOL0     H19121   3.833   5.641   0.561  0.1503  0.8550 -1.0779
  145MOL0     H19122   2.842   5.503   0.413 -0.5901  0.4960 -1.6750
  145MOL0     H19123   2.597   5.459   0.450 -0.1787 -0.1135 -0.9237
  145MOL0     H19124   2.261   5.450   0.480 -0.0066 -4.1469 -3.0848
  145MOL0     H19125   2.038   5.337   0.503 -1.8430  0.8123  2.3056
  145MOL0     H19126   2.231   6.059   1.043  2.1940 -1.4168  2.1117
  145MOL0     H19127   2.482   6.156   0.987  2.0760 -2.9826  0.7839
  145MOL0     H19128   2.795   6.086   0.591 -0.6428  1.8553 -1.8535
  145MOL0     H19129   3.010   6.116   0.508 -3.5907 -4.2373  0.7619
  145MOL0     H19130   3.293   6.395   0.738  1.5434 -0.1738  0.4396
  145MOL0     H19131   3.375   6.363   0.584 -2.1117  2.0303 -0.6033
  145MOL0     H19132   3.328   6.164   0.798  2.0222  0.1813  1.5274
  145MOL0     H19133   3.377   6.128   0.631  1.5938  1.0679 -0.0239
  145MOL0     H19134   3.533   6.240   0.853  1.8535 -2.2726  0.3956
  145MOL0     H19135   3.549   6.337   0.711  0.3699  0.5746 -1.1509
  145MOL0     H19136   3.596   6.032   0.719  0.5095 -1.5476 -1.1708
  145MOL0     H19137   3.607   6.121   0.578 -1.1750  1.2538  0.9769
  145MOL0     H19138   3.969   6.233   0.773  0.0451 -1.4437  3.4023
  145MOL0     H19139   3.109   6.364   0.851 -1.5665  0.6057  1.0419
  145MOL0     H19140   2.897   6.321   0.946  0.7279  1.0863 -0.1159
  146MOL0     O19141   8.475   1.676   4.904 -0.0724 -0.5127  0.1887
  146MOL0     C19142   8.431   1.575   4.954 -0.0876  0.3569 -0.4134
  146MOL0     O19143   8.497   1.477   5.032 -0.0948 -1.3640 -0.4497
  146MOL0     C19144   8.626   1.493   5.054  0.0197  0.6981 -0.7547
  146MOL0     C19145   8.710   1.384   5.006  0.2188 -0.2739  0.8326
  146MOL0     C19146   8.846   1.385   5.042  0.5729  0.3640 -0.2376
  146MOL0     C19147   8.910   1.480   5.124  0.5349  0.0730 -0.1321
  146MOL0     O19148   9.050   1.471   5.144 -0.1557 -0.3343 -0.3854
  146MOL0     C19149   9.115   1.587   5.189  0.0002 -0.4212 -0.5176
  146MOL0     C19150   9.263   1.558   5.203 -1.1595  0.4285  0.3274
  146MOL0     C19151   9.327   1.455   5.097 -0.3493 -0.0203 -0.2637
  146MOL0     C19152   9.481   1.463   5.099  0.2191  0.8989  0.6461
  146MOL0     C19153   9.545   1.335   5.146  0.1098 -0.3231 -0.0662
  146MOL0     C19154   9.701   1.359   5.150  0.9910  0.8233 -0.1658
  146MOL0     C19155   9.771   1.251   5.237 -0.0816 -0.8433  0.0817
  146MOL0     C19156   9.890   1.204   5.157 -0.0565  0.5823  0.2042
  146MOL0     N19157  10.003   1.301   5.137  0.0805  0.6455  0.2693
  146MOL0     C19158  10.093   1.352   5.234  0.4222 -0.4258  0.6091
  146MOL0     C19159  10.186   1.422   5.161 -0.0313 -0.4071  0.1060
  146MOL0     C19160  10.308   1.506   5.216  0.5312  0.0431 -0.3246
  146MOL0     C19161  10.267   1.659   5.237 -0.6614  0.3935 -0.6637
  146MOL0     C19162  10.190   1.724   5.124 -0.0650  0.3502 -0.7190
  146MOL0     C19163  10.039   1.753   5.145 -0.0802  0.3679  0.6012
  146MOL0     O19164   9.977   1.821   5.035  0.1845  0.0553 -0.3111
  146MOL0     C19165   9.844   1.807   5.004 -0.5655  0.3139 -0.0667
  146MOL0     C19166   9.809   1.791   4.870  0.5087 -0.4413  0.2630
  146MOL0     C19167   9.676   1.773   4.841  0.5189 -0.7779 -0.4986
  146MOL0     C19168   9.573   1.773   4.936  0.4231 -0.5938 -0.0791
  146MOL0     C19169   9.440   1.752   4.879 -0.1802 -0.7792 -0.1176
  146MOL0     O19170   9.432   1.726   4.745 -0.5432  0.2525  0.4200
  146MOL0     C19171   9.303   1.718   4.693  0.1124  0.3809 -0.0196
  146MOL0     C19172   9.211   1.630   4.744 -0.9677  0.4856  0.7763
  146MOL0     C19173   9.083   1.620   4.689  0.3758  0.4584  0.4926
  146MOL0     C19174   9.046   1.690   4.579  0.5112  0.4240  0.4867
  146MOL0     O19175   8.916   1.681   4.540  0.7198  0.2919 -0.6506
  146MOL0     C19176   8.855   1.811   4.511 -0.5895  0.7628  0.5105
  146MOL0     C19177   8.715   1.800   4.537 -0.0399  0.5721  0.4961
  146MOL0     C19178   8.628   1.750   4.423  0.5632 -0.3546  0.0291
  146MOL0     C19179   8.480   1.769   4.442 -0.9056  0.4754  0.6876
  146MOL0     C19180   8.408   1.697   4.324 -0.2825 -0.0206 -0.1740
  146MOL0     C19181   8.262   1.730   4.323 -0.6570  0.8201 -0.3635
  146MOL0     C19182   8.183   1.690   4.205 -0.0400  0.7671 -0.2614
  146MOL0     C19183   8.075   1.792   4.176 -0.0373  0.3344 -0.0030
  146MOL0    Cl19184   7.996   1.737   4.025 -0.6125  0.4799  0.0996
  146MOL0     C19185   9.141   1.773   4.523  0.0856 -0.1181  0.5765
  146MOL0     C19186   9.267   1.795   4.584 -0.3330 -0.3607  0.8883
  146MOL0     O19187   9.352   1.766   4.962 -0.4834 -0.0460  0.6933
  146MOL0     C19188   9.607   1.794   5.072  0.0481 -0.8873 -0.0962
  146MOL0     C19189   9.743   1.806   5.105 -0.4785 -0.3043  0.5200
  146MOL0     N19190  10.162   1.405   5.026  0.0033  0.3758 -0.7257
  146MOL0     N19191  10.052   1.341   5.008  0.1300 -0.1500 -0.3269
  146MOL0     C19192   8.828   1.585   5.159 -0.2818 -0.5244  0.5030
  146MOL0     C19193   8.687   1.589   5.133 -0.0076  0.7297 -0.9041
  146MOL0     C19194   8.292   1.556   4.928 -0.3950  0.1134 -1.2077
  146MOL0     C19195   8.242   1.588   4.800  0.1968 -0.2741  0.0045
  146MOL0     C19196   8.118   1.558   4.767  0.5006  0.7873  0.2472
  146MOL0     C19197   8.031   1.500   4.866 -0.7614  0.0782 -0.0563
  146MOL0     O19198   7.896   1.482   4.829 -0.1819  0.1589  0.1580
  146MOL0     C19199   7.789   1.483   4.926  0.1440 -0.1389 -1.1291
  146MOL0     C19200   7.776   1.611   5.014 -0.1092 -0.1714  0.1290
  146MOL0     C19201   7.729   1.729   4.929  0.3969 -0.3126 -0.9144
  146MOL0     C19202   7.834   1.792   4.834 -0.5214 -0.5751 -0.4549
  146MOL0     C19203   7.771   1.869   4.730  0.0953  0.2397  0.1042
  146MOL0     C19204   7.720   1.938   4.656  0.3804  0.0746 -0.1066
  146MOL0     C19205   8.075   1.476   4.989  0.6051 -0.0865 -1.1496
  146MOL0     C19206   8.203   1.494   5.027 -0.1152 -0.1079 -0.5105
  146MOL0     H19207   8.667   1.308   4.942 -0.0835  0.8439 -0.3288
  146MOL0     H19208   8.903   1.295   5.019 -0.4945  0.0894 -2.0337
  146MOL0     H19209   9.081   1.611   5.290 -0.9766  1.1443 -1.1887
  146MOL0     H19210   9.104   1.675   5.124 -0.8027  1.0507  1.4958
  146MOL0     H19211   9.286   1.519   5.303 -0.9092 -0.0649  0.0803
  146MOL0     H19212   9.323   1.649   5.197 -2.4461  1.2124 -3.1442
  146MOL0     H19213   9.291   1.474   4.995  0.1868  1.3269 -0.2324
  146MOL0     H19214   9.301   1.356   5.133  0.4187  0.8465  2.9488
  146MOL0     H19215   9.517   1.476   4.997  1.0596 -0.0957  0.7984
  146MOL0     H19216   9.512   1.543   5.168  2.2984 -0.6958  1.6902
  146MOL0     H19217   9.513   1.249   5.085  1.2477 -0.9121  0.1491
  146MOL0     H19218   9.513   1.320   5.249 -2.7662 -1.4764 -1.0064
  146MOL0     H19219   9.722   1.453   5.203 -0.6782 -0.2463  2.5753
  146MOL0     H19220   9.740   1.363   5.047  4.3153 -2.0549  0.7946
  146MOL0     H19221   9.800   1.287   5.336 -0.1589 -0.9728  0.1518
  146MOL0     H19222   9.699   1.170   5.244 -2.0566  0.9646  2.4067
  146MOL0     H19223   9.849   1.160   5.066 -2.2639  1.0233  0.9162
  146MOL0     H19224   9.932   1.121   5.214 -0.8174  1.0093  1.4359
  146MOL0     H19225  10.102   1.328   5.339 -1.8535  0.3645  1.0537
  146MOL0     H19226  10.395   1.504   5.150  0.7600 -2.9976 -0.0704
  146MOL0     H19227  10.332   1.464   5.314  2.3201  1.7354  0.0221
  146MOL0     H19228  10.355   1.721   5.251  1.1410 -2.1110 -0.3330
  146MOL0     H19229  10.203   1.649   5.326  3.5963 -4.4968  2.3922
  146MOL0     H19230  10.238   1.821   5.108 -0.1046  0.1295 -2.3895
  146MOL0     H19231  10.200   1.667   5.031 -0.7306  0.0790 -0.6309
  146MOL0     H19232  10.037   1.821   5.231  0.0224 -1.1742  1.8743
  146MOL0     H19233   9.988   1.659   5.169  1.0075 -0.1727  0.8323
  146MOL0     H19234   9.885   1.771   4.795  1.8713  3.1086  0.4986
  146MOL0     H19235   9.666   1.756   4.734 -2.7156 -0.8411 -0.2601
  146MOL0     H19236   9.238   1.564   4.826  1.0998 -1.8444 -1.5963
  146MOL0     H19237   9.021   1.540   4.729  0.0772  1.2972  1.7329
  146MOL0     H19238   8.873   1.835   4.406 -2.2384 -3.3551 -0.9387
  146MOL0     H19239   8.902   1.878   4.585 -2.0683  1.3957  0.9117
  146MOL0     H19240   8.684   1.900   4.569  1.3433  0.7131  1.5087
  146MOL0     H19241   8.719   1.732   4.623 -1.3349  1.3263  1.1795
  146MOL0     H19242   8.644   1.642   4.428  0.3836 -0.3621  0.5645
  146MOL0     H19243   8.658   1.791   4.326  2.5359 -2.6975 -0.4471
  146MOL0     H19244   8.444   1.725   4.535  0.9652 -1.8318  0.4158
  146MOL0     H19245   8.462   1.876   4.430 -1.2438  0.3372 -0.1236
  146MOL0     H19246   8.435   1.591   4.326 -0.1131 -0.0180 -1.3298
  146MOL0     H19247   8.453   1.739   4.234  1.4939 -0.7776  0.3073
  146MOL0     H19248   8.244   1.836   4.340 -1.8045  0.6387 -0.3695
  146MOL0     H19249   8.220   1.694   4.417 -0.7739  0.7785 -0.4312
  146MOL0     H19250   8.251   1.690   4.119  4.3439  0.4067  2.8609
  146MOL0     H19251   8.135   1.592   4.209  0.3011  0.4193 -2.7164
  146MOL0     H19252   8.120   1.891   4.161 -1.9138  1.6815  2.4730
  146MOL0     H19253   8.010   1.797   4.264  0.1055  1.7852  0.0569
  146MOL0     H19254   9.135   1.844   4.441 -3.1739 -2.7889 -1.7899
  146MOL0     H19255   9.334   1.869   4.541  2.1552 -1.2819  2.9226
  146MOL0     H19256   9.527   1.794   5.145 -1.2154  1.6017 -1.3615
  146MOL0     H19257   9.770   1.819   5.209  2.2258  2.1678 -0.3683
  146MOL0     H19258   8.858   1.674   5.215  1.9717 -1.7801  1.4424
  146MOL0     H19259   8.627   1.676   5.159 -0.2997 -0.0078  1.0797
  146MOL0     H19260   8.308   1.630   4.724  1.6727 -3.0547 -0.3855
  146MOL0     H19261   8.073   1.567   4.669  0.1655 -0.7678  0.2318
  146MOL0     H19262   7.818   1.397   4.987  1.0055  0.2270 -1.0011
  146MOL0     H19263   7.695   1.459   4.876  0.6705  0.1254 -2.2854
  146MOL0     H19264   7.712   1.598   5.102  0.7026 -2.1783  0.4622
  146MOL0     H19265   7.868   1.636   5.067 -0.6486 -1.4197  1.7323
  146MOL0     H19266   7.699   1.808   4.998 -0.9519 -2.2394  0.8624
  146MOL0     H19267   7.641   1.705   4.868 -2.3655  0.7886  2.2957
  146MOL0     H19268   7.907   1.845   4.896  3.0791 -4.7836 -0.6279
  146MOL0     H19269   7.893   1.712   4.790  0.6125  1.4686 -2.9315
  146MOL0     H19270   7.687   1.992   4.570 -1.2928  0.7293  0.9050
  146MOL0     H19271   8.016   1.423   5.062  2.3409 -0.2932  0.1671
  146MOL0     H19272   8.240   1.462   5.123 -2.1148 -1.3110 -0.0964
  147MOL0     O19273   3.425  10.301   1.954  0.4645  0.1791 -0.3547
  147MOL0     C19274   3.451  10.182   1.946  0.9046  0.2063  0.2339
  147MOL0     O19275   3.357  10.081   1.929 -0.0617 -0.6069 -0.0794
  147MOL0     C19276   3.223  10.117   1.917  0.3651  0.3326  0.1330
  147MOL0     C19277   3.141  10.099   2.034  0.2731 -0.4998 -0.1986
  147MOL0     C19278   3.005  10.115   2.027  0.0482 -0.4480  0.4919
  147MOL0     C19279   2.948  10.153   1.899 -0.6718  0.1854  0.7038
  147MOL0     O19280   2.822  10.185   1.883 -0.1870  0.5889 -0.4576
  147MOL0     C19281   2.756  10.233   2.004 -0.4305  0.1950  0.0391
  147MOL0     C19282   2.633  10.318   1.968 -0.2428 -0.6494 -0.1441
  147MOL0     C19283   2.587  10.398   2.095 -0.0682  0.3964 -0.0767
  147MOL0     C19284   2.465  10.501   2.105  0.7413 -0.4467  0.4671
  147MOL0     C19285   2.335  10.423   2.076 -0.4753  1.2839  0.1105
  147MOL0     C19286   2.210  10.505   2.091 -0.1192  1.0917  0.1389
  147MOL0     C19287   2.139  10.476   2.233 -0.2969  0.5016 -1.0313
  147MOL0     C19288   2.037  10.580   2.259 -0.2113  0.6718 -0.1767
  147MOL0     N19289   1.922  10.575   2.164  0.0916 -0.0710 -0.4589
  147MOL0     C19290   1.809  10.495   2.167 -1.0623 -0.2956  0.5899
  147MOL0     C19291   1.739  10.532   2.058 -0.7018  0.5753  0.1520
  147MOL0     C19292   1.606  10.465   2.007  0.2750  0.4799  0.8898
  147MOL0     C19293   1.497  10.483   2.105 -0.4684  0.9086  0.0394
  147MOL0     C19294   1.527  10.436   2.249  0.1087  0.3331  0.1001
  147MOL0     C19295   1.397  10.438   2.328  0.9645  0.1503  0.4558
  147MOL0     O19296   1.338  10.563   2.353  0.2538 -0.2592  0.2281
  147MOL0     C19297   1.208  10.562   2.409 -0.6445  0.7403  0.2410
  147MOL0     C19298   1.119  10.634   2.335 -0.6753 -0.5403 -0.4704
  147MOL0     C19299   0.990  10.633   2.383 -0.1606 -0.5259 -0.3326
  147MOL0     C19300   0.953  10.575   2.501  0.1147  0.8399  0.5867
  147MOL0     C19301   0.820  10.583   2.560 -0.1088 -0.4038 -0.3749
  147MOL0     O19302   0.805  10.547   2.693 -0.4216  0.0784 -0.5771
  147MOL0     C19303   0.680  10.561   2.747 -0.3174 -0.5743  0.4930
  147MOL0     C19304   0.576  10.484   2.696 -0.5263 -2.1575  0.3381
  147MOL0     C19305   0.442  10.484   2.746  0.6150  0.2681 -0.3327
  147MOL0     C19306   0.419  10.569   2.856  0.7653 -0.2934  0.9869
  147MOL0     O19307   0.297  10.572   2.931 -0.5376 -0.8709  0.2613
  147MOL0     C19308   0.290  10.652   3.048 -0.5051 -0.7612  0.4014
  147MOL0     C19309   0.160  10.654   3.120  0.6393  0.2679 -0.0542
  147MOL0     C19310   0.110  10.526   3.178  0.8221 -0.8973  0.3244
  147MOL0     C19311  -0.020  10.548   3.249  0.0136 -0.3331 -0.1766
  147MOL0     C19312  -0.077  10.431   3.315  0.6252  0.6069  0.6743
  147MOL0     C19313  -0.189  10.356   3.237 -0.1827  0.5519  0.5393
  147MOL0     C19314  -0.219  10.238   3.317 -0.4945  0.4180  0.6399
  147MOL0     C19315  -0.315  10.260   3.439 -0.1628 -0.1407  0.7349
  147MOL0    Cl19316  -0.474  10.328   3.391  0.3021 -0.1805  0.2760
  147MOL0     C19317   0.528  10.652   2.902  0.9361 -0.4406  0.3416
  147MOL0     C19318   0.658  10.656   2.844  0.5752 -0.1095  0.5185
  147MOL0     O19319   0.730  10.638   2.494 -0.0873 -0.7490 -0.8689
  147MOL0     C19320   1.050  10.493   2.566  0.1346 -0.8454  0.1185
  147MOL0     C19321   1.184  10.487   2.518 -1.3885  0.5548  0.4201
  147MOL0     N19322   1.783  10.643   2.002  1.1238 -0.5458  0.2051
  147MOL0     N19323   1.896  10.663   2.058 -0.3966  0.4262 -0.5404
  147MOL0     C19324   3.029  10.167   1.786 -0.2041  0.3713 -0.6694
  147MOL0     C19325   3.165  10.138   1.800 -0.2505  0.1448 -1.0588
  147MOL0     C19326   3.592  10.151   1.945  0.1135  0.2811  0.9263
  147MOL0     C19327   3.636  10.017   1.937  0.2105 -0.3915 -0.1851
  147MOL0     C19328   3.772   9.981   1.961  0.1809  0.3146  0.3207
  147MOL0     C19329   3.870  10.080   1.993 -1.1394 -0.4955 -0.7001
  147MOL0     O19330   4.001  10.056   2.034  0.7308  0.6796 -0.2264
  147MOL0     C19331   4.046   9.919   2.025  0.9399  0.8405  0.6640
  147MOL0     C19332   4.199   9.912   2.007 -0.0345 -0.5923  0.1178
  147MOL0     C19333   4.275   9.967   2.128 -0.2745 -0.0943  0.1808
  147MOL0     C19334   4.428   9.956   2.133 -0.1645 -0.6317  0.1709
  147MOL0     C19335   4.463   9.810   2.159  0.3564  0.4772 -0.9479
  147MOL0     C19336   4.475   9.693   2.191 -0.2830  0.2055  0.5747
  147MOL0     C19337   3.827  10.210   2.004  0.1928  0.1837  0.3496
  147MOL0     C19338   3.693  10.242   1.981 -0.3449 -0.0352 -0.5367
  147MOL0     H19339   3.179  10.076   2.133  0.1875  1.5386  0.3600
  147MOL0     H19340   2.943  10.094   2.113 -1.6018  0.1117 -0.5246
  147MOL0     H19341   2.826  10.286   2.068  0.6161  0.0818 -0.9659
  147MOL0     H19342   2.712  10.149   2.060 -0.8818  0.0579 -0.5001
  147MOL0     H19343   2.556  10.250   1.931  0.3996 -0.4738 -1.8687
  147MOL0     H19344   2.647  10.392   1.888 -2.3792  0.4530  0.4360
  147MOL0     H19345   2.676  10.457   2.121  0.8038 -0.4253 -1.1044
  147MOL0     H19346   2.580  10.322   2.174 -0.6678 -1.0963 -1.5013
  147MOL0     H19347   2.457  10.538   2.207  1.2464 -0.1237  0.3893
  147MOL0     H19348   2.483  10.586   2.039 -1.6795  0.8596  1.3667
  147MOL0     H19349   2.321  10.331   2.134  0.7449  1.5131  0.8113
  147MOL0     H19350   2.350  10.398   1.971  2.0669  0.6593  0.5538
  147MOL0     H19351   2.146  10.465   2.012  0.8660  0.9441 -0.5892
  147MOL0     H19352   2.229  10.611   2.068 -2.1668  0.9061 -2.9333
  147MOL0     H19353   2.100  10.375   2.250 -3.2037  1.4568 -1.6227
  147MOL0     H19354   2.211  10.504   2.311 -0.2821  0.4292 -1.0183
  147MOL0     H19355   2.088  10.677   2.252  1.2197  0.0074  0.5916
  147MOL0     H19356   2.000  10.567   2.361  1.3596  3.8607  0.9396
  147MOL0     H19357   1.792  10.416   2.238 -2.2736  0.8483  1.6272
  147MOL0     H19358   1.616  10.358   1.988  1.5305  0.8232 -0.5433
  147MOL0     H19359   1.586  10.511   1.910  0.1448 -0.8179  0.2682
  147MOL0     H19360   1.425  10.413   2.063  0.6533  1.3668 -2.8568
  147MOL0     H19361   1.482  10.591   2.098  1.7570  1.1631 -1.5988
  147MOL0     H19362   1.572  10.337   2.254  3.3620  1.2727 -4.3029
  147MOL0     H19363   1.595  10.506   2.299  2.5021 -0.9805 -1.1329
  147MOL0     H19364   1.423  10.397   2.426  0.0516 -1.6689 -0.0133
  147MOL0     H19365   1.315  10.375   2.290  0.9759  0.3062  0.1671
  147MOL0     H19366   1.146  10.689   2.245 -1.8079  2.6763  0.9717
  147MOL0     H19367   0.910  10.687   2.333 -1.0263 -1.5546 -0.0908
  147MOL0     H19368   0.598  10.401   2.629  0.1740 -2.4831  0.9481
  147MOL0     H19369   0.382  10.403   2.706  2.3414 -1.5338  0.5725
  147MOL0     H19370   0.311  10.758   3.027  1.7607 -0.7486  2.3228
  147MOL0     H19371   0.363  10.616   3.120  0.0513 -1.8610 -0.6791
  147MOL0     H19372   0.077  10.689   3.057 -0.0489 -1.2860 -0.0468
  147MOL0     H19373   0.179  10.732   3.194  2.9735  0.9514 -1.2793
  147MOL0     H19374   0.183  10.488   3.250  1.5709 -1.3542 -0.6541
  147MOL0     H19375   0.094  10.446   3.105  1.7991 -0.6806 -0.1390
  147MOL0     H19376   0.009  10.621   3.325 -0.1173 -1.9540  1.4847
  147MOL0     H19377  -0.096  10.594   3.185  2.4703  1.6666 -1.8691
  147MOL0     H19378  -0.128  10.473   3.402  1.4987  3.3719 -0.0411
  147MOL0     H19379  -0.008  10.361   3.364 -1.4979 -1.8029  0.4337
  147MOL0     H19380  -0.162  10.326   3.135  2.1679 -0.2866  1.3509
  147MOL0     H19381  -0.275  10.421   3.217  0.2733  0.6481 -1.2829
  147MOL0     H19382  -0.263  10.156   3.260  5.1512 -2.9457  0.3825
  147MOL0     H19383  -0.128  10.189   3.352  0.5696  0.1430 -2.2306
  147MOL0     H19384  -0.265  10.326   3.510 -0.1976 -0.6285  1.2099
  147MOL0     H19385  -0.330  10.172   3.501  1.5284  1.1339  3.0894
  147MOL0     H19386   0.513  10.723   2.983 -0.9822  0.0230 -0.3724
  147MOL0     H19387   0.735  10.729   2.868 -0.0015  0.9451 -0.7110
  147MOL0     H19388   1.025  10.434   2.653  2.1748 -1.5513  0.2889
  147MOL0     H19389   1.259  10.427   2.568 -1.5137 -0.0310 -0.0824
  147MOL0     H19390   2.984  10.192   1.690  0.9201 -0.8066 -1.5421
  147MOL0     H19391   3.224  10.135   1.709  0.3537 -1.0675 -0.6400
  147MOL0     H19392   3.564   9.937   1.925 -1.3561  0.9742 -0.2054
  147MOL0     H19393   3.797   9.875   1.955 -0.7991 -0.0211  1.7942
  147MOL0     H19394   4.001   9.869   1.939 -1.5373  0.9160  1.8476
  147MOL0     H19395   4.009   9.861   2.109 -1.0733  1.3567  0.1778
  147MOL0     H19396   4.227   9.808   1.988  2.0268  0.3720 -2.9768
  147MOL0     H19397   4.225   9.974   1.920 -0.4303 -0.6864 -0.0716
  147MOL0     H19398   4.236   9.911   2.213  0.1524 -2.3330 -1.0402
  147MOL0     H19399   4.235  10.065   2.156  0.4931  0.5812 -0.9949
  147MOL0     H19400   4.481   9.975   2.039  0.7405 -4.5321 -0.3014
  147MOL0     H19401   4.470  10.020   2.211 -2.1184  1.4806 -0.4408
  147MOL0     H19402   4.486   9.592   2.227 -1.7955 -0.8383 -1.6667
  147MOL0     H19403   3.897  10.288   2.032 -0.0877  1.2512 -1.7442
  147MOL0     H19404   3.658  10.345   1.980  0.1003  0.1518  0.7287
  148MOL0     O19405   9.529   7.738  10.405  0.4607 -0.0154 -0.2405
  148MOL0     C19406   9.548   7.616  10.400  0.2866 -0.6077 -0.4431
  148MOL0     O19407   9.450   7.521  10.416  1.0321 -0.7526 -0.3132
  148MOL0     C19408   9.317   7.554  10.448  0.4393  0.8612 -0.2324
  148MOL0     C19409   9.223   7.468  10.382 -0.7120 -0.8156 -0.4821
  148MOL0     C19410   9.087   7.496  10.399  0.1708 -0.6500  0.6419
  148MOL0     C19411   9.045   7.588  10.492  1.1321  0.0415 -0.0481
  148MOL0     O19412   8.920   7.587  10.545  0.2261  0.5370 -0.0643
  148MOL0     C19413   8.846   7.461  10.571  0.2124 -0.8246 -0.0177
  148MOL0     C19414   8.691   7.508  10.578 -1.1222 -0.6110 -0.4410
  148MOL0     C19415   8.606   7.393  10.632  0.0818 -0.4947 -0.3132
  148MOL0     C19416   8.457   7.433  10.626  0.6119 -0.2545  0.0138
  148MOL0     C19417   8.375   7.306  10.631  0.3088  0.0793  0.6400
  148MOL0     C19418   8.230   7.330  10.625 -0.6665  0.1686 -0.4466
  148MOL0     C19419   8.158   7.201  10.594  0.7013 -0.3929 -0.6784
  148MOL0     C19420   8.009   7.211  10.552 -0.1461  0.8555  0.4265
  148MOL0     N19421   7.923   7.244  10.664 -0.7557  0.6829  0.5649
  148MOL0     C19422   7.851   7.354  10.686 -0.3931 -0.9992  0.4952
  148MOL0     C19423   7.780   7.339  10.792  0.5688  0.2691 -0.4531
  148MOL0     C19424   7.671   7.436  10.834  0.0541 -0.1641 -0.1120
  148MOL0     C19425   7.548   7.422  10.740 -0.3911  0.0265 -0.0265
  148MOL0     C19426   7.479   7.284  10.743 -0.5723  0.3564  0.8225
  148MOL0     C19427   7.337   7.281  10.678 -0.0998  0.7105 -0.2050
  148MOL0     O19428   7.247   7.339  10.770 -0.1391  0.4635  0.9599
  148MOL0     C19429   7.115   7.321  10.748  0.8816 -0.7232 -0.3716
  148MOL0     C19430   7.025   7.384  10.842  0.5640 -0.5328  0.3467
  148MOL0     C19431   6.885   7.374  10.843  0.5562  0.8303  0.2182
  148MOL0     C19432   6.821   7.287  10.749 -0.1923  0.9188  0.0660
  148MOL0     C19433   6.672   7.274  10.742  0.1342 -0.2076 -0.6821
  148MOL0     O19434   6.595   7.366  10.809 -0.6133  0.7716 -0.1940
  148MOL0     C19435   6.462   7.368  10.808  0.0184  0.0281  0.4054
  148MOL0     C19436   6.399   7.384  10.934 -0.0495  0.0158 -0.6824
  148MOL0     C19437   6.259   7.393  10.939  0.5025  0.2236  0.8620
  148MOL0     C19438   6.183   7.387  10.816 -0.4309 -0.0868  0.0698
  148MOL0     O19439   6.041   7.385  10.830 -0.4011 -0.5012  0.8109
  148MOL0     C19440   5.950   7.408  10.711  0.1549  0.3387  0.1984
  148MOL0     C19441   5.804   7.431  10.764 -0.1178 -0.3380 -0.3354
  148MOL0     C19442   5.787   7.567  10.838 -0.1323 -0.8470 -0.0750
  148MOL0     C19443   5.656   7.559  10.921  0.1349  0.1096  0.5437
  148MOL0     C19444   5.620   7.680  10.998 -0.0465 -0.5751  0.3279
  148MOL0     C19445   5.665   7.673  11.143  0.3915 -0.5505  0.9385
  148MOL0     C19446   5.656   7.808  11.221 -0.0005 -1.0328  0.6090
  148MOL0     C19447   5.508   7.852  11.222  0.2823  0.2060 -0.1276
  148MOL0    Cl19448   5.490   7.995  11.334 -0.4994  0.2173  0.6517
  148MOL0     C19449   6.247   7.368  10.696 -0.4028 -0.5970 -0.1677
  148MOL0     C19450   6.385   7.357  10.692 -1.3628 -0.1340  0.8001
  148MOL0     O19451   6.628   7.176  10.681  0.3288 -0.1227  0.7813
  148MOL0     C19452   6.916   7.220  10.653 -0.6580 -0.1502  0.1572
  148MOL0     C19453   7.051   7.247  10.650 -0.6779  0.6065 -1.0343
  148MOL0     N19454   7.814   7.217  10.843  0.4862 -0.2111  0.6068
  148MOL0     N19455   7.897   7.158  10.764 -0.4020 -0.0265 -0.1693
  148MOL0     C19456   9.139   7.667  10.560 -0.6232 -0.5340  0.6181
  148MOL0     C19457   9.276   7.660  10.535  0.2700 -0.5836 -0.2136
  148MOL0     C19458   9.680   7.569  10.347  0.1214 -0.4028 -0.2159
  148MOL0     C19459   9.781   7.659  10.324 -0.0107 -0.0528  0.7360
  148MOL0     C19460   9.912   7.614  10.270 -0.2555  0.5967  0.2808
  148MOL0     C19461   9.937   7.474  10.267  0.9523  0.2304 -0.4401
  148MOL0     O19462  10.052   7.448  10.202  0.0123  0.2173 -0.3397
  148MOL0     C19463  10.107   7.317  10.199 -0.0371  0.3902 -0.1448
  148MOL0     C19464  10.195   7.291  10.323  0.2383 -0.1638 -0.4359
  148MOL0     C19465  10.293   7.171  10.291  0.0922 -0.7248 -0.1059
  148MOL0     C19466  10.429   7.223  10.242  0.3183 -0.3107  0.2682
  148MOL0     C19467  10.437   7.258  10.098 -0.3448 -0.3463 -0.8193
  148MOL0     C19468  10.441   7.282   9.979  0.3942  0.5040 -0.0936
  148MOL0     C19469   9.845   7.387  10.314 -0.2610  0.9398 -0.3601
  148MOL0     C19470   9.715   7.432  10.343 -0.0375  0.5926  0.7606
  148MOL0     H19471   9.247   7.386  10.315  0.9944  0.1127 -1.0849
  148MOL0     H19472   9.018   7.425  10.355 -0.1851 -1.1002  1.8681
  148MOL0     H19473   8.885   7.431  10.669  1.1016 -0.4331 -0.2352
  148MOL0     H19474   8.851   7.378  10.500 -2.8260 -0.9336 -0.2006
  148MOL0     H19475   8.663   7.530  10.475 -0.1091 -1.9490 -1.0405
  148MOL0     H19476   8.664   7.583  10.654 -0.2364 -2.4971  1.8740
  148MOL0     H19477   8.639   7.365  10.732  3.4281  1.0197 -0.8732
  148MOL0     H19478   8.607   7.307  10.564 -2.2614 -0.3867 -0.5601
  148MOL0     H19479   8.441   7.499  10.712 -1.8889 -1.0174  0.2026
  148MOL0     H19480   8.433   7.481  10.530 -2.5625 -0.5104  0.5778
  148MOL0     H19481   8.393   7.251  10.724  1.9541  0.5666  0.6406
  148MOL0     H19482   8.396   7.259  10.534 -4.2003  1.0288 -1.0155
  148MOL0     H19483   8.203   7.404  10.549  0.2837  1.0898  0.0884
  148MOL0     H19484   8.204   7.367  10.724 -2.9485  0.4448 -1.0778
  148MOL0     H19485   8.205   7.164  10.503  2.8913  2.1350 -0.7065
  148MOL0     H19486   8.175   7.129  10.674  2.1985 -2.3536 -2.6491
  148MOL0     H19487   7.983   7.112  10.514  0.1120  0.4831  1.1930
  148MOL0     H19488   8.002   7.281  10.469  2.8028  3.5845  2.2416
  148MOL0     H19489   7.853   7.437  10.616 -0.8659 -1.8526 -0.5688
  148MOL0     H19490   7.702   7.541  10.839 -3.0599  0.8212  0.4389
  148MOL0     H19491   7.636   7.403  10.932  1.3507 -0.0257  0.4167
  148MOL0     H19492   7.584   7.447  10.640  0.0044 -0.7069 -0.0756
  148MOL0     H19493   7.477   7.497  10.774 -2.2169 -1.3207 -0.6593
  148MOL0     H19494   7.547   7.215  10.692 -2.1511  1.0848 -2.5430
  148MOL0     H19495   7.463   7.242  10.843  1.4557  1.1942  1.5492
  148MOL0     H19496   7.317   7.176  10.659  1.2157  0.1964  1.0633
  148MOL0     H19497   7.339   7.328  10.579  1.0295  1.7498  0.2679
  148MOL0     H19498   7.069   7.450  10.916  1.7601 -3.1485  2.1094
  148MOL0     H19499   6.824   7.419  10.920  0.7557  1.0243  0.2656
  148MOL0     H19500   6.454   7.392  11.028  0.6248  2.5223 -1.2171
  148MOL0     H19501   6.216   7.409  11.038  2.0706  2.4140  1.2632
  148MOL0     H19502   5.950   7.330  10.634 -0.1894 -0.7173  1.2280
  148MOL0     H19503   5.976   7.503  10.665  0.1184  1.1984  1.8706
  148MOL0     H19504   5.761   7.348  10.819 -3.2552 -0.7165 -3.0805
  148MOL0     H19505   5.752   7.441  10.669  0.7325 -1.9082 -0.9987
  148MOL0     H19506   5.779   7.652  10.770 -2.7125 -0.8461  0.1581
  148MOL0     H19507   5.874   7.579  10.903 -1.5261 -2.0946  2.1399
  148MOL0     H19508   5.577   7.551  10.846  2.3658 -0.7944 -1.8641
  148MOL0     H19509   5.647   7.470  10.984 -0.5216 -0.5005 -0.3817
  148MOL0     H19510   5.511   7.691  10.996 -0.1442 -1.2052  1.2000
  148MOL0     H19511   5.656   7.774  10.956  3.0204 -0.6705  2.3895
  148MOL0     H19512   5.766   7.634  11.157  0.0161 -1.8558  0.2009
  148MOL0     H19513   5.595   7.599  11.183  1.6200 -0.8759  2.5944
  148MOL0     H19514   5.689   7.793  11.324 -0.2572 -0.7584  0.7330
  148MOL0     H19515   5.726   7.879  11.175  1.5740 -2.1300  1.2333
  148MOL0     H19516   5.440   7.768  11.242 -1.0353  0.6889 -2.2641
  148MOL0     H19517   5.476   7.885  11.122 -1.0864 -1.6199 -0.3541
  148MOL0     H19518   6.194   7.357  10.602 -3.3326  2.0729  0.9609
  148MOL0     H19519   6.431   7.329  10.598  1.2508  0.2784  1.8564
  148MOL0     H19520   6.858   7.146  10.599 -1.0719 -0.9962  1.6969
  148MOL0     H19521   7.121   7.197  10.584  0.6643 -0.4119  1.0177
  148MOL0     H19522   9.109   7.741  10.633  0.9458 -0.5427  1.3150
  148MOL0     H19523   9.344   7.723  10.592  2.2996 -3.2469  0.5188
  148MOL0     H19524   9.767   7.763  10.349 -2.2295  0.0287 -0.5589
  148MOL0     H19525   9.982   7.692  10.242 -0.2971  0.7853  0.6861
  148MOL0     H19526  10.165   7.309  10.107 -3.0778 -1.7282 -2.0862
  148MOL0     H19527  10.027   7.244  10.184 -0.5465  1.2523 -1.9311
  148MOL0     H19528  10.253   7.375  10.362 -0.3510  0.4345 -0.8392
  148MOL0     H19529  10.123   7.254  10.397  1.0075 -1.6374 -0.3855
  148MOL0     H19530  10.245   7.104  10.219 -0.8090  0.6888 -0.8840
  148MOL0     H19531  10.313   7.116  10.383  1.2192  1.6698  1.1748
  148MOL0     H19532  10.469   7.310  10.295 -1.9931  0.3257  1.0842
  148MOL0     H19533  10.496   7.139  10.263  2.8205  1.0684 -1.5521
  148MOL0     H19534  10.452   7.303   9.875  2.1360  0.0283 -0.0399
  148MOL0     H19535   9.864   7.280  10.312  1.2131  1.0940  1.6748
  148MOL0     H19536   9.639   7.355  10.353 -0.6819  1.1713  0.3603
  149MOL0     O19537   5.461   3.605  10.454  0.2147 -0.6006  0.4361
  149MOL0     C19538   5.497   3.539  10.550  0.8816  0.4537  0.3751
  149MOL0     O19539   5.414   3.463  10.631 -0.5812 -0.2019  0.2061
  149MOL0     C19540   5.285   3.459  10.589 -0.0317 -0.2390 -0.4899
  149MOL0     C19541   5.239   3.354  10.507  0.2893 -0.6027 -0.3945
  149MOL0     C19542   5.100   3.351  10.464 -0.3819 -0.1305  0.6030
  149MOL0     C19543   5.005   3.440  10.512  0.8210  0.1365 -0.4331
  149MOL0     O19544   4.865   3.424  10.491 -0.1623 -0.4555 -0.5081
  149MOL0     C19545   4.806   3.295  10.513 -0.8397 -0.2584  0.2328
  149MOL0     C19546   4.654   3.310  10.528 -0.0073 -0.3735  0.4338
  149MOL0     C19547   4.583   3.313  10.398  0.4683  0.9329 -0.5475
  149MOL0     C19548   4.434   3.361  10.407 -0.0235  0.9125 -0.7497
  149MOL0     C19549   4.411   3.504  10.455 -0.7720  0.1709 -1.4728
  149MOL0     C19550   4.259   3.532  10.448  0.1712  0.3064 -0.8082
  149MOL0     C19551   4.236   3.673  10.484  0.1968  1.1335 -0.2380
  149MOL0     C19552   4.077   3.705  10.470  0.1456 -0.3203  0.3964
  149MOL0     N19553   4.045   3.767  10.345  0.2496  0.2837  0.1312
  149MOL0     C19554   3.962   3.880  10.325  0.3596  0.8063  0.2446
  149MOL0     C19555   3.939   3.877  10.187  0.3020  0.1580 -0.1255
  149MOL0     C19556   3.854   3.956  10.097  1.0409 -0.7154  0.0637
  149MOL0     C19557   3.703   3.952  10.123  0.0940  0.1980  0.1877
  149MOL0     C19558   3.638   4.077  10.078 -0.2949 -0.1856  0.2447
  149MOL0     C19559   3.633   4.180  10.182  0.1372  1.2055 -0.2926
  149MOL0     O19560   3.570   4.296  10.119 -0.3966  0.1554 -0.0076
  149MOL0     C19561   3.441   4.290  10.073  0.4807  0.0550 -0.6712
  149MOL0     C19562   3.349   4.211  10.149 -0.2188 -0.4297  0.9646
  149MOL0     C19563   3.212   4.244  10.137  0.5476  0.8371  0.0691
  149MOL0     C19564   3.156   4.340  10.043 -0.1206  1.1447  0.0091
  149MOL0     C19565   3.013   4.366  10.031  0.5882  1.1553 -0.7104
  149MOL0     O19566   2.923   4.291  10.112 -0.8073 -0.1954  0.1304
  149MOL0     C19567   2.785   4.312  10.117 -0.0231 -0.8024 -0.2659
  149MOL0     C19568   2.711   4.420  10.065  0.1398  0.1859 -0.6097
  149MOL0     C19569   2.576   4.419  10.090 -0.2045  0.2000  0.0593
  149MOL0     C19570   2.501   4.330  10.167 -0.1520 -0.3013 -0.6903
  149MOL0     O19571   2.361   4.352  10.173 -0.1202 -0.4873  0.7137
  149MOL0     C19572   2.288   4.263  10.248  0.2176  0.1142 -0.4472
  149MOL0     C19573   2.141   4.312  10.263 -0.8751  0.4881  0.0447
  149MOL0     C19574   2.073   4.248  10.379  0.1383 -0.0364 -0.4526
  149MOL0     C19575   2.053   4.093  10.373 -0.1145  0.1228 -0.4160
  149MOL0     C19576   1.966   4.056  10.492 -0.3887  0.9684  1.0326
  149MOL0     C19577   1.960   3.907  10.501 -0.1136 -0.5302  0.1203
  149MOL0     C19578   1.847   3.873  10.591  1.6626 -0.1802  0.4459
  149MOL0     C19579   1.816   3.717  10.607 -0.8129 -0.2990 -0.1714
  149MOL0    Cl19580   1.795   3.622  10.448 -0.5009  0.0446  0.2470
  149MOL0     C19581   2.574   4.224  10.218 -1.1734  0.6036 -0.1915
  149MOL0     C19582   2.710   4.216  10.191 -0.2302  0.4280 -0.3463
  149MOL0     O19583   2.978   4.446   9.949  0.5708 -0.0955 -0.4040
  149MOL0     C19584   3.245   4.400   9.963  0.4934 -0.8244 -0.0839
  149MOL0     C19585   3.383   4.373   9.981  0.2333  0.5843  0.7329
  149MOL0     N19586   4.015   3.766  10.132 -0.6347  0.2086 -0.5566
  149MOL0     N19587   4.073   3.709  10.226 -0.3142 -0.1357  0.1880
  149MOL0     C19588   5.056   3.538  10.590 -0.4115  0.2409 -0.8153
  149MOL0     C19589   5.194   3.555  10.623 -0.0808  1.2433 -0.4410
  149MOL0     C19590   5.637   3.522  10.569  0.6370 -0.0582 -0.0974
  149MOL0     C19591   5.686   3.440  10.668  0.0788  0.6260 -0.1917
  149MOL0     C19592   5.823   3.428  10.697 -0.3129 -0.9441  0.1697
  149MOL0     C19593   5.917   3.490  10.617 -0.8694 -1.0046  0.3516
  149MOL0     O19594   6.055   3.478  10.631 -0.0402 -0.3234  0.4634
  149MOL0     C19595   6.098   3.353  10.688  0.4452 -0.1002 -0.4804
  149MOL0     C19596   6.240   3.326  10.632 -0.5681  0.0761  1.1380
  149MOL0     C19597   6.342   3.369  10.727  0.6602 -1.2955 -0.7729
  149MOL0     C19598   6.482   3.353  10.660 -0.4310  0.0856  0.6333
  149MOL0     C19599   6.588   3.365  10.764  0.0382  0.2275  0.1259
  149MOL0     C19600   6.680   3.379  10.847 -0.1229  0.1377  0.3568
  149MOL0     C19601   5.869   3.567  10.518 -0.7831 -0.9627 -0.2444
  149MOL0     C19602   5.734   3.591  10.488 -0.0523  1.1895  0.0323
  149MOL0     H19603   5.315   3.288  10.464  1.3060  0.6567 -0.5851
  149MOL0     H19604   5.072   3.271  10.397  0.3346 -0.1361  0.3079
  149MOL0     H19605   4.853   3.259  10.605  0.3683  1.7999  0.4809
  149MOL0     H19606   4.841   3.233  10.430  0.2056  1.2832 -0.5222
  149MOL0     H19607   4.630   3.393  10.596  3.1507  1.2289 -0.2469
  149MOL0     H19608   4.615   3.225  10.585 -0.0763  0.7658  2.1657
  149MOL0     H19609   4.582   3.211  10.360 -0.6383  1.3310 -1.6497
  149MOL0     H19610   4.637   3.385  10.336  2.1927 -0.7729 -1.1172
  149MOL0     H19611   4.392   3.351  10.307 -0.3085  1.7795 -0.7203
  149MOL0     H19612   4.371   3.299  10.473 -1.7638  0.8554 -2.3805
  149MOL0     H19613   4.473   3.569  10.393  0.5279 -0.0151 -0.4066
  149MOL0     H19614   4.441   3.523  10.559 -0.0224  2.1053 -2.0120
  149MOL0     H19615   4.210   3.464  10.518  0.7841 -1.0388 -1.6627
  149MOL0     H19616   4.212   3.513  10.351 -0.9340  2.1574 -0.7068
  149MOL0     H19617   4.272   3.685  10.587  1.2273 -1.3595 -0.2420
  149MOL0     H19618   4.295   3.739  10.420  1.9796 -2.0526 -2.1010
  149MOL0     H19619   4.055   3.780  10.547  1.5440  2.1023 -1.3786
  149MOL0     H19620   4.014   3.618  10.484 -2.0396  0.5922 -2.7132
  149MOL0     H19621   3.937   3.948  10.405  0.5108  0.3104  0.7156
  149MOL0     H19622   3.879   3.928   9.994  1.2370 -0.6136  0.0828
  149MOL0     H19623   3.891   4.059  10.108  0.9353  0.0266 -4.5481
  149MOL0     H19624   3.675   3.930  10.227 -1.2524 -0.4573 -0.2929
  149MOL0     H19625   3.670   3.863  10.069  1.1039  0.1067 -0.2950
  149MOL0     H19626   3.688   4.111   9.987  0.0122  0.7049  0.7321
  149MOL0     H19627   3.534   4.053  10.052 -1.6091  1.9695  2.9920
  149MOL0     H19628   3.731   4.202  10.224  0.1421  2.5957 -0.9906
  149MOL0     H19629   3.570   4.140  10.262 -1.6066  1.6548 -1.3866
  149MOL0     H19630   3.369   4.145  10.233  0.9054  0.9319  1.8057
  149MOL0     H19631   3.128   4.197  10.188 -0.2590  0.0791 -1.8837
  149MOL0     H19632   2.744   4.500  10.000  0.1598  0.0470 -0.7712
  149MOL0     H19633   2.517   4.498  10.044  2.2254  1.2976 -1.3934
  149MOL0     H19634   2.326   4.260  10.350 -0.6996  0.9494 -0.0729
  149MOL0     H19635   2.294   4.158  10.217  3.5785 -0.5477  1.8424
  149MOL0     H19636   2.079   4.276  10.180 -2.3944 -0.7636  1.6201
  149MOL0     H19637   2.139   4.420  10.283 -1.8734  0.1977  1.7578
  149MOL0     H19638   1.984   4.312  10.390  0.1293 -0.2467  0.8095
  149MOL0     H19639   2.131   4.270  10.468 -1.4231  1.3140  0.2962
  149MOL0     H19640   2.016   4.053  10.279 -0.6126 -0.3862 -0.0142
  149MOL0     H19641   2.156   4.056  10.382 -0.2902  0.0615  2.3135
  149MOL0     H19642   1.864   4.090  10.472 -2.2885 -4.1113  0.4026
  149MOL0     H19643   2.014   4.095  10.582  3.1154 -0.0814 -0.2254
  149MOL0     H19644   2.043   3.859  10.554 -0.6679 -1.9116 -0.1981
  149MOL0     H19645   1.963   3.866  10.399  2.0253  0.9849 -0.4780
  149MOL0     H19646   1.873   3.908  10.690  0.5054 -1.1945  1.1511
  149MOL0     H19647   1.756   3.923  10.556  1.2884 -1.3964 -0.4088
  149MOL0     H19648   1.735   3.707  10.679  1.0721 -2.4230  1.7950
  149MOL0     H19649   1.897   3.678  10.670 -0.3378 -1.4417 -1.4438
  149MOL0     H19650   2.526   4.143  10.273  0.4201 -1.4304 -1.6170
  149MOL0     H19651   2.756   4.122  10.218 -0.7076 -1.1087 -4.2234
  149MOL0     H19652   3.210   4.480   9.898  1.1138 -1.6986 -1.5359
  149MOL0     H19653   3.450   4.435   9.922  1.1743 -3.0948 -2.5248
  149MOL0     H19654   4.984   3.609  10.631  0.6530  0.4237  0.8319
  149MOL0     H19655   5.222   3.630  10.697  2.2252  1.7430 -1.7132
  149MOL0     H19656   5.619   3.376  10.725  1.1357  0.6540  1.1435
  149MOL0     H19657   5.848   3.369  10.785  0.7251 -0.3951  0.2612
  149MOL0     H19658   6.034   3.270  10.659 -0.3022  1.6983 -4.6761
  149MOL0     H19659   6.087   3.352  10.797  1.3725  0.5519 -0.3718
  149MOL0     H19660   6.262   3.219  10.620 -2.5361 -0.2084 -0.5843
  149MOL0     H19661   6.261   3.374  10.536  1.6568 -1.5175  0.7376
  149MOL0     H19662   6.337   3.307  10.816 -2.4410  1.6656  1.3443
  149MOL0     H19663   6.322   3.474  10.748  1.2453 -1.3550  0.1224
  149MOL0     H19664   6.503   3.256  10.614 -3.6530 -1.3497  1.8357
  149MOL0     H19665   6.499   3.430  10.584  1.8709 -1.1110 -0.1605
  149MOL0     H19666   6.755   3.395  10.922 -0.1803  0.5203  0.3343
  149MOL0     H19667   5.939   3.625  10.458 -2.5887  2.5654  0.7602
  149MOL0     H19668   5.704   3.652  10.403  0.6454  1.0370 -0.3343
  150MOL0     O19669   5.942  10.015   9.392  0.1149 -0.0552  0.1133
  150MOL0     C19670   6.009  10.067   9.301  0.0651 -0.3382 -0.0643
  150MOL0     O19671   5.965  10.162   9.223  0.0584  0.6552  0.3506
  150MOL0     C19672   5.860  10.238   9.275  0.5193  0.2345 -0.8143
  150MOL0     C19673   5.751  10.260   9.197  1.2797 -0.2798 -0.6561
  150MOL0     C19674   5.650  10.352   9.229  0.2361 -0.1456  0.3879
  150MOL0     C19675   5.667  10.431   9.342  0.4095 -0.6626  0.1574
  150MOL0     O19676   5.586  10.536   9.377 -0.5903 -0.8988 -1.2658
  150MOL0     C19677   5.505  10.611   9.281  0.0897  0.7238  0.0940
  150MOL0     C19678   5.420  10.715   9.354 -0.2077  0.8240  0.7678
  150MOL0     C19679   5.513  10.814   9.421 -0.5812 -0.3492 -0.2484
  150MOL0     C19680   5.426  10.904   9.509  0.5054 -0.8150  0.3268
  150MOL0     C19681   5.506  11.021   9.567 -0.0628 -0.4567 -0.2086
  150MOL0     C19682   5.421  11.115   9.649  0.2889  0.1000  0.2920
  150MOL0     C19683   5.288  11.163   9.585  0.2770 -0.5499  0.2514
  150MOL0     C19684   5.166  11.075   9.611 -0.7035  0.3081  0.0308
  150MOL0     N19685   5.069  11.067   9.502 -1.1744  0.0669  0.9335
  150MOL0     C19686   4.944  11.123   9.498  0.0041 -0.1388  0.3284
  150MOL0     C19687   4.886  11.088   9.373  0.0022 -1.1150  0.2618
  150MOL0     C19688   4.752  11.143   9.298  0.0196 -0.4462  0.2231
  150MOL0     C19689   4.669  11.235   9.381 -0.4005 -0.2465  0.2435
  150MOL0     C19690   4.571  11.316   9.298  0.1487  0.2790  0.2328
  150MOL0     C19691   4.466  11.224   9.240  0.5251  0.4717  0.0947
  150MOL0     O19692   4.377  11.175   9.348 -0.3586 -0.0053  0.3144
  150MOL0     C19693   4.275  11.249   9.398  1.0710  0.5593 -0.6717
  150MOL0     C19694   4.239  11.375   9.350 -0.2209 -0.2677 -1.0641
  150MOL0     C19695   4.140  11.457   9.410 -0.2047  0.0636 -0.2266
  150MOL0     C19696   4.070  11.395   9.515  1.3061 -1.0206  0.1559
  150MOL0     C19697   3.955  11.470   9.581 -0.2634 -0.5361  0.3817
  150MOL0     O19698   3.922  11.427   9.706  0.1400 -0.3649  0.3880
  150MOL0     C19699   3.828  11.493   9.778 -0.2803 -0.1570 -0.5807
  150MOL0     C19700   3.698  11.475   9.733  0.0387  0.6142 -1.0359
  150MOL0     C19701   3.600  11.543   9.809 -0.4045  0.2815  0.2104
  150MOL0     C19702   3.632  11.629   9.913 -0.1534  0.9620 -0.0905
  150MOL0     O19703   3.523  11.676   9.988  0.0253 -0.2184  0.4029
  150MOL0     C19704   3.543  11.782  10.080  0.4683 -0.7723  0.4552
  150MOL0     C19705   3.415  11.849  10.108  0.3558 -1.6542 -1.7415
  150MOL0     C19706   3.446  11.968  10.207 -0.1867  0.6437  0.4922
  150MOL0     C19707   3.323  12.034  10.255  0.4158 -0.4031  0.1518
  150MOL0     C19708   3.275  11.992  10.395  0.0982  0.1146 -0.6299
  150MOL0     C19709   3.123  12.024  10.405 -0.4684  0.0224 -0.0516
  150MOL0     C19710   3.106  12.150  10.497  0.4327 -0.2716 -0.3631
  150MOL0     C19711   2.958  12.194  10.513  0.4239  0.4456 -0.4028
  150MOL0    Cl19712   2.955  12.342  10.624 -0.1378  0.4079  0.8033
  150MOL0     C19713   3.764  11.644   9.965 -1.4872  0.5609  0.3205
  150MOL0     C19714   3.859  11.577   9.890  0.0285  0.3871 -0.2631
  150MOL0     O19715   3.909  11.575   9.524  0.8877  0.5847  0.2376
  150MOL0     C19716   4.100  11.263   9.557  0.1423 -0.8643  0.5850
  150MOL0     C19717   4.202  11.194   9.502  0.2007 -0.2229  0.4948
  150MOL0     N19718   4.972  11.009   9.312 -0.1527  0.5677  0.4661
  150MOL0     N19719   5.083  10.995   9.388  0.2192  0.1490 -0.0466
  150MOL0     C19720   5.783  10.421   9.417  0.2559  0.1677  0.2075
  150MOL0     C19721   5.883  10.324   9.389 -0.5301 -0.6136 -0.3532
  150MOL0     C19722   6.147  10.015   9.276 -0.3528 -1.3220 -0.4037
  150MOL0     C19723   6.193   9.900   9.349  0.2673  0.4958 -0.2296
  150MOL0     C19724   6.322   9.840   9.327  0.3667  1.1221 -1.1483
  150MOL0     C19725   6.411   9.905   9.245  0.8098  0.3623 -0.7247
  150MOL0     O19726   6.535   9.856   9.218  0.7506 -0.0994 -0.5460
  150MOL0     C19727   6.584   9.726   9.265  0.2388  0.5601  0.2782
  150MOL0     C19728   6.727   9.686   9.206 -0.4850  0.5822 -0.1509
  150MOL0     C19729   6.839   9.755   9.283  0.5273 -0.5041 -0.6530
  150MOL0     C19730   6.973   9.756   9.204 -0.0482 -0.4701 -0.8005
  150MOL0     C19731   6.968   9.857   9.089  0.5656 -0.4745 -0.1780
  150MOL0     C19732   7.019   9.936   9.011 -0.6871 -0.6365 -0.6463
  150MOL0     C19733   6.373  10.021   9.180 -0.5778  0.2154  0.3823
  150MOL0     C19734   6.243  10.074   9.191 -0.5382  0.5148  0.2404
  150MOL0     H19735   5.749  10.202   9.105 -1.0292 -1.1730 -0.1109
  150MOL0     H19736   5.565  10.369   9.165  1.0497 -1.5971 -1.1546
  150MOL0     H19737   5.438  10.539   9.232 -0.5234  1.2610  0.1144
  150MOL0     H19738   5.571  10.646   9.201 -0.0911 -1.3798 -1.0690
  150MOL0     H19739   5.362  10.650   9.420 -1.4826  0.4494 -0.6692
  150MOL0     H19740   5.357  10.773   9.286  0.1612  0.6039  0.2352
  150MOL0     H19741   5.574  10.866   9.347  0.7397  0.7202  1.5416
  150MOL0     H19742   5.578  10.761   9.491 -4.2095 -0.7513  3.2013
  150MOL0     H19743   5.343  10.939   9.447  1.2504 -0.0388 -0.2552
  150MOL0     H19744   5.381  10.845   9.589  2.2680 -2.7087  0.0167
  150MOL0     H19745   5.551  11.075   9.483 -0.7854  0.9684  0.2928
  150MOL0     H19746   5.579  10.986   9.640  0.9154  3.7616  1.1238
  150MOL0     H19747   5.483  11.203   9.668 -3.2619  2.4632  2.0780
  150MOL0     H19748   5.399  11.054   9.738 -0.4677  1.0401  0.7744
  150MOL0     H19749   5.263  11.267   9.609 -1.5048 -0.8840 -0.0273
  150MOL0     H19750   5.296  11.153   9.476 -0.8553 -1.8075  0.2632
  150MOL0     H19751   5.113  11.115   9.698  0.9565  2.0071  0.3403
  150MOL0     H19752   5.205  10.978   9.643 -0.4642  0.4664  0.2271
  150MOL0     H19753   4.899  11.183   9.575  0.3936 -0.8952  1.1699
  150MOL0     H19754   4.692  11.053   9.286  0.4881 -0.6623 -0.5858
  150MOL0     H19755   4.779  11.195   9.205  0.5871 -2.0308 -0.5264
  150MOL0     H19756   4.737  11.302   9.436 -1.0677 -0.3747  1.2555
  150MOL0     H19757   4.621  11.180   9.462  0.1908 -0.2766  0.5756
  150MOL0     H19758   4.513  11.397   9.344  0.4724  0.8527 -0.3437
  150MOL0     H19759   4.641  11.369   9.232  2.5244 -0.3795  2.0882
  150MOL0     H19760   4.514  11.136   9.197 -1.4492 -1.3555  1.4004
  150MOL0     H19761   4.411  11.269   9.157  0.3971 -0.6733 -0.4472
  150MOL0     H19762   4.290  11.423   9.267 -0.2125 -1.8855 -2.0389
  150MOL0     H19763   4.110  11.558   9.384  1.7200  1.5263  2.7445
  150MOL0     H19764   3.656  11.414   9.653  1.2156 -0.6707 -0.7092
  150MOL0     H19765   3.493  11.526   9.804 -0.4518 -1.7967  4.2007
  150MOL0     H19766   3.622  11.854  10.057 -0.1584  0.7336  2.7334
  150MOL0     H19767   3.583  11.752  10.177  1.3631  1.3813  0.7943
  150MOL0     H19768   3.348  11.780  10.161  0.0231  0.2092  0.4200
  150MOL0     H19769   3.367  11.889  10.018  0.2339  0.6346 -0.7302
  150MOL0     H19770   3.515  12.037  10.157  4.6851 -2.7635  1.8086
  150MOL0     H19771   3.511  11.949  10.293  1.4407  0.7407 -0.6669
  150MOL0     H19772   3.334  12.143  10.249  0.4250 -0.4654 -1.2112
  150MOL0     H19773   3.248  12.020  10.177  0.1266  2.8505 -0.3095
  150MOL0     H19774   3.326  12.037  10.481  1.2382  1.4930 -1.9612
  150MOL0     H19775   3.273  11.883  10.404 -0.6492  0.2167  0.6978
  150MOL0     H19776   3.076  11.931  10.440 -2.1066 -0.1507 -2.4813
  150MOL0     H19777   3.079  12.033  10.306 -0.7737 -1.5324 -0.0944
  150MOL0     H19778   3.153  12.124  10.592  1.8504  1.7056 -0.4690
  150MOL0     H19779   3.156  12.239  10.458 -0.2260  0.1759 -0.1999
  150MOL0     H19780   2.903  12.114  10.564  1.7389  1.3605  2.7053
  150MOL0     H19781   2.914  12.218  10.416 -0.4032  1.4698  0.1997
  150MOL0     H19782   3.794  11.695  10.056  0.9735  0.1889 -0.2011
  150MOL0     H19783   3.964  11.582   9.915  0.7418  1.6028 -3.0907
  150MOL0     H19784   4.059  11.220   9.648  1.7746 -2.0008  0.8247
  150MOL0     H19785   4.237  11.101   9.545  1.4086  0.6860  1.5321
  150MOL0     H19786   5.795  10.487   9.502 -1.1895  1.0837 -0.2758
  150MOL0     H19787   5.970  10.324   9.454 -1.4668 -2.8132  1.0159
  150MOL0     H19788   6.131   9.871   9.434  1.3954 -0.9763  0.1217
  150MOL0     H19789   6.346   9.745   9.374  0.8336  1.7440 -0.0767
  150MOL0     H19790   6.511   9.652   9.231 -1.7913  3.0124 -0.9551
  150MOL0     H19791   6.575   9.731   9.374 -0.7202 -0.5082  0.2646
  150MOL0     H19792   6.743   9.578   9.205  0.5698  0.7166 -1.9592
  150MOL0     H19793   6.735   9.708   9.100  1.0927  1.3339  0.0849
  150MOL0     H19794   6.846   9.716   9.385 -2.7339 -0.6962 -0.4043
  150MOL0     H19795   6.807   9.859   9.286 -0.9882 -0.6899 -4.5835
  150MOL0     H19796   7.047   9.790   9.277 -0.4265  0.5437 -0.8726
  150MOL0     H19797   7.001   9.655   9.173  3.4915  0.8087 -2.3332
  150MOL0     H19798   7.060   9.996   8.932 -0.6588 -1.4795 -1.2862
  150MOL0     H19799   6.436  10.065   9.103 -0.3817 -2.2217 -0.9493
  150MOL0     H19800   6.228  10.166   9.135  2.3212  0.1786 -1.2957
  151MOL0     O19801   8.203   6.342   7.844 -0.0107  0.8278 -0.3302
  151MOL0     C19802   8.255   6.408   7.933  0.2235 -0.3611  0.2066
  151MOL0     O19803   8.220   6.392   8.063  0.3591 -0.5540  0.1721
  151MOL0     C19804   8.125   6.297   8.094 -0.0967  0.8354  0.5914
  151MOL0     C19805   8.157   6.199   8.192 -0.3066 -0.0349  0.2715
  151MOL0     C19806   8.061   6.113   8.242 -0.0156 -0.1296 -1.0215
  151MOL0     C19807   7.930   6.109   8.188 -0.2159  0.2783  0.1243
  151MOL0     O19808   7.835   6.018   8.229 -0.1785  0.6298  0.3729
  151MOL0     C19809   7.700   6.027   8.173 -0.2026  0.7996 -0.2783
  151MOL0     C19810   7.607   5.904   8.210 -0.3125  0.4089 -0.5016
  151MOL0     C19811   7.461   5.942   8.213  0.1859  0.1386  0.2018
  151MOL0     C19812   7.364   5.829   8.260 -0.2570 -0.2835 -0.6611
  151MOL0     C19813   7.218   5.828   8.202  0.5452  0.0856  0.4422
  151MOL0     C19814   7.113   5.786   8.304  0.8320  0.2248  0.4156
  151MOL0     C19815   6.966   5.805   8.250  0.4800 -0.6376 -0.3539
  151MOL0     C19816   6.920   5.945   8.262 -0.2382  0.1838  0.3429
  151MOL0     N19817   6.922   5.991   8.406 -0.0011 -0.3591  0.8268
  151MOL0     C19818   6.812   6.012   8.490 -0.7861  0.9509  0.1910
  151MOL0     C19819   6.874   6.091   8.588  0.5040  0.1538  0.2233
  151MOL0     C19820   6.794   6.147   8.705  0.2836 -0.1307 -0.3670
  151MOL0     C19821   6.636   6.140   8.698 -0.1569 -0.4453 -0.4224
  151MOL0     C19822   6.586   6.256   8.622 -0.0078  0.0106 -0.3951
  151MOL0     C19823   6.439   6.260   8.589  0.0390  0.3708  0.2834
  151MOL0     O19824   6.355   6.252   8.702 -0.2538  0.4380 -0.3140
  151MOL0     C19825   6.226   6.258   8.677  1.0067  0.0415 -0.3394
  151MOL0     C19826   6.141   6.177   8.757  0.4909 -0.0019 -0.1685
  151MOL0     C19827   6.002   6.165   8.738  0.7619 -0.5176  0.0103
  151MOL0     C19828   5.934   6.243   8.633 -0.2261 -0.3198  0.1721
  151MOL0     C19829   5.784   6.241   8.627 -0.1798  0.8278 -0.5997
  151MOL0     O19830   5.723   6.157   8.725 -0.2165 -0.3298  0.3528
  151MOL0     C19831   5.589   6.159   8.743 -0.1857 -0.4836 -0.3188
  151MOL0     C19832   5.531   6.039   8.776  0.7393 -0.1092  0.8185
  151MOL0     C19833   5.392   6.020   8.799 -0.0112  0.0337  0.0357
  151MOL0     C19834   5.315   6.132   8.782  1.0804  0.3135 -1.0815
  151MOL0     O19835   5.181   6.128   8.789 -0.2607  0.1798  0.2072
  151MOL0     C19836   5.111   6.006   8.825  0.2608  1.5459  0.4825
  151MOL0     C19837   4.963   6.035   8.860 -0.4107 -0.9412  0.2106
  151MOL0     C19838   4.959   6.143   8.978 -0.5546  0.1741 -0.3830
  151MOL0     C19839   4.946   6.053   9.101 -0.4784 -0.0983 -0.8097
  151MOL0     C19840   4.950   6.143   9.230  0.4708  0.7040 -0.6524
  151MOL0     C19841   4.945   6.057   9.361  0.6010 -0.4714  0.0238
  151MOL0     C19842   4.951   6.147   9.484 -0.8946 -0.7185 -0.3420
  151MOL0     C19843   4.907   6.083   9.609  0.9228  1.0839 -0.0413
  151MOL0    Cl19844   5.040   6.066   9.732  0.1486 -0.0919  0.2263
  151MOL0     C19845   5.365   6.257   8.759  0.3132 -0.5372 -0.0199
  151MOL0     C19846   5.506   6.268   8.741 -0.8936 -0.2734 -0.7998
  151MOL0     O19847   5.727   6.299   8.534  0.6473 -0.1470  0.4873
  151MOL0     C19848   6.024   6.334   8.562  1.2250  0.3750 -0.2109
  151MOL0     C19849   6.162   6.336   8.588  0.1621  0.1015  0.0133
  151MOL0     N19850   7.009   6.106   8.573  0.2897  0.4510  0.2724
  151MOL0     N19851   7.037   6.052   8.457  0.0058 -0.7497 -0.7102
  151MOL0     C19852   7.894   6.216   8.096 -0.3741  0.5927  0.5745
  151MOL0     C19853   7.989   6.306   8.047 -0.2161  0.2332  0.7958
  151MOL0     C19854   8.356   6.519   7.902 -0.9627  0.5622  0.7476
  151MOL0     C19855   8.407   6.603   8.011 -0.6355  0.4781 -0.1111
  151MOL0     C19856   8.493   6.708   7.975 -0.5955 -0.1284  0.1386
  151MOL0     C19857   8.554   6.712   7.853  0.2438 -0.4153  0.6847
  151MOL0     O19858   8.657   6.799   7.810  0.6078 -0.0421  0.1569
  151MOL0     C19859   8.661   6.925   7.867  0.0111  0.2153 -0.9089
  151MOL0     C19860   8.708   7.037   7.769 -0.5826  0.4485  0.2391
  151MOL0     C19861   8.607   7.043   7.645 -0.3081 -0.1061 -0.4966
  151MOL0     C19862   8.684   7.105   7.515  0.3021 -0.6469 -0.1533
  151MOL0     C19863   8.622   7.229   7.471  0.2820  0.7945  0.2830
  151MOL0     C19864   8.559   7.305   7.412  0.4286 -0.6748  1.0880
  151MOL0     C19865   8.522   6.617   7.751 -0.5306  0.3637 -0.0980
  151MOL0     C19866   8.408   6.525   7.767 -0.8063  0.1171  0.0913
  151MOL0     H19867   8.257   6.204   8.234  0.6272 -3.5139 -1.1688
  151MOL0     H19868   8.101   6.049   8.319 -0.4416  1.4890  0.6109
  151MOL0     H19869   7.692   6.037   8.064  0.8848 -1.3818 -0.6232
  151MOL0     H19870   7.649   6.113   8.215 -0.2367  2.4028 -3.3242
  151MOL0     H19871   7.634   5.870   8.311 -0.0428  0.7213 -0.4647
  151MOL0     H19872   7.622   5.816   8.147  3.3447 -1.7995  2.9738
  151MOL0     H19873   7.424   5.951   8.110 -0.7338 -0.0720  0.5055
  151MOL0     H19874   7.453   6.028   8.279  0.5040  0.5924 -0.3485
  151MOL0     H19875   7.413   5.732   8.251  1.8426 -0.1780  5.1725
  151MOL0     H19876   7.347   5.857   8.365 -0.0168  1.3455 -1.0239
  151MOL0     H19877   7.208   5.770   8.109 -2.2075 -0.5981  1.0894
  151MOL0     H19878   7.191   5.928   8.169  1.3182  1.1622  2.8236
  151MOL0     H19879   7.126   5.825   8.405  0.6304 -0.5658  0.7597
  151MOL0     H19880   7.124   5.680   8.329 -0.1920 -0.2093 -0.8734
  151MOL0     H19881   6.961   5.766   8.148 -1.2228  2.5173 -1.6175
  151MOL0     H19882   6.893   5.748   8.308 -4.3034  3.9259 -1.2012
  151MOL0     H19883   6.817   5.972   8.235 -1.3309 -0.8510  3.1338
  151MOL0     H19884   6.993   6.011   8.213  0.8048 -0.9549  0.3282
  151MOL0     H19885   6.709   5.979   8.478 -0.0220 -1.2952 -0.6986
  151MOL0     H19886   6.822   6.251   8.723  1.5648 -0.6923  1.1529
  151MOL0     H19887   6.808   6.089   8.797 -1.1232  1.4639  0.9262
  151MOL0     H19888   6.600   6.155   8.800  1.7643  2.1485 -0.0388
  151MOL0     H19889   6.598   6.045   8.659  0.4248 -0.6708 -0.4414
  151MOL0     H19890   6.621   6.346   8.672 -0.3985  1.3138 -2.3443
  151MOL0     H19891   6.636   6.252   8.525 -0.9544  3.8848 -1.1948
  151MOL0     H19892   6.407   6.183   8.519 -1.2294  1.0186  0.1184
  151MOL0     H19893   6.418   6.350   8.529  0.4441 -0.5224 -1.2505
  151MOL0     H19894   6.185   6.120   8.837  1.2585  0.9794  0.1332
  151MOL0     H19895   5.939   6.113   8.809 -0.0035  0.4125  0.0330
  151MOL0     H19896   5.600   5.956   8.785  1.5435  0.6109  1.5978
  151MOL0     H19897   5.351   5.922   8.820 -3.6995  1.6098  1.0100
  151MOL0     H19898   5.149   5.967   8.920 -0.1163  2.8319  1.1923
  151MOL0     H19899   5.112   5.928   8.749 -0.4808  0.7163  1.3043
  151MOL0     H19900   4.904   5.949   8.894 -1.3338 -0.4533 -0.1064
  151MOL0     H19901   4.915   6.086   8.776 -0.0979 -0.3171  0.4086
  151MOL0     H19902   4.870   6.206   8.964  2.3621  5.0532  0.5390
  151MOL0     H19903   5.052   6.200   8.991 -0.2913 -0.7283  2.2069
  151MOL0     H19904   4.859   5.986   9.103 -1.4940  1.0991 -2.3126
  151MOL0     H19905   5.037   5.994   9.093  0.7908  1.7808 -0.6776
  151MOL0     H19906   4.864   6.209   9.228 -1.2184 -1.3496  0.0753
  151MOL0     H19907   5.041   6.200   9.252  1.1820 -1.5119  3.0502
  151MOL0     H19908   5.038   5.999   9.359  1.9742  1.5483  0.8029
  151MOL0     H19909   4.854   5.997   9.359 -3.6025  5.0220  1.2844
  151MOL0     H19910   5.052   6.183   9.505 -0.7320 -1.5190  0.2625
  151MOL0     H19911   4.890   6.238   9.475 -1.0413 -0.5485  1.7926
  151MOL0     H19912   4.863   5.986   9.585  0.2089  1.6640 -1.1214
  151MOL0     H19913   4.832   6.146   9.658  0.4438  1.0698 -0.7531
  151MOL0     H19914   5.302   6.344   8.744 -1.3433 -1.8276 -0.8868
  151MOL0     H19915   5.541   6.368   8.715  1.1367 -0.7068  0.0252
  151MOL0     H19916   5.989   6.396   8.480  0.9906 -0.8888 -1.0880
  151MOL0     H19917   6.223   6.400   8.525 -0.8673  1.2826  0.1753
  151MOL0     H19918   7.793   6.229   8.059 -0.1784 -1.0558 -0.6871
  151MOL0     H19919   7.967   6.374   7.965  1.6344  0.8433  0.7492
  151MOL0     H19920   8.381   6.591   8.116  1.0556 -3.9123  0.0376
  151MOL0     H19921   8.522   6.785   8.046 -2.8919  0.7917  0.1652
  151MOL0     H19922   8.739   6.915   7.943  0.6636 -1.6591 -1.7598
  151MOL0     H19923   8.565   6.968   7.898  0.8445  1.3174  0.2420
  151MOL0     H19924   8.709   7.131   7.825 -2.8864  0.8697 -0.3165
  151MOL0     H19925   8.809   7.016   7.733 -1.3652  1.0907 -2.5371
  151MOL0     H19926   8.520   7.102   7.675 -0.0251 -0.3569  0.8733
  151MOL0     H19927   8.575   6.942   7.619  0.9432 -0.6970  0.1889
  151MOL0     H19928   8.781   7.138   7.555  0.4147 -2.7086  1.4171
  151MOL0     H19929   8.690   7.027   7.440 -0.1966  1.3932 -2.4423
  151MOL0     H19930   8.502   7.376   7.356  1.0965 -1.5996 -0.8540
  151MOL0     H19931   8.570   6.618   7.654 -1.6771  2.2643 -0.6997
  151MOL0     H19932   8.375   6.470   7.680 -0.7614  0.8829 -0.4259
  152MOL0     O19933   5.317   1.037   4.999  0.7077 -0.0972  0.2608
  152MOL0     C19934   5.307   1.114   5.095 -0.1105 -0.4531 -0.7856
  152MOL0     O19935   5.199   1.120   5.182 -0.3671 -0.6342  0.3973
  152MOL0     C19936   5.070   1.080   5.145 -1.4156 -0.4383  0.8466
  152MOL0     C19937   5.023   1.096   5.009 -0.1657  0.0793  0.8094
  152MOL0     C19938   4.906   1.025   4.969  0.2384  1.1389  0.6322
  152MOL0     C19939   4.827   0.961   5.062  0.4172  0.5738 -0.7542
  152MOL0     O19940   4.717   0.895   5.017  0.2302 -0.1457 -0.3191
  152MOL0     C19941   4.594   0.924   5.089  0.1237 -0.0889  0.2188
  152MOL0     C19942   4.472   0.899   5.002  1.2892 -0.2075  0.0207
  152MOL0     C19943   4.463   0.757   4.942 -0.6112  0.3504  0.3279
  152MOL0     C19944   4.351   0.720   4.841  0.2980 -0.5253  0.7286
  152MOL0     C19945   4.207   0.721   4.892  0.1983 -0.9725  0.1686
  152MOL0     C19946   4.098   0.739   4.780  0.8129 -0.4100 -0.0341
  152MOL0     C19947   3.951   0.707   4.832  0.3152  0.0235 -0.4985
  152MOL0     C19948   3.946   0.563   4.861  0.2074 -0.1375  0.4461
  152MOL0     N19949   3.812   0.502   4.867 -0.2944  0.0406  0.0005
  152MOL0     C19950   3.713   0.545   4.954  0.6147  0.7137 -0.7715
  152MOL0     C19951   3.601   0.502   4.889  0.0434  0.1343 -0.2332
  152MOL0     C19952   3.461   0.519   4.941  0.0104  0.1627  0.1903
  152MOL0     C19953   3.396   0.654   4.891  0.5658  0.2626  0.3055
  152MOL0     C19954   3.369   0.685   4.741  0.0846  0.2569  0.4875
  152MOL0     C19955   3.275   0.587   4.673 -0.6475 -0.2904 -0.2868
  152MOL0     O19956   3.271   0.622   4.535 -0.7250 -0.0825  0.3577
  152MOL0     C19957   3.192   0.539   4.460 -1.1919 -0.2272 -0.3703
  152MOL0     C19958   3.213   0.554   4.325  0.1183 -0.4082 -0.3406
  152MOL0     C19959   3.133   0.482   4.231 -0.0294  0.3632 -0.4242
  152MOL0     C19960   3.027   0.400   4.272  0.1775  0.5960 -0.9023
  152MOL0     C19961   2.926   0.338   4.182  0.1636 -1.3045  0.3566
  152MOL0     O19962   2.863   0.225   4.223 -0.3906 -0.6725  0.1954
  152MOL0     C19963   2.749   0.180   4.169 -0.5191 -0.1860 -0.7330
  152MOL0     C19964   2.687   0.208   4.045  0.2403 -0.1968 -0.9477
  152MOL0     C19965   2.557   0.163   4.015 -0.3185  0.3885  0.5137
  152MOL0     C19966   2.499   0.063   4.092  0.0877  0.0240 -0.2867
  152MOL0     O19967   2.380  -0.005   4.064  0.3280  0.1062 -0.8204
  152MOL0     C19968   2.368  -0.040   3.929  0.0004  0.1441 -0.1594
  152MOL0     C19969   2.258  -0.152   3.920  0.5367 -0.9372 -0.8362
  152MOL0     C19970   2.285  -0.281   4.001 -0.1465  0.5728 -0.0192
  152MOL0     C19971   2.161  -0.376   3.975  0.7886 -1.0503  0.8061
  152MOL0     C19972   2.198  -0.522   4.030 -0.1651  0.7939 -0.3358
  152MOL0     C19973   2.152  -0.558   4.168 -0.1503  1.1012  0.0897
  152MOL0     C19974   2.004  -0.572   4.183 -0.1946  0.5446  0.1702
  152MOL0     C19975   1.955  -0.626   4.316 -0.2583  0.1395 -0.7258
  152MOL0    Cl19976   2.036  -0.562   4.466  0.4146  0.1853  0.1075
  152MOL0     C19977   2.565   0.017   4.206 -0.4557 -0.0161 -0.4307
  152MOL0     C19978   2.686   0.077   4.245  0.2629 -0.0516 -0.9522
  152MOL0     O19979   2.881   0.418   4.104  0.7808 -0.7484 -0.9960
  152MOL0     C19980   3.011   0.388   4.409  0.3004 -0.2748  0.5179
  152MOL0     C19981   3.089   0.453   4.504  0.1658  0.5873  1.4093
  152MOL0     N19982   3.629   0.446   4.766  0.0547  0.9474  0.2921
  152MOL0     N19983   3.755   0.443   4.757 -0.5177 -0.9415  0.0105
  152MOL0     C19984   4.873   0.960   5.201 -0.7007  0.6986 -0.2117
  152MOL0     C19985   5.002   1.012   5.238 -0.5551  0.3712 -0.0186
  152MOL0     C19986   5.429   1.196   5.127 -0.2779 -0.3863 -0.2942
  152MOL0     C19987   5.419   1.304   5.212  0.0907  0.4137 -0.2016
  152MOL0     C19988   5.530   1.379   5.235 -0.1516 -0.6558 -0.1264
  152MOL0     C19989   5.650   1.350   5.186  0.8243 -0.5160  0.3199
  152MOL0     O19990   5.752   1.442   5.213 -0.2163 -0.1278 -0.1316
  152MOL0     C19991   5.890   1.429   5.182  0.4279 -0.3989  0.3662
  152MOL0     C19992   5.967   1.533   5.256  0.0502  0.6303  1.1204
  152MOL0     C19993   5.928   1.671   5.204 -0.9168 -0.1814 -0.1952
  152MOL0     C19994   6.035   1.770   5.220 -0.2136  0.1759 -0.4948
  152MOL0     C19995   5.992   1.896   5.182 -0.3979 -0.6752  0.7833
  152MOL0     C19996   5.953   2.000   5.133 -0.0110  0.8378  0.5700
  152MOL0     C19997   5.663   1.236   5.112 -0.0127  0.2919 -0.1011
  152MOL0     C19998   5.551   1.167   5.070 -0.3276 -0.6782 -0.2057
  152MOL0     H19999   5.078   1.163   4.944 -2.5661  0.2331 -1.2285
  152MOL0     H20000   4.868   1.034   4.868  2.2022  1.5232 -0.1156
  152MOL0     H20001   4.596   1.030   5.116 -0.7414  0.0064 -0.0590
  152MOL0     H20002   4.592   0.863   5.180  2.8178 -0.1815  0.3120
  152MOL0     H20003   4.478   0.965   4.915  1.6989  1.4382  1.2684
  152MOL0     H20004   4.375   0.921   5.048 -0.7233 -1.4872 -3.2421
  152MOL0     H20005   4.454   0.688   5.027  1.9052  0.3595  0.7005
  152MOL0     H20006   4.557   0.737   4.890 -1.4739 -4.3629  0.1428
  152MOL0     H20007   4.353   0.777   4.747 -3.3712 -1.9898 -0.4121
  152MOL0     H20008   4.369   0.617   4.810  0.0512 -0.1718 -0.7092
  152MOL0     H20009   4.193   0.805   4.960 -0.4263  0.5980 -1.8112
  152MOL0     H20010   4.182   0.631   4.949 -3.4846 -0.4363 -0.3232
  152MOL0     H20011   4.118   0.681   4.690 -0.7549 -0.9644 -0.0518
  152MOL0     H20012   4.099   0.845   4.752  0.4563 -0.0134  1.3349
  152MOL0     H20013   3.931   0.772   4.919  2.8194 -0.8325  0.8050
  152MOL0     H20014   3.871   0.729   4.761  1.7174 -2.0849 -2.8642
  152MOL0     H20015   3.994   0.541   4.957  1.6995  0.7057 -0.0706
  152MOL0     H20016   3.999   0.515   4.779  0.1395  0.8173 -0.1708
  152MOL0     H20017   3.716   0.599   5.048  1.2369 -0.7141  0.0678
  152MOL0     H20018   3.473   0.532   5.049 -0.0543  3.2632 -0.0749
  152MOL0     H20019   3.400   0.429   4.930  0.9249 -0.8863  2.8473
  152MOL0     H20020   3.459   0.735   4.927 -1.9226  1.7351  1.5504
  152MOL0     H20021   3.306   0.674   4.951 -0.3574 -1.9864 -0.2140
  152MOL0     H20022   3.317   0.782   4.734 -4.2299 -1.8829 -1.2295
  152MOL0     H20023   3.463   0.692   4.686 -0.4942 -0.3482 -0.6071
  152MOL0     H20024   3.174   0.587   4.717 -0.5318  1.5698  0.0528
  152MOL0     H20025   3.326   0.491   4.685  0.5034  0.5305  1.8901
  152MOL0     H20026   3.277   0.631   4.282 -1.2523 -1.0008 -3.7381
  152MOL0     H20027   3.146   0.503   4.126  2.0218 -0.3335 -0.3524
  152MOL0     H20028   2.744   0.268   3.974  1.4616  0.7025  0.7050
  152MOL0     H20029   2.514   0.194   3.920 -2.6902 -1.5285  0.8465
  152MOL0     H20030   2.461  -0.078   3.887 -0.1116 -0.1371 -0.1586
  152MOL0     H20031   2.346   0.052   3.874  2.0879  0.8463  0.0845
  152MOL0     H20032   2.247  -0.186   3.817  1.2862 -0.3439 -1.1213
  152MOL0     H20033   2.161  -0.112   3.949  1.7830  3.3249 -1.8348
  152MOL0     H20034   2.304  -0.256   4.106  0.2920  1.4622 -0.2955
  152MOL0     H20035   2.372  -0.339   3.969 -2.7086 -3.3109 -0.4690
  152MOL0     H20036   2.071  -0.333   4.020  0.0923  1.6050 -2.6563
  152MOL0     H20037   2.128  -0.376   3.871 -0.2257 -1.1150  1.1163
  152MOL0     H20038   2.301  -0.557   4.018 -0.3069  0.1679  0.1557
  152MOL0     H20039   2.145  -0.585   3.958 -0.5383 -1.3982  1.7210
  152MOL0     H20040   2.178  -0.479   4.238  0.0223 -1.5213  3.2085
  152MOL0     H20041   2.203  -0.648   4.204 -1.0837  0.6196  0.2181
  152MOL0     H20042   1.971  -0.468   4.175 -1.0528  0.3160  0.6073
  152MOL0     H20043   1.957  -0.630   4.104  0.7474 -0.2622  0.1877
  152MOL0     H20044   1.959  -0.735   4.312 -1.5575  0.1013 -2.3354
  152MOL0     H20045   1.848  -0.609   4.329 -0.3632  0.6787 -2.1058
  152MOL0     H20046   2.513  -0.054   4.269 -1.5087  1.8444  0.8884
  152MOL0     H20047   2.742   0.057   4.336 -0.0914  1.9466 -0.2519
  152MOL0     H20048   2.923   0.330   4.435 -1.1707  0.7321 -1.8869
  152MOL0     H20049   3.075   0.437   4.610  2.8764  0.3099  1.7827
  152MOL0     H20050   4.811   0.905   5.270  0.0031 -1.6058 -1.3120
  152MOL0     H20051   5.045   1.023   5.337 -0.1322 -1.5517  0.0388
  152MOL0     H20052   5.318   1.327   5.245 -1.6359 -1.6543 -3.3907
  152MOL0     H20053   5.529   1.466   5.301  2.6024 -1.2436  0.8262
  152MOL0     H20054   5.901   1.425   5.073 -1.1592 -0.0419  0.1770
  152MOL0     H20055   5.917   1.329   5.219  0.8790 -1.9043 -3.5461
  152MOL0     H20056   5.946   1.532   5.363  1.8515  0.0902  1.5044
  152MOL0     H20057   6.070   1.496   5.255 -0.5353 -1.1167  0.4485
  152MOL0     H20058   5.845   1.705   5.268  1.1976  0.5203  2.3821
  152MOL0     H20059   5.902   1.658   5.099  0.5868 -1.1137 -0.4831
  152MOL0     H20060   6.051   1.773   5.329 -2.3651 -1.9577 -0.0347
  152MOL0     H20061   6.130   1.731   5.182 -0.5360 -2.0097  0.7393
  152MOL0     H20062   5.908   2.074   5.071 -3.6867 -0.4345  1.4848
  152MOL0     H20063   5.751   1.195   5.066  0.4466 -0.4099  1.3291
  152MOL0     H20064   5.559   1.079   5.007  1.9152 -0.7865  0.1219
  153MOL0     O20065  11.215   8.426   9.141 -0.4269  0.0791  1.1161
  153MOL0     C20066  11.274   8.317   9.134 -0.2711 -0.7326  0.0925
  153MOL0     O20067  11.244   8.203   9.200  0.4127 -0.6379 -0.1845
  153MOL0     C20068  11.134   8.179   9.281 -0.2295  0.3241  0.2689
  153MOL0     C20069  11.073   8.271   9.378 -0.0433 -0.2023  0.3665
  153MOL0     C20070  10.974   8.235   9.468  0.0775 -0.1244  1.0383
  153MOL0     C20071  10.926   8.106   9.470 -0.2024  0.0591  0.3900
  153MOL0     O20072  10.821   8.047   9.544 -0.7710  0.3243 -0.2930
  153MOL0     C20073  10.769   8.119   9.658  0.1765 -0.1847  0.5633
  153MOL0     C20074  10.634   8.170   9.600  0.1781  0.8638  0.8226
  153MOL0     C20075  10.541   8.246   9.692  0.3908 -1.5031 -0.6472
  153MOL0     C20076  10.396   8.255   9.650 -0.2561  0.9407  0.2163
  153MOL0     C20077  10.366   8.307   9.511  0.8646  0.0238  0.6635
  153MOL0     C20078  10.217   8.312   9.491  0.2028  0.4667  0.6303
  153MOL0     C20079  10.192   8.348   9.346  0.5335 -0.6390  0.5127
  153MOL0     C20080  10.047   8.394   9.317 -0.5703  0.2583  0.7014
  153MOL0     N20081   9.958   8.286   9.341 -0.7792  0.4813  0.3800
  153MOL0     C20082   9.883   8.253   9.458 -0.4541  0.3729  0.3093
  153MOL0     C20083   9.811   8.151   9.428  0.1736 -0.2610 -0.4421
  153MOL0     C20084   9.728   8.080   9.527  0.3708 -0.1786 -0.9382
  153MOL0     C20085   9.638   7.974   9.463 -0.1750 -0.7587 -0.3021
  153MOL0     C20086   9.539   7.920   9.562  0.8202 -0.1842 -0.4250
  153MOL0     C20087   9.416   7.865   9.492  0.5952 -0.3924 -1.1049
  153MOL0     O20088   9.331   7.795   9.587 -0.3590 -0.2148  0.5902
  153MOL0     C20089   9.210   7.745   9.547  0.1560 -0.2235  0.9601
  153MOL0     C20090   9.156   7.757   9.423 -0.9200  0.5593 -0.6968
  153MOL0     C20091   9.020   7.722   9.397  0.2950  0.4478  0.2628
  153MOL0     C20092   8.934   7.667   9.501  0.0806 -0.0969 -0.4295
  153MOL0     C20093   8.792   7.615   9.477  0.1670 -0.7159  0.3479
  153MOL0     O20094   8.738   7.638   9.350  0.0843 -0.0737  0.1443
  153MOL0     C20095   8.614   7.598   9.296 -0.1364 -0.0791 -0.0276
  153MOL0     C20096   8.497   7.572   9.371 -0.2685 -0.0525 -0.7749
  153MOL0     C20097   8.379   7.530   9.316 -0.5430 -0.0595  0.1555
  153MOL0     C20098   8.369   7.520   9.174  0.7275  0.7093 -0.5873
  153MOL0     O20099   8.253   7.469   9.105 -0.4731 -1.0711  0.1442
  153MOL0     C20100   8.200   7.564   9.015 -0.0331  0.4474  0.9856
  153MOL0     C20101   8.049   7.530   9.019 -0.0073  0.0946 -0.0026
  153MOL0     C20102   8.016   7.389   8.971  0.5009 -0.4194  0.2526
  153MOL0     C20103   8.039   7.379   8.811  0.1657 -1.1631  0.5994
  153MOL0     C20104   7.967   7.247   8.766 -0.0641  0.6490 -0.1117
  153MOL0     C20105   8.014   7.182   8.633  0.2241  0.2026  0.0365
  153MOL0     C20106   8.007   7.275   8.511 -0.4873  0.5618  0.2767
  153MOL0     C20107   8.045   7.189   8.390 -0.4960  0.5973 -0.4992
  153MOL0    Cl20108   7.911   7.075   8.332  0.5674 -0.2340  0.3030
  153MOL0     C20109   8.476   7.559   9.102  0.0503  0.6552 -0.5234
  153MOL0     C20110   8.599   7.598   9.153 -0.9167 -0.1420 -1.3243
  153MOL0     O20111   8.728   7.561   9.566 -0.3601 -0.4534  0.3748
  153MOL0     C20112   8.997   7.661   9.627  0.5219 -0.2594 -0.5972
  153MOL0     C20113   9.130   7.697   9.654  1.1171 -0.0653  0.5767
  153MOL0     N20114   9.844   8.113   9.302  0.3853  0.7211  0.6462
  153MOL0     N20115   9.926   8.192   9.246 -0.0385  0.9929  0.5872
  153MOL0     C20116  10.978   8.014   9.367 -0.4518  0.0414  0.2225
  153MOL0     C20117  11.077   8.054   9.284  0.5353 -0.1647 -0.8905
  153MOL0     C20118  11.415   8.319   9.082  0.0881  0.6056 -0.0524
  153MOL0     C20119  11.481   8.198   9.049  1.1995 -0.8072 -0.5487
  153MOL0     C20120  11.616   8.194   9.009 -0.1003  0.5834  0.6775
  153MOL0     C20121  11.679   8.315   8.999  1.0585 -0.2599 -0.0220
  153MOL0     O20122  11.805   8.339   8.944 -0.1289  0.4849 -0.9277
  153MOL0     C20123  11.906   8.229   8.929  0.1781  0.6502  0.0171
  153MOL0     C20124  12.001   8.255   8.810 -0.3209  0.6184 -0.0149
  153MOL0     C20125  12.041   8.396   8.790 -0.2780 -0.6401  0.6325
  153MOL0     C20126  12.143   8.443   8.684  0.5075  0.5034 -0.4601
  153MOL0     C20127  12.268   8.368   8.684  0.3165  0.3532 -0.3129
  153MOL0     C20128  12.378   8.324   8.683 -0.5732 -0.9163 -0.8307
  153MOL0     C20129  11.618   8.429   9.031  0.0521 -0.3971 -0.4607
  153MOL0     C20130  11.488   8.430   9.068 -0.1445 -0.4873 -0.3562
  153MOL0     H20131  11.115   8.368   9.400  0.1883 -0.4789  1.1499
  153MOL0     H20132  10.951   8.309   9.544 -0.1042  0.5960  0.2923
  153MOL0     H20133  10.830   8.203   9.692 -0.2098 -1.0848  3.8149
  153MOL0     H20134  10.736   8.055   9.741 -1.6670 -0.5285 -0.3827
  153MOL0     H20135  10.578   8.088   9.554  0.4612  1.3657 -0.4337
  153MOL0     H20136  10.645   8.246   9.523 -3.8186  2.0120  1.1433
  153MOL0     H20137  10.587   8.345   9.701  1.2637 -1.5380 -3.6304
  153MOL0     H20138  10.539   8.202   9.792  2.9853  3.4515  1.9661
  153MOL0     H20139  10.361   8.152   9.661 -2.6959  1.7315  0.3312
  153MOL0     H20140  10.351   8.316   9.729  2.2137  3.2259  0.0256
  153MOL0     H20141  10.413   8.252   9.429 -0.8128  2.6204 -2.2961
  153MOL0     H20142  10.411   8.407   9.506 -2.0184  1.3507 -1.3501
  153MOL0     H20143  10.183   8.388   9.563  0.1827  0.3773  0.7156
  153MOL0     H20144  10.176   8.213   9.510  0.6461 -0.7038 -3.5582
  153MOL0     H20145  10.262   8.427   9.319 -1.0672  0.2724 -1.1752
  153MOL0     H20146  10.222   8.263   9.284  1.1017 -2.3427  2.9644
  153MOL0     H20147  10.034   8.408   9.209  1.4980 -5.4776 -0.6402
  153MOL0     H20148  10.010   8.485   9.364 -1.6381 -0.5166  1.4043
  153MOL0     H20149   9.882   8.302   9.554  0.7912  0.3588  0.3456
  153MOL0     H20150   9.664   8.161   9.564 -2.3019 -2.7535  0.4567
  153MOL0     H20151   9.783   8.044   9.615 -2.8631 -1.4821  0.7323
  153MOL0     H20152   9.707   7.898   9.424  0.3467  0.0104 -0.9201
  153MOL0     H20153   9.580   8.031   9.390 -0.9059  2.4506  2.5091
  153MOL0     H20154   9.586   7.837   9.615 -1.5796 -2.3427 -1.4421
  153MOL0     H20155   9.503   8.005   9.620  1.2408  0.4302 -1.0571
  153MOL0     H20156   9.449   7.791   9.418  0.9331 -2.4265  0.9451
  153MOL0     H20157   9.361   7.944   9.440  1.1070  0.9681  0.3357
  153MOL0     H20158   9.217   7.790   9.339  0.3251  0.5217  0.1611
  153MOL0     H20159   8.989   7.711   9.293  0.6540 -2.2625  0.3651
  153MOL0     H20160   8.496   7.574   9.479  1.7796  1.8400 -0.7107
  153MOL0     H20161   8.294   7.497   9.375 -1.4470  0.1173 -1.0240
  153MOL0     H20162   8.249   7.540   8.920 -0.2921  1.2895  0.6254
  153MOL0     H20163   8.222   7.671   9.028 -1.9546  1.4330 -2.4439
  153MOL0     H20164   7.996   7.600   8.953 -0.2043  0.8340  0.9199
  153MOL0     H20165   8.014   7.542   9.122 -3.1594 -0.3463 -0.9099
  153MOL0     H20166   7.913   7.362   8.996  0.7857 -2.2670 -0.4002
  153MOL0     H20167   8.087   7.317   9.012 -2.2167 -2.8791  0.8995
  153MOL0     H20168   7.973   7.451   8.761 -0.0824 -0.0944  2.3742
  153MOL0     H20169   8.140   7.372   8.770  0.8033  1.7053  1.4445
  153MOL0     H20170   7.861   7.271   8.748 -0.1702  2.3898  2.2160
  153MOL0     H20171   7.968   7.175   8.848  1.6267 -0.7515 -1.3041
  153MOL0     H20172   7.959   7.091   8.609  0.2064  0.3660 -0.5734
  153MOL0     H20173   8.115   7.149   8.655 -0.1104 -1.7669 -1.1743
  153MOL0     H20174   7.905   7.315   8.507 -1.2531 -0.7540  3.7065
  153MOL0     H20175   8.071   7.363   8.523  0.0578  0.9028 -3.6225
  153MOL0     H20176   8.137   7.133   8.411 -1.0496  0.4392  1.9130
  153MOL0     H20177   8.072   7.248   8.303  3.4121 -1.2222 -0.7318
  153MOL0     H20178   8.465   7.570   8.994 -1.1678  2.9421 -0.2089
  153MOL0     H20179   8.681   7.635   9.093 -0.9575  1.1435 -0.6425
  153MOL0     H20180   8.930   7.626   9.706  1.4881 -0.9147 -0.0452
  153MOL0     H20181   9.167   7.692   9.756  0.4212 -1.4973  0.7783
  153MOL0     H20182  10.949   7.911   9.347 -0.1228  0.1891 -1.1170
  153MOL0     H20183  11.122   7.981   9.216  1.0609  0.2969 -1.0428
  153MOL0     H20184  11.423   8.106   9.056  0.8452 -0.5392  0.2574
  153MOL0     H20185  11.653   8.097   8.977 -3.9503 -0.8575  0.0681
  153MOL0     H20186  11.856   8.133   8.912  2.1459 -0.4403  0.1759
  153MOL0     H20187  11.962   8.215   9.022  0.8454 -0.6149 -0.5588
  153MOL0     H20188  12.088   8.191   8.828 -0.4798 -0.1741 -1.8904
  153MOL0     H20189  11.953   8.218   8.719  2.3624 -1.2230 -0.8101
  153MOL0     H20190  12.069   8.442   8.886 -1.3000  2.1304 -0.3117
  153MOL0     H20191  11.954   8.455   8.760 -0.0012  1.5491  3.6743
  153MOL0     H20192  12.103   8.433   8.583 -0.0327  1.7080 -0.3884
  153MOL0     H20193  12.157   8.550   8.705 -0.9176  0.9590 -1.6552
  153MOL0     H20194  12.476   8.280   8.676 -0.5396 -1.7767  2.9492
  153MOL0     H20195  11.668   8.525   9.016 -1.2150  0.9364  2.8604
  153MOL0     H20196  11.431   8.522   9.077 -0.4799 -0.8200  1.0670
  154MOL0     O20197   2.675   3.665   7.963  0.2535  0.3893 -0.5398
  154MOL0     C20198   2.707   3.784   7.954 -1.3442 -0.0597 -0.7914
  154MOL0     O20199   2.639   3.879   7.882  0.3947  0.3263 -0.2435
  154MOL0     C20200   2.511   3.865   7.835 -0.5912  0.4809 -0.7880
  154MOL0     C20201   2.415   3.789   7.887 -0.4138 -0.4773 -0.1530
  154MOL0     C20202   2.290   3.788   7.816  0.3497 -0.9649 -0.0531
  154MOL0     C20203   2.259   3.874   7.711  0.5085  0.0859  0.5398
  154MOL0     O20204   2.134   3.883   7.650 -0.0698  0.2977 -0.2115
  154MOL0     C20205   2.020   3.804   7.688  0.2766  0.0083 -0.0997
  154MOL0     C20206   1.900   3.828   7.583 -0.3901 -0.4688 -1.0613
  154MOL0     C20207   1.800   3.708   7.592 -0.1585  0.6072 -0.1409
  154MOL0     C20208   1.690   3.731   7.485 -0.6104 -0.1582 -0.2861
  154MOL0     C20209   1.589   3.615   7.465  0.5636  0.0802 -0.3639
  154MOL0     C20210   1.462   3.647   7.541  1.0440 -0.3164  0.1231
  154MOL0     C20211   1.365   3.531   7.516  0.3342 -0.4429  0.0163
  154MOL0     C20212   1.235   3.577   7.586  1.4508 -0.9093 -0.2837
  154MOL0     N20213   1.149   3.653   7.497 -0.4895  0.2571 -0.0965
  154MOL0     C20214   1.144   3.780   7.479 -0.1935 -0.8275 -0.0708
  154MOL0     C20215   1.060   3.800   7.371 -0.6885 -0.4624  0.2082
  154MOL0     C20216   1.052   3.933   7.306 -0.2256 -0.4590 -0.7250
  154MOL0     C20217   0.934   4.011   7.361 -1.0278  0.3605 -0.2749
  154MOL0     C20218   0.905   4.146   7.293 -0.2081 -0.4317 -0.3466
  154MOL0     C20219   1.011   4.249   7.340 -0.3211  0.7867 -0.2713
  154MOL0     O20220   0.953   4.364   7.404 -0.4331 -0.6142  1.0875
  154MOL0     C20221   1.031   4.433   7.486 -0.9816  0.0580 -0.5621
  154MOL0     C20222   1.168   4.462   7.456 -0.5028  0.4754  0.9325
  154MOL0     C20223   1.250   4.527   7.550 -0.1074 -0.5500  0.0412
  154MOL0     C20224   1.197   4.584   7.674 -0.3891 -0.3789  0.4671
  154MOL0     C20225   1.288   4.651   7.772  0.9709 -0.5936 -0.5780
  154MOL0     O20226   1.422   4.613   7.754  0.4527  0.1179 -0.5830
  154MOL0     C20227   1.514   4.691   7.816 -0.1476  0.2365 -0.1010
  154MOL0     C20228   1.632   4.721   7.744 -0.2883 -0.3230 -1.0673
  154MOL0     C20229   1.734   4.793   7.805 -1.0268  1.2577 -1.2735
  154MOL0     C20230   1.734   4.824   7.945 -0.3794  0.7297  0.4315
  154MOL0     O20231   1.825   4.916   8.004  0.3321 -0.5216 -0.4278
  154MOL0     C20232   1.770   5.047   8.040  0.2975 -1.6502  0.2129
  154MOL0     C20233   1.859   5.150   7.975 -0.0502  0.4412  0.4775
  154MOL0     C20234   2.002   5.183   8.024 -0.0097  0.0421 -0.0291
  154MOL0     C20235   2.018   5.220   8.172 -0.6615  0.7087 -0.5355
  154MOL0     C20236   2.166   5.260   8.209  0.4159 -0.4088 -0.0370
  154MOL0     C20237   2.276   5.173   8.153  0.0971 -0.4366 -0.6638
  154MOL0     C20238   2.414   5.225   8.203  0.8515 -0.5159  0.6872
  154MOL0     C20239   2.530   5.147   8.143 -0.7345  1.0723  0.1983
  154MOL0    Cl20240   2.566   5.204   7.974 -0.1785  0.3352 -0.5127
  154MOL0     C20241   1.612   4.794   8.013  0.2385 -0.2668  0.0253
  154MOL0     C20242   1.511   4.715   7.957 -0.2169 -0.6733 -0.3183
  154MOL0     O20243   1.248   4.743   7.846  0.4824 -0.4597 -0.4554
  154MOL0     C20244   1.057   4.563   7.694 -0.3967 -0.4507 -0.0221
  154MOL0     C20245   0.981   4.489   7.604  0.6890 -0.6558 -0.1672
  154MOL0     N20246   1.011   3.685   7.321 -0.8244  0.0284 -0.7575
  154MOL0     N20247   1.065   3.598   7.399 -0.4845 -0.1760  0.1989
  154MOL0     C20248   2.367   3.958   7.667  0.5340  0.7965  0.3809
  154MOL0     C20249   2.495   3.942   7.723 -0.2674  0.2272  0.4969
  154MOL0     C20250   2.849   3.818   7.989  0.1138 -0.0398  0.1528
  154MOL0     C20251   2.904   3.940   7.937  0.2137  0.5751 -0.5159
  154MOL0     C20252   3.020   3.991   7.982 -0.2142 -0.5956 -0.1108
  154MOL0     C20253   3.110   3.916   8.067  0.7450 -0.3316  0.8193
  154MOL0     O20254   3.235   3.977   8.086  0.7384  0.0945  0.0158
  154MOL0     C20255   3.337   3.925   8.176  0.6873  0.0344 -0.0053
  154MOL0     C20256   3.456   3.868   8.103  0.2687  1.0038 -0.0578
  154MOL0     C20257   3.558   3.983   8.082 -0.5492  0.0561  0.5372
  154MOL0     C20258   3.704   3.954   8.039  0.1761 -0.0304  1.0455
  154MOL0     C20259   3.769   3.915   8.159  0.1507  0.1992 -0.0110
  154MOL0     C20260   3.822   3.884   8.261  1.5912 -0.5826  0.1947
  154MOL0     C20261   3.058   3.789   8.116 -0.1870 -0.0699 -0.2457
  154MOL0     C20262   2.929   3.741   8.080  0.0597 -0.5655 -0.0518
  154MOL0     H20263   2.421   3.711   7.962 -1.1918  0.6872  1.1575
  154MOL0     H20264   2.223   3.710   7.853 -0.2756  0.7131  2.6929
  154MOL0     H20265   1.971   3.830   7.782 -1.2912 -0.0158 -0.8761
  154MOL0     H20266   2.056   3.701   7.699  0.1926  0.1329  1.6132
  154MOL0     H20267   1.932   3.846   7.480  1.6097 -0.6711 -0.5325
  154MOL0     H20268   1.852   3.921   7.613 -1.2821 -1.5312  1.0415
  154MOL0     H20269   1.755   3.699   7.691  1.0595 -0.5390  0.3487
  154MOL0     H20270   1.845   3.609   7.581  0.0380  0.7953 -1.1635
  154MOL0     H20271   1.638   3.826   7.503  2.1809  1.3599  0.3466
  154MOL0     H20272   1.741   3.732   7.388  0.8439 -1.4350  0.4293
  154MOL0     H20273   1.632   3.521   7.500  1.7378  0.8435  0.3041
  154MOL0     H20274   1.560   3.594   7.362  0.7270 -3.0215  0.1239
  154MOL0     H20275   1.429   3.745   7.507 -0.9862 -0.5991  1.1705
  154MOL0     H20276   1.495   3.656   7.645  1.2569  0.5917 -0.0155
  154MOL0     H20277   1.356   3.512   7.409  0.6590  0.0793 -0.1067
  154MOL0     H20278   1.391   3.431   7.552 -1.7510 -1.3744 -0.9003
  154MOL0     H20279   1.261   3.630   7.678 -0.1389 -2.4452  1.1144
  154MOL0     H20280   1.169   3.495   7.614 -0.7378  0.1690 -1.9018
  154MOL0     H20281   1.201   3.853   7.536  1.7537 -3.0678  1.0069
  154MOL0     H20282   1.026   3.931   7.199 -0.3959  5.0750 -1.0946
  154MOL0     H20283   1.143   3.992   7.313 -0.6110  0.0257  0.2664
  154MOL0     H20284   0.928   4.024   7.469 -2.8211  2.1231 -0.5404
  154MOL0     H20285   0.846   3.954   7.330  1.2156 -2.3311 -2.3030
  154MOL0     H20286   0.892   4.145   7.184 -2.1750 -1.3062 -0.1381
  154MOL0     H20287   0.805   4.181   7.320 -0.0524 -0.0708 -0.2221
  154MOL0     H20288   1.082   4.279   7.263  1.6163  2.1136  1.8736
  154MOL0     H20289   1.083   4.202   7.408 -0.0125  1.5088 -0.0911
  154MOL0     H20290   1.209   4.432   7.360  0.4179  0.8028  1.2217
  154MOL0     H20291   1.353   4.515   7.517  0.0957 -1.7593  1.0288
  154MOL0     H20292   1.637   4.692   7.639  1.9322 -0.0065 -1.1040
  154MOL0     H20293   1.819   4.830   7.749  1.2929 -0.6874  0.7775
  154MOL0     H20294   1.760   5.062   8.148 -1.8351 -0.0237 -0.1515
  154MOL0     H20295   1.672   5.059   7.993  0.4182 -1.1786  0.0718
  154MOL0     H20296   1.797   5.240   7.967 -0.2464  0.1889 -1.0886
  154MOL0     H20297   1.858   5.120   7.870 -2.3836  0.8911  0.2982
  154MOL0     H20298   2.042   5.264   7.963 -0.8945 -0.3228 -1.1465
  154MOL0     H20299   2.059   5.098   7.985 -0.3049  1.4231 -3.9601
  154MOL0     H20300   1.949   5.301   8.194  0.9629  1.8859  0.4766
  154MOL0     H20301   1.986   5.135   8.233 -0.6532  2.2763  1.7345
  154MOL0     H20302   2.165   5.262   8.318 -1.6664  1.0480 -0.0152
  154MOL0     H20303   2.189   5.362   8.176  2.0099 -0.5467  0.5621
  154MOL0     H20304   2.265   5.185   8.045 -0.8286 -1.8985 -0.7508
  154MOL0     H20305   2.269   5.069   8.185  2.9883 -1.0633 -1.7649
  154MOL0     H20306   2.429   5.330   8.176 -3.9805  0.5672  1.3184
  154MOL0     H20307   2.417   5.220   8.312 -2.0158  2.7536  1.0822
  154MOL0     H20308   2.511   5.041   8.128 -0.1644  0.9713  0.1690
  154MOL0     H20309   2.614   5.160   8.213 -0.0189 -1.9529  0.0197
  154MOL0     H20310   1.585   4.826   8.113 -0.3888 -2.6230  0.6653
  154MOL0     H20311   1.429   4.689   8.025  1.5632 -3.0153  1.1011
  154MOL0     H20312   1.000   4.605   7.776 -2.8435 -0.9073 -1.3830
  154MOL0     H20313   0.877   4.464   7.623  0.9548 -4.4519 -2.6812
  154MOL0     H20314   2.360   4.017   7.576 -0.3060 -0.3414 -0.3210
  154MOL0     H20315   2.570   4.007   7.679 -0.2240 -0.2623 -0.1766
  154MOL0     H20316   2.854   4.009   7.870  0.1977  0.6739 -0.4034
  154MOL0     H20317   3.062   4.085   7.948 -1.5261  0.6372  1.5473
  154MOL0     H20318   3.298   3.867   8.260  0.3951  1.0109  0.5545
  154MOL0     H20319   3.369   4.022   8.215 -1.2073  0.9623 -0.6562
  154MOL0     H20320   3.500   3.793   8.168 -1.6288  0.8587  1.1544
  154MOL0     H20321   3.439   3.833   8.001  3.9224  0.1090 -0.4893
  154MOL0     H20322   3.557   4.027   8.183 -1.1884  1.5507 -0.0888
  154MOL0     H20323   3.526   4.056   8.007 -0.6715 -2.5097 -2.0710
  154MOL0     H20324   3.707   3.885   7.954 -4.7246  0.4163  0.2044
  154MOL0     H20325   3.756   4.046   8.012  0.5885 -1.0478 -2.0062
  154MOL0     H20326   3.847   3.841   8.357  0.0426 -1.2409  0.3283
  154MOL0     H20327   3.122   3.733   8.183  0.4077 -1.4293 -1.8664
  154MOL0     H20328   2.882   3.654   8.124 -4.2820  1.0329 -1.0081
  155MOL0     O20329   4.465   1.957   9.902  0.0705  0.4127 -0.0072
  155MOL0     C20330   4.550   1.965   9.994  0.3460 -0.1503 -0.3359
  155MOL0     O20331   4.528   2.026  10.119 -0.0957  0.6493  1.0710
  155MOL0     C20332   4.399   2.055  10.157  0.2904  0.7448 -0.1328
  155MOL0     C20333   4.297   2.104  10.075 -0.1733 -0.5721  0.6995
  155MOL0     C20334   4.165   2.121  10.114  0.0618  0.0909  0.3016
  155MOL0     C20335   4.128   2.094  10.246 -0.1961 -0.0951  0.6983
  155MOL0     O20336   4.001   2.114  10.287  0.4901  0.2794 -0.6412
  155MOL0     C20337   3.882   2.073  10.208  0.1715  0.0963 -0.3603
  155MOL0     C20338   3.761   2.145  10.261 -0.6106  0.6358  0.5101
  155MOL0     C20339   3.714   2.237  10.147  1.1473 -0.0062  0.1903
  155MOL0     C20340   3.583   2.310  10.169  0.9135 -0.3542  0.0164
  155MOL0     C20341   3.546   2.393  10.048  0.5041  0.2496  0.4007
  155MOL0     C20342   3.421   2.488  10.066  0.4570  0.2590 -0.6856
  155MOL0     C20343   3.357   2.527   9.929 -0.0869  0.2758  0.0768
  155MOL0     C20344   3.241   2.610   9.967 -0.1606  0.0658  0.2636
  155MOL0     N20345   3.182   2.654   9.841  0.1776  0.2543  0.9258
  155MOL0     C20346   3.109   2.572   9.752 -0.1183 -0.5059  0.5278
  155MOL0     C20347   3.099   2.648   9.641 -0.3536  0.2440 -0.7503
  155MOL0     C20348   3.026   2.605   9.511  0.5019 -0.3254  0.5519
  155MOL0     C20349   2.902   2.685   9.482 -1.2642 -0.2604 -0.2071
  155MOL0     C20350   2.832   2.635   9.362 -0.0928  0.2164  1.0173
  155MOL0     C20351   2.699   2.703   9.369  0.4678 -0.2436 -0.2662
  155MOL0     O20352   2.630   2.697   9.244  0.0252 -0.1389  0.0966
  155MOL0     C20353   2.504   2.745   9.247 -0.4996 -0.7324 -1.0711
  155MOL0     C20354   2.440   2.759   9.115  0.0865 -0.2985 -0.7137
  155MOL0     C20355   2.302   2.808   9.112  0.3346 -0.1149 -0.2097
  155MOL0     C20356   2.239   2.854   9.228  0.0983 -0.1797 -0.7485
  155MOL0     C20357   2.087   2.886   9.223 -0.4136 -0.0612  0.1896
  155MOL0     O20358   2.030   2.860   9.099 -0.1869  0.4701  0.1838
  155MOL0     C20359   1.902   2.903   9.084  0.2762 -0.6404  0.6898
  155MOL0     C20360   1.783   2.846   9.142 -0.8971  0.5016  0.0542
  155MOL0     C20361   1.664   2.906   9.106  0.2597  0.9106  0.1886
  155MOL0     C20362   1.647   3.016   9.019 -0.9521  1.0417 -0.9626
  155MOL0     O20363   1.525   3.071   9.002  0.6908 -0.3679 -0.7393
  155MOL0     C20364   1.491   3.132   8.872 -0.5279 -0.7610 -0.0730
  155MOL0     C20365   1.337   3.140   8.862 -0.0582 -0.0790  0.4629
  155MOL0     C20366   1.288   3.193   8.729  0.4718 -0.1388 -0.2573
  155MOL0     C20367   1.146   3.138   8.670  0.2267  0.0664  0.3395
  155MOL0     C20368   1.036   3.223   8.721  0.2669  0.2927  0.1876
  155MOL0     C20369   1.026   3.242   8.877  0.1572 -0.4175 -0.8637
  155MOL0     C20370   0.893   3.308   8.923  0.1699  0.8737 -0.1202
  155MOL0     C20371   0.813   3.388   8.811  0.5634  1.4790 -0.3979
  155MOL0    Cl20372   0.708   3.488   8.902  0.0253 -0.1109 -0.0286
  155MOL0     C20373   1.759   3.063   8.956 -0.4278  0.0040 -0.2248
  155MOL0     C20374   1.888   3.010   8.995 -0.3232 -0.1296  0.5650
  155MOL0     O20375   2.028   2.940   9.316 -0.3612 -0.1074  0.2519
  155MOL0     C20376   2.308   2.850   9.350 -1.1983 -0.4531  0.5526
  155MOL0     C20377   2.439   2.797   9.361  0.6884 -0.0200  0.0293
  155MOL0     N20378   3.145   2.768   9.671  0.2226 -0.4329 -0.4575
  155MOL0     N20379   3.201   2.772   9.792 -0.0413 -0.8047  0.2617
  155MOL0     C20380   4.219   2.050  10.335 -0.7440 -0.0411  0.2456
  155MOL0     C20381   4.353   2.033  10.291 -0.9588 -0.4397 -0.4651
  155MOL0     C20382   4.685   1.906   9.979  0.7034 -0.0438 -0.7071
  155MOL0     C20383   4.773   1.915  10.090  0.1366  0.5462  0.3345
  155MOL0     C20384   4.901   1.854  10.089  0.1729  0.5908  0.7930
  155MOL0     C20385   4.954   1.795   9.970  0.0245  0.3261 -0.9262
  155MOL0     O20386   5.084   1.765   9.952 -0.3060  0.0829  0.2029
  155MOL0     C20387   5.192   1.832  10.028 -0.5387 -0.4909 -0.3804
  155MOL0     C20388   5.323   1.797   9.955  0.1555 -0.0967 -0.0109
  155MOL0     C20389   5.351   1.655   9.904 -0.2990  0.1309 -0.6300
  155MOL0     C20390   5.402   1.549  10.002 -0.0664 -0.1558  0.0402
  155MOL0     C20391   5.473   1.444   9.923  0.2565 -0.4078 -0.1171
  155MOL0     C20392   5.549   1.381   9.853  0.4431  0.5399  0.0468
  155MOL0     C20393   4.868   1.779   9.862 -0.0246 -0.5321 -0.2842
  155MOL0     C20394   4.742   1.850   9.866  0.5336 -0.0447 -0.8083
  155MOL0     H20395   4.335   2.134   9.979 -0.2664  2.6441  1.5606
  155MOL0     H20396   4.097   2.170  10.044  0.3677 -0.5924 -0.4866
  155MOL0     H20397   3.865   1.967  10.229  2.3544 -0.0454  1.0085
  155MOL0     H20398   3.901   2.094  10.102  3.7564  3.7394  0.7408
  155MOL0     H20399   3.777   2.201  10.354  0.6443 -2.2309  2.1275
  155MOL0     H20400   3.678   2.078  10.284  0.3943 -0.3102  1.4820
  155MOL0     H20401   3.695   2.178  10.056  2.4460  0.8138 -0.6414
  155MOL0     H20402   3.794   2.307  10.124 -0.2672  1.1356 -1.5584
  155MOL0     H20403   3.505   2.237  10.189 -0.1821  1.0928  1.3023
  155MOL0     H20404   3.601   2.375  10.255 -3.6555  1.8653 -0.4176
  155MOL0     H20405   3.536   2.325   9.963 -0.8607  1.6056 -0.5776
  155MOL0     H20406   3.630   2.455  10.014  1.7706 -0.3965  2.1690
  155MOL0     H20407   3.445   2.582  10.117 -1.4920  0.0247  0.7561
  155MOL0     H20408   3.350   2.435  10.131 -0.1168 -0.0278 -1.5252
  155MOL0     H20409   3.430   2.581   9.868  0.8404  1.5999  2.2659
  155MOL0     H20410   3.328   2.442   9.867  1.5302  0.6248 -1.2439
  155MOL0     H20411   3.271   2.693  10.033 -1.7160 -1.4061  2.9963
  155MOL0     H20412   3.160   2.552  10.012 -1.2025  0.4428 -1.0774
  155MOL0     H20413   3.070   2.474   9.777  0.9770 -1.1185 -0.0492
  155MOL0     H20414   3.001   2.499   9.505 -1.2281  0.0501  0.5477
  155MOL0     H20415   3.101   2.624   9.434  0.8152  4.6321  1.7279
  155MOL0     H20416   2.934   2.790   9.474 -0.6313 -0.5348 -1.4693
  155MOL0     H20417   2.829   2.679   9.564 -1.3451  0.9791 -0.1596
  155MOL0     H20418   2.875   2.671   9.268 -0.6838  0.1050  0.6971
  155MOL0     H20419   2.818   2.527   9.355 -0.1287  0.1880  1.5040
  155MOL0     H20420   2.700   2.809   9.396 -0.6913  0.0062 -1.1122
  155MOL0     H20421   2.641   2.650   9.444 -0.1969 -0.4741 -0.9252
  155MOL0     H20422   2.495   2.733   9.025  1.1710 -0.2190 -0.0944
  155MOL0     H20423   2.242   2.812   9.021 -0.9037  1.2136  0.6180
  155MOL0     H20424   1.808   2.764   9.208 -0.3836 -1.0167 -1.9568
  155MOL0     H20425   1.568   2.879   9.150 -0.9779  0.4500 -2.5240
  155MOL0     H20426   1.522   3.060   8.796 -0.1772  1.8319 -2.4910
  155MOL0     H20427   1.542   3.228   8.861 -0.7148 -0.4055  1.7134
  155MOL0     H20428   1.304   3.211   8.939  2.4049  1.7322 -0.0381
  155MOL0     H20429   1.291   3.043   8.883 -1.2333  0.3461 -0.0126
  155MOL0     H20430   1.359   3.166   8.650  1.1012  1.1547 -0.1548
  155MOL0     H20431   1.285   3.302   8.739  1.7153 -0.1219  0.1025
  155MOL0     H20432   1.142   3.142   8.561 -1.4437 -2.2780  0.2296
  155MOL0     H20433   1.141   3.030   8.690  1.1309 -0.7611 -3.1846
  155MOL0     H20434   0.950   3.167   8.681 -0.3974 -0.5757  2.6309
  155MOL0     H20435   1.038   3.321   8.673  0.6729  0.8767  1.3770
  155MOL0     H20436   1.111   3.301   8.914 -1.4612  1.4165  0.1150
  155MOL0     H20437   1.022   3.141   8.919  1.7924 -0.7042 -1.3034
  155MOL0     H20438   0.827   3.231   8.965  0.9723  0.3203  0.1377
  155MOL0     H20439   0.912   3.377   9.005  0.9076  2.6491 -1.7088
  155MOL0     H20440   0.753   3.332   8.738 -1.4084  2.2313  0.5532
  155MOL0     H20441   0.886   3.446   8.754 -0.3764  1.7941 -1.3199
  155MOL0     H20442   1.755   3.152   8.895 -0.3768  1.5421  1.9361
  155MOL0     H20443   1.984   3.026   8.949 -0.7520 -1.5324 -0.9362
  155MOL0     H20444   2.263   2.876   9.445 -1.2479 -1.8584  0.9416
  155MOL0     H20445   2.487   2.792   9.458 -1.5353 -0.7927  1.1495
  155MOL0     H20446   4.186   2.019  10.434 -3.3063  0.1220 -0.4800
  155MOL0     H20447   4.427   1.998  10.362  0.9168  0.1781 -2.0070
  155MOL0     H20448   4.746   1.974  10.177  3.1788  0.3254  1.5510
  155MOL0     H20449   4.956   1.846  10.183  0.4109 -2.0079  0.5116
  155MOL0     H20450   5.205   1.798  10.131  1.9591  1.2258 -0.0353
  155MOL0     H20451   5.166   1.938  10.024  1.4839  0.2596  2.7864
  155MOL0     H20452   5.327   1.869   9.872 -1.2048  0.3658  0.3012
  155MOL0     H20453   5.409   1.823  10.016  0.8687  1.1849 -1.4745
  155MOL0     H20454   5.426   1.681   9.828 -1.1647 -0.4142 -1.6905
  155MOL0     H20455   5.267   1.618   9.846  1.4041  0.3324 -3.4371
  155MOL0     H20456   5.470   1.597  10.073 -0.6396  0.3567  0.2498
  155MOL0     H20457   5.325   1.500  10.062 -0.7600  0.8627 -0.0011
  155MOL0     H20458   5.622   1.337   9.788 -0.0675  2.1583 -1.7035
  155MOL0     H20459   4.904   1.748   9.764 -1.9092  0.0232 -1.1938
  155MOL0     H20460   4.686   1.856   9.772  0.3774 -1.6488 -0.8322
  156MOL0     O20461  10.327   3.929   6.542  0.7296 -0.5330 -0.3613
  156MOL0     C20462  10.246   3.843   6.513  0.3822  0.3944 -0.4394
  156MOL0     O20463  10.270   3.716   6.479  0.0609  0.2057 -0.2049
  156MOL0     C20464  10.400   3.673   6.454  0.8855  0.2203 -0.0542
  156MOL0     C20465  10.421   3.537   6.476 -0.3201  0.6408  0.4590
  156MOL0     C20466  10.547   3.482   6.480 -0.2372 -0.1878  0.3040
  156MOL0     C20467  10.664   3.552   6.434  0.2404 -0.0134 -0.5429
  156MOL0     O20468  10.787   3.495   6.424  0.6551 -1.0287 -0.2018
  156MOL0     C20469  10.790   3.397   6.317 -0.1704  0.2636 -0.0865
  156MOL0     C20470  10.856   3.259   6.360 -1.8265 -0.4866  0.6799
  156MOL0     C20471  10.976   3.282   6.445  0.4078  0.4616 -0.0497
  156MOL0     C20472  11.027   3.147   6.493  0.5932 -0.4029  0.1180
  156MOL0     C20473  11.140   3.166   6.602  0.9460 -0.5893 -0.1664
  156MOL0     C20474  11.192   3.033   6.648  0.2559  0.4162  0.3091
  156MOL0     C20475  11.325   3.049   6.723  1.2208  0.8067 -0.7615
  156MOL0     C20476  11.443   3.076   6.625  0.5989 -0.6537  0.1400
  156MOL0     N20477  11.566   3.095   6.702  0.3351  0.7687 -0.2302
  156MOL0     C20478  11.615   2.987   6.778 -0.0060 -0.2083 -0.2684
  156MOL0     C20479  11.701   3.051   6.866  0.1695  0.1791  0.6815
  156MOL0     C20480  11.778   2.991   6.983 -0.3247  0.0854  1.3897
  156MOL0     C20481  11.933   2.987   6.959  0.3231 -0.2242  0.4227
  156MOL0     C20482  12.010   2.956   7.081  0.1117 -0.8515 -0.0500
  156MOL0     C20483  12.150   2.916   7.062  0.3560 -0.5622  0.1855
  156MOL0     O20484  12.220   3.044   7.046 -0.3216 -0.1313  0.7741
  156MOL0     C20485  12.359   3.032   7.025  0.1045 -0.7400 -0.5959
  156MOL0     C20486  12.420   3.143   6.972 -0.6781 -0.6180  1.0181
  156MOL0     C20487  12.556   3.144   6.958 -0.1710 -0.4401  1.0322
  156MOL0     C20488  12.638   3.035   6.993  1.3046 -0.6245 -0.4281
  156MOL0     C20489  12.783   3.045   6.983 -0.4137 -0.8394  0.2311
  156MOL0     O20490  12.846   2.931   7.019  0.2854  0.6073  0.0543
  156MOL0     C20491  12.982   2.909   6.989 -0.1440 -0.1427 -0.0490
  156MOL0     C20492  13.057   2.827   7.079  0.4551 -0.2520  0.2602
  156MOL0     C20493  13.189   2.797   7.057 -0.9254 -0.2178  0.3507
  156MOL0     C20494  13.262   2.851   6.949  1.0446  0.1977 -0.8539
  156MOL0     O20495  13.393   2.841   6.928  0.2114 -0.2298  0.1823
  156MOL0     C20496  13.481   2.838   7.044 -0.1720  0.0980  0.3041
  156MOL0     C20497  13.576   2.721   7.036  0.2488 -0.0505  0.1096
  156MOL0     C20498  13.504   2.586   7.069 -0.0978  0.0845 -1.1595
  156MOL0     C20499  13.503   2.554   7.220 -0.3031  0.4684 -0.0509
  156MOL0     C20500  13.397   2.441   7.259  0.1028 -0.3821 -0.5014
  156MOL0     C20501  13.453   2.308   7.209 -0.2710  1.6036 -0.3781
  156MOL0     C20502  13.357   2.204   7.238  0.3180 -0.3534  0.9529
  156MOL0     C20503  13.387   2.079   7.154 -0.7163 -1.2795 -0.5872
  156MOL0    Cl20504  13.540   1.996   7.217 -0.0275  0.2075  0.1332
  156MOL0     C20505  13.189   2.926   6.860 -0.4932 -0.4947  0.0786
  156MOL0     C20506  13.048   2.951   6.870 -0.7694  0.1768 -0.4579
  156MOL0     O20507  12.827   3.143   6.912 -0.2408  0.3374 -0.3730
  156MOL0     C20508  12.576   2.928   7.072  0.8449  0.0281  0.2293
  156MOL0     C20509  12.435   2.929   7.079  0.8176 -0.2596 -0.7288
  156MOL0     N20510  11.700   3.188   6.841 -0.0753 -0.0363 -0.8466
  156MOL0     N20511  11.605   3.212   6.757 -1.0699  0.4257  0.4733
  156MOL0     C20512  10.645   3.686   6.405 -0.5243  0.0668  0.4805
  156MOL0     C20513  10.514   3.747   6.410 -0.2947 -0.0785  1.0412
  156MOL0     C20514  10.104   3.890   6.514  0.6459  0.8155 -0.3112
  156MOL0     C20515  10.010   3.828   6.427  0.5727  1.0818  0.7789
  156MOL0     C20516   9.881   3.877   6.427 -0.0587  0.0564 -1.2760
  156MOL0     C20517   9.838   3.993   6.506 -0.9887  0.2885 -0.4940
  156MOL0     O20518   9.707   4.039   6.526 -0.0279  0.6123 -0.1749
  156MOL0     C20519   9.600   3.982   6.449  0.4775 -0.1346  0.2003
  156MOL0     C20520   9.472   4.043   6.498 -0.7505  0.4194  1.2623
  156MOL0     C20521   9.355   3.954   6.456 -0.1829  0.7395 -0.6473
  156MOL0     C20522   9.217   4.025   6.467  0.2992 -0.6420  0.1704
  156MOL0     C20523   9.105   3.938   6.432  0.0375  0.0062  0.2145
  156MOL0     C20524   9.005   3.882   6.413  0.2922  0.3776 -0.2058
  156MOL0     C20525   9.936   4.049   6.591 -0.6509  1.6539  0.3271
  156MOL0     C20526  10.062   3.995   6.595  0.3002  0.3954  0.0898
  156MOL0     H20527  10.335   3.472   6.492  0.8531 -0.3452  3.3689
  156MOL0     H20528  10.551   3.376   6.502  0.7284 -0.0984  0.5976
  156MOL0     H20529  10.856   3.451   6.248 -0.5197  0.1727 -0.4913
  156MOL0     H20530  10.692   3.375   6.274 -0.4131 -0.2541  0.7041
  156MOL0     H20531  10.897   3.206   6.273 -0.4365 -1.1238  1.6785
  156MOL0     H20532  10.784   3.199   6.415 -1.7904 -0.0791  1.1840
  156MOL0     H20533  10.941   3.348   6.525  1.6465 -1.1572  1.9431
  156MOL0     H20534  11.050   3.338   6.388  0.7528 -1.4159 -1.5154
  156MOL0     H20535  10.942   3.101   6.545 -0.6914  3.5381  1.9061
  156MOL0     H20536  11.075   3.097   6.408  0.1287 -3.5840  1.5725
  156MOL0     H20537  11.098   3.232   6.678  3.0007 -2.1980  2.5577
  156MOL0     H20538  11.222   3.217   6.551  0.7883 -0.9184 -0.7563
  156MOL0     H20539  11.205   2.965   6.563  2.6706 -0.1811  1.0672
  156MOL0     H20540  11.120   2.992   6.718  1.2206 -0.3808  0.8585
  156MOL0     H20541  11.322   3.133   6.793  2.3417 -1.5287  2.2644
  156MOL0     H20542  11.341   2.956   6.778 -2.0131  1.9525  2.5608
  156MOL0     H20543  11.420   3.158   6.557  0.9536 -1.7184 -1.3330
  156MOL0     H20544  11.471   2.995   6.557  2.1517  0.7131 -0.9228
  156MOL0     H20545  11.596   2.885   6.746 -1.7245  0.6007 -1.9521
  156MOL0     H20546  11.732   2.893   6.994 -1.6728  0.7993  2.5848
  156MOL0     H20547  11.765   3.051   7.074  0.7543  0.2476  1.4571
  156MOL0     H20548  11.960   3.088   6.924 -2.9691  0.5699 -0.1212
  156MOL0     H20549  11.948   2.911   6.881 -1.3742  0.3582 -0.5186
  156MOL0     H20550  11.991   3.049   7.136 -1.7904  1.1733 -3.7619
  156MOL0     H20551  11.959   2.873   7.132  0.3277  0.1897  1.9596
  156MOL0     H20552  12.178   2.850   6.980  0.8188 -0.4909  0.2785
  156MOL0     H20553  12.175   2.853   7.149  0.6131 -0.2976  0.3071
  156MOL0     H20554  12.358   3.223   6.931 -4.2654 -4.1884 -1.2750
  156MOL0     H20555  12.614   3.230   6.925  2.7843 -2.5495  0.2730
  156MOL0     H20556  12.993   2.789   7.158 -3.2639  1.5378 -1.6207
  156MOL0     H20557  13.236   2.727   7.125 -2.2995 -1.1495  0.3890
  156MOL0     H20558  13.440   2.836   7.145  0.1163 -1.8727  0.4223
  156MOL0     H20559  13.541   2.929   7.040  3.4864 -2.1269 -2.2270
  156MOL0     H20560  13.660   2.732   7.106 -0.7990  0.8383  1.2870
  156MOL0     H20561  13.632   2.705   6.944  0.5584 -4.4133  0.8392
  156MOL0     H20562  13.563   2.506   7.023  1.0804 -0.8438  1.7130
  156MOL0     H20563  13.404   2.586   7.025 -0.2037  0.9181 -0.9356
  156MOL0     H20564  13.606   2.541   7.254 -0.5760  0.1212  0.6738
  156MOL0     H20565  13.465   2.645   7.268  0.2184  0.1995  0.8939
  156MOL0     H20566  13.298   2.471   7.225  0.5318  1.8397  0.0531
  156MOL0     H20567  13.401   2.442   7.369  1.1360  2.3134 -0.5061
  156MOL0     H20568  13.544   2.277   7.262 -0.7075 -0.8348 -0.9435
  156MOL0     H20569  13.464   2.313   7.101 -3.5521 -2.3084 -1.1277
  156MOL0     H20570  13.348   2.182   7.345 -1.1553 -1.8203  0.5805
  156MOL0     H20571  13.259   2.231   7.197  1.3454 -0.0473 -1.4795
  156MOL0     H20572  13.405   2.111   7.051 -1.3040  0.7004 -0.1197
  156MOL0     H20573  13.292   2.024   7.149 -2.6448  1.5941  1.2903
  156MOL0     H20574  13.253   2.955   6.777  0.7059 -2.3294  0.3065
  156MOL0     H20575  13.003   3.004   6.787 -1.0877 -0.1595 -0.5013
  156MOL0     H20576  12.640   2.843   7.093  2.4202  1.7300  2.9458
  156MOL0     H20577  12.393   2.840   7.125  2.0548 -1.5597 -2.0079
  156MOL0     H20578  10.733   3.740   6.370 -0.5326 -0.8572 -1.0723
  156MOL0     H20579  10.504   3.848   6.370  1.5073 -1.2750 -2.9288
  156MOL0     H20580  10.034   3.738   6.371 -0.8838 -0.4388  2.4713
  156MOL0     H20581   9.817   3.805   6.376  0.3182  0.6038 -2.5425
  156MOL0     H20582   9.604   3.874   6.459 -1.9745 -0.2310  0.7244
  156MOL0     H20583   9.603   3.998   6.341  0.1784 -6.2178 -1.0632
  156MOL0     H20584   9.474   4.064   6.605  0.8578 -2.0232  1.7933
  156MOL0     H20585   9.456   4.127   6.429  0.4515 -2.3328 -2.7814
  156MOL0     H20586   9.349   3.870   6.526 -1.9833  3.0716  2.2737
  156MOL0     H20587   9.363   3.917   6.354 -0.4337  0.5151 -0.5852
  156MOL0     H20588   9.212   4.066   6.568  3.2846 -1.4616  0.7403
  156MOL0     H20589   9.213   4.106   6.393  3.9134 -1.5262 -1.2256
  156MOL0     H20590   8.910   3.834   6.403 -0.5173  1.0820  3.0435
  156MOL0     H20591   9.908   4.124   6.664 -1.4964  2.2644 -0.6083
  156MOL0     H20592  10.133   4.041   6.663  2.9860 -0.0097 -2.2599
  157MOL0     O20593   5.365   3.114   2.750  0.0954 -1.2086 -0.2902
  157MOL0     C20594   5.484   3.141   2.725  0.2000 -0.3588 -0.3162
  157MOL0     O20595   5.520   3.238   2.637 -0.1908 -0.7966  0.1060
  157MOL0     C20596   5.426   3.285   2.551  0.8354 -0.1851 -0.1320
  157MOL0     C20597   5.360   3.407   2.577  0.2210 -0.1128 -0.5337
  157MOL0     C20598   5.264   3.459   2.483  0.2700  0.8830 -0.4642
  157MOL0     C20599   5.235   3.387   2.363 -0.6645  0.0103  0.4323
  157MOL0     O20600   5.160   3.433   2.257 -0.3870  0.8438  0.1281
  157MOL0     C20601   5.022   3.459   2.301 -0.3767  0.0869 -1.1604
  157MOL0     C20602   4.932   3.511   2.189  0.1710  0.0266 -0.2975
  157MOL0     C20603   4.790   3.466   2.214 -0.3436 -0.1983 -0.6931
  157MOL0     C20604   4.695   3.555   2.132 -0.2879  0.6301 -0.0927
  157MOL0     C20605   4.548   3.518   2.164  0.2636  0.0606 -0.0273
  157MOL0     C20606   4.458   3.610   2.084 -0.2258 -0.7321  0.2931
  157MOL0     C20607   4.311   3.581   2.114  0.4184 -0.0671  0.9666
  157MOL0     C20608   4.271   3.657   2.229  0.7509 -0.3796  0.4425
  157MOL0     N20609   4.122   3.672   2.232  0.1154  0.3054 -0.2839
  157MOL0     C20610   4.030   3.566   2.238  0.2259  0.0855 -0.8633
  157MOL0     C20611   3.906   3.624   2.247 -0.3115 -0.1469  0.3410
  157MOL0     C20612   3.787   3.531   2.266  0.2009  0.3383 -0.4385
  157MOL0     C20613   3.654   3.600   2.313  0.1048 -0.2573 -0.4033
  157MOL0     C20614   3.597   3.693   2.208  0.2815 -0.9131  0.4046
  157MOL0     C20615   3.520   3.809   2.265  0.2376 -0.9190  0.1118
  157MOL0     O20616   3.438   3.768   2.371 -0.3623  0.2794 -0.0615
  157MOL0     C20617   3.376   3.871   2.435  0.3344  0.6515  0.5734
  157MOL0     C20618   3.442   3.981   2.483  0.2191 -0.6429  1.4814
  157MOL0     C20619   3.364   4.070   2.551 -0.3154 -0.0561 -0.3914
  157MOL0     C20620   3.226   4.066   2.581  0.3741  0.1664  0.0658
  157MOL0     C20621   3.158   4.165   2.661 -0.1901  0.4001 -0.5242
  157MOL0     O20622   3.232   4.232   2.744  0.0462  0.0533 -0.3496
  157MOL0     C20623   3.178   4.329   2.825  0.0784 -0.2112 -0.9750
  157MOL0     C20624   3.133   4.299   2.955 -0.7385 -0.6581 -0.2043
  157MOL0     C20625   3.060   4.391   3.033  0.2259  0.0522 -0.5194
  157MOL0     C20626   3.013   4.509   2.980  0.5515  0.0661  0.8137
  157MOL0     O20627   2.943   4.612   3.040  0.9919  0.0288  0.0752
  157MOL0     C20628   2.858   4.572   3.152  0.3453  0.2281 -0.1832
  157MOL0     C20629   2.770   4.695   3.168  0.9857  0.4386  0.6642
  157MOL0     C20630   2.701   4.743   3.038  0.3467 -0.6637  1.2880
  157MOL0     C20631   2.627   4.878   3.074  0.4380  1.3601 -0.5040
  157MOL0     C20632   2.703   5.000   3.055 -0.0407  0.0485 -0.7704
  157MOL0     C20633   2.637   5.119   2.983 -0.1410 -0.0254 -0.0957
  157MOL0     C20634   2.581   5.085   2.847  0.3783  0.3084 -0.3406
  157MOL0     C20635   2.650   4.990   2.764 -0.9107  0.7852  0.2299
  157MOL0    Cl20636   2.815   5.042   2.696  0.6980 -0.3290  0.0043
  157MOL0     C20637   3.059   4.536   2.846 -0.1950 -0.6858 -0.7422
  157MOL0     C20638   3.136   4.449   2.772 -0.2437 -0.7820  0.0100
  157MOL0     O20639   3.034   4.171   2.662 -0.4616 -0.9170  0.2865
  157MOL0     C20640   3.169   3.944   2.542 -0.8645 -0.5086 -0.3065
  157MOL0     C20641   3.240   3.854   2.462  0.1500 -0.9972  1.5764
  157MOL0     N20642   3.927   3.770   2.225  0.5490  0.4610 -0.7227
  157MOL0     N20643   4.051   3.787   2.214  0.3353 -0.6780 -0.7161
  157MOL0     C20644   5.302   3.267   2.338 -0.2416  0.5143  0.0851
  157MOL0     C20645   5.393   3.214   2.437  0.0611  0.3002 -0.0756
  157MOL0     C20646   5.582   3.051   2.796 -0.3492  0.0409 -0.2947
  157MOL0     C20647   5.558   2.928   2.864 -0.3751  0.0788  0.2735
  157MOL0     C20648   5.664   2.855   2.917 -0.6912 -0.0660  0.0365
  157MOL0     C20649   5.799   2.885   2.899 -0.5945 -0.6657  0.2387
  157MOL0     O20650   5.898   2.792   2.931  0.2977  0.5877 -0.7782
  157MOL0     C20651   6.031   2.843   2.934 -0.8690  0.7255  0.1137
  157MOL0     C20652   6.064   2.929   3.062 -0.1552 -0.0740 -0.0030
  157MOL0     C20653   6.202   2.974   3.091  0.4223  0.1678 -0.2523
  157MOL0     C20654   6.320   2.881   3.048 -0.1480  0.5480  0.1170
  157MOL0     C20655   6.347   2.885   2.904 -0.9754  0.3799  0.5694
  157MOL0     C20656   6.367   2.876   2.780 -1.1780 -0.1649 -0.6632
  157MOL0     C20657   5.822   3.020   2.839  0.3094  0.6501  0.1111
  157MOL0     C20658   5.714   3.089   2.782 -0.3621  0.2912  0.2023
  157MOL0     H20659   5.387   3.478   2.655 -1.5421  2.7169 -2.2980
  157MOL0     H20660   5.220   3.558   2.497 -0.5914  0.5975 -1.0669
  157MOL0     H20661   5.024   3.531   2.384 -0.9134 -0.9164 -0.2523
  157MOL0     H20662   4.988   3.365   2.345 -0.4328  0.6551  0.0481
  157MOL0     H20663   4.974   3.465   2.099  5.7100  2.6257  0.5283
  157MOL0     H20664   4.935   3.620   2.186 -4.3886  0.3168 -1.5488
  157MOL0     H20665   4.777   3.472   2.322  1.3590 -2.7686 -0.2598
  157MOL0     H20666   4.781   3.359   2.192  0.6189  0.0878 -2.7429
  157MOL0     H20667   4.719   3.662   2.137  2.3206  0.0597  3.1539
  157MOL0     H20668   4.716   3.526   2.029  4.2932  0.6055  0.6792
  157MOL0     H20669   4.529   3.537   2.270 -0.7348 -1.9753  0.2026
  157MOL0     H20670   4.520   3.413   2.154  0.0479 -0.0162  1.2468
  157MOL0     H20671   4.477   3.600   1.977  1.9951  0.6330  0.5017
  157MOL0     H20672   4.489   3.707   2.125 -1.7015 -0.8331  1.7640
  157MOL0     H20673   4.238   3.605   2.037  1.2069 -1.1083 -0.1434
  157MOL0     H20674   4.302   3.474   2.138  1.4578 -0.2178  0.7485
  157MOL0     H20675   4.321   3.754   2.233 -0.5825  0.3658 -0.1326
  157MOL0     H20676   4.299   3.604   2.321  0.2005 -2.5601 -0.5881
  157MOL0     H20677   4.063   3.463   2.248  1.3157  0.5301  0.6310
  157MOL0     H20678   3.816   3.465   2.348  1.0582  1.6402  0.3338
  157MOL0     H20679   3.769   3.461   2.183 -0.7492  0.2228 -0.1463
  157MOL0     H20680   3.677   3.642   2.411  0.4850 -1.6102  0.1106
  157MOL0     H20681   3.584   3.516   2.321  1.3256 -1.2345  0.4288
  157MOL0     H20682   3.678   3.739   2.150 -0.7818 -1.4294 -1.6108
  157MOL0     H20683   3.539   3.641   2.131  1.5836  3.6681 -4.3082
  157MOL0     H20684   3.455   3.849   2.187  0.7047  1.6987  0.9601
  157MOL0     H20685   3.597   3.884   2.285 -1.4132  1.9883 -3.2566
  157MOL0     H20686   3.549   3.991   2.479  0.0947  0.3121 -1.4252
  157MOL0     H20687   3.419   4.154   2.592 -1.6945 -0.6691  3.0752
  157MOL0     H20688   3.161   4.196   2.974 -1.1567 -0.3224  2.6478
  157MOL0     H20689   3.035   4.370   3.137 -1.9873 -2.7788 -1.4931
  157MOL0     H20690   2.929   4.560   3.235 -0.4564  0.7809  0.6071
  157MOL0     H20691   2.798   4.484   3.130 -0.8737  1.3156 -1.3630
  157MOL0     H20692   2.841   4.767   3.211  4.5405 -1.3011 -1.7250
  157MOL0     H20693   2.689   4.673   3.238  1.1454 -0.8321  0.4794
  157MOL0     H20694   2.624   4.669   3.011 -0.7873  0.2919  1.8075
  157MOL0     H20695   2.771   4.751   2.954 -0.2960  1.1713  0.8781
  157MOL0     H20696   2.530   4.865   3.025  1.0067 -3.9293 -0.8376
  157MOL0     H20697   2.603   4.881   3.181 -0.4891 -0.1394 -0.6447
  157MOL0     H20698   2.796   4.977   3.003 -0.0605 -0.3427 -0.6346
  157MOL0     H20699   2.732   5.035   3.154  0.7497  1.2695 -1.4082
  157MOL0     H20700   2.712   5.197   2.967 -1.0510  0.6947 -1.0296
  157MOL0     H20701   2.561   5.169   3.044 -1.5727 -0.3631 -1.5241
  157MOL0     H20702   2.478   5.049   2.853  0.3340  0.4366 -0.3329
  157MOL0     H20703   2.572   5.167   2.776  1.2635  0.2151 -0.5819
  157MOL0     H20704   2.586   4.960   2.681 -1.4620  2.2922  0.0785
  157MOL0     H20705   2.668   4.903   2.828 -0.5934  0.3864 -0.3929
  157MOL0     H20706   3.030   4.635   2.810  2.4283  0.4850  0.1640
  157MOL0     H20707   3.179   4.487   2.679 -4.7361  3.5904 -0.7367
  157MOL0     H20708   3.065   3.915   2.554 -1.2202 -1.9320 -4.9477
  157MOL0     H20709   3.196   3.765   2.418 -1.5576  0.5786 -0.1084
  157MOL0     H20710   5.290   3.202   2.252 -0.0185  2.1056 -1.1811
  157MOL0     H20711   5.428   3.113   2.419  2.6147  1.1966 -0.5428
  157MOL0     H20712   5.462   2.881   2.882 -0.0293 -1.0145 -0.6115
  157MOL0     H20713   5.631   2.770   2.977  2.0124  0.7498  2.9457
  157MOL0     H20714   6.047   2.895   2.839 -1.5950 -0.1882 -0.5198
  157MOL0     H20715   6.099   2.758   2.936 -1.4079  0.2933  0.7140
  157MOL0     H20716   5.998   3.015   3.056  1.4868  1.2827  0.4892
  157MOL0     H20717   6.042   2.870   3.152  4.2308 -1.2128  0.5793
  157MOL0     H20718   6.206   3.005   3.196  1.1902  1.2347 -0.5679
  157MOL0     H20719   6.208   3.072   3.043  0.2374 -0.1991 -1.0399
  157MOL0     H20720   6.400   2.923   3.109 -0.7516  1.5879  0.2056
  157MOL0     H20721   6.297   2.781   3.087 -1.5440  1.9640  3.2034
  157MOL0     H20722   6.394   2.878   2.677 -2.4430 -0.4778 -1.0205
  157MOL0     H20723   5.926   3.042   2.821  0.9795 -0.4375  2.3603
  157MOL0     H20724   5.737   3.174   2.719 -0.2364 -0.4152 -0.7375
  158MOL0     O20725   4.611   6.013   7.308  0.3295 -1.3394  0.0139
  158MOL0     C20726   4.602   5.972   7.189 -0.0643  0.2246  0.2910
  158MOL0     O20727   4.694   5.998   7.086 -0.2492  0.0816 -0.0788
  158MOL0     C20728   4.806   6.070   7.115 -0.4034  0.5185  0.5113
  158MOL0     C20729   4.909   6.029   7.036 -0.8082  0.1579  0.0314
  158MOL0     C20730   5.036   6.088   7.042  1.5672  0.2761  0.6441
  158MOL0     C20731   5.064   6.188   7.133 -0.7627 -0.3742  0.9018
  158MOL0     O20732   5.196   6.238   7.153 -0.6724 -0.1593 -0.1932
  158MOL0     C20733   5.294   6.206   7.049  0.0914 -0.0752 -0.5773
  158MOL0     C20734   5.417   6.291   7.070 -0.0979 -0.8024 -0.0824
  158MOL0     C20735   5.497   6.261   7.200  0.9063  0.3004  0.1150
  158MOL0     C20736   5.585   6.384   7.225  0.2898  0.8680  0.0514
  158MOL0     C20737   5.697   6.352   7.330  0.0870 -0.3044  0.5749
  158MOL0     C20738   5.651   6.309   7.477 -0.1111 -0.6349 -0.2167
  158MOL0     C20739   5.560   6.411   7.554  0.7862 -0.8692  0.9504
  158MOL0     C20740   5.506   6.373   7.696 -0.5188  0.3620 -0.9598
  158MOL0     N20741   5.419   6.257   7.674  0.6147 -0.6493 -0.0367
  158MOL0     C20742   5.320   6.245   7.582 -0.0784 -0.8321 -0.5353
  158MOL0     C20743   5.282   6.115   7.583  0.0784  0.3629  0.1448
  158MOL0     C20744   5.170   6.055   7.512  1.3304  0.2195 -0.5782
  158MOL0     C20745   5.040   6.057   7.602 -0.1681 -0.3618 -0.1339
  158MOL0     C20746   4.940   6.164   7.554  0.1631  0.1170  0.7543
  158MOL0     C20747   4.830   6.197   7.660 -0.5116 -0.0002 -0.1160
  158MOL0     O20748   4.749   6.297   7.625 -0.5428 -0.4636  0.2524
  158MOL0     C20749   4.630   6.299   7.696  0.1176 -0.1936 -0.0108
  158MOL0     C20750   4.516   6.212   7.656  0.0561 -0.8763 -0.3794
  158MOL0     C20751   4.395   6.212   7.712  0.4469 -0.9598 -1.0582
  158MOL0     C20752   4.374   6.302   7.827 -0.0641 -1.2330  0.9484
  158MOL0     C20753   4.246   6.295   7.913  0.1200 -0.3754  0.2655
  158MOL0     O20754   4.263   6.337   8.048 -0.0608 -0.1974  0.1996
  158MOL0     C20755   4.162   6.325   8.142  0.7143 -0.7108 -1.1102
  158MOL0     C20756   4.071   6.428   8.165  0.6229 -0.2618  0.3869
  158MOL0     C20757   3.969   6.427   8.263  0.2310 -0.0365  0.0108
  158MOL0     C20758   3.959   6.322   8.351 -0.4033  0.0657  0.4840
  158MOL0     O20759   3.869   6.315   8.452 -0.0253  0.2927  0.1064
  158MOL0     C20760   3.737   6.365   8.432  0.2786 -0.9402 -0.3596
  158MOL0     C20761   3.640   6.273   8.493 -0.3920  0.0811 -0.3219
  158MOL0     C20762   3.638   6.285   8.647 -0.0586 -0.4452 -0.0417
  158MOL0     C20763   3.534   6.189   8.720  0.0879 -0.1191 -0.3581
  158MOL0     C20764   3.490   6.242   8.859 -0.2093 -0.1515 -0.5052
  158MOL0     C20765   3.395   6.154   8.934 -0.4046  0.3387  0.4363
  158MOL0     C20766   3.251   6.141   8.872 -0.4102 -0.5819 -0.5240
  158MOL0     C20767   3.151   6.228   8.951 -0.5610 -0.0550 -0.0013
  158MOL0    Cl20768   3.092   6.142   9.095 -0.7706 -0.0691 -0.2891
  158MOL0     C20769   4.050   6.210   8.334  0.1556  0.2867 -0.7417
  158MOL0     C20770   4.144   6.204   8.223  0.4765  0.1493  0.5807
  158MOL0     O20771   4.143   6.268   7.865 -0.3327 -0.7376 -0.0586
  158MOL0     C20772   4.480   6.392   7.863 -0.0788 -0.5015  0.0333
  158MOL0     C20773   4.605   6.385   7.803  0.7585  0.6277 -0.6505
  158MOL0     N20774   5.355   6.044   7.678  0.1025  0.1821  0.2728
  158MOL0     N20775   5.439   6.127   7.719 -0.5903  0.0477 -0.1019
  158MOL0     C20776   4.951   6.240   7.200 -0.1611  0.0499 -0.3194
  158MOL0     C20777   4.828   6.185   7.194  0.7081  0.1409 -0.5509
  158MOL0     C20778   4.483   5.892   7.164 -0.3974  0.9065  0.3708
  158MOL0     C20779   4.459   5.826   7.037 -0.0559 -0.1274  0.6117
  158MOL0     C20780   4.348   5.749   7.014  0.9353 -0.5837  0.5016
  158MOL0     C20781   4.247   5.749   7.101 -0.3259  1.4045  0.2778
  158MOL0     O20782   4.142   5.678   7.052  0.5695 -0.0318 -0.0765
  158MOL0     C20783   4.045   5.627   7.139 -0.2406 -0.3357  0.3420
  158MOL0     C20784   3.966   5.520   7.068  0.9223 -0.1990  0.5230
  158MOL0     C20785   3.914   5.555   6.921  0.5772 -0.4053 -0.6209
  158MOL0     C20786   3.879   5.436   6.844  0.3174  0.3470 -0.5384
  158MOL0     C20787   3.733   5.406   6.842  1.0651 -0.2346 -0.2803
  158MOL0     C20788   3.609   5.404   6.835  0.4134 -1.0326  0.2611
  158MOL0     C20789   4.256   5.816   7.222 -0.1062 -0.0783 -0.4475
  158MOL0     C20790   4.376   5.884   7.252 -0.1064 -0.4847  0.0226
  158MOL0     H20791   4.889   5.954   6.960 -0.7971  1.2571 -1.0782
  158MOL0     H20792   5.104   6.049   6.967 -0.2478  0.3673 -1.1426
  158MOL0     H20793   5.248   6.221   6.951  0.9301  1.2376 -0.7993
  158MOL0     H20794   5.333   6.104   7.060  0.3725 -0.1391 -2.0018
  158MOL0     H20795   5.405   6.399   7.061  0.6373 -0.8099 -1.5821
  158MOL0     H20796   5.480   6.280   6.980 -2.2392  1.1869 -1.9660
  158MOL0     H20797   5.552   6.167   7.189 -0.3449 -0.3850 -0.4985
  158MOL0     H20798   5.431   6.243   7.285  1.0791 -4.2465 -0.4342
  158MOL0     H20799   5.632   6.421   7.134 -0.5655  1.4652 -0.1653
  158MOL0     H20800   5.515   6.460   7.260  1.6450  2.4516 -0.5570
  158MOL0     H20801   5.764   6.438   7.340 -0.5318  0.2314  0.2089
  158MOL0     H20802   5.759   6.270   7.292 -0.0162  0.1756 -0.6491
  158MOL0     H20803   5.742   6.306   7.537  0.1944  0.7568 -0.5583
  158MOL0     H20804   5.598   6.214   7.473 -0.0798 -0.7043  0.8197
  158MOL0     H20805   5.625   6.499   7.563  1.5824 -1.1940 -1.0941
  158MOL0     H20806   5.469   6.421   7.494 -1.6411 -0.6805  4.3236
  158MOL0     H20807   5.457   6.461   7.739 -0.8102  0.7214 -1.9846
  158MOL0     H20808   5.591   6.343   7.758 -0.9682  0.6298 -0.1956
  158MOL0     H20809   5.282   6.304   7.499  1.4886 -1.7943 -1.9988
  158MOL0     H20810   5.189   5.949   7.492 -0.5249 -0.3576  0.4526
  158MOL0     H20811   5.160   6.114   7.421  1.9037  1.2857  0.0335
  158MOL0     H20812   5.073   6.076   7.704 -0.9600 -3.4869  0.8041
  158MOL0     H20813   4.989   5.961   7.589  0.0951 -0.3869 -1.0280
  158MOL0     H20814   4.982   6.256   7.512 -1.2862  0.2942 -0.4187
  158MOL0     H20815   4.895   6.128   7.461  0.5604  2.3678 -0.3875
  158MOL0     H20816   4.876   6.215   7.758  1.8531 -0.3947 -1.0843
  158MOL0     H20817   4.771   6.106   7.671 -1.7161  0.8659  0.7900
  158MOL0     H20818   4.538   6.147   7.571 -3.8648 -0.0410 -2.2540
  158MOL0     H20819   4.311   6.156   7.670 -1.0723  0.8172 -0.5316
  158MOL0     H20820   4.080   6.517   8.104  1.0864 -0.2823  0.4175
  158MOL0     H20821   3.904   6.513   8.279 -0.5444 -0.2732 -1.6418
  158MOL0     H20822   3.706   6.362   8.327 -1.2874  3.1477 -0.2004
  158MOL0     H20823   3.715   6.467   8.466 -0.6190 -2.4412  4.1880
  158MOL0     H20824   3.666   6.168   8.476 -1.9032 -0.0636 -2.0730
  158MOL0     H20825   3.543   6.294   8.447 -0.3750  0.8411 -0.0390
  158MOL0     H20826   3.620   6.388   8.676 -0.2328 -0.9157  1.5972
  158MOL0     H20827   3.740   6.253   8.672  0.2740  0.3228 -0.3726
  158MOL0     H20828   3.451   6.177   8.650  1.0244 -4.1300 -1.0018
  158MOL0     H20829   3.568   6.086   8.734 -1.3143 -0.6464 -0.7491
  158MOL0     H20830   3.443   6.339   8.842 -0.4418 -0.6909 -3.7637
  158MOL0     H20831   3.577   6.255   8.923 -0.0748  0.3180 -0.7803
  158MOL0     H20832   3.397   6.197   9.035 -1.9672 -0.5645  0.8933
  158MOL0     H20833   3.436   6.053   8.934 -2.1106 -0.3956  0.3839
  158MOL0     H20834   3.263   6.156   8.765 -0.2063  0.5061 -0.3627
  158MOL0     H20835   3.215   6.037   8.869  0.3835 -0.9230  0.7975
  158MOL0     H20836   3.065   6.234   8.884 -1.5429 -1.8533  1.0493
  158MOL0     H20837   3.192   6.328   8.969 -0.8520 -0.4102  3.3544
  158MOL0     H20838   4.040   6.122   8.397 -2.3322  0.7760 -0.3358
  158MOL0     H20839   4.213   6.123   8.202 -0.3972 -0.4867  0.0968
  158MOL0     H20840   4.481   6.461   7.947 -1.0120 -0.3412 -0.0811
  158MOL0     H20841   4.692   6.433   7.845  0.3846 -1.2039  2.5050
  158MOL0     H20842   4.952   6.331   7.258 -1.9788  0.8460 -1.4229
  158MOL0     H20843   4.749   6.236   7.249  1.8192  2.5671 -1.0775
  158MOL0     H20844   4.534   5.826   6.959  1.2821 -0.4464  1.8702
  158MOL0     H20845   4.329   5.695   6.922 -0.2364  0.4064  0.1309
  158MOL0     H20846   3.988   5.716   7.165 -0.1929  0.0883 -0.9378
  158MOL0     H20847   4.084   5.581   7.231  0.2284  0.4420  0.5384
  158MOL0     H20848   4.036   5.437   7.053  0.7317 -0.3245  0.3283
  158MOL0     H20849   3.881   5.488   7.129 -1.9978 -1.7075 -3.8456
  158MOL0     H20850   3.999   5.590   6.862  1.1535 -1.6461 -0.5394
  158MOL0     H20851   3.832   5.628   6.920 -0.4712 -1.5005 -3.1713
  158MOL0     H20852   3.929   5.424   6.747 -3.3098 -0.6605 -2.4831
  158MOL0     H20853   3.922   5.348   6.893  1.5781  1.8372  1.1819
  158MOL0     H20854   3.504   5.383   6.827  0.5043 -2.7070  2.4253
  158MOL0     H20855   4.191   5.801   7.307 -1.4654  0.7043 -1.3223
  158MOL0     H20856   4.379   5.923   7.353 -0.2269  1.3172 -0.6354
  159MOL0     O20857   2.643   4.916   3.557  0.4457  0.4566  0.0635
  159MOL0     C20858   2.731   4.986   3.515  1.5586  0.1131  0.1484
  159MOL0     O20859   2.729   5.129   3.518 -0.0908 -0.9075  0.1336
  159MOL0     C20860   2.620   5.211   3.534 -0.0999  0.3852  0.1104
  159MOL0     C20861   2.651   5.343   3.559  0.0062  0.0071 -0.2655
  159MOL0     C20862   2.540   5.435   3.573 -0.4098 -0.8564  1.0139
  159MOL0     C20863   2.410   5.402   3.544 -0.0273 -0.3247  0.2005
  159MOL0     O20864   2.302   5.488   3.537 -0.5083  0.3819 -0.0580
  159MOL0     C20865   2.310   5.625   3.582 -0.0773  0.4416  0.6249
  159MOL0     C20866   2.163   5.672   3.594  0.0267 -0.0649 -1.5227
  159MOL0     C20867   2.074   5.578   3.682 -0.2316 -0.4648 -0.2894
  159MOL0     C20868   1.932   5.630   3.698  0.5165 -0.6433  0.5124
  159MOL0     C20869   1.834   5.522   3.750  0.2095 -0.6204  0.2119
  159MOL0     C20870   1.859   5.476   3.891  0.2663 -0.0639  0.0154
  159MOL0     C20871   1.744   5.411   3.964  0.2581  0.0072  0.2944
  159MOL0     C20872   1.687   5.504   4.064 -0.5830 -0.8666 -0.4076
  159MOL0     N20873   1.578   5.441   4.129 -0.4734  0.0524 -0.3807
  159MOL0     C20874   1.447   5.456   4.092  0.0967  0.5711 -0.2247
  159MOL0     C20875   1.367   5.395   4.181 -0.8091  0.2022 -0.3840
  159MOL0     C20876   1.216   5.392   4.210 -0.4311 -0.6262  0.3478
  159MOL0     C20877   1.192   5.498   4.324  0.1235 -0.3432  0.0876
  159MOL0     C20878   1.078   5.595   4.270  0.9234  0.1096 -0.9876
  159MOL0     C20879   0.939   5.531   4.266  0.4643  0.1256  0.0757
  159MOL0     O20880   0.864   5.607   4.174  0.9207  0.4262 -0.1224
  159MOL0     C20881   0.719   5.605   4.181  0.5655 -0.3905 -0.5361
  159MOL0     C20882   0.652   5.717   4.131  0.4031 -0.6633 -1.1346
  159MOL0     C20883   0.516   5.718   4.111  0.5916  0.1171  0.5784
  159MOL0     C20884   0.438   5.607   4.151 -0.0686 -0.1416  0.7554
  159MOL0     C20885   0.289   5.606   4.145 -0.4561  0.2213 -0.3890
  159MOL0     O20886   0.223   5.495   4.186 -1.0923  0.7564  0.1652
  159MOL0     C20887   0.090   5.483   4.203  0.9914 -0.2951  0.1453
  159MOL0     C20888  -0.016   5.575   4.182 -0.6566  0.3052 -0.7498
  159MOL0     C20889  -0.148   5.529   4.195 -0.1882 -0.7237  0.0364
  159MOL0     C20890  -0.175   5.398   4.226 -0.2779  0.6844  0.4232
  159MOL0     O20891  -0.305   5.370   4.239  0.2046  0.1003 -0.2261
  159MOL0     C20892  -0.349   5.236   4.255  0.4614 -0.5589  0.2311
  159MOL0     C20893  -0.346   5.217   4.403  0.0671 -0.4705 -1.2655
  159MOL0     C20894  -0.374   5.070   4.433  0.5285 -0.3961  1.2986
  159MOL0     C20895  -0.391   5.052   4.580 -0.3081  0.5743  0.4039
  159MOL0     C20896  -0.441   4.915   4.616  0.6172  0.3986 -0.1038
  159MOL0     C20897  -0.378   4.875   4.754  0.4803 -0.4829 -0.3201
  159MOL0     C20898  -0.392   4.731   4.798 -0.0052 -0.3738 -0.5050
  159MOL0     C20899  -0.273   4.698   4.894  0.1546 -0.2668  0.3167
  159MOL0    Cl20900  -0.296   4.791   5.044  0.0043 -0.1775 -0.0505
  159MOL0     C20901  -0.071   5.297   4.245 -0.2537 -0.8987  0.6962
  159MOL0     C20902   0.051   5.348   4.226 -0.2332 -0.3825 -0.8165
  159MOL0     O20903   0.230   5.712   4.118  0.0770 -0.3268  0.0531
  159MOL0     C20904   0.509   5.494   4.197 -0.2170  0.1800  0.5085
  159MOL0     C20905   0.642   5.500   4.230  0.2105 -0.0984 -0.0861
  159MOL0     N20906   1.456   5.330   4.269 -0.5907 -0.2081 -0.3705
  159MOL0     N20907   1.578   5.361   4.239  0.1352 -0.6679  0.4537
  159MOL0     C20908   2.378   5.268   3.519 -0.3253 -0.1952 -0.4110
  159MOL0     C20909   2.486   5.177   3.513  1.2555  1.0122 -0.1317
  159MOL0     C20910   2.855   4.920   3.474  0.3743 -0.3295  0.1589
  159MOL0     C20911   2.884   4.785   3.506  0.5321 -0.5327 -1.0353
  159MOL0     C20912   3.009   4.728   3.482 -0.6685 -0.0924  0.0815
  159MOL0     C20913   3.116   4.815   3.429  0.2882 -0.6985 -0.3534
  159MOL0     O20914   3.246   4.784   3.402 -0.7790  0.1771 -0.2296
  159MOL0     C20915   3.302   4.665   3.447 -0.9156  0.4122  0.4974
  159MOL0     C20916   3.272   4.548   3.348 -0.2474 -0.8037 -0.9027
  159MOL0     C20917   3.352   4.424   3.370  0.1204  0.7500 -0.7358
  159MOL0     C20918   3.364   4.367   3.514  0.6582 -0.1487  0.3524
  159MOL0     C20919   3.223   4.355   3.571 -0.7255  0.5290  0.3416
  159MOL0     C20920   3.118   4.340   3.626  0.2406  0.2345 -0.1794
  159MOL0     C20921   3.080   4.949   3.396 -0.1078  0.2466 -0.2450
  159MOL0     C20922   2.952   5.000   3.418 -0.5154 -0.1825  1.0054
  159MOL0     H20923   2.751   5.384   3.568  0.1340  0.2621 -2.2441
  159MOL0     H20924   2.570   5.539   3.585  1.0149 -1.0568 -0.4388
  159MOL0     H20925   2.372   5.668   3.503 -1.0957 -0.9890 -1.0295
  159MOL0     H20926   2.361   5.640   3.677 -1.0114  2.1542  0.8923
  159MOL0     H20927   2.110   5.700   3.502 -1.6875  1.7074 -0.0706
  159MOL0     H20928   2.189   5.765   3.645 -0.5558  0.3093 -1.8998
  159MOL0     H20929   2.109   5.564   3.785 -0.5406 -1.9308 -0.3582
  159MOL0     H20930   2.072   5.477   3.639 -2.4442 -0.9672  0.8242
  159MOL0     H20931   1.927   5.714   3.768  0.3965 -1.9097  2.0883
  159MOL0     H20932   1.900   5.656   3.597  2.1659 -0.8280 -0.0844
  159MOL0     H20933   1.831   5.438   3.680  0.6884 -2.6951  2.5446
  159MOL0     H20934   1.737   5.573   3.756  1.0845  1.2549 -0.5743
  159MOL0     H20935   1.903   5.557   3.949 -2.1676  0.2069  1.6560
  159MOL0     H20936   1.951   5.417   3.886  2.2506  2.9200 -0.7006
  159MOL0     H20937   1.657   5.383   3.904  0.0894 -2.7655  1.6888
  159MOL0     H20938   1.786   5.325   4.017 -0.9133 -1.2463 -0.7277
  159MOL0     H20939   1.649   5.594   4.014  0.4214  1.3429  2.5200
  159MOL0     H20940   1.761   5.527   4.141  2.1029 -2.8264 -2.1924
  159MOL0     H20941   1.414   5.517   4.009 -1.0094  1.3622  0.7540
  159MOL0     H20942   1.186   5.289   4.231 -2.4607  0.1689  1.6213
  159MOL0     H20943   1.151   5.417   4.126  0.3458  1.8233  0.4042
  159MOL0     H20944   1.283   5.555   4.345  0.4208 -1.3343  1.6094
  159MOL0     H20945   1.161   5.453   4.419  2.8641 -2.7122  0.0089
  159MOL0     H20946   1.080   5.686   4.330  0.7664 -0.9438  0.6642
  159MOL0     H20947   1.109   5.630   4.171  2.0366  1.9869 -0.0251
  159MOL0     H20948   0.891   5.533   4.364  1.3733  2.4717  0.5365
  159MOL0     H20949   0.947   5.424   4.243 -0.7061  0.3151 -1.4473
  159MOL0     H20950   0.718   5.795   4.096  2.4501 -2.2635 -0.9915
  159MOL0     H20951   0.474   5.799   4.052  1.1700  0.9750  1.3201
  159MOL0     H20952   0.009   5.679   4.162 -0.1999  0.6325  1.3225
  159MOL0     H20953  -0.231   5.599   4.192 -0.4818 -1.1127 -1.4892
  159MOL0     H20954  -0.298   5.165   4.189  0.4679  0.4111 -0.8418
  159MOL0     H20955  -0.456   5.226   4.234 -0.2377  0.3718  2.9316
  159MOL0     H20956  -0.408   5.294   4.451  4.2175  3.2466 -1.2467
  159MOL0     H20957  -0.250   5.237   4.452 -1.1671  1.7356  0.4978
  159MOL0     H20958  -0.288   5.009   4.404  0.7329  0.1102  0.8096
  159MOL0     H20959  -0.467   5.039   4.386  1.1816  2.0272 -1.9722
  159MOL0     H20960  -0.295   5.060   4.631 -0.8098 -1.5273  1.8000
  159MOL0     H20961  -0.458   5.132   4.612  1.9534  2.8955 -0.3069
  159MOL0     H20962  -0.418   4.844   4.536 -2.4319 -1.1297  0.2591
  159MOL0     H20963  -0.550   4.913   4.624  0.7074 -0.3687  1.3203
  159MOL0     H20964  -0.427   4.931   4.835  2.4906  1.8915 -0.6123
  159MOL0     H20965  -0.275   4.913   4.755  0.0013  1.0147  1.8420
  159MOL0     H20966  -0.488   4.712   4.848  0.9263 -0.9405  1.1755
  159MOL0     H20967  -0.365   4.682   4.704  2.6782  2.5948 -1.4526
  159MOL0     H20968  -0.177   4.724   4.851 -0.2379  2.1332  0.7625
  159MOL0     H20969  -0.272   4.591   4.920 -0.5484 -0.3744 -0.0724
  159MOL0     H20970  -0.081   5.194   4.278 -1.2026 -1.0801 -0.1414
  159MOL0     H20971   0.133   5.279   4.244  2.0782  2.7721  2.1316
  159MOL0     H20972   0.454   5.403   4.215  0.4864 -0.3276  0.1432
  159MOL0     H20973   0.682   5.420   4.291  0.2061  1.1910  1.7018
  159MOL0     H20974   2.282   5.219   3.508  0.6577 -2.1879 -0.4766
  159MOL0     H20975   2.459   5.073   3.497 -0.9760  1.8095 -2.2137
  159MOL0     H20976   2.818   4.715   3.554  4.4325 -2.6671  1.7709
  159MOL0     H20977   3.030   4.625   3.510 -0.3695 -0.7291 -2.2260
  159MOL0     H20978   3.256   4.639   3.543  0.4059  1.7735  1.5524
  159MOL0     H20979   3.411   4.667   3.460 -0.7648  0.0951 -0.6431
  159MOL0     H20980   3.167   4.520   3.359 -0.5591 -0.4764 -2.7006
  159MOL0     H20981   3.290   4.586   3.247  1.6632 -0.4378 -0.4704
  159MOL0     H20982   3.454   4.438   3.334  1.5516 -1.6420  1.9563
  159MOL0     H20983   3.302   4.339   3.321 -0.0510 -2.3224  4.0271
  159MOL0     H20984   3.411   4.269   3.506  0.3084 -0.7811  4.0505
  159MOL0     H20985   3.429   4.421   3.583  2.3708 -1.5647 -0.0840
  159MOL0     H20986   3.024   4.314   3.669  0.1414  0.8716  0.0026
  159MOL0     H20987   3.154   5.022   3.366 -0.2446  0.2886 -0.4836
  159MOL0     H20988   2.924   5.100   3.385 -2.3413 -0.8933  0.2577
  160MOL0     O20989   8.307   5.361   0.951 -0.4328  0.3828 -0.1888
  160MOL0     C20990   8.395   5.422   1.008 -0.4432  0.0145 -0.6856
  160MOL0     O20991   8.378   5.493   1.125 -0.4795 -0.4160 -0.6988
  160MOL0     C20992   8.255   5.545   1.163 -0.2527  0.3604  0.5768
  160MOL0     C20993   8.145   5.566   1.076  0.4063 -0.0884  0.2906
  160MOL0     C20994   8.032   5.638   1.119  0.5081  0.1548  0.2285
  160MOL0     C20995   8.030   5.699   1.248  0.7019  0.1833  0.1193
  160MOL0     O20996   7.923   5.768   1.303 -0.5323  0.0647 -0.4935
  160MOL0     C20997   7.825   5.816   1.209  0.7218  0.1714  0.1496
  160MOL0     C20998   7.708   5.868   1.283  0.3973  0.3471 -0.0192
  160MOL0     C20999   7.692   6.023   1.309 -0.3837  0.8709  0.6104
  160MOL0     C21000   7.553   6.046   1.366  0.0105  0.5482  0.4318
  160MOL0     C21001   7.546   6.199   1.377  0.1303 -0.1513  0.5351
  160MOL0     C21002   7.417   6.223   1.458 -0.4679 -0.4123 -0.8804
  160MOL0     C21003   7.422   6.351   1.550 -0.8999 -0.1655 -0.2842
  160MOL0     C21004   7.530   6.328   1.662  0.0956  0.5708 -0.3059
  160MOL0     N21005   7.550   6.435   1.757  0.1083 -0.7316 -1.0275
  160MOL0     C21006   7.668   6.498   1.802  0.3549  0.2710  0.8736
  160MOL0     C21007   7.633   6.609   1.869  0.3265  0.8331 -0.2779
  160MOL0     C21008   7.714   6.719   1.941  0.4494  0.7995  0.9158
  160MOL0     C21009   7.858   6.699   1.906 -0.6557  0.8547 -0.1111
  160MOL0     C21010   7.886   6.703   1.752  0.4722  0.2421 -0.0011
  160MOL0     C21011   8.018   6.636   1.728 -0.0655 -0.0443 -0.0112
  160MOL0     O21012   8.065   6.656   1.599  0.1357 -0.4487  0.3155
  160MOL0     C21013   8.196   6.699   1.589 -0.0256  0.3829 -0.3813
  160MOL0     C21014   8.228   6.795   1.494 -0.7824 -0.4131  0.9037
  160MOL0     C21015   8.356   6.849   1.494  0.0871 -0.9132 -0.5958
  160MOL0     C21016   8.460   6.801   1.577  0.9852  0.0499 -0.5578
  160MOL0     C21017   8.594   6.858   1.560  0.8689 -0.8037  0.8376
  160MOL0     O21018   8.682   6.837   1.658 -1.0343 -0.1374  0.1926
  160MOL0     C21019   8.810   6.861   1.619  0.1186  0.4261  0.0999
  160MOL0     C21020   8.876   6.760   1.569 -0.5530  0.7921 -0.3930
  160MOL0     C21021   9.008   6.778   1.523 -0.8335 -0.1282  0.0463
  160MOL0     C21022   9.071   6.903   1.506  0.0925 -0.3121  0.4067
  160MOL0     O21023   9.203   6.925   1.465 -0.2570  0.3309 -1.0817
  160MOL0     C21024   9.293   6.819   1.500  0.3580  0.4746  0.0599
  160MOL0     C21025   9.430   6.851   1.461  0.8626  0.3866 -0.6558
  160MOL0     C21026   9.456   6.872   1.312  0.3408  0.3085  0.1613
  160MOL0     C21027   9.417   6.740   1.232 -0.4351 -0.2951 -0.4023
  160MOL0     C21028   9.457   6.766   1.095 -0.4026  0.7356 -0.4566
  160MOL0     C21029   9.348   6.843   1.011 -0.0898 -0.0079  0.5003
  160MOL0     C21030   9.402   6.875   0.863 -0.3142  0.3760  0.6014
  160MOL0     C21031   9.374   6.764   0.756  0.5731 -0.7687  0.0818
  160MOL0    Cl21032   9.419   6.804   0.585 -0.2672 -0.3620  0.0886
  160MOL0     C21033   8.995   7.011   1.540  0.7439  0.6804 -0.1521
  160MOL0     C21034   8.871   6.988   1.609  1.1507  0.1220  0.1740
  160MOL0     O21035   8.623   6.894   1.441 -0.1337 -0.2657 -0.4146
  160MOL0     C21036   8.427   6.703   1.663 -0.0643 -0.0581 -0.0848
  160MOL0     C21037   8.298   6.663   1.679  0.2458  1.4986 -0.3429
  160MOL0     N21038   7.492   6.609   1.881 -0.0445 -0.1143 -0.2521
  160MOL0     N21039   7.446   6.502   1.809  0.2370  0.4797 -0.9621
  160MOL0     C21040   8.136   5.666   1.335 -0.5167  0.0055 -0.2108
  160MOL0     C21041   8.251   5.600   1.289 -1.2645 -0.0916  0.0458
  160MOL0     C21042   8.534   5.433   0.962  0.2582  0.0832  0.3520
  160MOL0     C21043   8.579   5.359   0.850  0.3452 -0.0956  0.4968
  160MOL0     C21044   8.707   5.367   0.813 -0.1203 -0.2070 -0.0870
  160MOL0     C21045   8.802   5.441   0.886  0.4507 -0.0450  0.2193
  160MOL0     O21046   8.924   5.438   0.852 -0.6597 -0.2113 -0.0605
  160MOL0     C21047   8.960   5.562   0.787 -0.3037 -0.2680 -0.3857
  160MOL0     C21048   8.910   5.578   0.647  0.6224 -0.2820  0.0449
  160MOL0     C21049   8.990   5.678   0.567 -0.2709 -0.5094  0.4788
  160MOL0     C21050   8.919   5.824   0.566 -1.1810  0.4003 -0.1343
  160MOL0     C21051   9.031   5.920   0.566 -0.6365  0.7793 -0.1924
  160MOL0     C21052   9.133   5.981   0.557  0.6689  0.4802  0.3000
  160MOL0     C21053   8.759   5.520   0.989  0.7330  0.2039 -0.0877
  160MOL0     C21054   8.630   5.509   1.030  0.5129  0.0501 -0.0009
  160MOL0     H21055   8.141   5.539   0.970 -3.3729 -3.0903  0.9703
  160MOL0     H21056   7.949   5.656   1.051 -0.9570  3.7278  2.6712
  160MOL0     H21057   7.787   5.729   1.155 -0.4826  0.3089  0.7458
  160MOL0     H21058   7.862   5.891   1.139  3.2230  0.4422  1.6365
  160MOL0     H21059   7.704   5.820   1.382  2.8497 -1.7354 -0.8079
  160MOL0     H21060   7.619   5.839   1.227  1.2111  0.6958 -1.5562
  160MOL0     H21061   7.697   6.067   1.208 -0.6885  1.2976  0.7772
  160MOL0     H21062   7.775   6.050   1.375 -0.0023 -1.9420  1.4058
  160MOL0     H21063   7.475   6.009   1.298  2.9671 -4.1317 -0.9264
  160MOL0     H21064   7.540   6.000   1.465 -0.1997  0.1482  0.2216
  160MOL0     H21065   7.547   6.239   1.275  1.8295 -1.5138 -0.0414
  160MOL0     H21066   7.634   6.229   1.434 -0.8088 -0.5474  2.2482
  160MOL0     H21067   7.387   6.133   1.513  0.9521 -0.2553  0.2301
  160MOL0     H21068   7.334   6.233   1.388  0.1865 -1.4672 -1.8518
  160MOL0     H21069   7.451   6.442   1.498 -2.6432  0.6718  0.1306
  160MOL0     H21070   7.328   6.358   1.606 -0.1945 -1.3989  1.1149
  160MOL0     H21071   7.627   6.311   1.614  0.3114 -0.0525  0.3380
  160MOL0     H21072   7.501   6.239   1.719  0.0563  0.7838  0.0115
  160MOL0     H21073   7.769   6.459   1.790 -0.2333 -1.0296 -0.0154
  160MOL0     H21074   7.691   6.726   2.047 -2.1763  0.2157  0.4620
  160MOL0     H21075   7.696   6.819   1.901  2.0741  1.1879  1.0959
  160MOL0     H21076   7.898   6.606   1.948 -0.9114  0.2482 -1.1533
  160MOL0     H21077   7.898   6.788   1.953 -0.2559  1.3847 -1.3956
  160MOL0     H21078   7.801   6.660   1.699  0.0202  1.8268 -0.6344
  160MOL0     H21079   7.895   6.810   1.730  0.2733  0.7430  2.1233
  160MOL0     H21080   8.008   6.529   1.746 -0.9241  0.2462  1.4789
  160MOL0     H21081   8.087   6.674   1.804  1.1711  1.7977 -1.9390
  160MOL0     H21082   8.158   6.821   1.415  1.2816 -0.7338 -1.1521
  160MOL0     H21083   8.393   6.920   1.420 -1.0489  0.3104 -0.0374
  160MOL0     H21084   8.844   6.657   1.563  1.8337 -0.0406  0.1317
  160MOL0     H21085   9.053   6.685   1.491  0.2552  0.1663  0.6334
  160MOL0     H21086   9.260   6.720   1.466 -1.9696  0.8716  0.9832
  160MOL0     H21087   9.295   6.826   1.609  2.6685 -1.3393  0.2309
  160MOL0     H21088   9.504   6.778   1.495  2.8605  2.0853 -1.1718
  160MOL0     H21089   9.460   6.948   1.503 -2.4808  0.0253  3.2155
  160MOL0     H21090   9.559   6.905   1.295 -0.1701  2.5834  1.0920
  160MOL0     H21091   9.408   6.959   1.267  3.4624  0.5333 -3.2065
  160MOL0     H21092   9.477   6.656   1.270 -0.8007 -1.5373 -2.3910
  160MOL0     H21093   9.313   6.708   1.236  0.4234 -3.5874 -1.2863
  160MOL0     H21094   9.484   6.674   1.043  2.1274  2.9084 -3.3081
  160MOL0     H21095   9.549   6.826   1.099  1.8828 -2.5362  1.1486
  160MOL0     H21096   9.337   6.931   1.075  0.2640  0.5551 -0.2069
  160MOL0     H21097   9.261   6.777   1.016  0.6058 -1.0128 -0.2922
  160MOL0     H21098   9.388   6.976   0.824  1.5198  1.4651  2.5083
  160MOL0     H21099   9.511   6.876   0.879 -0.4624  0.4981  1.6951
  160MOL0     H21100   9.266   6.748   0.749 -0.1248  2.9281  0.4634
  160MOL0     H21101   9.428   6.675   0.788  0.0247 -1.1959 -0.1645
  160MOL0     H21102   9.030   7.113   1.528  2.0962  0.1705 -0.6444
  160MOL0     H21103   8.814   7.073   1.643  0.1844 -0.0444 -0.9596
  160MOL0     H21104   8.503   6.652   1.721 -1.6045 -2.3144  0.0635
  160MOL0     H21105   8.281   6.586   1.754  0.1279 -0.1332 -1.9740
  160MOL0     H21106   8.142   5.706   1.435  0.3441  3.0509 -1.3781
  160MOL0     H21107   8.333   5.565   1.351  0.7566 -1.3201 -3.0888
  160MOL0     H21108   8.505   5.299   0.797  0.2447  0.6824 -0.2706
  160MOL0     H21109   8.733   5.303   0.730  1.4155 -0.5310  0.6003
  160MOL0     H21110   9.069   5.566   0.786 -0.3268  1.6551  0.1532
  160MOL0     H21111   8.929   5.650   0.845  0.4019  0.3177 -0.8805
  160MOL0     H21112   8.900   5.486   0.590 -2.5884  0.7705 -1.3486
  160MOL0     H21113   8.808   5.614   0.665  1.2790  0.7944  1.9908
  160MOL0     H21114   8.977   5.645   0.464 -0.9526  0.0458  0.3800
  160MOL0     H21115   9.095   5.673   0.600 -0.6679 -0.6374  1.7949
  160MOL0     H21116   8.860   5.838   0.475  0.6939  2.3271 -1.1466
  160MOL0     H21117   8.861   5.837   0.657 -1.4170  1.4360 -0.4240
  160MOL0     H21118   9.216   6.049   0.554  0.7530  0.6078  2.7531
  160MOL0     H21119   8.831   5.573   1.051 -0.1219 -0.0637  1.1927
  160MOL0     H21120   8.607   5.561   1.123 -1.2067 -0.1604 -0.2712
  161MOL0     O21121   0.205   2.269   9.260 -0.0417  0.0660 -0.3023
  161MOL0     C21122   0.187   2.389   9.287 -0.1337 -0.4505  0.6315
  161MOL0     O21123   0.077   2.452   9.332 -0.1370  0.6338  0.0626
  161MOL0     C21124  -0.028   2.376   9.377 -0.0982 -0.6363 -0.1367
  161MOL0     C21125  -0.150   2.369   9.318 -0.2446 -0.1397 -0.3049
  161MOL0     C21126  -0.252   2.293   9.376  0.6237 -0.2041 -0.3809
  161MOL0     C21127  -0.241   2.235   9.505 -0.3623 -0.3595 -0.1989
  161MOL0     O21128  -0.350   2.189   9.574  0.7500  0.4668 -0.3802
  161MOL0     C21129  -0.408   2.071   9.533 -0.2351  0.7600  0.8652
  161MOL0     C21130  -0.378   1.966   9.638 -0.6771 -0.8859 -0.2503
  161MOL0     C21131  -0.464   1.845   9.627 -0.4850 -0.6915 -0.2098
  161MOL0     C21132  -0.613   1.867   9.636  0.3439 -0.3480 -0.0579
  161MOL0     C21133  -0.663   1.926   9.771 -0.3148  1.2252  0.7546
  161MOL0     C21134  -0.587   1.862   9.895  0.4687  0.1028 -0.2227
  161MOL0     C21135  -0.671   1.875  10.022  0.2363 -0.5591  0.5436
  161MOL0     C21136  -0.807   1.801  10.037 -0.0512  0.1167 -0.5499
  161MOL0     N21137  -0.846   1.816  10.182  0.3887  0.8939  0.3283
  161MOL0     C21138  -0.839   1.725  10.282  0.1007  0.0113  0.4619
  161MOL0     C21139  -0.900   1.784  10.387  0.8558 -0.1570  0.2743
  161MOL0     C21140  -0.930   1.722  10.517 -0.3128  0.6088 -0.4209
  161MOL0     C21141  -1.056   1.638  10.502  0.5540  0.3480 -0.0944
  161MOL0     C21142  -1.178   1.708  10.453  0.0142  0.2347 -0.1161
  161MOL0     C21143  -1.217   1.837  10.529  0.4563  0.2199  0.0309
  161MOL0     O21144  -1.256   1.804  10.666 -0.2033  0.9692  0.0601
  161MOL0     C21145  -1.389   1.792  10.693  0.3400 -0.4653 -0.6005
  161MOL0     C21146  -1.421   1.777  10.829 -0.0165 -0.2066 -1.7001
  161MOL0     C21147  -1.549   1.788  10.884  0.1564  0.1068 -0.0767
  161MOL0     C21148  -1.660   1.795  10.794 -0.7509  0.3638 -1.0287
  161MOL0     C21149  -1.798   1.805  10.852  0.4154  0.8534  0.6708
  161MOL0     O21150  -1.915   1.796  10.778 -0.3715  0.1454  0.5753
  161MOL0     C21151  -2.033   1.774  10.845 -1.4962 -0.3174  0.4891
  161MOL0     C21152  -2.041   1.691  10.959  0.0034 -0.4820 -0.6412
  161MOL0     C21153  -2.175   1.677  11.004  0.0774 -0.3453  0.0927
  161MOL0     C21154  -2.286   1.745  10.947 -0.0239  0.3666 -0.4659
  161MOL0     O21155  -2.413   1.728  10.995 -0.0293  1.0867  0.2316
  161MOL0     C21156  -2.472   1.601  11.023 -0.1515 -0.6108  0.3372
  161MOL0     C21157  -2.605   1.567  10.958 -0.1458  0.0817  0.0419
  161MOL0     C21158  -2.717   1.670  10.988 -1.5447  0.4270 -0.7735
  161MOL0     C21159  -2.848   1.628  10.933  0.4249 -0.6242  0.1393
  161MOL0     C21160  -2.958   1.738  10.961  0.2895  0.3156 -0.4176
  161MOL0     C21161  -3.102   1.692  10.954 -0.0496  0.2945 -0.0759
  161MOL0     C21162  -3.190   1.812  10.934 -0.4815 -0.0523  0.4823
  161MOL0     C21163  -3.336   1.778  10.962  0.2381 -0.4818  0.5089
  161MOL0    Cl21164  -3.449   1.905  10.920  0.3565  0.1430  0.2414
  161MOL0     C21165  -2.268   1.841  10.848  0.4730  0.0706  0.6112
  161MOL0     C21166  -2.138   1.851  10.795  0.0324  0.2622  0.9598
  161MOL0     O21167  -1.794   1.817  10.976 -0.5574  0.4427  0.7710
  161MOL0     C21168  -1.629   1.802  10.655  0.3642 -0.2705  0.4238
  161MOL0     C21169  -1.497   1.798  10.602 -0.8143  0.5060 -1.0468
  161MOL0     N21170  -0.943   1.910  10.349  0.7243 -0.2312  0.3209
  161MOL0     N21171  -0.910   1.925  10.225 -0.0627 -0.7974 -0.2979
  161MOL0     C21172  -0.121   2.251   9.568  0.0010  0.2048  0.3752
  161MOL0     C21173  -0.011   2.316   9.506  0.6122 -0.4637  0.1490
  161MOL0     C21174   0.289   2.485   9.241 -0.3355 -0.2253  0.2903
  161MOL0     C21175   0.419   2.429   9.221  0.2201 -0.0255  1.0893
  161MOL0     C21176   0.519   2.493   9.143  0.1179 -0.0009 -0.2311
  161MOL0     C21177   0.500   2.626   9.114 -0.9683 -0.9506  0.5671
  161MOL0     O21178   0.583   2.699   9.038 -0.3668  0.2664 -0.2857
  161MOL0     C21179   0.703   2.631   8.983 -0.6242  0.9171  0.2315
  161MOL0     C21180   0.797   2.736   8.927 -0.7226 -0.2951 -0.1290
  161MOL0     C21181   0.936   2.672   8.878  0.3991  0.4371 -0.4357
  161MOL0     C21182   1.051   2.767   8.846  0.0866 -0.2803  0.0300
  161MOL0     C21183   1.103   2.826   8.968 -1.1080  0.2173 -0.6917
  161MOL0     C21184   1.138   2.854   9.086 -0.4689 -0.6861  0.2643
  161MOL0     C21185   0.371   2.688   9.141 -0.9252  0.1917  0.4506
  161MOL0     C21186   0.271   2.613   9.204 -0.0026 -0.0964  0.6509
  161MOL0     H21187  -0.181   2.413   9.224  0.2721  0.4252 -0.2151
  161MOL0     H21188  -0.345   2.282   9.322  0.9406  2.4583 -1.6443
  161MOL0     H21189  -0.370   2.040   9.436 -0.4748  3.2510 -0.0972
  161MOL0     H21190  -0.516   2.086   9.519 -0.4435 -2.1617 -1.7764
  161MOL0     H21191  -0.399   2.019   9.731 -0.3918 -0.1233 -0.6037
  161MOL0     H21192  -0.270   1.949   9.630 -0.9089 -1.6914 -2.1940
  161MOL0     H21193  -0.434   1.783   9.713 -0.0750  0.3590  0.4260
  161MOL0     H21194  -0.440   1.792   9.534  1.6675 -2.0190  1.0159
  161MOL0     H21195  -0.655   1.925   9.553 -2.0890 -0.7977  0.7568
  161MOL0     H21196  -0.653   1.766   9.627  3.3474 -1.4425 -2.5863
  161MOL0     H21197  -0.770   1.908   9.762  0.1290 -1.8560  0.8223
  161MOL0     H21198  -0.643   2.034   9.763 -2.0173  1.5916  1.0718
  161MOL0     H21199  -0.487   1.907   9.902  1.0232 -0.3593 -3.3868
  161MOL0     H21200  -0.577   1.754   9.880  2.8728 -0.1005  2.1747
  161MOL0     H21201  -0.594   1.839  10.091  0.8771 -0.0203  0.1269
  161MOL0     H21202  -0.683   1.980  10.049 -0.3516 -0.9310  1.8036
  161MOL0     H21203  -0.802   1.694  10.017  2.1071  0.4648 -2.1639
  161MOL0     H21204  -0.876   1.846   9.966 -0.0515 -0.9478 -1.2382
  161MOL0     H21205  -0.790   1.629  10.279  0.4629  0.1698  1.0909
  161MOL0     H21206  -0.947   1.794  10.598 -0.1556  1.7809 -1.3980
  161MOL0     H21207  -0.856   1.647  10.549 -2.8919 -2.0764 -0.3577
  161MOL0     H21208  -1.085   1.596  10.599 -0.6895 -1.1926 -1.0853
  161MOL0     H21209  -1.049   1.556  10.430 -0.1081  2.4746 -2.7555
  161MOL0     H21210  -1.161   1.720  10.345  3.0130 -2.4265 -0.0937
  161MOL0     H21211  -1.259   1.635  10.459  0.8182 -0.5492  1.8911
  161MOL0     H21212  -1.296   1.886  10.472  1.2041 -2.4282 -3.6514
  161MOL0     H21213  -1.138   1.912  10.522 -0.7057  1.5529  0.7139
  161MOL0     H21214  -1.345   1.763  10.906  2.4249 -1.5411 -4.1736
  161MOL0     H21215  -1.563   1.793  10.991  0.4342 -0.5340 -0.0030
  161MOL0     H21216  -1.953   1.654  11.012  0.4637  1.2306 -0.1383
  161MOL0     H21217  -2.184   1.612  11.090  2.1185 -1.0921 -0.1949
  161MOL0     H21218  -2.494   1.602  11.130  0.1366  0.9733  0.4014
  161MOL0     H21219  -2.398   1.522  11.007  1.3809  1.1822 -2.3603
  161MOL0     H21220  -2.647   1.468  10.977  0.0923 -0.9639 -3.9821
  161MOL0     H21221  -2.578   1.583  10.853 -1.5050  1.1913 -0.1700
  161MOL0     H21222  -2.697   1.774  10.961  1.7679 -0.2994 -1.6009
  161MOL0     H21223  -2.727   1.655  11.096 -1.1659  0.1704 -0.7711
  161MOL0     H21224  -2.843   1.605  10.826  1.1019 -0.1797  0.0741
  161MOL0     H21225  -2.882   1.537  10.985 -2.1460 -0.8977 -1.7993
  161MOL0     H21226  -2.953   1.833  10.907 -2.8844  0.3778 -0.8287
  161MOL0     H21227  -2.937   1.772  11.063  1.6531  0.6279 -0.7866
  161MOL0     H21228  -3.107   1.642  11.052  2.4630 -1.4440 -0.7408
  161MOL0     H21229  -3.123   1.612  10.883 -0.9782  0.2550  0.2284
  161MOL0     H21230  -3.167   1.894  11.003 -3.3209  2.3256 -1.1480
  161MOL0     H21231  -3.162   1.840  10.832  1.0635 -0.6959  0.7085
  161MOL0     H21232  -3.358   1.762  11.068  0.9172  0.9800  0.8930
  161MOL0     H21233  -3.362   1.686  10.909  0.4558 -1.4152  1.9717
  161MOL0     H21234  -2.346   1.908  10.814  1.1716 -0.0675 -1.3935
  161MOL0     H21235  -2.136   1.929  10.720 -0.3109 -1.9401 -1.4904
  161MOL0     H21236  -1.715   1.810  10.589  0.6736 -1.9677 -0.2294
  161MOL0     H21237  -1.489   1.812  10.495  0.5878  2.3902 -0.7400
  161MOL0     H21238  -0.109   2.224   9.672  2.1891  0.4006  0.2288
  161MOL0     H21239   0.082   2.317   9.562 -0.7363 -1.8470  2.5777
  161MOL0     H21240   0.438   2.328   9.256  1.0406  0.3161  1.6481
  161MOL0     H21241   0.601   2.436   9.101  2.7539  4.6035 -2.0151
  161MOL0     H21242   0.679   2.563   8.901 -0.0075  3.2438 -2.0456
  161MOL0     H21243   0.759   2.576   9.058 -1.2597  0.1845  0.1803
  161MOL0     H21244   0.749   2.780   8.839 -1.4379 -1.6172 -0.4259
  161MOL0     H21245   0.813   2.810   9.007 -3.0221 -1.2575  1.3562
  161MOL0     H21246   0.899   2.626   8.786 -1.7758 -0.1876  0.6711
  161MOL0     H21247   0.974   2.596   8.948  3.4581  2.2269  0.0067
  161MOL0     H21248   1.135   2.722   8.792  0.6482 -1.9365  2.1678
  161MOL0     H21249   1.019   2.858   8.794 -0.1678 -0.3839  0.0028
  161MOL0     H21250   1.180   2.882   9.180  0.9600  3.8259 -1.4292
  161MOL0     H21251   0.354   2.793   9.121 -2.1366  0.2139  1.4366
  161MOL0     H21252   0.178   2.669   9.211  0.6835  1.0411  0.9431
  162MOL0     O21253   6.046   6.992   7.661  0.4626 -0.0170  0.3031
  162MOL0     C21254   6.140   6.938   7.715 -0.2891 -0.3834 -0.3466
  162MOL0     O21255   6.126   6.822   7.784 -0.2094 -0.8341  0.0667
  162MOL0     C21256   6.000   6.782   7.822  0.1929  0.2585  0.2373
  162MOL0     C21257   5.927   6.860   7.905  0.6488  0.0000  0.3102
  162MOL0     C21258   5.803   6.820   7.943  0.7251 -0.0529 -0.0301
  162MOL0     C21259   5.746   6.700   7.897 -0.7737 -1.1777 -0.8268
  162MOL0     O21260   5.615   6.657   7.913 -0.1286  0.3170  0.1065
  162MOL0     C21261   5.510   6.734   7.966  1.2058  0.0738 -0.9959
  162MOL0     C21262   5.369   6.679   7.937 -0.4927  0.1747 -1.1090
  162MOL0     C21263   5.249   6.776   7.969  0.1996 -0.0341  0.5035
  162MOL0     C21264   5.107   6.732   7.931 -0.5960  0.9234  0.5645
  162MOL0     C21265   5.103   6.675   7.789  0.1485 -0.2379  0.0001
  162MOL0     C21266   4.965   6.629   7.745 -0.9114 -0.2512  0.5805
  162MOL0     C21267   4.857   6.737   7.741 -0.4306  0.6187  0.2969
  162MOL0     C21268   4.895   6.835   7.624  0.5217  0.3142 -0.6276
  162MOL0     N21269   4.772   6.908   7.583  0.0022  0.2701 -0.2291
  162MOL0     C21270   4.721   7.006   7.654  0.0295  0.1122 -0.3032
  162MOL0     C21271   4.606   7.051   7.588  0.3569  0.5086  0.0213
  162MOL0     C21272   4.504   7.154   7.619  0.3230 -0.0053  0.4230
  162MOL0     C21273   4.374   7.096   7.684 -0.6095 -0.5899  0.5529
  162MOL0     C21274   4.286   7.014   7.584 -0.1864  0.8402 -0.8970
  162MOL0     C21275   4.151   6.977   7.663 -0.0700  0.4521  0.5871
  162MOL0     O21276   4.056   7.085   7.630  1.0313 -0.0011 -0.0024
  162MOL0     C21277   3.919   7.067   7.629  0.0157 -0.7433 -0.1885
  162MOL0     C21278   3.837   7.167   7.581  0.3288  0.6575 -0.7612
  162MOL0     C21279   3.693   7.168   7.597  0.0798 -0.2386  0.5736
  162MOL0     C21280   3.630   7.049   7.643 -0.2101 -1.0556  0.4969
  162MOL0     C21281   3.479   7.039   7.644  0.1629  0.4910 -0.4082
  162MOL0     O21282   3.424   6.913   7.646 -0.3673  0.3781 -0.3522
  162MOL0     C21283   3.293   6.914   7.667  0.2754 -0.2268  0.0512
  162MOL0     C21284   3.205   6.970   7.576  0.0504 -0.6089  0.6538
  162MOL0     C21285   3.065   6.961   7.597 -0.7431  0.9971  1.1402
  162MOL0     C21286   3.021   6.903   7.710 -0.3893 -0.6713 -1.0368
  162MOL0     O21287   2.890   6.923   7.743 -0.5505  0.4776  0.2761
  162MOL0     C21288   2.779   6.918   7.637 -0.4615 -0.7353 -0.6118
  162MOL0     C21289   2.641   6.887   7.693  0.0257 -0.3285 -1.3381
  162MOL0     C21290   2.540   6.865   7.574 -0.0815  0.3421  0.6256
  162MOL0     C21291   2.512   7.002   7.509 -0.2397  0.1988 -0.3038
  162MOL0     C21292   2.368   7.033   7.535 -0.2187 -0.6263 -0.0540
  162MOL0     C21293   2.346   7.178   7.477 -0.9249  0.1709  0.4496
  162MOL0     C21294   2.203   7.226   7.480 -0.2405 -0.4745  0.5320
  162MOL0     C21295   2.197   7.377   7.437 -0.4366 -0.0869 -1.2854
  162MOL0    Cl21296   2.279   7.404   7.281 -0.4878 -0.0515 -0.2663
  162MOL0     C21297   3.109   6.845   7.804  1.2392 -0.2809 -0.4809
  162MOL0     C21298   3.246   6.861   7.788  0.4624  0.5133 -0.4283
  162MOL0     O21299   3.421   7.145   7.650  0.3895  0.5842  0.5805
  162MOL0     C21300   3.718   6.940   7.677  0.1399 -0.0596  0.3722
  162MOL0     C21301   3.858   6.953   7.668  0.4248 -0.1237 -0.5726
  162MOL0     N21302   4.599   6.979   7.466  0.0115 -0.2771 -0.1268
  162MOL0     N21303   4.705   6.898   7.469  1.0416 -0.3066  0.2009
  162MOL0     C21304   5.822   6.622   7.803 -0.8176 -0.0677  0.7718
  162MOL0     C21305   5.950   6.663   7.773  0.3438  0.0613  0.3185
  162MOL0     C21306   6.273   6.999   7.686  0.2895  0.4440  0.9062
  162MOL0     C21307   6.387   6.922   7.682  0.1223  0.0052 -1.0674
  162MOL0     C21308   6.512   6.965   7.635  0.3263  0.2393 -0.4108
  162MOL0     C21309   6.523   7.088   7.589 -0.1822  0.0033 -0.4959
  162MOL0     O21310   6.653   7.111   7.539 -0.3301 -0.0328  0.0875
  162MOL0     C21311   6.710   7.237   7.583 -1.1047  0.0604 -1.2486
  162MOL0     C21312   6.855   7.214   7.628 -0.4354 -0.1901  0.3173
  162MOL0     C21313   6.938   7.152   7.508  0.0671 -0.2444 -0.4214
  162MOL0     C21314   7.086   7.181   7.520 -1.2080 -0.3749 -0.5792
  162MOL0     C21315   7.119   7.322   7.522  0.1144 -0.0222 -0.0428
  162MOL0     C21316   7.171   7.433   7.495  0.7721  0.3780 -0.4034
  162MOL0     C21317   6.417   7.176   7.592  0.6458  0.2785 -0.8064
  162MOL0     C21318   6.289   7.134   7.634 -0.0495 -0.7650  0.3007
  162MOL0     H21319   5.968   6.953   7.942  0.8737 -0.2522  0.7052
  162MOL0     H21320   5.749   6.880   8.016  2.4686  0.1913  1.1215
  162MOL0     H21321   5.504   6.838   7.934  1.2673  0.8003  1.1674
  162MOL0     H21322   5.533   6.740   8.073  1.7401 -1.5039 -1.0015
  162MOL0     H21323   5.350   6.588   7.994 -0.5170  2.3654  2.8039
  162MOL0     H21324   5.367   6.651   7.832 -0.1717 -0.1111 -1.0434
  162MOL0     H21325   5.270   6.870   7.917 -1.5774 -1.2496 -2.7358
  162MOL0     H21326   5.245   6.797   8.076  1.2259 -3.3202  1.2971
  162MOL0     H21327   5.083   6.653   8.003 -0.5356  0.3717 -0.0076
  162MOL0     H21328   5.038   6.814   7.951 -1.9674 -0.3691  1.2982
  162MOL0     H21329   5.163   6.583   7.788  0.9064  0.1694  2.4811
  162MOL0     H21330   5.146   6.752   7.725  1.9474  0.1755  1.6153
  162MOL0     H21331   4.921   6.564   7.821 -3.2786  0.1912 -0.3159
  162MOL0     H21332   4.961   6.575   7.650  0.6831 -0.0283  0.3540
  162MOL0     H21333   4.758   6.696   7.721  0.0735  0.5428 -2.5025
  162MOL0     H21334   4.853   6.783   7.840 -2.6338  0.0246  0.5314
  162MOL0     H21335   4.939   6.783   7.538 -0.9532  0.1083 -1.2783
  162MOL0     H21336   4.969   6.902   7.669  1.8763 -0.8747 -1.0043
  162MOL0     H21337   4.764   7.055   7.741  1.0032  2.2242 -1.8938
  162MOL0     H21338   4.477   7.212   7.531  1.1372  1.5919  1.1828
  162MOL0     H21339   4.550   7.220   7.693  0.9504 -0.8388  0.8007
  162MOL0     H21340   4.318   7.185   7.714  0.4334 -0.4237  2.1194
  162MOL0     H21341   4.393   7.047   7.780  3.9430 -0.9466 -0.3346
  162MOL0     H21342   4.269   7.066   7.489  0.3554 -0.3064 -1.6371
  162MOL0     H21343   4.335   6.918   7.565 -1.4067  0.1421 -0.5481
  162MOL0     H21344   4.172   6.964   7.770 -1.2204  0.4814  0.8246
  162MOL0     H21345   4.119   6.876   7.636  0.5015  0.6788 -1.0795
  162MOL0     H21346   3.889   7.260   7.563  2.4905 -0.4564 -0.6013
  162MOL0     H21347   3.631   7.256   7.579 -0.5982 -0.9445 -0.6715
  162MOL0     H21348   3.258   7.018   7.494  2.4202 -1.5448  1.5480
  162MOL0     H21349   3.000   7.005   7.523  0.1725  0.9017  0.2629
  162MOL0     H21350   2.802   6.836   7.568 -0.7814  1.9545 -4.2239
  162MOL0     H21351   2.775   7.016   7.588  2.6995 -0.3918 -0.4178
  162MOL0     H21352   2.610   6.972   7.755 -0.2754 -0.1854 -1.6862
  162MOL0     H21353   2.638   6.794   7.750 -1.8937  0.7975  0.5457
  162MOL0     H21354   2.449   6.817   7.612 -0.9063  1.0751 -0.3614
  162MOL0     H21355   2.579   6.802   7.494 -0.7086 -0.0408  0.6132
  162MOL0     H21356   2.583   7.074   7.550  0.5838  0.2989 -1.8211
  162MOL0     H21357   2.543   7.007   7.404  1.2100 -2.0140 -0.0562
  162MOL0     H21358   2.334   7.028   7.638  0.4406  0.1947  0.2153
  162MOL0     H21359   2.297   6.966   7.486 -2.9101  0.1704  2.4849
  162MOL0     H21360   2.379   7.179   7.373 -1.5494  0.2029  0.2460
  162MOL0     H21361   2.405   7.244   7.541  1.7334 -1.3743 -0.2507
  162MOL0     H21362   2.151   7.158   7.412  0.5882  0.4204 -1.0601
  162MOL0     H21363   2.160   7.226   7.581  1.8073 -3.9125  1.5591
  162MOL0     H21364   2.257   7.436   7.507 -1.3840  0.7884 -1.1840
  162MOL0     H21365   2.095   7.416   7.442  0.4901  2.3670  2.2956
  162MOL0     H21366   3.067   6.815   7.899 -0.6615 -0.0188 -1.2005
  162MOL0     H21367   3.311   6.801   7.850 -0.4493  0.0557  0.1154
  162MOL0     H21368   3.681   6.838   7.681 -0.4760  0.1233 -0.4035
  162MOL0     H21369   3.913   6.866   7.700 -1.6256 -1.7458 -1.2586
  162MOL0     H21370   5.783   6.532   7.755  2.8893 -2.3398  1.6446
  162MOL0     H21371   6.006   6.603   7.703  3.2135  0.3916  2.1935
  162MOL0     H21372   6.369   6.821   7.714 -1.3887  0.7219  0.4950
  162MOL0     H21373   6.593   6.893   7.634 -0.3626 -0.5647 -1.4316
  162MOL0     H21374   6.650   7.285   7.661  2.4447  2.4814  0.2325
  162MOL0     H21375   6.723   7.315   7.507  1.4730  1.4843  0.5281
  162MOL0     H21376   6.907   7.308   7.652  2.2890 -1.9375  1.7975
  162MOL0     H21377   6.869   7.145   7.712  0.4690 -0.4036  0.0007
  162MOL0     H21378   6.898   7.187   7.412 -2.7635  1.8044  1.3274
  162MOL0     H21379   6.917   7.045   7.511 -3.0333  0.2620 -0.2085
  162MOL0     H21380   7.121   7.146   7.618  1.1343  3.1204  0.0316
  162MOL0     H21381   7.142   7.116   7.452 -2.7432  0.6721 -2.9731
  162MOL0     H21382   7.224   7.527   7.490  3.0387 -0.7484  0.7313
  162MOL0     H21383   6.420   7.274   7.547  0.5547  0.7410  0.1805
  162MOL0     H21384   6.203   7.200   7.629  1.8164  1.7520 -0.6597
  163MOL0     O21385   5.930   0.531   0.520  0.8191  0.4132  0.1401
  163MOL0     C21386   5.895   0.421   0.560 -0.0404  0.5372  0.2504
  163MOL0     O21387   5.824   0.323   0.487  0.3030 -0.2513 -0.8979
  163MOL0     C21388   5.762   0.347   0.368  0.7425 -0.3528 -0.4336
  163MOL0     C21389   5.727   0.235   0.285  1.3440  0.7095  0.5501
  163MOL0     C21390   5.670   0.238   0.166  0.9334 -0.5512  0.4013
  163MOL0     C21391   5.640   0.369   0.112  0.0624 -0.2805  0.0656
  163MOL0     O21392   5.570   0.378  -0.003  0.4115  0.4147  0.3556
  163MOL0     C21393   5.630   0.296  -0.106  0.3474  0.5846 -0.5190
  163MOL0     C21394   5.547   0.324  -0.226  0.4529 -0.5149 -0.6978
  163MOL0     C21395   5.585   0.240  -0.343 -0.1268  0.4449 -0.3838
  163MOL0     C21396   5.513   0.104  -0.321 -0.7644 -0.1342  0.2847
  163MOL0     C21397   5.415   0.086  -0.453 -0.2585 -0.1635  0.2707
  163MOL0     C21398   5.314  -0.031  -0.420 -0.2360 -0.1902  0.6649
  163MOL0     C21399   5.243  -0.065  -0.551 -0.5554  0.6315 -0.1633
  163MOL0     C21400   5.091  -0.021  -0.560  0.8720  0.4800  0.3692
  163MOL0     N21401   5.057   0.009  -0.696  0.6453 -1.0102  0.5460
  163MOL0     C21402   5.099   0.128  -0.746  0.6249  0.1945 -0.3252
  163MOL0     C21403   5.087   0.113  -0.883 -0.6174  0.9192 -0.4753
  163MOL0     C21404   5.124   0.224  -0.972  1.1221  0.3121 -0.0417
  163MOL0     C21405   5.266   0.272  -0.947 -1.0099  0.0221  0.4065
  163MOL0     C21406   5.292   0.413  -0.990  0.8106 -0.7491  0.8814
  163MOL0     C21407   5.434   0.458  -0.943 -0.0459  1.2229 -0.2971
  163MOL0     O21408   5.435   0.484  -0.800 -0.0594 -0.2949 -0.1958
  163MOL0     C21409   5.557   0.505  -0.743 -0.1008  0.3268  0.0566
  163MOL0     C21410   5.673   0.523  -0.811 -0.8652  0.0901 -0.0378
  163MOL0     C21411   5.795   0.542  -0.751 -0.3737  0.7380 -0.2124
  163MOL0     C21412   5.796   0.533  -0.609 -0.0424 -0.3445 -0.2693
  163MOL0     C21413   5.915   0.542  -0.528  0.1931 -1.0942  0.3281
  163MOL0     O21414   6.024   0.599  -0.591 -0.2423  0.2509  0.4756
  163MOL0     C21415   6.132   0.613  -0.511  0.4072  0.2382 -0.8663
  163MOL0     C21416   6.178   0.741  -0.487  0.1289  0.1465  0.6987
  163MOL0     C21417   6.300   0.768  -0.418 -0.3372  0.0651  0.6272
  163MOL0     C21418   6.372   0.656  -0.371  0.9673  0.2766 -0.1436
  163MOL0     O21419   6.479   0.692  -0.300 -0.5968 -0.4700  0.2200
  163MOL0     C21420   6.576   0.588  -0.271  0.7198  0.5234 -0.0950
  163MOL0     C21421   6.701   0.664  -0.226  0.2516  0.0251  0.2678
  163MOL0     C21422   6.744   0.771  -0.331 -0.1032  0.5924  0.4349
  163MOL0     C21423   6.892   0.804  -0.297  0.5632 -0.7666  0.5516
  163MOL0     C21424   6.950   0.914  -0.377 -0.8533 -0.2399 -0.3468
  163MOL0     C21425   7.089   0.918  -0.321  0.1652  0.6224  0.1920
  163MOL0     C21426   7.184   1.022  -0.392 -0.1587 -0.5898 -1.1310
  163MOL0     C21427   7.336   1.025  -0.342  0.0540 -0.8208 -0.5142
  163MOL0    Cl21428   7.338   1.069  -0.166  0.2246 -0.1457 -0.5200
  163MOL0     C21429   6.323   0.529  -0.383 -0.1092  0.8313 -0.4451
  163MOL0     C21430   6.209   0.506  -0.463 -0.1787  0.0347  0.4525
  163MOL0     O21431   5.911   0.500  -0.405  0.4970 -0.4623  0.3087
  163MOL0     C21432   5.674   0.523  -0.541  0.6233 -0.6880  0.6037
  163MOL0     C21433   5.559   0.511  -0.608  0.3079  0.4715 -0.4072
  163MOL0     N21434   5.022  -0.009  -0.907 -0.9027 -0.2705  0.2856
  163MOL0     N21435   5.017  -0.073  -0.796  0.8466  0.0486  0.6627
  163MOL0     C21436   5.657   0.483   0.194 -0.7042  0.2201  0.5432
  163MOL0     C21437   5.722   0.474   0.315  0.6821  0.2191  0.0843
  163MOL0     C21438   5.921   0.385   0.705  0.3208  0.2698  0.6168
  163MOL0     C21439   5.869   0.258   0.757 -0.8980 -0.2019 -0.0605
  163MOL0     C21440   5.876   0.229   0.897 -0.1305 -0.4090  1.2420
  163MOL0     C21441   5.936   0.325   0.983  0.3919  0.5071 -1.3489
  163MOL0     O21442   5.955   0.298   1.112 -0.6037  0.6253 -0.1347
  163MOL0     C21443   5.871   0.197   1.179  0.7806 -0.5535 -0.3556
  163MOL0     C21444   5.917   0.197   1.319 -0.3457 -0.0613 -0.5564
  163MOL0     C21445   6.066   0.153   1.331  1.0312  0.1478  0.2863
  163MOL0     C21446   6.098   0.134   1.480  0.8892 -0.9031 -1.0867
  163MOL0     C21447   6.236   0.086   1.481  0.1611  0.0111 -0.4935
  163MOL0     C21448   6.350   0.049   1.465  0.0671 -0.1079 -0.0966
  163MOL0     C21449   5.980   0.449   0.946 -0.0524 -0.0381 -0.5256
  163MOL0     C21450   5.984   0.473   0.797 -0.1507 -0.0543  0.3680
  163MOL0     H21451   5.756   0.136   0.318  0.2359 -0.4703 -1.7662
  163MOL0     H21452   5.660   0.145   0.111 -1.5074  0.2447 -0.6382
  163MOL0     H21453   5.617   0.188  -0.094 -2.9707  0.7468 -1.6449
  163MOL0     H21454   5.734   0.322  -0.130  1.0003  0.4369  1.8774
  163MOL0     H21455   5.560   0.430  -0.252  3.0851 -0.1634  1.5415
  163MOL0     H21456   5.442   0.311  -0.199  1.0199 -1.8676  1.0969
  163MOL0     H21457   5.692   0.214  -0.343  0.4603  2.5904 -2.1361
  163MOL0     H21458   5.562   0.291  -0.437 -0.7330 -0.1581 -0.5681
  163MOL0     H21459   5.588   0.026  -0.304 -1.7597 -0.4831  3.7529
  163MOL0     H21460   5.451   0.093  -0.231 -2.7925 -0.6197 -1.0885
  163MOL0     H21461   5.480   0.075  -0.541 -2.2634  1.8164 -1.6092
  163MOL0     H21462   5.360   0.178  -0.477  2.7176  2.5268  2.8631
  163MOL0     H21463   5.236  -0.014  -0.345 -1.5788 -0.8663 -0.5334
  163MOL0     H21464   5.376  -0.115  -0.386 -0.4990  0.0470  1.7825
  163MOL0     H21465   5.295  -0.018  -0.635  0.8299 -1.6999 -0.6869
  163MOL0     H21466   5.251  -0.173  -0.565 -1.1681  0.3958  1.1772
  163MOL0     H21467   5.059   0.055  -0.489 -0.6332 -0.5069  0.7859
  163MOL0     H21468   5.026  -0.102  -0.525 -0.7559  1.3338 -0.5930
  163MOL0     H21469   5.134   0.211  -0.686 -2.4838  1.2535  0.2116
  163MOL0     H21470   5.058   0.308  -0.949  1.9760  1.6485 -2.1924
  163MOL0     H21471   5.104   0.199  -1.076  0.3756 -0.4427  0.2698
  163MOL0     H21472   5.333   0.207  -1.004  0.0173 -0.0374  1.6378
  163MOL0     H21473   5.297   0.263  -0.843 -0.1339  1.7437  0.3453
  163MOL0     H21474   5.285   0.426  -1.099  0.1077 -0.1617  0.9909
  163MOL0     H21475   5.218   0.476  -0.940  1.8849  1.5566 -0.2680
  163MOL0     H21476   5.455   0.545  -1.006 -1.7614  0.9736 -1.2947
  163MOL0     H21477   5.507   0.380  -0.964  2.9088  3.7108  0.1450
  163MOL0     H21478   5.662   0.530  -0.919  1.2403 -3.1677 -0.6112
  163MOL0     H21479   5.887   0.562  -0.805  1.2875  2.4054  2.9542
  163MOL0     H21480   6.116   0.816  -0.535 -0.5674 -1.0748 -0.3635
  163MOL0     H21481   6.340   0.866  -0.395  0.7617  0.3092 -1.9073
  163MOL0     H21482   6.601   0.524  -0.355  1.0609 -0.6809  0.9017
  163MOL0     H21483   6.528   0.525  -0.196 -1.3848 -1.4705 -2.9392
  163MOL0     H21484   6.783   0.592  -0.227 -1.2966 -1.8191 -0.5803
  163MOL0     H21485   6.679   0.697  -0.124 -1.8976  2.7005 -0.9187
  163MOL0     H21486   6.689   0.863  -0.308  2.2654  1.6965  2.0175
  163MOL0     H21487   6.727   0.727  -0.430 -2.3165  2.0963  0.0533
  163MOL0     H21488   6.901   0.828  -0.191 -0.4007  1.0250  0.2794
  163MOL0     H21489   6.953   0.714  -0.308  1.1610 -0.2550 -0.5120
  163MOL0     H21490   6.899   1.006  -0.347  0.6928  0.3854  0.4672
  163MOL0     H21491   6.952   0.890  -0.484  0.8587 -1.0654 -0.1576
  163MOL0     H21492   7.124   0.816  -0.340  0.2961  0.5832  0.6192
  163MOL0     H21493   7.084   0.933  -0.213 -1.1929 -0.3342  0.2825
  163MOL0     H21494   7.183   1.005  -0.501 -1.4158  0.9153 -1.3961
  163MOL0     H21495   7.149   1.122  -0.366 -1.1983 -0.2907 -3.3914
  163MOL0     H21496   7.390   1.099  -0.402 -0.0425 -0.8007 -0.5776
  163MOL0     H21497   7.381   0.928  -0.363 -2.2778 -1.8498 -1.1077
  163MOL0     H21498   6.388   0.450  -0.348 -1.1805  0.0537 -0.1611
  163MOL0     H21499   6.174   0.405  -0.482  0.6836 -0.1644 -0.1729
  163MOL0     H21500   5.671   0.534  -0.433  1.5785 -0.1853  0.5972
  163MOL0     H21501   5.464   0.491  -0.560  0.7401 -1.0467 -0.1417
  163MOL0     H21502   5.614   0.577   0.159 -4.5827 -1.7240 -0.5275
  163MOL0     H21503   5.759   0.568   0.355 -2.5641  2.3271 -1.4392
  163MOL0     H21504   5.827   0.185   0.689 -4.1123 -0.2881  1.8311
  163MOL0     H21505   5.842   0.133   0.933 -0.6617  0.4927  3.2985
  163MOL0     H21506   5.877   0.096   1.137 -1.8526 -0.7013 -0.5317
  163MOL0     H21507   5.768   0.227   1.160  1.2679 -0.1445 -2.6741
  163MOL0     H21508   5.903   0.294   1.368  0.5162 -0.4004  0.4132
  163MOL0     H21509   5.856   0.126   1.375 -1.4848  1.2120 -0.1042
  163MOL0     H21510   6.125   0.236   1.291  3.7839 -2.2106 -0.9039
  163MOL0     H21511   6.091   0.068   1.267 -1.2312 -0.4738  0.1470
  163MOL0     H21512   6.096   0.229   1.535 -0.2180 -0.7780 -1.3255
  163MOL0     H21513   6.021   0.063   1.510  0.2968  0.1566  0.0099
  163MOL0     H21514   6.449   0.015   1.440 -0.5241 -1.2368 -1.0226
  163MOL0     H21515   6.006   0.522   1.022 -0.7489 -1.2606  0.9291
  163MOL0     H21516   6.016   0.566   0.753 -0.6208 -0.8185 -1.7235
  164MOL0     O21517   1.916   6.851   1.120 -0.2687  0.4228 -0.5150
  164MOL0     C21518   1.897   6.969   1.089 -0.1171  0.0330 -0.2646
  164MOL0     O21519   1.776   7.020   1.044  1.4075  0.3184  0.5934
  164MOL0     C21520   1.667   6.932   1.023 -0.7192 -0.5867 -0.2428
  164MOL0     C21521   1.612   6.846   1.121  0.4514  0.4414  1.5476
  164MOL0     C21522   1.489   6.776   1.090 -0.0692  0.5359  0.6552
  164MOL0     C21523   1.441   6.770   0.952 -0.1845 -0.7849  0.1042
  164MOL0     O21524   1.327   6.699   0.922  0.1366 -0.2555  0.8127
  164MOL0     C21525   1.217   6.732   1.002 -0.3397  0.6121  0.3167
  164MOL0     C21526   1.161   6.614   1.082  1.2919  0.4177  0.2634
  164MOL0     C21527   1.004   6.592   1.063 -0.9112 -0.4074  0.3970
  164MOL0     C21528   0.933   6.699   1.140  0.2892 -0.5727 -0.3205
  164MOL0     C21529   0.782   6.674   1.134 -0.4906 -0.1214  0.0854
  164MOL0     C21530   0.697   6.758   1.224 -0.5443  0.2069 -0.2861
  164MOL0     C21531   0.554   6.719   1.209  0.8495 -0.4204 -0.6791
  164MOL0     C21532   0.491   6.615   1.308 -1.0970  0.3142  0.2904
  164MOL0     N21533   0.354   6.578   1.285  0.5238  0.9302 -0.3952
  164MOL0     C21534   0.322   6.450   1.243  1.0638 -0.1482 -0.0120
  164MOL0     C21535   0.189   6.444   1.258  0.5897 -0.4668  0.1883
  164MOL0     C21536   0.097   6.323   1.255 -0.4846  0.3190  0.1469
  164MOL0     C21537   0.027   6.313   1.116 -0.3633  0.0284 -0.3625
  164MOL0     C21538  -0.052   6.439   1.080 -0.3734  0.1138  0.3619
  164MOL0     C21539  -0.092   6.447   0.930  0.4953  0.2766  0.0763
  164MOL0     O21540  -0.116   6.580   0.899 -0.0945 -0.4056 -0.3439
  164MOL0     C21541  -0.240   6.615   0.854  0.2858  0.2463 -0.0286
  164MOL0     C21542  -0.353   6.583   0.921  0.1150  0.1630 -0.2511
  164MOL0     C21543  -0.484   6.608   0.878 -0.2350 -0.0067 -0.3326
  164MOL0     C21544  -0.499   6.681   0.755 -0.1138 -1.1824 -0.3691
  164MOL0     C21545  -0.631   6.737   0.712 -0.9140  0.3674 -0.3530
  164MOL0     O21546  -0.739   6.698   0.782  0.2798 -0.0661  0.2365
  164MOL0     C21547  -0.858   6.743   0.726  0.5697 -0.2586 -0.3579
  164MOL0     C21548  -0.891   6.881   0.720  0.0773 -0.5625  0.0675
  164MOL0     C21549  -1.005   6.930   0.650  0.0695 -0.3260 -0.6784
  164MOL0     C21550  -1.104   6.836   0.612  0.4468 -0.5504  0.2804
  164MOL0     O21551  -1.226   6.890   0.568 -0.5487  0.6384  0.3589
  164MOL0     C21552  -1.313   6.799   0.487 -0.5046  0.0045 -0.3507
  164MOL0     C21553  -1.426   6.889   0.435  0.1166 -0.3904  0.2748
  164MOL0     C21554  -1.494   6.828   0.320  0.3936  0.6311  0.6535
  164MOL0     C21555  -1.604   6.725   0.369 -0.2665 -0.1860 -0.6692
  164MOL0     C21556  -1.621   6.627   0.251 -0.0021 -0.7223 -0.1229
  164MOL0     C21557  -1.705   6.510   0.306 -1.1297  0.6127  0.0819
  164MOL0     C21558  -1.621   6.404   0.381  0.1482 -0.4126 -0.7168
  164MOL0     C21559  -1.703   6.338   0.481  0.3130  0.3793  0.0229
  164MOL0    Cl21560  -1.836   6.258   0.409  0.6647  0.2241  0.4144
  164MOL0     C21561  -1.069   6.697   0.617 -0.5010 -0.8218  0.7028
  164MOL0     C21562  -0.952   6.657   0.680 -0.2887 -0.5631 -0.4023
  164MOL0     O21563  -0.623   6.833   0.629 -0.6836  0.3663  0.5713
  164MOL0     C21564  -0.378   6.723   0.680 -0.1040  0.5665  0.8231
  164MOL0     C21565  -0.251   6.677   0.734 -0.0452 -0.3228  0.2802
  164MOL0     N21566   0.146   6.572   1.291 -0.8067 -0.5277 -0.3327
  164MOL0     N21567   0.243   6.656   1.302 -0.1047 -0.0583 -0.4139
  164MOL0     C21568   1.503   6.843   0.855 -0.6062 -0.9857  0.2691
  164MOL0     C21569   1.603   6.939   0.894  0.1108  0.6720 -0.2573
  164MOL0     C21570   2.012   7.061   1.094 -0.6359  0.2187  0.4255
  164MOL0     C21571   2.140   7.018   1.071 -0.2915  0.1083 -1.1855
  164MOL0     C21572   2.239   7.122   1.069 -0.8621  0.3388 -0.4529
  164MOL0     C21573   2.206   7.258   1.089  0.2451 -0.3317  0.2327
  164MOL0     O21574   2.292   7.365   1.077 -0.0630 -0.1359 -0.8600
  164MOL0     C21575   2.440   7.355   1.057 -0.9134  0.0662  0.3404
  164MOL0     C21576   2.509   7.488   1.094 -0.1854 -0.3348  0.6280
  164MOL0     C21577   2.668   7.489   1.073 -0.6422 -0.6306 -0.4088
  164MOL0     C21578   2.739   7.552   1.188 -0.3241  0.2801 -0.2169
  164MOL0     C21579   2.881   7.514   1.192  0.3576 -0.4994  0.3867
  164MOL0     C21580   2.998   7.474   1.183  0.5693  0.5309  0.7981
  164MOL0     C21581   2.074   7.291   1.115  0.2878  0.5733  0.0027
  164MOL0     C21582   1.979   7.190   1.114  0.3160 -0.8113 -0.5948
  164MOL0     H21583   1.645   6.843   1.224 -1.7004 -1.3292  2.2616
  164MOL0     H21584   1.457   6.707   1.167 -1.4376  0.6015  0.1708
  164MOL0     H21585   1.145   6.761   0.924 -2.3492 -0.8832  1.5288
  164MOL0     H21586   1.239   6.815   1.069  0.5774 -0.8022  1.8366
  164MOL0     H21587   1.180   6.633   1.187 -2.5035 -2.4802  1.7409
  164MOL0     H21588   1.201   6.519   1.046  0.2859  0.1409 -0.1906
  164MOL0     H21589   0.979   6.489   1.087 -0.7493 -1.1310 -2.1916
  164MOL0     H21590   0.981   6.605   0.957  3.1722  2.6970 -0.3735
  164MOL0     H21591   0.964   6.711   1.244 -2.8058  2.4387  0.4338
  164MOL0     H21592   0.947   6.798   1.095  1.5089 -1.1535 -1.2692
  164MOL0     H21593   0.759   6.570   1.162 -2.5531  0.9432  2.8510
  164MOL0     H21594   0.761   6.703   1.031  3.2945 -0.0301 -0.8295
  164MOL0     H21595   0.711   6.860   1.185  1.3185 -0.2548 -0.9305
  164MOL0     H21596   0.734   6.748   1.326  0.4847  0.7884 -0.5880
  164MOL0     H21597   0.503   6.812   1.235  1.2067 -0.3452 -0.2334
  164MOL0     H21598   0.523   6.699   1.106  0.1207  0.4050 -0.6337
  164MOL0     H21599   0.490   6.653   1.411  1.1306 -0.2167  0.5610
  164MOL0     H21600   0.550   6.523   1.307  0.2048  1.0527 -3.0319
  164MOL0     H21601   0.385   6.363   1.231  1.5424  0.3372 -1.1467
  164MOL0     H21602   0.019   6.344   1.329 -2.9339  1.2457 -2.5309
  164MOL0     H21603   0.161   6.238   1.280  0.8595  1.6392  1.4199
  164MOL0     H21604  -0.041   6.227   1.114 -0.8234  0.3752 -0.0590
  164MOL0     H21605   0.108   6.307   1.043  0.1409  1.0338  0.0954
  164MOL0     H21606  -0.137   6.451   1.148  1.8132  1.0423  3.1078
  164MOL0     H21607   0.011   6.526   1.102  0.4642 -0.3732 -0.0677
  164MOL0     H21608  -0.172   6.378   0.902 -0.3003  2.0408 -2.3371
  164MOL0     H21609  -0.005   6.419   0.870  0.6587  0.3632  0.2698
  164MOL0     H21610  -0.348   6.529   1.014 -0.8255 -0.5168 -0.5838
  164MOL0     H21611  -0.572   6.578   0.935  0.3591 -1.0066  0.0920
  164MOL0     H21612  -0.816   6.952   0.753  0.1260  0.9783 -2.9645
  164MOL0     H21613  -1.028   7.036   0.646 -1.0382 -0.5189  0.0275
  164MOL0     H21614  -1.353   6.716   0.545 -0.7733  1.4126  1.6069
  164MOL0     H21615  -1.256   6.754   0.405 -0.1933 -3.4325  1.5782
  164MOL0     H21616  -1.371   6.974   0.394  0.7020 -0.8360  0.1226
  164MOL0     H21617  -1.486   6.914   0.524  1.2184 -4.1239  2.2850
  164MOL0     H21618  -1.415   6.777   0.263 -0.6218 -0.4451  0.1604
  164MOL0     H21619  -1.525   6.910   0.255  1.1600  1.7435  1.6696
  164MOL0     H21620  -1.574   6.665   0.455 -1.9855  3.1170  2.5130
  164MOL0     H21621  -1.696   6.783   0.387 -0.0619 -0.5049  1.6983
  164MOL0     H21622  -1.524   6.593   0.215 -0.5441  0.2518 -2.6657
  164MOL0     H21623  -1.684   6.674   0.175 -1.9066 -1.4817  0.9310
  164MOL0     H21624  -1.753   6.458   0.222 -0.0492  1.4181 -1.0711
  164MOL0     H21625  -1.787   6.557   0.360 -3.8740  2.0587 -4.7326
  164MOL0     H21626  -1.602   6.330   0.303 -0.2358  1.3833 -2.6297
  164MOL0     H21627  -1.523   6.434   0.420 -1.3641  0.1701  3.1278
  164MOL0     H21628  -1.722   6.410   0.561 -0.7350  1.0023 -0.7593
  164MOL0     H21629  -1.648   6.262   0.536 -0.7956 -0.5208 -0.0814
  164MOL0     H21630  -1.133   6.617   0.582  0.8623 -0.7616 -2.1869
  164MOL0     H21631  -0.939   6.550   0.695  0.1118 -0.4039  0.4235
  164MOL0     H21632  -0.373   6.792   0.596  1.2161 -0.3941  0.0832
  164MOL0     H21633  -0.166   6.716   0.680 -2.0407  3.8574 -0.2402
  164MOL0     H21634   1.469   6.847   0.751 -2.0082  3.9044  0.6786
  164MOL0     H21635   1.619   7.013   0.817  0.2064 -0.9182 -1.8370
  164MOL0     H21636   2.143   6.910   1.076 -4.3442 -0.2421  5.8007
  164MOL0     H21637   2.343   7.098   1.050 -0.3390  1.4180  0.8345
  164MOL0     H21638   2.471   7.332   0.955 -1.5773 -1.4759  0.4665
  164MOL0     H21639   2.477   7.283   1.131 -2.1879 -0.0795  0.8597
  164MOL0     H21640   2.474   7.561   1.019  0.6984 -2.1421 -1.6787
  164MOL0     H21641   2.474   7.525   1.191 -5.3819  0.4327 -1.2039
  164MOL0     H21642   2.703   7.556   0.994  0.1786  0.5198  0.8786
  164MOL0     H21643   2.705   7.387   1.064  1.3074 -0.2522  2.3413
  164MOL0     H21644   2.713   7.659   1.192  0.6018  0.4955  0.2014
  164MOL0     H21645   2.696   7.505   1.277  1.1697  0.6143  0.7097
  164MOL0     H21646   3.095   7.444   1.151  0.1784 -2.2673  1.9203
  164MOL0     H21647   2.044   7.392   1.144 -0.4116  0.4961 -0.4309
  164MOL0     H21648   1.875   7.219   1.124  0.0226 -0.2421 -4.0072
  165MOL0     O21649   7.195   8.018   9.007 -0.0198  0.3755  0.0537
  165MOL0     C21650   7.205   8.076   8.895 -0.1994  0.2470  0.2402
  165MOL0     O21651   7.320   8.114   8.842  0.6640  0.0542 -0.5689
  165MOL0     C21652   7.432   8.146   8.912 -0.4533 -0.2225  0.1975
  165MOL0     C21653   7.543   8.164   8.833 -0.7419  0.4715 -0.0868
  165MOL0     C21654   7.660   8.198   8.887 -0.4757  0.2673 -0.3087
  165MOL0     C21655   7.671   8.222   9.018  0.2519 -0.2365 -0.6184
  165MOL0     O21656   7.782   8.255   9.088 -0.8503 -0.3232 -0.1839
  165MOL0     C21657   7.911   8.247   9.022 -0.0631  0.6545 -0.7899
  165MOL0     C21658   8.018   8.223   9.129 -0.9863 -1.1624 -0.3009
  165MOL0     C21659   8.036   8.327   9.231 -0.2436 -0.1368 -0.5118
  165MOL0     C21660   8.159   8.305   9.328  0.7330 -0.8225 -0.1235
  165MOL0     C21661   8.180   8.415   9.432 -0.3126  0.4124  0.7965
  165MOL0     C21662   8.308   8.400   9.510  0.4952 -0.0250  0.6725
  165MOL0     C21663   8.341   8.524   9.602 -0.0931 -0.0838  0.4404
  165MOL0     C21664   8.486   8.511   9.655  0.2170 -0.5536  0.2002
  165MOL0     N21665   8.505   8.402   9.746  0.0280  0.5559 -0.6153
  165MOL0     C21666   8.457   8.401   9.876 -0.3371 -0.1508 -0.0542
  165MOL0     C21667   8.476   8.273   9.929 -0.5248  0.4204 -0.4658
  165MOL0     C21668   8.422   8.214  10.057  0.1170 -0.5574  0.5407
  165MOL0     C21669   8.305   8.108  10.045 -0.3759  0.0807 -0.8729
  165MOL0     C21670   8.199   8.153   9.939  0.3227  0.2229 -0.4054
  165MOL0     C21671   8.143   8.291   9.973  0.1622  0.4355  1.1137
  165MOL0     O21672   8.082   8.291  10.103 -0.0175 -0.4569 -0.7491
  165MOL0     C21673   8.037   8.408  10.166  0.2279  0.0102 -0.0366
  165MOL0     C21674   8.098   8.530  10.145 -1.1532  0.2141 -0.9011
  165MOL0     C21675   8.069   8.640  10.216 -0.3941 -0.3380  0.6652
  165MOL0     C21676   7.966   8.655  10.309  0.3245 -0.5698  0.6880
  165MOL0     C21677   7.930   8.775  10.375 -0.3083 -0.3038  0.2583
  165MOL0     O21678   7.809   8.780  10.435 -0.2842  0.3660  0.4750
  165MOL0     C21679   7.755   8.889  10.489  0.1586  0.4459 -0.1297
  165MOL0     C21680   7.761   9.023  10.451 -0.0029  0.1594 -0.4691
  165MOL0     C21681   7.694   9.127  10.525 -0.9485 -0.1790 -0.2924
  165MOL0     C21682   7.616   9.091  10.644 -0.1918  0.3584  0.4520
  165MOL0     O21683   7.556   9.179  10.731  0.8840  0.4109  0.0110
  165MOL0     C21684   7.577   9.320  10.711  0.0102  0.4361 -0.3621
  165MOL0     C21685   7.497   9.408  10.815 -0.4173  0.6117 -0.2462
  165MOL0     C21686   7.365   9.468  10.766  0.5232  0.4275  0.5562
  165MOL0     C21687   7.375   9.561  10.652 -0.0272  0.1530  0.0364
  165MOL0     C21688   7.275   9.672  10.652 -1.3878  1.1648 -0.2584
  165MOL0     C21689   7.126   9.647  10.678  1.0651 -0.9358  0.5158
  165MOL0     C21690   7.053   9.548  10.574  0.6395  0.1141  0.7409
  165MOL0     C21691   6.915   9.513  10.596 -0.7093  0.2066  0.0179
  165MOL0    Cl21692   6.808   9.628  10.537  0.0518  0.1236 -0.1477
  165MOL0     C21693   7.610   8.960  10.676  0.4079 -0.5255  0.2023
  165MOL0     C21694   7.664   8.856  10.594 -0.7440 -1.0279 -0.3006
  165MOL0     O21695   8.011   8.871  10.360  0.1861  0.1851  0.5888
  165MOL0     C21696   7.903   8.528  10.331 -0.3868 -0.3584  0.1753
  165MOL0     C21697   7.936   8.404  10.263  0.4762  0.2830  0.2210
  165MOL0     N21698   8.540   8.203   9.834  0.7715 -0.4618 -0.1266
  165MOL0     N21699   8.558   8.278   9.728  0.3944  0.1937  0.0575
  165MOL0     C21700   7.565   8.227   9.105 -0.3294 -0.1358  0.1543
  165MOL0     C21701   7.440   8.184   9.047 -0.1262 -0.2456 -0.9543
  165MOL0     C21702   7.087   8.061   8.809 -0.6968  0.3366  0.6420
  165MOL0     C21703   6.961   8.024   8.860 -0.3061 -0.5936 -0.6363
  165MOL0     C21704   6.851   8.032   8.784  0.2924  0.1296 -0.2763
  165MOL0     C21705   6.853   8.060   8.651 -1.3079  0.4223  0.9393
  165MOL0     O21706   6.742   8.050   8.584  0.1872 -0.0719  0.3176
  165MOL0     C21707   6.729   8.109   8.454  0.9003 -0.4611 -0.3643
  165MOL0     C21708   6.581   8.129   8.428 -0.4970  0.1414 -0.8804
  165MOL0     C21709   6.558   8.217   8.303 -0.4908 -0.2982 -0.6777
  165MOL0     C21710   6.410   8.256   8.281 -0.4444 -0.7395 -0.3256
  165MOL0     C21711   6.339   8.132   8.234 -0.4624  0.2925  0.9639
  165MOL0     C21712   6.278   8.037   8.196 -0.2362 -0.0917  1.5300
  165MOL0     C21713   6.978   8.087   8.586 -0.2755  0.2150 -0.3148
  165MOL0     C21714   7.090   8.089   8.667 -0.1201 -0.9279  0.6593
  165MOL0     H21715   7.529   8.151   8.727 -3.7842 -2.5399  0.5114
  165MOL0     H21716   7.746   8.197   8.820  0.9700 -2.5137  1.3723
  165MOL0     H21717   7.923   8.343   8.971 -1.0852 -0.8010 -3.9997
  165MOL0     H21718   7.916   8.168   8.947 -0.5565 -0.5118  0.3629
  165MOL0     H21719   8.117   8.206   9.086 -1.6302 -5.4100 -0.6149
  165MOL0     H21720   7.990   8.132   9.185 -2.7762 -2.6295 -3.2894
  165MOL0     H21721   7.945   8.350   9.289  0.1058  2.3419 -0.8160
  165MOL0     H21722   8.049   8.425   9.184  2.1215 -0.6510 -1.0082
  165MOL0     H21723   8.139   8.214   9.384 -0.6567 -0.1706  0.4847
  165MOL0     H21724   8.242   8.278   9.262  1.0382 -2.5274  0.9199
  165MOL0     H21725   8.092   8.417   9.498 -0.2264  0.3867  0.9135
  165MOL0     H21726   8.176   8.506   9.372 -1.7207  0.6693  1.2389
  165MOL0     H21727   8.381   8.373   9.433  0.1081  1.5175 -0.2941
  165MOL0     H21728   8.289   8.316   9.578 -1.6248  0.0607  0.2734
  165MOL0     H21729   8.342   8.609   9.534  0.0793  1.4063  2.2408
  165MOL0     H21730   8.273   8.535   9.687  0.0918  1.3586  0.4248
  165MOL0     H21731   8.519   8.600   9.709  0.0155  0.0408 -0.6273
  165MOL0     H21732   8.559   8.504   9.574  0.1088  0.7830 -0.0280
  165MOL0     H21733   8.418   8.480   9.940 -1.6847 -1.2281  0.5017
  165MOL0     H21734   8.393   8.296  10.124  0.6153  1.4056 -1.5493
  165MOL0     H21735   8.510   8.162  10.095 -0.6898 -1.5344  1.1614
  165MOL0     H21736   8.257   8.107  10.144  1.3593  0.8824  0.0249
  165MOL0     H21737   8.340   8.006  10.026 -1.3561 -0.5315  0.4053
  165MOL0     H21738   8.246   8.152   9.840  1.5151 -2.4974  0.0922
  165MOL0     H21739   8.115   8.083   9.944  0.8145 -0.2807  2.0847
  165MOL0     H21740   8.070   8.321   9.897 -0.5535 -1.6047  0.9254
  165MOL0     H21741   8.229   8.356   9.954  0.7585 -0.7801 -0.6679
  165MOL0     H21742   8.184   8.540  10.079 -1.6567  4.6968 -1.1812
  165MOL0     H21743   8.127   8.727  10.188 -1.5683  0.5107  0.7802
  165MOL0     H21744   7.811   9.049  10.358  0.6646 -4.5362 -1.6441
  165MOL0     H21745   7.712   9.222  10.476  1.9415 -1.8585 -2.9473
  165MOL0     H21746   7.536   9.349  10.614 -0.0714 -1.4512 -0.9310
  165MOL0     H21747   7.679   9.360  10.710 -0.3901  1.6599  1.6947
  165MOL0     H21748   7.568   9.482  10.853 -1.3388  0.4229  2.0238
  165MOL0     H21749   7.474   9.337  10.896  0.5654  0.1188 -0.3855
  165MOL0     H21750   7.330   9.529  10.850 -1.2849  0.3223 -0.0837
  165MOL0     H21751   7.283   9.397  10.751 -1.2907  2.7222 -1.0476
  165MOL0     H21752   7.476   9.602  10.653  1.3486 -2.9884  1.6156
  165MOL0     H21753   7.371   9.506  10.557  3.0845  1.3029 -0.8795
  165MOL0     H21754   7.281   9.702  10.547 -1.4121 -1.8225 -1.1851
  165MOL0     H21755   7.312   9.760  10.706  0.1548 -0.1218  0.8838
  165MOL0     H21756   7.063   9.736  10.682  1.3845 -0.6255 -0.8322
  165MOL0     H21757   7.113   9.588  10.769 -2.8789 -0.8167  0.1951
  165MOL0     H21758   7.064   9.587  10.472  0.9240  0.6875  0.9897
  165MOL0     H21759   7.097   9.449  10.563  0.8696  0.3532 -0.5983
  165MOL0     H21760   6.901   9.498  10.704 -0.5650  0.8683  0.1312
  165MOL0     H21761   6.899   9.415  10.551  1.7651 -0.2620  0.0175
  165MOL0     H21762   7.544   8.922  10.754 -1.7342  1.7411 -0.3864
  165MOL0     H21763   7.665   8.749  10.615  1.2978 -0.9930 -0.0876
  165MOL0     H21764   7.829   8.504  10.407 -1.1638 -1.5166 -0.8962
  165MOL0     H21765   7.884   8.312  10.286  1.5541 -0.8316 -1.5003
  165MOL0     H21766   7.562   8.267   9.206 -0.7611  3.0963 -1.0066
  165MOL0     H21767   7.346   8.184   9.102 -3.5089 -3.2851 -5.9086
  165MOL0     H21768   6.949   8.004   8.965  0.7728 -0.6368 -0.5042
  165MOL0     H21769   6.756   8.007   8.832  0.0638 -2.8156 -1.9696
  165MOL0     H21770   6.763   8.049   8.369  1.1064 -1.2649  0.2715
  165MOL0     H21771   6.784   8.203   8.448 -1.0607  0.7613 -0.0080
  165MOL0     H21772   6.520   8.038   8.422 -3.4965  2.0762 -1.6628
  165MOL0     H21773   6.540   8.182   8.514  0.4633 -1.6075  0.7413
  165MOL0     H21774   6.590   8.160   8.216 -0.9379  1.4450 -2.0407
  165MOL0     H21775   6.616   8.310   8.304 -1.6181  0.4205  0.2518
  165MOL0     H21776   6.366   8.283   8.377 -0.5504 -3.5428  0.4903
  165MOL0     H21777   6.398   8.334   8.205 -1.2709 -1.3607 -0.8585
  165MOL0     H21778   6.217   7.950   8.182 -0.2856  0.1083  0.4000
  165MOL0     H21779   6.985   8.095   8.478  0.8397 -1.8322 -0.4496
  165MOL0     H21780   7.184   8.128   8.631 -0.0019 -1.1835  0.6870
  166MOL0     O21781   3.297   6.653   1.637  0.1508 -0.5896 -0.4996
  166MOL0     C21782   3.313   6.657   1.754 -0.4456  0.8231  1.0707
  166MOL0     O21783   3.213   6.676   1.851 -0.1256 -0.7501 -0.6957
  166MOL0     C21784   3.085   6.720   1.825  0.2624 -0.5045  0.5672
  166MOL0     C21785   2.992   6.697   1.934 -0.1348  0.6121  0.5566
  166MOL0     C21786   2.858   6.731   1.926 -0.3037 -0.1594  0.3536
  166MOL0     C21787   2.800   6.800   1.813  0.2587 -0.5370 -0.3067
  166MOL0     O21788   2.673   6.831   1.793  0.2867 -1.0119 -0.4804
  166MOL0     C21789   2.580   6.729   1.832 -0.0400  0.2579  0.4674
  166MOL0     C21790   2.466   6.779   1.914 -0.4032 -0.3956 -0.0881
  166MOL0     C21791   2.392   6.902   1.850  0.1747  0.3662  0.0651
  166MOL0     C21792   2.304   6.968   1.959 -0.1817 -0.4676  0.5125
  166MOL0     C21793   2.261   7.107   1.911 -0.0156  0.5460  0.0460
  166MOL0     C21794   2.180   7.187   2.012 -0.6844  1.5605 -0.6620
  166MOL0     C21795   2.167   7.341   1.978 -0.5207 -0.2162 -0.0186
  166MOL0     C21796   2.093   7.420   2.084  0.0356 -0.5858 -0.8317
  166MOL0     N21797   1.942   7.407   2.095  0.4375 -0.3437  0.0252
  166MOL0     C21798   1.849   7.509   2.112  0.6423 -0.6362  0.2394
  166MOL0     C21799   1.722   7.457   2.126 -0.3871  0.3212 -0.1639
  166MOL0     C21800   1.598   7.538   2.151  0.7167  0.6324 -0.2358
  166MOL0     C21801   1.490   7.510   2.052  0.1588 -0.2737 -0.8622
  166MOL0     C21802   1.361   7.595   2.109 -0.3065  0.4518 -0.2160
  166MOL0     C21803   1.268   7.652   2.011 -0.0009 -0.7990 -0.2833
  166MOL0     O21804   1.182   7.751   2.072 -1.0549 -0.0641 -0.2044
  166MOL0     C21805   1.211   7.877   2.012  1.0187 -0.1538  0.5399
  166MOL0     C21806   1.113   7.948   1.945 -0.0092  1.1592  0.1167
  166MOL0     C21807   1.132   8.068   1.877  0.7993  0.4231  0.1824
  166MOL0     C21808   1.258   8.131   1.897  0.3079  0.2909 -0.0011
  166MOL0     C21809   1.275   8.269   1.843  0.4973  1.0271  0.3052
  166MOL0     O21810   1.210   8.306   1.738  0.1178  0.0888 -0.1583
  166MOL0     C21811   1.204   8.443   1.718  1.2058  0.4086  0.2207
  166MOL0     C21812   1.313   8.517   1.669  0.1306 -0.5174  0.6063
  166MOL0     C21813   1.289   8.658   1.629 -0.1222  0.9531  0.0870
  166MOL0     C21814   1.157   8.711   1.627  0.0965  0.3882  0.0012
  166MOL0     O21815   1.143   8.847   1.588 -0.0701  0.4166  0.4734
  166MOL0     C21816   1.014   8.908   1.591 -0.0525  0.9373 -0.6611
  166MOL0     C21817   1.018   9.050   1.554 -0.3134 -0.9668  0.5855
  166MOL0     C21818   1.048   9.148   1.666  0.9553 -0.0816  0.0477
  166MOL0     C21819   1.166   9.108   1.748 -0.3214  0.2337  0.2841
  166MOL0     C21820   1.290   9.124   1.654 -0.6695  1.0723  0.7578
  166MOL0     C21821   1.424   9.130   1.742 -0.0511  1.0052  0.0626
  166MOL0     C21822   1.558   9.154   1.661 -0.0332  0.9675 -0.4218
  166MOL0     C21823   1.677   9.168   1.759  0.5638 -0.6478 -0.3768
  166MOL0    Cl21824   1.673   9.321   1.855  0.2762  0.4612 -0.0699
  166MOL0     C21825   1.053   8.630   1.677 -0.0886 -0.0009  0.0043
  166MOL0     C21826   1.078   8.499   1.715 -0.2278  0.5414 -1.1796
  166MOL0     O21827   1.355   8.342   1.901  0.3751 -0.3941  0.4367
  166MOL0     C21828   1.362   8.066   1.962  0.1360 -0.2016 -0.6615
  166MOL0     C21829   1.338   7.940   2.017  0.7721 -0.8888 -0.4319
  166MOL0     N21830   1.746   7.322   2.132  0.4240 -0.2045 -0.4312
  166MOL0     N21831   1.873   7.294   2.109 -0.0195  0.8761 -0.3238
  166MOL0     C21832   2.891   6.828   1.710 -0.4900 -0.2128  0.2142
  166MOL0     C21833   3.024   6.783   1.717  0.5191 -0.7723  0.9989
  166MOL0     C21834   3.448   6.628   1.803  0.1903 -0.7829 -0.2694
  166MOL0     C21835   3.469   6.634   1.943  0.0908 -0.1881 -0.4620
  166MOL0     C21836   3.596   6.616   2.002  0.4021 -0.2819  0.6274
  166MOL0     C21837   3.703   6.607   1.918 -0.0078  0.3735  0.4122
  166MOL0     O21838   3.832   6.621   1.970  0.0845 -0.1575  0.0594
  166MOL0     C21839   3.857   6.630   2.110  0.1060 -0.1568  0.1564
  166MOL0     C21840   4.007   6.606   2.137  0.2248 -0.1928  0.3272
  166MOL0     C21841   4.037   6.457   2.092  0.4724  0.2123  0.0120
  166MOL0     C21842   4.161   6.404   2.150 -0.9298  0.0898  0.0108
  166MOL0     C21843   4.273   6.505   2.175  0.2452  0.2909  0.4851
  166MOL0     C21844   4.363   6.579   2.206 -0.4114 -0.0999  0.2083
  166MOL0     C21845   3.683   6.601   1.779  0.2482 -0.7631  0.4671
  166MOL0     C21846   3.557   6.603   1.721 -0.2499 -0.1064  0.2106
  166MOL0     H21847   3.028   6.643   2.021 -3.1509 -0.6550  1.1290
  166MOL0     H21848   2.792   6.715   2.010  1.0732  2.3546  2.0425
  166MOL0     H21849   2.622   6.645   1.889  2.3954  0.7864 -0.4271
  166MOL0     H21850   2.545   6.686   1.738  2.6787 -0.2205 -0.4122
  166MOL0     H21851   2.504   6.800   2.015  2.4490 -2.2759 -0.6486
  166MOL0     H21852   2.399   6.694   1.932  1.3177 -1.3353  2.5938
  166MOL0     H21853   2.343   6.865   1.759 -0.1153 -0.7904  0.6670
  166MOL0     H21854   2.473   6.973   1.830  0.2729  0.9263  2.2238
  166MOL0     H21855   2.217   6.906   1.981 -1.0107  1.2864  2.5649
  166MOL0     H21856   2.361   6.988   2.051 -2.2743 -0.6396  1.9118
  166MOL0     H21857   2.201   7.108   1.819 -0.5296  1.7450  0.3736
  166MOL0     H21858   2.352   7.165   1.895  2.3232 -2.9937 -0.7353
  166MOL0     H21859   2.232   7.178   2.108  1.1940 -0.4454 -1.7705
  166MOL0     H21860   2.083   7.139   2.024  0.9589 -1.9133 -0.1639
  166MOL0     H21861   2.270   7.377   1.965 -0.3393 -1.2487 -1.7225
  166MOL0     H21862   2.126   7.361   1.878 -2.4429  0.0261  0.7819
  166MOL0     H21863   2.122   7.525   2.076 -1.7768 -0.1879 -3.2454
  166MOL0     H21864   2.127   7.371   2.177  0.4004 -2.0098 -1.6816
  166MOL0     H21865   1.866   7.616   2.098 -2.2901 -0.2991 -1.6294
  166MOL0     H21866   1.628   7.643   2.142  0.8709  0.7699  1.5123
  166MOL0     H21867   1.568   7.520   2.254  2.2683  0.2709  0.1827
  166MOL0     H21868   1.463   7.404   2.054  1.4709 -0.6502  2.5745
  166MOL0     H21869   1.520   7.535   1.950  1.1122 -0.9283 -0.7466
  166MOL0     H21870   1.307   7.525   2.174 -1.0398 -0.3082 -1.6032
  166MOL0     H21871   1.401   7.674   2.174 -0.3944 -0.5589  1.0987
  166MOL0     H21872   1.201   7.573   1.976 -2.4350  0.6992  0.7637
  166MOL0     H21873   1.323   7.681   1.921  1.8825 -0.9602  0.7637
  166MOL0     H21874   1.020   7.893   1.930 -0.9253  2.6734  0.0073
  166MOL0     H21875   1.060   8.128   1.823  3.3659  1.0374 -2.8419
  166MOL0     H21876   1.408   8.467   1.656 -0.2099 -0.6056 -2.2417
  166MOL0     H21877   1.370   8.712   1.582  0.3885  2.9780  2.9743
  166MOL0     H21878   0.981   8.892   1.694  0.3427 -2.9143 -0.9575
  166MOL0     H21879   0.947   8.848   1.527  0.3108  0.3999 -0.5488
  166MOL0     H21880   0.921   9.076   1.510 -1.0810  0.6917  2.9983
  166MOL0     H21881   1.089   9.067   1.473  1.6327 -3.5337  1.6302
  166MOL0     H21882   0.963   9.157   1.734 -1.8808 -0.6379 -3.1597
  166MOL0     H21883   1.050   9.248   1.621 -0.9397 -0.9032 -2.0936
  166MOL0     H21884   1.179   9.173   1.835 -0.0635 -0.2484  0.6060
  166MOL0     H21885   1.156   9.003   1.777  0.1106 -0.8854 -3.1495
  166MOL0     H21886   1.271   9.207   1.585 -0.4045 -1.1548 -2.2327
  166MOL0     H21887   1.301   9.038   1.587  1.6625 -0.1501  2.5615
  166MOL0     H21888   1.440   9.040   1.801 -0.6638  1.8736  1.6069
  166MOL0     H21889   1.411   9.222   1.799 -1.9612  0.9050 -0.1384
  166MOL0     H21890   1.595   9.083   1.587  1.9308  0.7890  0.6707
  166MOL0     H21891   1.546   9.244   1.600 -0.6584 -1.0030 -3.4178
  166MOL0     H21892   1.770   9.166   1.703 -0.1177 -1.6913 -1.5169
  166MOL0     H21893   1.679   9.077   1.821  3.2730  1.2244  2.6082
  166MOL0     H21894   0.953   8.672   1.684  0.3679  1.0166  0.8585
  166MOL0     H21895   0.997   8.431   1.742  2.6926 -1.7513  3.1021
  166MOL0     H21896   1.463   8.106   1.970  0.4314 -1.3561  3.5778
  166MOL0     H21897   1.413   7.881   2.070 -0.0660 -0.3882  1.3847
  166MOL0     H21898   2.860   6.884   1.622  3.4383  1.5261 -0.2934
  166MOL0     H21899   3.086   6.789   1.628  0.4026 -0.8997  0.9095
  166MOL0     H21900   3.383   6.640   2.009  0.2679  0.9211 -0.3144
  166MOL0     H21901   3.604   6.618   2.110 -1.2653 -0.4544  0.7941
  166MOL0     H21902   3.802   6.561   2.175 -1.4700  2.9484  2.4031
  166MOL0     H21903   3.836   6.733   2.142 -3.3137 -0.5061 -0.5482
  166MOL0     H21904   4.080   6.680   2.102  0.5739 -0.0129  1.3907
  166MOL0     H21905   4.015   6.611   2.246  1.2649 -0.5199  0.2757
  166MOL0     H21906   4.047   6.445   1.984  0.8718 -1.8741  0.2474
  166MOL0     H21907   3.962   6.383   2.121 -0.1039  0.6654 -0.2963
  166MOL0     H21908   4.145   6.355   2.247  2.6973 -1.7667 -0.1731
  166MOL0     H21909   4.205   6.326   2.088 -3.9536 -1.9155  0.1797
  166MOL0     H21910   4.432   6.656   2.231 -0.7071  0.2258  0.0347
  166MOL0     H21911   3.766   6.578   1.713  0.0397 -0.2303  0.0122
  166MOL0     H21912   3.560   6.595   1.613 -0.2150  1.6435  0.0413
  167MOL0     O21913   2.948   2.309   7.474  0.5073 -0.0806  0.3004
  167MOL0     C21914   2.898   2.398   7.546 -0.3877 -0.2748 -0.5991
  167MOL0     O21915   2.968   2.494   7.626  0.6483  0.1044  0.3668
  167MOL0     C21916   3.107   2.462   7.642  0.0172  0.3716 -0.5072
  167MOL0     C21917   3.164   2.433   7.762  0.2890 -0.2091 -0.3759
  167MOL0     C21918   3.305   2.430   7.783  0.4227  0.5629  0.3090
  167MOL0     C21919   3.384   2.464   7.682 -0.7396 -0.2863  0.9586
  167MOL0     O21920   3.517   2.446   7.706  1.0741  0.1448  0.1568
  167MOL0     C21921   3.616   2.396   7.603 -0.4381 -0.6774  0.3023
  167MOL0     C21922   3.744   2.401   7.687 -0.1735  0.0800  0.9070
  167MOL0     C21923   3.743   2.281   7.778 -0.7979 -0.3329  0.4986
  167MOL0     C21924   3.880   2.270   7.846 -0.0327 -0.3068 -0.3159
  167MOL0     C21925   3.887   2.140   7.932  0.6573 -0.7844  0.2999
  167MOL0     C21926   3.994   2.156   8.046  0.4894 -0.6210 -0.7427
  167MOL0     C21927   4.144   2.192   8.006  0.7743  0.5412  0.1446
  167MOL0     C21928   4.214   2.082   7.921 -0.1139  1.1565 -0.1285
  167MOL0     N21929   4.215   1.956   7.997 -0.3015  1.3542 -0.2416
  167MOL0     C21930   4.305   1.916   8.088 -0.4006  1.1053 -0.2810
  167MOL0     C21931   4.253   1.805   8.158  0.4283  0.1991  0.3491
  167MOL0     C21932   4.320   1.725   8.258 -0.0421 -0.2815 -0.2185
  167MOL0     C21933   4.353   1.591   8.194  0.0485 -0.4354 -0.0122
  167MOL0     C21934   4.408   1.490   8.293 -0.4158  0.2037 -0.4599
  167MOL0     C21935   4.556   1.516   8.330 -0.1646 -0.0773 -0.3226
  167MOL0     O21936   4.633   1.510   8.204 -0.4555 -0.3158  0.7409
  167MOL0     C21937   4.749   1.585   8.191 -0.4617  0.2102 -0.4091
  167MOL0     C21938   4.813   1.641   8.299  0.0720  0.8308 -0.7281
  167MOL0     C21939   4.930   1.720   8.289 -0.6680 -0.4269  0.1442
  167MOL0     C21940   4.980   1.752   8.163  0.5760 -0.3763 -0.2850
  167MOL0     C21941   5.102   1.837   8.144 -0.3594 -0.5928 -0.6962
  167MOL0     O21942   5.153   1.879   8.262  0.8683  0.3350 -0.2709
  167MOL0     C21943   5.264   1.959   8.267  0.2342  0.5887 -0.0132
  167MOL0     C21944   5.376   1.933   8.185  0.2551 -0.1963 -1.0483
  167MOL0     C21945   5.488   2.017   8.188  1.1898 -0.7515  0.0097
  167MOL0     C21946   5.491   2.127   8.283 -0.4428  0.1632  0.6730
  167MOL0     O21947   5.608   2.199   8.279  0.5695 -0.8589 -0.4477
  167MOL0     C21948   5.594   2.343   8.305  0.7013  0.0408  0.0976
  167MOL0     C21949   5.727   2.411   8.312  0.5299 -0.3857 -0.0340
  167MOL0     C21950   5.791   2.377   8.447  0.0964  0.0297  0.7289
  167MOL0     C21951   5.915   2.456   8.462  0.2415  0.5335 -0.4226
  167MOL0     C21952   5.989   2.414   8.590  0.5356  0.7317  0.7045
  167MOL0     C21953   6.048   2.267   8.585 -0.6213 -0.1171 -0.1671
  167MOL0     C21954   6.097   2.222   8.725  0.4410  0.2710  0.6604
  167MOL0     C21955   6.161   2.080   8.722 -0.2532  0.5534 -0.2565
  167MOL0    Cl21956   6.327   2.089   8.672  0.2902  0.1159  0.4368
  167MOL0     C21957   5.377   2.147   8.358 -0.8152 -0.3653 -0.0850
  167MOL0     C21958   5.267   2.062   8.360  0.3805 -0.2111 -0.1738
  167MOL0     O21959   5.141   1.868   8.034  0.3692  0.2428 -0.6099
  167MOL0     C21960   4.928   1.678   8.054 -0.9978 -0.1605  0.1519
  167MOL0     C21961   4.812   1.600   8.067 -0.5047  0.9564  0.4028
  167MOL0     N21962   4.128   1.787   8.110 -0.1349  0.8520  0.1457
  167MOL0     N21963   4.107   1.870   8.005 -0.2490 -0.2298 -0.8472
  167MOL0     C21964   3.328   2.489   7.551 -0.6913  0.6262 -0.0373
  167MOL0     C21965   3.190   2.490   7.530  0.3190  0.2472 -0.3957
  167MOL0     C21966   2.749   2.401   7.555  0.2474  0.2804  1.8416
  167MOL0     C21967   2.690   2.518   7.596 -0.1114 -0.0713  0.4171
  167MOL0     C21968   2.551   2.519   7.605 -0.4023  0.2392  0.4489
  167MOL0     C21969   2.471   2.410   7.571  0.1813 -0.5560  0.6371
  167MOL0     O21970   2.336   2.430   7.581 -0.3730  0.0523  0.1623
  167MOL0     C21971   2.275   2.312   7.636  0.3127  0.4126 -0.4337
  167MOL0     C21972   2.132   2.333   7.681 -0.1591 -0.6745 -0.6075
  167MOL0     C21973   2.084   2.220   7.773 -0.1870 -0.0598  0.3364
  167MOL0     C21974   1.932   2.208   7.773  0.9001  1.0596  0.4372
  167MOL0     C21975   1.872   2.324   7.835 -0.2087 -0.2014 -0.5388
  167MOL0     C21976   1.814   2.415   7.888 -0.0067 -0.3375  0.0272
  167MOL0     C21977   2.531   2.292   7.536  0.7269  0.1371 -0.0343
  167MOL0     C21978   2.671   2.291   7.521  0.2278 -0.6948 -0.8995
  167MOL0     H21979   3.089   2.412   7.837 -0.4748  1.1424 -0.7326
  167MOL0     H21980   3.349   2.405   7.879  1.3427  2.3060  0.3779
  167MOL0     H21981   3.634   2.470   7.524 -3.0592  0.2967  0.5158
  167MOL0     H21982   3.588   2.298   7.562 -3.3586  0.4564 -0.6672
  167MOL0     H21983   3.743   2.497   7.739  1.0895  0.7729 -0.2705
  167MOL0     H21984   3.833   2.415   7.625  0.0576  0.5209  1.3274
  167MOL0     H21985   3.724   2.194   7.715  0.0355  0.0965 -0.3736
  167MOL0     H21986   3.670   2.298   7.857 -0.7389 -2.5307  1.0855
  167MOL0     H21987   3.954   2.273   7.765 -1.5583 -2.9345 -1.9488
  167MOL0     H21988   3.881   2.362   7.905 -2.4405  0.4609 -1.3648
  167MOL0     H21989   3.897   2.049   7.872 -1.2129 -1.8716  1.5273
  167MOL0     H21990   3.795   2.133   7.990  0.7856  3.4455  1.3596
  167MOL0     H21991   3.972   2.066   8.104 -1.6469  1.0288  1.2140
  167MOL0     H21992   3.967   2.246   8.104 -0.6376  0.3141 -2.6151
  167MOL0     H21993   4.151   2.287   7.953  2.8635  0.5857  0.4308
  167MOL0     H21994   4.205   2.198   8.096  3.8272 -1.6893 -1.5725
  167MOL0     H21995   4.315   2.117   7.898  0.5467  1.5521  2.9601
  167MOL0     H21996   4.155   2.079   7.829 -1.9117  4.1394  0.7733
  167MOL0     H21997   4.407   1.952   8.097 -0.9319  2.7341 -0.3319
  167MOL0     H21998   4.249   1.705   8.339  0.4531 -1.8223 -0.1328
  167MOL0     H21999   4.408   1.777   8.298 -1.2820  0.7139  1.3894
  167MOL0     H22000   4.415   1.603   8.104 -2.9862 -3.8589 -2.9070
  167MOL0     H22001   4.265   1.556   8.138  1.8824  1.7579 -4.8712
  167MOL0     H22002   4.349   1.505   8.384  1.3430 -1.0856  0.9677
  167MOL0     H22003   4.398   1.389   8.251 -1.3461  0.5883 -1.1892
  167MOL0     H22004   4.583   1.442   8.407  0.8745 -0.2896 -0.8761
  167MOL0     H22005   4.554   1.609   8.387 -0.2245 -0.6751  0.6895
  167MOL0     H22006   4.780   1.634   8.402  1.9636  0.4320 -0.1248
  167MOL0     H22007   4.979   1.750   8.381 -0.7853 -2.3261  0.8619
  167MOL0     H22008   5.389   1.838   8.135 -0.8850 -0.0772 -1.5887
  167MOL0     H22009   5.584   1.994   8.141  1.0713 -1.7210  0.2169
  167MOL0     H22010   5.514   2.364   8.377 -2.1624  1.2868 -3.1870
  167MOL0     H22011   5.560   2.396   8.216  1.4822  1.7233  0.7424
  167MOL0     H22012   5.719   2.520   8.311 -0.9851 -0.4782 -0.4109
  167MOL0     H22013   5.791   2.386   8.227  4.6938  0.7166  2.5036
  167MOL0     H22014   5.822   2.273   8.438 -0.1314 -0.4634  4.2956
  167MOL0     H22015   5.720   2.395   8.528 -2.2885 -1.3393 -0.9646
  167MOL0     H22016   5.980   2.445   8.375  0.6541  0.2448 -0.0813
  167MOL0     H22017   5.903   2.562   8.486 -0.7371  0.6305 -1.3134
  167MOL0     H22018   5.915   2.409   8.670  0.8103  0.3412  0.9352
  167MOL0     H22019   6.067   2.489   8.610  1.9959 -0.7518  0.7691
  167MOL0     H22020   6.133   2.268   8.517 -1.1342 -0.0511 -0.8166
  167MOL0     H22021   5.973   2.195   8.550 -0.1068 -2.0090  2.2764
  167MOL0     H22022   6.172   2.293   8.761 -0.9464  2.3040 -0.2231
  167MOL0     H22023   6.011   2.230   8.793  0.0746 -0.4771  0.3036
  167MOL0     H22024   6.103   2.007   8.665 -0.7180 -1.4845  2.5765
  167MOL0     H22025   6.168   2.039   8.823 -1.2954 -1.7939 -1.0727
  167MOL0     H22026   5.369   2.229   8.428  0.8883  0.2016 -0.5213
  167MOL0     H22027   5.190   2.070   8.436 -1.6326  4.0260 -2.3260
  167MOL0     H22028   4.967   1.691   7.954  0.9647  1.6412  1.0786
  167MOL0     H22029   4.779   1.558   7.973 -2.3650  2.1870  0.4478
  167MOL0     H22030   3.390   2.516   7.467  1.2321  0.3347  1.2331
  167MOL0     H22031   3.158   2.521   7.431  2.0776 -1.6655 -1.6647
  167MOL0     H22032   2.739   2.608   7.632  0.2048  0.9291 -2.2349
  167MOL0     H22033   2.511   2.614   7.638  1.5119  0.5841  1.9930
  167MOL0     H22034   2.333   2.280   7.723  2.0965  2.7097 -0.6732
  167MOL0     H22035   2.266   2.241   7.553  2.3168  0.3647 -0.6586
  167MOL0     H22036   2.138   2.421   7.745  1.3244 -0.8863 -0.4205
  167MOL0     H22037   2.077   2.360   7.590  0.2802 -0.6031 -0.8513
  167MOL0     H22038   2.134   2.227   7.870  2.1787  1.9243 -0.9476
  167MOL0     H22039   2.114   2.129   7.719 -1.3558  0.5469 -1.4445
  167MOL0     H22040   1.907   2.195   7.667 -0.6494 -0.2313  0.9268
  167MOL0     H22041   1.902   2.115   7.821  0.5497 -0.2221 -2.0576
  167MOL0     H22042   1.768   2.496   7.942 -1.8642 -2.0136  1.0880
  167MOL0     H22043   2.479   2.201   7.507 -1.0808  1.1570 -0.1124
  167MOL0     H22044   2.728   2.209   7.479  1.8001  0.3458 -0.8923
  168MOL0     O22045  10.395   0.017   0.692 -0.0031  0.3594 -0.1324
  168MOL0     C22046  10.420  -0.057   0.599 -0.7460 -0.1253  0.0026
  168MOL0     O22047  10.326  -0.110   0.517  0.0712  0.0515  0.5954
  168MOL0     C22048  10.192  -0.109   0.553  0.3855  0.7367  0.1985
  168MOL0     C22049  10.110  -0.151   0.453 -0.1158 -0.3211  0.1663
  168MOL0     C22050   9.977  -0.173   0.470 -0.6437  0.5842  0.4821
  168MOL0     C22051   9.917  -0.183   0.597 -0.0882 -0.6374  0.2569
  168MOL0     O22052   9.785  -0.216   0.623 -0.0466  0.8767 -0.1823
  168MOL0     C22053   9.697  -0.275   0.515 -0.3965 -0.0897  0.6605
  168MOL0     C22054   9.597  -0.161   0.470  0.7832  0.3065  0.3140
  168MOL0     C22055   9.664  -0.051   0.394  0.0799  1.1063 -0.6309
  168MOL0     C22056   9.691  -0.087   0.243  0.2801 -0.2547 -0.9490
  168MOL0     C22057   9.784   0.017   0.180  1.2035 -0.5422 -0.4095
  168MOL0     C22058   9.793   0.006   0.034  0.0398 -0.0000 -0.5699
  168MOL0     C22059   9.922   0.080  -0.016  0.2180  0.5247 -0.0705
  168MOL0     C22060   9.927   0.084  -0.165 -0.3971  0.0696  0.9073
  168MOL0     N22061  10.060   0.139  -0.207  1.1592  0.1484 -0.0412
  168MOL0     C22062  10.080   0.271  -0.249  0.1943  0.3139  0.0360
  168MOL0     C22063  10.210   0.278  -0.284  0.1857 -0.1446 -0.5726
  168MOL0     C22064  10.273   0.396  -0.341  0.1466 -0.7367 -0.0608
  168MOL0     C22065  10.419   0.358  -0.382  0.5411 -0.7216  0.0325
  168MOL0     C22066  10.481   0.470  -0.450  0.1792 -0.6586 -0.9250
  168MOL0     C22067  10.501   0.599  -0.354 -0.3141  0.5628  0.2012
  168MOL0     O22068  10.580   0.542  -0.241 -0.9072  0.6333 -0.3548
  168MOL0     C22069  10.719   0.528  -0.256 -0.3716  0.3903  0.4456
  168MOL0     C22070  10.788   0.574  -0.369 -0.2038  0.0578 -0.0975
  168MOL0     C22071  10.925   0.557  -0.378  0.4100  0.4804 -0.5337
  168MOL0     C22072  10.998   0.499  -0.277 -0.4508  0.1049 -1.0894
  168MOL0     C22073  11.149   0.488  -0.283 -0.3786 -0.2004  0.4675
  168MOL0     O22074  11.200   0.544  -0.399 -0.7804  0.3575  1.2165
  168MOL0     C22075  11.332   0.529  -0.432 -0.4974  0.9988  0.4831
  168MOL0     C22076  11.364   0.402  -0.467 -0.0456  0.4233  0.3890
  168MOL0     C22077  11.496   0.363  -0.491 -0.2198 -0.2040  0.7835
  168MOL0     C22078  11.595   0.460  -0.511  0.2576  0.4915 -0.5475
  168MOL0     O22079  11.724   0.422  -0.535  0.0351  1.2654 -0.0697
  168MOL0     C22080  11.816   0.469  -0.434  0.1428 -0.0559  0.7935
  168MOL0     C22081  11.947   0.388  -0.450 -0.0768 -0.0970  0.3381
  168MOL0     C22082  12.046   0.453  -0.555 -0.6124  0.6428  0.4422
  168MOL0     C22083  12.180   0.371  -0.549 -0.2721  0.0770  0.4288
  168MOL0     C22084  12.279   0.432  -0.644 -0.1667  0.7112 -0.3645
  168MOL0     C22085  12.213   0.436  -0.790 -0.1637  0.1836  0.1843
  168MOL0     C22086  12.316   0.448  -0.899 -0.1035 -0.1734  0.2668
  168MOL0     C22087  12.252   0.489  -1.038 -0.2628  0.2779 -0.0507
  168MOL0    Cl22088  12.358   0.477  -1.188  0.5694  0.0602  0.0443
  168MOL0     C22089  11.561   0.599  -0.478  0.3576  0.1634 -0.3506
  168MOL0     C22090  11.430   0.623  -0.433 -0.9336 -0.2138  0.3682
  168MOL0     O22091  11.217   0.439  -0.195 -0.2193 -0.1726 -0.4553
  168MOL0     C22092  10.930   0.466  -0.158 -0.3891  0.9171  0.1443
  168MOL0     C22093  10.786   0.471  -0.148  0.4096 -0.6252  0.1604
  168MOL0     N22094  10.269   0.146  -0.260  1.0123 -0.7084  0.0914
  168MOL0     N22095  10.179   0.076  -0.208 -0.5206  0.0633  0.2728
  168MOL0     C22096   9.999  -0.141   0.706 -0.5880 -0.5726 -0.2300
  168MOL0     C22097  10.135  -0.109   0.686 -0.0075 -0.9161  0.0321
  168MOL0     C22098  10.565  -0.066   0.553  0.2849 -0.2845 -1.4143
  168MOL0     C22099  10.664   0.007   0.631 -0.0476 -0.1616 -0.1125
  168MOL0     C22100  10.801  -0.005   0.603 -0.0883  0.0014 -0.0435
  168MOL0     C22101  10.836  -0.077   0.489  0.7545 -0.6351 -0.3503
  168MOL0     O22102  10.964  -0.085   0.439  0.4015  0.2020  0.0075
  168MOL0     C22103  11.061   0.003   0.488  0.5041  0.4861 -0.1456
  168MOL0     C22104  11.165   0.019   0.376 -0.2434 -0.8017 -0.6808
  168MOL0     C22105  11.288  -0.063   0.401  1.1248 -0.0991  0.3706
  168MOL0     C22106  11.408  -0.019   0.310  0.3418  0.6452  0.7821
  168MOL0     C22107  11.506   0.080   0.360 -0.2065  0.3149 -0.1343
  168MOL0     C22108  11.580   0.162   0.405 -0.3874 -0.1294 -0.3205
  168MOL0     C22109  10.734  -0.143   0.418 -0.1490  0.2637 -0.4817
  168MOL0     C22110  10.602  -0.146   0.446  0.2871 -0.2290 -0.0279
  168MOL0     H22111  10.148  -0.169   0.353  0.7922 -1.0247  0.6297
  168MOL0     H22112   9.928  -0.195   0.376 -0.4681  1.3537  0.1995
  168MOL0     H22113   9.627  -0.339   0.569 -1.1560  1.1984  1.2558
  168MOL0     H22114   9.748  -0.324   0.432  1.6470  3.1531 -0.1748
  168MOL0     H22115   9.545  -0.130   0.561 -0.7027 -0.2242 -0.3257
  168MOL0     H22116   9.526  -0.196   0.394  2.8057  2.4950 -2.8478
  168MOL0     H22117   9.755  -0.022   0.448 -0.4853  1.2797  0.2643
  168MOL0     H22118   9.602   0.039   0.401  0.4231  1.5119 -2.4047
  168MOL0     H22119   9.739  -0.184   0.251 -1.6039 -1.2691 -1.2975
  168MOL0     H22120   9.593  -0.092   0.194 -0.4274 -2.4186  0.5286
  168MOL0     H22121   9.877   0.010   0.238 -0.1749 -0.7999  1.9050
  168MOL0     H22122   9.740   0.116   0.199  0.5483 -1.0942  1.1358
  168MOL0     H22123   9.699   0.039  -0.012 -0.7930 -1.8290 -0.2765
  168MOL0     H22124   9.795  -0.100   0.004 -1.7744  0.8710 -4.3565
  168MOL0     H22125   9.930   0.183   0.019 -2.2283  0.7588  0.0157
  168MOL0     H22126  10.008   0.022   0.020  0.6371  0.6783 -0.8166
  168MOL0     H22127   9.852   0.157  -0.195  2.1815  2.1309 -1.0355
  168MOL0     H22128   9.910  -0.018  -0.199  0.0867  0.2240  0.1711
  168MOL0     H22129  10.004   0.343  -0.277  1.1257  1.5521  0.6309
  168MOL0     H22130  10.265   0.482  -0.275 -4.3174  0.1189 -1.3643
  168MOL0     H22131  10.222   0.433  -0.430  0.9153 -1.2818 -0.7476
  168MOL0     H22132  10.402   0.286  -0.462 -3.5083  1.3658 -1.2548
  168MOL0     H22133  10.486   0.317  -0.306  2.1251  0.5037 -0.6345
  168MOL0     H22134  10.575   0.427  -0.486  0.3313 -0.6933 -0.4944
  168MOL0     H22135  10.420   0.505  -0.534  0.4618  1.2730 -0.3593
  168MOL0     H22136  10.402   0.633  -0.324 -0.9452 -1.0430  0.0305
  168MOL0     H22137  10.547   0.685  -0.404 -0.4345 -1.1010 -2.9551
  168MOL0     H22138  10.730   0.619  -0.449 -0.1343  2.4412  1.1160
  168MOL0     H22139  10.967   0.586  -0.474  0.3703 -0.8498 -0.9755
  168MOL0     H22140  11.290   0.323  -0.458 -0.4500  0.3623 -2.5287
  168MOL0     H22141  11.513   0.256  -0.494 -0.4526 -0.2742 -3.4306
  168MOL0     H22142  11.774   0.451  -0.334 -2.2884 -1.5051 -0.3934
  168MOL0     H22143  11.829   0.577  -0.443 -1.0194  0.0025 -0.5363
  168MOL0     H22144  11.938   0.282  -0.474  1.3276  0.0818 -1.1658
  168MOL0     H22145  11.996   0.394  -0.352  0.8198 -0.7485 -0.0536
  168MOL0     H22146  12.070   0.555  -0.524  0.7070  0.3527  0.3993
  168MOL0     H22147  11.984   0.462  -0.645 -1.9838  0.1353  1.2945
  168MOL0     H22148  12.217   0.365  -0.446 -0.7952  0.5112  0.6475
  168MOL0     H22149  12.153   0.268  -0.573 -0.7343  0.0650  0.9969
  168MOL0     H22150  12.370   0.371  -0.637 -1.3746 -0.9609  2.3247
  168MOL0     H22151  12.300   0.532  -0.607  0.5722  0.7991 -0.9889
  168MOL0     H22152  12.147   0.523  -0.793 -1.1841 -0.5220  1.2450
  168MOL0     H22153  12.155   0.349  -0.821 -0.2197  0.8701 -1.7970
  168MOL0     H22154  12.387   0.527  -0.875 -1.0299  0.7972 -0.1403
  168MOL0     H22155  12.360   0.349  -0.914  0.2386  0.3545 -2.9171
  168MOL0     H22156  12.221   0.594  -1.029 -2.1525 -0.2307 -0.1883
  168MOL0     H22157  12.163   0.429  -1.063 -2.3300  1.6099  3.4398
  168MOL0     H22158  11.635   0.679  -0.480  0.4069  0.0975 -1.6965
  168MOL0     H22159  11.408   0.725  -0.403 -0.1224  1.2418 -3.4077
  168MOL0     H22160  10.974   0.422  -0.070 -4.2892 -0.4498  1.6192
  168MOL0     H22161  10.729   0.436  -0.062  2.6290 -3.3036  0.6783
  168MOL0     H22162   9.939  -0.116   0.793 -1.8256 -0.9410 -0.9437
  168MOL0     H22163  10.187  -0.069   0.773  1.8673 -2.6548 -0.2243
  168MOL0     H22164  10.632   0.079   0.707 -1.6470 -0.2965 -0.6249
  168MOL0     H22165  10.882   0.038   0.662  0.9006  0.0000 -1.3457
  168MOL0     H22166  11.111  -0.025   0.580  0.7061  0.6347 -0.2098
  168MOL0     H22167  11.021   0.101   0.514  3.2242  1.0549  2.3713
  168MOL0     H22168  11.115  -0.007   0.282 -0.5473 -2.3244 -0.1303
  168MOL0     H22169  11.201   0.122   0.366 -1.9799 -0.0208  0.6225
  168MOL0     H22170  11.258  -0.168   0.392  0.2023  0.2440 -0.8758
  168MOL0     H22171  11.337  -0.061   0.499  2.2236 -0.5953 -0.1524
  168MOL0     H22172  11.465  -0.109   0.285  1.7308  2.6309 -4.3712
  168MOL0     H22173  11.377   0.026   0.215 -0.0658  1.2943  1.2093
  168MOL0     H22174  11.654   0.235   0.428 -0.4625 -0.6594  1.7840
  168MOL0     H22175  10.761  -0.205   0.333 -4.6300 -2.0450 -0.4888
  168MOL0     H22176  10.535  -0.209   0.389 -0.0823 -0.5950  0.7946
  169MOL0     O22177   8.919   7.531   1.397 -0.2226 -0.4755  0.2496
  169MOL0     C22178   8.964   7.532   1.509 -0.2314  0.3028 -0.6190
  169MOL0     O22179   8.919   7.462   1.614  0.0463  0.0414 -0.0116
  169MOL0     C22180   8.807   7.381   1.624 -0.9749  0.6012  0.4942
  169MOL0     C22181   8.764   7.350   1.756  0.8162 -0.1989  0.2977
  169MOL0     C22182   8.656   7.266   1.777 -0.5006 -0.7631  0.0606
  169MOL0     C22183   8.591   7.209   1.665 -0.1220  0.6654 -0.7417
  169MOL0     O22184   8.483   7.134   1.702 -0.1491  0.0853  1.1074
  169MOL0     C22185   8.359   7.206   1.744 -0.6063 -0.6362 -0.0274
  169MOL0     C22186   8.248   7.116   1.684  0.0237  0.3698 -0.1677
  169MOL0     C22187   8.121   7.196   1.688 -0.2257  0.2151 -0.8392
  169MOL0     C22188   7.998   7.116   1.661 -0.4071  0.1331  0.3731
  169MOL0     C22189   7.877   7.208   1.657  0.5031  0.7391 -0.2217
  169MOL0     C22190   7.761   7.125   1.693 -0.0207 -0.7219 -0.4820
  169MOL0     C22191   7.632   7.208   1.713 -0.9743  0.7729  0.0617
  169MOL0     C22192   7.562   7.247   1.582 -0.4069 -0.7909 -0.9093
  169MOL0     N22193   7.587   7.392   1.553 -0.9408 -0.2292 -0.0607
  169MOL0     C22194   7.697   7.437   1.482  0.2090 -0.2787 -0.5945
  169MOL0     C22195   7.700   7.572   1.498 -0.6462  0.5625  0.2911
  169MOL0     C22196   7.792   7.673   1.444  0.2182  0.0495 -0.2630
  169MOL0     C22197   7.921   7.693   1.527 -0.9875  0.1848  0.1337
  169MOL0     C22198   8.001   7.565   1.536  0.0383 -0.1268 -0.2242
  169MOL0     C22199   8.138   7.584   1.599  0.6975  0.0087 -0.1526
  169MOL0     O22200   8.214   7.668   1.521  0.5632  0.4171  0.0966
  169MOL0     C22201   8.339   7.718   1.553 -0.2407 -0.2662 -0.3836
  169MOL0     C22202   8.352   7.843   1.501  0.2978 -0.3401 -1.2630
  169MOL0     C22203   8.472   7.911   1.510  0.2684 -0.2528  0.2421
  169MOL0     C22204   8.571   7.855   1.600  0.0833 -0.9646  0.6201
  169MOL0     C22205   8.697   7.935   1.624  0.4573  0.1786 -0.1956
  169MOL0     O22206   8.794   7.873   1.686 -0.0272 -0.9828 -0.1096
  169MOL0     C22207   8.921   7.934   1.691  0.4369  0.2310  0.0355
  169MOL0     C22208   8.995   7.948   1.813  0.1718  0.1026  0.0851
  169MOL0     C22209   9.119   8.010   1.818  0.4662  0.0063  0.3191
  169MOL0     C22210   9.168   8.057   1.699  0.1894 -0.6086  0.1822
  169MOL0     O22211   9.285   8.128   1.712 -1.0750  0.4298 -0.4587
  169MOL0     C22212   9.399   8.048   1.744 -0.1038  0.7514 -0.6074
  169MOL0     C22213   9.485   8.122   1.845  0.0972 -0.3208 -0.5484
  169MOL0     C22214   9.553   8.254   1.797 -0.5382 -0.2252  0.2236
  169MOL0     C22215   9.662   8.239   1.684  0.1907 -0.7220  0.0856
  169MOL0     C22216   9.773   8.149   1.720 -0.0325 -0.6834 -1.1960
  169MOL0     C22217   9.873   8.196   1.831  0.2098 -0.0897 -0.1704
  169MOL0     C22218   9.999   8.257   1.765  1.1295 -0.5316 -0.1708
  169MOL0     C22219  10.122   8.186   1.767 -0.5447 -0.5406  1.0965
  169MOL0    Cl22220  10.092   8.039   1.692 -0.4391 -0.1991  0.5323
  169MOL0     C22221   9.106   8.045   1.578 -0.1948 -0.4352 -0.4345
  169MOL0     C22222   8.980   7.982   1.573 -0.6346 -0.0720  0.4041
  169MOL0     O22223   8.702   8.054   1.590 -0.7360 -0.4974 -0.1498
  169MOL0     C22224   8.553   7.735   1.663  0.1239 -0.0992  0.1424
  169MOL0     C22225   8.438   7.659   1.635 -0.6891 -1.0319 -0.1278
  169MOL0     N22226   7.596   7.612   1.567 -0.1891  0.6934  0.1893
  169MOL0     N22227   7.530   7.505   1.601  0.1728 -0.2083  0.4463
  169MOL0     C22228   8.630   7.237   1.538 -0.5673  0.4679 -0.5125
  169MOL0     C22229   8.737   7.321   1.513  0.1557 -0.3799 -0.0627
  169MOL0     C22230   9.094   7.604   1.521 -0.0275  0.0389 -0.3714
  169MOL0     C22231   9.174   7.585   1.632 -0.2160 -0.9111 -0.3690
  169MOL0     C22232   9.302   7.652   1.622  0.1148 -0.9449  0.1261
  169MOL0     C22233   9.349   7.722   1.504  0.7687  0.0443 -0.1800
  169MOL0     O22234   9.467   7.788   1.494 -0.5346 -0.0642 -0.5392
  169MOL0     C22235   9.567   7.755   1.598 -0.1959 -0.2342  0.3577
  169MOL0     C22236   9.701   7.755   1.527  0.2770 -0.2615  0.1738
  169MOL0     C22237   9.729   7.620   1.471  0.2562 -0.4942 -0.5506
  169MOL0     C22238   9.834   7.618   1.354  0.0460 -0.0457 -0.1659
  169MOL0     C22239   9.951   7.707   1.384 -0.1775 -0.6950 -0.2126
  169MOL0     C22240  10.039   7.795   1.398 -1.0071 -0.2314  0.5988
  169MOL0     C22241   9.252   7.747   1.407  0.1323 -0.4451 -0.5536
  169MOL0     C22242   9.127   7.694   1.421 -0.1120  0.0219 -0.7948
  169MOL0     H22243   8.814   7.406   1.834  2.0190  2.5702 -2.2753
  169MOL0     H22244   8.627   7.242   1.879 -1.9975 -2.1215 -0.6443
  169MOL0     H22245   8.365   7.304   1.697  1.2808 -1.5082 -1.7414
  169MOL0     H22246   8.355   7.210   1.853  0.1504  0.6671 -0.0283
  169MOL0     H22247   8.235   7.027   1.746 -3.0821 -0.3989 -1.7089
  169MOL0     H22248   8.271   7.067   1.589  3.6752 -2.1909  1.7902
  169MOL0     H22249   8.127   7.266   1.604 -2.3037 -0.6435 -1.7803
  169MOL0     H22250   8.121   7.256   1.779  2.5739 -2.4389  1.1205
  169MOL0     H22251   8.005   7.061   1.567 -0.7314  0.4936  0.1313
  169MOL0     H22252   7.989   7.051   1.748 -2.3099 -0.2356 -0.0388
  169MOL0     H22253   7.858   7.257   1.561  0.2006 -0.8516 -1.0088
  169MOL0     H22254   7.887   7.270   1.746  1.6549  0.0675  0.1484
  169MOL0     H22255   7.779   7.082   1.792  0.5003  0.4266 -0.0531
  169MOL0     H22256   7.743   7.039   1.629  0.9611 -1.3312  0.0374
  169MOL0     H22257   7.567   7.133   1.759  0.5375  0.3192  1.5679
  169MOL0     H22258   7.650   7.294   1.778 -1.8608 -0.2768  1.7729
  169MOL0     H22259   7.453   7.243   1.589 -0.6769 -2.0097 -4.0988
  169MOL0     H22260   7.595   7.171   1.510  1.1309 -2.1185  1.0474
  169MOL0     H22261   7.771   7.383   1.423  2.0905  0.2739  1.1214
  169MOL0     H22262   7.738   7.768   1.450  1.0612  0.5213  0.0803
  169MOL0     H22263   7.806   7.648   1.339 -2.1749 -1.6986 -0.2556
  169MOL0     H22264   7.913   7.730   1.629  4.2044  0.6542  0.6480
  169MOL0     H22265   7.970   7.762   1.457 -2.1049  0.3598 -0.5050
  169MOL0     H22266   7.937   7.501   1.596 -1.6646  2.1151  0.4730
  169MOL0     H22267   8.017   7.514   1.440 -2.0491  1.5986 -1.5910
  169MOL0     H22268   8.181   7.484   1.604 -2.1118 -1.2663  0.9105
  169MOL0     H22269   8.119   7.623   1.700  1.4983 -0.3029  0.1202
  169MOL0     H22270   8.278   7.883   1.433  0.3858 -0.0030 -1.1618
  169MOL0     H22271   8.494   8.007   1.465  1.7716 -1.1604 -1.0060
  169MOL0     H22272   8.940   7.900   1.894 -1.3197 -1.0741 -1.5538
  169MOL0     H22273   9.173   8.018   1.912  1.7703  0.3982 -0.4401
  169MOL0     H22274   9.448   8.030   1.647  0.2713  0.4800 -0.3717
  169MOL0     H22275   9.376   7.949   1.784  2.0314  0.3952 -0.1591
  169MOL0     H22276   9.558   8.052   1.887 -1.3264 -2.4844 -1.5166
  169MOL0     H22277   9.418   8.144   1.928  0.6327  0.0352 -0.2018
  169MOL0     H22278   9.600   8.314   1.876 -2.7487 -1.6170  2.7736
  169MOL0     H22279   9.474   8.326   1.775  1.0335  2.0901  1.6889
  169MOL0     H22280   9.603   8.198   1.601 -0.1681  0.7664 -0.4400
  169MOL0     H22281   9.698   8.338   1.652  0.9747 -2.1497 -4.1239
  169MOL0     H22282   9.835   8.142   1.630  1.3739 -2.4876 -0.1652
  169MOL0     H22283   9.719   8.056   1.741 -2.5078  0.8524 -0.3263
  169MOL0     H22284   9.914   8.116   1.893  2.2957  2.6188  2.1833
  169MOL0     H22285   9.834   8.263   1.908  1.7056 -1.7756  2.2115
  169MOL0     H22286   9.985   8.297   1.664  2.6992  1.2213  0.2485
  169MOL0     H22287   9.994   8.351   1.822 -2.4475  0.8218 -2.3510
  169MOL0     H22288  10.148   8.182   1.873 -0.3774  0.6128  1.1100
  169MOL0     H22289  10.201   8.245   1.720 -1.0538  0.1004  1.0390
  169MOL0     H22290   9.149   8.092   1.490 -0.9726 -2.0537 -1.7569
  169MOL0     H22291   8.922   7.956   1.485 -0.0300  0.9501 -0.3371
  169MOL0     H22292   8.639   7.692   1.713  0.4023 -2.2665 -1.9997
  169MOL0     H22293   8.429   7.565   1.688 -0.8231 -0.2492  1.2656
  169MOL0     H22294   8.559   7.201   1.464 -2.2241 -0.2664  1.3420
  169MOL0     H22295   8.767   7.350   1.413  0.6483 -1.9299 -0.4007
  169MOL0     H22296   9.146   7.529   1.720 -1.2437  3.1989  2.1954
  169MOL0     H22297   9.357   7.651   1.716  2.9156  0.8035 -1.3744
  169MOL0     H22298   9.564   7.656   1.644  0.1435  0.5150  2.0959
  169MOL0     H22299   9.572   7.832   1.676 -0.0628 -0.4220  0.5361
  169MOL0     H22300   9.690   7.829   1.446 -0.9451 -1.0496 -0.4026
  169MOL0     H22301   9.775   7.787   1.601  0.6706 -1.1656  0.1744
  169MOL0     H22302   9.636   7.590   1.422 -0.6739 -1.2686  1.5937
  169MOL0     H22303   9.756   7.556   1.555  3.8652 -0.3967 -1.4715
  169MOL0     H22304   9.847   7.514   1.323 -3.9105 -0.1967 -1.9642
  169MOL0     H22305   9.788   7.671   1.270 -0.0848 -1.2574 -0.8716
  169MOL0     H22306  10.107   7.877   1.389 -1.9136  0.5622  0.8096
  169MOL0     H22307   9.269   7.810   1.320 -2.7615  4.9019  2.1899
  169MOL0     H22308   9.044   7.724   1.358 -2.0137  1.3631  2.1404
  170MOL0     O22309   6.326   3.123   5.291 -0.1634 -0.3230  0.2105
  170MOL0     C22310   6.354   3.076   5.179 -0.1303 -0.1410 -0.3223
  170MOL0     O22311   6.265   3.026   5.091  0.0353 -0.4223  0.3166
  170MOL0     C22312   6.139   3.019   5.138  0.3936 -0.1987  0.3265
  170MOL0     C22313   6.054   3.134   5.127 -0.8502  0.0111  0.2676
  170MOL0     C22314   5.915   3.124   5.145  0.4047  0.4811 -0.8580
  170MOL0     C22315   5.861   3.004   5.198 -0.0770  0.1206 -0.0790
  170MOL0     O22316   5.734   2.982   5.227  0.5787 -0.2222  0.1380
  170MOL0     C22317   5.647   2.983   5.110 -0.0990 -0.0575 -0.3904
  170MOL0     C22318   5.507   3.026   5.147 -0.4867 -0.0303  0.3941
  170MOL0     C22319   5.486   3.177   5.199 -1.2341 -0.2762  0.4429
  170MOL0     C22320   5.332   3.211   5.211  0.1460 -0.4931  0.5972
  170MOL0     C22321   5.297   3.346   5.284  0.3096  0.3209  1.1423
  170MOL0     C22322   5.372   3.472   5.248 -0.3535 -0.0495  0.1024
  170MOL0     C22323   5.306   3.606   5.301  0.2131  0.4546 -0.0071
  170MOL0     C22324   5.378   3.720   5.232  0.1722 -0.2782  0.1479
  170MOL0     N22325   5.318   3.848   5.277  0.0054  0.3994 -0.6427
  170MOL0     C22326   5.183   3.869   5.283 -0.3306 -0.1797 -0.5402
  170MOL0     C22327   5.172   4.006   5.308 -0.3620  0.9995 -0.6843
  170MOL0     C22328   5.047   4.074   5.349 -0.6973 -0.5987 -0.1217
  170MOL0     C22329   5.052   4.106   5.499  0.6593 -1.3988  0.7091
  170MOL0     C22330   5.068   3.978   5.586  0.4767 -0.0016 -0.0512
  170MOL0     C22331   4.937   3.895   5.581  0.6615  1.6113 -0.8223
  170MOL0     O22332   4.827   3.940   5.659  0.4153  0.4090 -0.2892
  170MOL0     C22333   4.742   3.847   5.706 -0.3408 -0.2200 -0.0943
  170MOL0     C22334   4.771   3.721   5.754  0.6731  0.3408  0.2669
  170MOL0     C22335   4.665   3.635   5.784  0.9589 -0.8042 -0.3990
  170MOL0     C22336   4.531   3.681   5.786  0.1389  0.8535  0.4300
  170MOL0     C22337   4.428   3.595   5.834 -0.3655  0.4829 -1.0418
  170MOL0     O22338   4.301   3.641   5.812  0.0997  0.3092 -0.2925
  170MOL0     C22339   4.199   3.576   5.871 -0.1345  0.5589 -0.1365
  170MOL0     C22340   4.183   3.438   5.881  0.1592  0.6882  0.7770
  170MOL0     C22341   4.057   3.384   5.922 -0.8756  0.0622 -0.8282
  170MOL0     C22342   3.953   3.456   5.974  0.2045  0.4858 -0.4418
  170MOL0     O22343   3.849   3.388   6.028 -0.1234 -0.1744 -0.0787
  170MOL0     C22344   3.744   3.451   6.098 -0.5495 -0.3842 -0.4253
  170MOL0     C22345   3.647   3.349   6.149 -0.8538 -0.1701 -0.2507
  170MOL0     C22346   3.560   3.413   6.255 -0.4044  1.0126  0.4183
  170MOL0     C22347   3.437   3.327   6.263 -0.3303  0.5364 -0.3188
  170MOL0     C22348   3.444   3.184   6.326 -0.2514 -0.7044 -0.3030
  170MOL0     C22349   3.305   3.112   6.334  0.0871 -0.2234 -0.7611
  170MOL0     C22350   3.197   3.170   6.423 -0.0646  0.1952 -0.1852
  170MOL0     C22351   3.073   3.080   6.412  0.6233  0.0564 -0.0211
  170MOL0    Cl22352   2.958   3.131   6.537  0.1405 -0.4604 -0.1910
  170MOL0     C22353   3.972   3.594   5.963  0.4436  0.5237 -0.8297
  170MOL0     C22354   4.088   3.650   5.909  0.8297 -0.7837 -0.4083
  170MOL0     O22355   4.461   3.500   5.906 -0.6941  0.3741  0.0847
  170MOL0     C22356   4.504   3.809   5.734 -0.3004  1.2472 -0.0572
  170MOL0     C22357   4.610   3.893   5.700 -0.2627  0.0299 -0.6733
  170MOL0     N22358   5.306   4.049   5.308 -0.2100 -0.0527 -0.4381
  170MOL0     N22359   5.391   3.963   5.277  0.1203  0.5089  0.1735
  170MOL0     C22360   5.946   2.892   5.223 -0.1556  0.4391  0.0376
  170MOL0     C22361   6.082   2.900   5.196 -0.2185 -0.2680 -0.4912
  170MOL0     C22362   6.497   3.096   5.150  0.8340 -0.6848  0.1079
  170MOL0     C22363   6.586   3.176   5.223 -0.2114  0.4552  0.1351
  170MOL0     C22364   6.726   3.189   5.202 -0.2832  0.7675  1.2279
  170MOL0     C22365   6.783   3.114   5.095 -0.4082 -0.5190  0.4070
  170MOL0     O22366   6.916   3.107   5.099 -0.2389 -0.0599  0.3590
  170MOL0     C22367   6.985   3.054   4.988 -0.8983 -0.8342 -0.2221
  170MOL0     C22368   6.998   3.145   4.864  1.5042 -0.1494 -0.1102
  170MOL0     C22369   7.086   3.271   4.880  0.0337 -0.2169 -0.8369
  170MOL0     C22370   7.220   3.252   4.938 -0.8189  0.0584 -0.2484
  170MOL0     C22371   7.299   3.147   4.878  0.4282 -0.1348 -0.2106
  170MOL0     C22372   7.359   3.064   4.814  0.2135 -0.1255 -0.5010
  170MOL0     C22373   6.697   3.047   5.012  1.0919 -0.7833 -0.0025
  170MOL0     C22374   6.552   3.034   5.038  0.4903 -0.8815  0.5616
  170MOL0     H22375   6.113   3.203   5.068 -0.3491 -0.0928  0.6478
  170MOL0     H22376   5.851   3.207   5.118 -0.3092 -0.7760 -3.2406
  170MOL0     H22377   5.648   2.882   5.067  2.0898 -1.3215  2.2369
  170MOL0     H22378   5.684   3.042   5.026  1.4224  1.4310  1.2207
  170MOL0     H22379   5.474   2.969   5.234 -2.2226  2.7104  1.6813
  170MOL0     H22380   5.444   2.994   5.064  0.4790 -0.2366 -0.2784
  170MOL0     H22381   5.540   3.235   5.124 -1.4517  1.3686  1.5228
  170MOL0     H22382   5.536   3.201   5.293 -2.6350 -2.0575  1.7205
  170MOL0     H22383   5.284   3.218   5.113 -1.4020 -1.8230  1.2177
  170MOL0     H22384   5.288   3.120   5.252  3.2076 -2.7703 -0.8348
  170MOL0     H22385   5.312   3.332   5.392 -1.1141 -0.2966  1.2896
  170MOL0     H22386   5.188   3.356   5.271  0.5155  0.6819 -0.4529
  170MOL0     H22387   5.382   3.483   5.139  1.9480 -1.8943  0.0462
  170MOL0     H22388   5.475   3.464   5.283 -0.5137 -3.8981  0.1668
  170MOL0     H22389   5.201   3.606   5.270  0.3325  2.6390 -0.5007
  170MOL0     H22390   5.320   3.610   5.409  4.8765  1.5744 -0.4569
  170MOL0     H22391   5.348   3.717   5.127  0.3492  2.0185 -0.0238
  170MOL0     H22392   5.487   3.725   5.245  0.2445  2.8347 -0.6898
  170MOL0     H22393   5.105   3.793   5.293 -1.2209  0.9467  1.7916
  170MOL0     H22394   4.959   4.026   5.306 -0.6743  0.0218 -0.9032
  170MOL0     H22395   5.062   4.167   5.293 -0.5917 -0.3918  0.2473
  170MOL0     H22396   4.968   4.164   5.536  1.2863  1.7019 -2.1821
  170MOL0     H22397   5.140   4.171   5.505  0.1331 -0.4446 -1.1823
  170MOL0     H22398   5.148   3.917   5.542 -1.2559 -2.7225  0.2934
  170MOL0     H22399   5.107   3.993   5.687  3.2499  0.5803 -1.1189
  170MOL0     H22400   4.962   3.792   5.609  0.1646  1.2397 -1.6943
  170MOL0     H22401   4.901   3.894   5.478 -0.0493  0.3229 -0.5850
  170MOL0     H22402   4.865   3.675   5.782  1.2922  0.8072 -0.9825
  170MOL0     H22403   4.689   3.544   5.837  1.7452  0.0117  0.6808
  170MOL0     H22404   4.252   3.358   5.857 -0.4289  0.9700 -2.2046
  170MOL0     H22405   4.055   3.275   5.922 -0.7403  0.0281 -2.7043
  170MOL0     H22406   3.693   3.537   6.052 -2.2274  0.1002  2.1511
  170MOL0     H22407   3.785   3.499   6.187 -1.3804 -0.2238 -0.1243
  170MOL0     H22408   3.693   3.256   6.186  1.2053  0.1056 -1.9431
  170MOL0     H22409   3.592   3.331   6.057  1.1884 -0.0238 -1.5711
  170MOL0     H22410   3.535   3.516   6.228  0.9084  0.6278 -2.5807
  170MOL0     H22411   3.609   3.409   6.353  1.7628 -0.5592 -0.6396
  170MOL0     H22412   3.368   3.382   6.327 -0.6032  2.3468 -2.0927
  170MOL0     H22413   3.389   3.322   6.165  3.0543  0.4094 -2.1228
  170MOL0     H22414   3.479   3.188   6.430  0.8780  2.6993 -0.7128
  170MOL0     H22415   3.507   3.114   6.270  0.6336 -1.0166  1.0147
  170MOL0     H22416   3.324   3.009   6.365  0.1400 -0.4218 -1.4364
  170MOL0     H22417   3.278   3.110   6.228  1.9781 -1.3541 -1.2774
  170MOL0     H22418   3.229   3.156   6.527  2.6209  0.3360 -0.9330
  170MOL0     H22419   3.178   3.277   6.412 -2.0327 -0.3391 -3.1807
  170MOL0     H22420   3.098   2.977   6.437  1.9954 -0.4493 -3.0086
  170MOL0     H22421   3.038   3.075   6.309  2.5958 -1.2021 -0.6939
  170MOL0     H22422   3.893   3.660   5.997  2.4321  2.0089  1.2622
  170MOL0     H22423   4.083   3.758   5.909  0.6574 -0.7305 -2.9497
  170MOL0     H22424   4.404   3.846   5.714 -0.9733  0.6487  1.9776
  170MOL0     H22425   4.592   3.994   5.663  2.8570  1.0106  0.1894
  170MOL0     H22426   5.895   2.808   5.267  1.8852 -0.6781  0.3970
  170MOL0     H22427   6.154   2.820   5.213  2.0848  1.9530  0.8592
  170MOL0     H22428   6.568   3.217   5.322  2.0907  1.7157  0.1017
  170MOL0     H22429   6.787   3.251   5.266 -0.1428  0.8592  1.0035
  170MOL0     H22430   6.947   2.953   4.967  1.2816 -1.2800 -2.4925
  170MOL0     H22431   7.083   3.019   5.023  0.5844  0.5621 -2.6718
  170MOL0     H22432   7.050   3.089   4.786 -1.3629 -1.6283 -1.0994
  170MOL0     H22433   6.896   3.164   4.829  2.2755  1.6906 -1.5258
  170MOL0     H22434   7.026   3.347   4.930 -2.5230 -1.4806 -1.8153
  170MOL0     H22435   7.108   3.300   4.777  0.0657 -3.7459 -1.9642
  170MOL0     H22436   7.268   3.349   4.922  1.2014 -0.8920 -0.2669
  170MOL0     H22437   7.188   3.234   5.041 -0.2929  1.2505  0.1429
  170MOL0     H22438   7.434   2.999   4.774  2.5238  0.7650  2.0400
  170MOL0     H22439   6.734   2.976   4.939 -0.7836 -0.0144 -1.8101
  170MOL0     H22440   6.484   2.987   4.968  0.2386 -3.1922  2.2473
  171MOL0     O22441   0.963   7.536   7.496 -0.7673 -0.6739  0.1827
  171MOL0     C22442   1.014   7.426   7.528 -0.3081 -0.2662 -0.2206
  171MOL0     O22443   0.981   7.356   7.640  0.6694 -0.2527 -0.1827
  171MOL0     C22444   0.869   7.398   7.711 -0.3513 -0.0883 -0.0836
  171MOL0     C22445   0.755   7.319   7.691 -0.3459  0.6846 -0.2402
  171MOL0     C22446   0.631   7.352   7.756  0.1583  0.1283  0.5359
  171MOL0     C22447   0.619   7.471   7.831  0.3044  0.2924 -0.7075
  171MOL0     O22448   0.505   7.528   7.876  0.3177 -0.0896 -0.2001
  171MOL0     C22449   0.375   7.463   7.865 -0.4611 -0.0787  0.9114
  171MOL0     C22450   0.361   7.356   7.964  1.0689  0.0772 -0.3983
  171MOL0     C22451   0.228   7.281   7.940  0.2901 -0.6717  1.2023
  171MOL0     C22452   0.189   7.194   8.058  1.5388 -0.3510 -0.2609
  171MOL0     C22453   0.072   7.096   8.036  0.2391 -0.5461 -0.2855
  171MOL0     C22454  -0.071   7.168   8.017  0.1136 -0.1122 -0.0197
  171MOL0     C22455  -0.187   7.067   7.993 -0.9435 -0.5897  0.0811
  171MOL0     C22456  -0.198   7.051   7.842 -0.4103 -0.7205 -0.0458
  171MOL0     N22457  -0.319   6.973   7.802 -0.3855  0.3226  0.8761
  171MOL0     C22458  -0.440   6.942   7.869  0.1388  0.9095  0.4574
  171MOL0     C22459  -0.521   6.854   7.786  0.0139  0.4136 -0.4704
  171MOL0     C22460  -0.653   6.789   7.826 -0.7842 -0.2291  0.1848
  171MOL0     C22461  -0.675   6.660   7.757  0.9830  0.9618 -0.4844
  171MOL0     C22462  -0.737   6.688   7.623  0.0661 -0.6290 -0.7702
  171MOL0     C22463  -0.698   6.584   7.525  0.4212  0.3612 -0.5845
  171MOL0     O22464  -0.709   6.443   7.566 -0.2190 -0.5708 -1.1038
  171MOL0     C22465  -0.834   6.390   7.583 -0.9755 -0.2868  0.3046
  171MOL0     C22466  -0.855   6.290   7.678 -0.1353 -0.6167 -1.1595
  171MOL0     C22467  -0.980   6.234   7.690 -0.0003  0.7925 -0.5552
  171MOL0     C22468  -1.091   6.254   7.601 -0.2569 -0.4443 -0.4051
  171MOL0     C22469  -1.215   6.182   7.608 -0.7311 -0.0660  0.4765
  171MOL0     O22470  -1.232   6.117   7.726 -1.0514 -0.5861 -0.5539
  171MOL0     C22471  -1.340   6.030   7.737 -0.9002 -0.0322 -0.2936
  171MOL0     C22472  -1.468   6.067   7.692  1.0918 -0.2148 -0.1651
  171MOL0     C22473  -1.577   5.988   7.727  0.7262  0.2565 -1.3044
  171MOL0     C22474  -1.569   5.863   7.784 -0.6164 -0.0994  0.1317
  171MOL0     O22475  -1.676   5.779   7.807  0.2794 -0.6320 -0.3573
  171MOL0     C22476  -1.806   5.830   7.776  0.6275  0.3405 -0.4754
  171MOL0     C22477  -1.901   5.752   7.864 -0.0305  0.1634 -0.1392
  171MOL0     C22478  -2.055   5.759   7.844 -0.1032 -0.1343  0.6963
  171MOL0     C22479  -2.133   5.687   7.951 -0.0149 -0.1128  0.0975
  171MOL0     C22480  -2.279   5.680   7.904  0.3793 -0.3412 -0.4573
  171MOL0     C22481  -2.379   5.611   7.994  0.1035  0.0827 -1.4616
  171MOL0     C22482  -2.511   5.582   7.913  0.9551  0.4957 -0.0681
  171MOL0     C22483  -2.612   5.551   8.023 -0.3411 -0.1206 -0.8558
  171MOL0    Cl22484  -2.783   5.550   7.955 -0.2312  0.3958  0.2303
  171MOL0     C22485  -1.437   5.816   7.819 -0.0593 -0.8614 -0.0196
  171MOL0     C22486  -1.322   5.907   7.800 -0.3158 -0.0649  0.0555
  171MOL0     O22487  -1.291   6.188   7.512  0.3051 -0.6889 -0.3362
  171MOL0     C22488  -1.058   6.351   7.500 -0.1109 -0.4908  0.9417
  171MOL0     C22489  -0.936   6.417   7.489 -0.1403  0.2528  0.2779
  171MOL0     N22490  -0.435   6.834   7.678  0.5624  0.3710  0.1305
  171MOL0     N22491  -0.328   6.899   7.688 -0.0512  0.2566  0.4634
  171MOL0     C22492   0.735   7.542   7.846  0.3991 -0.5279  1.0605
  171MOL0     C22493   0.862   7.514   7.780  0.0213 -0.4988  0.3935
  171MOL0     C22494   1.112   7.383   7.425  0.4883 -0.2951 -0.7608
  171MOL0     C22495   1.124   7.428   7.298  0.2185  0.1874  0.4775
  171MOL0     C22496   1.226   7.392   7.208 -0.8642 -0.2051 -0.1694
  171MOL0     C22497   1.318   7.300   7.247 -0.2588 -0.3144 -0.0097
  171MOL0     O22498   1.439   7.254   7.186  1.1267 -0.4538 -0.1752
  171MOL0     C22499   1.480   7.336   7.077  0.5919 -0.1528 -0.0375
  171MOL0     C22500   1.622   7.297   7.039  0.2554 -1.3421  0.0447
  171MOL0     C22501   1.655   7.385   6.920 -0.1843 -0.2537  0.5115
  171MOL0     C22502   1.794   7.372   6.875 -0.4237 -0.2146 -0.2372
  171MOL0     C22503   1.900   7.387   6.982  0.1462  0.2890 -0.0469
  171MOL0     C22504   1.984   7.406   7.070  0.0341 -0.2339  1.1992
  171MOL0     C22505   1.311   7.243   7.373  0.5888  0.5956 -0.2380
  171MOL0     C22506   1.212   7.292   7.464 -0.5775 -0.1209 -0.5485
  171MOL0     H22507   0.758   7.228   7.631 -0.3804 -0.4451  1.4118
  171MOL0     H22508   0.548   7.284   7.742  0.6898 -0.0301 -2.3665
  171MOL0     H22509   0.361   7.418   7.767  0.3124  2.0708 -0.2606
  171MOL0     H22510   0.297   7.537   7.881 -1.3322 -0.9974  0.9754
  171MOL0     H22511   0.353   7.400   8.064 -0.3166 -2.6493  0.8091
  171MOL0     H22512   0.451   7.294   7.965  1.8603  1.1429 -2.1916
  171MOL0     H22513   0.222   7.226   7.846 -1.5640 -0.2631  1.0431
  171MOL0     H22514   0.146   7.351   7.919 -0.5602 -2.2296 -1.0437
  171MOL0     H22515   0.279   7.143   8.090  1.6456  0.0519  0.0942
  171MOL0     H22516   0.166   7.267   8.136 -1.2515 -1.6866  0.2862
  171MOL0     H22517   0.054   7.038   8.127 -0.1748  3.2911  2.3152
  171MOL0     H22518   0.091   7.027   7.953 -1.5128  1.1282 -2.2008
  171MOL0     H22519  -0.067   7.241   7.934 -2.8836  0.1191 -0.0373
  171MOL0     H22520  -0.099   7.219   8.110  1.9713 -0.9049  1.0242
  171MOL0     H22521  -0.162   6.978   8.052  0.8925 -1.9059 -2.5118
  171MOL0     H22522  -0.276   7.121   8.027 -0.2566  2.4826 -2.5756
  171MOL0     H22523  -0.104   7.005   7.808  0.5044 -0.4451  1.9410
  171MOL0     H22524  -0.204   7.151   7.798  3.8109  1.3050  3.1797
  171MOL0     H22525  -0.470   6.964   7.971 -2.7023 -1.4040  0.2456
  171MOL0     H22526  -0.740   6.855   7.813 -0.2460  0.6864  1.0637
  171MOL0     H22527  -0.638   6.768   7.932 -0.3505 -0.6197  0.0445
  171MOL0     H22528  -0.752   6.620   7.823 -0.1771  3.4583 -0.2265
  171MOL0     H22529  -0.583   6.601   7.746  2.1594  3.1355 -3.5967
  171MOL0     H22530  -0.846   6.678   7.631  0.1538 -3.2788 -1.6571
  171MOL0     H22531  -0.711   6.783   7.575 -4.1323  1.0618 -0.0952
  171MOL0     H22532  -0.596   6.605   7.490  0.6630 -0.6259 -0.5101
  171MOL0     H22533  -0.746   6.596   7.428 -0.1044  1.5713 -0.1887
  171MOL0     H22534  -0.778   6.255   7.746 -0.8612  0.8810  0.5405
  171MOL0     H22535  -0.992   6.165   7.773  1.1868 -0.8396 -1.6597
  171MOL0     H22536  -1.478   6.170   7.659 -2.3441  1.9019  5.9422
  171MOL0     H22537  -1.669   6.034   7.692 -0.6022 -1.6652 -0.5511
  171MOL0     H22538  -1.828   5.807   7.671  1.4509 -1.5041 -0.2685
  171MOL0     H22539  -1.827   5.932   7.810  0.0519 -0.0575  0.4011
  171MOL0     H22540  -1.871   5.778   7.965  2.3291 -0.5485 -0.6106
  171MOL0     H22541  -1.874   5.647   7.849  1.2311  0.3473  0.7002
  171MOL0     H22542  -2.090   5.718   7.749 -0.9155  0.3350  0.7811
  171MOL0     H22543  -2.082   5.865   7.848  0.1284 -0.1275  2.9829
  171MOL0     H22544  -2.098   5.584   7.953 -2.3440 -0.9391  0.2987
  171MOL0     H22545  -2.114   5.737   8.047 -2.9048  0.6416  0.3678
  171MOL0     H22546  -2.272   5.625   7.809  0.0211  0.5790 -1.0349
  171MOL0     H22547  -2.317   5.781   7.888  1.3721 -0.0431 -1.0345
  171MOL0     H22548  -2.402   5.687   8.068  0.7710 -0.2796 -0.8661
  171MOL0     H22549  -2.342   5.522   8.046 -2.8272 -0.9399 -0.9800
  171MOL0     H22550  -2.549   5.669   7.859  1.3561  0.1720 -0.8897
  171MOL0     H22551  -2.489   5.516   7.828 -5.8426 -2.1078 -0.4683
  171MOL0     H22552  -2.612   5.612   8.114 -0.5637 -0.3984 -0.6633
  171MOL0     H22553  -2.582   5.456   8.069 -1.1806  0.4640  1.0257
  171MOL0     H22554  -1.424   5.719   7.865 -2.6711 -0.3733  1.9511
  171MOL0     H22555  -1.229   5.873   7.845 -0.2826 -1.9875 -1.3150
  171MOL0     H22556  -1.130   6.394   7.431 -0.2129  0.9217  1.8833
  171MOL0     H22557  -0.927   6.482   7.402  2.8057 -0.0660  0.2313
  171MOL0     H22558   0.723   7.641   7.888 -1.6861 -0.8622  1.3301
  171MOL0     H22559   0.943   7.585   7.789  0.2252 -0.3149 -2.2368
  171MOL0     H22560   1.047   7.496   7.262  0.8861  0.0598 -1.3353
  171MOL0     H22561   1.239   7.443   7.113  3.5969 -1.1125 -0.2472
  171MOL0     H22562   1.477   7.440   7.110  0.9914  0.7065 -2.4497
  171MOL0     H22563   1.411   7.327   6.992 -0.0155  1.4372  0.2511
  171MOL0     H22564   1.685   7.318   7.126 -1.6249  0.4348  1.0523
  171MOL0     H22565   1.635   7.193   7.008  4.2400 -0.6778 -1.1158
  171MOL0     H22566   1.620   7.486   6.942  1.9599  0.7263 -0.2848
  171MOL0     H22567   1.592   7.347   6.839  0.4058 -1.0757  0.4140
  171MOL0     H22568   1.810   7.278   6.820  0.4148  0.4846 -1.2277
  171MOL0     H22569   1.820   7.451   6.804  2.4569  2.1270  3.0742
  171MOL0     H22570   2.065   7.434   7.134  1.7593 -0.8314 -0.6090
  171MOL0     H22571   1.384   7.172   7.410  1.2722  3.0672  3.7970
  171MOL0     H22572   1.210   7.251   7.564  0.9067 -0.6901 -0.7202
  172MOL0     O22573   3.484   1.093   3.357  0.1093 -0.3167  0.0324
  172MOL0     C22574   3.386   1.060   3.419  0.9021 -0.1518 -0.5969
  172MOL0     O22575   3.365   1.059   3.551 -0.1568  0.0110  0.3429
  172MOL0     C22576   3.461   1.105   3.632  0.0709  0.0155  0.7719
  172MOL0     C22577   3.597   1.068   3.632  0.1805 -0.2815  0.7462
  172MOL0     C22578   3.692   1.127   3.721  0.1063  0.4983  0.2313
  172MOL0     C22579   3.651   1.230   3.798 -0.6286 -0.6632 -0.0113
  172MOL0     O22580   3.740   1.312   3.869 -0.1588  0.1638  0.2680
  172MOL0     C22581   3.750   1.290   4.005  0.0040 -0.0363 -0.5630
  172MOL0     C22582   3.838   1.395   4.063 -0.7780  0.3491 -0.3108
  172MOL0     C22583   3.825   1.413   4.217  0.1981 -0.3839  0.1164
  172MOL0     C22584   3.944   1.475   4.287 -0.4434 -0.5405  0.1001
  172MOL0     C22585   3.925   1.511   4.434 -0.1128 -0.3838  1.0468
  172MOL0     C22586   3.912   1.382   4.513 -0.7373  0.2974 -1.8357
  172MOL0     C22587   3.900   1.401   4.666 -0.0614 -0.3475 -0.4183
  172MOL0     C22588   3.832   1.298   4.740  0.1622 -0.1528  0.4515
  172MOL0     N22589   3.818   1.331   4.881  0.0818  0.2730 -0.4354
  172MOL0     C22590   3.745   1.428   4.947 -0.0387  0.2561 -1.0295
  172MOL0     C22591   3.772   1.408   5.081  0.3106 -0.1852  0.6108
  172MOL0     C22592   3.714   1.455   5.209  0.9875 -1.1225 -0.5153
  172MOL0     C22593   3.562   1.423   5.208  0.3654  0.1018  1.0274
  172MOL0     C22594   3.491   1.484   5.324 -0.0453 -0.4248 -0.5404
  172MOL0     C22595   3.345   1.451   5.331  0.3124  0.0513  0.2271
  172MOL0     O22596   3.267   1.492   5.216 -0.3368 -0.1562 -0.4117
  172MOL0     C22597   3.139   1.441   5.197  0.2358 -0.0319 -0.3913
  172MOL0     C22598   3.114   1.305   5.205  0.6302 -0.4593 -0.4906
  172MOL0     C22599   2.974   1.260   5.200 -1.0158  0.5701  0.2189
  172MOL0     C22600   2.872   1.346   5.164  0.7442 -0.2463  0.2876
  172MOL0     C22601   2.728   1.302   5.155 -0.1745  0.7252 -0.5785
  172MOL0     O22602   2.638   1.391   5.133 -0.4862  0.5453  0.6310
  172MOL0     C22603   2.506   1.352   5.118 -0.3647 -0.5072  0.0782
  172MOL0     C22604   2.466   1.294   5.000 -0.4977 -0.7208  0.0221
  172MOL0     C22605   2.335   1.265   4.969 -0.3840 -0.3145 -0.3981
  172MOL0     C22606   2.236   1.290   5.055  0.3485  0.1964  0.1718
  172MOL0     O22607   2.103   1.267   5.036 -0.6014  0.4605  0.4676
  172MOL0     C22608   2.046   1.295   4.900 -0.8607  0.1158 -0.4003
  172MOL0     C22609   1.910   1.352   4.897 -0.3633  0.5903 -0.1961
  172MOL0     C22610   1.817   1.247   4.965  0.5800  0.3346 -0.2244
  172MOL0     C22611   1.779   1.124   4.881 -0.1973  0.1194 -0.1026
  172MOL0     C22612   1.640   1.059   4.913  0.0196 -0.0664  0.6826
  172MOL0     C22613   1.619   1.021   5.063 -0.2532  0.3792  0.4561
  172MOL0     C22614   1.482   0.965   5.096 -0.6076 -0.7283 -0.5032
  172MOL0     C22615   1.456   0.962   5.244 -1.1983 -0.2437 -0.6643
  172MOL0    Cl22616   1.296   0.894   5.284 -0.5309  0.1454  0.7865
  172MOL0     C22617   2.271   1.329   5.190 -0.2366  0.0783 -0.2745
  172MOL0     C22618   2.410   1.361   5.213  0.3356 -0.1942 -0.3097
  172MOL0     O22619   2.713   1.175   5.153  0.1702 -0.2400  0.0748
  172MOL0     C22620   2.903   1.483   5.146 -0.1604 -0.0684  0.2598
  172MOL0     C22621   3.032   1.531   5.158 -0.5415  0.1422  0.0145
  172MOL0     N22622   3.873   1.307   5.086 -0.5684 -0.8404 -0.2299
  172MOL0     N22623   3.907   1.268   4.970  0.1345  0.4016 -0.3536
  172MOL0     C22624   3.515   1.267   3.798 -0.4307 -0.7839  0.6532
  172MOL0     C22625   3.419   1.202   3.728 -0.2445  0.6001  0.5416
  172MOL0     C22626   3.262   1.049   3.327  0.2381 -0.3337 -0.2943
  172MOL0     C22627   3.141   0.999   3.385  0.2385 -1.2216  0.0461
  172MOL0     C22628   3.024   1.005   3.315  0.2916 -0.1569  0.3462
  172MOL0     C22629   3.016   1.047   3.182 -0.5563  0.4600 -0.4490
  172MOL0     O22630   2.888   1.036   3.125 -0.4582  0.1067  0.4831
  172MOL0     C22631   2.876   1.053   2.980  0.1847  0.6572 -0.3312
  172MOL0     C22632   2.735   1.019   2.929  0.0663 -0.4463 -0.9223
  172MOL0     C22633   2.699   0.868   2.957 -0.1460 -1.2298 -0.3074
  172MOL0     C22634   2.594   0.873   3.063  0.1984 -0.1377 -0.8642
  172MOL0     C22635   2.466   0.881   2.996 -0.2584  0.5137  0.0001
  172MOL0     C22636   2.357   0.901   2.950  0.0280  1.0146  0.1794
  172MOL0     C22637   3.132   1.084   3.113 -0.5331 -0.6228  0.7880
  172MOL0     C22638   3.256   1.099   3.188 -0.2948  0.3330  0.6978
  172MOL0     H22639   3.624   0.993   3.559  2.7692  0.1617  1.1804
  172MOL0     H22640   3.798   1.104   3.716  0.0542  0.4788 -0.9104
  172MOL0     H22641   3.788   1.192   4.035 -1.0690 -0.3198 -0.0999
  172MOL0     H22642   3.649   1.289   4.048  0.7612 -0.3294  1.2955
  172MOL0     H22643   3.819   1.488   4.010  1.8314  1.5233  0.6310
  172MOL0     H22644   3.941   1.360   4.051  0.4397  2.0184  3.5058
  172MOL0     H22645   3.807   1.316   4.263  3.6988 -1.6175 -0.8160
  172MOL0     H22646   3.730   1.468   4.223 -1.4806 -3.0222 -0.3520
  172MOL0     H22647   4.029   1.407   4.280 -0.7281 -1.5456  3.9041
  172MOL0     H22648   3.966   1.564   4.228 -2.0072 -0.5874 -0.6051
  172MOL0     H22649   3.842   1.581   4.438 -0.8273 -1.0835 -0.7197
  172MOL0     H22650   4.013   1.570   4.461  1.3761 -1.7251 -0.6284
  172MOL0     H22651   3.995   1.313   4.498  0.9129  0.9513  2.6320
  172MOL0     H22652   3.815   1.340   4.487 -1.8285  0.2652  1.7471
  172MOL0     H22653   3.996   1.420   4.713 -0.7314  0.3354  0.7234
  172MOL0     H22654   3.841   1.492   4.678  0.5485 -0.1688  1.6742
  172MOL0     H22655   3.893   1.208   4.732 -0.9894 -1.1138  1.9503
  172MOL0     H22656   3.730   1.284   4.704  0.5276  4.4048 -3.1790
  172MOL0     H22657   3.668   1.497   4.916 -0.7056  1.6715  3.2304
  172MOL0     H22658   3.725   1.564   5.203 -1.5474 -0.8684 -4.4298
  172MOL0     H22659   3.764   1.413   5.297  1.5033  2.6761  1.2471
  172MOL0     H22660   3.542   1.316   5.215 -3.0179  0.5155 -0.0859
  172MOL0     H22661   3.506   1.457   5.120 -0.8727 -0.4417  1.5760
  172MOL0     H22662   3.547   1.472   5.418  0.6280  0.6081 -0.7878
  172MOL0     H22663   3.489   1.593   5.313 -1.5525 -0.2555  0.9230
  172MOL0     H22664   3.309   1.498   5.423 -2.2756  0.3220 -0.8557
  172MOL0     H22665   3.340   1.342   5.340  1.6401 -0.2915 -2.3638
  172MOL0     H22666   3.195   1.240   5.236  1.9790  0.7083 -1.4264
  172MOL0     H22667   2.953   1.156   5.222 -0.2813 -0.1447 -2.0864
  172MOL0     H22668   2.537   1.282   4.919 -0.8163  0.6469 -0.4830
  172MOL0     H22669   2.303   1.241   4.868 -0.4014  0.0485 -0.4773
  172MOL0     H22670   2.054   1.203   4.841  3.6673 -0.0166  0.0696
  172MOL0     H22671   2.105   1.363   4.839 -2.1895  1.7150  0.0002
  172MOL0     H22672   1.884   1.370   4.792 -4.3023 -0.2274  0.4741
  172MOL0     H22673   1.904   1.439   4.963  1.2317 -0.4121  1.3518
  172MOL0     H22674   1.722   1.300   4.976  2.4477  3.9762  0.2106
  172MOL0     H22675   1.848   1.221   5.066  0.3984  2.8159  0.5332
  172MOL0     H22676   1.790   1.141   4.773 -1.3754 -1.5680 -0.5325
  172MOL0     H22677   1.857   1.050   4.903 -0.0212  0.8764  2.1054
  172MOL0     H22678   1.632   0.976   4.842  0.4475  0.1686  0.3534
  172MOL0     H22679   1.553   1.118   4.883  0.8054 -0.8491 -3.7636
  172MOL0     H22680   1.631   1.111   5.124  0.4529  1.7493 -1.5902
  172MOL0     H22681   1.699   0.951   5.088 -2.2954 -3.6180 -2.8870
  172MOL0     H22682   1.392   1.013   5.056 -0.2912  0.6994  0.3990
  172MOL0     H22683   1.479   0.866   5.050 -2.4367 -0.6483 -0.6464
  172MOL0     H22684   1.458   1.067   5.278  0.4059 -0.4583  0.0039
  172MOL0     H22685   1.531   0.906   5.300 -0.9379  2.7248  2.3455
  172MOL0     H22686   2.190   1.347   5.259 -1.3193  0.2746 -1.5559
  172MOL0     H22687   2.438   1.401   5.310  2.0637 -1.3362 -0.3064
  172MOL0     H22688   2.826   1.551   5.110  0.2291 -0.9488 -2.4548
  172MOL0     H22689   3.055   1.637   5.157  1.4112 -0.2037  1.5244
  172MOL0     H22690   3.495   1.355   3.858  2.9686  0.3442  0.3519
  172MOL0     H22691   3.314   1.230   3.729 -0.8040 -1.2591 -0.5717
  172MOL0     H22692   3.134   0.993   3.493 -1.3930  4.1660  0.5235
  172MOL0     H22693   2.925   0.980   3.352  0.4270  1.3111  1.8178
  172MOL0     H22694   2.947   0.989   2.927  2.3394  0.9546  2.0084
  172MOL0     H22695   2.891   1.158   2.952 -0.7867  0.2368 -2.6123
  172MOL0     H22696   2.658   1.087   2.967  1.9329  0.8612  0.7472
  172MOL0     H22697   2.733   1.011   2.820  2.3420 -0.7088 -0.9932
  172MOL0     H22698   2.789   0.818   2.995 -0.0333 -0.7796  0.0326
  172MOL0     H22699   2.670   0.813   2.867  1.0430 -2.0014 -0.2360
  172MOL0     H22700   2.612   0.789   3.130  1.4597  1.5166  0.9716
  172MOL0     H22701   2.587   0.957   3.132  0.1695 -1.9514  1.4346
  172MOL0     H22702   2.264   0.945   2.920  0.6398  1.7619 -0.6690
  172MOL0     H22703   3.125   1.130   3.015 -1.4494 -2.7712 -0.2155
  172MOL0     H22704   3.340   1.142   3.134 -2.8858  1.4086 -2.8498
  173MOL0     O22705   5.236   2.141   2.526 -1.0594  0.0427 -0.0079
  173MOL0     C22706   5.204   2.025   2.544  0.9701  0.4620 -1.0597
  173MOL0     O22707   5.086   1.975   2.502 -0.7643  0.3427 -0.2240
  173MOL0     C22708   5.006   2.044   2.423  0.6200 -0.3485  1.0630
  173MOL0     C22709   5.047   2.128   2.321 -0.2145  0.1819  0.3331
  173MOL0     C22710   4.952   2.209   2.253  0.2683 -0.2966 -0.1686
  173MOL0     C22711   4.815   2.197   2.268  0.0356 -0.1567 -0.1267
  173MOL0     O22712   4.714   2.257   2.194 -0.5014  0.0064  0.2503
  173MOL0     C22713   4.741   2.358   2.092  0.2758 -1.0205 -0.7064
  173MOL0     C22714   4.610   2.435   2.059 -0.6165  0.4607  1.0527
  173MOL0     C22715   4.527   2.340   1.963  0.3032  0.5253 -0.1402
  173MOL0     C22716   4.400   2.415   1.923 -0.9165  0.6687  0.1288
  173MOL0     C22717   4.293   2.330   1.840  0.4242 -0.0302 -0.2075
  173MOL0     C22718   4.349   2.260   1.709  1.2130  0.6678 -0.4835
  173MOL0     C22719   4.435   2.358   1.621  0.2813 -0.4836  0.3949
  173MOL0     C22720   4.465   2.315   1.475 -1.0531 -0.7072 -0.3500
  173MOL0     N22721   4.351   2.277   1.395  0.2246  0.2440  0.3440
  173MOL0     C22722   4.224   2.330   1.399 -1.0261  0.3211 -0.3933
  173MOL0     C22723   4.153   2.282   1.295  0.1781 -0.4790  0.1595
  173MOL0     C22724   4.016   2.330   1.260  0.1155 -0.0745  0.2851
  173MOL0     C22725   3.910   2.226   1.303 -0.0744 -0.6489  0.6477
  173MOL0     C22726   3.881   2.243   1.450  0.2768  0.3011  0.1543
  173MOL0     C22727   3.822   2.116   1.508  0.2242 -0.5257  0.0271
  173MOL0     O22728   3.890   2.001   1.474 -0.5317  0.8280  0.0011
  173MOL0     C22729   4.019   1.984   1.521 -0.4103  0.3624 -0.2256
  173MOL0     C22730   4.120   1.950   1.433 -0.0494 -0.2221  0.8628
  173MOL0     C22731   4.246   1.919   1.478 -0.6829 -0.6224 -0.1922
  173MOL0     C22732   4.273   1.914   1.614 -0.5124  0.8937  0.5251
  173MOL0     C22733   4.403   1.879   1.665 -0.7294 -0.8450 -0.6963
  173MOL0     O22734   4.420   1.839   1.796  0.5961  1.0076 -0.4144
  173MOL0     C22735   4.551   1.812   1.835  0.2308  0.4662  0.3564
  173MOL0     C22736   4.593   1.900   1.926  0.1365  0.4226  0.2462
  173MOL0     C22737   4.700   1.874   1.996 -0.1918  0.3153 -0.6574
  173MOL0     C22738   4.779   1.756   1.976  0.5206 -0.5953 -0.2621
  173MOL0     O22739   4.890   1.731   2.041  0.6937 -0.5608 -0.1894
  173MOL0     C22740   4.922   1.805   2.163 -0.6588 -0.6672  0.0488
  173MOL0     C22741   5.061   1.760   2.216 -0.5039  0.5729 -0.1987
  173MOL0     C22742   5.176   1.763   2.111  0.2087 -0.8485  0.7984
  173MOL0     C22743   5.304   1.711   2.172  0.3825 -0.0166  0.4484
  173MOL0     C22744   5.317   1.557   2.132 -0.3556  1.0574  0.6971
  173MOL0     C22745   5.424   1.498   2.218 -0.1363 -0.0729 -0.2791
  173MOL0     C22746   5.427   1.345   2.217  0.4454 -0.0418 -0.5380
  173MOL0     C22747   5.553   1.301   2.290 -0.5367  0.4820  0.5902
  173MOL0    Cl22748   5.558   1.120   2.293 -0.1405 -0.0210 -0.3282
  173MOL0     C22749   4.733   1.669   1.876 -0.6616 -0.2995 -0.2920
  173MOL0     C22750   4.622   1.697   1.807 -0.2356 -1.3131 -0.0985
  173MOL0     O22751   4.495   1.897   1.590 -0.0632 -0.5818  0.8885
  173MOL0     C22752   4.174   1.940   1.708  0.1798  0.1706  0.4814
  173MOL0     C22753   4.045   1.982   1.663  0.1570  0.4475  0.3493
  173MOL0     N22754   4.245   2.205   1.230  0.3605  0.9968 -0.1493
  173MOL0     N22755   4.362   2.199   1.280 -0.0618 -0.6204 -0.4238
  173MOL0     C22756   4.772   2.105   2.357  0.0582  0.1557 -0.7996
  173MOL0     C22757   4.865   2.029   2.437  0.2178 -0.5802 -0.8626
  173MOL0     C22758   5.292   1.935   2.612 -0.0170 -0.0229 -0.0074
  173MOL0     C22759   5.418   1.982   2.645 -0.1993  0.3386 -0.0701
  173MOL0     C22760   5.512   1.890   2.690  0.3312 -0.1137  1.5129
  173MOL0     C22761   5.478   1.763   2.711  0.4902  1.0654 -0.2613
  173MOL0     O22762   5.558   1.659   2.755  0.6219 -0.5643  0.0497
  173MOL0     C22763   5.702   1.696   2.760  0.7979 -0.0692  1.4544
  173MOL0     C22764   5.771   1.572   2.801 -0.3007  0.3682 -0.8645
  173MOL0     C22765   5.920   1.602   2.868  0.3740 -1.1691 -0.0934
  173MOL0     C22766   6.011   1.692   2.788 -0.3294  0.2506  0.1587
  173MOL0     C22767   6.150   1.674   2.839 -1.1610  0.6198  0.0028
  173MOL0     C22768   6.268   1.662   2.874 -0.7993 -0.8174 -0.6936
  173MOL0     C22769   5.351   1.712   2.687 -0.5365 -1.1523  0.0703
  173MOL0     C22770   5.256   1.805   2.642  0.5149  0.6797  0.1155
  173MOL0     H22771   5.151   2.140   2.292 -0.6759  0.2716 -1.3971
  173MOL0     H22772   4.990   2.294   2.197 -3.9545  3.1479  1.6220
  173MOL0     H22773   4.792   2.321   2.002  1.2285 -0.3590 -0.4611
  173MOL0     H22774   4.813   2.422   2.145  1.1381 -2.5404  0.0047
  173MOL0     H22775   4.633   2.531   2.011 -2.5973 -0.3760 -1.8337
  173MOL0     H22776   4.548   2.453   2.147  0.7821  2.4074  1.6986
  173MOL0     H22777   4.509   2.252   2.026  0.0506  0.8689  0.2783
  173MOL0     H22778   4.592   2.308   1.882 -1.2031  1.8335 -1.9562
  173MOL0     H22779   4.346   2.455   2.010  0.9391  4.9471 -0.4578
  173MOL0     H22780   4.433   2.501   1.865  4.3703 -0.1342  1.4622
  173MOL0     H22781   4.216   2.406   1.827  2.3300  2.2957  1.1883
  173MOL0     H22782   4.250   2.251   1.902  0.3590  0.6514  0.6339
  173MOL0     H22783   4.265   2.222   1.650  0.8127  0.9253 -0.0911
  173MOL0     H22784   4.424   2.182   1.725 -0.8734 -1.3468 -0.0613
  173MOL0     H22785   4.389   2.456   1.626 -0.0754 -0.7187  2.9294
  173MOL0     H22786   4.536   2.363   1.663  0.1865 -0.1787  0.5849
  173MOL0     H22787   4.536   2.232   1.476 -0.4915 -0.2360  0.9479
  173MOL0     H22788   4.504   2.405   1.426 -0.4499 -0.1085  1.1829
  173MOL0     H22789   4.188   2.401   1.473 -1.6086  1.2506 -1.5350
  173MOL0     H22790   3.999   2.345   1.153  0.9665  1.7021  0.3591
  173MOL0     H22791   4.008   2.425   1.313  3.8803  1.8813 -2.1764
  173MOL0     H22792   3.955   2.128   1.284 -0.4373 -1.3035  2.8611
  173MOL0     H22793   3.819   2.239   1.242  2.2926 -0.1124 -3.1019
  173MOL0     H22794   3.976   2.260   1.501  0.3554 -1.8391  0.8039
  173MOL0     H22795   3.812   2.325   1.474  2.7453  2.2857  0.9805
  173MOL0     H22796   3.721   2.107   1.466  0.1030  1.1882 -0.0923
  173MOL0     H22797   3.822   2.124   1.617  3.4593  0.5566  0.0708
  173MOL0     H22798   4.116   1.956   1.325 -0.0139  1.7636  0.9346
  173MOL0     H22799   4.333   1.903   1.415 -0.7221  1.0324 -0.7118
  173MOL0     H22800   4.532   1.988   1.938  1.2839  1.5397 -1.6779
  173MOL0     H22801   4.721   1.960   2.059  1.1143 -1.0073  0.7942
  173MOL0     H22802   4.845   1.793   2.240 -1.5318 -1.8353 -0.9550
  173MOL0     H22803   4.921   1.909   2.131 -3.7423  0.4753  3.1295
  173MOL0     H22804   5.045   1.655   2.243 -0.9717  0.3446 -1.3220
  173MOL0     H22805   5.099   1.821   2.298 -0.4650  0.3904 -0.0798
  173MOL0     H22806   5.199   1.867   2.086  0.9932 -0.6221  2.3194
  173MOL0     H22807   5.142   1.703   2.026  3.7947  0.7678 -2.0220
  173MOL0     H22808   5.387   1.768   2.130 -0.0436 -1.5370 -2.7583
  173MOL0     H22809   5.297   1.719   2.281 -0.0186 -0.8400  0.4936
  173MOL0     H22810   5.336   1.542   2.025 -0.3744 -0.8668  0.9346
  173MOL0     H22811   5.221   1.507   2.148 -1.6333  2.0812 -2.7425
  173MOL0     H22812   5.435   1.533   2.321  3.5720  1.1668 -0.9236
  173MOL0     H22813   5.517   1.523   2.165 -0.1136 -2.5604 -1.5764
  173MOL0     H22814   5.343   1.303   2.273  0.0887 -1.2019 -1.8860
  173MOL0     H22815   5.433   1.300   2.117  2.1417  2.1991 -1.5215
  173MOL0     H22816   5.562   1.330   2.395 -1.4874 -0.9695  1.1145
  173MOL0     H22817   5.634   1.343   2.231 -0.8419  2.5558  1.5492
  173MOL0     H22818   4.785   1.576   1.856  2.4679  1.0422  0.9999
  173MOL0     H22819   4.594   1.611   1.746  2.0055 -1.5308 -0.8820
  173MOL0     H22820   4.190   1.946   1.815 -1.9285  0.5975  0.8165
  173MOL0     H22821   3.968   1.985   1.740 -1.5017  1.3213 -1.2552
  173MOL0     H22822   4.667   2.080   2.373  0.4479 -0.8868  0.2366
  173MOL0     H22823   4.840   1.961   2.517  0.1077  2.4440  1.8670
  173MOL0     H22824   5.446   2.084   2.620  1.2070 -0.3359 -1.4456
  173MOL0     H22825   5.609   1.937   2.706 -0.1866  1.2553  0.7803
  173MOL0     H22826   5.705   1.762   2.847 -1.3328  0.1789  1.4016
  173MOL0     H22827   5.738   1.746   2.669 -3.8609  0.3193 -0.4703
  173MOL0     H22828   5.700   1.528   2.871 -0.5068 -0.8265 -1.7894
  173MOL0     H22829   5.778   1.500   2.719  0.6662  2.0784 -2.3524
  173MOL0     H22830   5.958   1.500   2.881  0.8002 -1.3633 -2.3718
  173MOL0     H22831   5.908   1.647   2.967  1.0699 -1.8035  0.2880
  173MOL0     H22832   6.006   1.670   2.681 -2.6164 -0.9137  0.4590
  173MOL0     H22833   5.976   1.793   2.809 -0.2045  0.3479 -0.1048
  173MOL0     H22834   6.371   1.651   2.904 -0.8102  0.3456 -0.1601
  173MOL0     H22835   5.329   1.608   2.707  2.0550 -1.9427 -0.7394
  173MOL0     H22836   5.159   1.763   2.615  1.1065 -0.5750 -0.1491
  174MOL0     O22837   6.149   3.682   4.547  0.6711  0.3824 -0.1439
  174MOL0     C22838   6.251   3.618   4.513  0.3015  0.4645  0.0965
  174MOL0     O22839   6.258   3.513   4.433 -0.5756 -0.8660 -0.2922
  174MOL0     C22840   6.140   3.472   4.368  0.9092 -0.4927  0.1404
  174MOL0     C22841   6.150   3.484   4.226  1.3471  0.2491 -0.5000
  174MOL0     C22842   6.039   3.447   4.137 -0.2991  0.2499 -0.8207
  174MOL0     C22843   5.911   3.417   4.199 -0.0327 -0.4160 -0.4739
  174MOL0     O22844   5.808   3.373   4.131 -0.6462 -0.2516 -0.4161
  174MOL0     C22845   5.786   3.400   3.992 -0.1840  0.7872 -0.1871
  174MOL0     C22846   5.637   3.401   3.964  0.9158 -0.6956  0.2842
  174MOL0     C22847   5.572   3.534   3.987  0.8447 -0.0282 -0.0447
  174MOL0     C22848   5.422   3.526   3.990  0.9654  0.2231  0.3291
  174MOL0     C22849   5.370   3.657   3.932  0.5437 -0.5141  0.6126
  174MOL0     C22850   5.207   3.645   3.933 -0.0640  0.0222  0.3476
  174MOL0     C22851   5.147   3.775   3.883 -0.4450  0.6816  0.3657
  174MOL0     C22852   5.057   3.840   3.989 -0.4431 -0.1401  0.1500
  174MOL0     N22853   5.121   3.885   4.116 -0.0874  0.7291 -0.4612
  174MOL0     C22854   5.070   3.883   4.240  0.3453  0.1959  1.0964
  174MOL0     C22855   5.172   3.924   4.322  0.6114 -0.4318 -0.4584
  174MOL0     C22856   5.160   3.936   4.467  0.4596  0.6922 -0.3813
  174MOL0     C22857   5.041   4.012   4.519  0.4478  0.8639 -0.9650
  174MOL0     C22858   5.048   4.158   4.471  0.7452 -0.0703  0.0460
  174MOL0     C22859   4.937   4.250   4.520 -0.7394  0.7904 -0.6109
  174MOL0     O22860   4.809   4.196   4.475 -0.4951 -0.7645 -0.6514
  174MOL0     C22861   4.707   4.275   4.510 -0.1690 -0.6158  0.2103
  174MOL0     C22862   4.586   4.246   4.453  0.5475  0.8083  0.1118
  174MOL0     C22863   4.474   4.316   4.489  0.8438 -0.2705 -0.1990
  174MOL0     C22864   4.478   4.421   4.580 -0.1861 -0.2057  1.4334
  174MOL0     C22865   4.350   4.488   4.615  0.6166 -0.0089  0.7741
  174MOL0     O22866   4.233   4.413   4.608 -0.4460 -0.4692  0.2736
  174MOL0     C22867   4.106   4.461   4.617 -0.9473 -0.3419  0.1344
  174MOL0     C22868   4.061   4.594   4.653  0.2129  0.2297 -0.6107
  174MOL0     C22869   3.921   4.614   4.661 -0.1604 -0.6443 -0.7312
  174MOL0     C22870   3.822   4.520   4.629  0.5850 -0.7805  0.1311
  174MOL0     O22871   3.689   4.550   4.634  0.2547 -0.0856  0.2553
  174MOL0     C22872   3.648   4.648   4.544  0.4261 -0.2414  0.0053
  174MOL0     C22873   3.492   4.636   4.511 -0.8931  0.3788  0.2365
  174MOL0     C22874   3.440   4.718   4.391 -0.3644  1.2736 -0.0792
  174MOL0     C22875   3.292   4.682   4.363 -0.5216 -1.1843  0.6218
  174MOL0     C22876   3.206   4.748   4.468 -0.7674 -0.3948 -0.5953
  174MOL0     C22877   3.073   4.793   4.413 -0.5741  1.5389 -0.4320
  174MOL0     C22878   2.991   4.875   4.510 -0.1936  0.5972 -0.3143
  174MOL0     C22879   2.884   4.786   4.585 -0.4799  0.2025  0.0755
  174MOL0    Cl22880   2.962   4.682   4.711  0.4439  0.1722 -0.1223
  174MOL0     C22881   3.871   4.401   4.580  1.0493 -0.9488  0.7556
  174MOL0     C22882   4.010   4.365   4.586 -0.1964 -0.0196  1.2172
  174MOL0     O22883   4.353   4.606   4.650  0.0937 -0.1914  0.3459
  174MOL0     C22884   4.601   4.468   4.629 -0.8102  0.5972 -0.0786
  174MOL0     C22885   4.711   4.387   4.599  0.7433  0.5663  0.2075
  174MOL0     N22886   5.280   3.955   4.241  0.8001 -0.6786  0.5861
  174MOL0     N22887   5.247   3.930   4.121 -0.2596  0.3446 -0.6328
  174MOL0     C22888   5.905   3.405   4.337 -0.4420  0.5753 -0.0320
  174MOL0     C22889   6.015   3.440   4.421  0.1607  0.0916 -0.8836
  174MOL0     C22890   6.388   3.667   4.557  1.0981 -0.0975  0.2877
  174MOL0     C22891   6.503   3.626   4.489  0.1345  1.0868  0.4490
  174MOL0     C22892   6.634   3.666   4.530  0.1538  0.2349 -0.6184
  174MOL0     C22893   6.652   3.748   4.642 -0.1177 -0.3085  0.3430
  174MOL0     O22894   6.768   3.805   4.682 -0.8453 -0.4350  0.1790
  174MOL0     C22895   6.858   3.837   4.582 -0.3570 -0.4268 -0.3180
  174MOL0     C22896   6.977   3.914   4.642  0.1534  0.5617 -0.1184
  174MOL0     C22897   7.043   3.831   4.757 -0.3567  0.7200  0.4605
  174MOL0     C22898   7.130   3.718   4.703 -0.5668  0.6488  0.0863
  174MOL0     C22899   7.213   3.661   4.805 -1.0085 -0.0656 -0.1296
  174MOL0     C22900   7.282   3.607   4.889 -0.6042 -0.9534 -0.4021
  174MOL0     C22901   6.533   3.788   4.711  0.8388 -0.6969 -0.4183
  174MOL0     C22902   6.409   3.746   4.668  1.0528 -0.8945  0.7574
  174MOL0     H22903   6.251   3.507   4.191  2.4380 -1.2096  1.4507
  174MOL0     H22904   6.051   3.433   4.030  4.1199  1.5529 -0.6832
  174MOL0     H22905   5.837   3.323   3.934  0.3729  1.5440 -0.7212
  174MOL0     H22906   5.829   3.498   3.968 -0.4224  1.3972  1.6571
  174MOL0     H22907   5.585   3.329   4.028  0.7771 -0.3071  0.6120
  174MOL0     H22908   5.613   3.371   3.862  2.4865 -2.0027  0.2542
  174MOL0     H22909   5.605   3.599   3.907  0.5227  0.5910  0.3181
  174MOL0     H22910   5.597   3.578   4.084 -2.0217 -2.0897  1.8270
  174MOL0     H22911   5.389   3.446   3.923  0.6977  2.0093 -1.7712
  174MOL0     H22912   5.383   3.499   4.089  0.8028 -2.3860 -0.3690
  174MOL0     H22913   5.400   3.689   3.832 -0.5082 -2.0262 -0.2305
  174MOL0     H22914   5.390   3.739   4.002 -0.9461  1.2815 -0.9314
  174MOL0     H22915   5.165   3.620   4.031 -0.1981  0.0675  0.3012
  174MOL0     H22916   5.173   3.574   3.857 -0.1379 -1.5651  1.7880
  174MOL0     H22917   5.236   3.837   3.868 -0.2851  0.3105 -0.2445
  174MOL0     H22918   5.102   3.767   3.783  0.8764 -0.2729 -0.1819
  174MOL0     H22919   4.979   3.767   4.014 -0.7521 -0.2717 -1.1554
  174MOL0     H22920   5.010   3.924   3.938  1.6276 -1.5224 -4.5252
  174MOL0     H22921   4.970   3.847   4.263  0.0113  0.8510  0.7219
  174MOL0     H22922   5.246   3.986   4.513  2.3362 -0.2954 -2.5769
  174MOL0     H22923   5.168   3.840   4.519 -2.0546  0.3407 -0.5457
  174MOL0     H22924   5.040   3.989   4.625 -0.3622 -0.6288 -1.2749
  174MOL0     H22925   4.955   3.963   4.474 -0.0449 -0.2718  1.1287
  174MOL0     H22926   5.139   4.209   4.506 -0.4993  2.5062 -0.2549
  174MOL0     H22927   5.045   4.166   4.362 -1.8872  1.4460  0.1502
  174MOL0     H22928   4.971   4.344   4.475  4.4463  0.2097  1.4331
  174MOL0     H22929   4.949   4.257   4.629  0.7469  2.7995 -0.8347
  174MOL0     H22930   4.584   4.156   4.392  1.3275  0.7984  0.0878
  174MOL0     H22931   4.380   4.282   4.446  1.0607  2.1241 -2.8386
  174MOL0     H22932   4.117   4.674   4.699 -0.3182 -0.8555  2.1152
  174MOL0     H22933   3.913   4.717   4.697 -0.5141 -1.6545  2.3641
  174MOL0     H22934   3.712   4.641   4.456  0.7980 -0.4966  0.2954
  174MOL0     H22935   3.664   4.751   4.578  0.9805  1.2421 -4.1549
  174MOL0     H22936   3.424   4.658   4.593 -0.8794 -1.4749  0.8058
  174MOL0     H22937   3.474   4.531   4.483 -2.1694  1.4466 -3.5731
  174MOL0     H22938   3.499   4.689   4.304  4.3943  2.3295  2.4329
  174MOL0     H22939   3.433   4.825   4.409 -0.1257  1.7338 -2.4906
  174MOL0     H22940   3.264   4.740   4.275 -0.6041  1.1861  2.1344
  174MOL0     H22941   3.275   4.574   4.355  4.0666 -2.0414  0.0771
  174MOL0     H22942   3.259   4.838   4.502 -3.1672  1.5198 -1.5840
  174MOL0     H22943   3.202   4.686   4.558  0.3873  1.3248  0.7228
  174MOL0     H22944   3.015   4.708   4.377 -1.0858  0.4422  2.6641
  174MOL0     H22945   3.095   4.855   4.325  0.6554  1.9190  0.1140
  174MOL0     H22946   3.049   4.933   4.582 -4.1762  2.6963  1.5054
  174MOL0     H22947   2.926   4.950   4.466 -0.8767  0.1466 -0.0941
  174MOL0     H22948   2.822   4.737   4.509 -0.9102  2.7454 -1.3531
  174MOL0     H22949   2.826   4.845   4.657 -0.4811 -0.5910  0.7329
  174MOL0     H22950   3.795   4.328   4.555 -1.5356  1.2106  1.8349
  174MOL0     H22951   4.033   4.260   4.572 -2.9589 -0.4315 -1.2853
  174MOL0     H22952   4.609   4.555   4.695 -0.8440 -0.9843  2.1155
  174MOL0     H22953   4.803   4.401   4.654  2.9460 -0.0421 -3.0759
  174MOL0     H22954   5.814   3.372   4.386 -0.0647  0.5637  0.6709
  174MOL0     H22955   6.005   3.433   4.529 -0.0780  0.6953 -0.8645
  174MOL0     H22956   6.485   3.572   4.397 -2.7979  2.3057  0.2161
  174MOL0     H22957   6.723   3.643   4.473 -0.4795  1.7055 -2.2677
  174MOL0     H22958   6.803   3.901   4.512 -1.2489  2.0263  2.4386
  174MOL0     H22959   6.897   3.745   4.536 -2.0769 -0.8195 -1.0513
  174MOL0     H22960   7.047   3.916   4.558  0.1332 -0.9693 -0.1982
  174MOL0     H22961   6.952   4.017   4.671 -1.4270 -0.0193  0.6764
  174MOL0     H22962   6.977   3.800   4.839  0.4449  0.9094  1.1972
  174MOL0     H22963   7.117   3.894   4.807 -0.0824 -0.0429  1.0289
  174MOL0     H22964   7.075   3.631   4.667  2.3963 -1.6707  0.7728
  174MOL0     H22965   7.197   3.753   4.625  2.2655 -1.0696  1.5702
  174MOL0     H22966   7.359   3.582   4.960  1.0757  0.5526 -1.6224
  174MOL0     H22967   6.548   3.849   4.800  1.8355  0.2504 -1.2033
  174MOL0     H22968   6.327   3.772   4.734 -1.1743  0.7210 -2.3931
  175MOL0     O22969   7.553   1.327   9.801  0.0779  0.4526  0.5695
  175MOL0     C22970   7.620   1.413   9.855 -0.4585 -0.4672  0.2527
  175MOL0     O22971   7.584   1.545   9.869  0.4946 -0.0883  0.3416
  175MOL0     C22972   7.453   1.590   9.852  0.1848 -0.0408  0.5538
  175MOL0     C22973   7.451   1.725   9.798 -0.0110 -0.3218  0.1670
  175MOL0     C22974   7.327   1.782   9.763  0.0230  0.1872  0.3007
  175MOL0     C22975   7.209   1.711   9.788 -0.8602 -0.5151 -0.0023
  175MOL0     O22976   7.086   1.773   9.765  0.3256  0.2548 -0.4186
  175MOL0     C22977   7.068   1.830   9.635  0.8741 -0.7361  0.7378
  175MOL0     C22978   6.919   1.823   9.599  0.4655  0.0706 -0.1436
  175MOL0     C22979   6.863   1.948   9.535 -0.5255  0.6301  0.5680
  175MOL0     C22980   6.725   1.917   9.486 -0.1316 -0.2432  0.5314
  175MOL0     C22981   6.662   2.051   9.450 -0.2501  0.4066  0.5311
  175MOL0     C22982   6.527   2.038   9.366 -0.0636  0.7560 -0.5875
  175MOL0     C22983   6.399   2.006   9.443 -0.2296 -0.2635  0.2922
  175MOL0     C22984   6.351   2.128   9.519 -0.2357  0.4358  0.7202
  175MOL0     N22985   6.254   2.083   9.610  0.1225  0.8607  0.2071
  175MOL0     C22986   6.128   2.034   9.584 -0.9588 -0.2525 -0.2934
  175MOL0     C22987   6.076   1.993   9.702 -0.8322  0.0579 -0.5198
  175MOL0     C22988   5.951   1.923   9.736  1.3821 -0.3742  0.2141
  175MOL0     C22989   5.842   1.937   9.619 -0.8119 -0.2090 -0.2782
  175MOL0     C22990   5.715   1.847   9.640 -1.0308  0.7253 -0.3960
  175MOL0     C22991   5.611   1.878   9.536  0.4251 -0.0781  0.5869
  175MOL0     O22992   5.486   1.810   9.579 -0.4460  0.1532 -0.3736
  175MOL0     C22993   5.368   1.865   9.539 -0.6071 -0.7806  0.4781
  175MOL0     C22994   5.256   1.799   9.581  1.0010 -0.1481 -0.5640
  175MOL0     C22995   5.128   1.857   9.566 -0.0054 -0.3120  0.3261
  175MOL0     C22996   5.109   1.961   9.466 -0.3620  0.3259  0.3314
  175MOL0     C22997   4.971   2.017   9.433 -0.2446  0.0769 -0.6731
  175MOL0     O22998   4.866   1.971   9.503 -0.6503 -0.9975 -0.3326
  175MOL0     C22999   4.741   2.002   9.456  0.1356 -0.9832  0.0603
  175MOL0     C23000   4.695   1.986   9.329  0.1710 -0.5651  0.2778
  175MOL0     C23001   4.564   2.021   9.299  0.1176 -0.9360  0.3150
  175MOL0     C23002   4.481   2.086   9.393  0.2023 -0.9700  0.0976
  175MOL0     O23003   4.354   2.132   9.359  0.0852  0.4532  0.0406
  175MOL0     C23004   4.311   2.112   9.220  0.2972 -0.4702 -0.5900
  175MOL0     C23005   4.169   2.161   9.213 -0.2203  0.1950 -0.3867
  175MOL0     C23006   4.075   2.084   9.305  0.1596  0.0619 -0.1342
  175MOL0     C23007   3.938   2.085   9.249  0.2522 -0.4829  0.5419
  175MOL0     C23008   3.838   2.008   9.336 -0.5869  0.2212 -0.1807
  175MOL0     C23009   3.693   2.034   9.286  0.2173  0.4096 -0.3353
  175MOL0     C23010   3.601   1.956   9.368 -0.5008 -0.3351 -0.6739
  175MOL0     C23011   3.640   1.809   9.395 -0.2231 -0.6325 -0.6873
  175MOL0    Cl23012   3.491   1.727   9.373  0.0559  0.5392  0.2108
  175MOL0     C23013   4.527   2.114   9.517 -0.1701 -0.0087  0.2897
  175MOL0     C23014   4.656   2.075   9.549 -0.3486  0.7897  0.4556
  175MOL0     O23015   4.963   2.089   9.340 -0.0296 -0.5981  0.6388
  175MOL0     C23016   5.222   2.010   9.413  0.0899  0.8291 -0.3635
  175MOL0     C23017   5.355   1.973   9.444  0.2126 -0.2357 -0.2205
  175MOL0     N23018   6.168   2.011   9.800 -0.9072  1.4210 -0.3568
  175MOL0     N23019   6.265   2.079   9.745 -0.4229  0.0643 -0.0764
  175MOL0     C23020   7.209   1.587   9.842  0.4422  0.5039 -0.1224
  175MOL0     C23021   7.333   1.526   9.867 -0.9080  0.4222  0.7023
  175MOL0     C23022   7.758   1.373   9.899  0.4534 -0.5859  0.0814
  175MOL0     C23023   7.827   1.269   9.835  0.4261  0.1346  0.9146
  175MOL0     C23024   7.959   1.236   9.879 -0.0094 -0.1151 -0.2024
  175MOL0     C23025   8.033   1.307   9.977  0.7917  0.8880 -1.0547
  175MOL0     O23026   8.163   1.277  10.012  0.0998  0.2112 -0.2955
  175MOL0     C23027   8.240   1.176   9.942  0.4239 -0.5384  0.0539
  175MOL0     C23028   8.385   1.206   9.969  0.7306  0.0599 -0.8467
  175MOL0     C23029   8.460   1.147  10.093  0.0580 -0.2279  0.1596
  175MOL0     C23030   8.596   1.220  10.112  0.6502  0.5709  0.2247
  175MOL0     C23031   8.683   1.211   9.998  0.8498 -0.4255 -0.8395
  175MOL0     C23032   8.765   1.209   9.912  0.3290 -0.1065  0.0254
  175MOL0     C23033   7.964   1.417  10.029 -0.1160  0.4549 -0.7503
  175MOL0     C23034   7.830   1.449   9.999 -0.2136 -0.4422  0.4723
  175MOL0     H23035   7.546   1.777   9.792  0.5578 -1.4655 -1.8502
  175MOL0     H23036   7.320   1.882   9.721  2.2054  0.7179  1.0498
  175MOL0     H23037   7.117   1.765   9.562  1.9323 -0.8856  1.5459
  175MOL0     H23038   7.100   1.933   9.617 -2.8530  0.7038  1.5515
  175MOL0     H23039   6.857   1.796   9.685  0.4982 -1.0162 -0.4491
  175MOL0     H23040   6.909   1.735   9.536 -1.0214 -0.8148  1.2709
  175MOL0     H23041   6.928   1.990   9.457  0.3440  1.8883  1.9186
  175MOL0     H23042   6.858   2.024   9.613  0.4698  0.3451  0.9316
  175MOL0     H23043   6.746   1.866   9.392 -0.4231 -4.5130  2.5644
  175MOL0     H23044   6.665   1.861   9.559 -0.3749 -1.4669 -0.5798
  175MOL0     H23045   6.729   2.107   9.385  0.4538 -1.6523 -0.6308
  175MOL0     H23046   6.646   2.104   9.544 -2.9417 -0.0929  0.4469
  175MOL0     H23047   6.542   1.969   9.283 -2.3633 -0.8186  0.1995
  175MOL0     H23048   6.515   2.132   9.312  4.2944 -0.1782 -3.7866
  175MOL0     H23049   6.321   1.978   9.372  0.7232 -1.0077 -0.4888
  175MOL0     H23050   6.417   1.924   9.513 -2.6230 -1.1512 -0.0544
  175MOL0     H23051   6.300   2.202   9.457 -0.5037 -2.0755 -2.2529
  175MOL0     H23052   6.430   2.169   9.583 -0.7377  1.3254  0.7894
  175MOL0     H23053   6.092   2.028   9.482 -1.9326  1.8960 -0.1308
  175MOL0     H23054   5.898   1.961   9.824 -4.3737 -1.4065 -2.3365
  175MOL0     H23055   5.970   1.817   9.755  0.4632 -0.2069  2.4286
  175MOL0     H23056   5.886   1.896   9.528 -1.0104 -1.0454 -0.0024
  175MOL0     H23057   5.812   2.042   9.611  2.0154  0.7644  0.6184
  175MOL0     H23058   5.745   1.742   9.630  0.3939  1.1242 -0.6216
  175MOL0     H23059   5.663   1.853   9.736  0.7061 -2.2166  0.8810
  175MOL0     H23060   5.624   1.858   9.430  0.7504  1.7117  0.2561
  175MOL0     H23061   5.589   1.984   9.549 -1.6510 -0.2500 -1.0385
  175MOL0     H23062   5.265   1.709   9.640 -1.1320 -0.7793 -1.1446
  175MOL0     H23063   5.042   1.815   9.618  0.1684  0.0699  0.9291
  175MOL0     H23064   4.752   1.941   9.248 -2.2530 -0.1643 -1.7828
  175MOL0     H23065   4.538   2.007   9.194 -2.3676 -1.2831  0.9180
  175MOL0     H23066   4.319   2.005   9.195  3.2894 -0.9411  1.7064
  175MOL0     H23067   4.369   2.173   9.150  0.6654  1.1046  1.0237
  175MOL0     H23068   4.148   2.153   9.106  0.1101 -1.2168 -0.3612
  175MOL0     H23069   4.157   2.266   9.239 -2.2436 -0.0999  0.0326
  175MOL0     H23070   4.061   2.139   9.398  0.7078 -1.1818  0.7024
  175MOL0     H23071   4.109   1.985   9.338 -2.7409 -0.6902  0.8762
  175MOL0     H23072   3.904   2.189   9.245 -0.6240 -0.7869 -3.1719
  175MOL0     H23073   3.936   2.050   9.146  1.6975  0.1400  0.2743
  175MOL0     H23074   3.844   2.050   9.437 -0.7543  0.5542 -0.3102
  175MOL0     H23075   3.866   1.902   9.344 -1.3502  0.0466  0.3186
  175MOL0     H23076   3.685   1.995   9.184  2.1524 -1.5190  0.1568
  175MOL0     H23077   3.664   2.139   9.281 -1.3067  0.0183 -0.1962
  175MOL0     H23078   3.607   2.006   9.465 -0.5125 -1.4539 -0.0838
  175MOL0     H23079   3.496   1.964   9.336 -1.1402  1.7256  1.6491
  175MOL0     H23080   3.671   1.801   9.500 -1.2296  0.4975 -0.2848
  175MOL0     H23081   3.703   1.768   9.316 -0.8561  1.6367 -2.4605
  175MOL0     H23082   4.456   2.170   9.577 -3.0354 -2.0928 -0.9324
  175MOL0     H23083   4.692   2.094   9.649 -0.2796 -1.1780  0.8335
  175MOL0     H23084   5.226   2.098   9.348 -3.2188  0.8512 -0.7093
  175MOL0     H23085   5.435   2.029   9.397  0.4650 -1.7168 -1.6577
  175MOL0     H23086   7.115   1.535   9.860 -1.1677  3.7283  1.6800
  175MOL0     H23087   7.345   1.422   9.897  2.5911  0.5820  0.3673
  175MOL0     H23088   7.788   1.214   9.750 -0.0192  2.2788 -0.3571
  175MOL0     H23089   8.008   1.152   9.832  1.8995  0.9078 -0.1357
  175MOL0     H23090   8.221   1.191   9.835 -1.9756 -0.5385  0.4468
  175MOL0     H23091   8.200   1.078   9.969 -4.1621  0.9979 -0.3173
  175MOL0     H23092   8.450   1.181   9.885  3.1831  2.0016  0.3404
  175MOL0     H23093   8.395   1.315   9.974 -2.7242  0.4868 -0.2375
  175MOL0     H23094   8.486   1.044  10.071 -0.3452  0.2441 -2.9866
  175MOL0     H23095   8.403   1.159  10.186 -1.8813  3.8858 -1.2624
  175MOL0     H23096   8.570   1.325  10.128 -2.5187  0.4733 -2.9863
  175MOL0     H23097   8.647   1.178  10.199  0.7997  0.9282  0.3091
  175MOL0     H23098   8.827   1.206   9.825  0.2975 -1.4679  0.0276
  175MOL0     H23099   8.025   1.481  10.092  2.1678 -0.3753 -2.0125
  175MOL0     H23100   7.784   1.538  10.040 -0.8352 -1.8333  3.0861
  176MOL0     O23101   7.768   2.968   2.415 -0.4024  0.1950 -0.0543
  176MOL0     C23102   7.767   2.990   2.533  0.5262 -0.7858 -0.2753
  176MOL0     O23103   7.663   3.048   2.611  0.6294 -0.1534  0.1540
  176MOL0     C23104   7.532   3.042   2.567 -0.4149 -0.6982  0.9139
  176MOL0     C23105   7.477   2.928   2.503 -1.2177  0.4479  0.0568
  176MOL0     C23106   7.342   2.925   2.464  0.2735  0.6176 -0.2924
  176MOL0     C23107   7.256   3.033   2.482 -0.6859 -0.4966 -0.4598
  176MOL0     O23108   7.126   3.026   2.467 -0.4925  0.3401 -0.3265
  176MOL0     C23109   7.051   2.906   2.478 -0.9225 -0.9798  0.6865
  176MOL0     C23110   6.901   2.935   2.508 -1.1941  0.0056 -0.0503
  176MOL0     C23111   6.807   2.956   2.381  0.1893  0.0695  0.2607
  176MOL0     C23112   6.663   2.980   2.417 -0.2579  0.4080 -0.5312
  176MOL0     C23113   6.561   2.979   2.300  0.5881  0.2091  0.1962
  176MOL0     C23114   6.424   2.962   2.361 -0.6742 -0.0191 -0.8449
  176MOL0     C23115   6.325   2.929   2.256 -0.7613 -0.3413  0.7313
  176MOL0     C23116   6.193   2.889   2.293 -0.0195 -0.1910 -0.2798
  176MOL0     N23117   6.115   2.997   2.352 -0.6251  0.7922 -0.4499
  176MOL0     C23118   6.014   3.069   2.290 -0.5123  0.2935  0.0640
  176MOL0     C23119   5.929   3.121   2.384  0.4763  0.4821  0.5507
  176MOL0     C23120   5.796   3.177   2.365 -0.3982 -1.2079  0.8252
  176MOL0     C23121   5.813   3.305   2.287 -0.0622  0.7083 -0.3237
  176MOL0     C23122   5.873   3.413   2.378 -0.5594 -0.2952 -0.3783
  176MOL0     C23123   5.766   3.505   2.446  0.2183 -0.2232  0.1122
  176MOL0     O23124   5.771   3.643   2.391  0.2591 -0.0330 -0.3522
  176MOL0     C23125   5.657   3.718   2.384 -0.1673  1.3124  0.0011
  176MOL0     C23126   5.668   3.853   2.376  0.1785 -0.0185 -0.8526
  176MOL0     C23127   5.560   3.934   2.359  0.6895  0.3239 -0.0559
  176MOL0     C23128   5.428   3.883   2.357 -0.8557 -0.8780  0.5721
  176MOL0     C23129   5.311   3.972   2.324  0.0516  0.2843  0.2445
  176MOL0     O23130   5.347   4.093   2.285 -0.0746 -0.6885 -0.7344
  176MOL0     C23131   5.268   4.176   2.214  0.5343 -0.1874  0.5430
  176MOL0     C23132   5.327   4.238   2.103 -0.3794  0.8592 -0.6386
  176MOL0     C23133   5.253   4.325   2.023  0.0297 -0.0645  1.0718
  176MOL0     C23134   5.117   4.361   2.066 -0.5795 -0.1517  0.4154
  176MOL0     O23135   5.034   4.433   1.978  0.1911 -0.1050  0.2003
  176MOL0     C23136   4.949   4.359   1.892 -0.3574 -0.2612  0.2738
  176MOL0     C23137   4.811   4.404   1.902  0.1656 -0.8036  0.1215
  176MOL0     C23138   4.813   4.548   1.826 -0.0057 -0.6599 -0.0076
  176MOL0     C23139   4.672   4.616   1.834  0.5964 -0.4170  0.9418
  176MOL0     C23140   4.677   4.751   1.763  0.7555  0.6601 -0.8625
  176MOL0     C23141   4.544   4.825   1.752  0.0935 -0.3248 -0.4582
  176MOL0     C23142   4.501   4.894   1.878 -0.2127 -0.4838  0.3668
  176MOL0     C23143   4.367   4.970   1.857  1.0474 -0.6174 -0.1562
  176MOL0    Cl23144   4.382   5.129   1.776  0.5972  0.7371  0.6402
  176MOL0     C23145   5.057   4.291   2.171 -0.0733  0.3804 -0.0649
  176MOL0     C23146   5.134   4.206   2.244  0.0319  0.2607 -0.3659
  176MOL0     O23147   5.196   3.925   2.321  0.1625 -0.4595  0.3120
  176MOL0     C23148   5.411   3.747   2.369 -0.1296  0.1049  0.4574
  176MOL0     C23149   5.523   3.665   2.381 -0.3091 -0.4525 -0.5156
  176MOL0     N23150   5.977   3.079   2.504  0.5347  0.0488  0.0575
  176MOL0     N23151   6.082   3.019   2.484 -1.1506 -0.0649 -0.0909
  176MOL0     C23152   7.316   3.153   2.541  0.1739  0.5426  0.1526
  176MOL0     C23153   7.453   3.155   2.578  0.0410  0.7787  0.1665
  176MOL0     C23154   7.896   2.963   2.594  0.0634  0.4551 -0.6025
  176MOL0     C23155   7.917   2.987   2.733  0.8370  0.0533  0.4916
  176MOL0     C23156   8.037   2.973   2.802  0.1146  0.8192  0.1354
  176MOL0     C23157   8.156   2.929   2.730  0.0044  0.2452 -0.8105
  176MOL0     O23158   8.268   2.924   2.802 -0.4978  0.5487  0.3024
  176MOL0     C23159   8.382   2.973   2.733  0.5785 -0.0410 -1.1587
  176MOL0     C23160   8.489   2.976   2.847  0.0087  0.4259  0.4111
  176MOL0     C23161   8.494   2.843   2.926 -0.4714  0.0975 -0.5909
  176MOL0     C23162   8.635   2.813   2.970 -0.9309  0.4092  0.0947
  176MOL0     C23163   8.633   2.668   3.018  0.2163 -0.4831  0.1345
  176MOL0     C23164   8.618   2.550   3.045  0.6041 -0.6840 -1.0321
  176MOL0     C23165   8.139   2.895   2.597 -0.2881 -0.0478  0.1127
  176MOL0     C23166   8.011   2.912   2.531  0.3307  0.4855  0.2856
  176MOL0     H23167   7.536   2.839   2.485  1.8659  3.1055 -5.4577
  176MOL0     H23168   7.306   2.836   2.413 -0.2978 -1.6591  3.6723
  176MOL0     H23169   7.098   2.850   2.559 -0.1072 -0.3487  0.6633
  176MOL0     H23170   7.073   2.841   2.393  0.4380 -0.5596  0.6823
  176MOL0     H23171   6.902   3.029   2.564 -0.4415  1.4280 -2.3309
  176MOL0     H23172   6.856   2.857   2.571 -3.0142  0.5349 -0.6532
  176MOL0     H23173   6.813   2.874   2.309 -0.0488 -0.6781  1.0863
  176MOL0     H23174   6.848   3.046   2.333  0.6300  1.2619  2.7225
  176MOL0     H23175   6.635   2.901   2.488  3.2821  0.0101  0.6062
  176MOL0     H23176   6.662   3.074   2.474  3.1183 -0.0310  0.4511
  176MOL0     H23177   6.577   2.889   2.240 -0.6457 -0.8988  1.4659
  176MOL0     H23178   6.552   3.070   2.240 -0.7789  0.1074  0.2208
  176MOL0     H23179   6.405   3.049   2.425  1.8038  1.7174 -2.2870
  176MOL0     H23180   6.437   2.879   2.432  1.9150  2.8878  2.4415
  176MOL0     H23181   6.320   3.013   2.186 -0.0569 -2.1769 -1.7039
  176MOL0     H23182   6.360   2.850   2.188 -2.5061 -1.0067  0.5512
  176MOL0     H23183   6.204   2.801   2.358 -4.5119 -0.9922 -0.2628
  176MOL0     H23184   6.140   2.860   2.202  1.3659  0.8437 -1.4348
  176MOL0     H23185   5.999   3.067   2.182  2.3055  2.9937 -0.5095
  176MOL0     H23186   5.751   3.199   2.463 -2.2203  1.9582 -0.5571
  176MOL0     H23187   5.736   3.110   2.302 -1.5128 -0.5568  1.1599
  176MOL0     H23188   5.716   3.341   2.250 -1.6119 -1.5297  1.2977
  176MOL0     H23189   5.880   3.279   2.204  1.8587  1.1385  1.0445
  176MOL0     H23190   5.932   3.367   2.458 -1.5386 -0.1830  0.4223
  176MOL0     H23191   5.937   3.480   2.319 -2.0520 -0.1849 -1.9478
  176MOL0     H23192   5.774   3.508   2.555  2.3238  0.7240 -0.0214
  176MOL0     H23193   5.672   3.453   2.423  0.0341  1.3562 -3.2283
  176MOL0     H23194   5.769   3.893   2.386  1.4912 -3.1437 -0.3767
  176MOL0     H23195   5.577   4.041   2.363 -1.3547  0.6811  0.0330
  176MOL0     H23196   5.430   4.225   2.072 -0.3691  0.1141 -0.3070
  176MOL0     H23197   5.288   4.359   1.926  0.7571  1.2477  1.7612
  176MOL0     H23198   4.958   4.251   1.912 -1.0379 -0.1218  1.4386
  176MOL0     H23199   4.993   4.366   1.792 -0.3634 -0.3739  0.2633
  176MOL0     H23200   4.782   4.428   2.005 -3.4700  0.3428 -1.0228
  176MOL0     H23201   4.737   4.342   1.851 -2.7899  1.9681  0.7372
  176MOL0     H23202   4.846   4.530   1.723  0.8733  0.4281  0.0655
  176MOL0     H23203   4.885   4.618   1.869  0.6393  1.1397 -3.6431
  176MOL0     H23204   4.594   4.555   1.788  0.6268 -0.7264  1.2988
  176MOL0     H23205   4.648   4.636   1.939 -1.1767  1.8294  0.1805
  176MOL0     H23206   4.729   4.738   1.668 -0.8199  0.1444 -1.6843
  176MOL0     H23207   4.738   4.806   1.835 -0.6013  0.6862  0.3251
  176MOL0     H23208   4.471   4.751   1.716  0.6765 -1.0317 -0.2155
  176MOL0     H23209   4.563   4.908   1.685  2.3929  0.8304  1.4958
  176MOL0     H23210   4.481   4.818   1.954 -0.9001  0.0919  0.7829
  176MOL0     H23211   4.582   4.961   1.909  0.8145 -0.9299 -1.2627
  176MOL0     H23212   4.327   4.984   1.957  0.8024 -1.8201 -0.0779
  176MOL0     H23213   4.287   4.912   1.810 -0.0034 -0.4608  1.3820
  176MOL0     H23214   4.952   4.304   2.194 -0.5122 -1.5662 -0.7764
  176MOL0     H23215   5.077   4.153   2.319 -0.2769 -1.1137 -1.5350
  176MOL0     H23216   5.319   3.689   2.367  1.1243 -1.9575 -1.0098
  176MOL0     H23217   5.501   3.558   2.384  2.4763 -1.1169  2.9425
  176MOL0     H23218   7.240   3.227   2.564 -2.7790 -2.5623  1.2532
  176MOL0     H23219   7.487   3.232   2.645 -0.4061  0.7866  0.3877
  176MOL0     H23220   7.833   3.019   2.793 -0.4432 -1.7199 -0.2652
  176MOL0     H23221   8.035   2.977   2.910  2.3148  2.8645  0.1809
  176MOL0     H23222   8.363   3.072   2.692 -1.6767  0.1358  0.1694
  176MOL0     H23223   8.409   2.907   2.650 -1.7228 -1.5086 -0.8190
  176MOL0     H23224   8.588   3.003   2.810 -0.2371 -0.2277 -0.7981
  176MOL0     H23225   8.462   3.049   2.923 -1.9178 -0.0301  0.2064
  176MOL0     H23226   8.461   2.766   2.856 -1.3638  1.9811 -2.3464
  176MOL0     H23227   8.416   2.837   3.002  0.3470  2.6203  0.5476
  176MOL0     H23228   8.701   2.809   2.882  1.8029  0.7895  2.0017
  176MOL0     H23229   8.674   2.889   3.038 -0.1554  1.5225 -1.5039
  176MOL0     H23230   8.613   2.448   3.077  1.3157 -1.1912 -2.4543
  176MOL0     H23231   8.223   2.852   2.543 -0.0189 -0.5413  0.9078
  176MOL0     H23232   7.996   2.888   2.426 -3.5060  1.1857  0.5138
  177MOL0     O23233   7.654   5.710  11.049 -0.4569  0.3511  1.3430
  177MOL0     C23234   7.636   5.771  11.158 -0.6313  0.2676  0.5767
  177MOL0     O23235   7.519   5.810  11.212  0.5099 -0.8812  0.2124
  177MOL0     C23236   7.399   5.764  11.167 -0.2252  0.3325 -0.7239
  177MOL0     C23237   7.306   5.779  11.267  0.1193 -0.0266  0.4643
  177MOL0     C23238   7.169   5.760  11.235 -0.8218  0.4907  0.4465
  177MOL0     C23239   7.130   5.691  11.117 -0.2484 -0.1783 -0.2459
  177MOL0     O23240   6.995   5.669  11.104  0.1743  0.1152  0.5386
  177MOL0     C23241   6.940   5.692  10.970  0.0951  0.5937  0.3603
  177MOL0     C23242   6.829   5.594  10.941 -0.2300 -0.9565  0.1062
  177MOL0     C23243   6.719   5.632  10.839  0.0188 -0.0417 -0.3356
  177MOL0     C23244   6.603   5.525  10.835 -0.2522  0.1260  0.6788
  177MOL0     C23245   6.493   5.591  10.753 -0.3043  0.5056 -1.0195
  177MOL0     C23246   6.368   5.503  10.765 -0.2656  0.5345 -0.7551
  177MOL0     C23247   6.239   5.561  10.699 -0.6700 -0.3684  0.6800
  177MOL0     C23248   6.112   5.493  10.754 -0.2592 -0.0515  0.9164
  177MOL0     N23249   6.006   5.582  10.698 -0.1213  0.4566 -0.7218
  177MOL0     C23250   5.979   5.715  10.721  0.1231  0.1720 -0.1963
  177MOL0     C23251   5.873   5.740  10.647  0.7134 -0.1428 -0.8178
  177MOL0     C23252   5.807   5.880  10.641 -0.2446 -0.0249 -0.4464
  177MOL0     C23253   5.653   5.875  10.620  0.6763  0.1265 -0.6597
  177MOL0     C23254   5.584   6.009  10.650 -0.2013 -0.4896 -0.0245
  177MOL0     C23255   5.440   5.992  10.698  0.2295  0.1848 -1.0920
  177MOL0     O23256   5.384   6.123  10.713  0.2928  0.0989  0.8457
  177MOL0     C23257   5.248   6.136  10.718  0.3312 -0.0322 -0.2679
  177MOL0     C23258   5.181   6.053  10.807  0.0714 -0.2695 -0.8045
  177MOL0     C23259   5.037   6.053  10.810  0.6093 -0.3801  0.1938
  177MOL0     C23260   4.969   6.137  10.732  0.1347 -0.3126  0.5565
  177MOL0     C23261   4.823   6.150  10.736 -0.0724  0.5051  0.2669
  177MOL0     O23262   4.752   6.250  10.675 -0.4754  0.9725  0.1284
  177MOL0     C23263   4.621   6.255  10.690  0.0171 -0.1112  0.2229
  177MOL0     C23264   4.563   6.284  10.816  0.7317 -0.2852  0.2405
  177MOL0     C23265   4.427   6.290  10.819  0.3024  1.3176 -0.6566
  177MOL0     C23266   4.343   6.254  10.712 -0.4392 -0.1526 -0.5946
  177MOL0     O23267   4.206   6.255  10.723  0.1597  0.8957 -0.0941
  177MOL0     C23268   4.122   6.200  10.619  0.7570 -0.6468  0.1987
  177MOL0     C23269   3.993   6.169  10.686 -0.9187 -0.2189  0.1946
  177MOL0     C23270   3.880   6.122  10.593 -0.6982 -0.0458 -0.3960
  177MOL0     C23271   3.733   6.109  10.633 -0.2525  0.2349 -1.1295
  177MOL0     C23272   3.686   6.214  10.726 -0.2779 -1.3342  0.2252
  177MOL0     C23273   3.527   6.204  10.734  0.1324 -0.2296  0.3732
  177MOL0     C23274   3.464   6.313  10.829  0.3347  0.1003  0.3428
  177MOL0     C23275   3.315   6.293  10.826  0.3460  0.3014 -0.3328
  177MOL0    Cl23276   3.246   6.438  10.902 -0.2045  0.2210 -0.0415
  177MOL0     C23277   4.407   6.226  10.587  0.3631  0.2952 -0.7910
  177MOL0     C23278   4.545   6.234  10.578 -0.0366  0.7749 -0.0677
  177MOL0     O23279   4.770   6.056  10.799 -0.1944 -0.5238 -0.2238
  177MOL0     C23280   5.040   6.228  10.661 -0.0335 -1.0191  0.1221
  177MOL0     C23281   5.174   6.224  10.638 -0.8285 -0.1446 -0.6175
  177MOL0     N23282   5.831   5.625  10.572 -0.1988  0.8511  0.3987
  177MOL0     N23283   5.910   5.529  10.624  0.4180 -0.1197  0.0921
  177MOL0     C23284   7.232   5.668  11.021  0.3144 -0.0759  0.5816
  177MOL0     C23285   7.368   5.710  11.042  0.5026 -0.2438 -0.0311
  177MOL0     C23286   7.751   5.794  11.241 -0.4061  0.1581 -0.1531
  177MOL0     C23287   7.740   5.840  11.369  0.3885  0.0348 -0.1400
  177MOL0     C23288   7.852   5.875  11.444  0.6987  0.4002  1.4825
  177MOL0     C23289   7.978   5.851  11.394 -0.3917 -0.4147 -0.7129
  177MOL0     O23290   8.090   5.864  11.477  0.1322 -0.6480  0.0377
  177MOL0     C23291   8.152   5.995  11.483  1.1107  0.2854 -0.0650
  177MOL0     C23292   8.269   5.996  11.385  0.0536  1.0203  1.3759
  177MOL0     C23293   8.377   5.886  11.415  0.2066  1.1003  0.3009
  177MOL0     C23294   8.505   5.913  11.343  0.1050  0.3924  0.2153
  177MOL0     C23295   8.514   5.876  11.198 -0.2026 -0.0706  0.0618
  177MOL0     C23296   8.520   5.853  11.077 -0.2203 -0.8583  0.1714
  177MOL0     C23297   7.993   5.808  11.265 -0.1634 -0.9556 -0.5729
  177MOL0     C23298   7.881   5.787  11.180 -0.1568  0.4148 -0.9649
  177MOL0     H23299   7.329   5.811  11.368 -1.0653  1.5108  0.2712
  177MOL0     H23300   7.091   5.785  11.306  0.5405  2.4166  1.3370
  177MOL0     H23301   7.007   5.703  10.883 -0.5007 -1.0035 -0.3290
  177MOL0     H23302   6.888   5.787  10.984 -0.3951 -0.0084  3.1937
  177MOL0     H23303   6.782   5.579  11.039  1.0880 -1.3710  0.6998
  177MOL0     H23304   6.870   5.501  10.900  1.3260 -1.0072  1.6434
  177MOL0     H23305   6.761   5.645  10.739 -0.1055 -0.5547 -0.4557
  177MOL0     H23306   6.677   5.731  10.861 -0.1486 -0.1686 -0.0844
  177MOL0     H23307   6.628   5.428  10.793  0.4323  0.8871 -0.7518
  177MOL0     H23308   6.575   5.497  10.937  0.9322  1.1115  1.3038
  177MOL0     H23309   6.533   5.601  10.652  1.4429 -1.1410 -0.5446
  177MOL0     H23310   6.458   5.682  10.803 -2.7609 -2.9852  4.5018
  177MOL0     H23311   6.341   5.476  10.867 -0.5791  1.6726 -0.5258
  177MOL0     H23312   6.400   5.407  10.723  0.4679 -1.5494  3.9353
  177MOL0     H23313   6.245   5.669  10.713 -0.6924 -0.0719 -1.3013
  177MOL0     H23314   6.254   5.539  10.593  2.1485 -3.5044  1.5634
  177MOL0     H23315   6.112   5.479  10.862 -2.0296 -1.3796  0.8035
  177MOL0     H23316   6.090   5.395  10.710 -1.0384  1.6713 -3.0346
  177MOL0     H23317   6.036   5.778  10.790  1.6963 -2.2117  0.8313
  177MOL0     H23318   5.853   5.937  10.560 -1.6575  0.7486 -0.7302
  177MOL0     H23319   5.835   5.944  10.725 -0.6802  0.9407 -1.0274
  177MOL0     H23320   5.606   5.805  10.691  1.4421 -0.6002 -0.8558
  177MOL0     H23321   5.632   5.830  10.523  1.7517  2.6981 -2.1722
  177MOL0     H23322   5.635   6.052  10.738 -1.7803 -0.4247  0.8927
  177MOL0     H23323   5.591   6.086  10.573 -0.5647  2.0479  2.3037
  177MOL0     H23324   5.448   5.932  10.789  0.8798  1.2481 -0.4241
  177MOL0     H23325   5.392   5.938  10.616 -0.3226 -2.1612  0.6730
  177MOL0     H23326   5.231   5.982  10.871  0.8253  0.6613 -0.3435
  177MOL0     H23327   4.985   5.994  10.884 -0.7904  0.4960 -0.0437
  177MOL0     H23328   4.626   6.311  10.901  0.8480 -1.8655  0.7052
  177MOL0     H23329   4.381   6.336  10.906  2.7617  2.1266  0.3168
  177MOL0     H23330   4.178   6.110  10.593  1.5369 -1.3028  3.6497
  177MOL0     H23331   4.127   6.273  10.538  2.9394 -0.2110  0.6645
  177MOL0     H23332   3.951   6.261  10.729 -1.5235 -0.0147 -0.7767
  177MOL0     H23333   4.009   6.100  10.769  1.1767  2.4724  2.1788
  177MOL0     H23334   3.921   6.027  10.559 -1.2882 -1.0740  1.5876
  177MOL0     H23335   3.869   6.187  10.506 -0.5646  0.2768 -0.1734
  177MOL0     H23336   3.669   6.095  10.546 -0.2332 -0.1404 -1.0872
  177MOL0     H23337   3.728   6.016  10.690  0.7929  0.8526  0.0258
  177MOL0     H23338   3.711   6.313  10.684 -0.9667 -0.6291  1.4370
  177MOL0     H23339   3.741   6.208  10.820  4.2745  1.7437 -1.8413
  177MOL0     H23340   3.502   6.103  10.767  0.7973 -1.6220 -2.9671
  177MOL0     H23341   3.483   6.209  10.634  0.3495  3.2622  0.3060
  177MOL0     H23342   3.509   6.302  10.928  2.2162 -0.0118 -0.4862
  177MOL0     H23343   3.492   6.408  10.782 -1.3301 -1.1274 -3.5451
  177MOL0     H23344   3.284   6.204  10.883  0.6798  0.2143 -0.2825
  177MOL0     H23345   3.276   6.277  10.725  0.6772 -1.4221 -0.2213
  177MOL0     H23346   4.339   6.213  10.503  0.5531  0.7308 -1.0136
  177MOL0     H23347   4.595   6.231  10.482 -2.6067  0.9751 -1.5222
  177MOL0     H23348   4.985   6.304  10.605  0.6736 -0.6593 -0.0877
  177MOL0     H23349   5.234   6.277  10.564 -1.8428 -0.0595 -1.4020
  177MOL0     H23350   7.214   5.619  10.926  0.2314 -0.6021  0.8650
  177MOL0     H23351   7.441   5.701  10.962 -1.2905 -1.2807 -1.6406
  177MOL0     H23352   7.644   5.842  11.420 -0.3844  0.0535 -1.5367
  177MOL0     H23353   7.834   5.878  11.551  0.3234 -3.3005  1.6548
  177MOL0     H23354   8.187   6.013  11.585 -0.1989 -1.2909  0.7118
  177MOL0     H23355   8.079   6.071  11.455  1.2335 -0.1573 -1.6693
  177MOL0     H23356   8.226   5.985  11.285 -0.1158 -2.1111  1.6862
  177MOL0     H23357   8.314   6.095  11.394  1.4104  0.4271  1.3425
  177MOL0     H23358   8.345   5.782  11.405  0.5915  1.0039  0.0237
  177MOL0     H23359   8.413   5.902  11.516  2.1843 -1.1536  0.0524
  177MOL0     H23360   8.522   6.019  11.362 -0.5405  0.1549  2.3657
  177MOL0     H23361   8.578   5.854  11.399 -1.7276 -2.9415 -0.6449
  177MOL0     H23362   8.535   5.843  10.971  0.6367 -1.8881  0.3804
  177MOL0     H23363   8.091   5.779  11.228 -0.1703 -0.2186 -1.1860
  177MOL0     H23364   7.892   5.756  11.077 -0.9294 -1.3643 -0.5585
  178MOL0     O23365   8.936   1.439  10.678  0.1895 -0.3050 -0.3822
  178MOL0     C23366   9.010   1.372  10.603 -0.4270  0.2815 -0.0032
  178MOL0     O23367   8.960   1.308  10.490  0.0346  0.1112 -0.0069
  178MOL0     C23368   8.824   1.336  10.465 -0.1020  0.5463 -0.4747
  178MOL0     C23369   8.731   1.237  10.468 -1.0393 -0.1180 -0.8275
  178MOL0     C23370   8.599   1.261  10.444 -0.5394 -0.4660 -0.3913
  178MOL0     C23371   8.556   1.383  10.396  0.4416  0.4195 -0.8575
  178MOL0     O23372   8.417   1.411  10.375  0.0786 -0.4021  0.5694
  178MOL0     C23373   8.315   1.331  10.441  0.0607 -0.4464 -0.2445
  178MOL0     C23374   8.167   1.389  10.414  0.0770 -0.1483 -1.4510
  178MOL0     C23375   8.141   1.505  10.511 -0.4316  0.4439  0.4874
  178MOL0     C23376   7.990   1.530  10.508  0.9882 -0.2913  0.7054
  178MOL0     C23377   7.937   1.618  10.622 -0.2262 -0.2249 -0.5741
  178MOL0     C23378   7.792   1.661  10.592 -0.6550 -0.2042 -0.3549
  178MOL0     C23379   7.678   1.561  10.644  0.8463  0.2380 -0.3445
  178MOL0     C23380   7.534   1.570  10.569 -0.3575  0.8293 -0.2700
  178MOL0     N23381   7.441   1.485  10.654 -0.4527 -0.0479  0.8492
  178MOL0     C23382   7.343   1.527  10.737 -0.0108  0.4989 -0.1364
  178MOL0     C23383   7.282   1.410  10.777  0.1648  0.5525 -0.4893
  178MOL0     C23384   7.153   1.403  10.846  1.0032 -0.5730  0.1099
  178MOL0     C23385   7.044   1.364  10.736  0.0740  0.2040 -0.4281
  178MOL0     C23386   6.908   1.312  10.781  0.1794  0.3373  0.5682
  178MOL0     C23387   6.827   1.411  10.851 -0.1356 -0.7924 -0.7835
  178MOL0     O23388   6.792   1.515  10.759  0.9083  0.2319 -0.2782
  178MOL0     C23389   6.685   1.594  10.787  0.7319  0.2239 -0.1646
  178MOL0     C23390   6.675   1.711  10.708 -0.6964  0.8962 -0.0740
  178MOL0     C23391   6.567   1.799  10.716  0.5656 -0.3499  0.0414
  178MOL0     C23392   6.452   1.775  10.797 -0.3877  0.5958 -0.5880
  178MOL0     C23393   6.327   1.864  10.789 -0.1292  0.9286  0.0228
  178MOL0     O23394   6.217   1.813  10.846  0.0564 -0.1866 -0.4287
  178MOL0     C23395   6.101   1.885  10.823  0.0432  0.7202 -0.0729
  178MOL0     C23396   6.076   1.968  10.708  0.1662  0.6957 -0.3826
  178MOL0     C23397   5.951   2.036  10.706  0.4698  0.7107  0.2486
  178MOL0     C23398   5.853   2.006  10.796 -0.2055  0.7168  0.2225
  178MOL0     O23399   5.727   2.054  10.793  0.2204 -0.3956  0.1784
  178MOL0     C23400   5.707   2.184  10.736  0.0092 -0.0117  0.2814
  178MOL0     C23401   5.579   2.248  10.773 -0.1842 -0.6200  0.1271
  178MOL0     C23402   5.458   2.161  10.802  0.3490 -0.1091  0.4492
  178MOL0     C23403   5.336   2.254  10.821  0.9297  0.5110  0.1890
  178MOL0     C23404   5.206   2.174  10.811  0.2021  1.1689  0.0336
  178MOL0     C23405   5.089   2.267  10.794  0.3963 -0.2287  0.1013
  178MOL0     C23406   4.950   2.195  10.784  0.3888 -0.3195 -0.2329
  178MOL0     C23407   4.831   2.293  10.771 -0.1906  0.5531  0.3876
  178MOL0    Cl23408   4.822   2.442  10.879  0.2842  0.1335  0.0598
  178MOL0     C23409   5.879   1.920  10.895 -0.0054  1.0842  0.1392
  178MOL0     C23410   6.000   1.851  10.915  0.0715 -0.0489 -0.7619
  178MOL0     O23411   6.343   1.972  10.738 -0.0508 -0.1616 -0.1233
  178MOL0     C23412   6.463   1.656  10.884 -0.2583 -0.4457 -0.0768
  178MOL0     C23413   6.577   1.567  10.879  0.7648 -0.2873  1.2058
  178MOL0     N23414   7.370   1.301  10.745 -0.3850 -0.6258 -0.2563
  178MOL0     N23415   7.457   1.349  10.670 -0.0737 -0.6564 -0.1214
  178MOL0     C23416   8.650   1.477  10.357  0.9337  0.1697  0.0307
  178MOL0     C23417   8.789   1.457  10.399 -0.0238 -0.4339  0.3042
  178MOL0     C23418   9.159   1.370  10.616  0.3219 -0.7926 -0.5773
  178MOL0     C23419   9.227   1.458  10.700  0.8416  0.6387  0.1908
  178MOL0     C23420   9.365   1.447  10.708 -0.5003 -0.3570  0.7492
  178MOL0     C23421   9.444   1.351  10.638 -0.8280  0.4252  0.0357
  178MOL0     O23422   9.587   1.348  10.633  0.2660  0.3135 -0.2148
  178MOL0     C23423   9.668   1.430  10.722 -0.5013  0.5657 -0.4258
  178MOL0     C23424   9.808   1.356  10.741  0.8251 -0.6387  0.8621
  178MOL0     C23425   9.910   1.325  10.636  0.4557 -0.4177  0.0648
  178MOL0     C23426  10.049   1.304  10.693  0.7231  0.3585  0.0740
  178MOL0     C23427  10.060   1.195  10.787 -0.0945 -0.3302 -0.1265
  178MOL0     C23428  10.079   1.096  10.854 -0.6181  1.4138 -0.1681
  178MOL0     C23429   9.371   1.263  10.560 -0.4066 -0.1027 -0.2988
  178MOL0     C23430   9.235   1.271  10.543 -0.5251  0.5930  0.1257
  178MOL0     H23431   8.773   1.143  10.502 -0.3835  0.6395  0.5306
  178MOL0     H23432   8.536   1.177  10.471 -2.2685  0.5585 -1.0090
  178MOL0     H23433   8.347   1.310  10.543  1.2939 -1.1194 -0.7474
  178MOL0     H23434   8.319   1.236  10.387 -0.6640 -0.8385  0.3743
  178MOL0     H23435   8.092   1.314  10.437  0.1297  0.1981 -0.1047
  178MOL0     H23436   8.155   1.411  10.307 -1.6479 -3.1629 -2.0006
  178MOL0     H23437   8.206   1.592  10.503 -0.7118  1.0140  3.3100
  178MOL0     H23438   8.154   1.469  10.613  0.2011  0.2933  0.3581
  178MOL0     H23439   7.959   1.586  10.418 -1.6847 -1.6139  0.7067
  178MOL0     H23440   7.938   1.434  10.516 -0.1981  0.4076  1.8880
  178MOL0     H23441   8.007   1.702  10.637 -0.2933 -0.6362  2.7169
  178MOL0     H23442   7.939   1.565  10.718 -2.5589 -0.5368 -0.6625
  178MOL0     H23443   7.784   1.680  10.484  3.2409 -0.5889 -0.8726
  178MOL0     H23444   7.773   1.761  10.632 -0.0700 -0.2751  0.1165
  178MOL0     H23445   7.715   1.460  10.626 -2.0665 -1.3492  1.8074
  178MOL0     H23446   7.658   1.577  10.750 -1.6965 -1.2812 -0.5134
  178MOL0     H23447   7.540   1.523  10.470 -1.2062  1.6132 -0.7021
  178MOL0     H23448   7.489   1.669  10.555  1.9797  1.7303 -2.0152
  178MOL0     H23449   7.326   1.631  10.762  1.5586  0.1968  2.6093
  178MOL0     H23450   7.136   1.505  10.884  0.3236 -0.7786  0.3785
  178MOL0     H23451   7.146   1.336  10.932  2.9410 -0.4153  0.4449
  178MOL0     H23452   7.109   1.290  10.687  0.4856 -0.1283  0.6032
  178MOL0     H23453   7.024   1.451  10.673 -1.2112 -1.4886 -2.5287
  178MOL0     H23454   6.859   1.302  10.683  0.4958  2.0536  0.1863
  178MOL0     H23455   6.913   1.215  10.831  2.2194  0.5082  0.7768
  178MOL0     H23456   6.877   1.451  10.939 -0.1005 -0.3750 -0.9871
  178MOL0     H23457   6.733   1.363  10.883  0.1914 -0.4759  0.7086
  178MOL0     H23458   6.748   1.732  10.631  0.0304 -2.2691 -0.3833
  178MOL0     H23459   6.549   1.875  10.641 -1.3876  0.3637  1.1679
  178MOL0     H23460   6.141   1.991  10.624  0.9224  0.1050  0.0386
  178MOL0     H23461   5.940   2.105  10.623 -3.1452 -1.3712 -1.2468
  178MOL0     H23462   5.725   2.185  10.628  0.0103  2.5736  0.2407
  178MOL0     H23463   5.788   2.247  10.773  0.2968 -0.3731  0.2775
  178MOL0     H23464   5.563   2.320  10.691 -0.4103  0.3855  1.0359
  178MOL0     H23465   5.599   2.311  10.859  0.3596 -2.6700  1.5689
  178MOL0     H23466   5.479   2.094  10.886  0.1891 -2.5469 -1.3323
  178MOL0     H23467   5.452   2.099  10.712  3.5563  1.4601 -1.0450
  178MOL0     H23468   5.324   2.302  10.919 -2.2872  1.7275 -0.6550
  178MOL0     H23469   5.348   2.329  10.742 -0.1798 -0.6085 -1.1038
  178MOL0     H23470   5.199   2.126  10.909 -1.4821  0.4922 -0.3837
  178MOL0     H23471   5.228   2.091  10.743  4.5646  1.0214  1.3224
  178MOL0     H23472   5.100   2.328  10.704 -0.2639  0.2971  0.3726
  178MOL0     H23473   5.099   2.340  10.875 -0.7511 -2.0564  1.9962
  178MOL0     H23474   4.959   2.139  10.691 -1.4359  0.3346 -0.8525
  178MOL0     H23475   4.927   2.128  10.868 -0.6915  1.1077  0.6617
  178MOL0     H23476   4.740   2.233  10.772  0.3111 -0.5582 -3.8879
  178MOL0     H23477   4.826   2.325  10.667 -3.1797  1.2404  0.6478
  178MOL0     H23478   5.805   1.882  10.964 -0.3092  0.4648 -0.5211
  178MOL0     H23479   6.013   1.781  10.997 -1.7822 -1.3980 -1.5683
  178MOL0     H23480   6.382   1.637  10.954  0.2339 -0.1091  0.5993
  178MOL0     H23481   6.586   1.485  10.950  0.5651  0.9113  2.6779
  178MOL0     H23482   8.611   1.564  10.306  1.5471  1.3421  1.4713
  178MOL0     H23483   8.867   1.527  10.369 -1.9293  1.9692  0.6243
  178MOL0     H23484   9.177   1.537  10.755  1.9182  0.1441  1.9869
  178MOL0     H23485   9.415   1.512  10.779  0.5251 -0.8627  0.5072
  178MOL0     H23486   9.622   1.428  10.821 -0.4251 -2.2557 -0.3396
  178MOL0     H23487   9.671   1.532  10.683 -0.6704  0.6581 -0.1937
  178MOL0     H23488   9.866   1.423  10.805  2.0532 -1.1928  0.3637
  178MOL0     H23489   9.787   1.262  10.794 -0.5295 -0.6564  0.3219
  178MOL0     H23490   9.910   1.409  10.566 -0.9887 -0.6400 -0.2276
  178MOL0     H23491   9.874   1.240  10.577  0.4104 -0.1735 -0.2661
  178MOL0     H23492  10.115   1.279  10.610  1.2034 -0.5587  0.7047
  178MOL0     H23493  10.090   1.388  10.750  0.1368  0.4691  0.3379
  178MOL0     H23494  10.101   1.019  10.925  1.3163  1.5066 -0.6074
  178MOL0     H23495   9.425   1.193  10.497 -0.2608  0.6210 -0.9893
  178MOL0     H23496   9.180   1.214  10.469  1.0359 -2.4068  1.1511
  179MOL0     O23497   9.142   7.741   3.702 -0.3821 -0.1142  0.1506
  179MOL0     C23498   9.153   7.712   3.583 -0.1471  0.1654  0.3311
  179MOL0     O23499   9.267   7.671   3.517 -0.1546  0.7804 -0.1948
  179MOL0     C23500   9.386   7.667   3.578 -0.7690  0.3405 -0.4722
  179MOL0     C23501   9.469   7.567   3.530 -0.0958  0.4159  0.3362
  179MOL0     C23502   9.603   7.566   3.580  0.0145 -0.5627  0.1660
  179MOL0     C23503   9.649   7.651   3.684  0.1371  0.1099 -0.2645
  179MOL0     O23504   9.783   7.615   3.729  0.6990 -0.3405 -0.4730
  179MOL0     C23505   9.835   7.685   3.840  0.0019 -0.2802  0.4635
  179MOL0     C23506   9.964   7.615   3.868 -0.2647  0.0669 -0.0257
  179MOL0     C23507   9.998   7.639   4.018 -0.6803  0.1677 -0.5034
  179MOL0     C23508  10.128   7.564   4.044  0.1384  0.3374 -0.4061
  179MOL0     C23509  10.136   7.500   4.181 -0.1179 -0.3042 -0.5080
  179MOL0     C23510  10.178   7.599   4.289 -0.0877  0.6155  0.2498
  179MOL0     C23511  10.178   7.545   4.429 -0.5587  0.5299  0.5155
  179MOL0     C23512  10.041   7.519   4.502  1.4006 -0.4681 -0.1102
  179MOL0     N23513   9.948   7.439   4.425  0.7888  0.5247 -1.3751
  179MOL0     C23514   9.964   7.300   4.427  0.5847  0.9095  0.1528
  179MOL0     C23515   9.870   7.266   4.333  0.6667 -0.7216  0.2531
  179MOL0     C23516   9.857   7.140   4.270  0.4168 -0.0150  0.7382
  179MOL0     C23517   9.973   7.066   4.215  1.3651 -0.0119  0.5595
  179MOL0     C23518  10.044   6.975   4.315  1.2690  0.3397 -1.0306
  179MOL0     C23519  10.105   6.852   4.249  0.4890 -0.3544  0.0988
  179MOL0     O23520  10.197   6.790   4.342  0.3196  0.0533 -0.5579
  179MOL0     C23521  10.168   6.669   4.412 -0.3502  0.2356  0.4447
  179MOL0     C23522  10.266   6.608   4.473 -0.0821  0.4722 -0.1984
  179MOL0     C23523  10.244   6.484   4.538 -0.8152  1.0853 -0.6425
  179MOL0     C23524  10.117   6.428   4.545 -0.1749 -0.5720  0.0675
  179MOL0     C23525  10.103   6.304   4.618  0.0926  0.7105 -0.3445
  179MOL0     O23526   9.978   6.251   4.626  0.8116 -0.3890  0.3677
  179MOL0     C23527   9.956   6.116   4.645  0.6893  0.2642  0.6545
  179MOL0     C23528  10.048   6.015   4.604  0.4921 -0.1962 -0.4430
  179MOL0     C23529  10.012   5.886   4.639  0.1052  0.1269 -0.4846
  179MOL0     C23530   9.891   5.846   4.701  0.6335  0.1488  1.2080
  179MOL0     O23531   9.855   5.716   4.726  0.0932 -0.3419 -0.7592
  179MOL0     C23532   9.924   5.607   4.668  0.5373 -0.5636 -0.2418
  179MOL0     C23533   9.836   5.483   4.695  0.6719 -0.6654 -0.3261
  179MOL0     C23534   9.707   5.496   4.608 -0.5306  0.2973  0.0091
  179MOL0     C23535   9.632   5.359   4.619 -0.5457 -0.3454 -0.0779
  179MOL0     C23536   9.517   5.351   4.513  0.3449  0.2029 -0.2418
  179MOL0     C23537   9.420   5.235   4.560  0.2279 -0.0500 -0.4656
  179MOL0     C23538   9.319   5.196   4.446 -0.3515 -0.5243 -1.0001
  179MOL0     C23539   9.207   5.121   4.526 -0.4573  1.0550  0.4591
  179MOL0    Cl23540   9.080   5.223   4.608  0.2969  0.4144  0.0436
  179MOL0     C23541   9.797   5.951   4.716 -0.0200  0.7255 -0.3336
  179MOL0     C23542   9.836   6.081   4.710  0.6045  0.1177  0.0328
  179MOL0     O23543  10.205   6.254   4.660  0.2750  0.3776  0.1374
  179MOL0     C23544  10.010   6.498   4.484  0.5497  0.4640  0.2634
  179MOL0     C23545  10.035   6.624   4.424 -0.2096 -0.1161 -0.9327
  179MOL0     N23546   9.800   7.376   4.288  0.5570  0.3188  0.3350
  179MOL0     N23547   9.847   7.488   4.346  0.4715 -0.2897 -1.0302
  179MOL0     C23548   9.555   7.741   3.742  0.2074 -0.4632 -0.2526
  179MOL0     C23549   9.430   7.749   3.689  0.4399 -0.0638 -0.4359
  179MOL0     C23550   9.035   7.721   3.488 -0.2208  0.3821  0.4475
  179MOL0     C23551   8.915   7.741   3.540 -0.0915 -0.2952  0.0555
  179MOL0     C23552   8.802   7.754   3.459  0.2515  1.2414  0.4730
  179MOL0     C23553   8.804   7.727   3.322 -0.1907  0.4530 -0.5281
  179MOL0     O23554   8.690   7.736   3.245  0.2080 -0.2459  0.1915
  179MOL0     C23555   8.676   7.621   3.155  0.3010  0.4926  0.2828
  179MOL0     C23556   8.551   7.630   3.071 -0.7525 -0.3500  0.0063
  179MOL0     C23557   8.519   7.497   2.995 -0.7453  1.1265 -0.6531
  179MOL0     C23558   8.407   7.426   3.076  0.0765 -0.0159  0.6408
  179MOL0     C23559   8.274   7.490   3.064  0.3646  0.1592 -0.2365
  179MOL0     C23560   8.170   7.554   3.047 -0.0212  0.8245 -0.5287
  179MOL0     C23561   8.931   7.691   3.276  0.2975 -1.0712  0.3551
  179MOL0     C23562   9.048   7.687   3.349 -0.1594 -0.3297 -0.5041
  179MOL0     H23563   9.440   7.494   3.455 -0.4089 -1.5122  2.2234
  179MOL0     H23564   9.682   7.499   3.545  2.6197  0.8098  2.9831
  179MOL0     H23565   9.769   7.663   3.925  2.2330 -0.0778  2.3495
  179MOL0     H23566   9.850   7.790   3.815 -0.4285 -0.2070  0.5106
  179MOL0     H23567  10.037   7.661   3.801  0.3611 -2.6535 -1.3441
  179MOL0     H23568   9.966   7.509   3.845  0.3650 -0.2200  1.2292
  179MOL0     H23569   9.917   7.593   4.076 -0.4066  0.3454  0.0308
  179MOL0     H23570  10.006   7.745   4.043  1.3529  0.9098 -3.7461
  179MOL0     H23571  10.133   7.482   3.971  1.9697  0.9502 -1.0230
  179MOL0     H23572  10.218   7.623   4.024 -0.3203  0.3487 -2.7775
  179MOL0     H23573  10.209   7.418   4.179  2.3412  1.7171  0.4706
  179MOL0     H23574  10.038   7.457   4.204 -0.1055 -0.1641 -0.1975
  179MOL0     H23575  10.116   7.688   4.280  1.7325  1.7550 -1.8735
  179MOL0     H23576  10.274   7.634   4.250 -1.8506  2.3176 -2.9163
  179MOL0     H23577  10.235   7.451   4.431 -0.2637  0.7118  0.9847
  179MOL0     H23578  10.237   7.603   4.500  4.5944 -3.3923  0.0577
  179MOL0     H23579   9.998   7.617   4.525  1.6301  0.3251 -2.7790
  179MOL0     H23580  10.054   7.475   4.602 -3.3280  2.3221  2.0664
  179MOL0     H23581  10.049   7.258   4.479 -1.1559  0.8748  3.2198
  179MOL0     H23582   9.789   7.145   4.184  2.6444 -0.7609 -1.1581
  179MOL0     H23583   9.817   7.073   4.347  2.6914  0.1420  2.1437
  179MOL0     H23584  10.037   7.147   4.180 -1.0075  1.6685 -0.1826
  179MOL0     H23585   9.936   7.008   4.130  1.6023 -0.8886  1.0442
  179MOL0     H23586  10.119   7.036   4.367  0.8949  0.4033 -0.5583
  179MOL0     H23587   9.971   6.945   4.391 -0.8849  4.1194 -1.3462
  179MOL0     H23588  10.157   6.886   4.159 -1.3563 -3.2196 -2.2260
  179MOL0     H23589  10.029   6.777   4.223  2.6363 -1.7157 -2.6740
  179MOL0     H23590  10.367   6.642   4.454  0.4873 -0.8822  0.2533
  179MOL0     H23591  10.328   6.431   4.581 -0.8045  1.6832  0.1065
  179MOL0     H23592  10.146   6.034   4.560  1.9879 -1.2321  2.2337
  179MOL0     H23593  10.087   5.809   4.623  0.6844  0.7478 -0.8174
  179MOL0     H23594  10.023   5.611   4.716 -0.8565  2.3423  2.8373
  179MOL0     H23595   9.947   5.614   4.561  0.4621 -1.5821 -0.3321
  179MOL0     H23596   9.792   5.485   4.795  2.9263 -0.5044  0.7231
  179MOL0     H23597   9.886   5.389   4.668 -1.8374 -2.0066 -0.5755
  179MOL0     H23598   9.729   5.521   4.504 -2.2267 -2.0381 -1.0148
  179MOL0     H23599   9.638   5.574   4.642 -2.0286 -0.6883 -0.6627
  179MOL0     H23600   9.707   5.285   4.591  0.9758  0.4164  1.7376
  179MOL0     H23601   9.586   5.340   4.717  3.4685 -1.9128  1.7335
  179MOL0     H23602   9.549   5.337   4.410  0.8072  0.8559 -0.1957
  179MOL0     H23603   9.473   5.451   4.510 -0.4152 -0.0785  0.8541
  179MOL0     H23604   9.357   5.271   4.642  0.4794 -0.9428  0.1357
  179MOL0     H23605   9.472   5.143   4.589 -1.0798 -0.9569 -0.9133
  179MOL0     H23606   9.283   5.285   4.394  1.3095 -0.5349 -2.2267
  179MOL0     H23607   9.365   5.130   4.372  1.5767 -3.0389  2.1777
  179MOL0     H23608   9.242   5.038   4.588 -0.6541 -1.9035 -3.0341
  179MOL0     H23609   9.163   5.063   4.444  3.1919  0.9823 -1.6783
  179MOL0     H23610   9.702   5.918   4.756 -0.7959  1.3140 -1.6348
  179MOL0     H23611   9.772   6.158   4.754 -0.1152  1.5853 -3.3211
  179MOL0     H23612   9.909   6.461   4.497 -0.3517  1.8217 -2.2213
  179MOL0     H23613   9.952   6.686   4.391  0.7499  1.8657  0.2355
  179MOL0     H23614   9.571   7.818   3.817 -1.6564  1.2616 -1.5367
  179MOL0     H23615   9.360   7.809   3.747 -1.1181  0.0973 -2.3613
  179MOL0     H23616   8.917   7.787   3.638  1.7993 -1.1203  0.4413
  179MOL0     H23617   8.710   7.784   3.507 -0.4639  0.3248 -0.2851
  179MOL0     H23618   8.680   7.527   3.211 -1.6211 -0.1842 -0.6184
  179MOL0     H23619   8.760   7.624   3.085  0.3911 -1.2777  0.2758
  179MOL0     H23620   8.465   7.666   3.127 -2.1941 -0.1393 -2.2371
  179MOL0     H23621   8.580   7.712   3.004  2.0154 -2.3585 -1.4696
  179MOL0     H23622   8.611   7.439   2.997 -1.2804  0.2028  2.4726
  179MOL0     H23623   8.492   7.523   2.892  0.5761  0.7527 -1.1190
  179MOL0     H23624   8.404   7.323   3.039 -0.8377  0.6167 -1.1932
  179MOL0     H23625   8.442   7.428   3.179 -0.3679  4.1048  0.8779
  179MOL0     H23626   8.074   7.601   3.037 -1.4000 -2.0386 -2.2751
  179MOL0     H23627   8.935   7.691   3.167 -1.7029 -1.1657  0.2468
  179MOL0     H23628   9.148   7.683   3.306  0.8840 -2.4862  1.8583
  180MOL0     O23629   5.526  11.176   6.388 -0.4312 -0.1439 -0.4604
  180MOL0     C23630   5.609  11.097   6.439 -0.3298 -0.0868 -0.1972
  180MOL0     O23631   5.586  11.020   6.550 -0.1475 -0.2573 -0.0891
  180MOL0     C23632   5.501  11.066   6.643  0.6727  0.1082 -0.8243
  180MOL0     C23633   5.547  11.069   6.772  0.7628  0.2041 -0.4112
  180MOL0     C23634   5.472  11.123   6.882 -0.5526 -0.2471  0.3485
  180MOL0     C23635   5.346  11.178   6.866 -0.5864  0.3212 -0.1003
  180MOL0     O23636   5.265  11.215   6.974 -0.3940  0.6809 -0.2577
  180MOL0     C23637   5.177  11.325   6.956 -0.7038  0.7442 -0.1885
  180MOL0     C23638   5.270  11.452   6.934  0.3995  0.0581 -0.1947
  180MOL0     C23639   5.197  11.586   6.919  0.5501 -0.6236  0.6927
  180MOL0     C23640   5.119  11.585   6.781  0.2673  0.4131  0.3360
  180MOL0     C23641   5.065  11.730   6.749  0.4255  0.1041 -0.3014
  180MOL0     C23642   5.162  11.849   6.749  0.2567  0.1684 -0.1261
  180MOL0     C23643   5.104  11.985   6.695  0.2131  0.5559 -0.6932
  180MOL0     C23644   5.164  12.094   6.780 -1.0201  0.6411 -0.3064
  180MOL0     N23645   5.116  12.225   6.739 -0.4700  0.2349  0.8285
  180MOL0     C23646   4.994  12.270   6.698  0.0318  0.1262 -0.2584
  180MOL0     C23647   5.007  12.398   6.680  0.4819 -0.1225 -0.5872
  180MOL0     C23648   4.903  12.489   6.633 -0.1679 -0.2031 -0.3438
  180MOL0     C23649   4.795  12.430   6.542  0.3840 -0.5758  0.5597
  180MOL0     C23650   4.710  12.545   6.487 -0.8561  0.3441  0.3945
  180MOL0     C23651   4.606  12.494   6.383  0.7019 -0.1426  0.4966
  180MOL0     O23652   4.529  12.608   6.348 -0.6154 -0.2397  0.3279
  180MOL0     C23653   4.407  12.590   6.293 -0.0928  0.3400 -0.4361
  180MOL0     C23654   4.304  12.675   6.327 -0.2811  0.1769  0.1294
  180MOL0     C23655   4.181  12.650   6.282 -0.3999 -0.1375 -0.2005
  180MOL0     C23656   4.145  12.535   6.204 -0.1786  1.1130  0.2946
  180MOL0     C23657   4.002  12.498   6.180 -0.8346  0.6473 -0.5305
  180MOL0     O23658   3.977  12.369   6.130 -0.1772 -0.3261 -0.4657
  180MOL0     C23659   3.852  12.346   6.089  0.6145  0.0030 -0.4869
  180MOL0     C23660   3.822  12.367   5.955  0.5131 -0.1679 -0.3047
  180MOL0     C23661   3.687  12.375   5.908  0.9975 -0.5444 -0.2488
  180MOL0     C23662   3.577  12.349   5.991 -0.5700 -0.2199  0.6282
  180MOL0     O23663   3.445  12.337   5.961 -0.7973 -0.0725 -0.7203
  180MOL0     C23664   3.402  12.316   5.824 -0.0467  0.6142 -0.1434
  180MOL0     C23665   3.250  12.309   5.815  0.0227  0.1404  0.5272
  180MOL0     C23666   3.206  12.332   5.672 -0.5323 -0.1702 -0.1410
  180MOL0     C23667   3.058  12.343   5.652 -0.8401  0.8020 -0.7999
  180MOL0     C23668   3.006  12.391   5.518 -0.0326  0.0281  0.7297
  180MOL0     C23669   2.850  12.395   5.527  0.7523  0.0579  0.1562
  180MOL0     C23670   2.788  12.260   5.549  0.4024  0.0998 -0.5008
  180MOL0     C23671   2.704  12.217   5.431 -0.3007  0.0983 -0.0578
  180MOL0    Cl23672   2.790  12.168   5.289 -0.5345 -0.3619 -0.1259
  180MOL0     C23673   3.605  12.327   6.126 -0.2963  0.4716 -0.2424
  180MOL0     C23674   3.735  12.318   6.173 -0.4627  0.8420 -0.8428
  180MOL0     O23675   3.920  12.586   6.198  0.2964 -0.6060  0.4223
  180MOL0     C23676   4.253  12.452   6.159  0.6531 -0.1609 -0.3258
  180MOL0     C23677   4.382  12.484   6.205  0.3806 -0.2111  0.0611
  180MOL0     N23678   5.134  12.438   6.712  0.3171 -0.4115 -0.1257
  180MOL0     N23679   5.200  12.335   6.750 -0.6601 -0.6382  0.4863
  180MOL0     C23680   5.290  11.165   6.732  0.1617  0.2186 -0.0307
  180MOL0     C23681   5.369  11.114   6.626  0.5913  1.0494  0.4706
  180MOL0     C23682   5.753  11.095   6.384  0.0893  0.1273 -0.1503
  180MOL0     C23683   5.861  11.019   6.453  0.1688  0.6848  1.0116
  180MOL0     C23684   5.991  11.005   6.403 -0.4832  0.6424 -0.0788
  180MOL0     C23685   6.006  11.060   6.268  0.2324  0.0375 -0.5848
  180MOL0     O23686   6.122  11.051   6.209  0.1833 -1.0984 -0.0111
  180MOL0     C23687   6.198  10.928   6.213 -0.0859  0.1696 -0.6026
  180MOL0     C23688   6.203  10.849   6.079  0.3871 -0.0027 -0.3207
  180MOL0     C23689   6.061  10.812   6.022 -0.5558 -0.4176 -0.0207
  180MOL0     C23690   6.049  10.661   5.987  0.6176  0.3056 -0.7058
  180MOL0     C23691   5.924  10.641   5.914  0.7878  0.3776 -0.6760
  180MOL0     C23692   5.818  10.643   5.858  0.4983  1.4073 -0.8689
  180MOL0     C23693   5.906  11.134   6.202 -0.4158  0.9679  0.1342
  180MOL0     C23694   5.782  11.153   6.264  0.1189 -0.2919  1.3611
  180MOL0     H23695   5.644  11.025   6.792  1.2711  2.4379  2.8809
  180MOL0     H23696   5.520  11.122   6.980  1.3420 -0.0045 -0.5466
  180MOL0     H23697   5.127  11.328   7.054  1.9004 -1.8440  1.3723
  180MOL0     H23698   5.102  11.324   6.876  0.4531 -1.1274 -1.3115
  180MOL0     H23699   5.333  11.431   6.847 -2.7169 -0.1405 -2.5633
  180MOL0     H23700   5.332  11.464   7.024  0.2710  2.8980 -0.4018
  180MOL0     H23701   5.268  11.669   6.927  1.5048 -1.3676  0.0384
  180MOL0     H23702   5.120  11.591   6.997 -2.6632  0.7624 -2.2733
  180MOL0     H23703   5.189  11.558   6.701 -1.9089  1.4983 -2.0821
  180MOL0     H23704   5.046  11.504   6.785 -1.7016  2.1441  1.8005
  180MOL0     H23705   4.985  11.753   6.820  0.5653  0.3558 -0.2278
  180MOL0     H23706   5.020  11.724   6.649 -0.7487  1.6787  0.0959
  180MOL0     H23707   5.244  11.822   6.683 -0.6860 -1.9313 -0.5159
  180MOL0     H23708   5.192  11.867   6.853 -0.3350  2.5274 -0.2885
  180MOL0     H23709   5.130  12.005   6.591 -0.3431  1.4918 -0.6614
  180MOL0     H23710   4.996  11.989   6.708  0.4001  1.2487  0.9855
  180MOL0     H23711   5.273  12.084   6.775 -1.0741 -2.5555  1.7765
  180MOL0     H23712   5.127  12.077   6.882 -1.0981  2.8436  0.0769
  180MOL0     H23713   4.908  12.205   6.681  0.6266 -1.6061  2.7234
  180MOL0     H23714   4.955  12.563   6.571  1.0878 -1.4850 -0.8481
  180MOL0     H23715   4.851  12.542   6.713  1.9287  0.0237  0.9345
  180MOL0     H23716   4.725  12.367   6.599 -0.6706 -0.1768 -0.2487
  180MOL0     H23717   4.838  12.370   6.461 -1.2903 -3.4101  1.6112
  180MOL0     H23718   4.653  12.594   6.566 -0.1527  0.3212  0.9284
  180MOL0     H23719   4.773  12.620   6.437  2.0374 -2.1422 -0.0154
  180MOL0     H23720   4.543  12.422   6.435  2.4529 -1.3597  1.0257
  180MOL0     H23721   4.659  12.446   6.300 -0.2839 -2.1648  0.9770
  180MOL0     H23722   4.327  12.745   6.407  2.0385 -0.4010  0.0339
  180MOL0     H23723   4.098  12.708   6.319 -0.0342  0.6134 -0.5472
  180MOL0     H23724   3.900  12.388   5.883  1.1029  0.4346  0.4911
  180MOL0     H23725   3.667  12.395   5.804 -2.1990 -2.2575 -0.0923
  180MOL0     H23726   3.457  12.234   5.777  2.6558  2.8444 -1.2178
  180MOL0     H23727   3.434  12.398   5.759 -0.2773 -0.0933 -1.1709
  180MOL0     H23728   3.214  12.388   5.881  0.5937 -0.0085  1.0298
  180MOL0     H23729   3.212  12.214   5.853 -0.8698 -0.7024 -2.2271
  180MOL0     H23730   3.242  12.244   5.619  0.7735 -0.7331  1.6002
  180MOL0     H23731   3.241  12.424   5.624  1.3115  0.0361  1.5158
  180MOL0     H23732   3.016  12.243   5.669 -2.2742  1.7632  1.8851
  180MOL0     H23733   3.020  12.400   5.737  3.7724  1.0906  1.3868
  180MOL0     H23734   3.030  12.330   5.430 -0.8111  0.9368 -0.1515
  180MOL0     H23735   3.039  12.494   5.503  0.1081 -0.0310  0.6292
  180MOL0     H23736   2.810  12.426   5.431  0.7358 -0.8286 -0.1357
  180MOL0     H23737   2.830  12.457   5.615  0.4225 -0.7355  0.6637
  180MOL0     H23738   2.852  12.174   5.570 -0.1237 -0.8204 -2.4509
  180MOL0     H23739   2.728  12.269   5.640  2.7805 -2.7713  1.5245
  180MOL0     H23740   2.640  12.299   5.395  0.6008 -0.1120 -2.2739
  180MOL0     H23741   2.653  12.122   5.446 -0.8829  0.0535 -2.0737
  180MOL0     H23742   3.525  12.289   6.189  0.9923 -1.2096  0.4710
  180MOL0     H23743   3.753  12.302   6.278  1.2699 -1.7089 -1.4174
  180MOL0     H23744   4.228  12.361   6.106  0.2747 -0.6108  0.6172
  180MOL0     H23745   4.461  12.411   6.190 -0.2996 -0.7491 -1.0576
  180MOL0     H23746   5.190  11.200   6.708 -0.4792 -2.1816 -1.2488
  180MOL0     H23747   5.315  11.113   6.532 -1.7970 -0.5791  1.7427
  180MOL0     H23748   5.842  10.980   6.552 -3.0990 -0.4291  0.0588
  180MOL0     H23749   6.060  10.939   6.455 -0.9800 -0.7134 -1.0890
  180MOL0     H23750   6.160  10.859   6.290 -0.4020 -2.2022 -2.7177
  180MOL0     H23751   6.299  10.951   6.246 -0.4902  0.4988  0.4435
  180MOL0     H23752   6.257  10.906   6.002 -0.5324  3.4866  1.3939
  180MOL0     H23753   6.259  10.756   6.085  1.3215  0.5669 -0.1371
  180MOL0     H23754   6.063  10.867   5.927 -2.7227  0.1098  0.1922
  180MOL0     H23755   5.982  10.845   6.090 -0.9041 -1.8449  0.2993
  180MOL0     H23756   6.136  10.627   5.930  0.5301 -2.9397  0.9199
  180MOL0     H23757   6.069  10.595   6.071  0.3502  0.6524 -0.3638
  180MOL0     H23758   5.726  10.643   5.803 -1.3103  1.3720  1.9606
  180MOL0     H23759   5.930  11.177   6.106 -0.2731  1.6182  0.4576
  180MOL0     H23760   5.710  11.217   6.213  1.6774  1.6611  1.4928
  181MOL0     O23761   5.750   7.705   2.536  0.3535  0.4077  0.8802
  181MOL0     C23762   5.762   7.816   2.580  1.0914 -0.4154 -0.6018
  181MOL0     O23763   5.874   7.866   2.630  0.2327  0.1278  0.7998
  181MOL0     C23764   5.989   7.797   2.597 -1.3498 -0.5878  0.0986
  181MOL0     C23765   6.087   7.847   2.515  0.0644  0.7175  0.3241
  181MOL0     C23766   6.209   7.784   2.494  0.2121 -0.2435 -0.2248
  181MOL0     C23767   6.218   7.652   2.543  0.1541  0.1991  0.5496
  181MOL0     O23768   6.324   7.572   2.514  0.1640 -0.8328 -0.1876
  181MOL0     C23769   6.452   7.635   2.529  0.0598 -0.1635 -0.7235
  181MOL0     C23770   6.573   7.534   2.527  0.5618  0.4895  0.1558
  181MOL0     C23771   6.702   7.601   2.484  0.1833  0.3897 -0.8271
  181MOL0     C23772   6.809   7.509   2.419 -0.0188 -0.6219 -0.2251
  181MOL0     C23773   6.916   7.602   2.373 -0.0344  0.3486 -0.9570
  181MOL0     C23774   7.050   7.522   2.346 -0.4159 -0.6898 -0.4577
  181MOL0     C23775   7.171   7.612   2.337 -0.6121  0.3919  1.2604
  181MOL0     C23776   7.303   7.524   2.329 -0.4628 -1.2705 -0.2117
  181MOL0     N23777   7.407   7.603   2.401  0.8495 -0.5349  0.4730
  181MOL0     C23778   7.499   7.691   2.348 -1.1950 -0.9619 -1.1479
  181MOL0     C23779   7.591   7.725   2.449  0.0946  0.6667  0.3198
  181MOL0     C23780   7.713   7.815   2.443 -0.1600 -0.3217 -1.1914
  181MOL0     C23781   7.762   7.834   2.302  0.5856 -0.1203  0.9818
  181MOL0     C23782   7.870   7.943   2.287  0.7483 -0.0360  0.1824
  181MOL0     C23783   7.818   8.086   2.262  0.1348  0.0786 -0.3149
  181MOL0     O23784   7.867   8.131   2.133  0.5699 -0.4265  0.8300
  181MOL0     C23785   7.759   8.197   2.068  0.1448  0.6601 -0.3418
  181MOL0     C23786   7.654   8.127   2.019  0.6275  0.2502  0.0655
  181MOL0     C23787   7.545   8.192   1.966 -0.3203 -0.0847 -0.7563
  181MOL0     C23788   7.544   8.324   1.948 -0.0694 -0.5721 -0.1668
  181MOL0     C23789   7.429   8.391   1.879 -0.9047 -0.2657 -0.8080
  181MOL0     O23790   7.328   8.305   1.856  0.3152  0.1220 -0.2717
  181MOL0     C23791   7.217   8.336   1.788  0.4879  0.7571  0.4337
  181MOL0     C23792   7.153   8.455   1.800  1.0362 -0.0747  0.0966
  181MOL0     C23793   7.025   8.472   1.748 -0.0123  1.4544 -0.4339
  181MOL0     C23794   6.963   8.356   1.692  0.5589 -0.5454 -0.3425
  181MOL0     O23795   6.834   8.359   1.643 -0.1456  0.3866  0.3227
  181MOL0     C23796   6.755   8.479   1.660 -0.5216  0.1132  1.0144
  181MOL0     C23797   6.623   8.458   1.586 -0.2750  1.2947 -0.6106
  181MOL0     C23798   6.653   8.450   1.435  0.4190  0.1730  0.5364
  181MOL0     C23799   6.523   8.472   1.351  0.0156 -0.2865  0.0475
  181MOL0     C23800   6.411   8.384   1.385  0.6675  0.3105  0.5308
  181MOL0     C23801   6.296   8.384   1.282 -0.6232  0.4203 -0.5574
  181MOL0     C23802   6.234   8.522   1.259  0.4212 -0.8292 -0.2546
  181MOL0     C23803   6.100   8.507   1.190  0.1058  0.2592 -0.9203
  181MOL0    Cl23804   5.987   8.442   1.317  0.4171 -0.4731  0.0995
  181MOL0     C23805   7.032   8.241   1.676  0.5545  0.6289 -0.1851
  181MOL0     C23806   7.166   8.229   1.721 -0.3350  0.1980 -0.6556
  181MOL0     O23807   7.442   8.507   1.838 -0.2324  0.8557 -0.4572
  181MOL0     C23808   7.666   8.395   1.981  0.8195 -0.2746  0.7678
  181MOL0     C23809   7.765   8.334   2.046 -0.9471  0.2033 -0.1225
  181MOL0     N23810   7.544   7.658   2.565  0.2812  0.4597  0.4564
  181MOL0     N23811   7.446   7.578   2.536 -0.0109 -0.3389 -0.1754
  181MOL0     C23812   6.122   7.602   2.632  0.8241  0.7323  0.3331
  181MOL0     C23813   6.012   7.682   2.659 -0.0115  1.4762  0.2206
  181MOL0     C23814   5.635   7.892   2.599 -0.1034  0.2345  0.0846
  181MOL0     C23815   5.635   8.026   2.630  0.0298  0.0340  0.2979
  181MOL0     C23816   5.523   8.105   2.645  0.5064  0.8789  0.2754
  181MOL0     C23817   5.397   8.042   2.625  1.0071 -0.4791  0.8969
  181MOL0     O23818   5.273   8.104   2.638  0.1599 -0.6982  0.3437
  181MOL0     C23819   5.272   8.245   2.665 -0.7949 -0.3028 -0.3162
  181MOL0     C23820   5.142   8.290   2.718 -1.0765 -0.3544 -0.3054
  181MOL0     C23821   5.026   8.271   2.619  0.2250  0.5010 -0.2541
  181MOL0     C23822   4.914   8.368   2.635  0.3028 -0.7506  0.2454
  181MOL0     C23823   4.869   8.422   2.504 -0.4494 -0.1382 -1.4377
  181MOL0     C23824   4.854   8.461   2.394 -0.6065 -0.0606 -0.0085
  181MOL0     C23825   5.390   7.904   2.598  0.3878 -0.6290  0.3105
  181MOL0     C23826   5.509   7.830   2.593  0.0672  0.5217  0.1992
  181MOL0     H23827   6.053   7.940   2.469 -0.3802  0.9270  1.0689
  181MOL0     H23828   6.291   7.834   2.444 -1.5685  4.0694  0.6991
  181MOL0     H23829   6.457   7.668   2.633  1.7540 -1.7342 -0.2411
  181MOL0     H23830   6.463   7.713   2.454  3.4235  1.3993  1.1716
  181MOL0     H23831   6.545   7.440   2.479 -0.4356  1.1469 -0.5862
  181MOL0     H23832   6.590   7.501   2.630 -1.0833  1.1343  0.6666
  181MOL0     H23833   6.742   7.646   2.575 -1.0419  0.6390 -0.3936
  181MOL0     H23834   6.677   7.684   2.418 -1.0260  2.1082  1.6525
  181MOL0     H23835   6.853   7.441   2.492 -0.5715 -0.4378  0.2832
  181MOL0     H23836   6.777   7.464   2.325  5.8665  0.0841 -3.0478
  181MOL0     H23837   6.937   7.676   2.450 -1.7439  0.3259 -0.4484
  181MOL0     H23838   6.890   7.663   2.286  0.5134 -1.7732 -2.7004
  181MOL0     H23839   7.042   7.466   2.253  1.7576  1.0290 -1.7937
  181MOL0     H23840   7.061   7.456   2.433 -2.2687 -0.6562 -0.1663
  181MOL0     H23841   7.169   7.676   2.248 -0.6361 -2.5649 -0.9981
  181MOL0     H23842   7.171   7.676   2.426  2.0650  1.6763  0.4497
  181MOL0     H23843   7.330   7.515   2.224  3.1342 -0.6846  0.5535
  181MOL0     H23844   7.292   7.423   2.369 -2.1901 -1.4117 -0.9631
  181MOL0     H23845   7.498   7.736   2.249 -2.3388 -0.6860 -1.0258
  181MOL0     H23846   7.793   7.767   2.499  0.4168  3.3005  1.5016
  181MOL0     H23847   7.694   7.910   2.494 -2.0025 -2.0022  1.5037
  181MOL0     H23848   7.673   7.850   2.240  0.0831 -5.1705  0.0362
  181MOL0     H23849   7.798   7.741   2.257 -2.8742 -2.1261  1.9656
  181MOL0     H23850   7.941   7.944   2.370  1.2708  0.2499 -0.2609
  181MOL0     H23851   7.921   7.922   2.193  2.6031  1.9569  0.6578
  181MOL0     H23852   7.865   8.145   2.341  0.2189 -2.3359  1.5255
  181MOL0     H23853   7.709   8.095   2.267 -0.0999 -1.3540 -1.8272
  181MOL0     H23854   7.655   8.019   2.028  0.0444  0.0663 -1.7734
  181MOL0     H23855   7.468   8.132   1.919 -0.7777 -0.9275  0.9902
  181MOL0     H23856   7.177   8.540   1.864 -1.8699  1.5479 -0.7749
  181MOL0     H23857   6.976   8.568   1.761 -1.0981  0.5355  3.6199
  181MOL0     H23858   6.820   8.562   1.632 -0.3785  0.7910  3.1986
  181MOL0     H23859   6.742   8.493   1.768 -1.7064 -0.1518  0.9221
  181MOL0     H23860   6.556   8.540   1.611 -1.5295 -0.1806  1.0480
  181MOL0     H23861   6.580   8.364   1.620  1.5721  0.5802 -0.1489
  181MOL0     H23862   6.689   8.350   1.407 -1.0500 -0.8331  2.0161
  181MOL0     H23863   6.722   8.527   1.400  0.6806  0.2503  1.2112
  181MOL0     H23864   6.492   8.576   1.370  1.2975 -0.0109  0.8087
  181MOL0     H23865   6.552   8.461   1.246 -1.8452 -1.8597 -0.3427
  181MOL0     H23866   6.354   8.405   1.476  0.4743 -0.3034  0.5593
  181MOL0     H23867   6.457   8.285   1.392  0.8267  0.4333  1.3450
  181MOL0     H23868   6.210   8.324   1.311 -1.4597  1.6037 -0.5430
  181MOL0     H23869   6.349   8.349   1.193  0.2584  1.8634 -0.6414
  181MOL0     H23870   6.206   8.573   1.352 -1.5131 -0.4325 -1.0148
  181MOL0     H23871   6.301   8.592   1.209  0.9474 -1.5449 -0.5605
  181MOL0     H23872   6.104   8.444   1.101  0.4427 -0.6041 -0.3061
  181MOL0     H23873   6.076   8.609   1.159 -3.2204 -0.0142  0.3963
  181MOL0     H23874   6.983   8.158   1.627  2.2963 -0.3173 -0.4051
  181MOL0     H23875   7.218   8.134   1.713 -0.3191  0.2205 -0.8269
  181MOL0     H23876   7.678   8.500   1.958 -1.5769  0.0204  0.6490
  181MOL0     H23877   7.854   8.391   2.071 -1.6071  0.6999  1.1857
  181MOL0     H23878   6.134   7.500   2.667  1.4699 -0.0960 -2.1412
  181MOL0     H23879   5.938   7.657   2.733 -1.9586 -0.5802 -2.2352
  181MOL0     H23880   5.731   8.075   2.635  0.0958 -0.0417 -0.1597
  181MOL0     H23881   5.535   8.212   2.660 -0.7839  1.1054 -0.1735
  181MOL0     H23882   5.302   8.295   2.572  3.3505 -1.1750  0.3286
  181MOL0     H23883   5.348   8.270   2.740 -1.2250 -2.0434  0.7767
  181MOL0     H23884   5.114   8.235   2.808  0.5303 -2.4855 -1.0526
  181MOL0     H23885   5.152   8.397   2.741 -0.1887 -0.9030  2.2123
  181MOL0     H23886   4.997   8.166   2.623  0.9639  0.3017 -0.0312
  181MOL0     H23887   5.065   8.288   2.518 -1.7978 -1.3277 -1.4219
  181MOL0     H23888   4.832   8.323   2.691 -0.0529  1.2050  1.3750
  181MOL0     H23889   4.955   8.439   2.707  0.1613 -1.5769  1.1582
  181MOL0     H23890   4.815   8.499   2.302 -0.4316  3.3476  1.1865
  181MOL0     H23891   5.292   7.859   2.587  0.8701 -2.4415  2.7187
  181MOL0     H23892   5.506   7.726   2.564  0.9686  1.2069 -2.6624
  182MOL0     O23893   0.968   8.619   6.871  0.1665  0.5286  0.3451
  182MOL0     C23894   1.035   8.706   6.818 -0.2214  0.2585 -0.1671
  182MOL0     O23895   0.995   8.835   6.779  0.1596 -0.7213 -0.3840
  182MOL0     C23896   0.864   8.874   6.801  0.9079 -0.0965  0.6188
  182MOL0     C23897   0.754   8.783   6.770  0.6390 -0.2137 -0.2046
  182MOL0     C23898   0.615   8.829   6.796 -0.3420  0.3950  0.4034
  182MOL0     C23899   0.589   8.957   6.832  0.7249  0.2612  0.8364
  182MOL0     O23900   0.460   9.011   6.855 -0.1373 -0.2790  0.0113
  182MOL0     C23901   0.341   8.927   6.836  0.4430  0.2816 -0.6198
  182MOL0     C23902   0.295   8.840   6.956  0.7165 -0.1751 -1.3555
  182MOL0     C23903   0.199   8.735   6.909 -0.7916  0.1342 -0.1628
  182MOL0     C23904   0.153   8.628   7.007  0.0561 -0.1005  1.1940
  182MOL0     C23905   0.042   8.549   6.952  0.3886  0.2381 -0.0201
  182MOL0     C23906   0.009   8.442   7.060 -0.4110 -0.2272  1.0294
  182MOL0     C23907  -0.106   8.351   7.000 -0.4771  0.5649 -1.1144
  182MOL0     C23908  -0.136   8.228   7.089  0.9294  0.1835 -0.2114
  182MOL0     N23909  -0.199   8.129   6.996  0.1263  0.2364  0.1670
  182MOL0     C23910  -0.323   8.123   6.935  0.4953 -0.1441  0.2420
  182MOL0     C23911  -0.325   8.018   6.852  0.4025 -0.6356 -0.4919
  182MOL0     C23912  -0.449   7.972   6.783  0.2016  0.4310  0.3206
  182MOL0     C23913  -0.543   7.876   6.859 -0.1533 -0.2824 -0.3244
  182MOL0     C23914  -0.506   7.732   6.854 -0.3263 -0.0993 -0.0532
  182MOL0     C23915  -0.579   7.641   6.955 -0.1691 -0.2630 -0.3346
  182MOL0     O23916  -0.717   7.662   6.932  1.1678 -1.1254 -0.5557
  182MOL0     C23917  -0.777   7.593   6.830 -0.4707  0.4671  0.6685
  182MOL0     C23918  -0.895   7.657   6.798  0.8328 -0.0194  1.2725
  182MOL0     C23919  -0.988   7.601   6.701 -1.0157  0.2477 -0.6493
  182MOL0     C23920  -0.956   7.478   6.632  0.8102 -0.4475 -0.9501
  182MOL0     C23921  -1.056   7.412   6.547 -0.3597  0.2053 -0.1858
  182MOL0     O23922  -1.184   7.453   6.561 -0.3935  0.6842 -1.1956
  182MOL0     C23923  -1.288   7.374   6.527 -0.3980 -0.7963  0.4303
  182MOL0     C23924  -1.374   7.409   6.418  0.3860 -1.0606  0.7022
  182MOL0     C23925  -1.483   7.323   6.387 -0.5965  0.1913  0.1087
  182MOL0     C23926  -1.514   7.214   6.463  0.9398  0.3163  0.1332
  182MOL0     O23927  -1.623   7.144   6.410  0.1053  0.7529  0.1974
  182MOL0     C23928  -1.703   7.083   6.511  0.1504  0.7437  0.9380
  182MOL0     C23929  -1.667   6.936   6.528 -0.0801  0.4123 -0.8296
  182MOL0     C23930  -1.751   6.836   6.439  0.1882  0.1095 -0.3731
  182MOL0     C23931  -1.902   6.817   6.480 -0.5346  1.2653  0.1054
  182MOL0     C23932  -1.951   6.674   6.437  0.0388  0.4334  0.0235
  182MOL0     C23933  -2.090   6.634   6.492 -0.2956 -0.5973 -1.0535
  182MOL0     C23934  -2.150   6.510   6.436  0.9409 -0.1017  0.0076
  182MOL0     C23935  -2.096   6.379   6.482  0.0548 -0.0730 -0.7828
  182MOL0    Cl23936  -2.082   6.369   6.657 -0.3912  0.3041 -0.6956
  182MOL0     C23937  -1.435   7.194   6.578 -0.1802 -0.9598  0.3731
  182MOL0     C23938  -1.319   7.268   6.608 -0.4122  0.5510 -0.8282
  182MOL0     O23939  -1.011   7.320   6.482  0.9206  0.3588  0.0158
  182MOL0     C23940  -0.832   7.410   6.677 -0.7385 -1.0870  0.0125
  182MOL0     C23941  -0.748   7.466   6.770 -0.2296  0.3702 -0.1117
  182MOL0     N23942  -0.196   7.955   6.865  0.0118  0.5539 -0.4280
  182MOL0     N23943  -0.123   8.026   6.955  0.1545  0.3157  1.0086
  182MOL0     C23944   0.699   9.034   6.869 -0.4374 -0.8997 -0.3417
  182MOL0     C23945   0.835   8.994   6.861 -0.1827  0.5112 -0.4916
  182MOL0     C23946   1.162   8.652   6.764 -0.4778 -0.2187  0.4481
  182MOL0     C23947   1.276   8.733   6.745 -0.6609 -0.4735 -0.3350
  182MOL0     C23948   1.396   8.683   6.706 -0.0821  0.5460  0.4407
  182MOL0     C23949   1.398   8.544   6.662 -0.4851  0.7652  0.4932
  182MOL0     O23950   1.512   8.500   6.603 -0.0269  0.4810  0.4180
  182MOL0     C23951   1.555   8.366   6.647  0.5377 -0.2420 -0.3937
  182MOL0     C23952   1.687   8.336   6.589 -0.3909  0.2237  0.7136
  182MOL0     C23953   1.674   8.252   6.455 -0.2842 -0.9528  0.1460
  182MOL0     C23954   1.796   8.279   6.363  0.1303 -1.3888 -0.1754
  182MOL0     C23955   1.917   8.276   6.437 -0.0744  1.4413  1.2695
  182MOL0     C23956   2.024   8.298   6.504  1.3087  0.0213 -0.2780
  182MOL0     C23957   1.284   8.467   6.675  1.1530 -0.4572 -0.0018
  182MOL0     C23958   1.165   8.519   6.732  0.2250 -0.5185 -0.3677
  182MOL0     H23959   0.775   8.692   6.713 -0.6711  1.2221 -3.2089
  182MOL0     H23960   0.532   8.763   6.772  1.2183 -1.7816  0.7133
  182MOL0     H23961   0.358   8.861   6.750 -0.3554 -1.1166  0.2596
  182MOL0     H23962   0.255   8.990   6.813  1.6272  1.4597 -1.9823
  182MOL0     H23963   0.239   8.897   7.030 -2.1435 -1.3440 -2.4647
  182MOL0     H23964   0.375   8.789   7.010 -2.4045 -1.6799  2.3025
  182MOL0     H23965   0.241   8.691   6.818 -0.7052 -1.2158  0.5042
  182MOL0     H23966   0.109   8.791   6.883 -3.0614 -2.3197  1.9361
  182MOL0     H23967   0.237   8.566   7.042 -1.2392 -3.6092 -1.3903
  182MOL0     H23968   0.104   8.674   7.093 -0.3940  1.4209  0.1555
  182MOL0     H23969   0.091   8.500   6.867  4.7257 -0.2074  2.4500
  182MOL0     H23970  -0.038   8.616   6.918  1.9930  2.1483 -0.2085
  182MOL0     H23971  -0.018   8.488   7.155 -1.2470 -0.3567  0.8649
  182MOL0     H23972   0.095   8.376   7.074 -0.9830 -0.5168  3.6912
  182MOL0     H23973  -0.190   8.420   6.991 -2.3248 -0.1636  5.5787
  182MOL0     H23974  -0.071   8.317   6.902 -0.1966  1.0553 -1.1911
  182MOL0     H23975  -0.199   8.255   7.174  3.3279 -1.9137  2.3851
  182MOL0     H23976  -0.046   8.177   7.123  0.2142 -2.0998 -1.5656
  182MOL0     H23977  -0.403   8.196   6.949  1.0194  0.0663  2.4348
  182MOL0     H23978  -0.434   7.920   6.688  0.1569  2.8532 -1.1198
  182MOL0     H23979  -0.496   8.068   6.760  0.1529  0.6092  1.1275
  182MOL0     H23980  -0.647   7.898   6.832  0.3155  0.3603 -1.7039
  182MOL0     H23981  -0.542   7.905   6.965  0.3406  1.0278 -0.6668
  182MOL0     H23982  -0.508   7.689   6.754 -1.5389  0.3204 -0.2323
  182MOL0     H23983  -0.408   7.726   6.901 -0.5949 -3.0966  0.3433
  182MOL0     H23984  -0.564   7.684   7.054  0.9409  1.3380 -1.1703
  182MOL0     H23985  -0.549   7.537   6.971  3.6081  0.7654  0.1333
  182MOL0     H23986  -0.917   7.750   6.849  2.9001  0.8006  0.7682
  182MOL0     H23987  -1.081   7.654   6.684 -0.5997  0.4757 -2.4707
  182MOL0     H23988  -1.339   7.493   6.358 -0.8852 -1.4421 -0.6328
  182MOL0     H23989  -1.550   7.335   6.302  0.8653 -1.9622 -1.4518
  182MOL0     H23990  -1.807   7.091   6.479 -0.3928 -1.8605  1.8285
  182MOL0     H23991  -1.693   7.129   6.609  0.5194  1.5102  0.5517
  182MOL0     H23992  -1.682   6.907   6.632  0.4819  2.7095 -0.0367
  182MOL0     H23993  -1.560   6.919   6.515  0.3627  1.4224  1.0643
  182MOL0     H23994  -1.710   6.735   6.445 -0.1291 -0.0985 -1.4730
  182MOL0     H23995  -1.753   6.857   6.332 -1.3616  1.2116 -0.1650
  182MOL0     H23996  -1.912   6.837   6.588 -0.5295 -1.6040  0.7318
  182MOL0     H23997  -1.962   6.891   6.428  0.8374  1.6824 -0.9258
  182MOL0     H23998  -1.874   6.605   6.473  3.2776  2.2545 -2.8520
  182MOL0     H23999  -1.939   6.659   6.330 -0.4971  0.0288  0.0177
  182MOL0     H24000  -2.164   6.711   6.470 -2.5127 -3.3052 -4.0510
  182MOL0     H24001  -2.078   6.636   6.600 -2.4196 -2.2339 -0.7191
  182MOL0     H24002  -2.251   6.510   6.480  1.6878  1.4276  1.8200
  182MOL0     H24003  -2.154   6.507   6.327  0.5724  0.5363  0.0009
  182MOL0     H24004  -2.001   6.381   6.428  0.4071  2.8845 -0.2095
  182MOL0     H24005  -2.160   6.298   6.443  0.9708  0.0684 -2.6889
  182MOL0     H24006  -1.464   7.118   6.650  0.8939  0.9919  3.0179
  182MOL0     H24007  -1.252   7.235   6.687 -2.1466  1.1826  1.0130
  182MOL0     H24008  -0.801   7.318   6.629  3.3561  0.1580 -0.1141
  182MOL0     H24009  -0.652   7.425   6.802  0.6778  0.4067 -2.5478
  182MOL0     H24010   0.673   9.133   6.904 -1.3915 -1.4322  0.4868
  182MOL0     H24011   0.910   9.058   6.906  1.6978 -4.2742  4.1677
  182MOL0     H24012   1.287   8.839   6.765  2.3881 -1.0702  1.8027
  182MOL0     H24013   1.481   8.749   6.690  1.0649 -1.5471 -3.6660
  182MOL0     H24014   1.474   8.297   6.621 -1.5686  1.8727  0.2189
  182MOL0     H24015   1.567   8.370   6.756 -1.2006  1.6829 -0.2154
  182MOL0     H24016   1.726   8.433   6.560  1.4791  0.8184  4.5374
  182MOL0     H24017   1.759   8.285   6.654  1.9259  1.7180 -0.5825
  182MOL0     H24018   1.583   8.284   6.403  0.4237  2.7744  0.8733
  182MOL0     H24019   1.676   8.145   6.478  0.7351 -0.6853  1.4639
  182MOL0     H24020   1.805   8.197   6.290 -0.0113 -0.2886 -1.4675
  182MOL0     H24021   1.770   8.372   6.312 -0.7817 -0.3625  2.0477
  182MOL0     H24022   2.111   8.318   6.563  1.5597 -1.5057 -0.0848
  182MOL0     H24023   1.282   8.365   6.640  0.6014 -1.0874  1.7619
  182MOL0     H24024   1.069   8.469   6.721 -0.8514  1.3380  0.0024
  183MOL0     O24025   5.542   8.494   2.752 -0.0114 -0.1984  0.7962
  183MOL0     C24026   5.606   8.597   2.760  0.1826 -0.3423  0.8271
  183MOL0     O24027   5.551   8.714   2.802  1.0512 -0.1131  0.2576
  183MOL0     C24028   5.411   8.711   2.821 -0.5997  0.6190  0.6628
  183MOL0     C24029   5.319   8.720   2.717 -0.4037 -0.5566 -0.6266
  183MOL0     C24030   5.183   8.701   2.735  0.4562 -0.0183  0.1771
  183MOL0     C24031   5.130   8.674   2.864  0.6905  0.4783  0.3801
  183MOL0     O24032   4.997   8.656   2.877  0.0451 -0.2302 -0.3541
  183MOL0     C24033   4.933   8.687   3.002 -0.0973  0.1082 -0.2735
  183MOL0     C24034   4.778   8.676   2.982 -0.5737 -0.8752  0.0898
  183MOL0     C24035   4.692   8.676   3.110 -0.8715 -0.3908  0.0523
  183MOL0     C24036   4.739   8.768   3.224  0.2155  0.1300 -0.4200
  183MOL0     C24037   4.665   8.733   3.351  0.3687 -1.0536  0.3684
  183MOL0     C24038   4.681   8.848   3.451 -0.5008  0.2461 -0.2859
  183MOL0     C24039   4.597   8.839   3.581 -0.5468  0.1766  0.2286
  183MOL0     C24040   4.448   8.874   3.567 -0.7113  0.6748  0.5793
  183MOL0     N24041   4.375   8.859   3.690  0.1844  0.1417 -0.5218
  183MOL0     C24042   4.279   8.769   3.726  1.1544 -0.4088 -0.1592
  183MOL0     C24043   4.238   8.801   3.851 -0.7754 -0.3709  0.5376
  183MOL0     C24044   4.164   8.710   3.932  0.3985  0.5541 -0.1282
  183MOL0     C24045   4.039   8.782   3.953 -0.3626 -0.6163 -0.6325
  183MOL0     C24046   3.937   8.698   4.038 -0.1255 -0.1367 -0.1376
  183MOL0     C24047   3.851   8.611   3.939  0.5637  0.8965 -0.1492
  183MOL0     O24048   3.731   8.552   4.012  0.0896 -0.1334  0.3857
  183MOL0     C24049   3.615   8.608   3.983  0.3884  0.1834  0.5952
  183MOL0     C24050   3.548   8.675   4.087  0.7950 -0.2196 -1.2509
  183MOL0     C24051   3.423   8.741   4.066 -0.5497  0.1076  0.2454
  183MOL0     C24052   3.369   8.738   3.934 -0.3931  0.1616 -0.8514
  183MOL0     C24053   3.234   8.796   3.919  0.4289  0.6377  0.1002
  183MOL0     O24054   3.201   8.897   4.008  0.0264 -0.3866 -0.0748
  183MOL0     C24055   3.070   8.920   4.028  0.0015  0.7707 -0.6465
  183MOL0     C24056   2.997   8.868   4.132 -0.6184 -0.0135  0.1270
  183MOL0     C24057   2.863   8.884   4.145 -0.3889 -0.3425 -0.4110
  183MOL0     C24058   2.786   8.966   4.060 -0.0548 -0.0063 -0.3367
  183MOL0     O24059   2.650   8.999   4.071  0.4031  0.2786  0.2249
  183MOL0     C24060   2.574   8.914   4.155 -0.6679 -0.7250 -0.9230
  183MOL0     C24061   2.423   8.932   4.126  0.0491 -0.3209 -0.6662
  183MOL0     C24062   2.383   8.900   3.974  0.4064 -0.2860 -0.3622
  183MOL0     C24063   2.450   8.763   3.933  0.8560 -0.6248 -0.1072
  183MOL0     C24064   2.414   8.710   3.791  0.7297 -0.3932 -1.4606
  183MOL0     C24065   2.269   8.653   3.770 -0.0584  0.5832 -0.6407
  183MOL0     C24066   2.229   8.670   3.627 -1.2159  0.9009 -0.0308
  183MOL0     C24067   2.083   8.674   3.607 -1.1022 -0.3058  0.6110
  183MOL0    Cl24068   2.027   8.830   3.687  0.0238 -0.0237 -0.1293
  183MOL0     C24069   2.853   9.019   3.955 -1.3976 -0.9413  0.1523
  183MOL0     C24070   2.991   8.996   3.938 -0.4886 -1.1111 -0.1079
  183MOL0     O24071   3.152   8.736   3.846 -0.2639 -0.7133  0.0156
  183MOL0     C24072   3.434   8.668   3.829  0.5902 -0.5533 -0.1658
  183MOL0     C24073   3.562   8.616   3.855  0.0802 -0.5504 -0.1517
  183MOL0     N24074   4.317   8.905   3.896 -0.3838  0.4419  0.5972
  183MOL0     N24075   4.403   8.924   3.801 -0.1656 -1.0053 -0.4220
  183MOL0     C24076   5.216   8.690   2.975  0.4637 -0.2846 -0.1674
  183MOL0     C24077   5.354   8.705   2.954  0.1069  0.1725 -0.2058
  183MOL0     C24078   5.754   8.589   2.738  0.2810 -0.0724  0.4080
  183MOL0     C24079   5.822   8.479   2.670 -0.2630  0.0585 -0.7870
  183MOL0     C24080   5.961   8.481   2.634  0.4732 -0.6603 -0.8883
  183MOL0     C24081   6.029   8.601   2.664  0.1665  0.1260 -0.9075
  183MOL0     O24082   6.161   8.630   2.632 -0.2491  0.1722 -0.3993
  183MOL0     C24083   6.257   8.527   2.659 -0.6325 -0.4617 -0.5503
  183MOL0     C24084   6.392   8.579   2.601 -0.2878 -0.2700 -0.4549
  183MOL0     C24085   6.388   8.632   2.458 -0.3475 -0.7876  0.0008
  183MOL0     C24086   6.408   8.781   2.446  0.1738  0.3593 -0.6201
  183MOL0     C24087   6.555   8.804   2.474 -0.0072  0.6207  0.0156
  183MOL0     C24088   6.672   8.832   2.496  0.4535 -0.2275 -0.1028
  183MOL0     C24089   5.967   8.710   2.725  0.1541 -0.2558 -0.4587
  183MOL0     C24090   5.830   8.701   2.759 -0.0742  1.0075  0.1969
  183MOL0     H24091   5.359   8.751   2.621 -2.8579  1.6847 -1.0506
  183MOL0     H24092   5.117   8.704   2.649 -0.3303 -1.0599  0.7100
  183MOL0     H24093   4.958   8.789   3.034 -2.5829  1.2733 -1.7384
  183MOL0     H24094   4.965   8.613   3.076 -0.5350  0.9778  0.8186
  183MOL0     H24095   4.762   8.575   2.943  0.5941 -1.5875  1.3914
  183MOL0     H24096   4.743   8.755   2.914 -0.8010 -0.5119  0.6228
  183MOL0     H24097   4.703   8.576   3.153 -0.5632 -0.1859  0.4624
  183MOL0     H24098   4.585   8.677   3.088 -0.6002  0.7116 -1.3435
  183MOL0     H24099   4.843   8.774   3.256  0.4531  2.4459 -1.4372
  183MOL0     H24100   4.707   8.867   3.191 -0.3462 -0.8651 -3.1130
  183MOL0     H24101   4.701   8.641   3.399 -0.4654 -1.0234  1.0972
  183MOL0     H24102   4.563   8.717   3.314  1.0464 -0.0818 -2.0638
  183MOL0     H24103   4.652   8.935   3.392  1.7433  0.8980 -0.5332
  183MOL0     H24104   4.786   8.846   3.482 -0.6014 -0.1512  0.0439
  183MOL0     H24105   4.606   8.733   3.609  1.0349  0.3594  0.5577
  183MOL0     H24106   4.653   8.900   3.654  0.6528 -1.1787  0.4985
  183MOL0     H24107   4.405   8.807   3.492  0.2162 -0.1587  0.7749
  183MOL0     H24108   4.452   8.981   3.541  3.0728  0.2662 -1.1887
  183MOL0     H24109   4.265   8.681   3.665  3.5364 -0.0340 -1.3866
  183MOL0     H24110   4.222   8.690   4.023  1.8714  1.8150 -0.7439
  183MOL0     H24111   4.134   8.615   3.886  0.9524 -0.8368  2.1943
  183MOL0     H24112   3.995   8.816   3.859  3.4288  1.0165 -2.0173
  183MOL0     H24113   4.058   8.872   4.012  1.3077 -1.0666 -0.4422
  183MOL0     H24114   3.994   8.643   4.114  1.2002  1.2416 -0.0988
  183MOL0     H24115   3.870   8.770   4.085 -2.8102 -0.2595 -3.4032
  183MOL0     H24116   3.903   8.525   3.894 -2.5638 -3.0829  3.0590
  183MOL0     H24117   3.819   8.672   3.854  0.9625 -0.7484 -1.5419
  183MOL0     H24118   3.582   8.669   4.190 -0.8124  2.1580 -0.4961
  183MOL0     H24119   3.369   8.785   4.150 -1.7820 -0.5846 -0.1648
  183MOL0     H24120   3.046   8.801   4.202 -3.0834 -3.7744 -1.4240
  183MOL0     H24121   2.817   8.825   4.223 -0.0925 -1.7004 -1.2209
  183MOL0     H24122   2.597   8.949   4.256  1.4849 -1.4589 -1.1083
  183MOL0     H24123   2.609   8.811   4.141  2.2909 -0.1790  1.5009
  183MOL0     H24124   2.389   9.030   4.163 -2.4187 -2.0209  2.0452
  183MOL0     H24125   2.363   8.866   4.190 -1.3054 -0.8854 -2.4628
  183MOL0     H24126   2.407   8.983   3.907 -0.4596 -0.2076 -0.5871
  183MOL0     H24127   2.274   8.892   3.972  0.2699  1.3179 -0.4801
  183MOL0     H24128   2.557   8.785   3.928  0.2741  2.2719 -2.0615
  183MOL0     H24129   2.418   8.683   4.001  0.0205 -1.1582 -1.0946
  183MOL0     H24130   2.481   8.628   3.765 -0.0340 -1.7960  0.7819
  183MOL0     H24131   2.438   8.787   3.717  3.2100  0.1731 -0.1707
  183MOL0     H24132   2.195   8.694   3.839 -1.8342 -0.7190 -1.7051
  183MOL0     H24133   2.277   8.547   3.793  1.5644  1.1085  1.5653
  183MOL0     H24134   2.267   8.762   3.582 -0.6180  0.0374 -1.3282
  183MOL0     H24135   2.275   8.595   3.563  0.6169  3.4815 -1.9396
  183MOL0     H24136   2.053   8.577   3.649 -0.2724 -1.8552 -2.1099
  183MOL0     H24137   2.069   8.680   3.499 -2.6178 -0.4882  0.7858
  183MOL0     H24138   2.803   9.068   3.872 -0.2991 -0.7411 -0.4141
  183MOL0     H24139   3.046   9.041   3.856 -1.4696 -1.5087 -1.0074
  183MOL0     H24140   3.410   8.663   3.723 -0.3521 -2.9579  0.1063
  183MOL0     H24141   3.595   8.560   3.768  0.1175 -0.5373 -0.1462
  183MOL0     H24142   5.188   8.673   3.079 -2.4909  1.1790 -0.6057
  183MOL0     H24143   5.428   8.697   3.032  0.3625  1.7131 -0.2600
  183MOL0     H24144   5.765   8.393   2.637 -2.6347  1.7584 -1.3244
  183MOL0     H24145   6.004   8.399   2.578  1.2514  0.6595 -2.2784
  183MOL0     H24146   6.237   8.432   2.608  1.9716 -1.2242 -0.2603
  183MOL0     H24147   6.276   8.512   2.765  1.1087  0.7973 -0.6300
  183MOL0     H24148   6.431   8.660   2.663  0.6417 -2.5384  2.1594
  183MOL0     H24149   6.464   8.496   2.602 -0.9361 -0.8569 -1.2052
  183MOL0     H24150   6.292   8.592   2.423 -2.0400  3.4122 -0.7387
  183MOL0     H24151   6.460   8.580   2.395 -0.3745 -0.8155 -0.0070
  183MOL0     H24152   6.383   8.821   2.348 -4.3363 -0.7031 -0.1039
  183MOL0     H24153   6.344   8.825   2.522 -1.1320  3.4384 -3.3054
  183MOL0     H24154   6.775   8.856   2.516  0.5131 -0.0495 -0.6268
  183MOL0     H24155   6.019   8.802   2.749 -1.2801  0.4512  0.0661
  183MOL0     H24156   5.799   8.790   2.813  1.8000 -1.2265  5.6276
  184MOL0     O24157   5.674   0.516   6.228 -0.7269  0.1637 -0.0540
  184MOL0     C24158   5.684   0.402   6.263 -0.3039  0.3812  0.3983
  184MOL0     O24159   5.731   0.304   6.184 -0.1508 -0.4537 -0.4111
  184MOL0     C24160   5.758   0.333   6.045 -0.2036  0.2123 -0.6401
  184MOL0     C24161   5.885   0.296   5.991 -0.0687  0.8015  0.1670
  184MOL0     C24162   5.908   0.302   5.851 -0.1991  0.6187 -0.3574
  184MOL0     C24163   5.813   0.346   5.764  0.3829 -0.1822 -0.9513
  184MOL0     O24164   5.840   0.348   5.635 -0.3563  0.4660  0.2925
  184MOL0     C24165   5.911   0.463   5.583 -0.5339  0.8706 -0.9915
  184MOL0     C24166   6.050   0.411   5.529  0.2799 -0.7138  0.6213
  184MOL0     C24167   6.017   0.308   5.424 -0.2038  0.0597  0.4235
  184MOL0     C24168   6.149   0.270   5.349  0.7383 -0.0705  0.0232
  184MOL0     C24169   6.111   0.193   5.229  1.1492  0.5456 -0.2660
  184MOL0     C24170   6.244   0.145   5.160  0.1102 -0.7847 -1.3801
  184MOL0     C24171   6.219   0.068   5.031 -0.5678 -0.1583  0.2946
  184MOL0     C24172   6.336  -0.003   4.968  0.2512 -0.2240  0.5358
  184MOL0     N24173   6.452   0.079   4.958 -1.0558 -0.6121  0.3690
  184MOL0     C24174   6.550   0.097   5.063  0.1113 -0.4691  0.2424
  184MOL0     C24175   6.607   0.213   5.029  0.0466  0.3077 -0.0219
  184MOL0     C24176   6.711   0.280   5.114 -0.3665 -0.3328 -0.3557
  184MOL0     C24177   6.704   0.433   5.095 -1.1057  1.1873 -0.2991
  184MOL0     C24178   6.575   0.496   5.130  0.2324  0.8638  0.2735
  184MOL0     C24179   6.569   0.634   5.049  0.5368  0.2203  0.0157
  184MOL0     O24180   6.438   0.701   5.042 -0.3277 -0.3913 -0.1334
  184MOL0     C24181   6.327   0.625   5.006  0.2003  0.6423  0.6519
  184MOL0     C24182   6.207   0.647   5.071  1.0255 -0.1196 -0.0243
  184MOL0     C24183   6.098   0.572   5.034  0.3200 -0.6592  0.1910
  184MOL0     C24184   6.103   0.480   4.931 -0.2887  1.4133 -0.0211
  184MOL0     C24185   5.985   0.406   4.895 -0.4148 -0.9387 -0.1806
  184MOL0     O24186   6.004   0.290   4.825  0.1111  0.5549 -0.5099
  184MOL0     C24187   5.887   0.234   4.781  0.1858  0.9947  0.3812
  184MOL0     C24188   5.841   0.127   4.870  0.6435  0.8288 -0.6042
  184MOL0     C24189   5.723   0.059   4.839 -0.1422  0.4465 -0.9025
  184MOL0     C24190   5.651   0.100   4.729 -0.4138 -0.3674 -0.1500
  184MOL0     O24191   5.542   0.024   4.679 -0.3400  0.1480 -0.1366
  184MOL0     C24192   5.457  -0.046   4.770 -0.4687 -0.1136 -0.0864
  184MOL0     C24193   5.314  -0.071   4.711 -0.6286 -0.5020  0.1668
  184MOL0     C24194   5.248   0.054   4.660 -0.2659  0.4938  0.6721
  184MOL0     C24195   5.091   0.072   4.691 -0.2688 -0.8120 -1.0012
  184MOL0     C24196   5.004   0.017   4.570  0.2117 -1.1480 -0.2645
  184MOL0     C24197   4.862  -0.008   4.606  0.9520 -0.2124  0.0162
  184MOL0     C24198   4.784  -0.058   4.480 -0.3899  0.4778  0.0444
  184MOL0     C24199   4.634  -0.094   4.497 -0.4605  0.3873 -0.8150
  184MOL0    Cl24200   4.547   0.049   4.559 -0.4402  0.1817  0.2245
  184MOL0     C24201   5.695   0.211   4.653 -1.5813 -0.3775 -0.1997
  184MOL0     C24202   5.816   0.278   4.673  0.5610  0.5100 -0.0282
  184MOL0     O24203   5.877   0.452   4.919 -0.7450  0.3140  0.3508
  184MOL0     C24204   6.224   0.451   4.868  0.3833  0.1258 -0.3808
  184MOL0     C24205   6.330   0.531   4.899 -0.6604  0.7851 -0.4243
  184MOL0     N24206   6.564   0.249   4.901  0.7810  0.4765  0.6469
  184MOL0     N24207   6.468   0.170   4.853  0.2571  0.6086  0.0713
  184MOL0     C24208   5.682   0.380   5.811 -0.6345  0.2995 -0.7338
  184MOL0     C24209   5.660   0.376   5.953  0.2784 -0.4954  0.3231
  184MOL0     C24210   5.664   0.366   6.408  0.2634 -0.0941  0.1224
  184MOL0     C24211   5.668   0.245   6.450 -0.2618  0.4043  0.1029
  184MOL0     C24212   5.632   0.206   6.585 -0.4125 -0.2177  0.2593
  184MOL0     C24213   5.605   0.298   6.683  0.3225  0.0615 -0.1331
  184MOL0     O24214   5.574   0.237   6.806 -0.1672 -0.0120  0.2916
  184MOL0     C24215   5.577   0.320   6.919 -0.2826 -0.6026 -0.6429
  184MOL0     C24216   5.719   0.336   6.966 -0.2465  0.2142 -0.6509
  184MOL0     C24217   5.728   0.415   7.097  0.2735 -0.2838  0.2194
  184MOL0     C24218   5.783   0.563   7.095  0.8796  0.1950  0.1519
  184MOL0     C24219   5.907   0.587   7.019 -0.0599 -0.0346 -0.2916
  184MOL0     C24220   6.017   0.594   6.967  0.3616 -0.1478  0.7475
  184MOL0     C24221   5.614   0.432   6.639 -0.0820  0.7134 -0.0603
  184MOL0     C24222   5.637   0.463   6.502  0.1631  0.0706 -0.4674
  184MOL0     H24223   5.951   0.246   6.061 -0.3893  1.1409  0.7244
  184MOL0     H24224   5.997   0.253   5.813 -0.9546 -0.1074 -1.2261
  184MOL0     H24225   5.934   0.535   5.663  0.0751 -0.3017 -0.0800
  184MOL0     H24226   5.857   0.508   5.499 -3.0926 -0.5944 -0.2439
  184MOL0     H24227   6.097   0.356   5.611 -0.9621 -1.2918  0.9759
  184MOL0     H24228   6.112   0.493   5.491 -2.6795  1.0467 -0.8150
  184MOL0     H24229   5.937   0.332   5.353 -1.6979 -1.7533  1.3968
  184MOL0     H24230   5.980   0.219   5.475 -1.5093 -0.0994 -0.7251
  184MOL0     H24231   6.205   0.354   5.306  0.8837 -0.7507 -1.1446
  184MOL0     H24232   6.223   0.230   5.419  1.5555  1.5319  0.1275
  184MOL0     H24233   6.054   0.252   5.156 -2.3390 -2.2094 -0.0541
  184MOL0     H24234   6.053   0.110   5.270  1.0949  0.6622 -0.1056
  184MOL0     H24235   6.301   0.081   5.228  1.6096  1.4440 -0.4432
  184MOL0     H24236   6.308   0.231   5.145 -0.4406 -0.1183 -0.0840
  184MOL0     H24237   6.151  -0.016   5.046  0.7344 -1.2585  0.2924
  184MOL0     H24238   6.162   0.134   4.965 -0.4288  1.2821  1.5684
  184MOL0     H24239   6.305  -0.032   4.867 -1.8766  0.9049  0.8100
  184MOL0     H24240   6.363  -0.094   5.022  0.3728 -0.5301 -0.0355
  184MOL0     H24241   6.579   0.025   5.140 -0.5284  1.5277  2.4733
  184MOL0     H24242   6.809   0.238   5.090 -0.4578 -1.0185  0.4184
  184MOL0     H24243   6.695   0.246   5.216 -1.6778 -3.0313 -1.3473
  184MOL0     H24244   6.737   0.440   4.991  0.5777 -0.6730  0.0345
  184MOL0     H24245   6.788   0.476   5.150 -0.3708 -0.3278 -0.1685
  184MOL0     H24246   6.487   0.438   5.099 -1.1101  3.4025 -0.9956
  184MOL0     H24247   6.559   0.513   5.237 -2.0077  1.5759 -0.1083
  184MOL0     H24248   6.603   0.603   4.949  2.1734 -2.0723  1.2042
  184MOL0     H24249   6.640   0.706   5.093  1.4984 -0.0806 -0.9916
  184MOL0     H24250   6.203   0.714   5.156 -1.1438  0.4029 -0.4644
  184MOL0     H24251   6.009   0.583   5.097  0.2109 -2.7261  0.4700
  184MOL0     H24252   5.901   0.104   4.958  0.8556 -0.0132 -0.9604
  184MOL0     H24253   5.695  -0.025   4.901  1.7490 -0.8546 -1.7275
  184MOL0     H24254   5.451   0.011   4.863  3.3300  1.4036 -0.5820
  184MOL0     H24255   5.506  -0.141   4.794  1.2364  0.0219 -2.6315
  184MOL0     H24256   5.246  -0.104   4.790  0.6459 -1.6545  0.8331
  184MOL0     H24257   5.327  -0.147   4.634  1.5979  0.5970 -0.6404
  184MOL0     H24258   5.274   0.054   4.554 -1.0976  0.4798  0.4567
  184MOL0     H24259   5.299   0.144   4.695 -1.5520  1.4815  0.0819
  184MOL0     H24260   5.064   0.045   4.793  0.9305 -0.0442 -0.4585
  184MOL0     H24261   5.081   0.180   4.692 -2.8233 -1.0040 -0.5848
  184MOL0     H24262   5.054  -0.065   4.518 -0.6320  0.6699 -4.2701
  184MOL0     H24263   5.005   0.100   4.500  0.5652  0.2171  1.2885
  184MOL0     H24264   4.806   0.079   4.643 -1.6685 -1.0894 -1.6762
  184MOL0     H24265   4.845  -0.083   4.683 -1.8681  0.5246  0.2090
  184MOL0     H24266   4.787   0.024   4.407 -0.0446 -0.9225 -1.5661
  184MOL0     H24267   4.833  -0.144   4.435  0.8644 -0.3554  2.8051
  184MOL0     H24268   4.627  -0.180   4.565 -1.0725  2.4390  1.9039
  184MOL0     H24269   4.593  -0.131   4.403  1.0964 -0.7024 -1.1101
  184MOL0     H24270   5.634   0.261   4.578 -0.5870  0.5510 -0.4283
  184MOL0     H24271   5.848   0.359   4.608  1.8647  0.7003  0.8113
  184MOL0     H24272   6.222   0.375   4.791  1.0687 -1.5130  1.1276
  184MOL0     H24273   6.422   0.513   4.844  0.8065  3.9865  0.7263
  184MOL0     H24274   5.607   0.409   5.738 -0.8498  0.5155 -0.4303
  184MOL0     H24275   5.560   0.381   5.994 -0.0358  0.2253 -0.4995
  184MOL0     H24276   5.705   0.163   6.390  0.2203  0.0213  0.9071
  184MOL0     H24277   5.658   0.105   6.614 -0.2415 -0.7553 -1.6263
  184MOL0     H24278   5.528   0.262   6.998 -0.5556 -1.2013 -1.2438
  184MOL0     H24279   5.522   0.413   6.899 -2.0271 -1.1543  1.2020
  184MOL0     H24280   5.773   0.243   6.984  0.8374  0.5648 -1.8464
  184MOL0     H24281   5.777   0.382   6.885  1.6984 -2.0139 -0.6115
  184MOL0     H24282   5.793   0.361   7.166  1.3270 -1.3064 -1.5033
  184MOL0     H24283   5.630   0.420   7.146 -0.1429  0.6361 -0.6612
  184MOL0     H24284   5.712   0.627   7.042  2.3089  0.6324 -1.2908
  184MOL0     H24285   5.791   0.592   7.200  0.6170 -0.3946  0.3433
  184MOL0     H24286   6.115   0.600   6.925  1.1763 -1.3514  2.3408
  184MOL0     H24287   5.615   0.514   6.711  0.3288  0.9994 -0.3843
  184MOL0     H24288   5.623   0.567   6.474 -1.4799 -0.1694 -0.6482
  185MOL0     O24289   5.845  10.890  10.594  0.4152  0.5348  0.3352
  185MOL0     C24290   5.846  10.961  10.691  0.0721 -0.1248  0.1755
  185MOL0     O24291   5.751  10.975  10.795 -0.2684  0.0612 -0.3103
  185MOL0     C24292   5.632  10.901  10.791  0.7205 -0.0477  0.5476
  185MOL0     C24293   5.561  10.868  10.666 -0.6729  0.4205 -0.2366
  185MOL0     C24294   5.442  10.798  10.677  0.0821  0.2413 -0.6134
  185MOL0     C24295   5.387  10.756  10.801  0.8719 -0.5921 -0.1169
  185MOL0     O24296   5.263  10.695  10.826 -0.0592 -0.1475  0.8130
  185MOL0     C24297   5.176  10.684  10.716 -0.7931 -0.6825  0.4606
  185MOL0     C24298   5.130  10.824  10.673 -0.6107 -0.5023  0.4871
  185MOL0     C24299   5.051  10.833  10.541  0.1596  0.6286 -0.0853
  185MOL0     C24300   4.905  10.784  10.543  0.5350 -0.2881 -0.1159
  185MOL0     C24301   4.827  10.912  10.590 -0.8849 -0.0221  0.6106
  185MOL0     C24302   4.686  10.877  10.628  0.0949  0.6333  0.4223
  185MOL0     C24303   4.607  10.990  10.679  0.3073 -0.4586 -0.2698
  185MOL0     C24304   4.463  10.947  10.686  0.1391 -0.6370 -0.3897
  185MOL0     N24305   4.372  11.040  10.754 -0.7487 -1.1424 -0.8470
  185MOL0     C24306   4.251  11.063  10.709  0.7287 -0.2503 -0.9586
  185MOL0     C24307   4.184  11.104  10.811 -0.2970 -0.6144 -0.4817
  185MOL0     C24308   4.043  11.144  10.810  0.0555 -0.0353  0.1681
  185MOL0     C24309   3.952  11.016  10.809 -0.5348 -0.4288 -0.2327
  185MOL0     C24310   3.806  11.057  10.817 -0.1549  0.2564  0.1111
  185MOL0     C24311   3.708  10.936  10.818  0.1350 -0.3143  0.0228
  185MOL0     O24312   3.584  10.968  10.888 -1.1418 -0.0717  0.3890
  185MOL0     C24313   3.480  10.881  10.879  1.1790  0.3362  0.0346
  185MOL0     C24314   3.495  10.748  10.845  0.3947 -0.1035 -0.0077
  185MOL0     C24315   3.388  10.658  10.848  0.2771 -0.7427  0.0400
  185MOL0     C24316   3.259  10.696  10.880 -0.6156 -0.3262  0.2115
  185MOL0     C24317   3.140  10.610  10.842 -0.5250  1.2985 -0.6909
  185MOL0     O24318   3.158  10.486  10.769  0.0603 -0.3019 -0.0695
  185MOL0     C24319   3.045  10.406  10.766  0.7086 -0.0901  0.0461
  185MOL0     C24320   2.923  10.446  10.705 -0.1274  0.3646 -0.0830
  185MOL0     C24321   2.813  10.357  10.706 -0.3324 -0.8104 -0.1310
  185MOL0     C24322   2.827  10.234  10.760  1.0784  0.9803  0.0602
  185MOL0     O24323   2.713  10.161  10.761 -0.0494  0.2865 -0.0382
  185MOL0     C24324   2.697  10.092  10.636  0.7079  1.2513 -0.0141
  185MOL0     C24325   2.617   9.961  10.655  0.6016 -0.4408 -0.6114
  185MOL0     C24326   2.694   9.853  10.733 -1.0142  0.9588 -0.4128
  185MOL0     C24327   2.823   9.777  10.675  0.8053  0.0373  0.2676
  185MOL0     C24328   2.919   9.708  10.774 -0.5931  0.0120  1.0747
  185MOL0     C24329   3.062   9.741  10.735 -0.1358  0.5644  0.0849
  185MOL0     C24330   3.144   9.660  10.836 -0.2632 -0.4305 -0.0735
  185MOL0     C24331   3.293   9.674  10.806  0.3547 -0.3499 -0.0361
  185MOL0    Cl24332   3.357   9.834  10.770 -0.5474 -0.2824 -0.0060
  185MOL0     C24333   2.947  10.193  10.828  1.0748  0.8599 -0.3311
  185MOL0     C24334   3.061  10.275  10.824 -0.6942 -0.0398  0.0368
  185MOL0     O24335   3.033  10.641  10.885 -0.4901 -0.7892 -0.2920
  185MOL0     C24336   3.247  10.822  10.936 -0.5235  0.3753  0.1149
  185MOL0     C24337   3.356  10.919  10.920  0.6374 -0.4377  0.5382
  185MOL0     N24338   4.271  11.127  10.917  0.8020  0.1280  0.0323
  185MOL0     N24339   4.376  11.084  10.881 -0.6841 -0.3088 -0.3938
  185MOL0     C24340   5.455  10.805  10.923  1.6054  0.0148  0.0837
  185MOL0     C24341   5.576  10.876  10.912  0.5196 -0.3458  0.1910
  185MOL0     C24342   5.944  11.070  10.664  0.5525  0.6170 -0.1374
  185MOL0     C24343   6.031  11.080  10.554 -0.3559 -0.3281 -0.0474
  185MOL0     C24344   6.101  11.201  10.524 -0.0332  0.6028 -0.1752
  185MOL0     C24345   6.088  11.312  10.614 -0.4795  0.3680  1.4700
  185MOL0     O24346   6.143  11.432  10.587  0.9324 -0.2640  0.4714
  185MOL0     C24347   6.272  11.452  10.645  0.0212 -0.1955  0.1342
  185MOL0     C24348   6.393  11.369  10.599  0.4111  0.4265 -0.8223
  185MOL0     C24349   6.526  11.417  10.666 -0.7056  0.8706  0.1038
  185MOL0     C24350   6.614  11.294  10.692 -0.2671  0.6625 -0.0445
  185MOL0     C24351   6.648  11.209  10.574  0.6199  0.0756 -0.7072
  185MOL0     C24352   6.670  11.124  10.484  0.1707 -0.6680  0.2124
  185MOL0     C24353   6.005  11.302  10.726 -0.4350 -0.1767  0.4292
  185MOL0     C24354   5.930  11.183  10.747 -0.0080 -0.6708  0.7597
  185MOL0     H24355   5.609  10.902  10.575 -1.3695  1.0361 -0.3834
  185MOL0     H24356   5.382  10.777  10.589  0.4019 -0.6242 -0.6344
  185MOL0     H24357   5.086  10.634  10.751 -1.2518 -0.6605 -0.6309
  185MOL0     H24358   5.217  10.617  10.640 -0.2729 -1.3240  1.2891
  185MOL0     H24359   5.220  10.886  10.661 -1.1228 -0.1939 -2.6705
  185MOL0     H24360   5.079  10.878  10.753  1.3864 -1.1738  2.3158
  185MOL0     H24361   5.104  10.765  10.473 -1.6988  0.8896 -1.8843
  185MOL0     H24362   5.058  10.931  10.494 -1.2300  2.1696  2.6887
  185MOL0     H24363   4.883  10.759  10.439  3.2897 -0.4417 -0.7571
  185MOL0     H24364   4.888  10.699  10.611  2.4984 -0.7644 -0.1447
  185MOL0     H24365   4.833  10.981  10.505 -0.5292  2.0642  2.2429
  185MOL0     H24366   4.877  10.971  10.666 -2.5403 -1.5290  3.0209
  185MOL0     H24367   4.689  10.801  10.707  2.5193 -0.1157 -0.2957
  185MOL0     H24368   4.633  10.841  10.539 -0.1833 -0.3776  0.9853
  185MOL0     H24369   4.647  11.021  10.777 -3.0776 -2.7541  2.0746
  185MOL0     H24370   4.614  11.076  10.612 -1.8726  0.1871  0.2336
  185MOL0     H24371   4.456  10.850  10.735  0.8895 -0.7871 -0.5635
  185MOL0     H24372   4.431  10.920  10.584  0.1843  0.1308 -0.6117
  185MOL0     H24373   4.206  11.038  10.614  1.4163  1.1919 -1.6852
  185MOL0     H24374   4.016  11.199  10.720  0.2520 -2.7575 -1.6579
  185MOL0     H24375   4.029  11.214  10.893  0.9972 -1.5137  1.6523
  185MOL0     H24376   3.987  10.937  10.877  3.2115 -0.0819 -1.5315
  185MOL0     H24377   3.975  10.967  10.714  3.2106  2.6208 -1.1272
  185MOL0     H24378   3.807  11.121  10.906  0.4311  0.7747 -0.2556
  185MOL0     H24379   3.763  11.109  10.732  0.0900 -1.5360 -1.1553
  185MOL0     H24380   3.755  10.847  10.863 -2.6523 -1.6449  0.4885
  185MOL0     H24381   3.694  10.908  10.713  3.2346  0.6439 -0.7488
  185MOL0     H24382   3.587  10.707  10.806  0.0266  1.9770 -3.4550
  185MOL0     H24383   3.399  10.557  10.811  0.1141 -1.1638  1.1071
  185MOL0     H24384   2.923  10.536  10.643  0.1765 -1.0293 -2.2222
  185MOL0     H24385   2.723  10.400  10.665 -2.4215 -2.7852  2.1100
  185MOL0     H24386   2.790  10.070  10.584 -0.2069  1.9351 -2.0292
  185MOL0     H24387   2.643  10.156  10.565 -1.1544 -2.1376 -1.9430
  185MOL0     H24388   2.601   9.926  10.553  1.7252  3.2857 -2.2240
  185MOL0     H24389   2.524   9.976  10.712  2.1245  0.4706  1.8049
  185MOL0     H24390   2.618   9.775  10.747  0.3516 -0.6178 -1.4474
  185MOL0     H24391   2.720   9.891  10.832  3.8319  0.9274 -1.4224
  185MOL0     H24392   2.789   9.712  10.594  1.0989 -0.7446  0.7675
  185MOL0     H24393   2.881   9.858  10.630 -2.3533  3.2041  1.4321
  185MOL0     H24394   2.889   9.603  10.772 -3.6434  0.8036  0.9141
  185MOL0     H24395   2.904   9.752  10.873  2.0400  1.0621  1.1079
  185MOL0     H24396   3.082   9.849  10.737 -1.6362  0.9146 -1.7463
  185MOL0     H24397   3.081   9.701  10.635  0.8861 -0.6863  0.7497
  185MOL0     H24398   3.120   9.695  10.937 -0.6741  2.7060 -1.1656
  185MOL0     H24399   3.114   9.555  10.839  0.1859 -0.5419  1.5853
  185MOL0     H24400   3.301   9.607  10.720 -0.6080 -0.5980  0.0544
  185MOL0     H24401   3.357   9.629  10.883  0.1579 -1.5590 -0.5474
  185MOL0     H24402   2.957  10.102  10.886  3.0580  1.4364  0.3120
  185MOL0     H24403   3.157  10.258  10.872 -0.5815 -1.0336 -0.4952
  185MOL0     H24404   3.147  10.856  10.962 -1.3821 -1.2023 -0.9717
  185MOL0     H24405   3.332  11.019  10.953 -2.9114 -1.3344  1.0092
  185MOL0     H24406   5.409  10.784  11.019  2.1853  1.1612  0.6369
  185MOL0     H24407   5.609  10.932  10.999  0.1290  0.5602 -0.2302
  185MOL0     H24408   6.053  10.991  10.496 -1.4051  0.2807 -1.4563
  185MOL0     H24409   6.190  11.198  10.462  3.9269 -1.5527  4.8764
  185MOL0     H24410   6.260  11.441  10.753  1.0033  1.6009  0.4764
  185MOL0     H24411   6.292  11.560  10.644 -0.3774 -0.0882  1.5465
  185MOL0     H24412   6.393  11.261  10.616  2.9216  0.3430 -1.0162
  185MOL0     H24413   6.408  11.379  10.491  1.0869  0.4278 -0.7312
  185MOL0     H24414   6.498  11.456  10.765 -0.4261 -3.5591  2.1992
  185MOL0     H24415   6.575  11.496  10.609  3.8952 -1.1673  0.8182
  185MOL0     H24416   6.703  11.344  10.730  0.5715  1.1731 -2.5329
  185MOL0     H24417   6.576  11.227  10.770  1.2493  0.5280  0.6158
  185MOL0     H24418   6.694  11.068  10.396 -0.4745 -0.1665 -0.2952
  185MOL0     H24419   5.987  11.390  10.788  0.2454  0.5998 -0.4370
  185MOL0     H24420   5.851  11.185  10.822 -1.2612  0.2637 -0.5179
  186MOL0     O24421   3.309   1.850   1.381  0.6003  0.1283 -0.4579
  186MOL0     C24422   3.351   1.743   1.345  0.0041  0.5344  0.1376
  186MOL0     O24423   3.281   1.637   1.309  0.4061 -0.2718  0.2077
  186MOL0     C24424   3.148   1.648   1.336  0.2430 -0.5297 -0.0660
  186MOL0     C24425   3.101   1.632   1.468 -0.0131  0.1047  0.3795
  186MOL0     C24426   2.972   1.672   1.501  0.5773 -0.2833  0.6482
  186MOL0     C24427   2.878   1.706   1.400 -0.0038  0.2187  0.6379
  186MOL0     O24428   2.753   1.744   1.410  1.3091 -0.5427  0.1549
  186MOL0     C24429   2.694   1.804   1.528 -0.6813  0.3863  0.0113
  186MOL0     C24430   2.553   1.845   1.520  0.4324 -0.3156 -0.3190
  186MOL0     C24431   2.500   1.924   1.401  0.0764 -0.8686  0.2014
  186MOL0     C24432   2.353   1.936   1.396  0.6857 -0.5220  0.0932
  186MOL0     C24433   2.302   2.061   1.329 -0.1585 -0.1217  0.3869
  186MOL0     C24434   2.167   2.109   1.369  0.9972  0.5081  0.0193
  186MOL0     C24435   2.131   2.249   1.325  0.1190 -0.1258  0.1453
  186MOL0     C24436   1.982   2.275   1.306 -0.6480 -0.2693 -0.1689
  186MOL0     N24437   1.934   2.212   1.184  0.0405  0.4096  0.1019
  186MOL0     C24438   1.825   2.270   1.119  0.0424  1.4626  0.0856
  186MOL0     C24439   1.814   2.198   1.006  0.1420 -0.0404 -0.3629
  186MOL0     C24440   1.711   2.242   0.910 -0.4392  0.2629 -0.0680
  186MOL0     C24441   1.562   2.212   0.958 -0.2818  0.4158  0.2146
  186MOL0     C24442   1.464   2.255   0.845 -0.3344 -0.0866  0.1180
  186MOL0     C24443   1.328   2.205   0.896 -0.5928  0.0610  0.2939
  186MOL0     O24444   1.244   2.226   0.782  0.8897 -0.5252 -0.2840
  186MOL0     C24445   1.110   2.226   0.801 -0.1581  0.7624  1.0045
  186MOL0     C24446   1.034   2.303   0.712  1.4125  0.3164  0.4325
  186MOL0     C24447   0.890   2.289   0.718 -0.7227 -0.4802 -0.4980
  186MOL0     C24448   0.833   2.217   0.828 -1.0223  0.1225  0.8272
  186MOL0     C24449   0.685   2.209   0.835  0.6504 -1.0019 -0.1734
  186MOL0     O24450   0.615   2.317   0.784 -0.0558  0.1650 -0.4628
  186MOL0     C24451   0.480   2.314   0.753 -0.5929  0.1276  0.6151
  186MOL0     C24452   0.437   2.381   0.640  0.7802 -0.0473  0.1530
  186MOL0     C24453   0.300   2.393   0.615  0.0560 -0.7609  0.4242
  186MOL0     C24454   0.200   2.341   0.703 -0.0559  1.0143 -0.0302
  186MOL0     O24455   0.066   2.350   0.681 -0.4350 -0.0028 -0.1179
  186MOL0     C24456   0.024   2.431   0.582 -0.1202 -0.3411 -0.6418
  186MOL0     C24457  -0.128   2.437   0.580  0.1406 -0.7248  0.5012
  186MOL0     C24458  -0.168   2.552   0.679 -0.2903  0.6851  0.9107
  186MOL0     C24459  -0.300   2.532   0.751 -0.0001 -0.4253  0.4279
  186MOL0     C24460  -0.410   2.536   0.649  0.2926 -0.9740  0.1342
  186MOL0     C24461  -0.550   2.504   0.715  0.2102  0.0163  0.0498
  186MOL0     C24462  -0.663   2.521   0.619  0.4556 -0.3270  0.8558
  186MOL0     C24463  -0.735   2.650   0.634 -0.6071 -0.2201  0.9347
  186MOL0    Cl24464  -0.862   2.679   0.511 -0.3363 -0.1281  0.0030
  186MOL0     C24465   0.247   2.271   0.819 -0.1388 -0.1654  0.8724
  186MOL0     C24466   0.385   2.260   0.840  0.0454  0.1062  0.3561
  186MOL0     O24467   0.636   2.101   0.873  0.5684  0.6550  0.4339
  186MOL0     C24468   0.911   2.138   0.911  0.1384  0.5619 -0.0719
  186MOL0     C24469   1.051   2.139   0.896  0.5114 -0.2152 -0.4474
  186MOL0     N24470   1.919   2.106   0.996 -0.2049  0.2183 -0.6289
  186MOL0     N24471   1.988   2.120   1.100  0.4186  0.8172 -0.0433
  186MOL0     C24472   2.929   1.718   1.266 -0.0606 -0.6585 -0.9122
  186MOL0     C24473   3.060   1.692   1.227  0.2131  0.3498 -0.7822
  186MOL0     C24474   3.498   1.735   1.337 -0.1851  0.5425  0.0500
  186MOL0     C24475   3.559   1.609   1.333 -0.7004 -0.1765 -0.5965
  186MOL0     C24476   3.699   1.592   1.321  0.3059  0.1554  0.5333
  186MOL0     C24477   3.776   1.702   1.299 -0.5968 -0.1903  0.1505
  186MOL0     O24478   3.908   1.689   1.266 -0.5961  0.1187  0.3456
  186MOL0     C24479   3.981   1.598   1.344 -0.9379  0.4353  0.6538
  186MOL0     C24480   4.120   1.582   1.286 -0.1409 -1.5002  0.1455
  186MOL0     C24481   4.216   1.493   1.361 -0.6245 -0.7146 -0.2600
  186MOL0     C24482   4.365   1.526   1.326  0.2618  0.6542  0.0608
  186MOL0     C24483   4.458   1.457   1.419 -0.3747 -0.8353 -0.3672
  186MOL0     C24484   4.530   1.387   1.488  0.5389  0.8424 -0.0625
  186MOL0     C24485   3.717   1.828   1.305 -0.4338 -0.0092  0.2825
  186MOL0     C24486   3.587   1.848   1.336  0.6904 -0.8997 -0.5838
  186MOL0     H24487   3.159   1.607   1.557 -0.5492 -0.6797  0.5174
  186MOL0     H24488   2.933   1.655   1.601 -1.1161 -2.6812 -0.3091
  186MOL0     H24489   2.756   1.892   1.547  0.2498 -0.8419  3.6639
  186MOL0     H24490   2.711   1.746   1.620 -0.4848  0.1220 -0.1889
  186MOL0     H24491   2.545   1.912   1.606  4.0320 -0.0892 -0.0054
  186MOL0     H24492   2.505   1.749   1.542  1.5875 -0.2492  3.0288
  186MOL0     H24493   2.530   1.867   1.313  0.7713 -1.7716  0.9974
  186MOL0     H24494   2.556   2.018   1.414 -1.4566  0.1872 -0.4967
  186MOL0     H24495   2.313   1.848   1.346 -1.6828 -0.7517  2.1849
  186MOL0     H24496   2.322   1.935   1.501  3.0825 -1.1239  0.8632
  186MOL0     H24497   2.304   2.048   1.221 -1.9196 -2.0458  0.5158
  186MOL0     H24498   2.369   2.141   1.361 -0.3656 -0.3612  1.4718
  186MOL0     H24499   2.153   2.100   1.477  2.0517  0.4647  0.1706
  186MOL0     H24500   2.089   2.043   1.331  0.4982 -0.3186  2.2975
  186MOL0     H24501   2.163   2.315   1.407 -1.1205 -0.5803  1.0318
  186MOL0     H24502   2.172   2.265   1.225 -0.2071  1.6207  0.2574
  186MOL0     H24503   1.983   2.384   1.294 -0.1527 -0.1738  0.6177
  186MOL0     H24504   1.934   2.243   1.399  1.3707 -0.5226  0.8368
  186MOL0     H24505   1.774   2.356   1.160 -1.7078  0.4618  0.1098
  186MOL0     H24506   1.730   2.189   0.817  0.5737  1.0807 -0.3462
  186MOL0     H24507   1.725   2.349   0.889 -1.2388  0.0355 -1.8771
  186MOL0     H24508   1.530   2.242   1.058  0.7057  0.7290  0.4581
  186MOL0     H24509   1.553   2.104   0.972 -5.1808  0.5722 -0.1212
  186MOL0     H24510   1.470   2.364   0.837  1.2775 -0.2793 -2.1113
  186MOL0     H24511   1.473   2.205   0.748 -1.4489 -0.7389  0.3369
  186MOL0     H24512   1.311   2.275   0.978  0.7281 -1.3348  1.8644
  186MOL0     H24513   1.324   2.106   0.944  0.8964 -0.1815 -0.0200
  186MOL0     H24514   1.074   2.376   0.643 -2.6353  1.6580 -0.7413
  186MOL0     H24515   0.833   2.348   0.647  1.7818 -0.3097 -2.5104
  186MOL0     H24516   0.510   2.438   0.583  2.5178 -0.6967  1.6486
  186MOL0     H24517   0.270   2.464   0.538 -0.6683 -2.1610 -0.6325
  186MOL0     H24518   0.059   2.399   0.483 -1.6403  0.1962 -1.3875
  186MOL0     H24519   0.071   2.526   0.609  1.0705 -1.5618  1.9598
  186MOL0     H24520  -0.162   2.335   0.602 -0.2721 -0.0717  3.2359
  186MOL0     H24521  -0.168   2.449   0.479  0.6214  1.3428  0.5116
  186MOL0     H24522  -0.172   2.640   0.614  1.4888 -0.2497 -0.5788
  186MOL0     H24523  -0.101   2.574   0.762 -1.0457  1.5875  1.2923
  186MOL0     H24524  -0.309   2.437   0.806 -2.2198 -2.2316 -2.7621
  186MOL0     H24525  -0.313   2.610   0.827  1.5888 -0.0822  0.3905
  186MOL0     H24526  -0.382   2.456   0.580  4.6734  3.0497 -3.4601
  186MOL0     H24527  -0.412   2.624   0.583  0.7532  2.3112  4.0789
  186MOL0     H24528  -0.562   2.578   0.795 -0.3410 -0.6742  0.6218
  186MOL0     H24529  -0.560   2.411   0.772  0.0238  0.0469  0.0697
  186MOL0     H24530  -0.620   2.507   0.520  1.1276  0.2692  1.0522
  186MOL0     H24531  -0.740   2.446   0.643  0.8786 -0.5808  1.4570
  186MOL0     H24532  -0.655   2.725   0.627  0.3864 -1.3990 -1.4762
  186MOL0     H24533  -0.784   2.665   0.731  0.3539  1.2723  1.2267
  186MOL0     H24534   0.176   2.231   0.891  1.1094 -2.0554  1.1589
  186MOL0     H24535   0.424   2.206   0.926  1.1720  2.0925  1.1683
  186MOL0     H24536   0.870   2.070   0.985  0.9698  1.4309  1.2212
  186MOL0     H24537   1.117   2.074   0.952 -1.7103 -2.2476 -0.0258
  186MOL0     H24538   2.865   1.757   1.187  0.2680 -0.9884 -1.3456
  186MOL0     H24539   3.106   1.709   1.130  1.8728 -3.6514 -0.8698
  186MOL0     H24540   3.493   1.528   1.361 -0.5838 -0.8518 -2.1631
  186MOL0     H24541   3.741   1.492   1.323 -1.6025 -0.6718  2.4408
  186MOL0     H24542   3.933   1.502   1.365  0.6857 -0.3528  0.9168
  186MOL0     H24543   3.992   1.642   1.444  0.7378 -1.0680  1.1658
  186MOL0     H24544   4.118   1.550   1.182  0.0062  1.8330 -0.9879
  186MOL0     H24545   4.157   1.685   1.281 -1.4009 -1.0982 -2.0159
  186MOL0     H24546   4.183   1.389   1.353 -0.7635 -0.7551  0.6791
  186MOL0     H24547   4.207   1.521   1.466 -0.6546  2.3789 -1.0058
  186MOL0     H24548   4.396   1.499   1.225 -2.4188  0.9079 -0.9064
  186MOL0     H24549   4.361   1.636   1.326 -0.6708  0.6787 -2.3972
  186MOL0     H24550   4.604   1.337   1.548 -0.3916  0.8034  1.0872
  186MOL0     H24551   3.776   1.917   1.286 -0.6728  0.0881 -0.0078
  186MOL0     H24552   3.546   1.948   1.322  1.2548 -1.0151 -4.1011
  187MOL0     O24553   9.747   7.198   8.319 -0.0646 -0.1637  0.8193
  187MOL0     C24554   9.651   7.144   8.253  0.3096  0.3104 -0.0393
  187MOL0     O24555   9.633   7.150   8.118  0.2559 -0.2142  0.2802
  187MOL0     C24556   9.744   7.201   8.052 -0.3956  0.2197 -0.2292
  187MOL0     C24557   9.873   7.156   8.070 -0.0219  0.1643  0.1992
  187MOL0     C24558   9.982   7.204   7.997  0.3669  0.6373 -0.7079
  187MOL0     C24559   9.960   7.301   7.900 -0.6533  0.1299 -0.4313
  187MOL0     O24560  10.063   7.349   7.815  0.5272  0.2778  0.3056
  187MOL0     C24561  10.187   7.388   7.875 -0.2490 -0.8552 -1.0051
  187MOL0     C24562  10.153   7.516   7.965 -0.8451 -0.9413  0.4098
  187MOL0     C24563  10.282   7.596   7.988 -0.4426  0.1663  0.0729
  187MOL0     C24564  10.382   7.526   8.082  0.2834  0.9145 -0.5381
  187MOL0     C24565  10.500   7.619   8.116  0.4366  0.5656  0.4362
  187MOL0     C24566  10.580   7.571   8.239 -0.9081 -1.1600 -1.1155
  187MOL0     C24567  10.734   7.575   8.205  0.4114 -0.5847  0.6315
  187MOL0     C24568  10.768   7.472   8.093 -0.2561 -1.0658 -0.7828
  187MOL0     N24569  10.753   7.338   8.147  0.8178 -0.3134 -0.1066
  187MOL0     C24570  10.640   7.259   8.135  0.3107  0.9192  0.0061
  187MOL0     C24571  10.684   7.134   8.148  0.6752 -0.1240 -0.2202
  187MOL0     C24572  10.604   7.006   8.117 -0.2585 -1.4701  0.4327
  187MOL0     C24573  10.482   7.001   8.204  0.2623  0.2372 -0.1509
  187MOL0     C24574  10.423   6.858   8.186  0.2051  0.0646 -0.1117
  187MOL0     C24575  10.288   6.848   8.252 -0.2192 -0.0829 -1.1738
  187MOL0     O24576  10.223   6.734   8.186 -0.1479  0.4976  0.5301
  187MOL0     C24577  10.097   6.730   8.220 -0.5371 -1.1075 -0.2293
  187MOL0     C24578  10.077   6.670   8.342 -0.5724  0.1884 -0.6445
  187MOL0     C24579   9.943   6.661   8.387  0.3907 -0.5262  0.5341
  187MOL0     C24580   9.829   6.693   8.297 -0.2974  0.1563  0.2665
  187MOL0     C24581   9.688   6.680   8.335  0.1241 -0.0748 -0.6247
  187MOL0     O24582   9.654   6.662   8.461  0.0143 -0.5337 -0.1165
  187MOL0     C24583   9.534   6.631   8.512  0.5856  0.0840 -0.1418
  187MOL0     C24584   9.472   6.707   8.610  0.1740  0.3408 -1.3707
  187MOL0     C24585   9.345   6.677   8.663 -0.3850  0.2167  0.6320
  187MOL0     C24586   9.271   6.568   8.609  0.1609  0.1321  0.0218
  187MOL0     O24587   9.145   6.542   8.661 -0.0006  0.2199  0.8640
  187MOL0     C24588   9.057   6.447   8.589 -0.2950  0.3397  0.1761
  187MOL0     C24589   8.914   6.458   8.647 -0.4118  0.0144 -0.9526
  187MOL0     C24590   8.862   6.600   8.664  0.0479  1.1188 -0.8230
  187MOL0     C24591   8.722   6.605   8.730  0.4994 -0.5311 -0.5842
  187MOL0     C24592   8.671   6.752   8.720  0.5804 -0.3517 -0.3195
  187MOL0     C24593   8.525   6.743   8.780 -0.8406 -0.1279  0.5206
  187MOL0     C24594   8.506   6.879   8.832 -0.6868  0.7258 -0.3019
  187MOL0     C24595   8.352   6.900   8.869 -0.4348  0.2063 -0.0479
  187MOL0    Cl24596   8.331   7.066   8.865 -0.4304 -0.3535 -0.6515
  187MOL0     C24597   9.330   6.487   8.504  1.0965 -0.3058  0.1217
  187MOL0     C24598   9.458   6.520   8.457 -0.6031  0.6971 -0.5217
  187MOL0     O24599   9.610   6.672   8.240  0.3442 -0.1547 -0.0442
  187MOL0     C24600   9.861   6.751   8.175  0.2223 -0.3723 -0.7379
  187MOL0     C24601   9.997   6.781   8.144  0.8417 -0.4411 -0.2240
  187MOL0     N24602  10.820   7.134   8.177  0.0983  0.0738 -0.4782
  187MOL0     N24603  10.859   7.253   8.171  0.2663 -0.4876  0.0264
  187MOL0     C24604   9.829   7.345   7.874 -0.2603 -1.9037 -0.5270
  187MOL0     C24605   9.727   7.308   7.958 -0.4568 -0.4311 -0.1741
  187MOL0     C24606   9.548   7.088   8.343  0.1491  0.2764 -0.3834
  187MOL0     C24607   9.435   7.032   8.282 -0.2793 -0.7809  0.5490
  187MOL0     C24608   9.318   6.989   8.354 -0.0596  0.4544 -0.0951
  187MOL0     C24609   9.305   7.008   8.488 -0.2343 -0.3097  0.7950
  187MOL0     O24610   9.191   6.977   8.555 -1.1268 -0.0886  0.4428
  187MOL0     C24611   9.083   6.914   8.488 -0.3645 -0.2695 -0.8795
  187MOL0     C24612   8.962   6.905   8.581  0.1022  0.6830  1.1980
  187MOL0     C24613   8.926   7.044   8.644 -0.7286  0.6816  0.4006
  187MOL0     C24614   8.842   7.115   8.544 -0.3915 -0.9823  0.4836
  187MOL0     C24615   8.847   7.261   8.551  0.3422  0.3262  0.3208
  187MOL0     C24616   8.846   7.383   8.557 -0.2531  0.1050 -0.1342
  187MOL0     C24617   9.416   7.069   8.556  0.2891 -0.2948 -0.5335
  187MOL0     C24618   9.534   7.096   8.488  0.2865 -0.7116  0.3559
  187MOL0     H24619   9.885   7.071   8.138  1.9099 -0.8093 -1.2607
  187MOL0     H24620  10.079   7.164   8.026 -0.5486  0.5956  2.7154
  187MOL0     H24621  10.263   7.406   7.798  0.4645 -2.0021 -0.6055
  187MOL0     H24622  10.228   7.312   7.943 -1.9002  0.3593  1.4733
  187MOL0     H24623  10.105   7.483   8.057  0.3180 -0.3518  1.2458
  187MOL0     H24624  10.088   7.585   7.909 -0.0483 -0.2176  0.3490
  187MOL0     H24625  10.259   7.697   8.022  0.5932  0.9356 -1.4148
  187MOL0     H24626  10.328   7.605   7.889 -2.2610 -2.6611 -1.1681
  187MOL0     H24627  10.335   7.495   8.176  2.0943 -1.4605 -0.3166
  187MOL0     H24628  10.416   7.430   8.042 -1.2164  0.9000 -1.8740
  187MOL0     H24629  10.459   7.720   8.116  1.1716  0.8736  0.9884
  187MOL0     H24630  10.564   7.624   8.027 -0.1649 -2.5896 -0.3231
  187MOL0     H24631  10.561   7.467   8.266 -0.0843 -0.7186  1.3792
  187MOL0     H24632  10.557   7.629   8.328 -2.7648 -2.1356 -0.9143
  187MOL0     H24633  10.766   7.675   8.175  1.4693 -1.3307 -0.8551
  187MOL0     H24634  10.796   7.546   8.291  2.0481  2.5331  0.6299
  187MOL0     H24635  10.871   7.497   8.067  0.4268 -0.0843  2.4140
  187MOL0     H24636  10.713   7.489   8.000  1.4757 -0.7379 -1.7997
  187MOL0     H24637  10.540   7.289   8.105  0.1372  1.2873  0.9403
  187MOL0     H24638  10.670   6.920   8.132  0.5991 -0.9816 -0.4844
  187MOL0     H24639  10.568   7.001   8.014 -0.2468 -1.8241  0.4456
  187MOL0     H24640  10.409   7.079   8.183  1.1642  1.0335 -0.3511
  187MOL0     H24641  10.531   7.012   8.302 -0.3198  0.7682  0.0851
  187MOL0     H24642  10.409   6.845   8.079  3.4437 -0.9719 -0.5077
  187MOL0     H24643  10.487   6.776   8.220 -0.3014 -1.4012 -2.4700
  187MOL0     H24644  10.225   6.937   8.242 -2.0299 -0.8449  1.9358
  187MOL0     H24645  10.312   6.819   8.355  3.3996 -0.1352 -1.9075
  187MOL0     H24646  10.161   6.650   8.408 -0.9268 -0.0888 -0.2742
  187MOL0     H24647   9.923   6.618   8.484  2.6426 -2.1672  0.3644
  187MOL0     H24648   9.526   6.790   8.654  0.1140  0.5396 -1.6691
  187MOL0     H24649   9.298   6.738   8.740 -2.0470 -1.9072  1.3986
  187MOL0     H24650   9.085   6.342   8.603 -1.1424  0.3874  2.8289
  187MOL0     H24651   9.063   6.467   8.482  1.2509 -0.0824  0.1551
  187MOL0     H24652   8.918   6.406   8.743 -1.7535 -0.6148 -1.2244
  187MOL0     H24653   8.855   6.395   8.580  2.8228 -2.1170 -2.0566
  187MOL0     H24654   8.847   6.646   8.566  0.1092  0.1736 -1.2845
  187MOL0     H24655   8.936   6.660   8.717  0.0858  1.7295 -1.5502
  187MOL0     H24656   8.654   6.549   8.664  2.4876 -0.9688 -2.3716
  187MOL0     H24657   8.725   6.563   8.831  0.7185  0.3915 -0.2034
  187MOL0     H24658   8.670   6.791   8.618  1.9921 -1.6525 -0.8769
  187MOL0     H24659   8.740   6.806   8.786  1.1943  0.1085 -1.3219
  187MOL0     H24660   8.508   6.666   8.856 -3.5583 -1.4633 -1.2673
  187MOL0     H24661   8.468   6.721   8.689  0.1506  2.6303 -0.8810
  187MOL0     H24662   8.560   6.887   8.926  2.5531 -0.2420 -1.9236
  187MOL0     H24663   8.534   6.958   8.761 -1.5849  0.6717 -0.7362
  187MOL0     H24664   8.341   6.864   8.972 -0.3036  4.8692  1.8431
  187MOL0     H24665   8.274   6.860   8.803  2.2513 -0.3642 -3.0772
  187MOL0     H24666   9.282   6.400   8.461  2.5954 -0.8115 -0.6078
  187MOL0     H24667   9.492   6.460   8.373  1.2896  3.3138 -1.7511
  187MOL0     H24668   9.782   6.775   8.103 -1.7640  3.9527  2.4348
  187MOL0     H24669  10.030   6.826   8.050  0.8727  2.3257  1.0011
  187MOL0     H24670   9.789   7.405   7.793 -2.7786  1.8084  3.0524
  187MOL0     H24671   9.628   7.347   7.939 -1.3041 -2.0255  0.6854
  187MOL0     H24672   9.416   7.014   8.177  0.1994 -0.3754  0.3928
  187MOL0     H24673   9.251   6.939   8.285  0.9022  0.8983 -1.4098
  187MOL0     H24674   9.115   6.817   8.448 -1.5825 -0.0722 -2.4088
  187MOL0     H24675   9.056   6.976   8.402  1.5405  2.2285  0.1924
  187MOL0     H24676   8.880   6.852   8.530  1.2395  3.0212 -3.5920
  187MOL0     H24677   8.998   6.835   8.657 -0.6849  1.1609  2.0368
  187MOL0     H24678   9.013   7.104   8.670  0.0127 -0.5918  0.9852
  187MOL0     H24679   8.875   7.035   8.741  1.5294  0.2883  1.6164
  187MOL0     H24680   8.880   7.084   8.446  1.7037  2.8838 -0.1597
  187MOL0     H24681   8.742   7.076   8.561  0.7624 -4.0706  0.9176
  187MOL0     H24682   8.836   7.489   8.569 -0.9974 -0.1395  1.6204
  187MOL0     H24683   9.411   7.098   8.661  0.3838 -0.3740 -0.5069
  187MOL0     H24684   9.614   7.146   8.543 -0.8951  1.0006  0.5911
  188MOL0     O24685   2.792   2.605   2.389 -0.2373 -0.7211  0.0894
  188MOL0     C24686   2.864   2.577   2.483 -0.0359 -0.0723 -0.2789
  188MOL0     O24687   2.830   2.522   2.597  0.2075  0.5630 -0.7032
  188MOL0     C24688   2.688   2.509   2.609 -0.1207 -0.3543 -0.4493
  188MOL0     C24689   2.613   2.605   2.673  0.3992 -0.4069 -0.7205
  188MOL0     C24690   2.472   2.578   2.684  0.7171  0.5473 -0.5198
  188MOL0     C24691   2.413   2.449   2.658 -0.0368  0.0091 -0.4112
  188MOL0     O24692   2.291   2.407   2.705  0.0685 -0.3962  0.1144
  188MOL0     C24693   2.279   2.432   2.853 -0.4614 -0.8017  0.6841
  188MOL0     C24694   2.169   2.338   2.923 -0.8706  0.9846  0.4579
  188MOL0     C24695   2.212   2.188   2.904 -1.0799 -0.2854  0.0696
  188MOL0     C24696   2.106   2.095   2.959 -0.0798 -0.1143 -0.3127
  188MOL0     C24697   2.148   1.955   2.932  0.5714  0.7216 -0.7531
  188MOL0     C24698   2.272   1.902   3.009 -0.2980  0.7361  0.1694
  188MOL0     C24699   2.289   1.753   2.986  0.2708  0.0573 -0.7107
  188MOL0     C24700   2.385   1.694   3.092  0.2278  0.0128 -0.3228
  188MOL0     N24701   2.523   1.741   3.069  0.1023 -0.1561 -0.2152
  188MOL0     C24702   2.603   1.805   3.161 -0.3354  0.5205  0.2904
  188MOL0     C24703   2.701   1.850   3.074 -0.3807  0.2453 -0.5451
  188MOL0     C24704   2.819   1.939   3.107 -0.2641 -0.7735 -0.5504
  188MOL0     C24705   2.911   1.847   3.200 -0.0193  0.3995 -0.0310
  188MOL0     C24706   2.943   1.925   3.318  0.5301  1.1993  0.1315
  188MOL0     C24707   3.075   1.871   3.380 -0.1551  0.8024 -0.6607
  188MOL0     O24708   3.121   1.967   3.479 -0.7398  0.2542 -0.1906
  188MOL0     C24709   3.252   1.970   3.524 -0.2155 -0.5530 -0.0839
  188MOL0     C24710   3.352   1.880   3.488  0.4825 -0.2599 -0.1184
  188MOL0     C24711   3.484   1.889   3.538  0.2494  0.0845  0.6781
  188MOL0     C24712   3.511   1.987   3.633 -0.7969 -0.1385  0.6265
  188MOL0     C24713   3.656   1.986   3.678  1.0975  0.2507 -0.7632
  188MOL0     O24714   3.744   1.893   3.634  0.8450 -0.1872 -0.1081
  188MOL0     C24715   3.866   1.884   3.702 -0.1676  0.0157  0.0438
  188MOL0     C24716   3.980   1.911   3.634  0.9335 -0.7303 -0.1762
  188MOL0     C24717   4.106   1.895   3.696  0.5956  0.7243 -0.0006
  188MOL0     C24718   4.107   1.855   3.837  0.2534 -0.3012  0.0218
  188MOL0     O24719   4.215   1.855   3.920 -0.4705 -0.4109 -0.1295
  188MOL0     C24720   4.340   1.861   3.853  0.0683 -0.2065  0.9593
  188MOL0     C24721   4.453   1.834   3.949  0.3843 -0.1229 -0.1035
  188MOL0     C24722   4.589   1.849   3.873  0.3887 -0.4313 -1.2633
  188MOL0     C24723   4.703   1.826   3.973 -0.2422  0.5729  0.3280
  188MOL0     C24724   4.841   1.826   3.896 -0.7547  0.1178 -0.0673
  188MOL0     C24725   4.971   1.813   3.977  0.2898  0.2394  0.0019
  188MOL0     C24726   4.987   1.935   4.071 -0.5665  0.6146 -0.7719
  188MOL0     C24727   5.128   1.937   4.130 -0.1960 -0.2396 -0.9307
  188MOL0    Cl24728   5.138   1.836   4.286 -0.0017  0.4646 -0.0698
  188MOL0     C24729   3.991   1.814   3.906 -0.1020  0.0716  0.2974
  188MOL0     C24730   3.874   1.824   3.831  0.6664 -0.3851 -0.5168
  188MOL0     O24731   3.684   2.075   3.763 -0.0852 -0.4816  1.0893
  188MOL0     C24732   3.418   2.080   3.662  2.0151 -0.3284 -0.3479
  188MOL0     C24733   3.286   2.074   3.611 -0.5461  0.4891 -0.7864
  188MOL0     N24734   2.677   1.808   2.943 -0.4031 -0.4871  0.2326
  188MOL0     N24735   2.574   1.741   2.941  0.5890  0.0207  0.6843
  188MOL0     C24736   2.502   2.349   2.610 -0.2362  0.2864 -0.1859
  188MOL0     C24737   2.639   2.376   2.587 -0.2490 -0.1525  1.5913
  188MOL0     C24738   3.007   2.607   2.479  0.3881  0.3210  0.5368
  188MOL0     C24739   3.063   2.666   2.359  0.9597 -0.5517 -0.0274
  188MOL0     C24740   3.195   2.690   2.343 -0.5350 -0.2880  0.1433
  188MOL0     C24741   3.283   2.663   2.453 -0.3798 -1.5853  0.2823
  188MOL0     O24742   3.420   2.682   2.463 -0.4401 -0.9987  0.8172
  188MOL0     C24743   3.483   2.722   2.342 -0.6512 -0.4570  0.1575
  188MOL0     C24744   3.632   2.737   2.366  0.1571  0.1290  0.1605
  188MOL0     C24745   3.701   2.602   2.330  0.2634  1.3103  0.1007
  188MOL0     C24746   3.852   2.625   2.322 -0.1543  0.7066  0.7422
  188MOL0     C24747   3.871   2.673   2.182  0.7893  0.2768  0.1062
  188MOL0     C24748   3.886   2.706   2.067 -0.7697  0.6928 -0.3454
  188MOL0     C24749   3.232   2.620   2.577  0.2930  0.6207 -0.5455
  188MOL0     C24750   3.099   2.575   2.580  0.1691 -1.0687  0.0171
  188MOL0     H24751   2.644   2.704   2.706  0.3832 -0.6107 -0.0791
  188MOL0     H24752   2.400   2.651   2.719  2.1658  2.1633 -0.7829
  188MOL0     H24753   2.240   2.532   2.871  0.2711 -0.1989 -0.9126
  188MOL0     H24754   2.373   2.404   2.902 -1.3996 -1.7451  2.0344
  188MOL0     H24755   2.069   2.348   2.879 -1.1799  0.4227  1.0272
  188MOL0     H24756   2.162   2.371   3.027 -0.3262  0.0163  0.8126
  188MOL0     H24757   2.306   2.173   2.958  1.1984  2.7330 -2.6491
  188MOL0     H24758   2.222   2.160   2.798 -1.1057  0.0653 -0.0252
  188MOL0     H24759   2.103   2.110   3.068  3.1833 -0.3771 -0.0757
  188MOL0     H24760   2.005   2.104   2.919 -0.5476 -0.9583  0.6154
  188MOL0     H24761   2.163   1.933   2.826 -0.6902 -1.6212 -0.5041
  188MOL0     H24762   2.058   1.900   2.961  1.9080 -2.6753 -2.4252
  188MOL0     H24763   2.262   1.920   3.116  1.8090 -2.5363  1.0568
  188MOL0     H24764   2.366   1.950   2.979  0.0396 -1.0309 -1.8142
  188MOL0     H24765   2.194   1.699   2.983  1.1003 -1.4048 -1.7797
  188MOL0     H24766   2.340   1.760   2.889  1.2966  2.9572 -0.0556
  188MOL0     H24767   2.378   1.585   3.097  0.5003 -0.1581 -2.5058
  188MOL0     H24768   2.353   1.718   3.193  0.5221 -2.3545  0.3916
  188MOL0     H24769   2.582   1.834   3.264 -1.2756  1.6898 -0.2049
  188MOL0     H24770   2.793   2.030   3.161 -1.6170 -2.6479  2.2219
  188MOL0     H24771   2.884   1.957   3.021 -1.1185  0.2495 -0.9985
  188MOL0     H24772   3.004   1.824   3.148 -0.1631 -0.7915  0.2230
  188MOL0     H24773   2.866   1.750   3.222  1.7699 -1.0552 -2.3854
  188MOL0     H24774   2.949   2.033   3.308  0.2997  1.2814  0.8344
  188MOL0     H24775   2.854   1.914   3.380  0.5397 -1.9902 -0.2499
  188MOL0     H24776   3.151   1.861   3.301  0.6134 -2.2349  0.3085
  188MOL0     H24777   3.069   1.771   3.424  0.0052  0.9018 -0.4078
  188MOL0     H24778   3.328   1.803   3.416 -1.0324 -1.2736  1.3787
  188MOL0     H24779   3.559   1.815   3.510 -1.0698 -1.1169  0.2017
  188MOL0     H24780   3.959   1.951   3.535  1.8445  0.1873 -0.0035
  188MOL0     H24781   4.195   1.915   3.637 -0.2325  1.6474 -0.9740
  188MOL0     H24782   4.354   1.958   3.805 -1.0184  0.2287  1.4930
  188MOL0     H24783   4.344   1.781   3.778  1.1941 -3.2129  3.9669
  188MOL0     H24784   4.437   1.740   4.003 -1.0724 -0.0563 -0.3820
  188MOL0     H24785   4.452   1.914   4.023  0.9542 -1.4896  1.4295
  188MOL0     H24786   4.590   1.951   3.832 -1.7246 -0.4596 -1.5238
  188MOL0     H24787   4.587   1.770   3.799 -0.5742 -1.2999 -0.3501
  188MOL0     H24788   4.703   1.910   4.042 -1.4557  1.3766 -0.6019
  188MOL0     H24789   4.701   1.728   4.021 -2.2655 -0.9451 -2.5540
  188MOL0     H24790   4.855   1.917   3.837  0.0339  1.7256  2.4574
  188MOL0     H24791   4.837   1.735   3.835 -4.7153  0.7747 -1.0551
  188MOL0     H24792   5.048   1.816   3.900 -1.1554  1.0222 -1.4793
  188MOL0     H24793   4.975   1.720   4.034  0.8686 -0.1781 -0.7140
  188MOL0     H24794   4.970   2.024   4.010 -1.9649  0.0483 -1.2330
  188MOL0     H24795   4.915   1.928   4.153 -0.6456  1.7262 -0.7429
  188MOL0     H24796   5.152   2.040   4.157 -1.8218  0.1195 -0.7296
  188MOL0     H24797   5.202   1.906   4.056  1.8942  2.8861 -0.3653
  188MOL0     H24798   3.988   1.787   4.011  1.8272  0.2255  0.4318
  188MOL0     H24799   3.780   1.797   3.878  0.0084  1.2365 -0.8484
  188MOL0     H24800   3.440   2.157   3.735  1.9994  0.8174 -1.5128
  188MOL0     H24801   3.209   2.147   3.632 -1.7496 -0.8581 -0.3189
  188MOL0     H24802   2.453   2.255   2.588  1.3545  0.0046 -3.0051
  188MOL0     H24803   2.707   2.308   2.538 -0.4580  2.1178 -2.1916
  188MOL0     H24804   2.991   2.686   2.281 -1.6779  0.0873  2.3962
  188MOL0     H24805   3.230   2.754   2.262  0.3440  1.5029  1.8527
  188MOL0     H24806   3.447   2.825   2.340  0.1711 -0.1412  0.9254
  188MOL0     H24807   3.458   2.677   2.245  0.0882  1.6352 -1.0618
  188MOL0     H24808   3.672   2.815   2.300 -0.3676 -0.9047 -1.4356
  188MOL0     H24809   3.661   2.759   2.469  0.6042 -0.7790  0.2375
  188MOL0     H24810   3.667   2.572   2.230  1.3552  0.1526  0.0566
  188MOL0     H24811   3.669   2.521   2.396 -0.2385  0.9570 -0.5573
  188MOL0     H24812   3.886   2.698   2.396  2.3034  1.3282 -0.8575
  188MOL0     H24813   3.905   2.529   2.326  1.5315  1.4132 -2.0551
  188MOL0     H24814   3.896   2.731   1.963  1.5403 -0.6805 -0.4995
  188MOL0     H24815   3.284   2.595   2.669 -2.0661 -3.4600 -0.1165
  188MOL0     H24816   3.063   2.536   2.674  2.5358 -1.1486  0.9647
  189MOL0     O24817   6.393   9.383   6.382 -0.2042 -0.2310  0.6342
  189MOL0     C24818   6.312   9.291   6.371 -0.4571  0.5759 -0.3732
  189MOL0     O24819   6.332   9.160   6.400 -0.3763  0.1300  0.7740
  189MOL0     C24820   6.463   9.126   6.419  0.0878 -0.1808 -0.4643
  189MOL0     C24821   6.558   9.098   6.319 -0.0462  0.3707 -0.2274
  189MOL0     C24822   6.689   9.071   6.358 -0.1182 -0.3683 -0.3434
  189MOL0     C24823   6.726   9.073   6.487 -0.2652  0.6367 -0.6537
  189MOL0     O24824   6.863   9.047   6.509 -0.0410  0.2079  0.4652
  189MOL0     C24825   6.909   9.024   6.644 -0.4372  0.5770  0.0096
  189MOL0     C24826   7.062   8.993   6.662 -0.5601  0.8960 -0.0308
  189MOL0     C24827   7.112   8.975   6.799  0.3004  0.6535  1.3176
  189MOL0     C24828   7.053   8.844   6.867  0.0975 -0.1758  0.0880
  189MOL0     C24829   7.044   8.844   7.020 -0.2254 -0.0169 -0.8290
  189MOL0     C24830   7.014   8.982   7.090  0.0626 -0.5624  0.1752
  189MOL0     C24831   6.879   9.052   7.050  0.0123 -0.8038 -0.5739
  189MOL0     C24832   6.773   8.963   7.112  0.6720  0.2183 -0.2017
  189MOL0     N24833   6.639   9.023   7.107 -0.1700 -0.3250 -0.3298
  189MOL0     C24834   6.560   9.075   7.211 -0.2980  0.0747  0.5904
  189MOL0     C24835   6.444   9.118   7.155  0.1087  0.0031  0.9582
  189MOL0     C24836   6.327   9.181   7.229 -0.3637  0.5115  0.1654
  189MOL0     C24837   6.212   9.081   7.258  0.1546  0.9130 -0.5299
  189MOL0     C24838   6.145   9.026   7.129  0.1328 -0.3915  0.1726
  189MOL0     C24839   6.003   8.985   7.162  0.1367 -0.0020  0.6158
  189MOL0     O24840   5.917   9.099   7.168  0.5223  0.0941 -0.7225
  189MOL0     C24841   5.799   9.088   7.229 -0.1471 -0.3341 -0.1737
  189MOL0     C24842   5.739   9.200   7.288  0.4805  0.1030 -0.1426
  189MOL0     C24843   5.611   9.209   7.352 -0.6019  0.5572 -0.4076
  189MOL0     C24844   5.539   9.084   7.352  0.0351  0.5892 -0.1798
  189MOL0     C24845   5.397   9.073   7.413 -0.0540  0.3478  0.1649
  189MOL0     O24846   5.322   8.958   7.392 -1.0333 -0.6658  0.5101
  189MOL0     C24847   5.200   8.954   7.452  0.1769 -0.3277 -0.6383
  189MOL0     C24848   5.082   8.998   7.385  0.1001  0.4266  0.3595
  189MOL0     C24849   4.957   8.967   7.428  1.1117 -0.4438 -0.4306
  189MOL0     C24850   4.935   8.906   7.551  0.1224 -0.5223 -0.2304
  189MOL0     O24851   4.817   8.874   7.612  0.2658 -0.0181  0.0914
  189MOL0     C24852   4.721   8.976   7.632 -0.7862 -0.1027 -0.1784
  189MOL0     C24853   4.588   8.913   7.673  0.4881 -0.1440  0.1587
  189MOL0     C24854   4.486   9.011   7.738 -0.2505  0.0569  0.3350
  189MOL0     C24855   4.342   8.953   7.727 -0.2616  0.1276 -0.4481
  189MOL0     C24856   4.253   9.037   7.806 -0.0702 -0.4233 -0.6905
  189MOL0     C24857   4.117   8.960   7.820 -0.1390 -1.0382  0.2762
  189MOL0     C24858   4.014   9.037   7.906  0.0328 -0.0736 -0.6166
  189MOL0     C24859   3.890   8.949   7.919  0.7000 -0.6082 -0.5750
  189MOL0    Cl24860   3.772   9.020   8.030  0.0676  0.1953  0.0502
  189MOL0     C24861   5.046   8.874   7.624 -0.5030  0.4796  0.2541
  189MOL0     C24862   5.175   8.889   7.579  0.4812  1.0212 -0.1647
  189MOL0     O24863   5.359   9.171   7.475 -0.0706  0.1585  0.6174
  189MOL0     C24864   5.601   8.964   7.308  0.8126 -0.6517 -0.3772
  189MOL0     C24865   5.725   8.961   7.234 -0.1303  0.0518  0.3508
  189MOL0     N24866   6.458   9.099   7.020 -0.3836 -0.1287 -0.4155
  189MOL0     N24867   6.565   9.030   6.998  0.1443  0.1242  0.5111
  189MOL0     C24868   6.633   9.093   6.591 -0.0421 -0.2656  0.4399
  189MOL0     C24869   6.495   9.109   6.558  1.3436  0.5523  0.0647
  189MOL0     C24870   6.170   9.329   6.342 -0.3190  0.3777  0.4624
  189MOL0     C24871   6.079   9.232   6.297 -0.5214  0.4299 -0.8235
  189MOL0     C24872   5.944   9.256   6.285 -0.3594  0.1430  0.2410
  189MOL0     C24873   5.886   9.385   6.300  0.5451  0.1214  0.4804
  189MOL0     O24874   5.755   9.420   6.276 -0.5941 -0.0217 -0.5366
  189MOL0     C24875   5.663   9.313   6.240 -0.9788 -0.2208  0.2257
  189MOL0     C24876   5.524   9.375   6.252 -0.5515 -0.7528  0.9802
  189MOL0     C24877   5.419   9.267   6.240  0.3022  0.3349  0.4025
  189MOL0     C24878   5.285   9.336   6.198  0.6928 -0.4731  0.6768
  189MOL0     C24879   5.183   9.244   6.142  0.5374  0.5626 -0.3456
  189MOL0     C24880   5.110   9.155   6.103 -0.4904 -0.3222 -0.2297
  189MOL0     C24881   5.974   9.486   6.343 -0.1174  0.2344 -0.0361
  189MOL0     C24882   6.113   9.460   6.355  0.3027 -0.6129 -0.2128
  189MOL0     H24883   6.541   9.104   6.212 -1.4923  4.4174  0.0714
  189MOL0     H24884   6.760   9.045   6.280 -1.2237 -0.8423 -1.2144
  189MOL0     H24885   6.844   8.944   6.682 -1.1578  0.8973 -0.5243
  189MOL0     H24886   6.893   9.113   6.707  1.9092 -0.6176  2.5164
  189MOL0     H24887   7.124   9.071   6.618  2.2498 -1.2879 -0.2696
  189MOL0     H24888   7.081   8.899   6.608  0.2360  0.0618  1.6359
  189MOL0     H24889   7.087   9.067   6.854  1.0373  1.3508  0.5208
  189MOL0     H24890   7.220   8.966   6.792  0.3708  1.1668  1.6202
  189MOL0     H24891   6.953   8.827   6.826 -0.8408  0.6569  1.9122
  189MOL0     H24892   7.121   8.765   6.832 -0.1154  0.1239 -1.0487
  189MOL0     H24893   7.142   8.813   7.058 -1.1361  0.1457  1.9038
  189MOL0     H24894   6.975   8.766   7.054  0.8710 -0.6547 -0.0134
  189MOL0     H24895   7.101   9.038   7.054 -1.2708  0.2531 -1.9515
  189MOL0     H24896   7.014   8.971   7.199 -4.3436  1.3661  0.5840
  189MOL0     H24897   6.865   9.153   7.088 -2.2335 -2.5469  4.0701
  189MOL0     H24898   6.861   9.062   6.943 -0.0723 -1.1072 -0.5904
  189MOL0     H24899   6.801   8.948   7.217  0.3075  1.0325  0.0235
  189MOL0     H24900   6.769   8.865   7.065 -0.0747  0.5849 -0.9135
  189MOL0     H24901   6.584   9.074   7.316 -1.5354  1.2037  0.9075
  189MOL0     H24902   6.305   9.279   7.185  0.1006 -1.0792 -4.0788
  189MOL0     H24903   6.379   9.197   7.324  2.2828 -0.6432 -0.9699
  189MOL0     H24904   6.138   9.130   7.322  0.1122  1.3033 -0.8697
  189MOL0     H24905   6.253   9.004   7.323  2.1224  0.1126 -2.6183
  189MOL0     H24906   6.131   9.103   7.053 -0.0151 -1.9749 -1.4662
  189MOL0     H24907   6.205   8.947   7.085 -1.6099 -1.5019 -0.3264
  189MOL0     H24908   6.003   8.946   7.264  1.4377  1.0182  1.0385
  189MOL0     H24909   5.975   8.908   7.090  0.4286 -0.7698  1.3130
  189MOL0     H24910   5.784   9.299   7.298 -1.3130  0.9801 -0.2794
  189MOL0     H24911   5.574   9.303   7.393  1.6122  1.1997  0.2661
  189MOL0     H24912   5.110   9.034   7.287  2.9877 -2.3278 -0.0087
  189MOL0     H24913   4.867   8.991   7.372 -0.1296 -1.2836  1.1149
  189MOL0     H24914   4.697   9.040   7.546 -0.6237 -2.7162 -2.3232
  189MOL0     H24915   4.762   9.043   7.707 -0.3818 -0.1601 -0.3454
  189MOL0     H24916   4.606   8.834   7.747  0.3119  0.6209  1.0340
  189MOL0     H24917   4.538   8.875   7.583 -0.2929  3.4285 -1.0767
  189MOL0     H24918   4.505   9.104   7.684  1.8413  0.1033  1.0576
  189MOL0     H24919   4.503   9.021   7.846  0.1465 -2.0338  0.5137
  189MOL0     H24920   4.310   8.958   7.623  0.3560  3.9863 -0.6186
  189MOL0     H24921   4.345   8.852   7.768  1.1650  0.7599  1.1133
  189MOL0     H24922   4.250   9.135   7.757  0.1755 -0.6547 -1.1808
  189MOL0     H24923   4.288   9.059   7.907 -0.4540  0.1861 -0.6894
  189MOL0     H24924   4.124   8.859   7.862 -0.5323 -0.2636  2.3211
  189MOL0     H24925   4.068   8.957   7.722 -0.4236  2.1824  0.2105
  189MOL0     H24926   4.075   9.054   7.995 -0.1698 -3.9519  0.4466
  189MOL0     H24927   3.989   9.125   7.846  1.4057 -0.5316 -1.9090
  189MOL0     H24928   3.936   8.861   7.965  0.6286  1.1879  3.3820
  189MOL0     H24929   3.842   8.931   7.823  2.8602 -0.4603 -1.7441
  189MOL0     H24930   5.026   8.831   7.722  0.6634 -1.1144 -0.1626
  189MOL0     H24931   5.245   8.840   7.646  0.7605 -0.8285 -1.7237
  189MOL0     H24932   5.551   8.872   7.334 -0.1863 -0.2711 -0.8959
  189MOL0     H24933   5.768   8.877   7.179 -1.3386  1.8094 -3.6633
  189MOL0     H24934   6.671   9.090   6.693 -0.7772 -2.1253  0.7032
  189MOL0     H24935   6.422   9.139   6.632  1.0403  1.9902 -0.7625
  189MOL0     H24936   6.107   9.128   6.286  0.0944  0.3459  1.1041
  189MOL0     H24937   5.874   9.178   6.256  2.3820 -1.3087 -3.2172
  189MOL0     H24938   5.666   9.231   6.313  1.8007  2.7576  3.8186
  189MOL0     H24939   5.687   9.281   6.139 -0.7375  2.9043 -0.8125
  189MOL0     H24940   5.514   9.410   6.355  0.1224 -0.6699  1.0199
  189MOL0     H24941   5.499   9.455   6.182  0.5297 -1.8133 -0.6935
  189MOL0     H24942   5.395   9.218   6.335 -3.1045  1.0532  0.0470
  189MOL0     H24943   5.452   9.199   6.160 -0.0269  0.6031  0.0349
  189MOL0     H24944   5.244   9.394   6.281  2.9149  3.2006 -0.5489
  189MOL0     H24945   5.288   9.400   6.110 -0.3064 -0.3976  0.6786
  189MOL0     H24946   5.038   9.085   6.063  0.9743 -0.8409 -2.1154
  189MOL0     H24947   5.924   9.574   6.382  2.3652  2.1385 -0.8519
  189MOL0     H24948   6.184   9.538   6.377 -0.5617  0.5509 -1.3607
  190MOL0     O24949   4.423   8.246   6.721 -0.4562 -0.0340  0.0744
  190MOL0     C24950   4.399   8.135   6.777 -0.7553  0.2760 -0.2261
  190MOL0     O24951   4.476   8.021   6.778 -0.2033 -0.1554 -0.1044
  190MOL0     C24952   4.567   8.000   6.687 -0.0092  0.8147  0.2771
  190MOL0     C24953   4.552   8.036   6.552 -0.0299  0.2702 -0.8498
  190MOL0     C24954   4.654   8.016   6.454 -0.7962 -0.1654 -0.3071
  190MOL0     C24955   4.777   7.953   6.496 -0.3764 -0.2276 -0.0292
  190MOL0     O24956   4.885   7.927   6.409 -0.3825 -0.0668  0.1687
  190MOL0     C24957   4.891   7.985   6.278 -0.4975 -0.4318 -0.5935
  190MOL0     C24958   5.023   7.956   6.212  0.4299 -0.8119 -0.9335
  190MOL0     C24959   5.140   8.032   6.280 -0.1926  0.1817  0.8231
  190MOL0     C24960   5.276   7.948   6.284  0.2168  0.7271 -0.6451
  190MOL0     C24961   5.326   7.963   6.142  0.0036 -0.3942  0.6612
  190MOL0     C24962   5.444   7.869   6.118  1.3353  1.4511  0.2001
  190MOL0     C24963   5.558   7.872   6.217 -0.8118  0.1652 -0.3433
  190MOL0     C24964   5.625   8.009   6.201 -0.4398 -0.2094 -0.0500
  190MOL0     N24965   5.758   8.000   6.235 -0.0945  0.0378  0.0690
  190MOL0     C24966   5.859   8.010   6.141  0.7154 -0.0899 -1.0346
  190MOL0     C24967   5.961   8.047   6.214 -0.0573 -0.5915 -0.3188
  190MOL0     C24968   6.098   8.071   6.168  0.0547 -0.1256  0.1763
  190MOL0     C24969   6.107   8.190   6.061  0.5272 -0.2045 -0.5238
  190MOL0     C24970   6.043   8.325   6.123 -0.0662  0.4938 -0.5787
  190MOL0     C24971   5.895   8.346   6.083 -0.0991 -1.0245 -0.1679
  190MOL0     O24972   5.829   8.411   6.199  0.4242  0.2695  0.1722
  190MOL0     C24973   5.695   8.409   6.199  0.6375 -0.7180  0.8046
  190MOL0     C24974   5.611   8.362   6.099  0.7361 -0.1302 -0.1703
  190MOL0     C24975   5.473   8.381   6.118  0.2880  0.7747 -0.1187
  190MOL0     C24976   5.420   8.438   6.235  0.2654  0.1816 -0.7936
  190MOL0     C24977   5.272   8.430   6.269  0.2807 -0.4416 -0.3809
  190MOL0     O24978   5.231   8.518   6.366  0.1339  0.3363  0.0064
  190MOL0     C24979   5.105   8.497   6.410 -0.2005  0.3405 -0.1827
  190MOL0     C24980   5.028   8.380   6.434 -0.5562  0.4776 -0.5766
  190MOL0     C24981   4.901   8.382   6.484 -0.0870  0.2825 -0.6923
  190MOL0     C24982   4.834   8.500   6.493 -0.1984  0.2709 -0.3202
  190MOL0     O24983   4.698   8.516   6.488  0.7400 -0.0188 -0.2936
  190MOL0     C24984   4.613   8.416   6.419  1.0501 -0.0607 -0.1548
  190MOL0     C24985   4.462   8.453   6.400 -0.0431  0.4710 -0.7122
  190MOL0     C24986   4.401   8.392   6.275 -0.2594  0.2616 -0.2030
  190MOL0     C24987   4.435   8.469   6.152 -0.1572 -1.9284 -0.7282
  190MOL0     C24988   4.322   8.464   6.042  0.5730  0.4838 -0.6163
  190MOL0     C24989   4.381   8.516   5.915  0.6466  0.5243 -0.6216
  190MOL0     C24990   4.280   8.517   5.798 -0.5590 -0.0131 -0.3717
  190MOL0     C24991   4.336   8.587   5.673 -0.0526  0.2048  0.6860
  190MOL0    Cl24992   4.302   8.753   5.707 -0.1362  0.5018 -0.2661
  190MOL0     C24993   4.908   8.619   6.481 -0.0130  0.3281 -0.3099
  190MOL0     C24994   5.039   8.617   6.445 -0.7879 -0.9637 -0.3060
  190MOL0     O24995   5.200   8.354   6.199  0.0831  0.0987  0.1052
  190MOL0     C24996   5.503   8.478   6.331 -0.0521 -0.1925 -0.0045
  190MOL0     C24997   5.641   8.465   6.315 -0.4056 -0.7132  0.9120
  190MOL0     N24998   5.929   8.067   6.345 -0.3543  0.4160  0.1466
  190MOL0     N24999   5.802   8.028   6.358  0.6387  0.0004  0.1810
  190MOL0     C25000   4.796   7.931   6.636  0.2288  0.0896  0.9921
  190MOL0     C25001   4.685   7.940   6.724  0.3406 -0.7319  1.1237
  190MOL0     C25002   4.261   8.115   6.815 -0.2620 -0.1680  0.1643
  190MOL0     C25003   4.164   8.207   6.776  0.5834  0.2434 -0.7050
  190MOL0     C25004   4.035   8.195   6.831 -0.2958 -0.1197 -0.5221
  190MOL0     C25005   4.008   8.083   6.920 -0.3751 -0.1274 -0.5702
  190MOL0     O25006   3.887   8.061   6.984  0.8914 -0.6870 -0.2182
  190MOL0     C25007   3.763   8.091   6.914 -0.6868 -1.1200  0.5271
  190MOL0     C25008   3.705   7.992   6.821 -0.5053 -0.1016  0.4892
  190MOL0     C25009   3.565   8.011   6.780  0.1804 -0.1910  0.7178
  190MOL0     C25010   3.505   7.913   6.676  0.7951  0.4354  0.6915
  190MOL0     C25011   3.366   7.951   6.662  0.4146  0.4952 -0.1996
  190MOL0     C25012   3.254   7.967   6.636 -0.0234  0.3808 -0.1600
  190MOL0     C25013   4.107   7.996   6.965 -0.3525  0.2795 -0.4013
  190MOL0     C25014   4.236   8.008   6.908 -0.9670 -0.4819  1.4384
  190MOL0     H25015   4.454   8.062   6.513 -0.3647 -0.9065 -0.8321
  190MOL0     H25016   4.635   8.043   6.350 -1.0852  1.0998  0.0571
  190MOL0     H25017   4.882   8.093   6.294 -1.3869 -0.3970 -1.2434
  190MOL0     H25018   4.807   7.953   6.215 -0.0477 -2.6587 -0.1304
  190MOL0     H25019   5.020   7.996   6.110 -1.9784  2.6878  0.3320
  190MOL0     H25020   5.042   7.848   6.212  1.3911 -0.7693  2.3400
  190MOL0     H25021   5.137   8.057   6.386  1.1484  1.2183  0.6461
  190MOL0     H25022   5.163   8.125   6.227 -0.0623  0.0989  0.7326
  190MOL0     H25023   5.354   7.992   6.347 -1.0348  1.3996  0.4750
  190MOL0     H25024   5.250   7.845   6.310 -3.2137  1.1945 -1.6576
  190MOL0     H25025   5.360   8.063   6.112  0.2509 -1.6246 -4.0241
  190MOL0     H25026   5.254   7.929   6.068 -2.0439  0.0346  2.3735
  190MOL0     H25027   5.481   7.878   6.016  1.5277 -2.1907 -0.2059
  190MOL0     H25028   5.405   7.767   6.123  2.2863  0.9579 -1.7409
  190MOL0     H25029   5.531   7.850   6.321  1.0807  0.8131  0.3209
  190MOL0     H25030   5.631   7.800   6.178 -1.1710 -0.3524 -0.0794
  190MOL0     H25031   5.583   8.075   6.277  1.7600 -0.6078  1.6292
  190MOL0     H25032   5.618   8.050   6.099  2.6654 -3.4394 -1.8053
  190MOL0     H25033   5.863   7.999   6.033  2.3678  1.2202 -1.1486
  190MOL0     H25034   6.150   7.982   6.130 -0.7842 -0.3579 -0.4584
  190MOL0     H25035   6.161   8.109   6.249  0.2492  4.5847 -1.8681
  190MOL0     H25036   6.049   8.152   5.976  0.5394  0.9461 -1.0608
  190MOL0     H25037   6.206   8.223   6.027 -0.9611  2.3347 -2.8770
  190MOL0     H25038   6.040   8.314   6.232 -3.0096  0.5586 -0.5817
  190MOL0     H25039   6.110   8.408   6.102  3.4215 -1.6157  1.2434
  190MOL0     H25040   5.849   8.251   6.055  1.2348 -1.6759 -0.2552
  190MOL0     H25041   5.873   8.409   5.996  0.1188 -0.1727  0.3846
  190MOL0     H25042   5.642   8.315   6.007 -1.9782  0.8730 -1.6967
  190MOL0     H25043   5.405   8.346   6.040  0.7708  0.0140 -0.2054
  190MOL0     H25044   5.085   8.288   6.431  1.3340  1.5544  0.5968
  190MOL0     H25045   4.852   8.285   6.482  0.6777 -0.1502 -4.3645
  190MOL0     H25046   4.616   8.330   6.487  0.0433  1.6448  2.2146
  190MOL0     H25047   4.646   8.397   6.317 -2.1075  1.3866 -1.5815
  190MOL0     H25048   4.457   8.562   6.392  2.2095  0.9689  2.5743
  190MOL0     H25049   4.404   8.425   6.488  0.7890  0.9248 -0.0014
  190MOL0     H25050   4.293   8.408   6.283 -0.2651  0.5232 -0.7819
  190MOL0     H25051   4.418   8.285   6.265 -1.1721 -0.1054  1.8046
  190MOL0     H25052   4.468   8.572   6.165 -0.2219 -1.8072 -1.4668
  190MOL0     H25053   4.529   8.430   6.111  1.4402  0.8933 -0.0196
  190MOL0     H25054   4.252   8.542   6.073  1.8699  0.0983  3.9754
  190MOL0     H25055   4.267   8.369   6.045  1.0898 -0.0621 -4.0811
  190MOL0     H25056   4.476   8.464   5.897 -0.1018 -1.1845  0.1808
  190MOL0     H25057   4.396   8.624   5.925 -2.7513  0.9672  1.0636
  190MOL0     H25058   4.238   8.419   5.773 -1.5212  0.2905 -0.0061
  190MOL0     H25059   4.190   8.571   5.830 -1.4006 -2.2695  1.3779
  190MOL0     H25060   4.271   8.567   5.588  2.3989  2.5453 -1.9411
  190MOL0     H25061   4.441   8.563   5.653 -1.2359 -4.5113 -1.1997
  190MOL0     H25062   4.848   8.709   6.494 -0.6755 -0.3901  2.3288
  190MOL0     H25063   5.097   8.709   6.450  1.8903 -2.5721  3.0236
  190MOL0     H25064   5.470   8.514   6.427  1.1537  1.6433 -0.2363
  190MOL0     H25065   5.712   8.479   6.397  2.3818  0.0920 -1.4591
  190MOL0     H25066   4.874   7.867   6.676  0.2235  0.2577  1.2826
  190MOL0     H25067   4.699   7.909   6.827 -1.8407 -1.6479  1.1920
  190MOL0     H25068   4.182   8.288   6.706  0.2261  2.5591  1.7420
  190MOL0     H25069   3.958   8.266   6.804  2.7517  3.5090 -0.3559
  190MOL0     H25070   3.767   8.186   6.861 -0.7923 -1.4372 -0.0624
  190MOL0     H25071   3.687   8.114   6.990 -0.2615  0.6503  0.4500
  190MOL0     H25072   3.750   8.015   6.723 -1.7371  0.5469  0.0607
  190MOL0     H25073   3.733   7.889   6.846 -0.0531  0.4915  2.6000
  190MOL0     H25074   3.565   8.108   6.730 -0.4725  1.5399  3.7970
  190MOL0     H25075   3.508   8.018   6.873  1.1178  0.9155  1.2332
  190MOL0     H25076   3.557   7.922   6.580 -0.1449 -3.9258 -0.4635
  190MOL0     H25077   3.496   7.809   6.711 -4.0231  0.3387 -0.1289
  190MOL0     H25078   3.149   7.979   6.620  0.2004  5.2451  0.4697
  190MOL0     H25079   4.084   7.924   7.043 -1.4165  1.7374  0.6841
  190MOL0     H25080   4.299   7.922   6.929  1.3801  0.1802 -2.0544
  191MOL0     O25081  10.492   1.596   1.077  0.3802  0.0907 -0.4001
  191MOL0     C25082  10.380   1.552   1.031 -0.2893  0.1937  0.2918
  191MOL0     O25083  10.368   1.431   0.963  0.3148 -0.6242 -0.5956
  191MOL0     C25084  10.471   1.342   0.950 -0.0362  1.0915  0.5244
  191MOL0     C25085  10.589   1.381   0.884  0.4054  0.0158 -0.0560
  191MOL0     C25086  10.695   1.293   0.869  0.8693  0.9144  0.5203
  191MOL0     C25087  10.681   1.162   0.908  0.6248  1.6483  0.3026
  191MOL0     O25088  10.783   1.073   0.888 -0.5182  0.2251 -0.3956
  191MOL0     C25089  10.741   0.942   0.833  0.4178  0.1626 -0.3896
  191MOL0     C25090  10.779   0.841   0.945  0.4659  0.4217 -0.3351
  191MOL0     C25091  10.656   0.733   0.964  0.0448 -0.2218  0.5068
  191MOL0     C25092  10.697   0.632   1.068  0.9439  0.4321 -0.1222
  191MOL0     C25093  10.575   0.534   1.110  0.2195 -0.3572 -0.7970
  191MOL0     C25094  10.519   0.460   0.988 -0.0257  0.1693  0.2035
  191MOL0     C25095  10.381   0.521   0.962  0.7060 -0.2889  0.8457
  191MOL0     C25096  10.270   0.485   1.060  0.1145 -0.3902  0.1165
  191MOL0     N25097  10.138   0.482   0.989  0.0778 -0.1082  1.0441
  191MOL0     C25098  10.096   0.389   0.898  0.3498 -0.8843  0.5294
  191MOL0     C25099   9.973   0.434   0.859 -0.2752  0.4788  0.2088
  191MOL0     C25100   9.875   0.377   0.760 -0.6123  0.1598  0.3621
  191MOL0     C25101   9.859   0.228   0.778  0.1365  0.8036 -0.6085
  191MOL0     C25102   9.733   0.184   0.700  0.2752 -0.6265  0.4973
  191MOL0     C25103   9.601   0.214   0.775 -0.7869  0.2358 -0.0344
  191MOL0     O25104   9.496   0.169   0.684  0.8172  0.9766  0.9430
  191MOL0     C25105   9.366   0.182   0.718 -0.1982 -0.6790 -0.7311
  191MOL0     C25106   9.277   0.189   0.615  0.2390  0.0208 -0.3189
  191MOL0     C25107   9.148   0.191   0.643 -0.7262 -0.6824  0.3839
  191MOL0     C25108   9.091   0.188   0.773 -0.0035 -0.3118  0.0724
  191MOL0     C25109   8.946   0.183   0.788 -1.1927 -0.6458 -0.0177
  191MOL0     O25110   8.897   0.224   0.901 -0.2519  1.0233  0.2057
  191MOL0     C25111   8.765   0.218   0.933  0.2146 -1.1509 -0.0038
  191MOL0     C25112   8.660   0.140   0.887  0.1947  0.7740 -0.1394
  191MOL0     C25113   8.517   0.165   0.936  0.2676 -0.1896 -0.5278
  191MOL0     C25114   8.494   0.261   1.038 -0.7021  1.1289  0.5184
  191MOL0     O25115   8.379   0.277   1.104  1.0159  0.1646 -0.0931
  191MOL0     C25116   8.261   0.217   1.052  0.6021  0.0891 -0.3014
  191MOL0     C25117   8.148   0.260   1.145  0.0081  1.2410 -0.2307
  191MOL0     C25118   8.008   0.255   1.091 -0.5762  0.1821 -0.2287
  191MOL0     C25119   7.910   0.306   1.204  0.0177 -0.5516  0.9285
  191MOL0     C25120   7.783   0.362   1.138 -0.2151  0.4353  0.9682
  191MOL0     C25121   7.708   0.254   1.056  0.1646  0.0635 -0.6189
  191MOL0     C25122   7.695   0.113   1.118 -0.3846  0.1760 -0.9802
  191MOL0     C25123   7.579   0.021   1.070 -0.5105 -0.5865  0.2087
  191MOL0    Cl25124   7.407   0.076   1.092 -0.5031 -0.0357  0.2834
  191MOL0     C25125   8.606   0.331   1.079  0.1170  0.9837  0.1457
  191MOL0     C25126   8.737   0.314   1.039  0.4973  0.0716  0.2225
  191MOL0     O25127   8.886   0.144   0.693 -0.1490 -0.1689  0.0370
  191MOL0     C25128   9.173   0.182   0.880 -0.8612  0.2524  0.2970
  191MOL0     C25129   9.311   0.181   0.854 -0.3276  0.2174  0.1858
  191MOL0     N25130   9.939   0.550   0.926 -0.2620  0.2673 -0.5744
  191MOL0     N25131  10.039   0.577   1.000  0.1367  0.4632  0.0966
  191MOL0     C25132  10.562   1.112   0.970  0.2567  0.2492 -0.0431
  191MOL0     C25133  10.460   1.208   0.997 -0.3107  0.1355 -0.2917
  191MOL0     C25134  10.256   1.634   1.047 -0.0066  0.3982 -0.2735
  191MOL0     C25135  10.267   1.749   1.125 -0.2673 -0.3282 -0.6209
  191MOL0     C25136  10.151   1.820   1.156 -0.5605  0.1813  0.5311
  191MOL0     C25137  10.018   1.769   1.134  0.3959  0.9138  0.2584
  191MOL0     O25138   9.911   1.843   1.176 -0.0905 -0.6884 -0.0214
  191MOL0     C25139   9.784   1.799   1.143  0.3176 -0.3329  0.5907
  191MOL0     C25140   9.680   1.872   1.223 -0.4572 -0.0333  0.0893
  191MOL0     C25141   9.539   1.816   1.214  0.2437 -0.6036 -0.3096
  191MOL0     C25142   9.474   1.856   1.075  0.8453  0.2149  0.2701
  191MOL0     C25143   9.324   1.859   1.095  0.0364 -1.2151 -0.1995
  191MOL0     C25144   9.209   1.876   1.139  0.7627  0.2219 -0.3580
  191MOL0     C25145  10.010   1.658   1.058 -0.0012  1.1182  0.0043
  191MOL0     C25146  10.126   1.589   1.017  0.0963 -0.1252 -0.1817
  191MOL0     H25147  10.578   1.478   0.838 -2.2286 -0.5581 -0.8506
  191MOL0     H25148  10.789   1.322   0.824  0.6061  1.8563  0.5499
  191MOL0     H25149  10.789   0.928   0.736  0.8033  1.5390 -0.4213
  191MOL0     H25150  10.632   0.945   0.827 -0.0602  4.8373  3.7588
  191MOL0     H25151  10.812   0.883   1.040 -3.8047 -3.1058  3.1901
  191MOL0     H25152  10.862   0.781   0.907  1.5584  0.3523  1.9886
  191MOL0     H25153  10.629   0.680   0.873 -0.0854  1.5796 -0.5458
  191MOL0     H25154  10.562   0.777   1.000  0.1499 -0.8455  1.6124
  191MOL0     H25155  10.777   0.572   1.022  0.5535 -0.7735  0.7226
  191MOL0     H25156  10.732   0.671   1.163 -2.9054 -4.4139  3.8717
  191MOL0     H25157  10.498   0.584   1.169 -0.6759 -2.5157 -0.0354
  191MOL0     H25158  10.613   0.452   1.172  0.1744 -1.0660 -1.6808
  191MOL0     H25159  10.496   0.353   0.995  1.8373 -0.2980 -0.2371
  191MOL0     H25160  10.590   0.461   0.905  0.1755 -0.2334  0.3633
  191MOL0     H25161  10.380   0.630   0.965  0.0305 -0.0463 -3.0197
  191MOL0     H25162  10.349   0.495   0.861 -0.7912  2.1648  0.5950
  191MOL0     H25163  10.257   0.541   1.153  3.0309  0.5199  0.0727
  191MOL0     H25164  10.279   0.379   1.086 -0.5723 -0.9788 -1.8785
  191MOL0     H25165  10.150   0.306   0.853  1.2482  0.7316 -1.5455
  191MOL0     H25166   9.887   0.397   0.653 -0.2129  1.4312  0.6209
  191MOL0     H25167   9.779   0.424   0.784 -0.0751  1.1062  0.7310
  191MOL0     H25168   9.851   0.207   0.885  2.3001 -1.6815 -0.8294
  191MOL0     H25169   9.956   0.184   0.750  0.2443 -0.7829  1.9096
  191MOL0     H25170   9.729   0.222   0.598 -0.9903  0.0907  0.7968
  191MOL0     H25171   9.744   0.076   0.687 -0.5842 -0.7277  0.5567
  191MOL0     H25172   9.588   0.313   0.818 -1.6694 -0.7107  2.0198
  191MOL0     H25173   9.614   0.142   0.858 -1.0909 -0.6099 -0.7026
  191MOL0     H25174   9.308   0.184   0.512  0.2598  1.4986 -0.4113
  191MOL0     H25175   9.090   0.186   0.551  1.1118 -0.4735 -0.8466
  191MOL0     H25176   8.667   0.062   0.812  0.7869 -0.4415  1.1493
  191MOL0     H25177   8.436   0.099   0.907 -2.4930  0.0398  5.1763
  191MOL0     H25178   8.255   0.108   1.052 -3.0110  0.1142 -2.1244
  191MOL0     H25179   8.256   0.258   0.951 -0.5400  2.5083  0.6640
  191MOL0     H25180   8.163   0.368   1.148 -1.1980  1.4469 -0.9114
  191MOL0     H25181   8.147   0.199   1.236  1.3499  1.5222 -0.0057
  191MOL0     H25182   7.997   0.148   1.075  0.9417  0.0684 -0.7236
  191MOL0     H25183   8.013   0.314   0.998  3.3435 -0.3030 -0.5204
  191MOL0     H25184   7.874   0.239   1.283  1.5836 -0.9084  1.3640
  191MOL0     H25185   7.971   0.378   1.258  3.4888 -0.2850 -2.9472
  191MOL0     H25186   7.818   0.433   1.062 -0.3036 -2.2434 -1.7540
  191MOL0     H25187   7.727   0.424   1.209 -0.6617  2.9142 -1.3720
  191MOL0     H25188   7.757   0.235   0.960 -1.4992 -0.3269 -1.4376
  191MOL0     H25189   7.619   0.311   1.029  1.2748  2.4262  0.4572
  191MOL0     H25190   7.791   0.061   1.111  0.7869  2.1510 -0.2040
  191MOL0     H25191   7.674   0.128   1.224 -1.0176  1.4822 -1.2689
  191MOL0     H25192   7.589  -0.082   1.105 -3.0539 -2.2910 -3.4359
  191MOL0     H25193   7.593   0.014   0.962 -2.8348 -1.1981 -0.1018
  191MOL0     H25194   8.588   0.391   1.168 -3.9334  2.3574 -1.3638
  191MOL0     H25195   8.823   0.368   1.077  0.1479  0.0031  1.1257
  191MOL0     H25196   9.139   0.203   0.981  0.9217 -2.3769  1.5473
  191MOL0     H25197   9.379   0.177   0.938 -1.6034 -0.7537  1.2168
  191MOL0     H25198  10.547   1.014   1.015 -0.3097 -0.2743 -1.3230
  191MOL0     H25199  10.365   1.178   1.038 -1.0875 -2.1676 -3.4325
  191MOL0     H25200  10.355   1.804   1.156 -0.8140  1.2023 -1.6419
  191MOL0     H25201  10.160   1.913   1.212  0.2087 -1.3610  3.1345
  191MOL0     H25202   9.770   1.692   1.162 -2.2095 -1.2450 -4.4408
  191MOL0     H25203   9.744   1.833   1.047 -1.9066 -1.1420  1.1633
  191MOL0     H25204   9.724   1.870   1.323  0.0157  3.1628  0.0374
  191MOL0     H25205   9.677   1.979   1.202 -0.7837  0.0313  0.4640
  191MOL0     H25206   9.479   1.851   1.299 -0.9198  3.3975 -2.4867
  191MOL0     H25207   9.537   1.708   1.231 -3.5358 -0.6677 -0.3147
  191MOL0     H25208   9.515   1.953   1.045  0.0883  0.7434  0.8697
  191MOL0     H25209   9.491   1.781   0.998  2.2258 -0.9459  1.6473
  191MOL0     H25210   9.123   1.904   1.195  0.8842  1.5572 -0.8032
  191MOL0     H25211   9.912   1.623   1.025  0.0145 -1.3163  2.2114
  191MOL0     H25212  10.104   1.502   0.955  1.8368 -1.1724  0.6011
  192MOL0     O25213   4.920   0.531   6.373 -0.1466  0.0079  0.1109
  192MOL0     C25214   4.951   0.650   6.389  0.4094  0.1012 -0.5566
  192MOL0     O25215   4.878   0.737   6.457  0.4064  0.2917 -0.5907
  192MOL0     C25216   4.759   0.704   6.508 -0.1579 -0.1742 -0.0742
  192MOL0     C25217   4.652   0.786   6.466  0.2647 -0.5673 -0.0187
  192MOL0     C25218   4.525   0.765   6.522 -0.0423 -1.0824  0.6003
  192MOL0     C25219   4.505   0.671   6.628  1.0737 -0.2591  1.2029
  192MOL0     O25220   4.380   0.668   6.687 -0.7772  0.2787  1.0334
  192MOL0     C25221   4.345   0.562   6.775 -0.8851  0.4914 -0.4208
  192MOL0     C25222   4.214   0.591   6.843 -0.4199  0.1508  0.2986
  192MOL0     C25223   4.220   0.715   6.936 -0.0153  0.6857  0.4496
  192MOL0     C25224   4.084   0.770   6.981 -0.4934  0.0339  0.8014
  192MOL0     C25225   3.987   0.655   7.043  0.1274 -0.2263  0.2495
  192MOL0     C25226   3.878   0.620   6.933 -0.3984  0.6426 -0.6302
  192MOL0     C25227   3.775   0.508   6.963 -0.0074  0.5727  0.6967
  192MOL0     C25228   3.690   0.534   7.085  0.0405  0.2625 -0.7329
  192MOL0     N25229   3.579   0.438   7.102  0.4148  0.3431  0.1839
  192MOL0     C25230   3.468   0.439   7.021  0.3235  0.3114  0.3467
  192MOL0     C25231   3.396   0.328   7.063  0.0747 -0.3368 -0.3141
  192MOL0     C25232   3.278   0.272   6.984 -0.1409  0.3735  0.5528
  192MOL0     C25233   3.309   0.253   6.835  0.0048 -0.2028  0.1600
  192MOL0     C25234   3.268   0.375   6.753 -1.0784  0.1398 -0.9621
  192MOL0     C25235   3.325   0.386   6.618  0.4030  0.2827 -0.4667
  192MOL0     O25236   3.324   0.272   6.531  0.2650 -0.5254  0.2299
  192MOL0     C25237   3.215   0.261   6.449 -0.1519  0.7142 -1.1862
  192MOL0     C25238   3.229   0.302   6.315  0.4603 -0.3642 -0.2759
  192MOL0     C25239   3.129   0.279   6.221 -0.2554 -0.0489 -0.3853
  192MOL0     C25240   3.012   0.210   6.265  0.2803  0.1595  0.5926
  192MOL0     C25241   2.909   0.179   6.162  0.2917  0.7181  0.4155
  192MOL0     O25242   2.783   0.136   6.220 -0.7454  0.2445 -0.0511
  192MOL0     C25243   2.670   0.105   6.148  0.3546  0.5317  1.1609
  192MOL0     C25244   2.588  -0.006   6.190 -0.2495  0.6832  0.6479
  192MOL0     C25245   2.475  -0.046   6.127  0.1096 -0.0339  0.8808
  192MOL0     C25246   2.420   0.030   6.022  0.8772  0.1888  0.1630
  192MOL0     O25247   2.300  -0.017   5.983  0.1968  0.2916 -0.4331
  192MOL0     C25248   2.209   0.087   5.927  0.2043  0.3185  0.7745
  192MOL0     C25249   2.102   0.016   5.835 -1.1761  0.4355  0.4464
  192MOL0     C25250   1.986   0.100   5.797  0.6691  0.0650 -0.5300
  192MOL0     C25251   1.898   0.027   5.699  0.0752 -1.1440 -0.6958
  192MOL0     C25252   1.795   0.126   5.641  1.0544 -0.4046  0.3056
  192MOL0     C25253   1.733   0.065   5.515 -0.4111 -0.0777  0.4233
  192MOL0     C25254   1.644   0.154   5.432 -0.6464 -0.9640 -0.0300
  192MOL0     C25255   1.553   0.080   5.343 -1.1098 -0.1597  1.2892
  192MOL0    Cl25256   1.470   0.194   5.230  0.0812 -0.4061  0.1342
  192MOL0     C25257   2.501   0.133   5.973  0.1652  0.6386  0.2069
  192MOL0     C25258   2.624   0.168   6.031 -0.6678  0.1298  0.0121
  192MOL0     O25259   2.922   0.204   6.039 -0.2955 -0.3588 -0.1485
  192MOL0     C25260   2.988   0.194   6.403  0.6930 -0.1551  0.0597
  192MOL0     C25261   3.089   0.216   6.494 -0.6144 -0.2051  0.3287
  192MOL0     N25262   3.451   0.278   7.177  0.1933 -0.9196  0.1965
  192MOL0     N25263   3.566   0.342   7.197 -0.9914 -0.5775  0.4406
  192MOL0     C25264   4.608   0.595   6.669 -0.3715  0.5743  0.2156
  192MOL0     C25265   4.736   0.606   6.609  0.1223 -1.5494  1.4030
  192MOL0     C25266   5.076   0.691   6.318  0.3672  0.2223  0.4169
  192MOL0     C25267   5.186   0.601   6.282 -0.1095  0.3279  0.4456
  192MOL0     C25268   5.303   0.651   6.218  0.1117  0.4343  0.0604
  192MOL0     C25269   5.327   0.786   6.194  0.5136 -0.9595 -0.1133
  192MOL0     O25270   5.452   0.848   6.156 -0.9947 -0.4654 -0.8432
  192MOL0     C25271   5.551   0.771   6.091  0.1456 -1.0215  0.5626
  192MOL0     C25272   5.625   0.852   5.988  0.0571 -0.2933 -0.4088
  192MOL0     C25273   5.719   0.776   5.898  1.1817  0.1483 -0.2351
  192MOL0     C25274   5.828   0.701   5.967 -0.0228 -0.1207 -0.1520
  192MOL0     C25275   5.963   0.707   5.919 -0.0348 -0.4293  0.5910
  192MOL0     C25276   6.078   0.724   5.882 -0.8690  0.5700 -0.3356
  192MOL0     C25277   5.225   0.875   6.236  0.6409  0.4142  0.7978
  192MOL0     C25278   5.092   0.833   6.292  0.4336  0.9374  0.2165
  192MOL0     H25279   4.675   0.856   6.387 -0.3407 -0.6592 -0.2830
  192MOL0     H25280   4.446   0.835   6.496 -4.1160 -3.3321  5.3397
  192MOL0     H25281   4.421   0.539   6.850 -1.3980 -0.5700 -0.2088
  192MOL0     H25282   4.343   0.466   6.723  1.7447 -0.0381  0.3179
  192MOL0     H25283   4.174   0.504   6.896 -2.5038  2.3737  2.6786
  192MOL0     H25284   4.137   0.621   6.771  0.0815 -0.4866 -0.5091
  192MOL0     H25285   4.262   0.794   6.874  1.7027 -2.7768 -3.2619
  192MOL0     H25286   4.287   0.698   7.021 -0.5037  1.5643  1.0204
  192MOL0     H25287   4.104   0.840   7.063  0.4890 -2.2712  2.6504
  192MOL0     H25288   4.032   0.826   6.902 -0.3806  1.0303  1.4199
  192MOL0     H25289   3.942   0.688   7.137 -0.5667  1.1336 -0.5259
  192MOL0     H25290   4.043   0.563   7.058  2.6746  1.2598  0.3902
  192MOL0     H25291   3.925   0.598   6.837 -1.3583 -1.7034 -0.6481
  192MOL0     H25292   3.814   0.705   6.908 -0.2451 -0.0270 -3.7401
  192MOL0     H25293   3.716   0.490   6.873 -0.3204  0.6737  0.8823
  192MOL0     H25294   3.833   0.416   6.971  1.6828  1.5315  0.2015
  192MOL0     H25295   3.654   0.636   7.070  1.2507  0.8001 -0.1628
  192MOL0     H25296   3.759   0.539   7.169  1.7351  0.5252 -2.0662
  192MOL0     H25297   3.448   0.503   6.935  0.2588  1.2330  1.0396
  192MOL0     H25298   3.184   0.327   6.990 -0.7145 -0.7124  2.0864
  192MOL0     H25299   3.259   0.174   7.028  1.9866  0.6851  2.3563
  192MOL0     H25300   3.255   0.162   6.807  1.4451 -0.3058 -2.7612
  192MOL0     H25301   3.413   0.230   6.807 -0.8617  0.4007 -4.4587
  192MOL0     H25302   3.159   0.376   6.743 -1.1038  2.7849 -1.2023
  192MOL0     H25303   3.291   0.472   6.797  1.4805 -0.5368 -0.6144
  192MOL0     H25304   3.432   0.399   6.635  0.6737 -1.0908 -0.9730
  192MOL0     H25305   3.292   0.474   6.563  1.2656  0.4086 -0.7921
  192MOL0     H25306   3.324   0.335   6.273  0.7968 -0.3398  0.4832
  192MOL0     H25307   3.149   0.301   6.117 -0.1420  1.8888  0.0063
  192MOL0     H25308   2.621  -0.066   6.274  0.4537  0.1469  0.0086
  192MOL0     H25309   2.414  -0.127   6.166  1.3168 -0.7857  1.2472
  192MOL0     H25310   2.260   0.167   5.873  1.0649  0.3504  1.6196
  192MOL0     H25311   2.164   0.148   6.007 -0.7872 -0.9974  1.2492
  192MOL0     H25312   2.073  -0.078   5.884  1.7985 -1.7079 -1.5282
  192MOL0     H25313   2.158  -0.012   5.746 -0.9632 -1.8005  1.2184
  192MOL0     H25314   2.028   0.188   5.747  3.7861 -3.5588 -5.1931
  192MOL0     H25315   1.925   0.127   5.884  0.4875 -3.5503  0.6025
  192MOL0     H25316   1.968   0.009   5.618  2.3065  1.6439  0.4335
  192MOL0     H25317   1.853  -0.057   5.754  0.3065 -1.8353 -1.5497
  192MOL0     H25318   1.844   0.221   5.619 -0.9834  0.9090  1.1593
  192MOL0     H25319   1.724   0.147   5.722 -1.0485  2.2324 -1.9976
  192MOL0     H25320   1.681  -0.030   5.532 -1.1854 -0.8542 -4.5741
  192MOL0     H25321   1.826   0.052   5.458  1.5798  1.4209  3.1072
  192MOL0     H25322   1.579   0.220   5.490  0.6369  0.3962 -0.0770
  192MOL0     H25323   1.709   0.214   5.367  0.6347 -2.2651  0.0202
  192MOL0     H25324   1.482   0.015   5.394  0.5623 -2.9631  0.2769
  192MOL0     H25325   1.604   0.007   5.279 -1.2493  0.4869  0.4261
  192MOL0     H25326   2.453   0.190   5.894 -1.0046 -2.1703 -1.2734
  192MOL0     H25327   2.680   0.247   5.984  1.1331 -1.1757 -0.1625
  192MOL0     H25328   2.889   0.161   6.432  0.4125 -0.2888 -1.0195
  192MOL0     H25329   3.082   0.194   6.600  0.6533  1.1544  0.7432
  192MOL0     H25330   4.615   0.534   6.758 -0.0962 -0.9665 -0.8258
  192MOL0     H25331   4.814   0.533   6.628 -0.9376 -4.0411 -2.4902
  192MOL0     H25332   5.185   0.493   6.298 -0.0754  0.5826  2.4834
  192MOL0     H25333   5.374   0.571   6.201 -0.2082  0.1805 -0.0990
  192MOL0     H25334   5.497   0.692   6.038 -2.3901  1.8404 -1.4566
  192MOL0     H25335   5.623   0.734   6.165  0.8985  1.9009  1.4341
  192MOL0     H25336   5.546   0.907   5.936  1.8215  0.8877 -1.9590
  192MOL0     H25337   5.686   0.932   6.031  0.8548 -1.8019  1.3617
  192MOL0     H25338   5.749   0.853   5.826  0.9087 -1.1122 -1.7715
  192MOL0     H25339   5.663   0.695   5.849 -1.1869 -0.3901  3.0098
  192MOL0     H25340   5.842   0.740   6.068 -0.5263 -1.3754  0.4110
  192MOL0     H25341   5.799   0.598   5.988 -0.6540  0.2935  1.0986
  192MOL0     H25342   6.179   0.731   5.847  0.0886  0.7836  2.2512
  192MOL0     H25343   5.249   0.980   6.222  2.2109  0.0143  0.2652
  192MOL0     H25344   5.021   0.896   6.344 -2.9568  0.4037 -3.3165
  193MOL0     O25345   4.534   1.227   7.320  0.0541 -0.1667  0.6042
  193MOL0     C25346   4.453   1.318   7.347  1.0441  0.1350 -0.3659
  193MOL0     O25347   4.488   1.440   7.397 -0.1764 -0.0877 -0.0960
  193MOL0     C25348   4.619   1.467   7.418  0.3793  0.3510 -0.4952
  193MOL0     C25349   4.708   1.376   7.480  0.2461  0.3229  0.3363
  193MOL0     C25350   4.846   1.396   7.506 -0.9212 -0.0562 -0.1825
  193MOL0     C25351   4.899   1.514   7.461 -0.0615  0.0586  0.3122
  193MOL0     O25352   5.021   1.561   7.484 -1.1714  0.0495 -0.1498
  193MOL0     C25353   5.078   1.518   7.615  0.1181  1.0372  0.6392
  193MOL0     C25354   5.199   1.613   7.651  0.3302  0.0789  0.2058
  193MOL0     C25355   5.136   1.749   7.673 -0.8491  0.1640 -0.3231
  193MOL0     C25356   5.222   1.852   7.742 -0.8226 -0.0475 -0.8372
  193MOL0     C25357   5.282   1.968   7.650  0.3846 -0.6212  0.2718
  193MOL0     C25358   5.362   2.068   7.738  0.4282  0.4536 -0.4211
  193MOL0     C25359   5.376   2.208   7.688  0.8404 -0.4965 -0.3649
  193MOL0     C25360   5.500   2.225   7.603  0.1067 -0.4992 -0.5651
  193MOL0     N25361   5.468   2.231   7.463 -0.3449 -0.1205 -1.1899
  193MOL0     C25362   5.418   2.340   7.406 -0.5264 -0.4516  0.6354
  193MOL0     C25363   5.406   2.309   7.271  0.0919 -0.2098  0.1280
  193MOL0     C25364   5.340   2.391   7.154 -0.0036 -0.0488 -0.3815
  193MOL0     C25365   5.215   2.331   7.101  0.1428 -0.1296  0.1277
  193MOL0     C25366   5.171   2.391   6.957  0.5260 -0.1057  0.0397
  193MOL0     C25367   5.037   2.334   6.918 -0.1002  0.0791  1.0975
  193MOL0     O25368   4.934   2.365   7.012  0.0129 -0.3600 -0.3241
  193MOL0     C25369   4.803   2.343   6.983  0.4561 -0.5781 -0.3465
  193MOL0     C25370   4.719   2.321   7.097  0.7234 -0.8041  1.1428
  193MOL0     C25371   4.581   2.292   7.083  0.0688 -1.0858  0.0233
  193MOL0     C25372   4.525   2.288   6.958  0.4239  0.7440 -1.4500
  193MOL0     C25373   4.380   2.265   6.952  0.6816 -0.2108 -0.0257
  193MOL0     O25374   4.331   2.253   6.818 -0.1182  0.3656  0.3507
  193MOL0     C25375   4.198   2.216   6.814  0.0917 -0.3006  0.6396
  193MOL0     C25376   4.169   2.121   6.719  0.0113 -0.7156 -0.8460
  193MOL0     C25377   4.044   2.093   6.681  0.5613  0.4696  0.3372
  193MOL0     C25378   3.936   2.160   6.739 -0.4274  0.6785 -0.3216
  193MOL0     O25379   3.810   2.126   6.716  0.4700  0.0548  0.0816
  193MOL0     C25380   3.763   1.995   6.668  0.4663  0.2606 -0.0974
  193MOL0     C25381   3.607   1.985   6.646 -0.0997 -0.5008  0.1842
  193MOL0     C25382   3.527   2.029   6.769  0.2726 -0.0725 -0.2111
  193MOL0     C25383   3.466   1.913   6.837 -0.2082  0.0497  0.6400
  193MOL0     C25384   3.376   1.933   6.958  0.3578 -0.4289 -0.5183
  193MOL0     C25385   3.251   2.015   6.929 -0.5512  0.6393 -0.3452
  193MOL0     C25386   3.178   1.971   6.811  0.5903 -0.1813 -0.1221
  193MOL0     C25387   3.131   1.820   6.814 -0.3945 -0.2086 -0.3064
  193MOL0    Cl25388   2.959   1.800   6.739 -0.2136  0.2073  0.2735
  193MOL0     C25389   3.954   2.254   6.840 -0.0492  0.6851  0.2823
  193MOL0     C25390   4.086   2.279   6.873 -0.6277  0.2105  0.0728
  193MOL0     O25391   4.314   2.257   7.055  0.3419 -0.1130 -0.0660
  193MOL0     C25392   4.604   2.316   6.846  0.3191 -0.0098 -0.7302
  193MOL0     C25393   4.743   2.345   6.860 -0.2083 -0.7347  0.7719
  193MOL0     N25394   5.449   2.183   7.256 -0.7120 -0.0875  1.3371
  193MOL0     N25395   5.487   2.132   7.370 -1.0741 -0.4502 -0.0825
  193MOL0     C25396   4.819   1.608   7.396  0.0743 -1.0246 -0.1500
  193MOL0     C25397   4.685   1.591   7.398  0.5206  0.7609 -0.0631
  193MOL0     C25398   4.310   1.275   7.340  0.4079 -0.9399  0.4929
  193MOL0     C25399   4.200   1.367   7.327  0.6642 -0.2644  0.5740
  193MOL0     C25400   4.070   1.322   7.293  0.1134 -0.0184  0.1342
  193MOL0     C25401   4.047   1.180   7.291 -0.5162 -0.2186  0.0042
  193MOL0     O25402   3.919   1.144   7.271 -0.2555 -0.3864  0.1100
  193MOL0     C25403   3.907   1.064   7.151 -0.8186  0.0570 -1.0319
  193MOL0     C25404   3.767   1.077   7.098 -0.5158 -0.7932  0.3027
  193MOL0     C25405   3.676   1.032   7.205 -0.4834  0.9134  0.5109
  193MOL0     C25406   3.533   1.010   7.147 -0.8982  0.0597 -0.3789
  193MOL0     C25407   3.528   0.900   7.051  0.0628 -0.0771  0.2646
  193MOL0     C25408   3.515   0.818   6.964 -1.4683  0.9521 -0.0330
  193MOL0     C25409   4.151   1.091   7.299 -0.1323  0.2650 -0.2911
  193MOL0     C25410   4.280   1.140   7.311 -0.6122 -0.4344 -0.3814
  193MOL0     H25411   4.654   1.287   7.513 -2.3049  1.2579 -1.0291
  193MOL0     H25412   4.903   1.326   7.567 -0.0909 -1.6231 -2.6291
  193MOL0     H25413   5.124   1.419   7.606 -1.0845  0.5857 -0.8986
  193MOL0     H25414   5.006   1.508   7.696 -0.5088 -0.2917 -0.0622
  193MOL0     H25415   5.277   1.612   7.574  0.0377  1.1862 -0.1213
  193MOL0     H25416   5.241   1.570   7.742 -0.0938 -1.4346 -0.2768
  193MOL0     H25417   5.044   1.733   7.729  0.4118 -2.1879  1.2139
  193MOL0     H25418   5.123   1.790   7.572  2.4183 -0.9379 -1.2975
  193MOL0     H25419   5.160   1.903   7.817 -1.9863 -2.7969  0.1720
  193MOL0     H25420   5.304   1.805   7.796 -0.6411  0.7111 -0.4331
  193MOL0     H25421   5.202   2.017   7.593  1.1647 -2.0014 -2.1323
  193MOL0     H25422   5.351   1.932   7.573 -0.8343 -0.5949 -0.8750
  193MOL0     H25423   5.462   2.034   7.766  0.4944  1.2647  0.3678
  193MOL0     H25424   5.311   2.077   7.834 -0.9107  0.1437 -1.0695
  193MOL0     H25425   5.286   2.241   7.635  0.0637 -0.7073  0.7885
  193MOL0     H25426   5.387   2.285   7.765  0.1232 -1.6019  0.8697
  193MOL0     H25427   5.575   2.149   7.626 -0.5925 -1.1262 -0.2895
  193MOL0     H25428   5.530   2.324   7.638  0.3432 -1.1023  1.0380
  193MOL0     H25429   5.383   2.429   7.457 -1.7840 -0.6653  0.1646
  193MOL0     H25430   5.427   2.397   7.087  0.2611  1.3722  0.0643
  193MOL0     H25431   5.322   2.494   7.185  0.8879  0.1512 -0.4960
  193MOL0     H25432   5.139   2.350   7.178  1.6518 -1.2882  2.0001
  193MOL0     H25433   5.235   2.224   7.110  1.8807  0.3526  3.5943
  193MOL0     H25434   5.162   2.500   6.959  0.8350 -0.0548 -0.7619
  193MOL0     H25435   5.232   2.352   6.875  0.7762 -4.1113  1.9103
  193MOL0     H25436   5.055   2.228   6.899  4.1771  0.8245  0.1130
  193MOL0     H25437   5.007   2.379   6.823  1.4683 -1.6000 -0.2632
  193MOL0     H25438   4.764   2.324   7.196 -0.3056 -2.4825  1.7058
  193MOL0     H25439   4.534   2.277   7.180  1.3010 -1.9272  0.5062
  193MOL0     H25440   4.256   2.075   6.672  0.5550  0.1803 -0.7418
  193MOL0     H25441   4.020   2.000   6.629  1.0816 -0.3950  1.5952
  193MOL0     H25442   3.787   1.930   6.753  0.0440  1.5305  1.0334
  193MOL0     H25443   3.797   1.967   6.568 -2.7677 -0.3280 -1.1726
  193MOL0     H25444   3.593   1.881   6.618  3.8276 -1.6236  1.7285
  193MOL0     H25445   3.576   2.053   6.566 -2.5145  0.1337  1.5457
  193MOL0     H25446   3.458   2.107   6.736  1.7248  0.0121 -3.4476
  193MOL0     H25447   3.595   2.076   6.842  0.8018  1.1362 -1.4224
  193MOL0     H25448   3.427   1.841   6.764  0.9555  0.1031 -0.0635
  193MOL0     H25449   3.552   1.852   6.867 -1.1025 -2.0144 -0.7447
  193MOL0     H25450   3.424   1.997   7.033  2.4138 -1.1891 -1.1007
  193MOL0     H25451   3.353   1.844   7.018 -2.0397  2.4450  3.2771
  193MOL0     H25452   3.296   2.112   6.902  2.3531 -0.6756 -0.6228
  193MOL0     H25453   3.186   2.031   7.016 -2.2650 -0.5624 -1.3528
  193MOL0     H25454   3.090   2.036   6.811  1.6230  1.3424  2.0174
  193MOL0     H25455   3.224   1.985   6.713  0.5056 -1.8254 -0.4248
  193MOL0     H25456   3.123   1.797   6.921 -0.7462 -0.4144 -0.3746
  193MOL0     H25457   3.211   1.761   6.770 -0.4558 -0.2030 -0.4259
  193MOL0     H25458   3.865   2.302   6.880 -0.5250 -0.1629  0.2480
  193MOL0     H25459   4.110   2.350   6.951 -1.3054  0.4512  0.0701
  193MOL0     H25460   4.552   2.312   6.751 -0.8362 -1.6088 -0.0814
  193MOL0     H25461   4.805   2.371   6.775 -0.4206  3.6140  1.7425
  193MOL0     H25462   4.855   1.709   7.377 -0.8370 -0.7440 -0.4031
  193MOL0     H25463   4.619   1.675   7.385 -0.6773 -0.2879 -1.0868
  193MOL0     H25464   4.234   1.470   7.324 -3.3016  1.2105 -1.0540
  193MOL0     H25465   4.001   1.406   7.287  1.0098  0.8267  1.2261
  193MOL0     H25466   3.923   0.957   7.170  0.2137 -0.1966 -3.0209
  193MOL0     H25467   3.978   1.101   7.076 -1.0227  0.8689 -0.8233
  193MOL0     H25468   3.755   1.184   7.082  0.6329 -0.8289 -0.9393
  193MOL0     H25469   3.761   1.020   7.005 -0.5212 -0.0515 -0.1514
  193MOL0     H25470   3.675   1.110   7.282 -0.6303  0.0474  1.4118
  193MOL0     H25471   3.710   0.940   7.253  2.6423  0.4695 -2.2507
  193MOL0     H25472   3.464   0.990   7.230 -0.9823  0.3322 -0.3817
  193MOL0     H25473   3.508   1.106   7.100  0.8484  1.1689  0.8592
  193MOL0     H25474   3.506   0.744   6.887 -1.6453  1.7532 -0.8015
  193MOL0     H25475   4.139   0.983   7.292 -0.1983 -0.0414  2.9693
  193MOL0     H25476   4.361   1.067   7.306  2.4486  2.7642 -1.3684
  194MOL0     O25477   5.190  10.067   2.248  0.0710 -0.5971  0.1833
  194MOL0     C25478   5.296  10.016   2.276  0.1429  1.1216  0.5049
  194MOL0     O25479   5.423  10.068   2.272  0.1445 -0.2360 -0.1358
  194MOL0     C25480   5.421  10.186   2.209  0.6394 -0.8251 -0.9921
  194MOL0     C25481   5.450  10.293   2.294 -0.0087 -0.0580  0.2367
  194MOL0     C25482   5.488  10.418   2.242  0.9605  0.8278 -0.2742
  194MOL0     C25483   5.473  10.431   2.099 -0.4439  0.1659  0.3131
  194MOL0     O25484   5.514  10.553   2.049 -0.2510  0.4037  0.9661
  194MOL0     C25485   5.430  10.614   1.945 -0.5563 -0.1497  0.6909
  194MOL0     C25486   5.518  10.664   1.817  0.8199 -0.3890 -0.2641
  194MOL0     C25487   5.427  10.688   1.700  0.6282 -0.4706 -0.5078
  194MOL0     C25488   5.344  10.816   1.707  0.2944  0.4987 -1.0275
  194MOL0     C25489   5.254  10.832   1.589 -0.6693  0.9149 -0.4660
  194MOL0     C25490   5.134  10.923   1.614  0.5547 -0.4626  0.1660
  194MOL0     C25491   5.042  10.942   1.490 -0.5385 -0.7344  0.3360
  194MOL0     C25492   4.909  11.006   1.542  0.5408  0.1474  0.5245
  194MOL0     N25493   4.820  11.047   1.435 -0.8989  0.1187 -0.3869
  194MOL0     C25494   4.720  10.973   1.384 -0.7232  0.5032  0.3507
  194MOL0     C25495   4.664  11.056   1.293  0.1042  0.3840  1.0350
  194MOL0     C25496   4.540  11.022   1.203 -0.4676  0.1669 -0.7334
  194MOL0     C25497   4.412  11.053   1.275  1.4066 -0.2368  1.7533
  194MOL0     C25498   4.291  11.020   1.182 -0.6119 -0.6194 -0.1018
  194MOL0     C25499   4.262  11.112   1.066 -0.3490  0.5991 -0.6405
  194MOL0     O25500   4.216  11.253   1.092 -0.0524 -0.3328  0.2506
  194MOL0     C25501   4.080  11.275   1.074 -0.5773  0.0417 -0.6095
  194MOL0     C25502   3.973  11.185   1.073 -0.9931  0.6132 -0.1577
  194MOL0     C25503   3.849  11.226   1.018  0.5010  0.2547 -0.3039
  194MOL0     C25504   3.825  11.357   0.971 -0.2613  0.0495 -0.1778
  194MOL0     C25505   3.690  11.403   0.916 -0.1554 -0.3036  0.4413
  194MOL0     O25506   3.581  11.334   0.951  0.0570  0.2581 -0.4843
  194MOL0     C25507   3.459  11.385   0.918 -0.1252 -0.6104 -0.6539
  194MOL0     C25508   3.371  11.403   1.024  0.1263 -0.4803  0.5906
  194MOL0     C25509   3.241  11.455   1.004  0.5547  0.2334  0.1632
  194MOL0     C25510   3.201  11.496   0.872  0.3695 -0.0899  0.3656
  194MOL0     O25511   3.079  11.557   0.855  0.1439  0.8583  0.1341
  194MOL0     C25512   3.061  11.638   0.741  0.0384 -0.0332  0.0285
  194MOL0     C25513   2.927  11.713   0.759  0.2978  0.3887  0.3484
  194MOL0     C25514   2.878  11.774   0.623 -0.3235  0.7164 -0.8707
  194MOL0     C25515   2.765  11.874   0.638  0.0681  0.6417 -0.1969
  194MOL0     C25516   2.728  11.929   0.507  0.1877 -0.1322  0.1850
  194MOL0     C25517   2.597  12.015   0.516  1.3687  0.3569  0.0036
  194MOL0     C25518   2.556  12.048   0.380 -0.3983  0.2104  0.1512
  194MOL0     C25519   2.440  12.159   0.390  0.3174  0.0975 -0.3323
  194MOL0    Cl25520   2.455  12.293   0.512  0.4553 -0.3702 -0.0978
  194MOL0     C25521   3.296  11.481   0.766 -0.1266 -0.8549 -0.4737
  194MOL0     C25522   3.423  11.425   0.792 -0.4007 -0.3657 -0.3743
  194MOL0     O25523   3.695  11.517   0.870 -0.1097  0.5567 -0.5013
  194MOL0     C25524   3.931  11.445   0.981 -0.4522  0.5437  0.2241
  194MOL0     C25525   4.049  11.406   1.037 -0.0388  0.3250  0.3812
  194MOL0     N25526   4.729  11.179   1.300  0.0098  0.1529 -0.0259
  194MOL0     N25527   4.834  11.174   1.378 -1.2149 -0.4404  0.3921
  194MOL0     C25528   5.418  10.325   2.016  0.2102 -0.1565  0.4204
  194MOL0     C25529   5.407  10.200   2.078 -0.1390 -1.0036 -0.2462
  194MOL0     C25530   5.283   9.869   2.309 -0.5262 -0.4418 -0.7784
  194MOL0     C25531   5.171   9.805   2.281  0.7819  0.9531  0.6287
  194MOL0     C25532   5.151   9.670   2.312 -0.9238  0.0217  0.7164
  194MOL0     C25533   5.254   9.599   2.370  0.1156 -1.1264  0.2986
  194MOL0     O25534   5.243   9.465   2.402  0.4545 -0.2759  0.0770
  194MOL0     C25535   5.330   9.371   2.343 -0.0134  0.6111  0.1053
  194MOL0     C25536   5.363   9.257   2.440  0.2862 -0.0350 -0.4076
  194MOL0     C25537   5.483   9.290   2.520  0.6044 -0.5149  0.0654
  194MOL0     C25538   5.526   9.176   2.612 -0.1221 -0.1692  0.7389
  194MOL0     C25539   5.576   9.051   2.540  0.8577  0.5539  0.3756
  194MOL0     C25540   5.614   8.944   2.497 -0.4550 -0.0932  0.3570
  194MOL0     C25541   5.375   9.669   2.399 -0.0292 -0.2446  0.1773
  194MOL0     C25542   5.391   9.802   2.360 -0.8034  0.7156 -0.5577
  194MOL0     H25543   5.458  10.252   2.394 -1.8814 -0.8818  0.0944
  194MOL0     H25544   5.525  10.500   2.301 -0.5794  0.5751  1.1135
  194MOL0     H25545   5.365  10.693   1.985 -1.4074 -0.2971 -0.3856
  194MOL0     H25546   5.350  10.549   1.910 -0.7670 -1.1434  2.8490
  194MOL0     H25547   5.587  10.580   1.803  1.5268  0.2162 -0.4349
  194MOL0     H25548   5.575  10.756   1.829  1.3103 -0.5187 -1.4556
  194MOL0     H25549   5.359  10.602   1.688 -1.4026  1.1976 -1.6151
  194MOL0     H25550   5.491  10.701   1.612  0.9823  1.5989  0.0072
  194MOL0     H25551   5.284  10.797   1.797  0.0082 -1.4593 -1.5823
  194MOL0     H25552   5.400  10.908   1.725 -0.7936  0.9732  0.0507
  194MOL0     H25553   5.219  10.734   1.554 -1.5169  1.0522 -0.0244
  194MOL0     H25554   5.313  10.860   1.502 -2.9000 -0.9375 -2.7327
  194MOL0     H25555   5.174  11.023   1.628  0.4730  0.2143 -3.4578
  194MOL0     H25556   5.082  10.887   1.704 -1.2331  1.8816  0.1550
  194MOL0     H25557   5.097  11.017   1.433 -0.3791 -0.1553  1.2322
  194MOL0     H25558   5.031  10.847   1.436  3.2707 -1.5815  0.8004
  194MOL0     H25559   4.923  11.093   1.607 -0.0684 -0.2451  1.2092
  194MOL0     H25560   4.852  10.936   1.604  2.1589 -1.7418 -0.0278
  194MOL0     H25561   4.703  10.867   1.401 -0.1600 -0.0894 -2.3257
  194MOL0     H25562   4.535  10.917   1.173  0.3942  0.0057 -0.3551
  194MOL0     H25563   4.550  11.075   1.107  2.5979 -2.3970 -2.0099
  194MOL0     H25564   4.398  11.158   1.301  1.4170  0.3730 -0.5392
  194MOL0     H25565   4.400  10.992   1.365  1.1167 -0.7113  1.3994
  194MOL0     H25566   4.288  10.917   1.146 -3.0548 -0.4440 -0.5776
  194MOL0     H25567   4.202  11.025   1.246 -1.0235 -0.9669 -0.6418
  194MOL0     H25568   4.190  11.065   0.999 -0.6932  1.4417 -0.8791
  194MOL0     H25569   4.350  11.110   1.001 -0.7353  0.6165 -1.1711
  194MOL0     H25570   3.983  11.081   1.100  1.6523  1.1433  1.2684
  194MOL0     H25571   3.755  11.170   1.017  0.5014  0.0694 -3.8739
  194MOL0     H25572   3.393  11.379   1.127 -1.1458  0.0568  1.0086
  194MOL0     H25573   3.172  11.469   1.086 -2.1045 -0.8547 -1.7539
  194MOL0     H25574   3.041  11.574   0.654 -1.9432 -1.2179  1.2776
  194MOL0     H25575   3.143  11.701   0.706 -1.0706  0.7132 -1.3784
  194MOL0     H25576   2.941  11.795   0.831 -1.4982 -0.2271  1.4895
  194MOL0     H25577   2.848  11.650   0.803  1.2541 -1.6706 -0.7769
  194MOL0     H25578   2.837  11.691   0.565 -0.3137  0.0525  0.0547
  194MOL0     H25579   2.959  11.824   0.569 -0.2464  1.5737  0.0107
  194MOL0     H25580   2.679  11.831   0.690  1.9113 -1.1269  1.6042
  194MOL0     H25581   2.796  11.952   0.709  0.4437  0.2888  0.0366
  194MOL0     H25582   2.723  11.852   0.430 -0.8872  1.2591 -1.1886
  194MOL0     H25583   2.805  11.996   0.467 -1.8357  0.3894 -3.2288
  194MOL0     H25584   2.617  12.108   0.570 -2.7255  1.6214 -0.3255
  194MOL0     H25585   2.521  11.954   0.565  2.3204 -1.0560 -0.2005
  194MOL0     H25586   2.642  12.098   0.335 -1.0306 -0.5534 -2.0107
  194MOL0     H25587   2.516  11.957   0.336 -3.0189  1.7865 -0.9379
  194MOL0     H25588   2.353  12.102   0.424 -0.8599  1.5187 -0.8744
  194MOL0     H25589   2.415  12.205   0.294 -0.3332  1.4839  0.4660
  194MOL0     H25590   3.263  11.498   0.664 -3.7712 -0.5147  0.6279
  194MOL0     H25591   3.489  11.418   0.706 -2.4145 -1.1785 -1.9373
  194MOL0     H25592   3.923  11.542   0.934  0.8137  0.4587 -0.1903
  194MOL0     H25593   4.124  11.484   1.043 -1.0840  1.4526 -0.6443
  194MOL0     H25594   5.418  10.344   1.909  4.8701 -0.0849  0.2014
  194MOL0     H25595   5.371  10.114   2.023  1.3469 -0.1940 -2.6384
  194MOL0     H25596   5.082   9.852   2.241  0.5148  0.0721  0.1606
  194MOL0     H25597   5.061   9.617   2.287 -0.0742 -1.8317  1.4236
  194MOL0     H25598   5.421   9.424   2.313 -0.7130  1.1019 -1.2671
  194MOL0     H25599   5.289   9.323   2.254  0.1513  0.5494  0.0619
  194MOL0     H25600   5.275   9.246   2.505 -0.0677  1.0200 -0.6862
  194MOL0     H25601   5.382   9.160   2.394 -1.6410  0.0723 -1.5440
  194MOL0     H25602   5.470   9.382   2.577 -5.7329 -0.6994 -0.3870
  194MOL0     H25603   5.571   9.305   2.457  0.2039 -1.8883 -0.8708
  194MOL0     H25604   5.610   9.208   2.674 -0.7903  0.8598  1.1247
  194MOL0     H25605   5.447   9.153   2.684 -2.4092 -1.8602 -2.0913
  194MOL0     H25606   5.636   8.843   2.471 -1.3830 -0.1347 -0.2929
  194MOL0     H25607   5.455   9.606   2.437  1.7011  0.9745 -1.2937
  194MOL0     H25608   5.482   9.857   2.382  0.1102 -1.5914  2.0350
  195MOL0     O25609   1.680   7.078   8.971  0.0071  0.2063 -0.4255
  195MOL0     C25610   1.671   7.110   8.851 -0.2076 -0.6474 -0.1908
  195MOL0     O25611   1.549   7.116   8.780 -0.7981 -0.8691  0.5730
  195MOL0     C25612   1.428   7.125   8.845 -0.3406  0.1650 -0.5529
  195MOL0     C25613   1.370   7.031   8.933  0.4592 -0.3978  0.8213
  195MOL0     C25614   1.243   7.046   8.986  0.6149 -0.6081  0.5823
  195MOL0     C25615   1.175   7.166   8.956  0.3817  0.2263 -0.6461
  195MOL0     O25616   1.042   7.186   8.991  0.2683 -0.4266  1.0583
  195MOL0     C25617   1.023   7.168   9.130 -0.2218 -0.0869  1.2270
  195MOL0     C25618   0.883   7.200   9.161  0.1559  0.3797  0.0066
  195MOL0     C25619   0.796   7.089   9.105  0.8211  0.0979 -0.3384
  195MOL0     C25620   0.647   7.094   9.150  0.4620 -0.1888 -0.8003
  195MOL0     C25621   0.566   6.968   9.145 -0.9454  0.7160  0.1750
  195MOL0     C25622   0.426   6.961   9.219  0.6048  0.1234  0.2234
  195MOL0     C25623   0.320   7.055   9.145 -0.2710  0.2371 -0.7950
  195MOL0     C25624   0.259   6.991   9.022  0.5148  0.2552 -0.1279
  195MOL0     N25625   0.135   7.057   8.975  0.5354  0.1741  0.0686
  195MOL0     C25626   0.004   7.006   8.965  0.8744 -0.3408 -0.1814
  195MOL0     C25627  -0.065   7.109   8.907 -0.1489  0.7481 -0.0756
  195MOL0     C25628  -0.211   7.103   8.864 -0.2125 -0.4780  0.2329
  195MOL0     C25629  -0.289   7.072   8.990 -0.4055  0.2266 -1.0590
  195MOL0     C25630  -0.293   7.203   9.073 -0.0276 -0.0179  0.2441
  195MOL0     C25631  -0.396   7.197   9.186  0.3057 -0.3980 -0.6710
  195MOL0     O25632  -0.526   7.198   9.135 -0.1529  0.6952  0.0878
  195MOL0     C25633  -0.632   7.231   9.214 -0.7370  1.2319 -0.9968
  195MOL0     C25634  -0.760   7.219   9.161  0.4631  0.0413  0.8705
  195MOL0     C25635  -0.875   7.251   9.239 -0.4887  0.1189 -0.1168
  195MOL0     C25636  -0.864   7.287   9.372  0.9594  1.0510 -0.8417
  195MOL0     C25637  -0.976   7.317   9.455 -0.7118 -0.9561 -0.2280
  195MOL0     O25638  -0.969   7.329   9.590  0.0203  0.6816  0.0240
  195MOL0     C25639  -1.088   7.324   9.661 -0.4281 -0.9750  0.3327
  195MOL0     C25640  -1.183   7.225   9.650  0.4553  0.8259 -0.4017
  195MOL0     C25641  -1.304   7.226   9.724  0.5177  1.3008 -0.6277
  195MOL0     C25642  -1.331   7.325   9.821  1.1210 -0.3162  0.7386
  195MOL0     O25643  -1.442   7.330   9.903  0.0552  0.2211  0.5807
  195MOL0     C25644  -1.565   7.312   9.830 -0.8888  0.3618  0.2302
  195MOL0     C25645  -1.653   7.207   9.908 -0.1784 -0.1536  0.3790
  195MOL0     C25646  -1.798   7.232   9.863  0.2180 -0.2496 -0.1358
  195MOL0     C25647  -1.888   7.119   9.908  0.2112 -0.0485 -0.0546
  195MOL0     C25648  -2.041   7.155   9.903 -0.5844 -0.3692 -0.0455
  195MOL0     C25649  -2.130   7.030   9.903  1.1098  0.1762  0.6954
  195MOL0     C25650  -2.287   7.051   9.909  0.6042 -0.0117 -0.2911
  195MOL0     C25651  -2.366   6.922   9.884  0.0629  0.2225 -0.2626
  195MOL0    Cl25652  -2.536   6.946   9.842  0.2189  0.5258 -0.1277
  195MOL0     C25653  -1.222   7.411   9.844  0.5386  0.4132 -0.1279
  195MOL0     C25654  -1.107   7.413   9.769 -0.3995  0.4546 -0.1399
  195MOL0     O25655  -1.081   7.305   9.393 -0.3948  0.8119  0.5150
  195MOL0     C25656  -0.733   7.299   9.421 -0.2168 -0.5127  0.1678
  195MOL0     C25657  -0.609   7.276   9.350  0.2864 -0.6946 -0.6893
  195MOL0     N25658   0.016   7.226   8.889 -0.0124  0.3504 -0.0885
  195MOL0     N25659   0.130   7.186   8.928  0.3565  0.8892 -0.3104
  195MOL0     C25660   1.231   7.264   8.881  0.1694 -0.1408 -0.3141
  195MOL0     C25661   1.359   7.242   8.822  0.3679 -0.3913 -0.0125
  195MOL0     C25662   1.797   7.143   8.765  0.0682 -0.2225  0.2126
  195MOL0     C25663   1.783   7.181   8.632 -0.1673  0.2104 -0.2135
  195MOL0     C25664   1.888   7.204   8.558 -1.0207 -0.5809  1.1331
  195MOL0     C25665   2.021   7.223   8.624  0.4670  0.4024  0.2624
  195MOL0     O25666   2.127   7.269   8.553 -0.1387  0.1680 -1.0294
  195MOL0     C25667   2.123   7.328   8.423 -0.0529 -0.2023 -0.2889
  195MOL0     C25668   2.259   7.352   8.371 -0.8361  0.1420  0.5551
  195MOL0     C25669   2.318   7.465   8.457 -0.0547 -0.5543  0.1505
  195MOL0     C25670   2.422   7.556   8.389 -0.1137 -0.0926 -0.4999
  195MOL0     C25671   2.447   7.672   8.477 -0.2089 -0.2720 -0.6085
  195MOL0     C25672   2.499   7.776   8.519  0.0008  0.7858 -0.3004
  195MOL0     C25673   2.032   7.186   8.756  1.2814 -0.3886  0.2132
  195MOL0     C25674   1.921   7.136   8.824 -1.0804 -0.9654 -0.0458
  195MOL0     H25675   1.421   6.935   8.939 -0.6668 -0.9587  1.8901
  195MOL0     H25676   1.191   6.970   9.042 -3.8716  2.1020  0.5498
  195MOL0     H25677   1.089   7.238   9.182  0.1337  1.4717 -1.1665
  195MOL0     H25678   1.049   7.067   9.162 -0.1322 -0.9601 -1.3316
  195MOL0     H25679   0.854   7.298   9.122  1.6192  0.3925 -1.1299
  195MOL0     H25680   0.875   7.192   9.270  2.0687 -3.4470  0.0370
  195MOL0     H25681   0.821   7.002   9.168 -0.1283  1.0669  1.4488
  195MOL0     H25682   0.814   7.062   9.001 -1.4522 -0.3617 -0.6575
  195MOL0     H25683   0.643   7.114   9.257  0.2326 -2.5364 -0.3072
  195MOL0     H25684   0.601   7.178   9.097  3.9099  3.0241  0.8462
  195MOL0     H25685   0.627   6.888   9.186  1.8465  1.4512 -2.1606
  195MOL0     H25686   0.552   6.943   9.040  0.7555 -0.4229  0.1803
  195MOL0     H25687   0.437   6.983   9.325  2.5869 -1.2300  0.3588
  195MOL0     H25688   0.388   6.858   9.214 -1.1132  0.8048 -2.6329
  195MOL0     H25689   0.241   7.072   9.218 -1.8234 -0.4715 -2.2224
  195MOL0     H25690   0.352   7.155   9.117 -2.0032  0.9098 -0.5251
  195MOL0     H25691   0.240   6.884   9.038  0.2765  0.2882 -0.1778
  195MOL0     H25692   0.332   7.006   8.943 -0.2323 -0.7670 -1.0437
  195MOL0     H25693  -0.031   6.909   8.998  2.7530 -0.4785  1.6719
  195MOL0     H25694  -0.221   7.014   8.801 -1.4156  0.5853 -1.1309
  195MOL0     H25695  -0.231   7.189   8.800  0.2636 -1.0986 -0.7712
  195MOL0     H25696  -0.242   6.998   9.055  1.9297  2.2207 -0.3176
  195MOL0     H25697  -0.383   7.026   8.958 -0.2901 -0.6763 -0.1506
  195MOL0     H25698  -0.194   7.237   9.104  0.3457  3.3097 -3.7312
  195MOL0     H25699  -0.328   7.288   9.014 -0.5166  0.1986  0.8370
  195MOL0     H25700  -0.379   7.282   9.254  2.3665 -0.2301 -1.3235
  195MOL0     H25701  -0.391   7.098   9.232 -1.2625 -0.8531 -1.4114
  195MOL0     H25702  -0.763   7.180   9.060  0.5967  1.1772  0.4223
  195MOL0     H25703  -0.970   7.248   9.186 -0.2093 -0.6954 -0.5960
  195MOL0     H25704  -1.170   7.148   9.575  2.2850 -0.3239  1.0206
  195MOL0     H25705  -1.384   7.155   9.706  1.6391 -0.4122  0.7556
  195MOL0     H25706  -1.561   7.270   9.729 -1.0681 -2.6081  1.3447
  195MOL0     H25707  -1.606   7.412   9.814  2.5013  2.0475  1.2253
  195MOL0     H25708  -1.640   7.231  10.014 -0.4585  2.0909 -0.0404
  195MOL0     H25709  -1.638   7.101   9.890  1.2233  0.3164 -1.5025
  195MOL0     H25710  -1.800   7.229   9.753 -0.8153 -0.5826 -0.1218
  195MOL0     H25711  -1.831   7.332   9.891  1.7125  0.6338 -1.3288
  195MOL0     H25712  -1.867   7.023   9.860 -3.4525 -0.9974 -0.0982
  195MOL0     H25713  -1.874   7.103  10.015 -2.9506  0.6950  0.5883
  195MOL0     H25714  -2.061   7.214   9.812  1.0270  1.0847  0.4988
  195MOL0     H25715  -2.067   7.215   9.991  0.7925 -0.3001  0.3305
  195MOL0     H25716  -2.099   6.976   9.993  0.0998  2.4423  2.4982
  195MOL0     H25717  -2.109   6.969   9.815  1.3334  1.5724 -0.2562
  195MOL0     H25718  -2.318   7.093  10.005  0.6540  0.2163 -0.3735
  195MOL0     H25719  -2.306   7.124   9.829  1.1267  0.1408 -0.2767
  195MOL0     H25720  -2.343   6.852   9.964  2.0004 -1.4660 -2.1721
  195MOL0     H25721  -2.315   6.878   9.797  1.0027 -2.9993  1.7529
  195MOL0     H25722  -1.231   7.468   9.936  0.8291  0.9523 -0.4290
  195MOL0     H25723  -1.033   7.490   9.793 -0.7442  0.4157  1.1362
  195MOL0     H25724  -0.722   7.331   9.524 -0.1892 -1.0389  0.3311
  195MOL0     H25725  -0.516   7.287   9.406 -0.5232 -0.6068  0.6809
  195MOL0     H25726   1.171   7.351   8.856 -1.1808 -1.3622 -1.5012
  195MOL0     H25727   1.397   7.321   8.758 -0.1437  0.0651  0.2395
  195MOL0     H25728   1.685   7.179   8.585  0.2917  0.6401 -1.2110
  195MOL0     H25729   1.884   7.220   8.451  2.9454 -1.9676  0.6355
  195MOL0     H25730   2.069   7.423   8.428  1.1607  0.5488 -1.1607
  195MOL0     H25731   2.074   7.255   8.357  0.6992 -0.9467 -0.0436
  195MOL0     H25732   2.311   7.256   8.382 -0.3237  0.4390  0.7389
  195MOL0     H25733   2.276   7.362   8.263 -0.5055 -1.2753  0.4548
  195MOL0     H25734   2.361   7.418   8.546 -1.2155 -2.5030 -0.2429
  195MOL0     H25735   2.230   7.520   8.490  0.6209 -1.5481  4.2457
  195MOL0     H25736   2.513   7.499   8.366  1.3417  1.3207  1.4108
  195MOL0     H25737   2.386   7.596   8.294  0.2809 -0.5874 -0.8607
  195MOL0     H25738   2.551   7.864   8.553 -1.0054  0.8279  1.2196
  195MOL0     H25739   2.125   7.195   8.812  1.1065  0.1529  0.4217
  195MOL0     H25740   1.929   7.116   8.930 -1.7313 -4.2237 -0.5081
  196MOL0     O25741  10.906   1.061   7.132  0.0827 -0.5079 -0.1599
  196MOL0     C25742  10.837   1.102   7.229 -0.1916  0.1862 -0.5079
  196MOL0     O25743  10.895   1.166   7.333 -0.1963 -0.5058  0.2243
  196MOL0     C25744  11.018   1.215   7.322 -0.8630 -0.6572  0.4418
  196MOL0     C25745  11.122   1.189   7.418 -0.4839  0.2781  0.1921
  196MOL0     C25746  11.253   1.236   7.406 -0.6574 -0.0186  0.3324
  196MOL0     C25747  11.287   1.312   7.297  0.5177 -0.0052  0.1339
  196MOL0     O25748  11.426   1.345   7.278  0.3851  0.0659 -1.2543
  196MOL0     C25749  11.455   1.486   7.283  0.1818  0.3178 -0.6269
  196MOL0     C25750  11.604   1.519   7.313  0.1681 -0.0291  0.6383
  196MOL0     C25751  11.670   1.470   7.447  0.2575 -0.7959  0.2220
  196MOL0     C25752  11.819   1.504   7.441  1.1072  0.2546  0.2169
  196MOL0     C25753  11.895   1.457   7.557 -0.4642 -0.1984 -0.3442
  196MOL0     C25754  12.019   1.549   7.568  0.3380 -0.5087 -0.3007
  196MOL0     C25755  12.109   1.510   7.686  0.3368 -0.2991 -0.4648
  196MOL0     C25756  12.033   1.498   7.822  0.4944  0.5574 -1.3553
  196MOL0     N25757  11.946   1.611   7.857  0.2492  0.5083  0.5032
  196MOL0     C25758  11.977   1.744   7.836  0.1246 -0.3106  0.3819
  196MOL0     C25759  11.877   1.827   7.875  0.9392  0.2466 -0.2169
  196MOL0     C25760  11.875   1.977   7.864 -0.8685 -0.4005 -0.6868
  196MOL0     C25761  11.987   2.034   7.950  0.5105 -0.6624  0.3806
  196MOL0     C25762  11.980   2.030   8.098  0.3085 -0.1722 -0.0498
  196MOL0     C25763  12.084   2.120   8.174 -0.6503 -0.6068 -0.1981
  196MOL0     O25764  12.053   2.265   8.157 -0.1737  0.1514 -0.2147
  196MOL0     C25765  11.923   2.300   8.197 -0.4822  0.4126 -0.1752
  196MOL0     C25766  11.845   2.240   8.305  0.2896 -0.0109  0.9572
  196MOL0     C25767  11.705   2.263   8.318 -0.9108 -0.0188 -0.4732
  196MOL0     C25768  11.645   2.353   8.232 -0.0206 -0.5500 -0.4158
  196MOL0     C25769  11.493   2.349   8.230 -0.4039  0.3102 -0.0630
  196MOL0     O25770  11.431   2.267   8.313  0.4037  0.3618 -0.9655
  196MOL0     C25771  11.293   2.251   8.318 -0.7629 -0.3306 -0.3062
  196MOL0     C25772  11.241   2.228   8.446 -0.0166 -0.4364 -0.0479
  196MOL0     C25773  11.103   2.222   8.474  0.6478  0.4930 -0.2183
  196MOL0     C25774  11.017   2.233   8.360  0.3230  0.9538 -0.7469
  196MOL0     O25775  10.881   2.236   8.372  0.2237  0.1437  0.3622
  196MOL0     C25776  10.826   2.252   8.505  0.5741  0.4104  0.1279
  196MOL0     C25777  10.672   2.261   8.495 -0.4892  0.0091  0.0106
  196MOL0     C25778  10.622   2.367   8.396  0.0739  0.0019  0.2792
  196MOL0     C25779  10.473   2.386   8.375 -0.2768  0.5523  0.4419
  196MOL0     C25780  10.374   2.360   8.491  0.0673  0.0020  0.3960
  196MOL0     C25781  10.237   2.435   8.482  0.8885 -0.2043 -0.6185
  196MOL0     C25782  10.179   2.440   8.623 -0.8218  0.5918 -0.8976
  196MOL0     C25783  10.047   2.509   8.641 -0.6962  0.4052  0.5501
  196MOL0    Cl25784   9.924   2.428   8.536  0.1719 -0.3471  0.2071
  196MOL0     C25785  11.064   2.248   8.231  0.5649 -0.6847  0.5752
  196MOL0     C25786  11.199   2.256   8.208  0.1220  0.1384  0.6424
  196MOL0     O25787  11.438   2.403   8.134 -0.4822  0.1565  0.1592
  196MOL0     C25788  11.724   2.424   8.151  0.3798  0.1968 -0.5758
  196MOL0     C25789  11.856   2.408   8.131 -1.2858  0.3597  0.4422
  196MOL0     N25790  11.774   1.732   7.899  1.0810 -0.6240 -0.2157
  196MOL0     N25791  11.816   1.607   7.879 -0.6162  0.2596 -0.1226
  196MOL0     C25792  11.188   1.351   7.206  0.0161  0.0950 -0.1037
  196MOL0     C25793  11.056   1.307   7.217  0.1554  0.3124 -0.2193
  196MOL0     C25794  10.697   1.054   7.227 -0.3923 -0.1296 -0.4082
  196MOL0     C25795  10.603   1.105   7.322 -0.0776  0.7296  0.2593
  196MOL0     C25796  10.469   1.060   7.312  0.0319 -0.1629 -0.8696
  196MOL0     C25797  10.425   0.963   7.226 -0.7712  0.1328  0.6989
  196MOL0     O25798  10.300   0.925   7.196 -0.2586 -0.7780 -0.0180
  196MOL0     C25799  10.186   0.996   7.242 -0.2325 -0.3588  0.0018
  196MOL0     C25800  10.065   0.944   7.159  1.0568  0.4425 -1.4805
  196MOL0     C25801  10.082   0.953   7.011  0.0228  0.2261  0.6663
  196MOL0     C25802   9.974   0.888   6.935 -0.0818  0.6219  0.6248
  196MOL0     C25803   9.843   0.942   6.962  0.0471 -0.1879  0.3947
  196MOL0     C25804   9.736   0.994   6.976  0.8386 -0.2022  0.2407
  196MOL0     C25805  10.526   0.896   7.147  0.2567  0.6485 -0.7792
  196MOL0     C25806  10.659   0.950   7.145  0.7663 -0.1578 -0.5711
  196MOL0     H25807  11.101   1.118   7.498 -0.3272 -2.4708 -2.0491
  196MOL0     H25808  11.329   1.208   7.477 -2.0309 -3.2243  0.7399
  196MOL0     H25809  11.414   1.517   7.380  4.3027 -0.4878  1.6328
  196MOL0     H25810  11.416   1.547   7.202  0.0500 -2.9307 -3.2286
  196MOL0     H25811  11.617   1.627   7.312 -2.2471  0.3562 -1.9707
  196MOL0     H25812  11.663   1.479   7.230 -0.5325 -0.1873  0.2096
  196MOL0     H25813  11.643   1.372   7.487 -2.4551 -0.7159 -1.2155
  196MOL0     H25814  11.616   1.529   7.521 -3.9615 -0.0553 -3.0214
  196MOL0     H25815  11.855   1.450   7.353  0.2317 -0.8341  0.4994
  196MOL0     H25816  11.824   1.612   7.425  1.2860  0.2894  0.4880
  196MOL0     H25817  11.921   1.351   7.554 -2.8062 -0.8157 -1.0585
  196MOL0     H25818  11.827   1.476   7.640  0.9163  1.4644  0.4669
  196MOL0     H25819  11.985   1.651   7.583 -0.0134 -0.5314 -0.8790
  196MOL0     H25820  12.080   1.554   7.477 -1.5428  0.5590 -1.5602
  196MOL0     H25821  12.164   1.416   7.672 -1.4355 -1.3323 -0.8931
  196MOL0     H25822  12.186   1.587   7.688  1.6301 -1.5458 -0.0283
  196MOL0     H25823  12.109   1.488   7.899  0.1584  4.5537 -0.3068
  196MOL0     H25824  11.972   1.408   7.808 -2.3223  2.1248 -0.0170
  196MOL0     H25825  12.077   1.765   7.798  1.0527 -4.3155  0.2422
  196MOL0     H25826  11.779   2.023   7.890 -0.3567  1.8548 -2.4803
  196MOL0     H25827  11.901   1.998   7.760 -1.4510 -1.1750 -1.0027
  196MOL0     H25828  11.973   2.138   7.920 -2.6558 -1.5782 -1.9119
  196MOL0     H25829  12.085   2.001   7.916  2.0617  2.3655  1.5961
  196MOL0     H25830  11.878   2.050   8.134  0.6718  1.1012  0.3038
  196MOL0     H25831  12.003   1.926   8.123  0.6850 -0.2536 -0.7147
  196MOL0     H25832  12.180   2.109   8.122 -1.0049 -3.1339 -0.4104
  196MOL0     H25833  12.091   2.077   8.274  2.3323 -0.3362 -0.1949
  196MOL0     H25834  11.885   2.161   8.367 -1.2490 -2.3565 -0.8512
  196MOL0     H25835  11.648   2.197   8.382  0.6894 -2.0492 -1.0318
  196MOL0     H25836  11.313   2.202   8.523  1.0303  3.2410  0.3812
  196MOL0     H25837  11.068   2.227   8.576 -2.6897 -1.2158 -1.1416
  196MOL0     H25838  10.866   2.341   8.555 -0.1853  1.8132 -1.6803
  196MOL0     H25839  10.851   2.159   8.559 -2.0403 -0.5074 -0.1048
  196MOL0     H25840  10.631   2.285   8.594 -2.7215  1.8952 -1.2576
  196MOL0     H25841  10.638   2.159   8.474 -0.2288  0.4210 -2.8972
  196MOL0     H25842  10.662   2.347   8.296  1.6694  1.3345  0.6015
  196MOL0     H25843  10.655   2.464   8.433 -0.9836  1.3855 -2.1369
  196MOL0     H25844  10.467   2.492   8.347  0.6491 -0.1534 -2.8797
  196MOL0     H25845  10.450   2.337   8.280 -0.0494 -1.0489  1.1780
  196MOL0     H25846  10.429   2.396   8.579 -1.6270  2.3678  0.5747
  196MOL0     H25847  10.360   2.252   8.496 -0.6714  0.1016  0.6055
  196MOL0     H25848  10.179   2.375   8.411 -0.5665  2.6020 -1.9685
  196MOL0     H25849  10.254   2.539   8.455 -1.4375  0.6970  1.0319
  196MOL0     H25850  10.174   2.335   8.654 -1.5685  0.4478 -1.4638
  196MOL0     H25851  10.242   2.487   8.698 -2.7600  0.4405  0.9322
  196MOL0     H25852  10.068   2.609   8.604  4.8666 -1.2313 -1.6942
  196MOL0     H25853  10.018   2.528   8.745 -2.5604 -1.2176  0.3973
  196MOL0     H25854  10.990   2.235   8.154  0.3060  0.2123  0.6701
  196MOL0     H25855  11.245   2.262   8.110  0.5709 -0.5642  0.8011
  196MOL0     H25856  11.667   2.486   8.082 -1.5593  0.7189  1.3821
  196MOL0     H25857  11.914   2.457   8.054  0.4765 -4.2242 -1.5014
  196MOL0     H25858  11.213   1.413   7.120 -1.2664  1.9363  0.7971
  196MOL0     H25859  10.975   1.331   7.149  0.2041 -2.0180 -1.1826
  196MOL0     H25860  10.633   1.183   7.392 -0.6963 -0.2913  1.7258
  196MOL0     H25861  10.407   1.127   7.370 -1.8896 -1.8098 -0.9362
  196MOL0     H25862  10.185   1.103   7.219 -0.4928  0.1943  2.4183
  196MOL0     H25863  10.175   0.984   7.350 -1.0255 -3.6980 -0.3342
  196MOL0     H25864  10.063   0.839   7.191  1.2868  0.9148  0.1631
  196MOL0     H25865   9.967   0.983   7.189  0.7156 -0.2107 -1.7339
  196MOL0     H25866  10.166   0.893   6.977 -0.8142  0.2218 -1.5722
  196MOL0     H25867  10.097   1.058   6.985  0.4991 -0.2640 -1.1626
  196MOL0     H25868   9.984   0.914   6.830 -1.6343 -2.5407 -0.4543
  196MOL0     H25869   9.972   0.779   6.950  0.9448  0.1640 -2.0235
  196MOL0     H25870   9.658   1.065   6.993  0.8383  0.6464 -2.6364
  196MOL0     H25871  10.505   0.807   7.089 -0.0275  1.1467 -1.4598
  196MOL0     H25872  10.719   0.888   7.080 -0.3664 -1.4423 -0.4510
  197MOL0     O25873   4.870  10.599   6.754  0.5551  0.0473  0.2678
  197MOL0     C25874   4.821  10.484   6.741  0.3894 -1.0660 -0.0452
  197MOL0     O25875   4.878  10.372   6.778  0.0413 -0.6018  0.2937
  197MOL0     C25876   5.018  10.382   6.797 -0.1490  0.4431  0.0088
  197MOL0     C25877   5.102  10.393   6.689 -0.2672  0.6799  0.4109
  197MOL0     C25878   5.246  10.405   6.688  0.2523  0.2712  0.1926
  197MOL0     C25879   5.303  10.413   6.823  0.0092 -0.4720 -0.0122
  197MOL0     O25880   5.441  10.425   6.850  0.0827 -0.0777  0.5141
  197MOL0     C25881   5.506  10.533   6.784 -0.7743  0.3356  0.6097
  197MOL0     C25882   5.648  10.523   6.815 -0.2669 -0.9241 -0.0659
  197MOL0     C25883   5.719  10.655   6.769 -0.1816 -0.0174  1.1250
  197MOL0     C25884   5.691  10.693   6.617  0.4696  0.5048 -0.0347
  197MOL0     C25885   5.749  10.598   6.518 -0.2356 -1.3994 -0.0150
  197MOL0     C25886   5.779  10.674   6.385 -0.6519  0.4541  0.3794
  197MOL0     C25887   5.654  10.732   6.312 -0.0949  0.7213  0.0745
  197MOL0     C25888   5.691  10.775   6.175  1.0356  0.8289  0.3292
  197MOL0     N25889   5.566  10.799   6.115  0.5489 -0.1076  0.1390
  197MOL0     C25890   5.461  10.890   6.147  0.7220  0.6689  0.0913
  197MOL0     C25891   5.359  10.861   6.058  0.2490 -0.2932  0.5309
  197MOL0     C25892   5.224  10.923   6.056 -0.0069 -0.1921  0.9806
  197MOL0     C25893   5.215  11.044   5.966 -0.2756  1.0321 -0.6292
  197MOL0     C25894   5.092  11.136   5.988  0.6908 -0.7807 -0.8353
  197MOL0     C25895   4.956  11.068   5.961 -0.2224 -0.2721  0.4825
  197MOL0     O25896   4.861  11.154   5.907  0.4956  0.2593 -0.1130
  197MOL0     C25897   4.742  11.117   5.846 -0.0509 -0.4330 -0.3970
  197MOL0     C25898   4.687  11.217   5.769  0.1011  0.7506  0.0019
  197MOL0     C25899   4.564  11.204   5.702 -0.4105 -0.1283 -0.2585
  197MOL0     C25900   4.494  11.080   5.717  0.1544 -0.0202  0.5442
  197MOL0     C25901   4.364  11.065   5.655 -0.2074  0.2088  0.1895
  197MOL0     O25902   4.331  11.155   5.553  0.1358  0.6430 -0.6904
  197MOL0     C25903   4.201  11.153   5.504  0.2496  0.6051  0.1918
  197MOL0     C25904   4.162  11.045   5.429 -0.2057  0.5158  0.6969
  197MOL0     C25905   4.035  11.031   5.365  0.3087 -0.4143 -0.0598
  197MOL0     C25906   3.946  11.141   5.386  1.3625  0.2892  0.0536
  197MOL0     O25907   3.823  11.153   5.324 -0.1628  0.4431 -0.0360
  197MOL0     C25908   3.733  11.036   5.329 -0.0669 -0.8843  0.1907
  197MOL0     C25909   3.594  11.097   5.273  0.4983 -0.2104  0.4529
  197MOL0     C25910   3.476  10.996   5.268 -0.4888 -0.0273  0.3056
  197MOL0     C25911   3.347  11.059   5.213 -0.7040  0.0705  0.3210
  197MOL0     C25912   3.248  10.942   5.178  0.9623  0.0448 -0.5249
  197MOL0     C25913   3.106  11.007   5.143  0.3429 -0.0893 -0.1847
  197MOL0     C25914   3.002  10.915   5.078 -0.0879  0.3145  0.8834
  197MOL0     C25915   2.944  10.948   4.943 -0.6678 -0.3896 -0.6328
  197MOL0    Cl25916   2.843  10.820   4.899 -0.3473  0.1696 -0.0348
  197MOL0     C25917   3.978  11.253   5.460 -0.2476  1.1750 -0.0335
  197MOL0     C25918   4.109  11.255   5.514  0.4312 -0.4250  0.3475
  197MOL0     O25919   4.294  10.975   5.707 -0.1257  0.3050  0.7739
  197MOL0     C25920   4.555  10.973   5.783 -0.9613 -0.2354 -0.7074
  197MOL0     C25921   4.682  10.995   5.845 -0.0311  0.0875 -0.0564
  197MOL0     N25922   5.407  10.760   5.980  0.3004  0.8531  0.3005
  197MOL0     N25923   5.524  10.728   6.004  0.4950 -0.3261 -1.0239
  197MOL0     C25924   5.221  10.400   6.940 -0.4821 -0.3590  0.7776
  197MOL0     C25925   5.084  10.393   6.917 -0.1594 -0.6120 -0.2075
  197MOL0     C25926   4.694  10.472   6.673 -0.6311 -0.0029 -0.9518
  197MOL0     C25927   4.587  10.561   6.693 -0.2160  0.1422 -0.2523
  197MOL0     C25928   4.462  10.524   6.649 -0.0606  0.4369  0.4293
  197MOL0     C25929   4.438  10.401   6.584  0.0648 -0.2476 -0.6943
  197MOL0     O25930   4.318  10.345   6.546  0.2967 -0.7363 -0.3634
  197MOL0     C25931   4.205  10.432   6.564 -0.8412  0.2326 -0.3845
  197MOL0     C25932   4.088  10.339   6.536 -0.4954 -0.5064  0.4048
  197MOL0     C25933   3.955  10.419   6.542  0.0950 -1.2932 -0.3436
  197MOL0     C25934   3.838  10.335   6.503  0.1405 -0.1117 -0.2971
  197MOL0     C25935   3.705  10.397   6.543 -0.0666  0.0940 -0.0339
  197MOL0     C25936   3.597  10.426   6.581  0.7811 -0.4394 -0.0408
  197MOL0     C25937   4.547  10.318   6.561 -0.0781  0.4818  0.7012
  197MOL0     C25938   4.664  10.345   6.609 -0.3371  0.3334 -0.7720
  197MOL0     H25939   5.059  10.381   6.590  3.3326 -2.6983 -1.0347
  197MOL0     H25940   5.309  10.397   6.600 -4.5398  1.1025 -3.7766
  197MOL0     H25941   5.470  10.630   6.822 -0.3705 -0.1409  2.3029
  197MOL0     H25942   5.495  10.535   6.676  2.5011 -1.2541  0.1268
  197MOL0     H25943   5.687  10.437   6.760 -1.0730  0.5666 -3.1623
  197MOL0     H25944   5.653  10.499   6.922 -1.8662 -1.6782 -0.1204
  197MOL0     H25945   5.828  10.659   6.784  0.1327  0.7330 -0.9988
  197MOL0     H25946   5.678  10.730   6.838  0.4411 -0.0217  1.5089
  197MOL0     H25947   5.586  10.709   6.592 -0.2015  4.0990  3.8638
  197MOL0     H25948   5.742  10.789   6.606  0.0024  1.0156  1.8692
  197MOL0     H25949   5.679  10.515   6.506 -1.9473 -0.2314  1.4296
  197MOL0     H25950   5.841  10.564   6.568 -0.1702  2.4735  2.9280
  197MOL0     H25951   5.830  10.597   6.326 -0.0114 -1.3089  3.0482
  197MOL0     H25952   5.857  10.747   6.409 -2.1178  2.6165 -1.0550
  197MOL0     H25953   5.587  10.646   6.303  0.7987  0.1576 -1.5514
  197MOL0     H25954   5.600  10.813   6.362  0.4829  0.7711  0.6315
  197MOL0     H25955   5.752  10.694   6.132 -0.8776  1.0972 -3.2764
  197MOL0     H25956   5.744  10.870   6.165  2.7173 -0.2290 -1.8643
  197MOL0     H25957   5.450  10.970   6.218 -2.3766 -0.1686  0.6753
  197MOL0     H25958   5.212  10.951   6.161 -0.3559  0.4853  0.7702
  197MOL0     H25959   5.158  10.843   6.023  1.1673 -0.0660 -2.0301
  197MOL0     H25960   5.221  11.015   5.861  1.3397  2.3491 -0.9429
  197MOL0     H25961   5.300  11.110   5.985 -0.6895  1.9078 -1.7756
  197MOL0     H25962   5.078  11.169   6.092  1.2538  1.6884 -1.4719
  197MOL0     H25963   5.094  11.225   5.923 -1.0891 -0.4797 -0.5142
  197MOL0     H25964   4.927  11.016   6.053  2.5775 -4.0533 -0.5166
  197MOL0     H25965   4.958  10.987   5.888  3.4149 -1.0772  1.2709
  197MOL0     H25966   4.738  11.313   5.764  1.4387  0.1491  1.1909
  197MOL0     H25967   4.519  11.283   5.644  0.8257  1.8788  1.3609
  197MOL0     H25968   4.236  10.965   5.423 -0.0123  0.6668  1.0576
  197MOL0     H25969   4.020  10.943   5.304  1.8885 -1.3073  0.7707
  197MOL0     H25970   3.727  10.994   5.430  0.1524 -2.4246 -0.4158
  197MOL0     H25971   3.762  10.953   5.265 -0.5976 -1.9506  1.2992
  197MOL0     H25972   3.610  11.147   5.177 -0.7225 -0.4168  0.1218
  197MOL0     H25973   3.551  11.174   5.338  1.1397 -0.6566  1.4403
  197MOL0     H25974   3.461  10.965   5.372  1.9655  2.3526  1.5154
  197MOL0     H25975   3.504  10.905   5.215 -1.4798 -0.0870 -0.1421
  197MOL0     H25976   3.300  11.131   5.280 -2.8008 -0.8894 -0.0296
  197MOL0     H25977   3.363  11.116   5.121 -0.5273 -1.4356 -0.6099
  197MOL0     H25978   3.231  10.878   5.266  0.9805 -0.5126 -0.9170
  197MOL0     H25979   3.290  10.888   5.093  1.5653  0.1968 -0.3239
  197MOL0     H25980   3.118  11.097   5.083 -0.1544 -0.3634 -0.7096
  197MOL0     H25981   3.066  11.032   5.241  0.6872  0.8749 -0.2836
  197MOL0     H25982   3.043  10.813   5.078 -0.9751 -0.0537  1.7110
  197MOL0     H25983   2.916  10.914   5.145 -3.0841  1.8639 -2.6398
  197MOL0     H25984   3.023  10.951   4.867 -0.8379  2.7667 -0.8005
  197MOL0     H25985   2.906  11.050   4.945  3.4983  1.3923 -1.4514
  197MOL0     H25986   3.914  11.340   5.475 -0.7033  1.2331 -2.0057
  197MOL0     H25987   4.137  11.348   5.562 -1.1167  0.7611 -0.9475
  197MOL0     H25988   4.507  10.876   5.786 -0.9101 -0.2308  0.9255
  197MOL0     H25989   4.731  10.919   5.905 -1.7744 -1.7490 -0.8187
  197MOL0     H25990   5.249  10.400   7.044  0.9378 -2.9777  0.4712
  197MOL0     H25991   5.047  10.395   7.019 -0.3549 -1.0855 -0.2684
  197MOL0     H25992   4.606  10.659   6.737  2.5702 -0.2622 -0.3314
  197MOL0     H25993   4.380  10.595   6.655 -0.3718  0.1983 -0.7261
  197MOL0     H25994   4.201  10.528   6.513 -2.7330  1.3976  1.7955
  197MOL0     H25995   4.199  10.464   6.668  0.4311  2.0419 -0.8273
  197MOL0     H25996   4.087  10.320   6.429 -1.8143  1.8286 -0.0631
  197MOL0     H25997   4.083  10.248   6.598 -0.4750  0.2266  1.5183
  197MOL0     H25998   3.957  10.501   6.470  0.3111  2.1020  3.1823
  197MOL0     H25999   3.931  10.475   6.633 -2.1129 -0.2192 -1.5027
  197MOL0     H26000   3.831  10.317   6.395 -2.1406 -1.7003  0.0468
  197MOL0     H26001   3.854  10.237   6.549 -0.9658 -0.1197  0.0969
  197MOL0     H26002   3.493  10.451   6.596  0.5831  1.0861 -3.0034
  197MOL0     H26003   4.517  10.222   6.520 -2.3208  0.7097  1.6661
  197MOL0     H26004   4.730  10.260   6.612  0.2484  0.7995 -0.2661
  198MOL0     O26005   1.481   6.182   9.178 -0.2892 -0.5104 -0.8852
  198MOL0     C26006   1.496   6.280   9.116 -0.3397  0.2358  0.1229
  198MOL0     O26007   1.404   6.358   9.074 -0.3613 -0.2265  0.4227
  198MOL0     C26008   1.273   6.327   9.088  0.6972  0.6938 -0.5565
  198MOL0     C26009   1.215   6.268   9.204  0.6215 -0.0881  0.1789
  198MOL0     C26010   1.085   6.223   9.209  0.4810  0.0630 -0.1387
  198MOL0     C26011   1.000   6.248   9.104 -0.2181  0.1975 -0.0516
  198MOL0     O26012   0.863   6.202   9.089  0.2133 -0.7185 -0.4433
  198MOL0     C26013   0.811   6.133   9.205  0.5769 -1.1162 -0.4382
  198MOL0     C26014   0.665   6.089   9.167  0.0645  1.0169 -0.7456
  198MOL0     C26015   0.581   6.195   9.097  0.5639  0.2720  0.5525
  198MOL0     C26016   0.458   6.129   9.035  0.0603  0.2100 -0.2482
  198MOL0     C26017   0.338   6.075   9.125  0.1622  0.5209  0.0488
  198MOL0     C26018   0.253   5.970   9.046 -0.1031  0.9602  0.3746
  198MOL0     C26019   0.122   5.915   9.112 -0.5577 -1.1723  0.0504
  198MOL0     C26020   0.162   5.851   9.251 -0.0395  0.0476  0.6971
  198MOL0     N26021   0.049   5.775   9.310  0.2194 -0.2545  0.8825
  198MOL0     C26022  -0.085   5.788   9.290 -0.6696  0.6832  0.2563
  198MOL0     C26023  -0.139   5.705   9.384  0.2300 -0.6273  0.6584
  198MOL0     C26024  -0.283   5.669   9.369  0.7451  0.1375  0.0903
  198MOL0     C26025  -0.381   5.788   9.393 -1.3928  0.5240 -0.8786
  198MOL0     C26026  -0.397   5.811   9.542 -0.2233  0.6249 -1.0928
  198MOL0     C26027  -0.540   5.874   9.578  0.5666 -0.4911  0.0220
  198MOL0     O26028  -0.644   5.784   9.540 -0.0217  0.9522 -0.0636
  198MOL0     C26029  -0.772   5.836   9.550 -0.3611 -0.8317  0.0762
  198MOL0     C26030  -0.795   5.970   9.607 -0.2613 -0.2504  0.8776
  198MOL0     C26031  -0.923   6.008   9.624  0.4166  0.2135 -0.0235
  198MOL0     C26032  -1.035   5.934   9.580  0.3621  0.7238 -0.2499
  198MOL0     C26033  -1.173   5.969   9.622  0.2780 -0.4037  0.1730
  198MOL0     O26034  -1.254   5.870   9.665  0.3299 -0.2402  0.1460
  198MOL0     C26035  -1.385   5.895   9.706 -0.4288 -0.0480  0.0006
  198MOL0     C26036  -1.437   5.838   9.821 -0.0978  0.6140  0.8962
  198MOL0     C26037  -1.566   5.865   9.861  0.2115  0.3600  0.9202
  198MOL0     C26038  -1.649   5.950   9.792 -0.0013 -0.6506 -0.2763
  198MOL0     O26039  -1.783   5.958   9.804  0.4590 -0.3773  0.4876
  198MOL0     C26040  -1.857   5.885   9.908  0.5319 -0.5214 -0.0365
  198MOL0     C26041  -1.999   5.918   9.881  0.3624 -0.8727  0.2511
  198MOL0     C26042  -2.047   5.859   9.743  0.0923  0.6148  0.1065
  198MOL0     C26043  -2.204   5.890   9.755 -0.2241 -0.5080  0.3443
  198MOL0     C26044  -2.285   5.878   9.622 -0.1118  0.1923  0.0770
  198MOL0     C26045  -2.422   5.815   9.628  0.5587 -0.0534 -0.4973
  198MOL0     C26046  -2.519   5.887   9.734 -0.4760 -0.0126  0.8969
  198MOL0     C26047  -2.664   5.907   9.690  0.1270  0.7461  0.0781
  198MOL0    Cl26048  -2.725   5.750   9.624  0.4496 -0.0602 -0.2622
  198MOL0     C26049  -1.595   6.011   9.674  0.7992 -0.0310 -0.8910
  198MOL0     C26050  -1.464   5.977   9.630 -0.0625  0.0879 -0.2562
  198MOL0     O26051  -1.198   6.092   9.621 -0.4320  0.0537  0.2105
  198MOL0     C26052  -1.014   5.810   9.523 -0.2259 -0.1590 -0.7851
  198MOL0     C26053  -0.884   5.766   9.503  0.3124  0.4490 -0.3579
  198MOL0     N26054  -0.045   5.637   9.457  0.8175  0.2784  0.0568
  198MOL0     N26055   0.072   5.684   9.409 -0.2506  1.0838  0.2930
  198MOL0     C26056   1.054   6.298   8.981  0.4746 -1.3241 -0.3217
  198MOL0     C26057   1.192   6.335   8.978  0.0517 -0.5124  0.5213
  198MOL0     C26058   1.634   6.315   9.083 -0.0777  0.0094  0.4122
  198MOL0     C26059   1.664   6.434   9.016  0.6371  0.0153 -0.5513
  198MOL0     C26060   1.800   6.457   8.976  0.1989 -0.2899  0.2532
  198MOL0     C26061   1.899   6.371   9.007  0.5475  0.0798 -0.2118
  198MOL0     O26062   2.018   6.410   8.962  0.2669  0.0886  0.0733
  198MOL0     C26063   2.122   6.308   8.944 -0.8301 -0.0691  0.0117
  198MOL0     C26064   2.178   6.326   8.808 -0.5181 -0.1999  0.7248
  198MOL0     C26065   2.308   6.237   8.784  0.0297  1.2234 -0.7999
  198MOL0     C26066   2.272   6.088   8.788  0.1217 -0.4531  0.7226
  198MOL0     C26067   2.392   6.004   8.737 -0.3819  0.0116  0.6078
  198MOL0     C26068   2.499   5.953   8.717 -1.4598 -0.0862  0.1363
  198MOL0     C26069   1.868   6.252   9.072 -0.8034 -0.3317  0.2150
  198MOL0     C26070   1.743   6.231   9.121  0.1362 -0.7196  0.0439
  198MOL0     H26071   1.281   6.250   9.288  1.2313  2.9920  0.4860
  198MOL0     H26072   1.042   6.176   9.297 -1.9529  0.0704 -1.2328
  198MOL0     H26073   0.806   6.193   9.296  0.2921  0.0765 -1.2146
  198MOL0     H26074   0.871   6.047   9.237  2.3423 -0.3625 -1.5450
  198MOL0     H26075   0.617   6.054   9.259 -0.2027  1.7836 -0.5912
  198MOL0     H26076   0.666   6.001   9.101  0.1387 -1.2133  2.0248
  198MOL0     H26077   0.646   6.247   9.026  1.6299 -0.0286  1.2816
  198MOL0     H26078   0.558   6.272   9.171  0.6615  1.2795 -0.4230
  198MOL0     H26079   0.412   6.188   8.955 -1.5685 -0.5205  0.1066
  198MOL0     H26080   0.505   6.048   8.978  2.5340  1.9572 -0.8077
  198MOL0     H26081   0.267   6.156   9.145  0.1858  0.5900 -0.1436
  198MOL0     H26082   0.380   6.027   9.214  0.6686  0.0559 -0.4261
  198MOL0     H26083   0.325   5.888   9.036 -2.6788 -1.5376  0.9689
  198MOL0     H26084   0.232   6.008   8.945 -0.9560 -0.2184  0.0867
  198MOL0     H26085   0.058   6.001   9.138  0.0137 -1.1920  1.6393
  198MOL0     H26086   0.060   5.847   9.052 -0.9506  0.2671 -1.2304
  198MOL0     H26087   0.180   5.931   9.323 -3.0920  1.3399  0.1699
  198MOL0     H26088   0.253   5.791   9.238  0.4816  1.1808 -1.0492
  198MOL0     H26089  -0.135   5.834   9.206 -1.9938 -2.1825 -0.6649
  198MOL0     H26090  -0.309   5.571   9.409  4.0519 -0.4305  1.1231
  198MOL0     H26091  -0.305   5.663   9.262 -1.8276 -0.2272  0.5669
  198MOL0     H26092  -0.480   5.764   9.351 -1.0481 -2.5745 -0.1339
  198MOL0     H26093  -0.343   5.876   9.339  2.4049 -0.9893 -0.9607
  198MOL0     H26094  -0.398   5.718   9.600 -1.0811  2.1109  1.4169
  198MOL0     H26095  -0.314   5.878   9.568 -0.6137  0.2622  1.3462
  198MOL0     H26096  -0.542   5.969   9.524  2.9089 -0.4459 -0.0956
  198MOL0     H26097  -0.540   5.899   9.685  1.3307 -0.4515  0.0192
  198MOL0     H26098  -0.717   6.038   9.640 -0.2610  0.1325  0.1110
  198MOL0     H26099  -0.940   6.105   9.670 -0.4115  1.5941 -2.9732
  198MOL0     H26100  -1.372   5.778   9.884  2.1996  1.3838 -0.6319
  198MOL0     H26101  -1.615   5.821   9.947  0.1124  0.8062  1.0955
  198MOL0     H26102  -1.827   5.907  10.011  2.5536 -2.9892  0.0015
  198MOL0     H26103  -1.849   5.780   9.882  1.2237  0.0340 -2.2711
  198MOL0     H26104  -2.009   6.026   9.889  2.7832 -0.6430  1.0219
  198MOL0     H26105  -2.053   5.879   9.968 -0.4245  1.4799  0.8934
  198MOL0     H26106  -2.018   5.758   9.713 -0.2501  1.2917 -2.7852
  198MOL0     H26107  -2.003   5.920   9.664 -0.1258  2.5526  1.4047
  198MOL0     H26108  -2.249   5.822   9.828 -2.6489  0.4800 -0.1152
  198MOL0     H26109  -2.225   5.990   9.794  0.2468 -0.7478  1.2186
  198MOL0     H26110  -2.222   5.826   9.550 -2.4842 -3.5933  0.4710
  198MOL0     H26111  -2.296   5.980   9.585 -0.1668  1.4630  3.2251
  198MOL0     H26112  -2.402   5.711   9.657 -0.7719  0.1465  1.3472
  198MOL0     H26113  -2.468   5.800   9.530 -1.0287 -1.1905  0.3670
  198MOL0     H26114  -2.523   5.824   9.824 -2.7699 -0.4216  0.5830
  198MOL0     H26115  -2.489   5.989   9.760 -1.1411  0.7538 -1.1623
  198MOL0     H26116  -2.675   5.973   9.603 -2.5204 -1.1886 -1.1753
  198MOL0     H26117  -2.714   5.948   9.778  0.2147 -0.3732  0.6669
  198MOL0     H26118  -1.660   6.073   9.613  2.4995  4.2311  1.1728
  198MOL0     H26119  -1.429   6.025   9.539 -1.2416 -0.7164 -1.1537
  198MOL0     H26120  -1.095   5.743   9.493 -0.7089  0.2302 -0.3634
  198MOL0     H26121  -0.871   5.666   9.462  1.9646 -0.1376  1.4289
  198MOL0     H26122   0.992   6.311   8.893  0.5889  2.5342 -0.0153
  198MOL0     H26123   1.241   6.373   8.889  0.2007 -0.2655  0.7055
  198MOL0     H26124   1.579   6.495   8.987  0.7040  2.2067  3.2523
  198MOL0     H26125   1.822   6.535   8.904  1.7627 -1.5227 -0.6742
  198MOL0     H26126   2.085   6.206   8.954  0.9539 -1.1231 -2.7493
  198MOL0     H26127   2.199   6.326   9.020 -1.1014  0.2524  0.2163
  198MOL0     H26128   2.104   6.299   8.732 -2.2363 -1.8940  2.8479
  198MOL0     H26129   2.209   6.430   8.799  1.0831 -0.5944  1.3508
  198MOL0     H26130   2.374   6.243   8.871 -3.1341 -1.0062  2.0267
  198MOL0     H26131   2.368   6.253   8.694  2.4517 -2.4629 -0.0532
  198MOL0     H26132   2.242   6.061   8.890 -3.3961  2.0399  0.5182
  198MOL0     H26133   2.185   6.065   8.727  0.8822 -0.1885 -0.4975
  198MOL0     H26134   2.597   5.927   8.682 -1.2910  2.1550 -1.2363
  198MOL0     H26135   1.941   6.179   9.106 -0.7342 -0.8424 -1.0013
  198MOL0     H26136   1.725   6.146   9.186  1.0263 -1.7368 -0.9985
  199MOL0     O26137   9.860   9.183  10.555  0.1942  0.0804 -0.1099
  199MOL0     C26138   9.870   9.094  10.646  0.5817  1.2157  0.6765
  199MOL0     O26139   9.762   9.008  10.686 -0.1613 -0.6299  0.3530
  199MOL0     C26140   9.632   9.036  10.652  0.2047 -0.5089 -0.3932
  199MOL0     C26141   9.547   8.934  10.652  0.6691 -0.1308 -0.7205
  199MOL0     C26142   9.409   8.951  10.628 -0.4776  0.7409 -0.2933
  199MOL0     C26143   9.359   9.072  10.604  1.2821 -0.2572 -0.0829
  199MOL0     O26144   9.222   9.071  10.586 -0.0044  0.2156  0.2593
  199MOL0     C26145   9.180   9.156  10.474  0.1014  0.1081 -0.0177
  199MOL0     C26146   9.120   9.290  10.530 -0.1444 -0.6968 -0.3504
  199MOL0     C26147   8.969   9.295  10.549  0.0726  0.6431 -0.1779
  199MOL0     C26148   8.920   9.382  10.657 -0.9448 -0.1394 -0.5714
  199MOL0     C26149   8.769   9.374  10.651 -0.2963 -0.2274 -1.2540
  199MOL0     C26150   8.708   9.465  10.755  0.4830 -0.1270 -0.4846
  199MOL0     C26151   8.560   9.440  10.759 -0.1217 -0.0802 -1.3786
  199MOL0     C26152   8.491   9.486  10.626  0.0359 -0.4878  0.2578
  199MOL0     N26153   8.351   9.507  10.643 -0.5936 -0.1596 -0.4748
  199MOL0     C26154   8.260   9.475  10.553 -0.3323 -0.3210 -0.3075
  199MOL0     C26155   8.143   9.474  10.618 -0.4509  0.2905 -0.2635
  199MOL0     C26156   8.016   9.439  10.554 -0.2464  0.1456 -0.0803
  199MOL0     C26157   7.900   9.500  10.620  0.5450 -0.0710 -0.3413
  199MOL0     C26158   7.895   9.649  10.613 -0.3433 -0.2876 -0.8631
  199MOL0     C26159   7.771   9.713  10.671  0.0045 -0.0325 -0.6493
  199MOL0     O26160   7.765   9.699  10.814  0.4380 -0.2533 -0.1956
  199MOL0     C26161   7.662   9.762  10.890 -0.3541  0.4549  0.4593
  199MOL0     C26162   7.555   9.830  10.823  0.0443  0.3257 -0.0426
  199MOL0     C26163   7.456   9.899  10.902 -0.7678 -0.6141 -0.2007
  199MOL0     C26164   7.459   9.893  11.048  0.2051  1.0351 -0.1022
  199MOL0     C26165   7.349   9.960  11.129  0.1750  0.3058  0.4957
  199MOL0     O26166   7.319   9.922  11.253  0.2704  0.5106 -0.6585
  199MOL0     C26167   7.273  10.023  11.342  0.1548  0.7693  0.2288
  199MOL0     C26168   7.334  10.141  11.358  0.0467 -0.2823 -0.0711
  199MOL0     C26169   7.281  10.239  11.445 -0.2657 -0.1769  1.4458
  199MOL0     C26170   7.161  10.202  11.525  0.4996 -1.1344  0.6775
  199MOL0     O26171   7.097  10.282  11.621  0.2544  0.3240 -0.5022
  199MOL0     C26172   7.189  10.377  11.683  0.4126 -0.1096  0.0773
  199MOL0     C26173   7.099  10.461  11.772 -0.4564 -0.4925 -0.2509
  199MOL0     C26174   7.152  10.485  11.912  0.6345 -0.2801  0.7595
  199MOL0     C26175   7.037  10.518  12.012 -0.4241  0.2434  0.8443
  199MOL0     C26176   6.925  10.408  12.036  0.4242 -0.6063  0.3382
  199MOL0     C26177   6.855  10.462  12.164  0.0821 -0.3535  1.1193
  199MOL0     C26178   6.789  10.595  12.143  0.2476  0.5215  0.0922
  199MOL0     C26179   6.698  10.631  12.263 -0.2542 -0.0199  0.8957
  199MOL0    Cl26180   6.635  10.804  12.236 -0.1553  0.0854  0.1335
  199MOL0     C26181   7.107  10.075  11.502  0.3541  0.0617 -0.2624
  199MOL0     C26182   7.160   9.984  11.409 -0.6413 -0.9756 -0.0282
  199MOL0     O26183   7.291  10.053  11.071 -0.1874  0.8059 -0.3348
  199MOL0     C26184   7.553   9.818  11.106  0.4157 -0.1317  0.1731
  199MOL0     C26185   7.654   9.754  11.027 -0.1542 -0.6931 -0.4256
  199MOL0     N26186   8.164   9.518  10.747  1.0305  0.0351 -0.1892
  199MOL0     N26187   8.289   9.532  10.764  0.3267  0.1467 -0.3859
  199MOL0     C26188   9.449   9.181  10.598 -0.2792 -0.6632  0.0705
  199MOL0     C26189   9.584   9.166  10.627 -0.5749 -0.4086 -0.2608
  199MOL0     C26190  10.004   9.044  10.688 -0.1580  0.3388  0.7767
  199MOL0     C26191  10.019   8.917  10.749 -0.2719 -0.6842  0.8993
  199MOL0     C26192  10.145   8.859  10.766  0.3366  0.5959  0.3303
  199MOL0     C26193  10.257   8.919  10.719 -0.1553  1.3707  0.1919
  199MOL0     O26194  10.377   8.856  10.745 -0.7370 -0.4095  1.2344
  199MOL0     C26195  10.497   8.889  10.663  0.4276  0.0006  0.6061
  199MOL0     C26196  10.633   8.860  10.720  0.2619 -0.8049 -0.2911
  199MOL0     C26197  10.678   8.984  10.804  1.1286 -0.0606  1.0144
  199MOL0     C26198  10.595   9.009  10.933  0.1023  0.2330 -0.6287
  199MOL0     C26199  10.607   9.148  10.974  0.2498  0.0955  0.4598
  199MOL0     C26200  10.594   9.258  11.009  0.2755  1.0298  0.8422
  199MOL0     C26201  10.249   9.050  10.667 -0.6313 -0.6772 -0.3662
  199MOL0     C26202  10.123   9.111  10.646 -0.0460 -0.7899  0.2131
  199MOL0     H26203   9.592   8.839  10.679  0.4011 -0.7467 -2.3609
  199MOL0     H26204   9.354   8.858  10.636  2.0076 -0.7958  0.0482
  199MOL0     H26205   9.101   9.101  10.421 -3.0223  2.8333  1.4262
  199MOL0     H26206   9.256   9.170  10.396 -1.8129 -1.9341 -2.4377
  199MOL0     H26207   9.154   9.373  10.467  0.1587 -0.8633 -0.4045
  199MOL0     H26208   9.161   9.317  10.628  0.2176 -1.7662 -0.1983
  199MOL0     H26209   8.949   9.194  10.588 -2.3361  0.4026 -1.8088
  199MOL0     H26210   8.924   9.313  10.451  3.5390 -0.8913 -2.2685
  199MOL0     H26211   8.950   9.338  10.753 -0.4392 -0.0236 -0.6749
  199MOL0     H26212   8.943   9.488  10.643  1.8086 -0.8636 -2.3312
  199MOL0     H26213   8.755   9.272  10.688 -0.2976 -0.0200 -0.6717
  199MOL0     H26214   8.724   9.375  10.551 -1.5513 -2.2260 -0.7856
  199MOL0     H26215   8.720   9.571  10.729  0.7450 -0.1894 -0.6223
  199MOL0     H26216   8.746   9.443  10.856  1.2028  1.3350 -0.4021
  199MOL0     H26217   8.529   9.337  10.781 -1.2897  0.8682  2.1138
  199MOL0     H26218   8.524   9.487  10.851  0.0480 -2.8205  0.2155
  199MOL0     H26219   8.513   9.405  10.556 -2.9794  0.5083 -2.0464
  199MOL0     H26220   8.528   9.582  10.588 -0.6206 -0.5391 -0.5471
  199MOL0     H26221   8.277   9.448  10.449  1.8599  0.2317 -0.1417
  199MOL0     H26222   8.016   9.330  10.541  0.7430  0.1830 -0.4561
  199MOL0     H26223   8.012   9.471  10.449 -1.2282 -3.7163 -1.4152
  199MOL0     H26224   7.894   9.480  10.727  2.6955  5.4178  1.1205
  199MOL0     H26225   7.807   9.462  10.575  1.3770 -1.0532 -1.2825
  199MOL0     H26226   7.972   9.682  10.683 -0.9376 -0.1265 -0.2802
  199MOL0     H26227   7.923   9.690  10.515  0.0891  1.1928 -0.1482
  199MOL0     H26228   7.682   9.674  10.621 -0.1225  2.4447 -2.5293
  199MOL0     H26229   7.764   9.818  10.641 -1.3559 -0.5788 -2.4099
  199MOL0     H26230   7.552   9.843  10.716 -2.6709  1.7990  0.1305
  199MOL0     H26231   7.380   9.955  10.850 -2.6700  1.5283  4.2885
  199MOL0     H26232   7.428  10.150  11.305  0.3603  1.5010  0.7134
  199MOL0     H26233   7.308  10.344  11.447 -1.6894  0.2083  1.4182
  199MOL0     H26234   7.221  10.449  11.607  0.8511 -1.8898 -1.5015
  199MOL0     H26235   7.280  10.340  11.730  1.4923 -1.3020 -2.7038
  199MOL0     H26236   7.001  10.414  11.780 -0.6325 -0.1769 -0.5354
  199MOL0     H26237   7.077  10.562  11.735 -0.5321 -0.0362  0.9870
  199MOL0     H26238   7.215  10.573  11.928  0.5827 -0.7437  4.0335
  199MOL0     H26239   7.203  10.397  11.951 -0.1491 -1.1298 -0.0753
  199MOL0     H26240   7.082  10.536  12.110  0.4639  0.7562  0.3521
  199MOL0     H26241   6.992  10.612  11.979  0.9529  0.6340  0.0196
  199MOL0     H26242   6.977  10.313  12.052  0.5426 -0.4322  1.0108
  199MOL0     H26243   6.857  10.399  11.951 -0.4664  0.6029  0.8846
  199MOL0     H26244   6.921  10.469  12.251  2.2324 -1.2614 -0.3558
  199MOL0     H26245   6.773  10.395  12.193 -1.7418  0.0472 -2.5958
  199MOL0     H26246   6.871  10.667  12.154  1.8344 -1.4301  1.6224
  199MOL0     H26247   6.736  10.586  12.048 -1.2356 -2.7647  1.0909
  199MOL0     H26248   6.761  10.641  12.351  2.7954  1.7117 -1.3174
  199MOL0     H26249   6.616  10.558  12.271  0.4083 -1.0818 -1.2879
  199MOL0     H26250   7.019  10.044  11.557  1.7901  0.0297  2.1988
  199MOL0     H26251   7.126   9.882  11.397  4.3447 -2.8684 -0.4420
  199MOL0     H26252   7.557   9.808  11.214  1.0576 -0.1990  0.1505
  199MOL0     H26253   7.735   9.698  11.071  1.4004  0.9497 -1.0652
  199MOL0     H26254   9.408   9.280  10.581 -1.2352 -1.1272 -0.4139
  199MOL0     H26255   9.637   9.261  10.633 -2.0512  0.5560 -1.6941
  199MOL0     H26256   9.926   8.873  10.782 -0.7703  1.1277  2.0699
  199MOL0     H26257  10.130   8.760  10.808 -4.9948  1.6151  1.5267
  199MOL0     H26258  10.491   8.994  10.633 -1.6400  0.3596  2.0642
  199MOL0     H26259  10.467   8.830  10.576 -0.4644  0.9798  0.2231
  199MOL0     H26260  10.622   8.775  10.788 -1.3630 -1.2135 -1.0104
  199MOL0     H26261  10.693   8.824  10.635 -0.4574  1.0326 -1.6372
  199MOL0     H26262  10.677   9.076  10.745  0.2816  1.6173  3.4739
  199MOL0     H26263  10.780   8.977  10.842  0.4252 -1.6508  2.7683
  199MOL0     H26264  10.488   8.986  10.943  0.1279  0.4723  0.2707
  199MOL0     H26265  10.631   8.945  11.015 -4.3082  0.0351  1.4237
  199MOL0     H26266  10.584   9.360  11.039 -1.3478  1.6859 -1.6282
  199MOL0     H26267  10.332   9.116  10.643 -1.1004 -0.7663 -2.3728
  199MOL0     H26268  10.117   9.207  10.595  2.3017  0.6591  2.4150
  200MOL0     O26269   1.533   6.410   4.926  0.1484 -0.2929 -0.2432
  200MOL0     C26270   1.446   6.324   4.912  0.6721 -1.3301 -0.2992
  200MOL0     O26271   1.334   6.345   4.836  0.0483  0.1711 -0.2615
  200MOL0     C26272   1.312   6.458   4.759 -0.5664  0.1975  0.2588
  200MOL0     C26273   1.252   6.423   4.637 -0.3029  0.0454 -0.1051
  200MOL0     C26274   1.202   6.528   4.560  0.2398 -0.6039  0.2326
  200MOL0     C26275   1.208   6.666   4.593  0.4391  0.6564  0.1152
  200MOL0     O26276   1.151   6.756   4.504  0.3471  0.0888 -0.3333
  200MOL0     C26277   1.166   6.899   4.514  0.0323 -0.1158 -0.4890
  200MOL0     C26278   1.093   6.963   4.398  0.6058 -0.6173  0.2999
  200MOL0     C26279   1.126   6.895   4.259  0.6656 -0.5143  1.1998
  200MOL0     C26280   1.094   7.001   4.149 -0.0004  0.7363 -0.7927
  200MOL0     C26281   1.214   7.097   4.138  0.5899  0.3577 -0.7795
  200MOL0     C26282   1.199   7.182   4.003  1.1387  0.3492  0.2379
  200MOL0     C26283   1.319   7.277   3.978 -0.1464  0.7106  0.4073
  200MOL0     C26284   1.349   7.372   4.087 -0.4367 -0.5175  0.2634
  200MOL0     N26285   1.463   7.457   4.059  0.7745 -0.6522  0.0955
  200MOL0     C26286   1.456   7.556   3.960  0.0665 -0.9903 -0.3238
  200MOL0     C26287   1.581   7.609   3.946  0.2146  0.7215  0.1030
  200MOL0     C26288   1.615   7.690   3.825 -0.2128  0.3342 -0.4719
  200MOL0     C26289   1.652   7.607   3.704  0.0623 -0.8909 -0.2777
  200MOL0     C26290   1.783   7.533   3.723 -0.2800 -0.6834  0.5323
  200MOL0     C26291   1.905   7.624   3.682 -0.4505  0.1950  0.2852
  200MOL0     O26292   2.018   7.532   3.677  0.2003 -0.2151  0.8369
  200MOL0     C26293   2.133   7.583   3.647 -0.2511 -0.1885  0.7911
  200MOL0     C26294   2.241   7.505   3.670 -0.1161 -0.1709 -0.1608
  200MOL0     C26295   2.370   7.547   3.635  0.5453  0.7103  0.6630
  200MOL0     C26296   2.394   7.667   3.577 -0.4176  0.5640  0.6280
  200MOL0     C26297   2.528   7.718   3.544 -0.0426  0.3534 -0.2392
  200MOL0     O26298   2.624   7.627   3.553  0.7281 -0.1325 -0.2678
  200MOL0     C26299   2.756   7.644   3.500  0.9230 -0.2263  0.3834
  200MOL0     C26300   2.858   7.579   3.566 -0.5878 -0.5740 -1.0519
  200MOL0     C26301   2.984   7.578   3.506 -0.3617 -0.1327 -0.9290
  200MOL0     C26302   3.014   7.650   3.386  0.1542  0.4681  0.1130
  200MOL0     O26303   3.139   7.651   3.318 -0.2889 -0.2887  0.4789
  200MOL0     C26304   3.227   7.542   3.340 -0.5294 -0.4948  0.0252
  200MOL0     C26305   3.334   7.529   3.221  1.2693 -0.7937  0.3074
  200MOL0     C26306   3.447   7.637   3.232 -0.0068 -0.8905 -0.6058
  200MOL0     C26307   3.558   7.596   3.133 -0.9132 -0.0823 -0.2114
  200MOL0     C26308   3.672   7.700   3.117  0.1323 -0.2221 -0.1467
  200MOL0     C26309   3.804   7.643   3.053  0.1828  0.8246  1.2749
  200MOL0     C26310   3.784   7.589   2.902  0.2290 -0.4331  0.4775
  200MOL0     C26311   3.917   7.532   2.851 -0.0637  0.1620 -0.4841
  200MOL0    Cl26312   3.959   7.393   2.951 -0.3131  0.2078  0.4176
  200MOL0     C26313   2.911   7.713   3.322  0.3780  0.2230 -0.2436
  200MOL0     C26314   2.776   7.708   3.377 -0.4282  0.1234  0.1741
  200MOL0     O26315   2.540   7.836   3.510  0.2479 -0.5217 -0.2120
  200MOL0     C26316   2.284   7.752   3.550 -0.7742  0.4678 -0.3128
  200MOL0     C26317   2.158   7.702   3.579 -0.0425 -0.3547  0.2684
  200MOL0     N26318   1.660   7.542   4.043  0.5426 -0.2171  0.4258
  200MOL0     N26319   1.587   7.458   4.109 -0.1620  1.2248 -0.4992
  200MOL0     C26320   1.277   6.695   4.712 -0.0149 -0.9624  0.0379
  200MOL0     C26321   1.332   6.596   4.796  0.3236  0.9214  0.2678
  200MOL0     C26322   1.464   6.204   4.982  0.9325  0.0579  0.0123
  200MOL0     C26323   1.374   6.100   4.957 -0.0665 -0.5658  0.2461
  200MOL0     C26324   1.399   5.976   5.020 -1.1657  0.1347  0.7503
  200MOL0     C26325   1.516   5.957   5.107  0.1813 -0.3339  0.4980
  200MOL0     O26326   1.551   5.837   5.157 -0.3573  0.1889 -0.2033
  200MOL0     C26327   1.461   5.729   5.135 -0.2042  0.6488 -0.0687
  200MOL0     C26328   1.547   5.598   5.152 -0.4187 -0.6688 -0.5155
  200MOL0     C26329   1.685   5.604   5.083  0.5799 -0.2588  0.2613
  200MOL0     C26330   1.751   5.465   5.068 -0.0478  0.1548 -0.6532
  200MOL0     C26331   1.664   5.397   4.970  0.3389  0.3208 -0.1202
  200MOL0     C26332   1.603   5.324   4.890  0.1840 -0.6510  0.7696
  200MOL0     C26333   1.596   6.064   5.126 -0.7910 -0.5967  0.0554
  200MOL0     C26334   1.578   6.188   5.072 -0.1254 -0.1296  0.7529
  200MOL0     H26335   1.242   6.321   4.603  0.2025 -0.0231 -0.0536
  200MOL0     H26336   1.146   6.502   4.471 -0.6562  1.3070  0.1896
  200MOL0     H26337   1.272   6.924   4.503  0.6290 -3.0145 -2.7131
  200MOL0     H26338   1.128   6.933   4.610  2.7818 -0.1454  0.7202
  200MOL0     H26339   1.123   7.068   4.391  0.3932 -0.6139 -0.5616
  200MOL0     H26340   0.987   6.962   4.422  0.1084 -0.1846 -1.7461
  200MOL0     H26341   1.061   6.807   4.253  2.1359 -1.4992 -1.7897
  200MOL0     H26342   1.226   6.852   4.254  1.5990  1.6768 -2.7658
  200MOL0     H26343   1.079   6.953   4.052 -0.6428  0.5555 -0.6094
  200MOL0     H26344   0.997   7.050   4.162 -0.1708  0.0737  0.5837
  200MOL0     H26345   1.315   7.055   4.149  1.4270  2.3117 -0.6928
  200MOL0     H26346   1.204   7.162   4.226  1.1025  0.5966 -0.8959
  200MOL0     H26347   1.112   7.244   4.029  2.2136  0.7466  3.4491
  200MOL0     H26348   1.183   7.108   3.925 -0.8091  3.7188 -2.8685
  200MOL0     H26349   1.408   7.218   3.957 -0.3515  0.4144  0.3628
  200MOL0     H26350   1.282   7.329   3.889 -1.2347 -2.1153 -0.9301
  200MOL0     H26351   1.378   7.308   4.171  1.2240 -3.3842 -2.3110
  200MOL0     H26352   1.262   7.436   4.103  1.3480  1.7651  1.3683
  200MOL0     H26353   1.377   7.578   3.890  1.5276  1.1732 -1.4047
  200MOL0     H26354   1.692   7.765   3.844 -0.2416  0.5113 -1.0164
  200MOL0     H26355   1.526   7.754   3.814 -0.4327  1.1873  4.3473
  200MOL0     H26356   1.666   7.666   3.613  4.4242  0.7069  1.1793
  200MOL0     H26357   1.570   7.535   3.695  0.5941 -1.5321 -0.1088
  200MOL0     H26358   1.802   7.496   3.824  3.9409  0.8772  0.5103
  200MOL0     H26359   1.784   7.453   3.649  1.4725 -0.4362  0.2646
  200MOL0     H26360   1.923   7.699   3.759 -0.0702 -2.8354  3.3971
  200MOL0     H26361   1.876   7.667   3.586 -2.9988 -4.0711 -1.1620
  200MOL0     H26362   2.210   7.408   3.707 -1.6396  0.3956  0.1526
  200MOL0     H26363   2.457   7.488   3.660  1.2030  1.8132  1.0444
  200MOL0     H26364   2.833   7.527   3.658  1.4036 -2.1726 -1.3276
  200MOL0     H26365   3.060   7.518   3.555  0.7048 -0.4222 -2.8412
  200MOL0     H26366   3.156   7.460   3.349 -2.7983  1.4549  1.0924
  200MOL0     H26367   3.275   7.561   3.437  1.7041 -0.7210 -0.9621
  200MOL0     H26368   3.289   7.520   3.122  3.6540 -3.1600 -0.6671
  200MOL0     H26369   3.374   7.428   3.234 -2.2676 -2.5816 -1.1689
  200MOL0     H26370   3.485   7.626   3.334 -0.8382  0.6386 -0.1016
  200MOL0     H26371   3.404   7.735   3.211 -0.3383 -0.6801  0.9321
  200MOL0     H26372   3.598   7.496   3.153  3.9465  1.0464 -2.7802
  200MOL0     H26373   3.508   7.587   3.036  1.4894 -0.7415 -1.4746
  200MOL0     H26374   3.693   7.744   3.214 -1.5595  4.0920 -1.4823
  200MOL0     H26375   3.625   7.779   3.057 -0.6789  0.3978  1.2717
  200MOL0     H26376   3.838   7.556   3.111  4.1129  1.6330  0.4844
  200MOL0     H26377   3.882   7.719   3.064  0.7587  0.2404  1.2523
  200MOL0     H26378   3.711   7.509   2.891  0.0690 -0.1372 -0.6941
  200MOL0     H26379   3.748   7.662   2.829  0.1607 -2.5323 -1.7115
  200MOL0     H26380   3.996   7.608   2.848  0.3826 -0.3108 -0.8872
  200MOL0     H26381   3.925   7.491   2.750 -1.9060 -1.2158 -0.1073
  200MOL0     H26382   2.924   7.776   3.234  0.0178  1.5823  0.6631
  200MOL0     H26383   2.699   7.769   3.334 -0.7492  0.4193  1.1317
  200MOL0     H26384   2.286   7.850   3.503 -1.9955  1.4938  1.6322
  200MOL0     H26385   2.076   7.773   3.568  1.2434  1.1016 -0.1262
  200MOL0     H26386   1.291   6.796   4.749  1.5193 -1.3081  0.4472
  200MOL0     H26387   1.364   6.622   4.897  0.1746  0.0759  0.5398
  200MOL0     H26388   1.281   6.120   4.905  1.0182  0.4438 -1.4021
  200MOL0     H26389   1.319   5.904   5.010 -0.5194 -0.6265  0.9881
  200MOL0     H26390   1.416   5.722   5.036 -1.8243  1.8702  0.5409
  200MOL0     H26391   1.382   5.727   5.211 -1.7267 -1.1979 -1.6320
  200MOL0     H26392   1.562   5.590   5.260 -0.3223  0.8414 -0.4072
  200MOL0     H26393   1.491   5.507   5.126  2.7403 -2.7232 -0.6822
  200MOL0     H26394   1.754   5.668   5.140  1.1174 -0.2907 -0.3470
  200MOL0     H26395   1.686   5.649   4.984  0.5789 -3.2630 -1.1989
  200MOL0     H26396   1.855   5.481   5.039  1.2511  0.8106  3.6542
  200MOL0     H26397   1.749   5.395   5.153 -0.1501 -2.1313 -2.4268
  200MOL0     H26398   1.543   5.272   4.819 -0.7964  1.8639 -0.3625
  200MOL0     H26399   1.688   6.044   5.180 -0.8832 -3.7834 -0.7940
  200MOL0     H26400   1.653   6.266   5.084 -0.6601  0.4041  0.6318
  201MOL0     O26401   5.625   3.566   4.839 -0.7094  0.1667 -0.5721
  201MOL0     C26402   5.733   3.612   4.806 -0.3450  0.2990 -0.5704
  201MOL0     O26403   5.761   3.742   4.783  0.3828 -0.2454  0.1600
  201MOL0     C26404   5.657   3.832   4.804 -0.3311 -0.6225  0.5255
  201MOL0     C26405   5.610   3.867   4.928  0.4290  0.5964 -0.8797
  201MOL0     C26406   5.505   3.964   4.940 -0.2328 -0.2830  0.6115
  201MOL0     C26407   5.434   4.007   4.832 -0.2240  0.2365 -0.6808
  201MOL0     O26408   5.326   4.097   4.837  0.4801  0.1425  0.2344
  201MOL0     C26409   5.241   4.107   4.956 -0.3754  0.2617 -0.6931
  201MOL0     C26410   5.113   4.192   4.923 -0.0319 -0.4844 -0.9344
  201MOL0     C26411   4.994   4.100   4.923 -0.3323 -0.4722 -0.3288
  201MOL0     C26412   4.862   4.184   4.909 -1.1089 -1.0969  0.5827
  201MOL0     C26413   4.750   4.093   4.869 -0.1365 -0.7696  0.3760
  201MOL0     C26414   4.610   4.160   4.885 -0.0214 -0.0179  0.1923
  201MOL0     C26415   4.496   4.063   4.857 -0.5895 -0.0022 -0.3719
  201MOL0     C26416   4.360   4.143   4.842  0.5541  0.0117 -0.0666
  201MOL0     N26417   4.249   4.054   4.793  0.1412  0.0509 -0.0254
  201MOL0     C26418   4.184   3.958   4.868 -0.2956  0.3209 -0.5782
  201MOL0     C26419   4.096   3.898   4.786 -0.2913  0.3893 -0.5407
  201MOL0     C26420   4.014   3.783   4.817 -0.2285  0.1120 -0.1508
  201MOL0     C26421   3.875   3.805   4.870  0.5717  0.8983  0.0465
  201MOL0     C26422   3.797   3.679   4.835 -0.4184 -0.6224  0.3244
  201MOL0     C26423   3.654   3.686   4.889  1.0705  0.5314  0.8759
  201MOL0     O26424   3.599   3.812   4.846  0.6421  0.1128 -0.1848
  201MOL0     C26425   3.471   3.825   4.816  0.4340  0.6171 -1.6512
  201MOL0     C26426   3.419   3.945   4.768  0.1087 -0.0644 -0.8717
  201MOL0     C26427   3.281   3.975   4.776 -0.1664 -0.8069 -0.8174
  201MOL0     C26428   3.187   3.879   4.806 -0.2448 -0.3028 -1.3754
  201MOL0     C26429   3.047   3.913   4.789  0.3399  0.4194 -0.1957
  201MOL0     O26430   3.017   4.044   4.751 -0.4264  0.1194  0.2079
  201MOL0     C26431   2.887   4.079   4.731  0.2665  0.2875 -0.4493
  201MOL0     C26432   2.814   4.038   4.615  0.3875 -0.0002 -0.4245
  201MOL0     C26433   2.685   4.084   4.607  0.6989  0.7817  0.4171
  201MOL0     C26434   2.634   4.174   4.703  0.2907  0.1295 -0.0603
  201MOL0     O26435   2.501   4.196   4.683  0.3953 -0.7469 -0.3729
  201MOL0     C26436   2.466   4.331   4.718  0.0470  0.0341 -0.1523
  201MOL0     C26437   2.347   4.369   4.636 -0.1808 -0.3075 -0.4371
  201MOL0     C26438   2.228   4.293   4.703  0.1853  0.3407 -0.3524
  201MOL0     C26439   2.091   4.327   4.636 -0.0916  0.2217  0.3376
  201MOL0     C26440   1.985   4.253   4.714  0.1967  0.5434 -0.1565
  201MOL0     C26441   1.853   4.289   4.650 -0.3885  0.0873 -0.4239
  201MOL0     C26442   1.731   4.273   4.747 -0.5217 -1.0032  0.1093
  201MOL0     C26443   1.707   4.136   4.805  0.6135  0.4801 -0.1414
  201MOL0    Cl26444   1.750   4.004   4.689  0.1275  0.7073  0.0203
  201MOL0     C26445   2.707   4.220   4.814  0.1186 -0.6081 -0.7095
  201MOL0     C26446   2.835   4.163   4.832 -0.1178 -0.9606  0.2943
  201MOL0     O26447   2.962   3.822   4.781  0.4700  0.2506 -0.3229
  201MOL0     C26448   3.231   3.757   4.852  0.7805 -0.4893 -0.2635
  201MOL0     C26449   3.371   3.731   4.857 -0.3472 -0.3933 -0.0782
  201MOL0     N26450   4.120   3.954   4.660 -0.6598  0.0180 -0.0296
  201MOL0     N26451   4.209   4.048   4.665 -0.2291  0.4507 -0.1130
  201MOL0     C26452   5.479   3.959   4.713 -0.0735  0.7465 -0.5066
  201MOL0     C26453   5.589   3.887   4.694 -1.0115  0.4455  0.5986
  201MOL0     C26454   5.846   3.523   4.791 -0.3774  0.4025  0.1142
  201MOL0     C26455   5.977   3.561   4.795  0.0474  0.4362  0.2676
  201MOL0     C26456   6.080   3.472   4.796  0.2624 -0.4128  0.8424
  201MOL0     C26457   6.063   3.337   4.772  0.0260 -0.1375 -0.1928
  201MOL0     O26458   6.156   3.244   4.774 -0.3909 -0.3956  0.0795
  201MOL0     C26459   6.291   3.265   4.834  0.2796  0.0832 -0.6311
  201MOL0     C26460   6.397   3.281   4.735 -0.8894 -0.4164 -0.7900
  201MOL0     C26461   6.516   3.341   4.809  0.2504  0.3796 -0.9755
  201MOL0     C26462   6.638   3.351   4.726  0.1030  1.7331  1.1498
  201MOL0     C26463   6.743   3.445   4.779  0.6591  0.2489 -0.9583
  201MOL0     C26464   6.831   3.508   4.831 -0.6522 -0.0397 -0.1269
  201MOL0     C26465   5.929   3.294   4.773  0.7200 -0.3274  0.3737
  201MOL0     C26466   5.822   3.382   4.776  0.6821  0.6984 -0.4898
  201MOL0     H26467   5.653   3.837   5.024 -0.7605  3.3522  0.6300
  201MOL0     H26468   5.463   3.998   5.035 -2.5316  0.4717 -0.5875
  201MOL0     H26469   5.294   4.161   5.035 -0.8554 -0.5258  0.1888
  201MOL0     H26470   5.217   4.005   4.989  1.6499  0.0273  0.1882
  201MOL0     H26471   5.126   4.236   4.824  0.3394 -0.5644 -0.9250
  201MOL0     H26472   5.106   4.265   5.004 -5.3366 -0.9260 -0.6461
  201MOL0     H26473   4.977   4.028   5.003 -0.5603 -0.0409  0.0148
  201MOL0     H26474   5.011   4.045   4.830 -1.8102 -1.3170 -0.1290
  201MOL0     H26475   4.849   4.243   5.000  0.3527  3.9912 -2.0858
  201MOL0     H26476   4.861   4.268   4.838 -0.0714 -1.4779  0.0979
  201MOL0     H26477   4.747   4.006   4.935  0.6850 -1.9143 -1.0464
  201MOL0     H26478   4.765   4.058   4.767  0.7062 -1.4716  0.7274
  201MOL0     H26479   4.606   4.241   4.811  4.2443 -0.1343 -0.4495
  201MOL0     H26480   4.593   4.209   4.981 -0.6412 -0.1468  0.1501
  201MOL0     H26481   4.513   4.011   4.762  0.0297 -0.2354 -0.1355
  201MOL0     H26482   4.484   3.993   4.940 -0.6737  5.2856  4.6788
  201MOL0     H26483   4.366   4.236   4.785 -2.1976  0.4971  0.3111
  201MOL0     H26484   4.326   4.175   4.941 -0.9604  3.7343 -1.6355
  201MOL0     H26485   4.212   3.940   4.972 -1.0959  0.8378 -0.2661
  201MOL0     H26486   4.077   3.721   4.883  0.4623 -2.4738 -2.9987
  201MOL0     H26487   4.016   3.721   4.727  1.4970  2.2724 -1.6922
  201MOL0     H26488   3.833   3.896   4.825 -1.4036  0.7615  1.4929
  201MOL0     H26489   3.875   3.817   4.979  1.4608 -0.2461  0.1908
  201MOL0     H26490   3.797   3.666   4.727 -3.1233 -1.4409  0.3713
  201MOL0     H26491   3.841   3.594   4.888  1.0458  0.6740  1.2990
  201MOL0     H26492   3.656   3.677   4.998  0.7217  0.0569  0.8465
  201MOL0     H26493   3.605   3.597   4.848  0.4797  0.0772  2.4914
  201MOL0     H26494   3.477   4.031   4.735 -2.2145  0.6714 -3.4533
  201MOL0     H26495   3.246   4.072   4.741  1.0513 -1.0737 -2.9337
  201MOL0     H26496   2.858   3.969   4.545  0.7918 -0.7609  0.5532
  201MOL0     H26497   2.610   4.055   4.534 -1.4489  0.9912  2.4108
  201MOL0     H26498   2.551   4.391   4.684  0.4328 -0.1007  0.5740
  201MOL0     H26499   2.445   4.353   4.823 -0.9581 -1.9281  0.0995
  201MOL0     H26500   2.374   4.343   4.533 -1.7201  1.8116 -1.4382
  201MOL0     H26501   2.339   4.478   4.641  2.4550 -0.0131 -0.9748
  201MOL0     H26502   2.217   4.315   4.810  0.1653 -3.9834  0.7291
  201MOL0     H26503   2.236   4.184   4.702 -0.8205  0.2429  0.3868
  201MOL0     H26504   2.072   4.434   4.631 -1.6113 -0.0098  0.8493
  201MOL0     H26505   2.104   4.280   4.538  0.1541 -1.8582  1.2949
  201MOL0     H26506   1.996   4.286   4.818  0.1702 -1.3906  0.5118
  201MOL0     H26507   2.006   4.145   4.715  1.5901  0.7845 -0.8171
  201MOL0     H26508   1.825   4.227   4.565 -2.5404 -1.2188  1.1481
  201MOL0     H26509   1.858   4.390   4.608  2.9273  0.0001 -0.5371
  201MOL0     H26510   1.727   4.343   4.831  4.0034 -1.6145  1.0716
  201MOL0     H26511   1.652   4.310   4.680  2.5325  0.0552 -3.2619
  201MOL0     H26512   1.609   4.123   4.852  1.6518 -0.7376  1.8500
  201MOL0     H26513   1.771   4.131   4.894  0.2474 -0.6587  0.0768
  201MOL0     H26514   2.654   4.290   4.877 -1.8943 -2.2136 -0.5322
  201MOL0     H26515   2.892   4.182   4.922 -1.3866 -0.1054  0.9551
  201MOL0     H26516   3.155   3.688   4.888  1.6114 -0.7518  1.0506
  201MOL0     H26517   3.404   3.644   4.913 -2.1867  0.5816  2.7049
  201MOL0     H26518   5.438   4.001   4.621 -0.5602 -0.4536 -0.8584
  201MOL0     H26519   5.618   3.859   4.593 -2.8220  0.2963  0.0842
  201MOL0     H26520   5.995   3.668   4.795 -2.8705  1.0015 -0.6156
  201MOL0     H26521   6.181   3.512   4.800 -0.4733  1.8408 -0.7973
  201MOL0     H26522   6.322   3.181   4.897  0.4566  2.0743  2.1393
  201MOL0     H26523   6.290   3.357   4.893 -0.0321 -0.1328 -0.2908
  201MOL0     H26524   6.415   3.178   4.706 -1.6373 -1.8752  3.2134
  201MOL0     H26525   6.373   3.347   4.651  0.8646 -0.6951 -1.5305
  201MOL0     H26526   6.534   3.283   4.900 -0.5867  1.6324  0.0244
  201MOL0     H26527   6.491   3.439   4.849 -2.2610 -0.5357 -0.1029
  201MOL0     H26528   6.678   3.250   4.732 -1.3010  1.2126  2.1498
  201MOL0     H26529   6.615   3.373   4.621  3.9367  0.2411 -0.1883
  201MOL0     H26530   6.916   3.555   4.875 -1.1809  0.3753  0.4552
  201MOL0     H26531   5.893   3.192   4.761 -0.0876 -0.0260  0.1650
  201MOL0     H26532   5.725   3.335   4.758  1.4596 -1.9215  1.4617
  202MOL0     O26533  10.233  10.007   4.090 -0.0593  0.2551  0.1471
  202MOL0     C26534  10.269   9.954   4.197 -0.2388  0.2291  0.8262
  202MOL0     O26535  10.190   9.914   4.293 -0.1632  0.3843  0.3010
  202MOL0     C26536  10.055   9.940   4.274  0.8470  0.5045 -0.0631
  202MOL0     C26537   9.971   9.829   4.290  0.9293  0.4912  0.0446
  202MOL0     C26538   9.828   9.834   4.251  0.2115  0.1857 -0.8868
  202MOL0     C26539   9.776   9.960   4.215 -0.5589  0.2998  0.2138
  202MOL0     O26540   9.642   9.963   4.199  0.2632  0.2313  0.1208
  202MOL0     C26541   9.575  10.090   4.171  0.1811 -0.1570  0.9919
  202MOL0     C26542   9.440  10.064   4.114  0.9331  0.6635 -0.5815
  202MOL0     C26543   9.370  10.191   4.070 -0.1077  0.0095  0.4066
  202MOL0     C26544   9.219  10.189   4.062 -0.2313 -0.1846 -0.4839
  202MOL0     C26545   9.157  10.099   3.959 -0.0145 -0.0685 -0.1680
  202MOL0     C26546   9.010  10.075   3.982 -0.5973  0.0536 -0.1294
  202MOL0     C26547   8.968   9.999   3.858 -0.6051  0.2793  0.4649
  202MOL0     C26548   8.817   9.986   3.858  0.4145  0.6508 -0.3396
  202MOL0     N26549   8.743  10.113   3.867 -0.3696 -0.0860 -0.1513
  202MOL0     C26550   8.630  10.130   3.945 -0.0150 -0.2579  0.5662
  202MOL0     C26551   8.587  10.264   3.912 -1.0793  0.5955  0.0289
  202MOL0     C26552   8.465  10.327   3.974 -0.0914 -0.6006  0.2600
  202MOL0     C26553   8.340  10.349   3.882 -0.1026  0.1897 -0.0025
  202MOL0     C26554   8.236  10.234   3.887 -0.7311  0.6509 -0.0967
  202MOL0     C26555   8.188  10.182   4.032 -1.3341  0.0894  0.4034
  202MOL0     O26556   8.161  10.301   4.110  0.1875 -0.0199  0.3597
  202MOL0     C26557   8.033  10.338   4.113  0.3756 -0.0129  0.4101
  202MOL0     C26558   8.002  10.421   4.224 -0.2998 -0.7202 -0.3566
  202MOL0     C26559   7.868  10.455   4.247 -0.0769 -0.6200 -0.5594
  202MOL0     C26560   7.767  10.432   4.150 -0.2636 -0.6768 -0.4380
  202MOL0     C26561   7.631  10.477   4.171 -0.0001 -0.1770  0.8621
  202MOL0     O26562   7.606  10.544   4.277 -0.4018 -0.1596  0.4619
  202MOL0     C26563   7.479  10.592   4.309  0.8792 -0.4004  0.7664
  202MOL0     C26564   7.444  10.593   4.437 -1.0129 -0.3865  0.4400
  202MOL0     C26565   7.329  10.642   4.483  0.0936  0.7576 -0.4250
  202MOL0     C26566   7.239  10.698   4.386  0.0285 -0.4919  0.3546
  202MOL0     O26567   7.116  10.752   4.424  0.9379 -0.3882 -0.0715
  202MOL0     C26568   7.055  10.752   4.545 -0.8598 -0.1213  0.2970
  202MOL0     C26569   6.943  10.856   4.567  0.6474  0.1198  0.4412
  202MOL0     C26570   6.810  10.790   4.554  0.3010 -0.0867  0.0783
  202MOL0     C26571   6.777  10.742   4.411  1.0342  0.3787 -1.1744
  202MOL0     C26572   6.626  10.691   4.387 -0.4331 -0.0488 -0.1271
  202MOL0     C26573   6.527  10.806   4.417 -0.2882 -0.7632  0.4658
  202MOL0     C26574   6.380  10.774   4.389 -0.5535 -0.4020 -0.2732
  202MOL0     C26575   6.289  10.882   4.435 -0.1138 -0.4990 -0.0308
  202MOL0    Cl26576   6.291  10.881   4.610  0.0410  0.1470 -0.0051
  202MOL0     C26577   7.271  10.709   4.251  0.1631  0.8817 -0.1534
  202MOL0     C26578   7.394  10.656   4.210 -0.0591  0.7702 -0.6253
  202MOL0     O26579   7.555  10.452   4.082 -0.5255 -1.4043  0.0673
  202MOL0     C26580   7.801  10.363   4.033 -0.2237 -0.3424  0.4300
  202MOL0     C26581   7.936  10.312   4.023 -0.1771 -0.6122  0.3892
  202MOL0     N26582   8.677  10.314   3.819  0.3741  0.0278  0.4527
  202MOL0     N26583   8.759  10.222   3.786 -0.5423 -0.2045 -0.3454
  202MOL0     C26584   9.863  10.071   4.224  0.3089  0.7026 -0.0638
  202MOL0     C26585  10.000  10.066   4.239 -0.7081  0.4342  0.0205
  202MOL0     C26586  10.413   9.917   4.207  0.4631  0.2469  0.1142
  202MOL0     C26587  10.505   9.941   4.095  0.2273 -0.2070 -0.3300
  202MOL0     C26588  10.639   9.908   4.098 -0.6136  0.0901 -0.6963
  202MOL0     C26589  10.687   9.876   4.228  0.7975  0.2506  0.8234
  202MOL0     O26590  10.822   9.876   4.231 -0.0709  0.8897 -0.2926
  202MOL0     C26591  10.880   9.858   4.365  1.7978 -0.3338  0.6341
  202MOL0     C26592  11.026   9.863   4.348 -0.3970  0.0796  0.5328
  202MOL0     C26593  11.099   9.797   4.467 -0.2018  0.2879  0.5928
  202MOL0     C26594  11.234   9.858   4.479 -0.7210 -1.0426 -0.2070
  202MOL0     C26595  11.329   9.810   4.380 -0.4450  0.4083 -0.8348
  202MOL0     C26596  11.393   9.777   4.281  0.1144 -0.1489 -0.1030
  202MOL0     C26597  10.592   9.851   4.328 -0.4565  0.0269 -0.1354
  202MOL0     C26598  10.458   9.879   4.323 -0.7536  0.6452  0.0918
  202MOL0     H26599  10.008   9.730   4.312 -1.6443 -1.1413 -2.2448
  202MOL0     H26600   9.770   9.742   4.262 -2.0321  1.6422  0.0753
  202MOL0     H26601   9.631  10.152   4.101 -1.5242  0.0491 -0.2569
  202MOL0     H26602   9.570  10.139   4.268 -2.2413 -2.3680  2.1072
  202MOL0     H26603   9.363  10.019   4.177  0.2412  1.7108 -0.6428
  202MOL0     H26604   9.440   9.997   4.027  0.3392  1.4907 -1.2363
  202MOL0     H26605   9.401  10.215   3.968 -1.2707 -1.3899 -0.2934
  202MOL0     H26606   9.410  10.271   4.134  0.1685 -0.4100  0.7704
  202MOL0     H26607   9.184  10.156   4.160 -1.1229  0.8033 -0.4542
  202MOL0     H26608   9.180  10.291   4.064 -0.6096 -0.2787  3.4418
  202MOL0     H26609   9.209  10.003   3.962  1.4594  0.6769 -0.7755
  202MOL0     H26610   9.175  10.154   3.866  3.5282  1.7629  1.3704
  202MOL0     H26611   8.967  10.175   3.995  1.3424  0.8803  0.2930
  202MOL0     H26612   8.993   9.999   4.060  2.3187 -0.0124  0.5783
  202MOL0     H26613   9.006  10.060   3.775  2.5084 -2.0701 -0.0536
  202MOL0     H26614   9.013   9.900   3.847  2.4996  1.2080  3.2761
  202MOL0     H26615   8.783   9.911   3.931 -0.4690  1.5904  0.2399
  202MOL0     H26616   8.781   9.951   3.761  0.7284  0.1975 -0.2958
  202MOL0     H26617   8.583  10.062   4.016  1.3974 -1.4295  0.4156
  202MOL0     H26618   8.488  10.426   4.015 -2.5219  0.5436 -0.8815
  202MOL0     H26619   8.434  10.262   4.057 -3.7260 -2.3187 -2.1582
  202MOL0     H26620   8.365  10.368   3.777  2.8814  0.8510  0.7477
  202MOL0     H26621   8.291  10.438   3.923 -1.5586 -0.5943  0.0389
  202MOL0     H26622   8.147  10.236   3.822 -0.0668 -2.4667 -1.2794
  202MOL0     H26623   8.300  10.157   3.842 -1.5573 -0.2491  0.2225
  202MOL0     H26624   8.271  10.149   4.095 -0.9261  1.0967  0.4122
  202MOL0     H26625   8.114  10.101   4.030 -0.7828 -0.4093 -1.2956
  202MOL0     H26626   8.079  10.463   4.288  1.2476 -1.7197 -1.4975
  202MOL0     H26627   7.850  10.500   4.344 -1.7023  3.0806 -2.3762
  202MOL0     H26628   7.522  10.547   4.496  3.0171  0.3975 -3.7201
  202MOL0     H26629   7.306  10.632   4.588  3.2169  1.6549  0.4457
  202MOL0     H26630   7.121  10.775   4.630  1.6707 -2.0289 -1.0169
  202MOL0     H26631   7.023  10.651   4.572 -0.0144 -0.4262  0.2126
  202MOL0     H26632   6.963  10.936   4.496  1.9310  0.0595  0.7123
  202MOL0     H26633   6.953  10.891   4.670 -2.3791 -1.7697  1.4995
  202MOL0     H26634   6.741  10.873   4.574  1.4166  0.9668 -0.2853
  202MOL0     H26635   6.811  10.714   4.632 -0.1150  1.2496  1.4481
  202MOL0     H26636   6.792  10.830   4.348  4.4095 -0.6327 -1.9461
  202MOL0     H26637   6.847  10.669   4.371 -0.8970 -1.3368 -1.6155
  202MOL0     H26638   6.608  10.603   4.449 -2.8079  1.7150  1.8944
  202MOL0     H26639   6.622  10.668   4.280  1.4418 -0.3062 -0.1836
  202MOL0     H26640   6.559  10.900   4.371  2.6647 -0.1804  3.3666
  202MOL0     H26641   6.532  10.829   4.524 -1.5832  0.6097  0.2560
  202MOL0     H26642   6.362  10.745   4.285  1.5497  0.0083 -0.8092
  202MOL0     H26643   6.358  10.687   4.451  1.7696 -0.0422  1.1601
  202MOL0     H26644   6.189  10.875   4.391 -0.9983 -0.4466  1.8827
  202MOL0     H26645   6.333  10.977   4.404 -1.4561 -0.6366 -2.5683
  202MOL0     H26646   7.207  10.759   4.179  2.6868  1.6629 -2.0117
  202MOL0     H26647   7.418  10.643   4.105 -0.6171 -6.5504 -0.3551
  202MOL0     H26648   7.736  10.355   3.947  0.5517 -1.3530 -0.0849
  202MOL0     H26649   7.960  10.278   3.922  3.2349  0.8700  0.5444
  202MOL0     H26650   9.818  10.168   4.207 -0.1562  0.5276  0.1482
  202MOL0     H26651  10.069  10.149   4.226 -2.7102  1.9236 -1.8708
  202MOL0     H26652  10.464   9.989   4.007 -1.0626 -0.8785 -0.1320
  202MOL0     H26653  10.701   9.933   4.013 -1.1379 -0.0850 -1.1310
  202MOL0     H26654  10.849   9.767   4.417  2.0760 -1.5546 -1.2575
  202MOL0     H26655  10.850   9.936   4.436 -0.0908 -1.4015  1.0995
  202MOL0     H26656  11.055   9.811   4.257 -2.1301  0.5677 -0.3335
  202MOL0     H26657  11.059   9.964   4.322 -0.6668  0.1209  0.3501
  202MOL0     H26658  11.109   9.689   4.456 -1.0825  0.1539  0.9903
  202MOL0     H26659  11.047   9.813   4.562  0.5811  0.1211  1.0584
  202MOL0     H26660  11.232   9.968   4.477  1.3808 -0.8954  2.1094
  202MOL0     H26661  11.285   9.842   4.574  0.5977 -0.2970 -0.7663
  202MOL0     H26662  11.445   9.754   4.191  1.3761  0.3989  0.4624
  202MOL0     H26663  10.627   9.817   4.425  1.1387 -1.5707 -1.2008
  202MOL0     H26664  10.391   9.869   4.408 -3.0791 -0.6357 -1.7563
  203MOL0     O26665   6.304   9.320   4.618 -0.9231  0.2933 -0.5349
  203MOL0     C26666   6.239   9.384   4.701 -0.1038 -0.0628  0.0187
  203MOL0     O26667   6.105   9.361   4.735 -0.4027  0.4271 -0.1763
  203MOL0     C26668   6.031   9.271   4.663  0.6045 -0.7902  0.5423
  203MOL0     C26669   5.919   9.314   4.594  0.2412  0.6545 -0.5624
  203MOL0     C26670   5.827   9.226   4.535 -0.7781  0.0428  0.4768
  203MOL0     C26671   5.848   9.086   4.533 -0.8169  0.9498 -0.0719
  203MOL0     O26672   5.769   8.991   4.473  0.2318 -0.1579  0.8424
  203MOL0     C26673   5.712   9.026   4.342  0.0358  0.4571  0.3654
  203MOL0     C26674   5.620   8.904   4.302  0.0152 -0.0488  0.9653
  203MOL0     C26675   5.502   8.961   4.210 -0.7961  0.0587  0.9435
  203MOL0     C26676   5.552   9.007   4.072 -0.4731  0.0696 -0.3161
  203MOL0     C26677   5.449   8.979   3.959  0.3475  0.0809 -0.6179
  203MOL0     C26678   5.290   9.021   3.980 -0.4521  0.6874 -0.0973
  203MOL0     C26679   5.206   8.983   3.865 -0.0607  0.1984  0.4881
  203MOL0     C26680   5.073   9.059   3.864 -0.8647  0.2158 -0.4263
  203MOL0     N26681   5.004   9.046   3.735 -0.8381  0.8456 -0.3965
  203MOL0     C26682   5.062   9.085   3.622 -1.1948  0.8956  0.3650
  203MOL0     C26683   4.958   9.115   3.535 -0.1641 -0.4627  0.2337
  203MOL0     C26684   4.981   9.171   3.399  0.1035 -0.3764 -0.1467
  203MOL0     C26685   4.862   9.252   3.347  0.0256 -0.1913  0.6897
  203MOL0     C26686   4.753   9.160   3.289  0.0412 -0.5743  0.2645
  203MOL0     C26687   4.665   9.237   3.176 -0.0410 -0.7623 -0.5941
  203MOL0     O26688   4.549   9.161   3.141 -0.2013 -0.0984  0.2445
  203MOL0     C26689   4.450   9.134   3.237 -0.0747  0.7028 -0.3253
  203MOL0     C26690   4.386   9.013   3.219 -0.3380 -0.0563 -0.8507
  203MOL0     C26691   4.272   8.979   3.290 -0.0372  0.1710  0.9359
  203MOL0     C26692   4.242   9.059   3.406  0.7747 -0.1946 -0.4968
  203MOL0     C26693   4.135   9.028   3.498  0.5752 -0.3754 -0.5933
  203MOL0     O26694   4.072   9.127   3.567  1.2702  0.0652  0.1789
  203MOL0     C26695   3.974   9.090   3.657  0.0466 -0.6452  0.4529
  203MOL0     C26696   3.991   9.124   3.787  0.0386 -0.4542 -0.2174
  203MOL0     C26697   3.899   9.085   3.885 -0.7111  0.9599  0.4653
  203MOL0     C26698   3.784   9.014   3.853  0.0692  0.7606 -0.3652
  203MOL0     O26699   3.694   8.969   3.947 -0.3942  0.0308  0.7576
  203MOL0     C26700   3.695   9.020   4.082 -0.4727 -0.4339 -0.3684
  203MOL0     C26701   3.658   9.159   4.095 -0.1918 -0.1586 -0.7744
  203MOL0     C26702   3.508   9.185   4.071  1.2062  0.8154  0.3125
  203MOL0     C26703   3.471   9.185   3.925  0.6319  0.0225  0.1034
  203MOL0     C26704   3.318   9.183   3.896  1.0566 -0.8184  0.3763
  203MOL0     C26705   3.275   9.283   3.783 -0.1465 -0.4963  0.0832
  203MOL0     C26706   3.316   9.233   3.649  0.0750  0.4627  0.4053
  203MOL0     C26707   3.271   9.308   3.523  0.1404  0.1726 -0.2445
  203MOL0    Cl26708   3.103   9.316   3.495  0.4640 -0.3030  0.0630
  203MOL0     C26709   3.765   8.983   3.717  0.1201  0.0140 -0.6342
  203MOL0     C26710   3.853   9.023   3.616 -0.4888  0.4203  0.8563
  203MOL0     O26711   4.124   8.905   3.522 -0.0788 -0.8187 -0.6859
  203MOL0     C26712   4.306   9.176   3.428  0.0270  0.5114 -0.4506
  203MOL0     C26713   4.410   9.216   3.339  0.0481  0.2539  0.3645
  203MOL0     N26714   4.840   9.090   3.607 -0.3323  0.3345 -0.0283
  203MOL0     N26715   4.873   9.059   3.729  0.5391  0.1519  0.3676
  203MOL0     C26716   5.953   9.039   4.606 -0.6561 -0.4467 -0.3434
  203MOL0     C26717   6.046   9.127   4.670  0.2245 -0.3511  0.2764
  203MOL0     C26718   6.314   9.482   4.785 -0.0770  0.3208 -0.7402
  203MOL0     C26719   6.246   9.572   4.862  0.1566  0.2530  0.4317
  203MOL0     C26720   6.319   9.672   4.932  0.9229  0.2265  0.3241
  203MOL0     C26721   6.457   9.677   4.921 -0.6693 -0.7481  0.1848
  203MOL0     O26722   6.514   9.789   4.976 -0.1964 -0.4269  0.1274
  203MOL0     C26723   6.658   9.807   4.976  0.3893 -0.3051  0.0202
  203MOL0     C26724   6.701   9.917   5.072 -0.2557  0.2576 -0.4034
  203MOL0     C26725   6.845   9.967   5.054 -0.0474 -0.7702 -1.3013
  203MOL0     C26726   6.884  10.074   5.160  0.6931  0.1765 -0.6627
  203MOL0     C26727   7.025  10.118   5.150 -0.4486  0.0687 -0.1153
  203MOL0     C26728   7.137  10.149   5.128 -0.4393 -0.4884 -0.1442
  203MOL0     C26729   6.526   9.589   4.833 -0.4890  0.9854 -0.7396
  203MOL0     C26730   6.447   9.491   4.768 -0.7584 -0.8374  0.2173
  203MOL0     H26731   5.895   9.420   4.600 -1.1758  0.4954 -2.3862
  203MOL0     H26732   5.745   9.279   4.487  0.5920  1.6530 -0.1575
  203MOL0     H26733   5.782   9.052   4.262 -0.4951 -0.8339 -0.5419
  203MOL0     H26734   5.646   9.112   4.361  1.2233  0.7399  3.8293
  203MOL0     H26735   5.569   8.869   4.392 -1.0896  0.3754  0.5304
  203MOL0     H26736   5.671   8.821   4.252 -2.1625 -2.5531  2.6479
  203MOL0     H26737   5.453   9.043   4.264 -2.1956 -0.6484  0.7978
  203MOL0     H26738   5.424   8.887   4.190 -1.1159  0.0785  2.0259
  203MOL0     H26739   5.582   9.112   4.069  1.5758 -0.4937 -1.1435
  203MOL0     H26740   5.646   8.961   4.041 -0.1646  0.5518 -0.1093
  203MOL0     H26741   5.445   8.877   3.919 -0.4090 -0.5379  0.9301
  203MOL0     H26742   5.497   9.027   3.873  0.6038 -1.1168 -1.1599
  203MOL0     H26743   5.301   9.129   3.971  0.3766  0.4804 -1.9113
  203MOL0     H26744   5.243   8.994   4.076  2.0146 -1.2766  0.6656
  203MOL0     H26745   5.266   9.001   3.776  0.6966 -3.1883  0.1692
  203MOL0     H26746   5.197   8.874   3.853 -0.5554  0.3990 -1.1689
  203MOL0     H26747   5.088   9.166   3.883  1.5275  0.6627 -3.8751
  203MOL0     H26748   5.023   9.020   3.953  1.5564  3.5965  2.7070
  203MOL0     H26749   5.166   9.081   3.593 -1.1552 -1.5030  0.6283
  203MOL0     H26750   5.020   9.095   3.331  4.2771  0.6139  0.8689
  203MOL0     H26751   5.063   9.242   3.412 -0.4957 -0.0314  2.2333
  203MOL0     H26752   4.913   9.311   3.269  1.5971 -1.7074  0.5209
  203MOL0     H26753   4.824   9.327   3.418 -2.4098 -1.3927  0.7391
  203MOL0     H26754   4.798   9.076   3.237 -1.2814 -0.3046 -1.4156
  203MOL0     H26755   4.697   9.119   3.373  0.7867 -0.6257  0.7440
  203MOL0     H26756   4.725   9.258   3.087 -0.1652  0.1896 -0.4609
  203MOL0     H26757   4.639   9.333   3.222 -1.4075 -1.7257  0.7503
  203MOL0     H26758   4.426   8.946   3.143  0.1735  0.1094 -0.7347
  203MOL0     H26759   4.216   8.889   3.269  0.3236 -0.5058  2.7341
  203MOL0     H26760   4.077   9.175   3.829  2.0156 -1.9988 -2.1649
  203MOL0     H26761   3.903   9.110   3.991 -0.2919 -0.8385  0.8968
  203MOL0     H26762   3.799   9.005   4.112  1.1673  4.0297 -2.8441
  203MOL0     H26763   3.629   8.960   4.146 -0.4259 -0.6594 -0.5308
  203MOL0     H26764   3.722   9.221   4.032  2.0483  1.1938  2.5181
  203MOL0     H26765   3.678   9.186   4.199 -0.5169  0.1963 -0.8025
  203MOL0     H26766   3.471   9.279   4.113 -0.3624  0.4230 -0.1303
  203MOL0     H26767   3.453   9.104   4.119 -0.2165  1.6362  0.1271
  203MOL0     H26768   3.529   9.265   3.878  1.9578 -2.5855 -3.1379
  203MOL0     H26769   3.506   9.095   3.873 -2.2957  1.2274 -4.6280
  203MOL0     H26770   3.270   9.221   3.987  2.4286  2.6557 -0.1947
  203MOL0     H26771   3.272   9.091   3.859 -1.7695  0.9523 -0.8946
  203MOL0     H26772   3.311   9.385   3.802  0.3765 -0.4794 -0.9107
  203MOL0     H26773   3.166   9.294   3.779 -0.1003 -0.2642 -1.0559
  203MOL0     H26774   3.425   9.240   3.643  0.1151  0.0610  0.6339
  203MOL0     H26775   3.284   9.129   3.637  1.8471 -0.6607  3.9944
  203MOL0     H26776   3.306   9.262   3.431  1.0423  0.3005  0.0305
  203MOL0     H26777   3.307   9.412   3.522  1.5824 -0.3043  0.3884
  203MOL0     H26778   3.667   8.941   3.698 -0.2737  0.8273 -0.4486
  203MOL0     H26779   3.830   8.998   3.513  0.2127  1.7846  0.3387
  203MOL0     H26780   4.272   9.241   3.509 -0.4660  2.5736 -2.2267
  203MOL0     H26781   4.470   9.306   3.347  0.9776 -0.2212 -1.0259
  203MOL0     H26782   5.974   8.932   4.603  0.0276 -0.3417 -4.1430
  203MOL0     H26783   6.137   9.077   4.703 -0.2191 -0.2104  1.7663
  203MOL0     H26784   6.137   9.573   4.866  0.1720 -0.9310  2.7131
  203MOL0     H26785   6.263   9.743   4.991 -0.1459 -0.1538 -0.2132
  203MOL0     H26786   6.694   9.832   4.876  0.1648  0.2248  0.0705
  203MOL0     H26787   6.691   9.708   5.009 -1.7078 -0.5577  1.5641
  203MOL0     H26788   6.637  10.006   5.070 -0.2469  0.2495 -1.3926
  203MOL0     H26789   6.701   9.866   5.169  0.0453 -0.1960 -0.6382
  203MOL0     H26790   6.846  10.008   4.953  0.1786  2.4993 -0.0888
  203MOL0     H26791   6.918   9.886   5.065  0.6580  0.0619  0.7062
  203MOL0     H26792   6.815  10.159   5.159 -1.8648 -1.8023 -1.6620
  203MOL0     H26793   6.872  10.024   5.256 -0.3017  0.8535 -0.4185
  203MOL0     H26794   7.236  10.187   5.114 -0.8643  1.1877  1.0766
  203MOL0     H26795   6.633   9.572   4.827 -0.5751  0.4510 -0.7593
  203MOL0     H26796   6.491   9.421   4.698 -1.2273  1.4064 -2.4521
  204MOL0     O26797   2.050   2.796   4.463 -1.1448  0.1647 -0.6183
  204MOL0     C26798   1.976   2.787   4.557  0.6201 -0.3501 -0.7276
  204MOL0     O26799   1.841   2.738   4.554 -0.0621 -0.5504 -0.6767
  204MOL0     C26800   1.769   2.743   4.436 -0.1121  0.4164 -0.3533
  204MOL0     C26801   1.672   2.641   4.425  0.6677 -1.1671  0.5204
  204MOL0     C26802   1.598   2.626   4.297 -0.6407  0.9082 -0.8753
  204MOL0     C26803   1.634   2.703   4.189  0.0129 -0.2213  0.0909
  204MOL0     O26804   1.577   2.696   4.067 -0.2335  0.0160 -0.1049
  204MOL0     C26805   1.446   2.754   4.055 -0.9083 -0.4120  0.4807
  204MOL0     C26806   1.420   2.790   3.910  0.2970  0.5295 -0.3284
  204MOL0     C26807   1.309   2.889   3.893 -0.8352  0.5220  0.1857
  204MOL0     C26808   1.277   2.904   3.744 -0.4214  0.2615 -1.0602
  204MOL0     C26809   1.169   3.009   3.721  0.0939  0.2939  0.0953
  204MOL0     C26810   1.180   3.069   3.586  1.1830 -0.0674  0.1169
  204MOL0     C26811   1.162   2.983   3.463  0.5668  0.5258 -0.3986
  204MOL0     C26812   1.021   2.981   3.424  0.7725 -0.0834  0.1298
  204MOL0     N26813   0.980   2.872   3.333  0.3623 -0.8569 -0.6881
  204MOL0     C26814   0.855   2.852   3.283 -0.4259  0.2107 -0.3466
  204MOL0     C26815   0.853   2.733   3.219 -0.2735 -0.0651  0.5251
  204MOL0     C26816   0.734   2.658   3.147 -0.5519  0.2980  0.4263
  204MOL0     C26817   0.771   2.523   3.091 -0.7957 -0.4297  1.0073
  204MOL0     C26818   0.748   2.405   3.181 -0.0023 -0.2106 -0.1914
  204MOL0     C26819   0.603   2.358   3.167  0.2821  0.0820  0.0231
  204MOL0     O26820   0.570   2.288   3.288  0.7146 -0.2660 -0.1904
  204MOL0     C26821   0.439   2.268   3.322 -0.5653 -1.0855  0.3000
  204MOL0     C26822   0.407   2.179   3.428  0.3800 -0.6469  0.2361
  204MOL0     C26823   0.274   2.127   3.438 -0.6493  0.3886 -1.1351
  204MOL0     C26824   0.174   2.183   3.364  0.4070 -0.7504  0.8376
  204MOL0     C26825   0.032   2.148   3.374 -0.3335  0.8506  0.2946
  204MOL0     O26826   0.002   2.095   3.498  0.3624 -0.2283 -0.0981
  204MOL0     C26827  -0.127   2.060   3.526  0.3001 -0.7724 -0.5466
  204MOL0     C26828  -0.241   2.137   3.501 -0.0371 -0.6040  0.5988
  204MOL0     C26829  -0.368   2.091   3.547 -0.6206  0.0965 -0.5386
  204MOL0     C26830  -0.383   1.975   3.630  0.2768 -0.1476 -0.3479
  204MOL0     O26831  -0.502   1.913   3.672  0.5413  0.1298  0.2218
  204MOL0     C26832  -0.622   1.980   3.622 -0.4761 -0.1615 -0.6896
  204MOL0     C26833  -0.733   1.871   3.630 -0.5568 -0.4303 -0.2513
  204MOL0     C26834  -0.853   1.900   3.536 -1.0095 -0.1436 -0.5633
  204MOL0     C26835  -0.965   1.789   3.544 -0.6054  0.4592 -0.7838
  204MOL0     C26836  -1.065   1.792   3.435  0.4599  1.1087  0.1461
  204MOL0     C26837  -1.199   1.865   3.481 -0.2210 -0.5775 -0.9447
  204MOL0     C26838  -1.312   1.800   3.405  0.4582 -0.6315  0.9434
  204MOL0     C26839  -1.420   1.895   3.366 -0.7197 -0.2008  0.1797
  204MOL0    Cl26840  -1.550   1.813   3.265 -0.1710 -0.0834 -0.2237
  204MOL0     C26841  -0.269   1.897   3.654  1.0163 -0.1267 -0.3642
  204MOL0     C26842  -0.143   1.948   3.604  0.4074 -0.3424  0.5653
  204MOL0     O26843  -0.041   2.163   3.280  0.6683 -0.3414  0.5728
  204MOL0     C26844   0.207   2.284   3.268 -0.0095  0.4740 -1.0599
  204MOL0     C26845   0.336   2.324   3.237  0.9999  0.1090 -0.4014
  204MOL0     N26846   0.984   2.687   3.228  0.7988 -0.5982 -0.7610
  204MOL0     N26847   1.057   2.765   3.295 -0.0818 -0.8954  0.4916
  204MOL0     C26848   1.730   2.811   4.202  0.6500 -0.1815 -0.4493
  204MOL0     C26849   1.794   2.826   4.324 -0.4438  0.3463 -0.1199
  204MOL0     C26850   2.019   2.838   4.689 -1.0461 -0.3400 -0.2860
  204MOL0     C26851   2.151   2.874   4.726  0.8871  0.3791  0.3699
  204MOL0     C26852   2.179   2.942   4.847 -0.6869  0.7842  1.0226
  204MOL0     C26853   2.084   2.979   4.936  0.7949  0.0649  0.0410
  204MOL0     O26854   2.115   3.064   5.047 -0.2886 -0.1835  0.6638
  204MOL0     C26855   2.058   3.036   5.179  0.0951  1.1015 -0.3422
  204MOL0     C26856   2.120   3.103   5.302 -0.3095 -0.7973  0.4077
  204MOL0     C26857   2.151   3.257   5.289 -0.5025 -0.2881 -0.8154
  204MOL0     C26858   2.033   3.346   5.256 -0.4582 -0.1047  0.4831
  204MOL0     C26859   2.084   3.487   5.233 -0.8030  0.9087 -0.4374
  204MOL0     C26860   2.123   3.597   5.208 -0.2440  0.0336  0.2496
  204MOL0     C26861   1.954   2.941   4.903  1.1230  0.8848  0.4531
  204MOL0     C26862   1.923   2.877   4.781  0.1785 -0.4871  0.6382
  204MOL0     H26863   1.658   2.584   4.517 -0.5443  0.6162  1.4931
  204MOL0     H26864   1.513   2.559   4.291 -1.6861  2.1152 -0.1250
  204MOL0     H26865   1.446   2.844   4.116  0.4672 -0.1720  0.1511
  204MOL0     H26866   1.361   2.689   4.078  0.0263 -1.3664  1.3445
  204MOL0     H26867   1.394   2.697   3.857 -0.4040 -0.4107  1.5426
  204MOL0     H26868   1.514   2.832   3.875 -0.5817  1.9671 -1.0324
  204MOL0     H26869   1.330   2.985   3.941  0.8431 -1.1166  2.9545
  204MOL0     H26870   1.219   2.865   3.950 -0.2088  1.2022  1.5113
  204MOL0     H26871   1.369   2.929   3.690  0.9382 -1.3803  0.3606
  204MOL0     H26872   1.239   2.809   3.706  1.7504 -0.4654 -1.5818
  204MOL0     H26873   1.170   3.084   3.801 -3.0974  0.9743 -0.3340
  204MOL0     H26874   1.069   2.967   3.733 -1.8381  4.2869 -0.2390
  204MOL0     H26875   1.275   3.121   3.571  0.9882 -0.3643 -2.5953
  204MOL0     H26876   1.100   3.143   3.587 -0.7111 -1.8374 -3.3938
  204MOL0     H26877   1.225   3.011   3.377  1.2556  0.8750  0.2071
  204MOL0     H26878   1.178   2.880   3.496  1.6245  1.4424  2.1515
  204MOL0     H26879   1.003   3.074   3.369 -0.5446  1.4715  2.9557
  204MOL0     H26880   0.958   2.993   3.513  1.8463 -0.6586  0.9874
  204MOL0     H26881   0.775   2.925   3.292  0.6793  1.3998  0.2034
  204MOL0     H26882   0.708   2.722   3.063 -2.2839 -0.2460  0.5173
  204MOL0     H26883   0.652   2.655   3.219 -1.6247 -1.9267 -0.7982
  204MOL0     H26884   0.877   2.527   3.062 -1.0232 -1.2806 -0.0447
  204MOL0     H26885   0.726   2.511   2.992  0.0982  1.3697  0.3345
  204MOL0     H26886   0.822   2.330   3.152  0.2305  0.1344 -0.5036
  204MOL0     H26887   0.766   2.443   3.283 -0.3877 -1.4671  0.3652
  204MOL0     H26888   0.585   2.297   3.077  1.9669  0.8985 -0.9197
  204MOL0     H26889   0.546   2.450   3.150  0.7398  0.0380 -2.1274
  204MOL0     H26890   0.488   2.144   3.492  0.3957  0.2970  0.7473
  204MOL0     H26891   0.246   2.061   3.520  1.5226  1.0200  0.2144
  204MOL0     H26892  -0.241   2.219   3.430  2.1837 -0.2637  0.9349
  204MOL0     H26893  -0.447   2.158   3.516  0.8500  2.8934  1.3529
  204MOL0     H26894  -0.618   2.024   3.522 -0.1620 -2.3047 -1.6755
  204MOL0     H26895  -0.644   2.062   3.692  0.6186  1.0027 -1.6455
  204MOL0     H26896  -0.774   1.875   3.731 -2.9404 -0.9679 -1.1312
  204MOL0     H26897  -0.692   1.770   3.619 -0.2414 -0.4292  0.8226
  204MOL0     H26898  -0.810   1.900   3.435  3.5637 -0.7868  1.1913
  204MOL0     H26899  -0.888   1.997   3.572  0.9008  0.8950 -1.3592
  204MOL0     H26900  -0.908   1.696   3.545 -0.6323  0.1522 -5.2238
  204MOL0     H26901  -1.013   1.801   3.641 -0.8023  1.2366 -0.9701
  204MOL0     H26902  -1.087   1.690   3.403 -0.2421  1.1397  0.5058
  204MOL0     H26903  -1.036   1.840   3.341  1.7053 -0.7938 -0.4937
  204MOL0     H26904  -1.199   1.973   3.464 -5.2501 -0.0629  0.7657
  204MOL0     H26905  -1.211   1.857   3.590  0.5317 -1.1559 -0.8897
  204MOL0     H26906  -1.290   1.766   3.303 -1.1034 -1.4635  0.8630
  204MOL0     H26907  -1.354   1.714   3.459  0.9076 -2.2912 -1.1764
  204MOL0     H26908  -1.369   1.972   3.308  1.0463 -1.1072  0.4513
  204MOL0     H26909  -1.478   1.949   3.441 -0.4972  1.9479 -1.1300
  204MOL0     H26910  -0.278   1.809   3.717  1.7001  0.8692  1.1823
  204MOL0     H26911  -0.056   1.894   3.641  1.1373 -0.3532 -1.0945
  204MOL0     H26912   0.125   2.331   3.214 -2.0995 -2.2959 -0.4886
  204MOL0     H26913   0.358   2.391   3.155  1.8701  2.2836  1.4850
  204MOL0     H26914   1.752   2.882   4.123 -2.5917 -0.2078 -1.5017
  204MOL0     H26915   1.848   2.919   4.339 -1.0167  0.5302  0.8836
  204MOL0     H26916   2.233   2.858   4.657 -2.0303  0.2487 -3.4094
  204MOL0     H26917   2.275   2.974   4.887 -1.8220  0.0107  4.6875
  204MOL0     H26918   2.056   2.928   5.196  0.7266  0.6173 -2.8912
  204MOL0     H26919   1.952   3.064   5.176 -0.2144  0.0855  0.4360
  204MOL0     H26920   2.053   3.091   5.388 -0.6638 -0.7138  0.1440
  204MOL0     H26921   2.206   3.049   5.341 -0.5505  0.2178  2.4702
  204MOL0     H26922   2.221   3.253   5.204 -2.5840  0.5303 -2.6597
  204MOL0     H26923   2.204   3.289   5.379 -1.6467  0.0566 -0.2514
  204MOL0     H26924   1.994   3.317   5.158  0.3315  2.3112 -0.6367
  204MOL0     H26925   1.946   3.340   5.321 -1.4968 -1.6290 -0.9548
  204MOL0     H26926   2.153   3.698   5.190  2.5106 -1.2322 -3.6558
  204MOL0     H26927   1.868   2.970   4.963  0.8173  3.6711 -1.1849
  204MOL0     H26928   1.820   2.861   4.749  0.6393 -0.5319 -0.9117
  205MOL0     O26929   7.059   0.256   6.336 -1.1641  0.5577  0.5103
  205MOL0     C26930   7.041   0.323   6.435  0.0661 -0.0692 -0.5006
  205MOL0     O26931   6.918   0.350   6.493 -0.6557 -0.3346 -0.1832
  205MOL0     C26932   6.812   0.271   6.470  0.2316  0.6194  0.5957
  205MOL0     C26933   6.736   0.205   6.573  0.1848  0.5674 -0.8685
  205MOL0     C26934   6.614   0.141   6.555  0.3300 -0.1444  0.6058
  205MOL0     C26935   6.553   0.170   6.430  0.1926 -0.4168  0.0683
  205MOL0     O26936   6.425   0.118   6.433  0.0711  0.6872  0.3596
  205MOL0     C26937   6.358   0.108   6.307  0.2956 -0.0463  0.0758
  205MOL0     C26938   6.244   0.007   6.325  0.1872  0.1476  0.8225
  205MOL0     C26939   6.164   0.025   6.463 -1.0463  0.1781 -0.4199
  205MOL0     C26940   6.085   0.160   6.468 -0.2299  0.3711  0.1635
  205MOL0     C26941   6.008   0.194   6.601  0.4039  0.6690  0.5483
  205MOL0     C26942   6.099   0.209   6.725 -0.0307 -0.0178  0.4223
  205MOL0     C26943   6.222   0.290   6.703  0.1942  0.1588 -1.0542
  205MOL0     C26944   6.293   0.328   6.827 -0.1356 -0.5206  0.4985
  205MOL0     N26945   6.402   0.428   6.814 -0.5770  0.1369  0.3451
  205MOL0     C26946   6.502   0.446   6.724  0.1177  1.1309  0.1326
  205MOL0     C26947   6.578   0.553   6.766  0.2336 -0.2459 -0.8209
  205MOL0     C26948   6.708   0.601   6.695  0.0964  0.0712  0.7421
  205MOL0     C26949   6.681   0.694   6.576  0.3793 -0.1591 -0.0092
  205MOL0     C26950   6.760   0.640   6.458 -0.5456 -0.5709  0.5137
  205MOL0     C26951   6.759   0.742   6.341 -0.7135  0.3715 -0.4942
  205MOL0     O26952   6.812   0.691   6.215 -0.9818  0.0042  0.4852
  205MOL0     C26953   6.948   0.665   6.190  0.6274  0.2580 -0.4995
  205MOL0     C26954   7.055   0.685   6.277  0.2952 -0.0460 -1.0121
  205MOL0     C26955   7.188   0.652   6.256  0.6532  0.3301 -0.1864
  205MOL0     C26956   7.223   0.595   6.139 -0.5749  0.3762 -1.0814
  205MOL0     C26957   7.368   0.554   6.115  0.0006  0.0830  0.3474
  205MOL0     O26958   7.460   0.603   6.206 -0.0271  0.2974 -0.0306
  205MOL0     C26959   7.599   0.597   6.180 -0.1416 -0.4666 -0.5791
  205MOL0     C26960   7.674   0.700   6.243 -0.3728 -0.4897 -0.6491
  205MOL0     C26961   7.810   0.708   6.235  0.6291  1.1063  0.5055
  205MOL0     C26962   7.882   0.620   6.153  0.0283 -0.9857 -0.6063
  205MOL0     O26963   8.012   0.657   6.137 -0.0413  0.2941  0.1590
  205MOL0     C26964   8.092   0.591   6.036  0.1824 -0.2513  0.1760
  205MOL0     C26965   8.213   0.679   6.006 -0.7618 -1.3289  0.5463
  205MOL0     C26966   8.294   0.701   6.129 -0.5754 -0.7895 -0.1772
  205MOL0     C26967   8.410   0.797   6.092 -0.3660  0.5228  0.8595
  205MOL0     C26968   8.483   0.867   6.208 -0.4661  0.2861  0.3717
  205MOL0     C26969   8.623   0.915   6.160  0.5821  0.0743  0.4723
  205MOL0     C26970   8.704   0.988   6.266 -0.8345 -0.9327 -0.2556
  205MOL0     C26971   8.832   1.046   6.219  0.6799  0.2178 -0.3369
  205MOL0    Cl26972   8.939   1.095   6.357 -0.1132  0.2505 -0.3556
  205MOL0     C26973   7.805   0.524   6.081 -0.5571  0.1733 -0.3400
  205MOL0     C26974   7.671   0.504   6.104 -0.0120 -0.1393  0.4545
  205MOL0     O26975   7.402   0.502   6.010 -0.0042  0.0078 -0.8455
  205MOL0     C26976   7.133   0.571   6.040  0.7951 -0.2784 -0.0375
  205MOL0     C26977   6.989   0.598   6.069 -0.1334  0.1852  0.3761
  205MOL0     N26978   6.510   0.615   6.870 -0.2454  0.6698  0.4558
  205MOL0     N26979   6.416   0.540   6.900  0.6055  0.3753  0.0214
  205MOL0     C26980   6.622   0.240   6.322 -0.3553  0.4039 -0.5914
  205MOL0     C26981   6.749   0.284   6.344 -0.6622 -0.4117  0.0894
  205MOL0     C26982   7.153   0.374   6.516 -0.9712 -0.3073 -0.8290
  205MOL0     C26983   7.283   0.356   6.467  0.1910  0.0816 -0.9811
  205MOL0     C26984   7.388   0.437   6.525 -0.9246 -1.4916  0.5162
  205MOL0     C26985   7.358   0.515   6.640  0.6337 -0.0137 -0.1640
  205MOL0     O26986   7.446   0.604   6.692  0.1688 -0.0480  0.8559
  205MOL0     C26987   7.576   0.611   6.634 -0.1738  0.3137 -0.1053
  205MOL0     C26988   7.648   0.731   6.706  0.4437  1.1026 -0.5263
  205MOL0     C26989   7.785   0.737   6.645 -0.0817 -0.8181  0.6977
  205MOL0     C26990   7.864   0.858   6.701 -0.0472  0.0611  0.4631
  205MOL0     C26991   7.995   0.884   6.642 -0.1169  0.3520  0.1125
  205MOL0     C26992   8.105   0.882   6.592  0.4501 -0.0353  0.8118
  205MOL0     C26993   7.231   0.519   6.690 -0.5358 -0.4124  0.2199
  205MOL0     C26994   7.130   0.447   6.636 -0.2573  0.1032 -0.7106
  205MOL0     H26995   6.773   0.205   6.675  1.6153  1.2520 -1.3660
  205MOL0     H26996   6.563   0.086   6.633  0.7598  0.7878  1.5755
  205MOL0     H26997   6.424   0.077   6.226 -0.2130  1.7737 -1.0875
  205MOL0     H26998   6.322   0.206   6.276 -1.4576 -0.9560 -0.9152
  205MOL0     H26999   6.275  -0.097   6.317  0.1896  0.1173  1.1784
  205MOL0     H27000   6.173   0.028   6.245  0.6918 -0.9103  0.0749
  205MOL0     H27001   6.241   0.023   6.541 -1.2209  1.9707 -0.1724
  205MOL0     H27002   6.093  -0.056   6.480 -0.5744 -0.0309  0.6054
  205MOL0     H27003   6.162   0.234   6.444 -0.2507 -0.0243 -1.2091
  205MOL0     H27004   6.025   0.158   6.376  0.1504 -2.5517 -0.1231
  205MOL0     H27005   5.948   0.105   6.623  1.4390 -1.3952 -3.7887
  205MOL0     H27006   5.947   0.284   6.590  0.7455  0.9870  1.2239
  205MOL0     H27007   6.118   0.107   6.760  0.0835 -0.6508 -1.4068
  205MOL0     H27008   6.042   0.258   6.804 -0.0207  1.7916 -0.6384
  205MOL0     H27009   6.283   0.236   6.630 -0.2798  2.4548 -3.2913
  205MOL0     H27010   6.202   0.383   6.648  2.3415  0.4552 -1.4256
  205MOL0     H27011   6.339   0.238   6.869  2.2937  1.4768  2.4851
  205MOL0     H27012   6.216   0.365   6.895  1.7117 -1.7051  3.4376
  205MOL0     H27013   6.532   0.389   6.637 -2.4338  1.2800 -0.9251
  205MOL0     H27014   6.755   0.505   6.674 -0.5363  0.2673 -2.0664
  205MOL0     H27015   6.765   0.669   6.760 -1.8088  0.0877  2.4695
  205MOL0     H27016   6.716   0.795   6.600  2.8050 -0.8535 -0.3167
  205MOL0     H27017   6.576   0.687   6.549  0.5350 -2.9662 -0.1574
  205MOL0     H27018   6.862   0.629   6.497 -0.3073  0.3566  0.1874
  205MOL0     H27019   6.727   0.540   6.429  0.0010 -0.9110  1.0364
  205MOL0     H27020   6.827   0.823   6.371 -2.6281  0.8695  2.9419
  205MOL0     H27021   6.654   0.766   6.327 -1.2444  0.8518  3.2666
  205MOL0     H27022   7.036   0.719   6.379 -0.0042 -0.2368 -1.0023
  205MOL0     H27023   7.259   0.673   6.336 -0.4411 -0.3355  1.0102
  205MOL0     H27024   7.620   0.771   6.305  0.9051 -0.9261  1.0502
  205MOL0     H27025   7.849   0.790   6.295  0.0210 -0.4840  3.2424
  205MOL0     H27026   8.030   0.574   5.948 -2.2541 -3.4777  2.2946
  205MOL0     H27027   8.122   0.491   6.068 -2.3994 -1.1754 -0.1152
  205MOL0     H27028   8.180   0.777   5.971  2.0869 -0.8881 -1.2035
  205MOL0     H27029   8.277   0.633   5.929 -1.3037 -0.1473 -0.6505
  205MOL0     H27030   8.324   0.613   6.188  0.5353 -0.6212 -0.4554
  205MOL0     H27031   8.235   0.760   6.200 -2.9926 -1.2518 -1.7242
  205MOL0     H27032   8.491   0.739   6.047 -1.5516  2.3986 -4.4291
  205MOL0     H27033   8.384   0.867   6.013 -1.6690  0.2665  1.0348
  205MOL0     H27034   8.495   0.802   6.295 -0.1447 -0.7530 -0.4129
  205MOL0     H27035   8.426   0.956   6.236  1.4716  1.7951 -0.2416
  205MOL0     H27036   8.601   0.994   6.087 -1.7718 -0.8725  0.0388
  205MOL0     H27037   8.683   0.838   6.111 -1.5021  0.8521 -3.8401
  205MOL0     H27038   8.652   1.067   6.321 -1.3809 -1.8320  0.5616
  205MOL0     H27039   8.730   0.913   6.342 -1.0519 -1.4810 -0.7133
  205MOL0     H27040   8.817   1.135   6.158 -3.0441 -1.7195 -2.6053
  205MOL0     H27041   8.890   0.967   6.170 -1.0775 -1.6438  0.4458
  205MOL0     H27042   7.853   0.468   6.001 -1.6918 -0.2376 -0.7425
  205MOL0     H27043   7.624   0.415   6.064 -0.3997 -0.4570  1.5612
  205MOL0     H27044   7.161   0.523   5.946 -0.9402 -0.3137 -0.5646
  205MOL0     H27045   6.926   0.567   5.986  6.4182 -4.8386 -3.7370
  205MOL0     H27046   6.584   0.253   6.221 -0.2977 -0.9736 -0.8065
  205MOL0     H27047   6.789   0.351   6.268  2.6439 -2.1132  0.1419
  205MOL0     H27048   7.299   0.298   6.377 -1.8470  1.3317 -2.2150
  205MOL0     H27049   7.485   0.441   6.476 -1.4619  3.0625 -0.6530
  205MOL0     H27050   7.570   0.618   6.525 -0.8126 -1.4274 -0.2061
  205MOL0     H27051   7.628   0.519   6.660 -0.6097  0.3393  0.9459
  205MOL0     H27052   7.595   0.825   6.686  1.4035  1.7272 -0.2114
  205MOL0     H27053   7.662   0.709   6.812 -1.4577 -1.1811 -0.6566
  205MOL0     H27054   7.761   0.742   6.538 -3.1670 -0.2150  1.3276
  205MOL0     H27055   7.839   0.645   6.666 -1.8569 -1.6183  2.0131
  205MOL0     H27056   7.802   0.948   6.694  0.0406  0.1066  0.2661
  205MOL0     H27057   7.886   0.851   6.808  0.9169  0.8792  0.3257
  205MOL0     H27058   8.208   0.871   6.565  0.5853  0.0424  1.2884
  205MOL0     H27059   7.229   0.578   6.781 -1.8331  0.7067 -0.4845
  205MOL0     H27060   7.037   0.453   6.692 -0.4397 -0.2987 -0.9627
  206MOL0     O27061   6.197   1.208   1.673 -0.1204 -0.6475 -0.1754
  206MOL0     C27062   6.275   1.249   1.586  0.6517  0.6890  0.1815
  206MOL0     O27063   6.230   1.285   1.461  0.2838  0.0535 -0.6293
  206MOL0     C27064   6.091   1.284   1.439  0.9483  1.0042 -0.8143
  206MOL0     C27065   6.007   1.383   1.500  0.2414 -0.0264  0.0595
  206MOL0     C27066   5.867   1.386   1.470 -0.3602  0.0909  1.2295
  206MOL0     C27067   5.810   1.288   1.395  0.4006 -0.2455  0.8890
  206MOL0     O27068   5.676   1.289   1.347  0.1910  0.5409  0.3531
  206MOL0     C27069   5.635   1.399   1.251 -0.5441  0.1670 -0.7590
  206MOL0     C27070   5.499   1.370   1.188  0.7248  0.0292  0.1087
  206MOL0     C27071   5.375   1.367   1.285 -0.5059 -0.6212 -0.5737
  206MOL0     C27072   5.236   1.333   1.215 -0.1291 -0.0843  0.8493
  206MOL0     C27073   5.116   1.343   1.312 -0.0295  0.1090  0.8913
  206MOL0     C27074   4.985   1.281   1.251 -0.1998  0.9163  0.9156
  206MOL0     C27075   4.865   1.254   1.348  0.1656  0.2796  0.6638
  206MOL0     C27076   4.900   1.136   1.435 -0.9628  0.5310  0.3586
  206MOL0     N27077   4.958   1.187   1.562  0.1777 -0.2309 -0.1513
  206MOL0     C27078   5.025   1.103   1.646 -0.3139 -0.4675  1.1224
  206MOL0     C27079   5.015   1.152   1.768  0.3294  0.3037  1.2062
  206MOL0     C27080   5.081   1.103   1.894  0.2239 -0.1628 -0.3316
  206MOL0     C27081   5.042   0.959   1.934  0.4176 -1.0778 -0.6056
  206MOL0     C27082   5.152   0.906   2.022 -0.2862  0.8849  0.4595
  206MOL0     C27083   5.106   0.770   2.086 -0.2709 -0.3592 -0.0375
  206MOL0     O27084   5.096   0.667   1.983 -0.7885 -0.2135 -0.3400
  206MOL0     C27085   4.972   0.609   1.975  0.5399  0.5866  0.4685
  206MOL0     C27086   4.932   0.569   1.848 -0.0000  0.1763  0.7038
  206MOL0     C27087   4.807   0.515   1.826  0.1349  0.2373  0.0507
  206MOL0     C27088   4.730   0.475   1.941  0.1576  0.1494  1.3144
  206MOL0     C27089   4.612   0.394   1.914  0.1343  0.7842 -0.0424
  206MOL0     O27090   4.550   0.328   2.013  0.0107 -0.3846 -0.6060
  206MOL0     C27091   4.471   0.215   1.993  0.7500  1.2200  0.1153
  206MOL0     C27092   4.332   0.226   2.003  0.5394  0.1235 -0.8041
  206MOL0     C27093   4.255   0.112   1.988 -0.3830 -0.4812 -0.0260
  206MOL0     C27094   4.314  -0.013   1.963  0.1418 -0.5903 -0.2048
  206MOL0     O27095   4.232  -0.114   1.926  0.2366  0.0233  0.3906
  206MOL0     C27096   4.143  -0.148   2.035 -0.2609  0.7105 -0.8413
  206MOL0     C27097   4.017  -0.227   1.995 -0.2569  0.1250  0.4543
  206MOL0     C27098   3.945  -0.150   1.879  0.0633  0.3279  0.6416
  206MOL0     C27099   3.803  -0.190   1.851 -0.0130  0.5017 -0.0106
  206MOL0     C27100   3.727  -0.087   1.763  0.4646  0.0557  0.2854
  206MOL0     C27101   3.773  -0.063   1.615  0.6717 -0.8611 -0.0693
  206MOL0     C27102   3.773  -0.191   1.538  0.2514  0.5880  0.8630
  206MOL0     C27103   3.805  -0.169   1.389  0.5083  0.2916 -0.4848
  206MOL0    Cl27104   3.674  -0.073   1.300 -0.0407 -0.3639  1.0039
  206MOL0     C27105   4.456  -0.022   1.966  0.2988  1.6762 -0.5745
  206MOL0     C27106   4.534   0.089   1.975  0.1320  0.2112  0.3556
  206MOL0     O27107   4.576   0.388   1.798  0.5195 -0.5074 -0.1631
  206MOL0     C27108   4.770   0.511   2.067 -0.4941 -0.4341  0.0187
  206MOL0     C27109   4.889   0.576   2.083 -0.2309 -0.3728 -1.1323
  206MOL0     N27110   4.937   1.264   1.756 -0.2029  0.6758 -0.5300
  206MOL0     N27111   4.897   1.279   1.638 -0.2455  0.5953 -0.2436
  206MOL0     C27112   5.897   1.188   1.341  0.2335  0.0228 -0.5756
  206MOL0     C27113   6.031   1.175   1.366 -0.0153  0.7969 -0.2202
  206MOL0     C27114   6.410   1.250   1.621 -1.0761  0.2903  0.6538
  206MOL0     C27115   6.509   1.326   1.549 -1.2790 -0.5908 -0.1492
  206MOL0     C27116   6.643   1.327   1.587 -0.4965 -1.0651 -0.3021
  206MOL0     C27117   6.694   1.254   1.698 -0.7408 -0.5106  0.4811
  206MOL0     O27118   6.833   1.265   1.723  0.9158  0.7594  0.9308
  206MOL0     C27119   6.901   1.163   1.801 -0.2259  0.9905 -0.1531
  206MOL0     C27120   7.050   1.173   1.779 -0.3156 -0.7018  0.1316
  206MOL0     C27121   7.113   1.053   1.836  0.2326  0.1343 -0.0044
  206MOL0     C27122   7.245   1.103   1.889 -0.1520 -0.4639 -0.2224
  206MOL0     C27123   7.318   0.985   1.930  0.0143 -0.5637  0.2102
  206MOL0     C27124   7.374   0.877   1.962  0.1786  0.0355 -0.4844
  206MOL0     C27125   6.598   1.177   1.766 -0.2839  0.1215  0.3485
  206MOL0     C27126   6.462   1.190   1.738  0.7105 -0.8133 -0.6495
  206MOL0     H27127   6.052   1.455   1.568 -0.5630  0.6298 -0.0913
  206MOL0     H27128   5.811   1.460   1.526  1.9177  0.4498  3.1837
  206MOL0     H27129   5.713   1.407   1.175 -1.5971 -0.8174 -1.9922
  206MOL0     H27130   5.629   1.483   1.320  1.0761  2.7598 -3.5476
  206MOL0     H27131   5.519   1.275   1.137  1.2756 -1.3741  2.7744
  206MOL0     H27132   5.475   1.427   1.098  1.8490 -2.7800 -2.1282
  206MOL0     H27133   5.385   1.461   1.340  0.8196 -0.1093 -1.6154
  206MOL0     H27134   5.402   1.296   1.364  0.5385  0.8475  0.4585
  206MOL0     H27135   5.213   1.390   1.125 -0.0016 -1.6813 -0.2374
  206MOL0     H27136   5.241   1.228   1.184 -0.1053 -0.1717  1.1413
  206MOL0     H27137   5.098   1.448   1.333  1.0695  0.6408 -0.6295
  206MOL0     H27138   5.147   1.295   1.405  3.6990  2.6113  1.1486
  206MOL0     H27139   5.027   1.195   1.199  2.7409  4.1871 -2.7436
  206MOL0     H27140   4.952   1.353   1.176 -1.0920  0.4751  0.8702
  206MOL0     H27141   4.832   1.344   1.401  1.6349  1.4728 -0.3551
  206MOL0     H27142   4.786   1.233   1.276 -0.4589  1.3579  1.0023
  206MOL0     H27143   4.955   1.061   1.377 -3.9065 -1.3894 -0.1564
  206MOL0     H27144   4.801   1.096   1.458 -0.3460 -1.8891 -0.8474
  206MOL0     H27145   5.087   1.020   1.614  0.0425  1.2057 -3.2458
  206MOL0     H27146   5.055   1.164   1.980  1.3290 -1.8481  1.2705
  206MOL0     H27147   5.188   1.111   1.870  0.4149  4.5362  1.1818
  206MOL0     H27148   5.030   0.904   1.840 -3.0381 -1.1053 -0.2868
  206MOL0     H27149   4.950   0.960   1.992  1.2768 -0.1610  0.7953
  206MOL0     H27150   5.249   0.888   1.975 -0.2775 -3.6027  1.7204
  206MOL0     H27151   5.177   0.974   2.104  0.4466  0.4423  0.6164
  206MOL0     H27152   5.020   0.783   2.151 -0.5175 -3.3850  0.3971
  206MOL0     H27153   5.184   0.742   2.158  1.1896  2.0455 -0.5608
  206MOL0     H27154   4.989   0.604   1.762 -1.8049  0.4913 -0.4125
  206MOL0     H27155   4.781   0.483   1.726  2.0153 -1.9426  0.1658
  206MOL0     H27156   4.290   0.326   2.011  2.8570  1.1320 -0.5033
  206MOL0     H27157   4.148   0.127   2.003 -0.0979 -0.8137  2.7388
  206MOL0     H27158   4.123  -0.060   2.097  0.6703 -0.3939  1.1244
  206MOL0     H27159   4.187  -0.222   2.103 -1.9205 -2.1183 -2.6433
  206MOL0     H27160   3.954  -0.232   2.084 -0.6902 -2.5195  0.1012
  206MOL0     H27161   4.038  -0.327   1.956 -0.9432  0.2844 -0.3663
  206MOL0     H27162   4.010  -0.161   1.792 -2.9631 -0.7306 -1.6825
  206MOL0     H27163   3.939  -0.046   1.913  1.5605  0.5642  0.2576
  206MOL0     H27164   3.803  -0.293   1.816  0.8763 -0.6426  3.0707
  206MOL0     H27165   3.749  -0.198   1.945  2.4089  1.3055  1.5502
  206MOL0     H27166   3.730   0.008   1.818 -2.2317  0.9711 -0.9592
  206MOL0     H27167   3.625  -0.127   1.761  1.1937 -1.8823 -0.2948
  206MOL0     H27168   3.869  -0.010   1.612 -1.0620  2.6141  0.7738
  206MOL0     H27169   3.697  -0.006   1.561 -0.2917 -1.4963  0.5959
  206MOL0     H27170   3.845  -0.264   1.576  0.0891 -0.3988 -0.6434
  206MOL0     H27171   3.676  -0.237   1.561  0.7365  0.4059  2.7578
  206MOL0     H27172   3.820  -0.263   1.335 -1.3256 -0.5165  0.3275
  206MOL0     H27173   3.894  -0.107   1.371  0.8102 -0.0421 -0.1631
  206MOL0     H27174   4.496  -0.123   1.968  1.4740  2.0985 -1.4762
  206MOL0     H27175   4.642   0.090   1.972  0.1945 -0.7259 -3.4690
  206MOL0     H27176   4.712   0.478   2.153  1.9083 -4.3419  0.4155
  206MOL0     H27177   4.919   0.612   2.181 -1.8698 -1.7331 -0.0752
  206MOL0     H27178   5.850   1.110   1.282 -0.5816 -0.3458  0.5176
  206MOL0     H27179   6.091   1.095   1.324  0.4261  2.2563 -2.5746
  206MOL0     H27180   6.499   1.391   1.462  1.2822 -2.0969 -1.6844
  206MOL0     H27181   6.723   1.374   1.530 -1.1834  1.0482  0.3839
  206MOL0     H27182   6.877   1.065   1.759  0.8577  1.3720 -1.7693
  206MOL0     H27183   6.871   1.164   1.906 -3.1007 -0.6936 -0.8697
  206MOL0     H27184   7.077   1.185   1.674  2.9365 -0.5603  0.8843
  206MOL0     H27185   7.074   1.263   1.836  0.5705 -0.4352 -0.6385
  206MOL0     H27186   7.122   0.974   1.761  1.5780 -0.0270  0.2965
  206MOL0     H27187   7.053   1.021   1.921  0.7600  1.0762  0.7523
  206MOL0     H27188   7.296   1.165   1.815 -2.7526  0.5976 -1.2483
  206MOL0     H27189   7.228   1.157   1.982  0.0681  0.9448 -0.9703
  206MOL0     H27190   7.418   0.785   1.995  0.3414 -1.2533 -3.8549
  206MOL0     H27191   6.639   1.117   1.847 -2.2879 -1.6441  0.1414
  206MOL0     H27192   6.394   1.137   1.804  1.1590 -0.5238  0.0527
  207MOL0     O27193   9.014   6.638   2.910 -0.2285  0.4659 -0.2718
  207MOL0     C27194   8.958   6.529   2.889 -0.3376 -0.3143 -0.2323
  207MOL0     O27195   8.837   6.494   2.938 -0.1603 -0.0256 -1.1313
  207MOL0     C27196   8.739   6.579   2.979  0.2331 -0.3360 -0.5474
  207MOL0     C27197   8.637   6.534   3.078  0.0842  0.6896 -0.3957
  207MOL0     C27198   8.545   6.612   3.133  0.4873 -0.0405  0.5039
  207MOL0     C27199   8.545   6.750   3.085 -0.2723 -0.3551 -0.2223
  207MOL0     O27200   8.456   6.837   3.137 -0.3633 -0.8109  0.1750
  207MOL0     C27201   8.389   6.926   3.042  0.2017  0.4164 -0.7753
  207MOL0     C27202   8.243   6.929   3.068 -0.2582 -0.6354  0.2987
  207MOL0     C27203   8.171   7.057   3.024 -0.3045  0.3286  0.6339
  207MOL0     C27204   8.025   7.063   3.069 -1.1210 -0.4625  0.1177
  207MOL0     C27205   7.983   7.216   3.082 -0.0192  0.4700 -0.1974
  207MOL0     C27206   7.845   7.221   3.133  0.6754  0.4978 -0.6780
  207MOL0     C27207   7.788   7.367   3.106  0.1048  1.4905 -0.6140
  207MOL0     C27208   7.638   7.365   3.148 -1.5578  0.3825  0.1484
  207MOL0     N27209   7.552   7.290   3.063 -0.1380  0.5533  0.8299
  207MOL0     C27210   7.547   7.309   2.929  0.6218 -0.3820 -0.2792
  207MOL0     C27211   7.473   7.211   2.886  0.4435 -0.3214  0.5027
  207MOL0     C27212   7.425   7.192   2.736 -0.7905  0.0060  1.1107
  207MOL0     C27213   7.274   7.176   2.729 -0.6623 -0.5186 -0.1125
  207MOL0     C27214   7.233   7.028   2.732 -0.3628  0.5278  0.1282
  207MOL0     C27215   7.082   7.001   2.731  0.4834 -0.2767  0.2016
  207MOL0     O27216   7.034   7.053   2.612  1.0383  0.6295 -0.0807
  207MOL0     C27217   6.902   7.034   2.577  0.2843 -0.8035  0.0603
  207MOL0     C27218   6.800   6.978   2.652 -0.4474  0.2480  0.2585
  207MOL0     C27219   6.665   6.972   2.625 -0.1336 -0.3219 -0.8549
  207MOL0     C27220   6.629   7.031   2.504  0.2391 -0.4262 -1.0225
  207MOL0     C27221   6.491   7.071   2.474 -0.5786 -0.2419 -0.3999
  207MOL0     O27222   6.400   7.074   2.577  0.9033  0.2454  0.6849
  207MOL0     C27223   6.271   7.116   2.544  0.7459 -0.0838 -0.4301
  207MOL0     C27224   6.154   7.032   2.530  0.2362  0.2250  0.0983
  207MOL0     C27225   6.030   7.079   2.471 -0.0790 -0.6503  0.6872
  207MOL0     C27226   6.027   7.208   2.429  1.0843 -0.0657 -0.4046
  207MOL0     O27227   5.910   7.246   2.365  0.2059  0.2229  0.0070
  207MOL0     C27228   5.897   7.390   2.321 -0.0790  0.6529  0.1010
  207MOL0     C27229   5.748   7.420   2.293  0.3237 -0.5151  0.5013
  207MOL0     C27230   5.713   7.370   2.152 -0.6663  0.0841  0.2228
  207MOL0     C27231   5.737   7.472   2.042 -0.1371  0.4480 -0.1028
  207MOL0     C27232   5.702   7.417   1.903 -0.1097 -1.0008  0.8129
  207MOL0     C27233   5.669   7.526   1.794  0.2061 -0.4603 -0.0762
  207MOL0     C27234   5.528   7.580   1.838 -1.0734 -0.7268 -0.1722
  207MOL0     C27235   5.480   7.679   1.726  0.0004 -0.8757 -0.3402
  207MOL0    Cl27236   5.337   7.748   1.791 -0.2841  0.2368 -0.3251
  207MOL0     C27237   6.136   7.299   2.448  0.0138  0.6227 -0.5453
  207MOL0     C27238   6.258   7.254   2.503 -0.4788  1.5185  0.2580
  207MOL0     O27239   6.469   7.114   2.357  0.0361 -0.5259 -0.2339
  207MOL0     C27240   6.724   7.088   2.431  0.2045 -0.3552 -0.0720
  207MOL0     C27241   6.862   7.100   2.466  0.0379 -0.2263  0.1081
  207MOL0     N27242   7.433   7.120   2.982 -0.4317 -1.3177 -0.2299
  207MOL0     N27243   7.476   7.175   3.093  0.6610 -0.1221  0.9834
  207MOL0     C27244   8.642   6.798   2.997  1.0221 -0.1608  0.6876
  207MOL0     C27245   8.733   6.716   2.941  0.1553 -0.0680  0.0421
  207MOL0     C27246   9.041   6.427   2.825  0.1655  0.4997  0.0903
  207MOL0     C27247   8.987   6.304   2.786  0.1585 -0.3623 -0.9709
  207MOL0     C27248   9.064   6.208   2.729  0.1822 -0.2432 -0.3687
  207MOL0     C27249   9.200   6.229   2.700  0.7434  0.3397 -0.8581
  207MOL0     O27250   9.273   6.125   2.649  0.3216 -0.0165  0.3200
  207MOL0     C27251   9.358   6.168   2.536 -0.0467 -0.3336  0.2062
  207MOL0     C27252   9.326   6.076   2.419  0.5110  0.6047  0.1566
  207MOL0     C27253   9.413   6.069   2.302  0.9342  0.2884 -0.2264
  207MOL0     C27254   9.522   5.967   2.332  0.5728  0.5425 -0.3600
  207MOL0     C27255   9.605   5.947   2.214 -0.6832 -0.3368  0.4960
  207MOL0     C27256   9.685   5.931   2.128  0.0668 -0.1436 -0.5384
  207MOL0     C27257   9.255   6.349   2.739 -0.8908  0.6694 -0.1289
  207MOL0     C27258   9.177   6.445   2.808 -0.6756  0.6100  0.6905
  207MOL0     H27259   8.630   6.428   3.101 -0.6473  0.3984 -1.7918
  207MOL0     H27260   8.471   6.576   3.204 -0.1870  1.4692  0.6091
  207MOL0     H27261   8.403   6.884   2.942 -2.1861  1.7602 -1.7429
  207MOL0     H27262   8.441   7.023   3.046  4.5405 -1.6604 -0.9162
  207MOL0     H27263   8.239   6.932   3.178 -1.8518 -0.0365  0.2509
  207MOL0     H27264   8.195   6.839   3.029  2.0532 -1.1767 -1.5154
  207MOL0     H27265   8.172   7.072   2.916 -4.1383 -0.6604  0.2800
  207MOL0     H27266   8.224   7.144   3.065  1.1695 -0.0215 -0.4844
  207MOL0     H27267   7.962   7.019   2.991 -1.7318  0.4393  0.0887
  207MOL0     H27268   8.011   7.002   3.158  0.6278 -2.6244 -0.9704
  207MOL0     H27269   7.992   7.257   2.981 -1.0136 -4.6954 -2.6963
  207MOL0     H27270   8.054   7.269   3.148  0.8232  1.0283 -1.5180
  207MOL0     H27271   7.847   7.187   3.237  3.5247 -1.1290 -1.1452
  207MOL0     H27272   7.779   7.159   3.071 -1.8305  1.0094  1.3153
  207MOL0     H27273   7.834   7.448   3.164 -0.6177  1.4010  0.1062
  207MOL0     H27274   7.787   7.387   2.998 -0.9063 -0.5870 -1.0451
  207MOL0     H27275   7.591   7.463   3.159 -0.9324  0.5259  1.8775
  207MOL0     H27276   7.629   7.317   3.246 -0.5181 -1.5153 -0.6394
  207MOL0     H27277   7.595   7.395   2.884  1.3173  0.2232  1.5184
  207MOL0     H27278   7.481   7.107   2.697 -1.5971 -0.5480  1.1330
  207MOL0     H27279   7.439   7.284   2.678 -0.9690  0.0980  1.2089
  207MOL0     H27280   7.240   7.204   2.629  2.9986 -3.3784 -2.4247
  207MOL0     H27281   7.224   7.230   2.810 -1.4873 -0.3401 -0.7217
  207MOL0     H27282   7.272   6.983   2.640 -2.1744  1.1706 -0.9978
  207MOL0     H27283   7.276   6.979   2.820 -1.5955 -3.1106 -1.0770
  207MOL0     H27284   7.031   7.056   2.811 -0.9169  1.4207 -1.7309
  207MOL0     H27285   7.063   6.893   2.737 -0.5803 -0.2661 -2.0139
  207MOL0     H27286   6.833   6.931   2.744  1.7222  3.4939  1.3219
  207MOL0     H27287   6.592   6.926   2.691  1.6829 -0.4346  1.1548
  207MOL0     H27288   6.156   6.929   2.565  3.4419  0.7758  1.9193
  207MOL0     H27289   5.945   7.014   2.453 -2.7229  2.1070  2.2997
  207MOL0     H27290   5.953   7.408   2.229  0.6713 -0.5710  0.2870
  207MOL0     H27291   5.940   7.463   2.391  0.6459  2.1394 -1.8288
  207MOL0     H27292   5.745   7.529   2.301  0.1235 -0.0565 -3.5658
  207MOL0     H27293   5.690   7.362   2.365  1.4228 -1.3267  0.7653
  207MOL0     H27294   5.605   7.356   2.140 -0.9104  1.5847  0.5586
  207MOL0     H27295   5.768   7.278   2.129 -0.2025  1.0809 -3.2217
  207MOL0     H27296   5.705   7.574   2.064  3.1161  1.9495 -1.6209
  207MOL0     H27297   5.846   7.474   2.035  0.0226 -2.8409 -0.5219
  207MOL0     H27298   5.613   7.353   1.909 -0.4770 -0.3614  3.4493
  207MOL0     H27299   5.783   7.348   1.877 -1.2363 -2.3973  0.8217
  207MOL0     H27300   5.670   7.488   1.691 -1.2466  0.5569 -0.4907
  207MOL0     H27301   5.746   7.603   1.808  1.1491 -1.5692  1.1095
  207MOL0     H27302   5.455   7.499   1.851 -0.1352 -1.2955  1.8787
  207MOL0     H27303   5.541   7.636   1.931  3.8845 -0.6089 -0.6383
  207MOL0     H27304   5.466   7.641   1.624 -1.2815  0.2507 -0.6066
  207MOL0     H27305   5.558   7.754   1.709 -1.2435  0.3504 -0.7550
  207MOL0     H27306   6.139   7.405   2.424  1.5387  1.1871  1.7435
  207MOL0     H27307   6.333   7.329   2.528 -0.9507  1.9077  0.5305
  207MOL0     H27308   6.707   7.134   2.334  1.5860 -0.1129 -0.2329
  207MOL0     H27309   6.936   7.146   2.401 -0.1368 -0.0132  0.0579
  207MOL0     H27310   8.645   6.902   2.965 -2.5085  0.1397  0.9752
  207MOL0     H27311   8.797   6.753   2.861  1.6513 -2.1339  0.1838
  207MOL0     H27312   8.887   6.275   2.816  0.9303 -2.1843 -0.0206
  207MOL0     H27313   9.004   6.119   2.717 -2.5107  1.4173  0.0282
  207MOL0     H27314   9.463   6.153   2.565 -0.5548 -2.1842  1.3130
  207MOL0     H27315   9.343   6.272   2.508 -1.8355 -0.2242  1.3664
  207MOL0     H27316   9.301   5.974   2.449 -2.7911  0.1396 -3.4062
  207MOL0     H27317   9.233   6.112   2.374  0.2660  1.5161  1.3452
  207MOL0     H27318   9.453   6.170   2.283  2.1287 -0.3408 -1.2338
  207MOL0     H27319   9.357   6.043   2.212 -2.1029  0.3661  1.5070
  207MOL0     H27320   9.589   5.996   2.414  0.6301 -3.2091  1.1169
  207MOL0     H27321   9.466   5.879   2.364  1.7736  0.8642  3.0652
  207MOL0     H27322   9.761   5.929   2.053  2.1234 -0.2064  1.4747
  207MOL0     H27323   9.362   6.364   2.725 -0.9602 -0.3494 -2.2221
  207MOL0     H27324   9.231   6.531   2.847 -0.7955  0.2347  1.7081
  208MOL0     O27325  10.440   6.634   8.539  0.3715 -0.3888  0.3767
  208MOL0     C27326  10.518   6.635   8.637  0.0431  0.3835  0.0066
  208MOL0     O27327  10.498   6.578   8.763  0.3394  0.5358 -0.7678
  208MOL0     C27328  10.374   6.528   8.815 -1.0836 -0.1959  0.4528
  208MOL0     C27329  10.379   6.464   8.942  0.6736 -0.3846  0.3946
  208MOL0     C27330  10.270   6.408   8.999 -0.0053  0.4634 -0.1020
  208MOL0     C27331  10.149   6.417   8.944 -0.6896 -0.8701  0.3959
  208MOL0     O27332  10.030   6.375   8.999 -0.6183  0.0301 -0.4881
  208MOL0     C27333  10.036   6.268   9.087 -0.4253  0.8418 -0.5236
  208MOL0     C27334   9.890   6.222   9.101  1.1738 -0.1380 -0.7240
  208MOL0     C27335   9.867   6.073   9.144  0.6589 -1.4233 -0.4658
  208MOL0     C27336   9.925   5.964   9.047 -0.4369 -0.2375 -0.5124
  208MOL0     C27337   9.911   5.995   8.900 -0.5631  0.5321 -0.5656
  208MOL0     C27338   9.995   5.901   8.805 -0.0887 -0.2121 -0.0810
  208MOL0     C27339   9.992   5.748   8.845  0.4799 -0.8144  0.3248
  208MOL0     C27340  10.037   5.655   8.732  0.0990  1.0979 -0.0305
  208MOL0     N27341  10.063   5.517   8.787 -0.3827  0.1797 -0.4988
  208MOL0     C27342   9.974   5.416   8.820 -0.1686 -0.0105 -0.0055
  208MOL0     C27343  10.050   5.316   8.879  0.0105 -0.0440  0.6039
  208MOL0     C27344  10.012   5.178   8.931 -0.1037 -1.7366 -0.2562
  208MOL0     C27345  10.008   5.089   8.803  0.0884  0.2209 -0.2963
  208MOL0     C27346   9.986   4.939   8.834  0.4374  0.5351  0.6604
  208MOL0     C27347   9.864   4.899   8.911 -0.6604  0.9631  0.6558
  208MOL0     O27348   9.745   4.920   8.840  0.1085 -0.5712 -0.3649
  208MOL0     C27349   9.652   4.835   8.896 -0.4178 -0.4526 -0.3463
  208MOL0     C27350   9.623   4.829   9.037 -0.5170 -0.4586  0.3717
  208MOL0     C27351   9.528   4.738   9.077 -0.6754  0.9424 -0.1202
  208MOL0     C27352   9.453   4.654   8.985 -0.3211  0.5200  0.1648
  208MOL0     C27353   9.359   4.554   9.029  0.9308 -0.2963 -0.7589
  208MOL0     O27354   9.252   4.529   8.936 -0.3555  0.5556 -0.1419
  208MOL0     C27355   9.147   4.460   8.990  0.1967  0.3226 -0.2075
  208MOL0     C27356   9.039   4.540   9.043 -0.7974 -0.4573  0.1361
  208MOL0     C27357   8.922   4.472   9.087 -0.3839 -0.4116  0.9659
  208MOL0     C27358   8.911   4.330   9.082  0.3344 -0.8058  0.4298
  208MOL0     O27359   8.801   4.281   9.146 -0.3812 -0.1799  0.2395
  208MOL0     C27360   8.783   4.143   9.146 -0.1717  0.3397 -0.7799
  208MOL0     C27361   8.654   4.123   9.225 -1.1000 -0.0765  0.5456
  208MOL0     C27362   8.659   4.142   9.372  0.0217 -0.4779 -1.1667
  208MOL0     C27363   8.519   4.115   9.440 -0.0312  1.2016  0.9796
  208MOL0     C27364   8.523   4.145   9.587  0.3063 -0.8335 -0.2298
  208MOL0     C27365   8.387   4.162   9.658  0.2348  1.2099  0.3451
  208MOL0     C27366   8.416   4.159   9.814  0.4187 -0.8085  0.6359
  208MOL0     C27367   8.514   4.262   9.873 -0.9558 -0.4615  0.4198
  208MOL0    Cl27368   8.432   4.418   9.853 -0.3987 -0.2605 -0.1322
  208MOL0     C27369   9.021   4.258   9.021  0.5505  0.1457 -0.4002
  208MOL0     C27370   9.140   4.318   8.986 -0.5324 -0.2876  0.1754
  208MOL0     O27371   9.385   4.508   9.140  0.1582  1.0109  0.6778
  208MOL0     C27372   9.478   4.681   8.845 -0.7999  0.0499  0.1266
  208MOL0     C27373   9.580   4.768   8.800 -0.2981 -0.5534 -0.5407
  208MOL0     N27374  10.174   5.359   8.876 -0.6640 -0.4023 -0.0066
  208MOL0     N27375  10.185   5.484   8.835 -0.4573 -0.4112 -0.2410
  208MOL0     C27376  10.138   6.494   8.822 -0.0927  0.3020 -0.5971
  208MOL0     C27377  10.250   6.549   8.763 -0.4815  0.4907 -0.3833
  208MOL0     C27378  10.647   6.701   8.611  0.8197 -0.5374  0.3910
  208MOL0     C27379  10.687   6.726   8.476  0.3555  0.1826  0.3589
  208MOL0     C27380  10.807   6.798   8.450  0.0016  0.3177 -0.0259
  208MOL0     C27381  10.889   6.833   8.557 -1.0410 -0.0744  0.5773
  208MOL0     O27382  11.008   6.912   8.545 -0.1876  0.3540 -0.8474
  208MOL0     C27383  11.041   6.971   8.418  0.1346  0.4435  0.2930
  208MOL0     C27384  11.179   7.035   8.401  0.0626 -0.1387 -0.4418
  208MOL0     C27385  11.195   7.157   8.503 -0.3682  0.9080  0.3198
  208MOL0     C27386  11.325   7.238   8.482 -1.3069 -0.3424 -0.1521
  208MOL0     C27387  11.298   7.352   8.386 -0.8303 -0.2982  0.3778
  208MOL0     C27388  11.296   7.461   8.327 -0.6223 -0.3021 -0.4146
  208MOL0     C27389  10.852   6.802   8.685  0.0043 -0.4860  0.0278
  208MOL0     C27390  10.731   6.735   8.716  0.2026  0.3241 -0.1520
  208MOL0     H27391  10.471   6.455   8.998  1.7634  0.2305 -1.2437
  208MOL0     H27392  10.288   6.363   9.096  0.5216 -1.9237 -1.2491
  208MOL0     H27393  10.090   6.284   9.181  0.5640  2.1477 -1.2649
  208MOL0     H27394  10.097   6.191   9.038  1.4517  2.0563 -0.2127
  208MOL0     H27395   9.835   6.233   9.007  0.9295  0.6138 -0.5039
  208MOL0     H27396   9.837   6.285   9.174  1.8601  0.7705 -0.9947
  208MOL0     H27397   9.761   6.046   9.148  0.7503 -2.0466 -1.7017
  208MOL0     H27398   9.907   6.061   9.245 -0.7307  2.8969  0.8247
  208MOL0     H27399  10.028   5.951   9.082  1.6307  4.2840 -3.8117
  208MOL0     H27400   9.892   5.860   9.055 -1.3947  0.0593 -0.5158
  208MOL0     H27401   9.954   6.092   8.872  3.0148 -0.8731 -0.4474
  208MOL0     H27402   9.803   5.982   8.894 -0.4713 -1.2213  0.8259
  208MOL0     H27403  10.097   5.936   8.819  0.0550 -1.4127  2.3990
  208MOL0     H27404   9.967   5.909   8.700 -0.1140  0.8246 -0.0023
  208MOL0     H27405  10.059   5.735   8.930  1.4868  0.1374 -0.2874
  208MOL0     H27406   9.890   5.729   8.879  0.3017 -2.9834 -1.2275
  208MOL0     H27407  10.133   5.689   8.691  0.1268 -0.2396 -1.1469
  208MOL0     H27408   9.962   5.640   8.654  1.5525 -1.8944 -0.9968
  208MOL0     H27409   9.866   5.418   8.810 -0.2269  0.0221  0.6320
  208MOL0     H27410   9.914   5.176   8.979  0.7041  2.0552  1.9383
  208MOL0     H27411  10.087   5.147   9.004 -0.2306 -0.9999  0.1986
  208MOL0     H27412  10.100   5.088   8.745  0.8946 -2.1974  0.8936
  208MOL0     H27413   9.928   5.132   8.742 -0.0553 -1.1666 -1.1283
  208MOL0     H27414   9.987   4.892   8.735  0.5320 -0.4479  1.1144
  208MOL0     H27415  10.069   4.907   8.897 -2.0181 -0.2607  3.7553
  208MOL0     H27416   9.871   4.947   9.009  2.8852 -3.9025  3.2715
  208MOL0     H27417   9.872   4.795   8.946 -2.2002  1.1892  1.7617
  208MOL0     H27418   9.664   4.894   9.113 -2.1775  0.7334  0.3082
  208MOL0     H27419   9.510   4.723   9.183  0.7271 -0.0183  0.0225
  208MOL0     H27420   9.051   4.648   9.042  1.3407 -0.4975  3.4483
  208MOL0     H27421   8.842   4.528   9.134 -1.9851 -3.0528  1.6338
  208MOL0     H27422   8.855   4.077   9.196 -0.5905  0.3627 -0.1345
  208MOL0     H27423   8.775   4.115   9.041  0.4433  1.5221 -1.1683
  208MOL0     H27424   8.629   4.017   9.212 -0.7316 -0.4466  2.5038
  208MOL0     H27425   8.572   4.175   9.175 -1.0258 -1.2687 -0.8804
  208MOL0     H27426   8.691   4.244   9.395 -2.2003 -0.4044  2.3251
  208MOL0     H27427   8.725   4.072   9.424 -0.1868 -0.3709 -0.7512
  208MOL0     H27428   8.443   4.175   9.390 -0.6166  0.1726  0.6061
  208MOL0     H27429   8.508   4.008   9.420  2.4308  0.8793  1.0622
  208MOL0     H27430   8.573   4.240   9.604 -0.8978 -0.2796  0.3619
  208MOL0     H27431   8.565   4.061   9.644 -2.5986 -1.9556  0.4326
  208MOL0     H27432   8.329   4.076   9.625  1.1907  0.5977  0.2051
  208MOL0     H27433   8.332   4.251   9.625 -0.4000  0.8570  0.4557
  208MOL0     H27434   8.325   4.170   9.874  2.5368 -1.0958  4.2124
  208MOL0     H27435   8.454   4.062   9.847  2.2357  0.4787  2.5984
  208MOL0     H27436   8.611   4.271   9.823  0.5746 -0.1997  3.2455
  208MOL0     H27437   8.537   4.228   9.974 -0.9705 -0.8282  0.3016
  208MOL0     H27438   9.017   4.150   9.006 -0.3023  0.1497 -0.2435
  208MOL0     H27439   9.228   4.273   8.940  3.4912  2.9660  3.7379
  208MOL0     H27440   9.414   4.627   8.775 -0.3491 -2.2784  1.3816
  208MOL0     H27441   9.600   4.788   8.695 -1.2463  1.5119 -0.3766
  208MOL0     H27442  10.043   6.519   8.776 -1.2483 -3.2948 -0.5006
  208MOL0     H27443  10.243   6.601   8.668  1.1429 -2.8816 -2.5490
  208MOL0     H27444  10.639   6.696   8.383  1.0574 -0.4999  0.2068
  208MOL0     H27445  10.827   6.815   8.345 -1.9894  1.1023 -0.3131
  208MOL0     H27446  10.964   7.043   8.390 -1.6904 -1.0707  1.1697
  208MOL0     H27447  11.028   6.893   8.342 -2.0213  0.0320  1.0199
  208MOL0     H27448  11.258   6.962   8.422  1.0097  0.7215 -0.9089
  208MOL0     H27449  11.183   7.059   8.294 -3.4344  1.1225 -0.4130
  208MOL0     H27450  11.197   7.122   8.607  0.1197 -0.6479 -0.1837
  208MOL0     H27451  11.109   7.223   8.493 -0.3717  1.0333  1.0775
  208MOL0     H27452  11.348   7.283   8.579  1.0418 -2.0358  0.1635
  208MOL0     H27453  11.409   7.177   8.448 -1.0113 -0.7794  1.3244
  208MOL0     H27454  11.296   7.545   8.260  1.5983 -0.2045 -0.3522
  208MOL0     H27455  10.930   6.832   8.755 -2.5986  3.0383  1.7763
  208MOL0     H27456  10.699   6.730   8.820  0.0802  1.8302 -0.0902
  209MOL0     O27457  10.504   3.206   5.285 -0.2305 -0.0032  0.3125
  209MOL0     C27458  10.555   3.129   5.199  0.0540  0.3676 -0.5439
  209MOL0     O27459  10.682   3.085   5.191  0.2033 -1.0440  0.1921
  209MOL0     C27460  10.786   3.112   5.277  0.0235 -0.4479  0.7353
  209MOL0     C27461  10.914   3.068   5.247  0.3778  0.2800 -0.1951
  209MOL0     C27462  11.022   3.092   5.333  0.6666  0.2175  0.5679
  209MOL0     C27463  11.000   3.162   5.453  0.4462  0.4774  0.2573
  209MOL0     O27464  11.088   3.171   5.559 -0.2529  0.5072 -0.4375
  209MOL0     C27465  11.215   3.219   5.519 -0.5357  1.0332 -0.0440
  209MOL0     C27466  11.285   3.301   5.631  0.2285 -0.4631  0.0294
  209MOL0     C27467  11.207   3.410   5.691  0.8214  0.0621 -0.7278
  209MOL0     C27468  11.300   3.476   5.801  0.4892  0.0802  0.5031
  209MOL0     C27469  11.230   3.488   5.932  0.3267 -0.1598 -0.0050
  209MOL0     C27470  11.273   3.607   6.008  0.7194 -0.5401  0.2731
  209MOL0     C27471  11.230   3.596   6.155  0.4910 -0.3984  0.1199
  209MOL0     C27472  11.079   3.576   6.185  0.3259  0.7327 -0.4873
  209MOL0     N27473  10.977   3.649   6.103 -0.0438  0.5956  0.1826
  209MOL0     C27474  10.931   3.775   6.122 -0.6634 -0.5737  0.9610
  209MOL0     C27475  10.841   3.792   6.022  0.1210 -0.0228 -0.4516
  209MOL0     C27476  10.764   3.914   6.012 -0.9988 -0.2104 -0.5361
  209MOL0     C27477  10.643   3.919   6.106 -0.8651  0.1846 -0.5046
  209MOL0     C27478  10.556   4.040   6.072  0.2369  0.6085  0.0020
  209MOL0     C27479  10.405   4.004   6.091 -0.4144 -0.1385 -0.1829
  209MOL0     O27480  10.327   4.122   6.114 -0.6656 -0.2018 -0.5947
  209MOL0     C27481  10.194   4.118   6.108  0.6884  0.6150  0.3960
  209MOL0     C27482  10.110   4.230   6.117 -0.2670 -0.2693 -0.0684
  209MOL0     C27483   9.976   4.216   6.126  0.4632  0.1654  0.4073
  209MOL0     C27484   9.911   4.087   6.118  0.2433 -0.8225  1.3446
  209MOL0     C27485   9.765   4.069   6.107 -0.5017  0.1278  0.3504
  209MOL0     O27486   9.688   4.188   6.092 -0.1400  0.5053 -0.7130
  209MOL0     C27487   9.552   4.175   6.094 -0.1555  0.6277 -0.2669
  209MOL0     C27488   9.482   4.070   6.027  0.3873  0.1743 -0.0980
  209MOL0     C27489   9.337   4.072   6.028 -0.0351  0.3221  0.2658
  209MOL0     C27490   9.276   4.173   6.099  0.5785  0.3637  0.6481
  209MOL0     O27491   9.141   4.197   6.099 -0.1175  0.1608  0.9435
  209MOL0     C27492   9.057   4.079   6.076 -1.0018  0.7108 -0.2406
  209MOL0     C27493   8.902   4.124   6.085 -0.5114  0.1774  0.7068
  209MOL0     C27494   8.804   4.016   6.070 -0.3175 -0.4672 -0.3922
  209MOL0     C27495   8.666   4.078   6.052 -0.2595 -0.2352  1.0250
  209MOL0     C27496   8.554   3.979   6.074  0.5602 -0.2046 -0.0199
  209MOL0     C27497   8.409   4.034   6.034  0.2942 -0.6642 -0.2618
  209MOL0     C27498   8.400   4.128   5.919 -0.0442  1.5527 -0.1632
  209MOL0     C27499   8.254   4.168   5.881  0.1131 -0.3104  0.9671
  209MOL0    Cl27500   8.164   4.212   6.024  0.1049  0.3617 -0.3133
  209MOL0     C27501   9.347   4.267   6.168 -0.0786  0.2120  0.0293
  209MOL0     C27502   9.482   4.274   6.161 -0.4900  0.0062  0.3965
  209MOL0     O27503   9.724   3.954   6.130 -0.3342  0.5277 -0.1893
  209MOL0     C27504   9.991   3.978   6.096  0.3483 -0.1281 -0.2769
  209MOL0     C27505  10.130   3.993   6.109 -0.3249 -0.8633  1.4444
  209MOL0     N27506  10.809   3.669   5.971 -0.1680 -0.5098 -0.1542
  209MOL0     N27507  10.906   3.586   6.016  0.0787 -0.2200  0.3535
  209MOL0     C27508  10.874   3.215   5.479 -0.5793 -0.5510  1.2663
  209MOL0     C27509  10.774   3.200   5.388  0.1263 -0.6005 -0.1194
  209MOL0     C27510  10.463   3.045   5.127  0.1517 -0.0172  0.7379
  209MOL0     C27511  10.344   3.015   5.183  0.1500 -0.7754  0.0577
  209MOL0     C27512  10.260   2.929   5.124  0.3573 -0.1252  0.2628
  209MOL0     C27513  10.288   2.866   5.001  0.4170  0.1243 -0.9955
  209MOL0     O27514  10.214   2.783   4.930  1.5136  0.1949  0.3040
  209MOL0     C27515  10.092   2.834   4.882 -0.9480  0.2024 -0.0296
  209MOL0     C27516   9.968   2.753   4.909 -0.0260  0.3867  0.6990
  209MOL0     C27517   9.942   2.646   4.805  0.8092  0.2239  1.2106
  209MOL0     C27518   9.800   2.581   4.774 -0.2168 -0.5583 -0.2410
  209MOL0     C27519   9.758   2.492   4.884 -0.1886 -0.0372 -0.3643
  209MOL0     C27520   9.738   2.417   4.980  0.7166  0.5754  1.0574
  209MOL0     C27521  10.410   2.906   4.938 -0.6011  0.9517  0.2202
  209MOL0     C27522  10.500   2.991   5.005  0.4341  0.4377  0.1223
  209MOL0     H27523  10.927   3.023   5.149 -1.2415  0.0540 -0.3404
  209MOL0     H27524  11.116   3.041   5.314 -0.1757 -0.2163 -3.1105
  209MOL0     H27525  11.215   3.266   5.420 -3.1577  1.5138  0.1196
  209MOL0     H27526  11.283   3.134   5.503 -0.0367  1.5320 -0.5944
  209MOL0     H27527  11.361   3.360   5.579 -0.7375 -0.1937 -1.1573
  209MOL0     H27528  11.326   3.236   5.709  1.6486 -2.0035 -1.8967
  209MOL0     H27529  11.120   3.361   5.736  1.8314 -3.0144 -1.8457
  209MOL0     H27530  11.177   3.484   5.617  0.5614 -0.8447 -1.5445
  209MOL0     H27531  11.398   3.429   5.803 -1.0610 -3.4525  0.1185
  209MOL0     H27532  11.305   3.581   5.771 -2.6605  0.9609  2.5361
  209MOL0     H27533  11.253   3.406   6.000  1.9100 -1.1553 -1.6462
  209MOL0     H27534  11.121   3.492   5.917  0.4454 -0.2915 -0.9249
  209MOL0     H27535  11.248   3.702   5.959 -0.5028 -1.1091 -0.2498
  209MOL0     H27536  11.381   3.621   5.995  0.1336  2.5607 -3.0028
  209MOL0     H27537  11.281   3.516   6.208 -0.2463 -0.0935  1.3326
  209MOL0     H27538  11.255   3.688   6.209 -1.6392 -0.9949  2.3262
  209MOL0     H27539  11.073   3.599   6.291  0.6806 -1.0483 -0.0457
  209MOL0     H27540  11.051   3.471   6.172 -0.6019  0.7678  1.0047
  209MOL0     H27541  10.942   3.855   6.194 -0.0972  1.0970 -0.8899
  209MOL0     H27542  10.736   3.917   5.906 -0.5571 -1.4437 -0.7091
  209MOL0     H27543  10.834   3.994   6.038 -1.7667 -0.2525  1.9196
  209MOL0     H27544  10.680   3.929   6.209  2.0668  3.1687 -1.6675
  209MOL0     H27545  10.586   3.828   6.086 -0.2308 -0.3514  0.0966
  209MOL0     H27546  10.582   4.112   6.151  3.1715 -1.7379  1.3896
  209MOL0     H27547  10.575   4.078   5.971  0.0107 -1.3109 -0.8030
  209MOL0     H27548  10.400   3.931   6.173 -1.6321  1.6313  1.3933
  209MOL0     H27549  10.381   3.968   5.990  0.1850  0.4319 -0.5340
  209MOL0     H27550  10.142   4.333   6.128 -0.6549 -0.0840 -0.6130
  209MOL0     H27551   9.920   4.308   6.133  0.4721  0.0596  3.5899
  209MOL0     H27552   9.547   4.006   5.968  1.0335  0.0093  0.7720
  209MOL0     H27553   9.284   3.990   5.981  0.8750 -0.3576  0.3902
  209MOL0     H27554   9.074   4.004   6.155  1.2298  2.5344  1.1409
  209MOL0     H27555   9.071   4.033   5.978  1.9043  1.0598 -0.0712
  209MOL0     H27556   8.892   4.198   6.006  0.8771  0.1933  0.5279
  209MOL0     H27557   8.890   4.170   6.184 -0.1146  0.4569  0.6288
  209MOL0     H27558   8.822   3.956   6.159 -0.2206 -0.2856 -0.2881
  209MOL0     H27559   8.821   3.955   5.981 -0.8917  1.8212 -2.1798
  209MOL0     H27560   8.657   4.160   6.123  0.1901  0.9338 -0.2096
  209MOL0     H27561   8.660   4.118   5.950 -1.0043 -1.0468  0.7405
  209MOL0     H27562   8.556   3.943   6.177 -1.0642  2.1663  0.9363
  209MOL0     H27563   8.564   3.896   6.003  1.1480  0.8220 -1.1826
  209MOL0     H27564   8.368   4.084   6.123 -1.1679 -2.4268  0.1014
  209MOL0     H27565   8.343   3.950   6.010 -2.3668  0.4945  2.2057
  209MOL0     H27566   8.446   4.221   5.953  4.1463 -0.7031  1.0107
  209MOL0     H27567   8.448   4.074   5.837 -2.7551 -2.6312  0.6964
  209MOL0     H27568   8.203   4.079   5.842  0.3661 -0.0437  0.0094
  209MOL0     H27569   8.245   4.242   5.802  0.1949  0.3548  1.5671
  209MOL0     H27570   9.296   4.348   6.218 -0.9566 -0.7945  0.8170
  209MOL0     H27571   9.518   4.370   6.197  0.4240  0.4170 -1.4805
  209MOL0     H27572   9.940   3.884   6.081 -2.4275  1.0910  0.7996
  209MOL0     H27573  10.187   3.904   6.131  0.3096 -0.7766  0.2465
  209MOL0     H27574  10.862   3.273   5.569 -2.2745  1.9878 -0.4680
  209MOL0     H27575  10.686   3.254   5.421  0.7966  1.6388 -1.7193
  209MOL0     H27576  10.308   3.065   5.273 -0.8612  4.3437 -2.7679
  209MOL0     H27577  10.172   2.898   5.179  0.4070  0.2541  0.5685
  209MOL0     H27578  10.105   2.856   4.776 -1.6494 -2.7887 -0.8580
  209MOL0     H27579  10.072   2.923   4.942 -3.7045  0.2488 -0.8688
  209MOL0     H27580   9.966   2.719   5.013 -0.3660  0.2803  0.6578
  209MOL0     H27581   9.883   2.822   4.908  0.4455  0.9869  0.9043
  209MOL0     H27582  10.013   2.564   4.821  1.7051  0.6983 -0.2163
  209MOL0     H27583   9.960   2.704   4.715 -1.3930 -0.9524 -0.0723
  209MOL0     H27584   9.733   2.665   4.755  0.9749 -0.3559 -4.8311
  209MOL0     H27585   9.806   2.519   4.684  2.5082  0.1844 -0.6590
  209MOL0     H27586   9.728   2.345   5.059 -0.0094 -0.3101  0.1951
  209MOL0     H27587  10.434   2.866   4.840  0.4345 -1.5337  1.4087
  209MOL0     H27588  10.593   3.020   4.956 -0.7873  1.3553 -1.7952
  210MOL0     O27589  11.234   8.852   3.511  0.3498 -0.2399 -0.3053
  210MOL0     C27590  11.230   8.854   3.391  0.0377 -0.0747 -0.8580
  210MOL0     O27591  11.123   8.807   3.319 -0.7907  0.6708 -0.0279
  210MOL0     C27592  11.020   8.761   3.388  1.2852 -0.6192 -0.3405
  210MOL0     C27593  10.916   8.851   3.424  0.6120  0.4784  0.2420
  210MOL0     C27594  10.799   8.798   3.484 -0.2701  0.8911 -0.1957
  210MOL0     C27595  10.790   8.657   3.509 -0.0369  0.4787 -0.1343
  210MOL0     O27596  10.671   8.608   3.561  0.1618 -0.0598 -0.0844
  210MOL0     C27597  10.651   8.467   3.575  0.2757  0.4209 -0.4372
  210MOL0     C27598  10.538   8.433   3.676  0.4339  0.0738  0.4175
  210MOL0     C27599  10.411   8.495   3.602 -0.0745 -0.0521 -0.4585
  210MOL0     C27600  10.283   8.445   3.664 -0.0396  0.2605 -0.0417
  210MOL0     C27601  10.216   8.534   3.774 -0.6009  0.5770  0.4478
  210MOL0     C27602  10.078   8.479   3.819  0.7682  0.6195 -1.3565
  210MOL0     C27603   9.961   8.489   3.728  1.5553 -0.1421 -0.7755
  210MOL0     C27604   9.833   8.438   3.804  0.2891  0.3635  0.4169
  210MOL0     N27605   9.711   8.489   3.739 -0.3111  0.6194  0.2746
  210MOL0     C27606   9.596   8.516   3.807  0.1704 -0.4129 -0.0348
  210MOL0     C27607   9.502   8.554   3.715 -0.2286 -0.3974 -0.5792
  210MOL0     C27608   9.357   8.551   3.741  0.4649  0.7783  0.3990
  210MOL0     C27609   9.319   8.672   3.818 -0.0705 -0.2590 -0.7057
  210MOL0     C27610   9.341   8.803   3.743  0.0616  1.0726 -0.1062
  210MOL0     C27611   9.251   8.811   3.625 -0.6211 -0.5620  0.1111
  210MOL0     O27612   9.216   8.942   3.589 -0.6405 -0.4273  0.0433
  210MOL0     C27613   9.087   8.953   3.539  0.7774 -0.3378  0.2869
  210MOL0     C27614   9.001   9.062   3.568 -0.1591  0.9188  0.1752
  210MOL0     C27615   8.871   9.058   3.530 -0.4534  0.1200 -0.9686
  210MOL0     C27616   8.820   8.956   3.445  1.2080 -0.7182 -0.6699
  210MOL0     C27617   8.683   8.945   3.393  0.7583 -0.2390 -0.4934
  210MOL0     O27618   8.650   8.854   3.294 -0.5451 -0.6034 -0.1481
  210MOL0     C27619   8.532   8.853   3.233  0.0254  0.3676 -0.3359
  210MOL0     C27620   8.404   8.920   3.262 -1.3120 -0.2424  0.1452
  210MOL0     C27621   8.293   8.904   3.174  0.1525  0.1124 -0.6167
  210MOL0     C27622   8.286   8.823   3.066 -0.0513 -0.0006 -0.5723
  210MOL0     O27623   8.179   8.799   2.994  0.3898 -0.5812  0.0459
  210MOL0     C27624   8.049   8.847   3.042 -0.8258 -0.6487  0.4813
  210MOL0     C27625   7.960   8.749   2.973 -0.4664 -0.3689  0.7560
  210MOL0     C27626   7.812   8.760   3.007  0.3650 -0.5127 -0.4481
  210MOL0     C27627   7.730   8.674   2.917  0.2456 -0.1900  0.0352
  210MOL0     C27628   7.584   8.653   2.962  0.0008 -0.7355  0.0693
  210MOL0     C27629   7.484   8.596   2.860  0.7116 -0.1467 -0.5036
  210MOL0     C27630   7.348   8.607   2.928  0.3428 -0.1482  0.4644
  210MOL0     C27631   7.242   8.571   2.829 -0.2591 -0.2371  0.4018
  210MOL0    Cl27632   7.270   8.401   2.794  0.1905  0.5676  0.2891
  210MOL0     C27633   8.411   8.764   3.032 -0.0531  0.0757  0.8771
  210MOL0     C27634   8.526   8.783   3.117 -0.6593 -0.6015 -0.1109
  210MOL0     O27635   8.601   9.011   3.449 -0.1246  0.0932 -0.0891
  210MOL0     C27636   8.912   8.856   3.402  0.2142  0.2534  0.6661
  210MOL0     C27637   9.034   8.850   3.450  0.0793 -0.7664 -0.1894
  210MOL0     N27638   9.571   8.567   3.597 -0.4004  0.0283  0.2447
  210MOL0     N27639   9.690   8.526   3.614  0.2132 -0.0241 -0.1079
  210MOL0     C27640  10.900   8.571   3.472  1.2137 -0.7649  0.1848
  210MOL0     C27641  11.011   8.622   3.406 -0.3394 -0.0892 -0.0957
  210MOL0     C27642  11.348   8.929   3.333 -0.4040 -0.3851 -0.6058
  210MOL0     C27643  11.368   8.941   3.194 -0.1259 -0.6232 -0.3992
  210MOL0     C27644  11.487   9.009   3.151  0.3330 -0.0338 -0.1247
  210MOL0     C27645  11.588   9.060   3.237 -0.2394  0.3244  0.3099
  210MOL0     O27646  11.701   9.122   3.190  0.4353 -1.4350 -0.2391
  210MOL0     C27647  11.693   9.231   3.094  0.7239 -0.8408  0.5819
  210MOL0     C27648  11.824   9.303   3.064 -0.3983  0.6459  0.5120
  210MOL0     C27649  11.882   9.355   3.187  0.2036  0.4515  0.2069
  210MOL0     C27650  11.806   9.464   3.261  0.3713  0.4579  0.2386
  210MOL0     C27651  11.751   9.570   3.171 -0.1722  0.1153 -0.1685
  210MOL0     C27652  11.725   9.673   3.109 -0.9387  0.5516 -0.0112
  210MOL0     C27653  11.558   9.060   3.371  0.5038 -0.7527 -0.0641
  210MOL0     C27654  11.446   8.994   3.418 -0.1149 -0.9523  0.7260
  210MOL0     H27655  10.922   8.952   3.384 -0.1524  0.4820  0.1149
  210MOL0     H27656  10.718   8.867   3.507  1.0398  1.8576  1.8568
  210MOL0     H27657  10.737   8.410   3.612  1.5017  0.8247 -2.5117
  210MOL0     H27658  10.618   8.425   3.480  3.0755 -4.9437  0.5857
  210MOL0     H27659  10.556   8.474   3.776  0.6654  0.0897  0.3705
  210MOL0     H27660  10.524   8.327   3.699 -2.1137  0.2149 -0.2073
  210MOL0     H27661  10.410   8.458   3.500  0.3731  0.5440 -0.6890
  210MOL0     H27662  10.414   8.605   3.604  0.8314 -0.0698  1.4636
  210MOL0     H27663  10.218   8.458   3.577  1.8850 -0.1706 -1.6197
  210MOL0     H27664  10.284   8.340   3.694  1.2281  0.1905 -0.2577
  210MOL0     H27665  10.201   8.631   3.725 -0.3449  0.9692  1.1188
  210MOL0     H27666  10.281   8.558   3.860 -0.2921  1.0572  0.0904
  210MOL0     H27667  10.065   8.546   3.904  1.2203 -2.1485  1.0809
  210MOL0     H27668  10.098   8.379   3.858  3.5005  2.1558  1.6681
  210MOL0     H27669   9.936   8.580   3.674 -4.2948 -1.2465 -0.5915
  210MOL0     H27670   9.982   8.411   3.654  1.3784 -2.8829  1.8466
  210MOL0     H27671   9.841   8.457   3.911 -4.3110 -0.4259  1.1046
  210MOL0     H27672   9.833   8.329   3.791  1.2124  0.5504 -1.6493
  210MOL0     H27673   9.569   8.490   3.908  2.2251  1.9793  1.2404
  210MOL0     H27674   9.341   8.470   3.813  0.8979  0.8706  0.6059
  210MOL0     H27675   9.298   8.536   3.651  0.2616  1.4776  0.4100
  210MOL0     H27676   9.375   8.667   3.912  0.7703  1.5470 -1.0784
  210MOL0     H27677   9.217   8.668   3.857  0.8962  1.7746  2.4297
  210MOL0     H27678   9.313   8.889   3.804  0.0047  2.8319 -2.5016
  210MOL0     H27679   9.448   8.819   3.728  0.6865 -0.2515  2.3670
  210MOL0     H27680   9.158   8.758   3.647 -0.9376 -0.9859 -2.0974
  210MOL0     H27681   9.287   8.754   3.539 -3.4864 -0.5959 -1.1643
  210MOL0     H27682   9.036   9.148   3.625 -0.2960 -0.1335  1.9386
  210MOL0     H27683   8.801   9.137   3.551 -2.8646 -1.4735 -2.4835
  210MOL0     H27684   8.392   8.981   3.350 -0.5730  0.2391 -0.0817
  210MOL0     H27685   8.209   8.966   3.203  1.4260  0.5353  2.5947
  210MOL0     H27686   8.029   8.946   3.000  1.1752 -1.2360 -2.0939
  210MOL0     H27687   8.022   8.850   3.148 -3.5855 -1.4393 -0.1077
  210MOL0     H27688   7.994   8.648   2.995  0.4502 -0.0825  0.6974
  210MOL0     H27689   7.961   8.772   2.866  0.8120  0.0983  0.8580
  210MOL0     H27690   7.770   8.860   2.990  3.7940  1.4172  1.2525
  210MOL0     H27691   7.796   8.747   3.114  1.5774 -2.0202 -0.4193
  210MOL0     H27692   7.729   8.721   2.818  0.3462 -0.3656 -0.0503
  210MOL0     H27693   7.779   8.577   2.903  0.7797 -0.1390  1.3820
  210MOL0     H27694   7.561   8.758   2.982 -0.6523 -0.9045  0.2445
  210MOL0     H27695   7.600   8.601   3.056  4.1152  3.5874  2.1085
  210MOL0     H27696   7.504   8.494   2.827  3.3078 -0.5616  1.9942
  210MOL0     H27697   7.477   8.668   2.777  1.0941  2.5351  1.6323
  210MOL0     H27698   7.334   8.532   3.006 -0.9008 -0.4847 -0.0615
  210MOL0     H27699   7.334   8.711   2.959  1.5117 -1.0235  4.5882
  210MOL0     H27700   7.252   8.639   2.744 -0.6266 -0.6995 -0.0156
  210MOL0     H27701   7.142   8.583   2.872 -0.7828 -1.9676 -0.2318
  210MOL0     H27702   8.411   8.700   2.945 -2.2310  0.6858  0.3635
  210MOL0     H27703   8.623   8.739   3.099  1.1033  2.2658  1.5583
  210MOL0     H27704   8.874   8.784   3.329  2.4614  0.7960 -1.1497
  210MOL0     H27705   9.101   8.766   3.433  3.0024  0.2825  4.4650
  210MOL0     H27706  10.890   8.463   3.475 -3.2492 -0.7102 -2.7190
  210MOL0     H27707  11.099   8.562   3.383 -0.4249  0.1594 -1.1703
  210MOL0     H27708  11.293   8.902   3.127 -2.2415  0.0157  1.4737
  210MOL0     H27709  11.512   9.007   3.045 -1.2994 -0.7465 -0.5255
  210MOL0     H27710  11.620   9.307   3.127 -0.4204 -1.3547 -0.7050
  210MOL0     H27711  11.664   9.179   3.003  1.1542 -2.4836  1.3483
  210MOL0     H27712  11.889   9.232   3.013 -1.4005  2.5245 -3.8477
  210MOL0     H27713  11.815   9.384   2.991  0.1487  0.2059 -0.0544
  210MOL0     H27714  11.979   9.393   3.154 -0.3915  2.1190  0.2903
  210MOL0     H27715  11.895   9.271   3.256 -0.3642 -0.3213 -0.6127
  210MOL0     H27716  11.727   9.426   3.328 -0.9925  0.1483 -1.4639
  210MOL0     H27717  11.882   9.504   3.328  1.8577 -0.1204 -1.0545
  210MOL0     H27718  11.691   9.765   3.066 -1.4211  0.9791  1.2374
  210MOL0     H27719  11.626   9.121   3.431  2.2123 -0.2403 -2.3911
  210MOL0     H27720  11.439   8.990   3.527  1.4103 -0.8786  0.8488
  211MOL0     O27721   3.011   1.104   8.291  0.0535  0.2004  0.4947
  211MOL0     C27722   3.020   1.000   8.360  0.0302  0.6570 -1.4690
  211MOL0     O27723   2.921   0.934   8.421 -0.1342  0.1054 -0.4126
  211MOL0     C27724   2.807   0.916   8.356  0.8426 -0.5960 -0.2281
  211MOL0     C27725   2.779   0.958   8.228 -0.4033 -0.2619 -0.1271
  211MOL0     C27726   2.653   0.938   8.176 -0.0193 -1.2495  0.1758
  211MOL0     C27727   2.552   0.869   8.246 -0.9281  0.4221 -0.3231
  211MOL0     O27728   2.421   0.853   8.210  0.7021  0.2028  0.2151
  211MOL0     C27729   2.377   0.836   8.076  0.3766 -0.0730 -0.3133
  211MOL0     C27730   2.446   0.727   7.992  0.9492  0.8051 -0.1660
  211MOL0     C27731   2.367   0.696   7.865 -0.0472 -1.0261 -0.6915
  211MOL0     C27732   2.376   0.815   7.767  0.3954 -0.4734 -0.4853
  211MOL0     C27733   2.315   0.786   7.630 -1.1879  0.1799 -0.7262
  211MOL0     C27734   2.170   0.803   7.634  0.6501 -0.6177 -0.3425
  211MOL0     C27735   2.101   0.757   7.501 -0.3413  0.2009  0.4132
  211MOL0     C27736   1.952   0.763   7.508  0.2493 -0.7817  0.2515
  211MOL0     N27737   1.884   0.704   7.388 -0.6579 -0.0698  0.0572
  211MOL0     C27738   1.928   0.607   7.305 -0.0923 -0.4080 -0.3056
  211MOL0     C27739   1.828   0.589   7.212 -0.4256 -0.0729  0.1707
  211MOL0     C27740   1.817   0.487   7.100  1.2526 -0.4413 -0.7653
  211MOL0     C27741   1.670   0.484   7.049  0.0439 -0.2704  0.0428
  211MOL0     C27742   1.658   0.384   6.930 -0.2031 -1.4747 -0.7961
  211MOL0     C27743   1.518   0.375   6.878 -0.3230 -0.7004  0.9336
  211MOL0     O27744   1.499   0.464   6.770 -0.0147 -0.1319 -0.2028
  211MOL0     C27745   1.395   0.436   6.687  0.5788  1.0769  0.3437
  211MOL0     C27746   1.268   0.402   6.738  1.3509 -1.0198  0.0929
  211MOL0     C27747   1.165   0.395   6.641  1.1209  0.6559  0.2623
  211MOL0     C27748   1.187   0.419   6.502 -0.1593 -1.0106  0.0720
  211MOL0     C27749   1.073   0.424   6.412 -1.0635  0.0818  0.2552
  211MOL0     O27750   0.956   0.444   6.478 -0.6372 -0.3385 -0.1101
  211MOL0     C27751   0.837   0.419   6.410  0.4335 -1.3827  0.0152
  211MOL0     C27752   0.778   0.517   6.339  0.3187  0.0543  0.0367
  211MOL0     C27753   0.648   0.511   6.293 -0.7626  0.3183  0.5390
  211MOL0     C27754   0.577   0.392   6.303 -0.3324 -0.1635 -0.9021
  211MOL0     O27755   0.449   0.383   6.259 -0.1057 -0.5743 -0.5237
  211MOL0     C27756   0.415   0.255   6.196 -0.1538  0.2041  0.1667
  211MOL0     C27757   0.286   0.288   6.113 -0.1169  0.3167 -0.0977
  211MOL0     C27758   0.337   0.348   5.981  0.4611  0.4592  0.3072
  211MOL0     C27759   0.207   0.371   5.903  0.0968 -0.4181 -0.7551
  211MOL0     C27760   0.223   0.462   5.781  0.5023  0.3461 -0.8189
  211MOL0     C27761   0.096   0.482   5.702  0.2428  0.1123  0.3504
  211MOL0     C27762   0.107   0.574   5.583  0.3677  0.7600  0.6602
  211MOL0     C27763   0.105   0.724   5.610 -1.0572  0.1853 -0.2561
  211MOL0    Cl27764   0.126   0.810   5.462 -0.2554 -0.0035  0.5743
  211MOL0     C27765   0.632   0.292   6.385  0.1667 -0.5809  0.5395
  211MOL0     C27766   0.760   0.307   6.439 -0.6117 -0.4838  0.0072
  211MOL0     O27767   1.090   0.407   6.294 -0.4704 -0.1739  0.4411
  211MOL0     C27768   1.321   0.453   6.468  0.4061 -0.3031 -0.3484
  211MOL0     C27769   1.429   0.454   6.557  0.2194 -0.3247 -1.1039
  211MOL0     N27770   1.723   0.671   7.242  0.1688  0.5687  0.0233
  211MOL0     N27771   1.758   0.737   7.348 -0.2957 -0.4356  0.3790
  211MOL0     C27772   2.585   0.820   8.371 -0.0832  0.4714  0.6294
  211MOL0     C27773   2.706   0.841   8.433 -1.2382  1.0065  0.3502
  211MOL0     C27774   3.156   0.946   8.397 -0.2917 -0.8070 -0.5698
  211MOL0     C27775   3.164   0.810   8.430  0.6306 -0.7474 -0.1868
  211MOL0     C27776   3.286   0.748   8.456 -0.6352 -0.1555  0.1916
  211MOL0     C27777   3.410   0.819   8.437 -0.0835 -0.5650  0.9860
  211MOL0     O27778   3.534   0.767   8.459  0.6651  0.3063 -0.3679
  211MOL0     C27779   3.553   0.634   8.408  0.3607 -0.2026 -1.6839
  211MOL0     C27780   3.589   0.640   8.257 -0.0784 -0.5047 -0.9691
  211MOL0     C27781   3.610   0.506   8.197 -1.4023  0.2187  0.0802
  211MOL0     C27782   3.721   0.425   8.263 -0.0491 -0.1415 -0.0935
  211MOL0     C27783   3.728   0.289   8.203  0.2647  0.1655  0.5494
  211MOL0     C27784   3.726   0.172   8.151  0.2390 -0.7622 -0.6169
  211MOL0     C27785   3.398   0.961   8.400  0.9182  0.7351 -0.0542
  211MOL0     C27786   3.273   1.022   8.381  0.6408 -0.3822 -0.4912
  211MOL0     H27787   2.848   0.999   8.154  0.5886 -4.2437 -1.6723
  211MOL0     H27788   2.637   0.995   8.085  0.5933 -1.3189  0.0175
  211MOL0     H27789   2.398   0.935   8.032 -2.5391  1.7069  1.9114
  211MOL0     H27790   2.269   0.830   8.064  0.1932  4.2052 -3.1085
  211MOL0     H27791   2.443   0.633   8.048  3.4182 -0.2783 -1.7014
  211MOL0     H27792   2.549   0.754   7.969  0.5715  1.0178 -1.7965
  211MOL0     H27793   2.264   0.682   7.899  0.0261  1.1603  0.6673
  211MOL0     H27794   2.412   0.609   7.817  3.1861 -0.2835  0.7074
  211MOL0     H27795   2.322   0.903   7.804 -2.4911 -1.8618 -1.1392
  211MOL0     H27796   2.476   0.857   7.751  1.2748 -2.6012 -0.9386
  211MOL0     H27797   2.337   0.684   7.597 -0.6125  0.2815 -0.6614
  211MOL0     H27798   2.349   0.854   7.551  2.0801  0.6385  0.9220
  211MOL0     H27799   2.150   0.909   7.655 -0.0610 -0.6431 -0.8638
  211MOL0     H27800   2.129   0.741   7.714  0.4218 -0.3295 -0.2353
  211MOL0     H27801   2.129   0.823   7.418 -2.5896  1.1916  0.3851
  211MOL0     H27802   2.128   0.658   7.462 -2.7258  0.2683 -1.7216
  211MOL0     H27803   1.920   0.868   7.500 -0.8564 -1.2088 -1.6025
  211MOL0     H27804   1.922   0.712   7.600 -0.1577 -0.2196  0.4404
  211MOL0     H27805   2.016   0.545   7.323 -0.8987 -0.8249  2.7804
  211MOL0     H27806   1.853   0.390   7.134  0.4455 -0.5414 -0.1677
  211MOL0     H27807   1.871   0.515   7.009  1.6735 -2.3905 -1.1427
  211MOL0     H27808   1.652   0.583   7.008  0.8686 -0.0038  0.3088
  211MOL0     H27809   1.602   0.453   7.129  2.1355 -1.2202  1.5503
  211MOL0     H27810   1.713   0.417   6.842 -0.9028  0.6726 -0.4850
  211MOL0     H27811   1.696   0.284   6.954  1.7377 -1.1902 -2.4209
  211MOL0     H27812   1.438   0.390   6.951 -1.0653  1.2037 -0.1795
  211MOL0     H27813   1.505   0.277   6.831  1.8154  0.2249 -1.8854
  211MOL0     H27814   1.257   0.384   6.844  1.7390  0.4252  0.4111
  211MOL0     H27815   1.069   0.366   6.683  0.5432 -0.7177 -1.8112
  211MOL0     H27816   0.834   0.609   6.321 -0.0360 -0.3571 -3.9834
  211MOL0     H27817   0.620   0.600   6.237 -1.0362  1.3396  2.2383
  211MOL0     H27818   0.382   0.185   6.273 -2.0847  0.2457 -0.5756
  211MOL0     H27819   0.495   0.208   6.138 -0.3752  1.6491 -1.3605
  211MOL0     H27820   0.220   0.357   6.168  1.6061  0.2895  2.1320
  211MOL0     H27821   0.240   0.191   6.093 -1.2512  0.8509 -0.1511
  211MOL0     H27822   0.409   0.280   5.935 -1.0337 -1.7141  1.0039
  211MOL0     H27823   0.378   0.449   5.995  0.2695  0.8356 -1.6120
  211MOL0     H27824   0.172   0.270   5.879 -2.8422  0.1377  0.7507
  211MOL0     H27825   0.135   0.415   5.972  2.7559  0.6837  1.4916
  211MOL0     H27826   0.295   0.409   5.719 -0.3563  0.0439 -1.5851
  211MOL0     H27827   0.259   0.558   5.819  1.6459 -1.0956  2.1086
  211MOL0     H27828   0.019   0.532   5.762 -2.0246 -1.3075 -1.2021
  211MOL0     H27829   0.055   0.388   5.663  0.0701  0.1202  0.5100
  211MOL0     H27830   0.204   0.553   5.537  0.0574  1.1064 -0.1884
  211MOL0     H27831   0.023   0.556   5.515  0.6576 -3.7637  1.2106
  211MOL0     H27832   0.186   0.764   5.671 -1.5535  2.7426 -1.1635
  211MOL0     H27833   0.010   0.752   5.657 -2.2828  2.5649 -3.6892
  211MOL0     H27834   0.570   0.209   6.418  2.7504 -2.9051 -0.0765
  211MOL0     H27835   0.808   0.236   6.505  1.8937  2.2269  1.2958
  211MOL0     H27836   1.344   0.455   6.362 -1.3049  1.4425 -0.7402
  211MOL0     H27837   1.531   0.482   6.530  1.1772 -1.5554  0.9892
  211MOL0     H27838   2.514   0.749   8.411 -0.8060  0.4851 -0.5818
  211MOL0     H27839   2.723   0.807   8.535 -1.0271 -0.5742 -0.1928
  211MOL0     H27840   3.078   0.744   8.425 -1.3727  1.7344 -1.0023
  211MOL0     H27841   3.280   0.642   8.479  2.6358 -0.7564 -1.1131
  211MOL0     H27842   3.476   0.562   8.437  1.7328 -1.0289  0.1032
  211MOL0     H27843   3.642   0.612   8.467 -1.8312 -1.8082  1.3045
  211MOL0     H27844   3.512   0.690   8.197  0.5848 -0.5443 -1.8827
  211MOL0     H27845   3.677   0.704   8.247 -0.3996  0.3683  1.3055
  211MOL0     H27846   3.648   0.526   8.096 -0.1798 -1.9111  0.0714
  211MOL0     H27847   3.518   0.450   8.182  0.0721 -2.7447  1.2226
  211MOL0     H27848   3.819   0.473   8.259 -0.5480  1.0090  0.8772
  211MOL0     H27849   3.701   0.413   8.370  2.0942  0.3047  0.3960
  211MOL0     H27850   3.737   0.071   8.115 -0.9528 -1.3168  0.4722
  211MOL0     H27851   3.484   1.028   8.399 -0.1931  2.2763 -2.6319
  211MOL0     H27852   3.265   1.125   8.350 -1.1271 -1.2093 -3.1802
  212MOL0     O27853   6.260  10.533   4.955 -0.0372  0.0567 -0.2178
  212MOL0     C27854   6.349  10.532   5.035 -0.4999  0.0471  1.5046
  212MOL0     O27855   6.392  10.423   5.107 -0.2610  0.0026  0.4760
  212MOL0     C27856   6.315  10.310   5.091 -0.1560  0.2663  0.8111
  212MOL0     C27857   6.174  10.313   5.062 -0.1533  0.7901 -0.6910
  212MOL0     C27858   6.114  10.185   5.047 -0.4988 -0.0285 -0.2555
  212MOL0     C27859   6.189  10.061   5.052 -0.0728 -0.1135 -0.3823
  212MOL0     O27860   6.131   9.936   5.032 -0.0011  0.1370  0.7879
  212MOL0     C27861   5.991   9.925   4.992 -0.0119 -0.9643  0.8271
  212MOL0     C27862   5.962   9.773   4.950 -0.3558  0.6993  0.2736
  212MOL0     C27863   5.814   9.748   4.969  0.9110 -0.1753 -1.2668
  212MOL0     C27864   5.796   9.689   5.112 -0.8530  0.1887  0.1539
  212MOL0     C27865   5.644   9.656   5.147 -0.0834  0.4145  0.3582
  212MOL0     C27866   5.628   9.586   5.282  0.3191  0.1464  0.3099
  212MOL0     C27867   5.480   9.542   5.309 -0.1259  0.1213  0.2476
  212MOL0     C27868   5.480   9.435   5.419 -0.4649  0.0881  0.5855
  212MOL0     N27869   5.345   9.370   5.431 -0.4855 -0.7891 -0.0349
  212MOL0     C27870   5.235   9.451   5.472  0.2917  0.1214 -0.4576
  212MOL0     C27871   5.125   9.374   5.451 -1.0963 -0.2185  0.0611
  212MOL0     C27872   4.976   9.396   5.465 -0.0822  0.2687  0.7213
  212MOL0     C27873   4.930   9.535   5.420  0.1553 -0.5250  0.1982
  212MOL0     C27874   4.779   9.550   5.406 -0.4558 -0.3056 -0.5849
  212MOL0     C27875   4.727   9.667   5.319  0.1028 -0.8371  1.1782
  212MOL0     O27876   4.583   9.657   5.295 -0.4405 -0.3517  0.4501
  212MOL0     C27877   4.509   9.745   5.219 -0.4793  0.1379  0.4268
  212MOL0     C27878   4.369   9.732   5.212  1.1688 -0.6242 -1.1141
  212MOL0     C27879   4.294   9.801   5.119 -0.3083  0.3560 -0.5390
  212MOL0     C27880   4.357   9.888   5.029 -0.4766 -0.0436  0.5337
  212MOL0     C27881   4.272   9.956   4.922  0.0057  1.2047 -0.1965
  212MOL0     O27882   4.142   9.900   4.902  0.3498  0.6694  0.5923
  212MOL0     C27883   4.080   9.940   4.785  0.4105 -1.4266  0.3387
  212MOL0     C27884   4.148   9.932   4.652  0.3122  0.0773  0.0412
  212MOL0     C27885   4.076   9.986   4.542 -0.0954  0.4232  0.3518
  212MOL0     C27886   3.955  10.054   4.559 -1.2339  0.6704  0.4736
  212MOL0     O27887   3.876  10.108   4.458  0.1190  0.5225 -0.0554
  212MOL0     C27888   3.941  10.174   4.346  0.3236  0.1983  0.0643
  212MOL0     C27889   3.818  10.226   4.264 -0.4062  0.1638  0.4489
  212MOL0     C27890   3.864  10.331   4.166  0.4431  0.6189  0.1892
  212MOL0     C27891   3.742  10.395   4.106 -1.4620 -0.8956  0.6663
  212MOL0     C27892   3.782  10.502   4.001 -0.4535  0.4414  0.4888
  212MOL0     C27893   3.664  10.537   3.907  0.3897  0.1034 -0.3900
  212MOL0     C27894   3.546  10.605   3.981  0.0069 -1.0322 -0.5728
  212MOL0     C27895   3.416  10.586   3.894 -0.9917  0.0630  0.7657
  212MOL0    Cl27896   3.424  10.664   3.723  0.2171 -0.1993  0.2116
  212MOL0     C27897   3.900  10.066   4.683  0.4982  0.1914 -0.2265
  212MOL0     C27898   3.964  10.013   4.790 -0.4574  0.4138  0.1175
  212MOL0     O27899   4.322  10.046   4.852  0.0410  0.4599  0.2915
  212MOL0     C27900   4.496   9.898   5.041  0.4109 -0.1492 -0.2413
  212MOL0     C27901   4.575   9.831   5.134  0.3679 -0.3910 -0.1450
  212MOL0     N27902   5.178   9.251   5.403  0.3134  0.0413 -0.6642
  212MOL0     N27903   5.304   9.255   5.381  1.0764 -0.7304  0.4761
  212MOL0     C27904   6.330  10.061   5.074  0.8820 -0.4043  0.7044
  212MOL0     C27905   6.389  10.192   5.094  0.0697  1.1727  0.9586
  212MOL0     C27906   6.426  10.655   5.044  0.7583 -0.1013  0.0177
  212MOL0     C27907   6.374  10.774   5.005 -0.0724 -0.1961  0.2771
  212MOL0     C27908   6.452  10.887   5.018 -0.4799 -0.1828  1.2489
  212MOL0     C27909   6.570  10.894   5.082  1.2421  0.9487 -0.3147
  212MOL0     O27910   6.623  11.020   5.102  0.3187  0.1982 -0.6172
  212MOL0     C27911   6.741  11.033   5.178  0.3223 -0.3945 -0.3537
  212MOL0     C27912   6.726  11.028   5.335  0.3508 -0.0932 -1.1320
  212MOL0     C27913   6.694  11.166   5.393 -0.3921 -1.1468  0.3798
  212MOL0     C27914   6.547  11.193   5.384  0.1990  0.1631 -0.4135
  212MOL0     C27915   6.526  11.336   5.419 -0.6281  0.1174  0.1407
  212MOL0     C27916   6.519  11.452   5.455 -0.2044  1.0953 -0.6579
  212MOL0     C27917   6.623  10.766   5.132  0.7615 -0.2474  0.1008
  212MOL0     C27918   6.557  10.656   5.100 -0.7907  0.3563  0.2718
  212MOL0     H27919   6.101  10.391   5.076 -0.6334  0.3130 -0.5146
  212MOL0     H27920   6.007  10.178   5.036 -0.7388  0.8903  1.2213
  212MOL0     H27921   5.985   9.999   4.912  3.4367 -3.8139 -2.4157
  212MOL0     H27922   5.922   9.961   5.069  2.5586 -0.9846  3.2773
  212MOL0     H27923   6.023   9.708   5.013  0.7080 -1.4743 -2.7727
  212MOL0     H27924   5.994   9.758   4.847  3.4837 -1.2415  1.5474
  212MOL0     H27925   5.762   9.680   4.902 -1.7829  0.6189 -0.1376
  212MOL0     H27926   5.761   9.844   4.961 -0.3347 -0.6823  0.3252
  212MOL0     H27927   5.853   9.596   5.120 -0.5456  0.1925 -1.6157
  212MOL0     H27928   5.840   9.761   5.183 -0.8803 -0.9636  1.3744
  212MOL0     H27929   5.624   9.580   5.070  0.1571  0.0367  0.6601
  212MOL0     H27930   5.575   9.740   5.153  0.2068  0.6117  0.9663
  212MOL0     H27931   5.668   9.656   5.357  2.7062  0.9569 -1.5709
  212MOL0     H27932   5.692   9.498   5.290  0.8752  0.5819  0.8473
  212MOL0     H27933   5.418   9.631   5.322 -2.9561 -1.6369 -0.3613
  212MOL0     H27934   5.438   9.499   5.217  2.8088 -0.0336 -1.1265
  212MOL0     H27935   5.486   9.491   5.513 -1.3471  2.0637 -0.4852
  212MOL0     H27936   5.554   9.356   5.405 -2.9026 -1.7963 -3.0087
  212MOL0     H27937   5.245   9.548   5.518  2.7258 -0.6950  0.9216
  212MOL0     H27938   4.932   9.372   5.562  1.7346 -4.3916  0.6685
  212MOL0     H27939   4.936   9.318   5.399  2.3111 -0.2909 -0.1926
  212MOL0     H27940   4.974   9.555   5.322 -0.3769  1.6204  0.3547
  212MOL0     H27941   4.985   9.605   5.483  0.8079  0.0879 -1.0103
  212MOL0     H27942   4.737   9.456   5.371  1.6221 -1.5838  0.1984
  212MOL0     H27943   4.744   9.563   5.509 -2.9711 -1.8590 -1.1617
  212MOL0     H27944   4.776   9.682   5.223 -1.2411  0.0792  0.5980
  212MOL0     H27945   4.752   9.756   5.377 -1.0248  0.6008 -0.4490
  212MOL0     H27946   4.309   9.663   5.269  0.9635  0.3645 -0.0859
  212MOL0     H27947   4.188   9.774   5.119 -0.6967  0.8069  4.7727
  212MOL0     H27948   4.241   9.879   4.631 -0.1682  0.1224 -2.5774
  212MOL0     H27949   4.121   9.993   4.443 -3.3486 -0.9452 -1.3597
  212MOL0     H27950   4.010  10.103   4.301 -1.1717 -1.6387  0.5474
  212MOL0     H27951   3.993  10.262   4.386  0.5696 -0.3643  1.0047
  212MOL0     H27952   3.738  10.265   4.328 -0.4549 -1.1423  1.2234
  212MOL0     H27953   3.781  10.136   4.213  1.4845 -0.6936  0.5197
  212MOL0     H27954   3.926  10.284   4.089 -0.5468  2.4862 -1.8690
  212MOL0     H27955   3.929  10.398   4.224 -0.8078  2.4168 -0.4101
  212MOL0     H27956   3.681  10.318   4.058 -1.3432 -0.9814  0.6539
  212MOL0     H27957   3.672  10.445   4.174  0.8075  3.1163  0.3690
  212MOL0     H27958   3.858  10.459   3.934 -0.2010  0.3744  0.8138
  212MOL0     H27959   3.840  10.587   4.039  1.3692  0.5182 -2.1596
  212MOL0     H27960   3.632  10.439   3.872  2.8933 -0.3825 -1.5784
  212MOL0     H27961   3.693  10.589   3.815  0.9322 -1.9750 -1.4614
  212MOL0     H27962   3.528  10.560   4.079  1.6664  0.4648  0.4869
  212MOL0     H27963   3.559  10.712   3.997 -1.3398 -0.5716 -2.2898
  212MOL0     H27964   3.328  10.619   3.950  0.5608  2.0762  2.1694
  212MOL0     H27965   3.397  10.478   3.892  2.7146 -0.7420 -0.4590
  212MOL0     H27966   3.810  10.127   4.687  0.3857  0.3905 -3.5960
  212MOL0     H27967   3.932  10.036   4.891  1.2531  1.1400  0.5335
  212MOL0     H27968   4.540   9.965   4.968  0.9988 -2.5040 -2.1887
  212MOL0     H27969   4.682   9.849   5.135  0.5657 -1.5090 -0.2751
  212MOL0     H27970   6.390   9.972   5.087  1.1831  0.0588  2.7839
  212MOL0     H27971   6.494  10.193   5.120 -0.2981  0.0099  2.6347
  212MOL0     H27972   6.276  10.777   4.958 -1.6001 -1.4507  3.0766
  212MOL0     H27973   6.409  10.981   4.983 -0.9361  0.8377  4.2432
  212MOL0     H27974   6.796  11.126   5.162  1.3119 -0.6609  1.3204
  212MOL0     H27975   6.815  10.957   5.150  0.0371 -1.2109  1.0325
  212MOL0     H27976   6.639  10.967   5.361  0.8212 -0.2707  0.0809
  212MOL0     H27977   6.809  10.984   5.391  0.5117  2.0062  0.3463
  212MOL0     H27978   6.754  11.246   5.348 -1.6572  0.2135  1.0010
  212MOL0     H27979   6.714  11.163   5.500  1.1979 -0.4218  0.1301
  212MOL0     H27980   6.501  11.164   5.289  0.9963  0.7710 -1.0053
  212MOL0     H27981   6.498  11.125   5.454 -2.0502  0.3938 -1.6669
  212MOL0     H27982   6.511  11.556   5.480 -0.2815  1.2595 -1.3242
  212MOL0     H27983   6.711  10.761   5.195  0.4315  0.6942  0.6658
  212MOL0     H27984   6.601  10.565   5.139 -4.4074 -1.0682  1.3893
  213MOL0     O27985   4.157  10.142   6.809  0.0143  0.4134 -0.3327
  213MOL0     C27986   4.206  10.098   6.915  0.5497  0.0051  0.1127
  213MOL0     O27987   4.135  10.011   7.003  0.2008  0.4455  0.4398
  213MOL0     C27988   4.038   9.918   6.963 -0.6354 -0.3742  0.0422
  213MOL0     C27989   3.905   9.947   6.986  0.1235 -0.2237 -0.3208
  213MOL0     C27990   3.807   9.870   6.931 -0.3243 -0.5266 -0.0060
  213MOL0     C27991   3.836   9.749   6.863  0.3164 -0.9819 -0.5482
  213MOL0     O27992   3.729   9.675   6.812 -0.6051 -0.0456 -0.1370
  213MOL0     C27993   3.761   9.556   6.745  0.1407  0.1196  0.9357
  213MOL0     C27994   3.636   9.494   6.676 -0.6100  0.2400 -0.0874
  213MOL0     C27995   3.540   9.457   6.792 -0.6284 -0.5279 -0.2628
  213MOL0     C27996   3.400   9.437   6.742  0.4671 -0.6250 -0.4771
  213MOL0     C27997   3.306   9.367   6.841 -0.0604 -0.0543 -0.8633
  213MOL0     C27998   3.250   9.474   6.940  0.4609 -0.6324  0.0061
  213MOL0     C27999   3.131   9.429   7.032 -0.9439 -0.4887  0.0745
  213MOL0     C28000   3.076   9.544   7.115 -0.3374 -0.4259 -1.0990
  213MOL0     N28001   3.180   9.602   7.205 -0.3448  0.0784 -0.2200
  213MOL0     C28002   3.282   9.681   7.165 -0.8275 -0.6762 -0.7888
  213MOL0     C28003   3.341   9.728   7.279  0.6470  0.1555  0.8305
  213MOL0     C28004   3.446   9.835   7.281 -0.0989  0.3239 -0.2917
  213MOL0     C28005   3.581   9.769   7.286 -0.2164 -0.6070 -0.1813
  213MOL0     C28006   3.694   9.878   7.275 -1.1943 -0.3944  0.0509
  213MOL0     C28007   3.825   9.824   7.344 -0.2370  1.1948  0.2909
  213MOL0     O28008   3.923   9.922   7.353 -0.3138 -0.2692 -0.1264
  213MOL0     C28009   4.044   9.886   7.389  0.3617  0.1101  0.5613
  213MOL0     C28010   4.083   9.762   7.450 -0.6126 -0.1707 -0.0714
  213MOL0     C28011   4.211   9.756   7.507  0.3075 -0.4382  0.8161
  213MOL0     C28012   4.307   9.862   7.487 -0.0330  0.4651 -0.6236
  213MOL0     C28013   4.442   9.843   7.546 -0.0771  0.2333 -0.3632
  213MOL0     O28014   4.549   9.884   7.457  0.0498 -0.6452  0.2049
  213MOL0     C28015   4.673   9.879   7.511  0.5042 -1.0362  0.4280
  213MOL0     C28016   4.764   9.799   7.442 -0.2326 -0.3115 -0.9691
  213MOL0     C28017   4.894   9.778   7.486  0.2625  0.1542  0.1342
  213MOL0     C28018   4.940   9.846   7.601  0.2082  0.3104 -0.2090
  213MOL0     O28019   5.060   9.838   7.649 -0.3758  0.4182  0.2028
  213MOL0     C28020   5.158   9.763   7.579 -0.0077 -0.3335 -0.5551
  213MOL0     C28021   5.293   9.763   7.647  1.0715 -0.0772 -0.4601
  213MOL0     C28022   5.404   9.674   7.579  0.5700  0.6080 -0.4513
  213MOL0     C28023   5.523   9.648   7.674  0.1624 -0.6171  0.3514
  213MOL0     C28024   5.647   9.586   7.614 -1.1951 -0.0963  1.0543
  213MOL0     C28025   5.702   9.650   7.484  0.1379 -0.9733  0.0890
  213MOL0     C28026   5.725   9.806   7.490 -0.3299  0.2398  0.1117
  213MOL0     C28027   5.779   9.851   7.356  1.0123 -1.0688  0.5522
  213MOL0    Cl28028   5.833  10.019   7.370 -0.0680  0.3167 -0.1187
  213MOL0     C28029   4.843   9.922   7.677 -0.0773  0.7494 -0.4163
  213MOL0     C28030   4.712   9.937   7.625 -0.0547  0.3740  0.5288
  213MOL0     O28031   4.451   9.795   7.661 -1.2122 -0.0538 -0.1400
  213MOL0     C28032   4.269   9.972   7.425  0.0401 -0.6221  0.8489
  213MOL0     C28033   4.142   9.980   7.371  1.2601  0.3325 -0.6351
  213MOL0     N28034   3.261   9.681   7.384 -0.1939 -0.2959  0.1083
  213MOL0     N28035   3.160   9.612   7.333 -0.2041 -0.1374 -0.4990
  213MOL0     C28036   3.966   9.717   6.844  0.6072 -0.7862  0.5460
  213MOL0     C28037   4.066   9.801   6.894  0.7059 -0.4024 -0.6786
  213MOL0     C28038   4.330  10.139   6.972 -0.1014 -0.5692  0.1254
  213MOL0     C28039   4.412  10.226   6.909  0.1873  0.5205  1.3295
  213MOL0     C28040   4.541  10.254   6.950 -0.7361 -0.0921 -0.4438
  213MOL0     C28041   4.582  10.207   7.072 -0.1202  0.7070 -0.8537
  213MOL0     O28042   4.694  10.274   7.124  0.1064  0.4134  0.2788
  213MOL0     C28043   4.758  10.232   7.249  0.6231 -0.1250  0.2807
  213MOL0     C28044   4.901  10.250   7.243 -0.8746  0.2202  1.1699
  213MOL0     C28045   4.980  10.191   7.356 -0.8736  0.0163  0.4842
  213MOL0     C28046   5.132  10.239   7.359  0.1353  0.0200 -0.2576
  213MOL0     C28047   5.182  10.169   7.471  1.1249  0.6429 -0.7169
  213MOL0     C28048   5.229  10.121   7.576  0.4990  0.3192 -0.0019
  213MOL0     C28049   4.499  10.123   7.153  0.9714 -0.4213  0.7976
  213MOL0     C28050   4.377  10.083   7.091  0.9988  0.7070  0.5737
  213MOL0     H28051   3.882  10.031   7.051  2.1457  0.4670 -0.4239
  213MOL0     H28052   3.708   9.910   6.951  0.1598  0.2651  0.9567
  213MOL0     H28053   3.803   9.484   6.816 -0.7856  1.6612  3.1536
  213MOL0     H28054   3.829   9.575   6.662 -0.6878 -3.0523 -0.6340
  213MOL0     H28055   3.669   9.405   6.622 -0.7013  0.3161 -0.2668
  213MOL0     H28056   3.594   9.555   6.596  0.9084 -0.2296 -1.2979
  213MOL0     H28057   3.540   9.534   6.869 -0.6458 -0.2416 -0.5476
  213MOL0     H28058   3.582   9.369   6.842  0.2325  1.4039  2.6068
  213MOL0     H28059   3.355   9.533   6.715 -1.2351 -1.3070 -0.2018
  213MOL0     H28060   3.403   9.380   6.648 -2.1248 -0.8237 -0.5178
  213MOL0     H28061   3.368   9.292   6.892  0.0574  0.8256  0.3281
  213MOL0     H28062   3.219   9.328   6.787  0.4098  0.9138 -2.3861
  213MOL0     H28063   3.227   9.572   6.897 -0.4547 -0.3215  1.1462
  213MOL0     H28064   3.339   9.502   6.997  0.5757  2.0388 -1.3147
  213MOL0     H28065   3.056   9.403   6.956 -0.6202  2.7648 -1.5432
  213MOL0     H28066   3.166   9.341   7.087  0.5658  0.7790  1.2226
  213MOL0     H28067   2.992   9.517   7.180  0.0904 -1.0916 -0.8127
  213MOL0     H28068   3.042   9.621   7.045 -1.6907 -1.0141 -1.1339
  213MOL0     H28069   3.310   9.716   7.066  0.2148 -0.9691 -0.6113
  213MOL0     H28070   3.443   9.904   7.366 -1.4924 -1.6962  1.3790
  213MOL0     H28071   3.436   9.902   7.195 -2.1425  0.0328 -0.3375
  213MOL0     H28072   3.589   9.699   7.202  3.3212  0.3372 -0.8001
  213MOL0     H28073   3.602   9.716   7.379  3.7326  0.6615 -0.1787
  213MOL0     H28074   3.721   9.903   7.172 -2.1725 -3.2158 -0.9857
  213MOL0     H28075   3.656   9.970   7.322  0.8327 -0.1168  1.2480
  213MOL0     H28076   3.848   9.731   7.291  1.3046  2.4584 -1.3608
  213MOL0     H28077   3.800   9.796   7.447 -2.6947  0.5676 -0.3983
  213MOL0     H28078   4.013   9.680   7.443 -1.5198  0.7424 -4.3815
  213MOL0     H28079   4.243   9.669   7.562  0.0227 -0.1583  1.4385
  213MOL0     H28080   4.728   9.744   7.356  0.6953  1.9775 -2.9199
  213MOL0     H28081   4.963   9.710   7.437  1.0016 -0.1048  1.5060
  213MOL0     H28082   5.181   9.811   7.484  0.6468  0.9853  0.2270
  213MOL0     H28083   5.144   9.656   7.569  1.5418 -0.5127 -1.2094
  213MOL0     H28084   5.289   9.737   7.753 -3.3786  4.3526  0.8634
  213MOL0     H28085   5.323   9.868   7.640  1.2306 -0.1935 -1.6112
  213MOL0     H28086   5.435   9.733   7.493 -0.2415  1.0144 -0.4788
  213MOL0     H28087   5.369   9.574   7.550 -0.1918 -0.4395  3.4112
  213MOL0     H28088   5.550   9.747   7.709  1.7691 -0.6173 -0.7793
  213MOL0     H28089   5.485   9.595   7.762  0.3794  0.2044  0.9552
  213MOL0     H28090   5.621   9.482   7.594  0.3830 -0.6625  1.7574
  213MOL0     H28091   5.729   9.591   7.686 -0.4160 -2.0905  0.3769
  213MOL0     H28092   5.634   9.640   7.399  0.3380  2.8673 -0.6872
  213MOL0     H28093   5.792   9.599   7.448  1.6305  0.0772  2.0913
  213MOL0     H28094   5.628   9.853   7.507  0.3326  1.0970  1.7516
  213MOL0     H28095   5.791   9.817   7.577 -1.4468  0.9280  0.8863
  213MOL0     H28096   5.698   9.847   7.281 -0.3270 -1.8281  1.9780
  213MOL0     H28097   5.857   9.787   7.315 -2.2546 -4.1110 -1.4871
  213MOL0     H28098   4.883   9.976   7.762 -1.4624  1.2535 -0.0616
  213MOL0     H28099   4.640  10.000   7.677 -2.5544  0.2447 -2.4948
  213MOL0     H28100   4.333  10.059   7.410 -0.9426 -0.0140  0.1202
  213MOL0     H28101   4.108  10.062   7.308  4.0660  1.6590 -0.5618
  213MOL0     H28102   4.010   9.631   6.796  0.2880 -0.7627  0.2150
  213MOL0     H28103   4.170   9.773   6.884  0.9335  0.0815  0.2511
  213MOL0     H28104   4.363  10.261   6.819 -0.1740 -2.3949  0.3047
  213MOL0     H28105   4.593  10.323   6.885  0.1464 -1.1539 -0.9007
  213MOL0     H28106   4.732  10.127   7.264 -1.1075  0.4937  2.0861
  213MOL0     H28107   4.705  10.288   7.327 -1.5904 -0.8819 -0.5946
  213MOL0     H28108   4.946  10.212   7.151  0.6494  3.9632  0.1970
  213MOL0     H28109   4.914  10.358   7.239 -0.8830  0.1971 -1.8496
  213MOL0     H28110   4.974  10.083   7.339 -2.3370 -0.4410  3.3706
  213MOL0     H28111   4.934  10.212   7.452  2.1022  2.4839  1.5395
  213MOL0     H28112   5.184  10.204   7.270 -2.0760 -2.4094 -0.7325
  213MOL0     H28113   5.128  10.347   7.380  2.1961  0.0299  0.3209
  213MOL0     H28114   5.276  10.091   7.667  1.4997  0.5293 -0.4334
  213MOL0     H28115   4.526  10.072   7.245  2.6037 -1.0963 -0.0005
  213MOL0     H28116   4.299  10.031   7.146  1.6759 -1.1186 -0.1208
  214MOL0     O28117   4.391   2.708   0.737  0.2546 -0.3492 -0.6991
  214MOL0     C28118   4.500   2.769   0.750  0.5073  0.3629 -0.6384
  214MOL0     O28119   4.516   2.886   0.818  0.1388 -0.3910  0.6521
  214MOL0     C28120   4.393   2.944   0.863 -0.1875  0.0012  0.0099
  214MOL0     C28121   4.314   3.004   0.769 -0.6312  0.1388 -0.4241
  214MOL0     C28122   4.187   3.047   0.809 -0.6045  0.8100 -0.7713
  214MOL0     C28123   4.141   3.040   0.942 -0.4610 -0.2491  0.1434
  214MOL0     O28124   4.021   3.082   0.998 -0.0860 -0.0712  0.0014
  214MOL0     C28125   3.938   3.171   0.926  0.8130  0.3532  0.0665
  214MOL0     C28126   3.818   3.194   1.020 -0.1221  0.8273  0.1150
  214MOL0     C28127   3.728   3.310   0.962 -0.5465  0.4691 -0.3494
  214MOL0     C28128   3.597   3.316   1.042 -0.5065  0.8865  0.4287
  214MOL0     C28129   3.520   3.439   0.998 -0.5869  0.8653  0.1995
  214MOL0     C28130   3.375   3.434   1.052 -0.6545  0.4487  0.3314
  214MOL0     C28131   3.289   3.553   1.001 -0.4047  1.9042 -0.5231
  214MOL0     C28132   3.156   3.581   1.083  0.4165  0.4240  0.1391
  214MOL0     N28133   3.091   3.460   1.127 -0.1323 -0.7010  0.3113
  214MOL0     C28134   3.055   3.374   1.030  0.3728  0.2414 -0.1431
  214MOL0     C28135   2.984   3.275   1.098  1.1685 -0.0176 -0.1919
  214MOL0     C28136   2.920   3.158   1.031  1.1143  0.3091  0.2294
  214MOL0     C28137   2.759   3.158   1.016 -0.0178  0.4536 -0.6571
  214MOL0     C28138   2.688   3.137   1.153  0.4358  0.0199 -0.2992
  214MOL0     C28139   2.540   3.133   1.146 -0.4002 -0.3322  0.3336
  214MOL0     O28140   2.489   3.005   1.096 -0.1456  0.1713 -0.8109
  214MOL0     C28141   2.352   3.006   1.065 -0.2969  0.0886  0.5234
  214MOL0     C28142   2.310   2.907   0.986  0.4219 -0.2570 -0.1893
  214MOL0     C28143   2.168   2.882   0.970  0.5133  0.5409 -0.7738
  214MOL0     C28144   2.073   2.973   1.023  0.3279 -0.3738 -0.4902
  214MOL0     C28145   1.922   2.950   1.004  0.2446 -0.3249  0.1367
  214MOL0     O28146   1.836   3.043   1.070  0.7637 -0.0204 -0.9018
  214MOL0     C28147   1.704   3.042   1.041  0.1540 -0.1206 -0.4516
  214MOL0     C28148   1.657   3.072   0.911 -0.6276 -0.1841  0.0537
  214MOL0     C28149   1.523   3.072   0.877 -0.3667  0.2974 -0.7733
  214MOL0     C28150   1.433   3.045   0.981 -0.3889 -0.1486 -0.1119
  214MOL0     O28151   1.303   3.058   0.940  0.5485  0.1924 -0.4110
  214MOL0     C28152   1.215   2.959   1.001  0.5918 -1.1709  0.5283
  214MOL0     C28153   1.071   3.001   0.973 -0.0535 -0.4886 -0.2142
  214MOL0     C28154   1.048   3.143   1.030 -0.3031 -0.2407  1.0550
  214MOL0     C28155   0.904   3.193   0.993 -0.9485  0.9341 -1.5741
  214MOL0     C28156   0.786   3.105   1.030  0.9769  0.5741 -0.3486
  214MOL0     C28157   0.670   3.106   0.937  0.6253  0.7334  0.2775
  214MOL0     C28158   0.537   3.070   1.003 -0.0614 -0.2769  1.7428
  214MOL0     C28159   0.417   3.069   0.907 -0.3952  0.6630  0.4537
  214MOL0    Cl28160   0.277   3.029   0.989  0.1692 -0.2958  0.1540
  214MOL0     C28161   1.482   3.027   1.116 -1.1245 -0.1490  0.2037
  214MOL0     C28162   1.615   3.007   1.142  0.5348 -0.1342  0.5054
  214MOL0     O28163   1.904   2.869   0.917  0.3375 -0.7214  0.3480
  214MOL0     C28164   2.123   3.073   1.105 -0.1366  0.4817  0.2891
  214MOL0     C28165   2.265   3.085   1.127 -0.4436 -0.1534 -0.2165
  214MOL0     N28166   2.982   3.307   1.234  0.3167 -0.2550 -0.1250
  214MOL0     N28167   3.033   3.422   1.249 -0.5701  0.1623  0.0437
  214MOL0     C28168   4.216   2.968   1.032 -0.4735 -0.7733  0.1985
  214MOL0     C28169   4.343   2.918   0.991  0.2491  0.0946  0.9418
  214MOL0     C28170   4.621   2.714   0.689  0.4436  0.2546 -0.3674
  214MOL0     C28171   4.639   2.574   0.690  0.6780  0.0705 -0.4061
  214MOL0     C28172   4.759   2.520   0.635 -0.5572 -0.0623  0.8290
  214MOL0     C28173   4.853   2.605   0.579  1.1035 -0.9090  1.3089
  214MOL0     O28174   4.975   2.552   0.542 -0.7953 -0.1683 -0.2266
  214MOL0     C28175   5.083   2.638   0.512 -0.6591 -0.0272 -1.2529
  214MOL0     C28176   5.087   2.647   0.364  0.3280  0.4825  0.2295
  214MOL0     C28177   5.216   2.713   0.304  0.5338  0.8751  0.1570
  214MOL0     C28178   5.206   2.866   0.309 -0.0010  0.7102 -0.0576
  214MOL0     C28179   5.333   2.929   0.282  0.2788 -0.0816  0.1205
  214MOL0     C28180   5.436   2.991   0.254 -0.1675  0.8186 -0.3459
  214MOL0     C28181   4.837   2.747   0.575  0.5002  0.3734 -0.2638
  214MOL0     C28182   4.717   2.795   0.625  0.6291 -0.0799 -0.5058
  214MOL0     H28183   4.351   2.997   0.667  0.3019 -2.4076  0.0124
  214MOL0     H28184   4.134   3.107   0.736  0.5866  1.0098 -1.5015
  214MOL0     H28185   3.912   3.120   0.833 -1.0405 -0.2791  0.8835
  214MOL0     H28186   3.984   3.268   0.906 -3.2075  2.2829 -0.7598
  214MOL0     H28187   3.848   3.226   1.121  1.2278 -0.5431  0.1788
  214MOL0     H28188   3.759   3.105   1.041 -0.2801  0.9535  0.2034
  214MOL0     H28189   3.712   3.294   0.855 -1.8561 -0.0505 -0.0917
  214MOL0     H28190   3.778   3.406   0.979 -1.8649  0.9803  0.8444
  214MOL0     H28191   3.544   3.223   1.021  1.3148 -1.0582  3.6643
  214MOL0     H28192   3.604   3.319   1.151 -1.5509 -3.0263  0.7532
  214MOL0     H28193   3.512   3.449   0.890 -0.7195 -1.3691 -0.0549
  214MOL0     H28194   3.567   3.531   1.035  0.1976  1.4305 -2.0653
  214MOL0     H28195   3.373   3.436   1.161 -1.9669 -2.0756  0.4314
  214MOL0     H28196   3.327   3.337   1.036  3.0380 -1.7082  1.0237
  214MOL0     H28197   3.356   3.638   1.019  1.2806  0.6309 -0.4926
  214MOL0     H28198   3.266   3.540   0.895 -0.3033  1.8763 -0.5416
  214MOL0     H28199   3.092   3.645   1.021  0.3154 -0.8183 -1.0827
  214MOL0     H28200   3.194   3.639   1.168  2.2526 -1.4542  0.6854
  214MOL0     H28201   3.079   3.376   0.924  0.0673  0.3421 -0.2103
  214MOL0     H28202   2.941   3.072   1.096 -0.3471 -1.0932 -1.0910
  214MOL0     H28203   2.964   3.139   0.933  0.8425  2.2552 -0.3202
  214MOL0     H28204   2.731   3.074   0.952  2.7747  0.5249 -2.0909
  214MOL0     H28205   2.738   3.247   0.956 -0.1065  0.3974 -0.7102
  214MOL0     H28206   2.711   3.042   1.201 -2.0667 -0.1239  0.7945
  214MOL0     H28207   2.707   3.218   1.224 -2.0390  0.6107 -0.2090
  214MOL0     H28208   2.501   3.224   1.099  0.1647  0.8949  2.1470
  214MOL0     H28209   2.494   3.126   1.245 -5.2126 -1.4808 -1.7431
  214MOL0     H28210   2.389   2.838   0.958  0.6710 -0.4501  0.9277
  214MOL0     H28211   2.157   2.801   0.899  1.4354 -0.5428  0.2762
  214MOL0     H28212   1.731   3.096   0.835 -1.6125 -1.1098 -1.2638
  214MOL0     H28213   1.496   3.114   0.780  0.0722  1.7189 -0.3138
  214MOL0     H28214   1.229   2.959   1.110 -1.0074 -0.8222  0.7598
  214MOL0     H28215   1.242   2.858   0.967 -0.0987 -1.1375 -0.1364
  214MOL0     H28216   1.001   2.935   1.025 -1.6495  2.1124  1.1595
  214MOL0     H28217   1.050   2.990   0.866 -0.3251 -0.4430 -0.1653
  214MOL0     H28218   1.112   3.221   0.987  0.8629 -1.9289 -0.4189
  214MOL0     H28219   1.050   3.155   1.139 -3.1060  2.2980  0.9506
  214MOL0     H28220   0.883   3.290   1.040 -1.4415 -0.6098  1.6866
  214MOL0     H28221   0.897   3.199   0.884 -0.3939 -1.7639 -1.8206
  214MOL0     H28222   0.749   3.138   1.128  1.9931  3.4681 -0.8612
  214MOL0     H28223   0.818   3.001   1.041 -1.3720 -0.2854 -0.9952
  214MOL0     H28224   0.691   3.027   0.864  0.9248  2.2215 -1.3021
  214MOL0     H28225   0.658   3.199   0.882  1.7263  0.4507 -0.4928
  214MOL0     H28226   0.550   2.971   1.048 -0.0395 -0.4300  1.4069
  214MOL0     H28227   0.521   3.147   1.079 -0.4563  2.5649 -1.0203
  214MOL0     H28228   0.427   2.989   0.833 -0.4165  0.5175  0.6084
  214MOL0     H28229   0.401   3.158   0.845  0.0267 -0.6273 -1.6381
  214MOL0     H28230   1.417   3.020   1.202 -1.2702 -0.0347  0.1052
  214MOL0     H28231   1.646   2.974   1.241 -2.6138 -2.6793  0.8009
  214MOL0     H28232   2.063   3.148   1.155  0.2972  2.7054 -2.3007
  214MOL0     H28233   2.290   3.165   1.195  0.2231 -2.2997  2.2204
  214MOL0     H28234   4.182   2.957   1.135  0.4740 -0.3761  0.5593
  214MOL0     H28235   4.414   2.873   1.060 -0.3780 -2.8886 -0.1979
  214MOL0     H28236   4.562   2.511   0.732 -0.1074 -0.0107 -1.9227
  214MOL0     H28237   4.776   2.412   0.630  2.1648  0.1726  2.4495
  214MOL0     H28238   5.172   2.584   0.549 -1.2218 -1.6387 -2.1439
  214MOL0     H28239   5.081   2.734   0.565  2.6808 -1.7300  2.5468
  214MOL0     H28240   5.061   2.547   0.328 -0.3248  0.8490 -0.3516
  214MOL0     H28241   5.001   2.700   0.322 -0.8834 -2.8298 -1.9055
  214MOL0     H28242   5.222   2.665   0.205 -2.8442 -0.5022  0.4680
  214MOL0     H28243   5.307   2.686   0.358  1.3727  3.9640  0.4840
  214MOL0     H28244   5.135   2.906   0.236 -2.0288  0.5416  1.7127
  214MOL0     H28245   5.169   2.906   0.404 -0.3489  0.8176 -0.2376
  214MOL0     H28246   5.533   3.033   0.238  0.7451 -1.0527 -0.0777
  214MOL0     H28247   4.899   2.823   0.528 -0.7786  0.1336 -2.4670
  214MOL0     H28248   4.708   2.903   0.626 -0.7120 -0.0726  3.5052
  215MOL0     O28249   1.166   3.794   8.392  0.2880 -0.1937  0.4686
  215MOL0     C28250   1.171   3.912   8.431 -0.0407  0.8230 -0.2911
  215MOL0     O28251   1.064   3.987   8.450  0.2609 -0.2489 -0.4139
  215MOL0     C28252   0.942   3.942   8.396  0.5583  0.4035 -0.0056
  215MOL0     C28253   0.883   4.023   8.299  0.0185  0.1640  0.3957
  215MOL0     C28254   0.775   3.976   8.229 -0.2043 -0.1923  1.1999
  215MOL0     C28255   0.713   3.853   8.254 -0.2319  0.2115 -0.2103
  215MOL0     O28256   0.608   3.796   8.179 -0.9239 -0.9761 -0.8491
  215MOL0     C28257   0.525   3.896   8.119 -0.2463  0.7094  0.2789
  215MOL0     C28258   0.411   3.833   8.045 -0.1283 -1.2590  0.2524
  215MOL0     C28259   0.371   3.905   7.918  0.2077  0.5100 -0.3256
  215MOL0     C28260   0.271   3.820   7.845  0.1866 -1.0596 -0.0997
  215MOL0     C28261   0.335   3.687   7.792 -0.4618 -0.4234  0.2853
  215MOL0     C28262   0.275   3.660   7.652 -0.0175  0.1715  0.4003
  215MOL0     C28263   0.343   3.544   7.574  0.0965  0.6056  0.0661
  215MOL0     C28264   0.332   3.401   7.622  0.4337 -0.3930  0.0106
  215MOL0     N28265   0.195   3.358   7.665  1.4376 -0.0873  0.0748
  215MOL0     C28266   0.166   3.282   7.783 -0.5302 -0.0106  0.4444
  215MOL0     C28267   0.037   3.256   7.771  1.1427 -1.2588 -0.5789
  215MOL0     C28268  -0.031   3.176   7.883  0.0215 -1.4120 -0.0826
  215MOL0     C28269  -0.159   3.241   7.936  0.4194 -0.2793  0.2206
  215MOL0     C28270  -0.232   3.141   8.030 -0.5181  0.1495  1.2285
  215MOL0     C28271  -0.367   3.207   8.063 -0.0212  0.1655  0.0078
  215MOL0     O28272  -0.463   3.202   7.947  0.2198  0.2581 -0.7102
  215MOL0     C28273  -0.594   3.220   7.991  0.7344 -0.1722  0.6550
  215MOL0     C28274  -0.695   3.189   7.899  0.3069 -0.0448  0.0060
  215MOL0     C28275  -0.831   3.210   7.929  0.2252 -0.1551 -0.4947
  215MOL0     C28276  -0.877   3.256   8.061 -0.3016 -0.9122 -0.9280
  215MOL0     C28277  -1.021   3.268   8.106 -0.8859 -0.2265  1.2673
  215MOL0     O28278  -1.105   3.204   8.028  0.1848 -0.4917  0.9358
  215MOL0     C28279  -1.238   3.231   8.034 -0.4197  0.4598  0.3748
  215MOL0     C28280  -1.297   3.360   8.048 -0.4923  0.0255  0.1523
  215MOL0     C28281  -1.428   3.388   8.018 -0.4539 -0.0371 -0.3411
  215MOL0     C28282  -1.516   3.282   7.982  0.1180 -0.2474 -0.2709
  215MOL0     O28283  -1.643   3.321   7.961  0.6369 -0.4311  0.6058
  215MOL0     C28284  -1.728   3.250   7.873 -1.0830  0.2004  0.1611
  215MOL0     C28285  -1.868   3.297   7.886  1.0808 -0.1204 -0.4926
  215MOL0     C28286  -1.965   3.206   7.813  0.8885  0.6402  1.1589
  215MOL0     C28287  -2.101   3.270   7.818 -0.4515  0.1807  0.1406
  215MOL0     C28288  -2.160   3.305   7.951 -0.0593 -0.1497 -0.8638
  215MOL0     C28289  -2.199   3.184   8.041  0.1456 -0.2887 -0.1060
  215MOL0     C28290  -2.333   3.111   8.003 -0.6833 -0.1734 -0.1936
  215MOL0     C28291  -2.356   2.975   8.066 -0.4322  0.3279  0.0374
  215MOL0    Cl28292  -2.301   2.968   8.230 -0.1189  0.1978  0.2431
  215MOL0     C28293  -1.470   3.153   7.985  0.7495 -0.5975 -0.1662
  215MOL0     C28294  -1.337   3.132   8.011  0.0568  0.3744 -0.0686
  215MOL0     O28295  -1.044   3.324   8.208  0.0043 -0.8170 -0.5297
  215MOL0     C28296  -0.780   3.261   8.160  0.3108  0.4850 -0.2679
  215MOL0     C28297  -0.641   3.255   8.120 -0.1731  0.6762 -0.5380
  215MOL0     N28298  -0.016   3.308   7.657 -0.0188 -0.8472 -0.8243
  215MOL0     N28299   0.077   3.375   7.606  0.9347 -1.0391  0.7081
  215MOL0     C28300   0.764   3.784   8.370 -0.2778  0.5585 -0.0598
  215MOL0     C28301   0.879   3.824   8.440 -0.0101  0.4294 -0.2241
  215MOL0     C28302   1.303   3.966   8.483 -0.3267  0.3393  0.2681
  215MOL0     C28303   1.429   3.926   8.433 -1.1101 -0.1971 -0.5065
  215MOL0     C28304   1.552   3.980   8.487 -0.4288  0.4397 -0.1608
  215MOL0     C28305   1.548   4.071   8.595 -0.7427  0.0074 -0.1323
  215MOL0     O28306   1.671   4.105   8.659 -1.0679  0.1802  0.5248
  215MOL0     C28307   1.659   4.160   8.788 -0.3012 -0.3738 -0.9516
  215MOL0     C28308   1.808   4.212   8.814  0.8954 -0.0305  1.1797
  215MOL0     C28309   1.822   4.261   8.959 -0.0012  0.0159  1.1814
  215MOL0     C28310   1.961   4.300   9.007 -0.1154  0.0765 -0.0597
  215MOL0     C28311   2.005   4.410   8.924 -0.1653  0.4865  0.7279
  215MOL0     C28312   2.028   4.513   8.866  1.4330 -0.9675 -0.1982
  215MOL0     C28313   1.422   4.095   8.656 -0.1328  0.6612  0.6328
  215MOL0     C28314   1.299   4.046   8.601  0.3995 -1.0453  0.5131
  215MOL0     H28315   0.936   4.117   8.287  1.2240 -0.5787 -0.3374
  215MOL0     H28316   0.743   4.039   8.146  1.1974 -1.2763 -0.2173
  215MOL0     H28317   0.581   3.951   8.042 -1.6115  4.1200  1.5142
  215MOL0     H28318   0.483   3.969   8.188 -0.7044  0.8840 -0.1756
  215MOL0     H28319   0.318   3.822   8.102 -0.2353  0.8923  0.5796
  215MOL0     H28320   0.439   3.729   8.026  1.6335 -0.8994  0.7453
  215MOL0     H28321   0.460   3.916   7.856  0.9452  1.6047  0.8719
  215MOL0     H28322   0.328   4.002   7.942  1.2400  0.6976  0.8657
  215MOL0     H28323   0.191   3.791   7.914 -0.2865 -1.1860 -0.6924
  215MOL0     H28324   0.224   3.876   7.763  3.6559  2.5891  0.1153
  215MOL0     H28325   0.297   3.605   7.853 -3.8401  0.7251 -0.0849
  215MOL0     H28326   0.443   3.707   7.792 -0.7402  1.7441  3.1951
  215MOL0     H28327   0.293   3.754   7.598 -2.0533  2.1925  2.9868
  215MOL0     H28328   0.168   3.642   7.662 -0.2288  1.4116  0.5592
  215MOL0     H28329   0.289   3.540   7.480 -0.2123 -5.0873  0.1496
  215MOL0     H28330   0.448   3.570   7.559 -0.3298  4.5993  2.5792
  215MOL0     H28331   0.404   3.395   7.705 -2.5989  2.1058  3.1552
  215MOL0     H28332   0.360   3.350   7.530 -2.1436  0.4700 -1.3557
  215MOL0     H28333   0.228   3.235   7.858 -0.8004 -0.4959  0.3703
  215MOL0     H28334   0.029   3.160   7.973  0.0486 -1.2138 -0.0647
  215MOL0     H28335  -0.046   3.078   7.836  2.7113 -2.8473  1.7368
  215MOL0     H28336  -0.221   3.255   7.847  0.7262  0.0285  0.0506
  215MOL0     H28337  -0.148   3.341   7.979 -2.2744  0.3244 -0.3406
  215MOL0     H28338  -0.242   3.049   7.971  2.0788  1.8184 -2.1702
  215MOL0     H28339  -0.173   3.112   8.117 -0.9216 -3.1662  0.5420
  215MOL0     H28340  -0.358   3.310   8.100  0.1490  0.4358 -0.7486
  215MOL0     H28341  -0.411   3.151   8.145  0.1304 -2.4919 -1.6115
  215MOL0     H28342  -0.669   3.147   7.803  0.0036 -1.8895  0.6777
  215MOL0     H28343  -0.908   3.188   7.856 -1.2614  2.9927 -0.0939
  215MOL0     H28344  -1.223   3.438   8.056  1.1634 -1.4366 -0.2362
  215MOL0     H28345  -1.462   3.491   8.010 -0.4505 -0.1496 -2.0640
  215MOL0     H28346  -1.722   3.143   7.896  1.1104  0.4492  1.0866
  215MOL0     H28347  -1.698   3.261   7.769  2.8905 -0.3210  1.0814
  215MOL0     H28348  -1.861   3.399   7.846  3.3826 -1.1440 -3.0188
  215MOL0     H28349  -1.901   3.311   7.989  2.0301  2.2991 -0.4480
  215MOL0     H28350  -1.969   3.108   7.861 -0.9815 -0.0299 -0.2193
  215MOL0     H28351  -1.925   3.199   7.711  0.9029  0.9757  1.1386
  215MOL0     H28352  -2.110   3.362   7.758  0.4986 -0.0755 -0.4051
  215MOL0     H28353  -2.169   3.195   7.777 -0.1057 -0.0876  0.0631
  215MOL0     H28354  -2.250   3.362   7.924  1.5332  1.9346 -2.1486
  215MOL0     H28355  -2.094   3.375   8.004  2.7289 -3.7223  0.8011
  215MOL0     H28356  -2.213   3.221   8.144 -1.5994  1.4759 -0.9053
  215MOL0     H28357  -2.124   3.105   8.032 -0.7846 -1.8012  3.4996
  215MOL0     H28358  -2.414   3.171   8.047 -0.1262 -0.8862  1.9641
  215MOL0     H28359  -2.340   3.099   7.895 -3.2773  2.2097 -0.3993
  215MOL0     H28360  -2.310   2.900   8.000 -1.3272  0.9529 -1.3494
  215MOL0     H28361  -2.463   2.951   8.056 -0.1095 -1.0946 -0.1864
  215MOL0     H28362  -1.531   3.065   7.969 -0.1022 -0.3059  1.2454
  215MOL0     H28363  -1.296   3.032   8.001 -0.7264  0.0720 -0.2858
  215MOL0     H28364  -0.810   3.288   8.261 -3.3327 -3.4426 -0.0361
  215MOL0     H28365  -0.575   3.277   8.204  1.1227 -1.6485 -0.8533
  215MOL0     H28366   0.721   3.691   8.407  1.9656 -0.5699 -0.1478
  215MOL0     H28367   0.927   3.762   8.515 -1.6543  1.8793  2.1570
  215MOL0     H28368   1.431   3.861   8.346 -0.7232 -1.3459  0.3438
  215MOL0     H28369   1.641   3.939   8.440 -0.4398  0.5827 -0.3099
  215MOL0     H28370   1.626   4.087   8.862 -0.8860  1.1088  0.3255
  215MOL0     H28371   1.599   4.251   8.798  0.3636  0.1689 -1.7898
  215MOL0     H28372   1.883   4.134   8.795  0.1212 -0.3309 -0.9411
  215MOL0     H28373   1.832   4.299   8.753  0.7448 -0.6101  0.2725
  215MOL0     H28374   1.802   4.171   9.017  3.5706 -1.1635  0.8270
  215MOL0     H28375   1.753   4.343   8.978 -1.2680 -0.6684 -0.1823
  215MOL0     H28376   1.948   4.340   9.108  1.8649 -1.8628  1.0402
  215MOL0     H28377   2.038   4.224   9.017  1.2065  1.3860  0.1245
  215MOL0     H28378   2.046   4.584   8.787 -0.7717 -1.5298 -1.2829
  215MOL0     H28379   1.416   4.157   8.745  0.7900  1.4910  0.1320
  215MOL0     H28380   1.206   4.086   8.639 -0.3547 -0.9237 -1.3481
  216MOL0     O28381   0.255   0.874   3.547  0.2584  0.1390 -0.3936
  216MOL0     C28382   0.327   0.883   3.650 -0.0609  0.0481  0.9071
  216MOL0     O28383   0.291   0.931   3.775 -0.2054 -0.2862  0.0985
  216MOL0     C28384   0.160   0.959   3.804 -0.0121  0.7169 -0.0123
  216MOL0     C28385   0.109   1.084   3.846 -0.9592 -0.5768  0.0690
  216MOL0     C28386  -0.030   1.109   3.887  0.3787  0.2315 -0.1021
  216MOL0     C28387  -0.122   1.002   3.892 -0.3147  0.3713 -0.1536
  216MOL0     O28388  -0.257   1.002   3.933  0.3054 -0.2180  0.0675
  216MOL0     C28389  -0.300   1.109   4.016  0.1278  0.5236  0.3404
  216MOL0     C28390  -0.447   1.069   4.036 -0.3818  0.1296 -0.1671
  216MOL0     C28391  -0.520   1.149   4.152  0.0997 -1.1226 -0.3033
  216MOL0     C28392  -0.656   1.182   4.104  0.2257 -0.3043  0.9974
  216MOL0     C28393  -0.759   1.077   4.089  0.2479  0.8896  0.5888
  216MOL0     C28394  -0.900   1.146   4.054 -1.1219  0.0239 -0.4684
  216MOL0     C28395  -1.022   1.063   4.103  0.0916  1.0403  0.4452
  216MOL0     C28396  -1.015   0.910   4.098  0.6076 -0.1230 -0.1108
  216MOL0     N28397  -1.150   0.854   4.120 -1.4396 -0.3096 -0.6276
  216MOL0     C28398  -1.226   0.857   4.235 -0.3643  0.7733  0.6553
  216MOL0     C28399  -1.330   0.775   4.207  0.7049  1.0883 -0.6523
  216MOL0     C28400  -1.454   0.726   4.281 -0.7657  0.0256  0.6682
  216MOL0     C28401  -1.561   0.834   4.289 -0.1753 -0.2469  0.4848
  216MOL0     C28402  -1.643   0.878   4.163  0.8993 -0.0799  0.1984
  216MOL0     C28403  -1.714   0.767   4.086 -0.1989  0.3430  0.6337
  216MOL0     O28404  -1.809   0.690   4.168 -0.2553  0.8328  0.4619
  216MOL0     C28405  -1.922   0.751   4.213 -0.3787 -0.0792  0.3148
  216MOL0     C28406  -1.985   0.854   4.143 -0.4639 -0.2097 -0.1212
  216MOL0     C28407  -2.110   0.895   4.170 -0.2078 -0.2245 -0.1063
  216MOL0     C28408  -2.182   0.824   4.267  0.3598  0.2144  0.2339
  216MOL0     C28409  -2.334   0.848   4.286 -0.6273 -0.2219  0.0467
  216MOL0     O28410  -2.397   0.770   4.381  0.3631  0.5836 -0.1111
  216MOL0     C28411  -2.530   0.786   4.420 -0.0230 -0.4175  0.1248
  216MOL0     C28412  -2.591   0.663   4.452  0.5830  0.0464 -1.6111
  216MOL0     C28413  -2.732   0.662   4.481 -0.4062 -0.7119 -0.9819
  216MOL0     C28414  -2.803   0.783   4.493 -0.0096 -0.1574 -0.2883
  216MOL0     O28415  -2.943   0.785   4.529 -0.2380 -0.3372  0.2690
  216MOL0     C28416  -3.022   0.691   4.463 -0.5761 -0.0073 -0.3025
  216MOL0     C28417  -3.163   0.719   4.492 -0.0985  0.4062  0.2214
  216MOL0     C28418  -3.254   0.614   4.432  0.1383 -0.9269  0.6878
  216MOL0     C28419  -3.397   0.652   4.451  0.4772  0.6249 -0.6862
  216MOL0     C28420  -3.477   0.533   4.505  0.1431 -0.5337 -0.2095
  216MOL0     C28421  -3.618   0.585   4.541 -0.2566 -0.1440 -0.5990
  216MOL0     C28422  -3.698   0.480   4.616 -0.0854  1.0402 -0.0658
  216MOL0     C28423  -3.841   0.519   4.648  0.6048  0.8446 -0.5130
  216MOL0    Cl28424  -3.935   0.528   4.497  0.4385  0.1751  0.0035
  216MOL0     C28425  -2.733   0.902   4.467  0.4981 -1.3113  0.1987
  216MOL0     C28426  -2.598   0.904   4.426  0.0640 -0.3536 -0.1219
  216MOL0     O28427  -2.389   0.935   4.219 -0.0175  0.2127  0.1776
  216MOL0     C28428  -2.120   0.721   4.340  1.0315  0.4886  0.3652
  216MOL0     C28429  -1.989   0.684   4.316 -1.2601  0.7740 -1.1407
  216MOL0     N28430  -1.314   0.734   4.080  0.0537  0.2596  0.6429
  216MOL0     N28431  -1.207   0.778   4.024  0.3820 -0.3637 -1.0108
  216MOL0     C28432  -0.067   0.881   3.856 -0.0805  0.3720  0.5951
  216MOL0     C28433   0.067   0.857   3.807 -0.0575 -1.3422  0.4086
  216MOL0     C28434   0.466   0.828   3.638  0.5074 -0.3052 -0.2857
  216MOL0     C28435   0.517   0.814   3.505 -0.1369 -0.5472  0.1172
  216MOL0     C28436   0.648   0.779   3.484  0.0308 -0.3235 -0.0974
  216MOL0     C28437   0.734   0.764   3.591 -0.1206 -1.5234 -0.0101
  216MOL0     O28438   0.870   0.745   3.564  0.3306  0.0068  0.3317
  216MOL0     C28439   0.966   0.791   3.663  0.1699 -0.5247  0.9455
  216MOL0     C28440   1.015   0.683   3.744 -0.7295  0.0423 -0.1954
  216MOL0     C28441   1.091   0.585   3.653 -0.4650  0.1008  0.8888
  216MOL0     C28442   1.160   0.474   3.742 -0.8856  0.2999  0.4502
  216MOL0     C28443   1.231   0.370   3.659  0.8600 -0.3186  1.1094
  216MOL0     C28444   1.285   0.291   3.583  0.6569 -0.2872 -0.2374
  216MOL0     C28445   0.681   0.762   3.721  0.7128  0.3169 -0.4720
  216MOL0     C28446   0.549   0.792   3.745 -0.7612 -0.3202 -0.8459
  216MOL0     H28447   0.173   1.172   3.853 -1.6129 -0.2146  2.8903
  216MOL0     H28448  -0.053   1.207   3.927  4.5623  1.6529 -0.7200
  216MOL0     H28449  -0.297   1.204   3.963  2.8854 -0.2752 -1.1012
  216MOL0     H28450  -0.253   1.106   4.115 -1.9892 -2.2382  1.3783
  216MOL0     H28451  -0.449   0.966   4.072 -1.5229 -0.0567 -0.7226
  216MOL0     H28452  -0.501   1.078   3.941 -2.0927 -4.6336  0.0751
  216MOL0     H28453  -0.462   1.241   4.169 -2.5793  0.7277 -0.5574
  216MOL0     H28454  -0.521   1.095   4.247 -1.9593  1.3639  1.2308
  216MOL0     H28455  -0.691   1.250   4.182 -0.4645  1.2755 -0.6323
  216MOL0     H28456  -0.670   1.247   4.017 -2.4473  0.9467  2.2442
  216MOL0     H28457  -0.764   1.026   4.186 -0.0585 -2.0797 -0.8933
  216MOL0     H28458  -0.731   1.004   4.013 -1.2531  0.7360  0.1713
  216MOL0     H28459  -0.909   1.177   3.949 -0.2995  1.3571 -0.1726
  216MOL0     H28460  -0.899   1.241   4.109  0.7810 -1.4739  2.2749
  216MOL0     H28461  -1.047   1.085   4.208 -4.3680  0.9394 -0.3811
  216MOL0     H28462  -1.106   1.109   4.050 -2.0237 -1.5620  1.3007
  216MOL0     H28463  -0.937   0.881   4.168 -0.5506 -0.4955  1.0637
  216MOL0     H28464  -0.977   0.893   3.997 -0.6019  3.1995 -1.2635
  216MOL0     H28465  -1.220   0.904   4.333  1.1053  2.2591 -0.0831
  216MOL0     H28466  -1.424   0.689   4.379  1.2169 -0.0423  0.0667
  216MOL0     H28467  -1.502   0.641   4.232  0.8534 -0.5476  0.0311
  216MOL0     H28468  -1.520   0.922   4.341  1.5031 -0.5855 -0.1848
  216MOL0     H28469  -1.637   0.797   4.359 -0.3686  0.4344  0.6431
  216MOL0     H28470  -1.723   0.945   4.196 -2.2183 -2.8617 -1.0728
  216MOL0     H28471  -1.581   0.922   4.084  1.0759 -1.5536 -0.5303
  216MOL0     H28472  -1.633   0.705   4.048 -0.1168  1.5264 -1.2324
  216MOL0     H28473  -1.766   0.812   4.001  2.2608  3.0003  0.3907
  216MOL0     H28474  -1.948   0.894   4.049  1.5411  1.4805  1.3066
  216MOL0     H28475  -2.158   0.969   4.106 -0.4256  0.4917  0.8454
  216MOL0     H28476  -2.540   0.568   4.456 -1.2156 -0.9263 -0.8788
  216MOL0     H28477  -2.775   0.564   4.499 -2.1902  0.2218  0.0937
  216MOL0     H28478  -2.993   0.596   4.509 -0.9154  0.2206  0.3972
  216MOL0     H28479  -2.998   0.690   4.356 -2.6547 -0.5102 -0.8201
  216MOL0     H28480  -3.182   0.813   4.439  2.3061  1.0790  0.4133
  216MOL0     H28481  -3.185   0.732   4.598 -0.7087 -0.4928  0.2132
  216MOL0     H28482  -3.251   0.516   4.479 -2.3819 -2.0301 -1.2385
  216MOL0     H28483  -3.241   0.611   4.323  0.8390  0.5388  0.7003
  216MOL0     H28484  -3.391   0.732   4.526 -0.6415  1.1239 -1.1078
  216MOL0     H28485  -3.432   0.691   4.355  1.7929 -1.7417 -2.2234
  216MOL0     H28486  -3.422   0.499   4.594 -1.1172  2.2566  1.7876
  216MOL0     H28487  -3.488   0.461   4.423 -0.1655  1.9193 -2.4440
  216MOL0     H28488  -3.668   0.628   4.454 -1.7965  0.3512  0.4829
  216MOL0     H28489  -3.599   0.663   4.615 -1.4471 -1.0014  0.6693
  216MOL0     H28490  -3.715   0.392   4.553  0.0769 -0.1274  1.4678
  216MOL0     H28491  -3.645   0.444   4.704  1.3178  1.4887 -0.6909
  216MOL0     H28492  -3.846   0.615   4.699 -0.3991  0.9089 -0.7154
  216MOL0     H28493  -3.879   0.430   4.700  2.5179  0.3479  0.1237
  216MOL0     H28494  -2.795   0.990   4.475 -3.3307 -3.9124  2.4016
  216MOL0     H28495  -2.558   1.001   4.398 -2.7811  0.6509 -1.1112
  216MOL0     H28496  -2.173   0.672   4.420  1.9010  0.2170  0.7942
  216MOL0     H28497  -1.958   0.605   4.382 -2.3186  1.4637  0.2464
  216MOL0     H28498  -0.135   0.799   3.877  1.3609 -0.7506  1.0532
  216MOL0     H28499   0.101   0.757   3.785  0.3033 -1.3991  1.1960
  216MOL0     H28500   0.459   0.844   3.418  3.5062  0.4983 -2.1735
  216MOL0     H28501   0.680   0.751   3.384  2.8361 -0.5953  0.8017
  216MOL0     H28502   0.922   0.875   3.716 -0.6504 -0.3792  0.0736
  216MOL0     H28503   1.045   0.840   3.606 -2.8501  4.3732  0.4221
  216MOL0     H28504   1.084   0.717   3.822  0.0608  0.2504 -0.9782
  216MOL0     H28505   0.929   0.640   3.796 -0.2938  0.9730  1.3462
  216MOL0     H28506   1.156   0.641   3.584 -1.1020 -1.9177 -1.4951
  216MOL0     H28507   1.022   0.528   3.591 -0.9696 -2.2454  3.3892
  216MOL0     H28508   1.240   0.522   3.799 -1.1756  1.3692 -0.0085
  216MOL0     H28509   1.082   0.431   3.806  3.0315 -4.3063  2.7524
  216MOL0     H28510   1.313   0.213   3.516 -0.5737 -1.2634  0.3270
  216MOL0     H28511   0.754   0.743   3.799 -0.4825 -2.3568  0.1183
  216MOL0     H28512   0.506   0.797   3.845 -0.8229 -2.6873 -0.7078
  217MOL0     O28513   0.733   2.082   4.854 -0.1183 -0.6605 -0.6882
  217MOL0     C28514   0.831   2.150   4.816  0.7957 -0.4100 -0.9214
  217MOL0     O28515   0.846   2.221   4.697  0.5806 -0.3040 -0.3173
  217MOL0     C28516   0.748   2.218   4.601  0.0598  0.1469  0.0907
  217MOL0     C28517   0.790   2.231   4.470  0.7865  0.5664  1.0724
  217MOL0     C28518   0.699   2.222   4.359  0.5397  0.1528  0.1611
  217MOL0     C28519   0.557   2.203   4.382  0.5257  0.1074 -0.0191
  217MOL0     O28520   0.480   2.212   4.265 -0.4316  0.7502  0.2996
  217MOL0     C28521   0.345   2.234   4.294  0.0785 -0.6689  0.6088
  217MOL0     C28522   0.285   2.288   4.161  0.4031  0.5752  0.0382
  217MOL0     C28523   0.136   2.288   4.184  0.3068  0.8538 -0.2459
  217MOL0     C28524   0.046   2.349   4.073 -0.6428 -0.5785 -0.6315
  217MOL0     C28525  -0.099   2.359   4.116 -0.0490 -0.1025  0.0006
  217MOL0     C28526  -0.178   2.411   4.003 -0.3535 -0.7124 -0.9544
  217MOL0     C28527  -0.193   2.316   3.881 -0.1253 -0.1943  0.5039
  217MOL0     C28528  -0.291   2.375   3.773  0.4452 -0.5104  0.0900
  217MOL0     N28529  -0.419   2.364   3.834  0.0722 -0.7353 -0.2213
  217MOL0     C28530  -0.484   2.251   3.885  0.6046 -1.0704 -0.3608
  217MOL0     C28531  -0.602   2.301   3.933 -0.2747  0.6235 -0.0813
  217MOL0     C28532  -0.719   2.223   3.977  0.5686 -0.2299  1.4640
  217MOL0     C28533  -0.852   2.267   3.920  0.3337 -0.3190 -0.3579
  217MOL0     C28534  -0.967   2.181   3.983  0.2305  0.4545  0.7265
  217MOL0     C28535  -1.106   2.228   3.942 -0.5307  0.4608  0.1583
  217MOL0     O28536  -1.203   2.129   3.963 -0.1231 -0.1536  0.0269
  217MOL0     C28537  -1.322   2.153   3.909 -0.4792 -0.0174  0.9421
  217MOL0     C28538  -1.361   2.110   3.782  0.4323  1.0943  0.3957
  217MOL0     C28539  -1.487   2.142   3.718  0.3345 -0.2812  0.2815
  217MOL0     C28540  -1.584   2.218   3.789 -0.4600 -0.2752  0.1974
  217MOL0     C28541  -1.699   2.267   3.735  0.4136  0.7809  0.8491
  217MOL0     O28542  -1.798   2.303   3.823  0.0780  0.7659  0.0323
  217MOL0     C28543  -1.849   2.427   3.821  0.0203 -0.0662  0.2179
  217MOL0     C28544  -1.953   2.466   3.910  0.1524  0.6212  1.2155
  217MOL0     C28545  -2.013   2.591   3.907 -0.1868 -0.4420 -1.7064
  217MOL0     C28546  -1.958   2.690   3.817 -0.4925  0.6919 -0.0537
  217MOL0     O28547  -2.038   2.801   3.803 -0.0596 -0.8096 -0.0642
  217MOL0     C28548  -2.096   2.833   3.676 -0.5790 -0.7264  0.2006
  217MOL0     C28549  -2.206   2.938   3.703 -0.0017 -0.0670  0.7064
  217MOL0     C28550  -2.318   2.906   3.812 -0.1799 -0.0550  1.7853
  217MOL0     C28551  -2.376   2.766   3.789 -0.1558 -0.2547  1.4139
  217MOL0     C28552  -2.441   2.717   3.927 -0.1454  0.2137  0.4838
  217MOL0     C28553  -2.492   2.575   3.915 -0.8985  0.3980  0.2217
  217MOL0     C28554  -2.621   2.570   3.840 -0.2350 -0.2291 -0.2074
  217MOL0     C28555  -2.691   2.424   3.832 -0.8358  0.5562 -0.1705
  217MOL0    Cl28556  -2.700   2.340   3.986  0.2293 -0.3558 -0.2533
  217MOL0     C28557  -1.854   2.656   3.734 -0.6205  0.2035  0.2307
  217MOL0     C28558  -1.807   2.524   3.725  0.2762 -0.4011  1.4917
  217MOL0     O28559  -1.711   2.253   3.617 -0.4053 -0.0172 -0.2070
  217MOL0     C28560  -1.553   2.251   3.922 -0.7465  0.0666  0.1204
  217MOL0     C28561  -1.428   2.222   3.978  0.7458 -0.2832  0.3275
  217MOL0     N28562  -0.595   2.443   3.930  0.2024  0.1662  0.2513
  217MOL0     N28563  -0.485   2.481   3.870 -0.1502 -0.4478 -0.6534
  217MOL0     C28564   0.512   2.205   4.522 -0.0991  0.1761 -0.0619
  217MOL0     C28565   0.606   2.198   4.627 -0.2397 -0.3216 -0.1545
  217MOL0     C28566   0.939   2.169   4.917 -0.5184 -0.0664  0.0617
  217MOL0     C28567   1.059   2.227   4.878  0.4682 -0.0665  0.4554
  217MOL0     C28568   1.170   2.222   4.958 -0.1162 -0.0347  0.7098
  217MOL0     C28569   1.156   2.179   5.090 -0.3413 -0.7929 -1.2326
  217MOL0     O28570   1.255   2.178   5.190  0.0708  0.0762  0.2634
  217MOL0     C28571   1.332   2.298   5.194 -0.6947 -1.5371 -0.2686
  217MOL0     C28572   1.481   2.264   5.205  0.0950  0.2592  0.1705
  217MOL0     C28573   1.541   2.166   5.094 -0.7447 -0.4588 -0.4975
  217MOL0     C28574   1.566   2.246   4.965 -0.4228  0.8212 -0.6957
  217MOL0     C28575   1.712   2.282   4.967 -0.0561  0.2678  0.3523
  217MOL0     C28576   1.824   2.333   4.968 -0.1108  0.3099 -0.3135
  217MOL0     C28577   1.032   2.146   5.136 -0.6677  0.3575 -0.2004
  217MOL0     C28578   0.924   2.146   5.056 -0.4697 -1.1320 -0.1264
  217MOL0     H28579   0.894   2.258   4.452  1.2564 -2.0003 -0.6035
  217MOL0     H28580   0.733   2.235   4.257 -1.3416  0.4671 -0.4678
  217MOL0     H28581   0.338   2.317   4.364  1.6446  0.0074  0.0130
  217MOL0     H28582   0.296   2.141   4.325 -2.7768  0.3061 -0.6343
  217MOL0     H28583   0.300   2.224   4.074 -0.7478  0.2820  0.0310
  217MOL0     H28584   0.316   2.391   4.142 -2.9281  1.9745  1.3556
  217MOL0     H28585   0.112   2.330   4.282 -1.6774  0.3158 -0.4588
  217MOL0     H28586   0.103   2.184   4.193  1.1903  0.3486 -2.1931
  217MOL0     H28587   0.079   2.453   4.072 -2.4243  0.0916  1.5350
  217MOL0     H28588   0.064   2.308   3.973  2.3280 -0.2112 -0.3262
  217MOL0     H28589  -0.112   2.427   4.201  0.7756 -3.3146  2.9556
  217MOL0     H28590  -0.142   2.264   4.151 -1.8959  1.6232  2.8180
  217MOL0     H28591  -0.147   2.510   3.967 -0.9636 -1.5777 -4.2179
  217MOL0     H28592  -0.282   2.409   4.034 -0.1439 -2.2109 -0.2943
  217MOL0     H28593  -0.099   2.297   3.830 -0.6427 -1.8167  0.1190
  217MOL0     H28594  -0.232   2.221   3.918  0.2550 -1.7387 -2.7535
  217MOL0     H28595  -0.268   2.328   3.678  2.6942 -2.7248  1.6028
  217MOL0     H28596  -0.278   2.483   3.761 -1.0032 -0.4069 -0.7719
  217MOL0     H28597  -0.473   2.144   3.873  0.4939 -1.0552 -0.6110
  217MOL0     H28598  -0.710   2.217   4.086 -0.8635 -2.7821  1.5293
  217MOL0     H28599  -0.698   2.122   3.942  1.0771  0.9418 -1.9217
  217MOL0     H28600  -0.852   2.276   3.811  0.3309  1.3460 -0.2476
  217MOL0     H28601  -0.863   2.372   3.948 -0.7001 -1.2071  3.0061
  217MOL0     H28602  -0.956   2.075   3.957  1.8698  0.7405  0.1872
  217MOL0     H28603  -0.961   2.198   4.091  0.4177  1.0331  0.6291
  217MOL0     H28604  -1.124   2.257   3.838 -2.1627  1.6793  0.7495
  217MOL0     H28605  -1.138   2.313   4.002 -3.5463 -0.7159  0.4028
  217MOL0     H28606  -1.303   2.045   3.718 -1.5606 -2.1957  1.7068
  217MOL0     H28607  -1.491   2.108   3.615  1.8902  0.0322  0.1041
  217MOL0     H28608  -1.979   2.384   3.975  2.2527 -1.8823 -0.8938
  217MOL0     H28609  -2.099   2.613   3.969 -0.7142 -0.0971 -2.5478
  217MOL0     H28610  -2.152   2.755   3.622 -1.6581 -0.1862  0.5075
  217MOL0     H28611  -2.027   2.870   3.600 -0.3731 -1.3713  0.0633
  217MOL0     H28612  -2.263   2.941   3.610  0.9819  3.1352  0.0853
  217MOL0     H28613  -2.160   3.034   3.727 -1.8025 -0.0060  4.8541
  217MOL0     H28614  -2.397   2.982   3.813  0.1640  0.5232 -1.9607
  217MOL0     H28615  -2.269   2.909   3.910 -0.4735  0.4679  1.9222
  217MOL0     H28616  -2.457   2.771   3.716  0.7367  0.2116  0.4174
  217MOL0     H28617  -2.306   2.697   3.742 -2.4227 -1.0815 -0.9513
  217MOL0     H28618  -2.522   2.783   3.959 -1.0330  0.4903 -2.1615
  217MOL0     H28619  -2.360   2.713   4.001  2.0823 -0.2437 -1.8615
  217MOL0     H28620  -2.504   2.534   4.016 -1.2245  0.7148  0.3163
  217MOL0     H28621  -2.411   2.519   3.868 -1.3585 -0.0917  0.0108
  217MOL0     H28622  -2.694   2.637   3.886 -1.7382 -1.2313 -1.0278
  217MOL0     H28623  -2.600   2.601   3.737  2.3257  0.1638  0.3527
  217MOL0     H28624  -2.624   2.370   3.765 -2.5757 -0.9692 -0.7643
  217MOL0     H28625  -2.793   2.443   3.796 -0.6938  3.3753  0.7086
  217MOL0     H28626  -1.822   2.732   3.664  0.6117  0.0668  0.6239
  217MOL0     H28627  -1.728   2.516   3.651 -3.1049 -2.2281 -2.2827
  217MOL0     H28628  -1.631   2.306   3.973 -1.7452  3.3942 -4.3315
  217MOL0     H28629  -1.406   2.258   4.078 -0.5550 -2.5802  1.5275
  217MOL0     H28630   0.407   2.200   4.549 -0.0963  1.5628  0.2910
  217MOL0     H28631   0.564   2.198   4.727 -0.4499  2.4845 -0.1618
  217MOL0     H28632   1.069   2.258   4.775  0.9053  0.0545  0.5314
  217MOL0     H28633   1.272   2.249   4.934  1.5989 -3.4842  3.1393
  217MOL0     H28634   1.304   2.360   5.279  0.7318  0.7879 -1.3966
  217MOL0     H28635   1.313   2.361   5.107 -2.2988 -0.0499  1.0999
  217MOL0     H28636   1.533   2.360   5.208  0.3011  0.1270  1.4919
  217MOL0     H28637   1.493   2.209   5.299 -0.1315 -0.1262 -0.0236
  217MOL0     H28638   1.485   2.076   5.070 -0.1048 -1.1298  0.4298
  217MOL0     H28639   1.634   2.133   5.142 -0.8197  0.7308  0.5238
  217MOL0     H28640   1.547   2.188   4.875 -5.6764 -0.2422  0.7787
  217MOL0     H28641   1.502   2.334   4.957 -2.3378 -0.2991  1.2683
  217MOL0     H28642   1.926   2.364   4.977 -0.3693  1.7479 -1.9501
  217MOL0     H28643   1.027   2.115   5.240  0.6256  0.3975 -0.1156
  217MOL0     H28644   0.828   2.109   5.091 -0.7249  2.6696  4.1663
  218MOL0     O28645   5.686   3.002  10.661  0.5858  0.4710  0.5567
  218MOL0     C28646   5.697   3.072  10.760 -0.4628 -0.1987  0.0854
  218MOL0     O28647   5.595   3.134  10.826 -0.0554  0.1633 -0.1579
  218MOL0     C28648   5.458   3.116  10.805 -0.2026  0.4655  0.3984
  218MOL0     C28649   5.401   2.996  10.765 -0.0913  0.2450  0.5448
  218MOL0     C28650   5.258   2.978  10.758 -0.2625  0.1289 -0.2610
  218MOL0     C28651   5.174   3.081  10.809  1.0365 -0.0661 -0.0877
  218MOL0     O28652   5.033   3.086  10.808 -0.8962  0.2935  0.4931
  218MOL0     C28653   4.958   2.983  10.743 -0.6694 -0.2214  0.4607
  218MOL0     C28654   4.943   2.877  10.843  0.5284 -0.8702 -0.0080
  218MOL0     C28655   4.890   2.751  10.791 -0.9697  0.1159 -0.1668
  218MOL0     C28656   4.742   2.767  10.747 -0.2148 -0.1513 -0.5553
  218MOL0     C28657   4.724   2.780  10.592  0.0083  0.3647 -0.2398
  218MOL0     C28658   4.589   2.726  10.563 -0.0214  0.4824  0.8648
  218MOL0     C28659   4.548   2.749  10.418 -0.2740  0.0926 -0.1489
  218MOL0     C28660   4.519   2.897  10.379  0.8213  0.4245 -1.0811
  218MOL0     N28661   4.413   2.961  10.463 -0.0029  0.6837  0.4285
  218MOL0     C28662   4.281   2.941  10.443 -0.0665 -0.8879  0.1820
  218MOL0     C28663   4.225   3.018  10.543 -0.6377 -0.0497  0.3683
  218MOL0     C28664   4.086   3.047  10.588 -0.0616  0.6385  0.0960
  218MOL0     C28665   4.029   3.185  10.548  0.6088  0.6050 -0.1343
  218MOL0     C28666   3.974   3.205  10.403 -0.5233 -0.1115  0.4282
  218MOL0     C28667   4.080   3.190  10.292  0.3009 -0.2324 -0.6223
  218MOL0     O28668   4.027   3.200  10.156  0.2181  0.1172 -0.3900
  218MOL0     C28669   3.961   3.095  10.088  0.6731  0.3060  0.1496
  218MOL0     C28670   3.987   2.958  10.113  0.4470 -0.5115  0.2756
  218MOL0     C28671   3.913   2.861  10.037 -0.3407  0.6957  0.0334
  218MOL0     C28672   3.837   2.897   9.926 -0.2525  0.8399 -0.0163
  218MOL0     C28673   3.773   2.792   9.843 -0.0661 -0.7100  0.0729
  218MOL0     O28674   3.758   2.816   9.710  1.0798 -0.3964  0.2151
  218MOL0     C28675   3.681   2.716   9.649  0.1424  0.2006  0.0729
  218MOL0     C28676   3.750   2.631   9.564  0.1798  1.3243 -0.2194
  218MOL0     C28677   3.687   2.529   9.502  0.3994  0.3013 -0.0206
  218MOL0     C28678   3.546   2.518   9.504 -0.0771  0.4204  0.7895
  218MOL0     O28679   3.481   2.418   9.432  0.2079 -0.2660  0.0532
  218MOL0     C28680   3.355   2.375   9.480  1.6731  0.0238 -0.7511
  218MOL0     C28681   3.296   2.261   9.394 -0.2250  0.2293  0.3175
  218MOL0     C28682   3.160   2.203   9.452  0.2267 -0.1790  0.6476
  218MOL0     C28683   3.135   2.072   9.381  0.3766  0.7468 -0.0777
  218MOL0     C28684   3.040   1.990   9.475 -0.5676 -0.4382 -0.2780
  218MOL0     C28685   3.018   1.861   9.406  0.4324 -0.0488  0.7168
  218MOL0     C28686   2.913   1.769   9.478 -0.1560  0.6068  0.0431
  218MOL0     C28687   2.873   1.646   9.393  0.2374  0.0593  1.0720
  218MOL0    Cl28688   2.768   1.689   9.259 -0.1402  0.4897 -0.4862
  218MOL0     C28689   3.476   2.610   9.589 -0.3141 -0.2497  0.3941
  218MOL0     C28690   3.546   2.700   9.665  0.4868 -0.5508  0.4634
  218MOL0     O28691   3.742   2.681   9.900  0.5281 -0.3473  0.1426
  218MOL0     C28692   3.813   3.041   9.905  0.4863 -1.0101  0.5015
  218MOL0     C28693   3.881   3.135   9.980 -0.5473 -0.2749  0.3658
  218MOL0     N28694   4.329   3.070  10.616 -0.2181  0.0643  0.3449
  218MOL0     N28695   4.443   3.030  10.571 -0.5138 -0.6114 -0.0083
  218MOL0     C28696   5.227   3.204  10.841 -0.5565 -0.7342 -0.2847
  218MOL0     C28697   5.367   3.223  10.843 -0.2299 -0.6409  1.3195
  218MOL0     C28698   5.826   3.080  10.817 -0.2402 -0.1369  0.6853
  218MOL0     C28699   5.855   3.163  10.929 -0.1810  0.1281  0.5270
  218MOL0     C28700   5.984   3.175  10.991  0.1861  0.0889 -0.5675
  218MOL0     C28701   6.086   3.092  10.954  0.1355 -0.2468  0.7865
  218MOL0     O28702   6.212   3.110  10.996  0.4141 -0.4922 -0.4371
  218MOL0     C28703   6.245   3.049  11.119  0.3950 -0.8588  0.7266
  218MOL0     C28704   6.380   3.107  11.167  0.7975  0.3111  0.0902
  218MOL0     C28705   6.509   3.051  11.094  0.0965  0.6178 -0.2196
  218MOL0     C28706   6.636   3.045  11.181  0.2384  0.4179  0.1318
  218MOL0     C28707   6.670   3.181  11.217 -0.1049 -0.2872  0.0181
  218MOL0     C28708   6.698   3.299  11.248 -0.1143 -1.3762  0.6877
  218MOL0     C28709   6.056   3.008  10.847  0.2691 -0.4154 -0.2554
  218MOL0     C28710   5.932   3.001  10.784  0.0790 -0.2457  0.4250
  218MOL0     H28711   5.468   2.920  10.725 -0.7512  1.5307 -3.5416
  218MOL0     H28712   5.223   2.884  10.716  0.9642 -1.2802  1.6996
  218MOL0     H28713   5.006   2.944  10.653 -0.9540 -1.2441  0.7358
  218MOL0     H28714   4.856   3.022  10.734  0.2831  2.1989 -0.6297
  218MOL0     H28715   4.873   2.909  10.920 -0.6530  0.7426 -1.6703
  218MOL0     H28716   5.038   2.849  10.889  0.1323  1.3251  2.3644
  218MOL0     H28717   4.885   2.677  10.872  1.4761  1.1698  1.0484
  218MOL0     H28718   4.945   2.705  10.708 -1.8556  0.6344 -1.0708
  218MOL0     H28719   4.700   2.674  10.785 -1.3180  1.7670  3.5069
  218MOL0     H28720   4.680   2.843  10.796  1.8309  2.1677 -1.3377
  218MOL0     H28721   4.791   2.712  10.537  1.3895 -0.6957  2.5311
  218MOL0     H28722   4.751   2.882  10.566 -1.6873  1.4961  2.1269
  218MOL0     H28723   4.516   2.774  10.628 -1.9657 -0.1229 -0.7727
  218MOL0     H28724   4.582   2.619  10.586 -0.1303 -0.3267 -2.4742
  218MOL0     H28725   4.616   2.703  10.346 -1.2249 -1.4352 -0.1274
  218MOL0     H28726   4.460   2.690  10.392  0.4654 -0.1765 -2.2523
  218MOL0     H28727   4.493   2.902  10.273 -0.1057  1.2343 -0.8232
  218MOL0     H28728   4.613   2.946  10.404  1.4875 -2.0037  1.7668
  218MOL0     H28729   4.232   2.888  10.361 -1.2976  1.4141 -0.6631
  218MOL0     H28730   4.083   3.022  10.694 -0.2114 -4.0276 -0.7766
  218MOL0     H28731   4.030   2.965  10.540  1.3706  0.0233 -0.6023
  218MOL0     H28732   4.090   3.273  10.569 -0.8981  1.7014 -0.1805
  218MOL0     H28733   3.940   3.189  10.612  0.4984  0.0055 -0.2423
  218MOL0     H28734   3.896   3.129  10.388  1.4687 -1.7529 -2.8706
  218MOL0     H28735   3.924   3.302  10.393 -0.9471 -0.5001 -1.9007
  218MOL0     H28736   4.135   3.097  10.308  0.8042  0.1463 -0.0907
  218MOL0     H28737   4.154   3.270  10.297 -1.0796  1.2192 -1.9816
  218MOL0     H28738   4.046   2.917  10.195 -0.7239 -1.4992  0.6612
  218MOL0     H28739   3.927   2.756  10.058 -1.3377  0.2395 -1.4280
  218MOL0     H28740   3.855   2.652   9.547  0.4473  4.4616  3.8585
  218MOL0     H28741   3.732   2.455   9.437 -2.5620 -0.0174 -1.9031
  218MOL0     H28742   3.281   2.456   9.479 -0.8734 -1.8618 -6.5893
  218MOL0     H28743   3.375   2.334   9.579  2.1961  0.4988 -0.6551
  218MOL0     H28744   3.379   2.190   9.388  1.0857  1.1948  4.0855
  218MOL0     H28745   3.282   2.297   9.292 -1.0425  0.5489  0.5371
  218MOL0     H28746   3.074   2.266   9.429  0.0376 -0.7897 -0.3905
  218MOL0     H28747   3.170   2.197   9.561  1.3807  1.4828  0.6638
  218MOL0     H28748   3.094   2.095   9.282 -3.1306 -0.5347  0.9253
  218MOL0     H28749   3.229   2.025   9.351  1.6686  4.1256 -1.8333
  218MOL0     H28750   2.942   2.037   9.488 -0.8036 -1.2532  1.0764
  218MOL0     H28751   3.083   1.975   9.574 -0.3838  0.9712 -0.1258
  218MOL0     H28752   3.108   1.799   9.394  0.7793  0.3840  1.0518
  218MOL0     H28753   2.980   1.884   9.306 -0.6508  0.6461  1.2757
  218MOL0     H28754   2.961   1.734   9.570  0.0329 -1.1089 -0.6758
  218MOL0     H28755   2.826   1.824   9.515 -0.8439 -0.9034  0.7585
  218MOL0     H28756   2.828   1.563   9.448  0.8328 -0.6882  0.4589
  218MOL0     H28757   2.966   1.616   9.344  0.5564  1.7250  0.5835
  218MOL0     H28758   3.369   2.610   9.605 -0.3097  1.5576  0.5840
  218MOL0     H28759   3.496   2.759   9.742  2.3021  0.9080  0.5958
  218MOL0     H28760   3.744   3.068   9.826 -0.7110 -4.7565  0.0515
  218MOL0     H28761   3.872   3.241   9.959 -2.5817 -0.2953  0.9483
  218MOL0     H28762   5.154   3.282  10.861 -2.1572 -2.5818  1.4014
  218MOL0     H28763   5.414   3.319  10.858 -0.0195 -0.1361 -1.8707
  218MOL0     H28764   5.780   3.223  10.978  0.5300  1.7784 -0.3266
  218MOL0     H28765   5.998   3.240  11.077  1.0643  1.1256 -1.4582
  218MOL0     H28766   6.256   2.942  11.101  1.7258 -0.3078 -2.3316
  218MOL0     H28767   6.167   3.074  11.192 -1.8780 -0.2744 -1.7289
  218MOL0     H28768   6.386   3.216  11.160  2.9252  0.2498  0.2264
  218MOL0     H28769   6.384   3.071  11.270  1.8192 -2.9250 -0.9602
  218MOL0     H28770   6.533   3.110  11.005  0.3231  1.0515  0.1256
  218MOL0     H28771   6.490   2.950  11.057  3.8481  0.1887 -1.3497
  218MOL0     H28772   6.602   2.995  11.271  0.4422  2.6921  1.5564
  218MOL0     H28773   6.720   2.989  11.138 -0.5551 -1.6224  1.1578
  218MOL0     H28774   6.717   3.399  11.280  0.2627 -2.3579  3.8741
  218MOL0     H28775   6.128   2.929  10.825 -1.3378 -2.3792  1.1069
  218MOL0     H28776   5.904   2.930  10.706 -3.5787  0.8156  0.5700
  219MOL0     O28777   2.225   8.723   7.536  0.0959 -0.0795 -0.6723
  219MOL0     C28778   2.214   8.757   7.417 -0.1908  0.4867 -0.0535
  219MOL0     O28779   2.116   8.724   7.337 -0.3146 -0.1860  0.7307
  219MOL0     C28780   1.996   8.655   7.377  0.5026  0.4039  0.0284
  219MOL0     C28781   1.979   8.563   7.486  0.4699 -0.0850  0.1841
  219MOL0     C28782   1.850   8.517   7.530 -0.1744  0.2282  0.1980
  219MOL0     C28783   1.745   8.547   7.440  0.2273 -0.0481  1.4409
  219MOL0     O28784   1.626   8.485   7.455  0.2743 -0.0127  0.2825
  219MOL0     C28785   1.582   8.433   7.581 -0.3947  0.7428  0.1520
  219MOL0     C28786   1.433   8.407   7.582 -0.3581 -0.8833  0.8805
  219MOL0     C28787   1.393   8.299   7.472  0.3393 -0.5385  0.8991
  219MOL0     C28788   1.261   8.222   7.502 -0.4473  0.2245 -1.0041
  219MOL0     C28789   1.208   8.149   7.384  0.3361 -0.1361 -0.0775
  219MOL0     C28790   1.278   8.018   7.356 -0.4867 -0.0074 -0.8199
  219MOL0     C28791   1.266   7.994   7.206 -0.0094 -0.2198 -0.0501
  219MOL0     C28792   1.355   7.869   7.174 -0.2616 -0.6952  1.0561
  219MOL0     N28793   1.377   7.883   7.037 -0.7065 -0.2428 -0.2041
  219MOL0     C28794   1.482   7.940   6.985  0.0289 -0.1804  0.3683
  219MOL0     C28795   1.490   7.894   6.860  0.1365  0.0887 -0.3450
  219MOL0     C28796   1.582   7.938   6.758 -0.0041  0.0174  0.4328
  219MOL0     C28797   1.683   7.823   6.767 -0.4097  0.0430 -0.4870
  219MOL0     C28798   1.798   7.827   6.668  0.8868 -0.2307  0.3115
  219MOL0     C28799   1.897   7.939   6.684  0.2430  0.1828  0.1509
  219MOL0     O28800   2.002   7.927   6.593 -0.4255  0.1416 -0.3205
  219MOL0     C28801   2.123   7.993   6.620 -1.2363 -0.3822 -0.3010
  219MOL0     C28802   2.202   7.995   6.506 -0.9117  1.1434 -0.1228
  219MOL0     C28803   2.321   8.061   6.513 -0.4138  0.0435  0.1304
  219MOL0     C28804   2.368   8.120   6.633 -0.1966 -0.9659 -0.0200
  219MOL0     C28805   2.511   8.170   6.632  1.0662  0.7063  0.8951
  219MOL0     O28806   2.575   8.147   6.516 -0.1086  0.1100 -0.2375
  219MOL0     C28807   2.697   8.205   6.486 -0.2626 -0.4668 -0.7190
  219MOL0     C28808   2.764   8.137   6.385 -0.1533  0.4332 -0.4866
  219MOL0     C28809   2.898   8.172   6.352 -0.4337  0.4974 -0.0920
  219MOL0     C28810   2.967   8.271   6.416 -0.1856  0.4946  0.5403
  219MOL0     O28811   3.094   8.302   6.383 -0.1876 -0.7194 -0.2626
  219MOL0     C28812   3.185   8.202   6.322  0.2058 -0.3583 -0.8575
  219MOL0     C28813   3.311   8.287   6.290  0.2976  0.9594  0.8843
  219MOL0     C28814   3.419   8.194   6.218 -0.8402 -0.0409 -0.5553
  219MOL0     C28815   3.563   8.244   6.218  0.7277  0.1169  0.2461
  219MOL0     C28816   3.623   8.259   6.354  0.6276 -0.5344  1.2161
  219MOL0     C28817   3.772   8.290   6.324 -0.0310 -0.4067 -0.5625
  219MOL0     C28818   3.854   8.321   6.447  0.8638  0.4487 -0.2358
  219MOL0     C28819   3.991   8.369   6.402  0.0175 -1.8284  0.2157
  219MOL0    Cl28820   4.100   8.236   6.358 -0.1326  0.3862 -0.0884
  219MOL0     C28821   2.897   8.346   6.511  0.5726 -0.3627 -0.1102
  219MOL0     C28822   2.761   8.313   6.543 -0.5263 -0.4929  0.1867
  219MOL0     O28823   2.560   8.223   6.734  0.1180 -0.7846 -0.3483
  219MOL0     C28824   2.294   8.110   6.743  0.4129  0.2658  0.7342
  219MOL0     C28825   2.161   8.056   6.739  0.2862  0.2395  0.3322
  219MOL0     N28826   1.374   7.819   6.839  0.6086 -0.2920 -1.0833
  219MOL0     N28827   1.308   7.816   6.945 -0.1516 -0.5934  0.6851
  219MOL0     C28828   1.767   8.620   7.322 -0.9295  0.0127 -0.0563
  219MOL0     C28829   1.891   8.675   7.289 -0.3913  0.3928 -0.5088
  219MOL0     C28830   2.331   8.828   7.361 -0.2247 -0.7341 -0.9395
  219MOL0     C28831   2.322   8.885   7.231 -1.7278  0.6485  0.3965
  219MOL0     C28832   2.440   8.941   7.177 -0.6709 -0.4270  0.0816
  219MOL0     C28833   2.561   8.950   7.244 -0.6093 -0.0138 -0.7197
  219MOL0     O28834   2.665   9.024   7.181  0.7437  0.2929  0.2937
  219MOL0     C28835   2.797   9.016   7.231 -0.7452 -0.5094 -0.0159
  219MOL0     C28836   2.904   9.061   7.127  0.1848 -0.0339 -0.6788
  219MOL0     C28837   2.868   9.023   6.981 -0.9811 -0.1020 -0.8288
  219MOL0     C28838   2.954   9.109   6.890 -0.2595 -0.4392  0.2262
  219MOL0     C28839   2.938   9.073   6.750  0.5603 -0.0804 -0.0717
  219MOL0     C28840   2.930   9.043   6.635 -1.1586 -0.5135 -0.4387
  219MOL0     C28841   2.571   8.891   7.365 -0.4310 -0.1416  0.0719
  219MOL0     C28842   2.457   8.832   7.432 -0.5942 -0.0514  0.1818
  219MOL0     H28843   2.060   8.528   7.549  1.4772  3.3831  1.0097
  219MOL0     H28844   1.839   8.462   7.622 -0.6212  1.9918  1.2448
  219MOL0     H28845   1.610   8.507   7.657 -2.1225  3.8827 -2.0487
  219MOL0     H28846   1.637   8.339   7.596  1.4026  1.4914 -1.4056
  219MOL0     H28847   1.367   8.493   7.573 -1.2446 -1.5862  0.5738
  219MOL0     H28848   1.416   8.354   7.676 -0.9538  0.3245  1.4608
  219MOL0     H28849   1.474   8.226   7.481 -0.1787 -1.3304 -0.4546
  219MOL0     H28850   1.397   8.342   7.371 -3.4301 -2.8160 -0.4626
  219MOL0     H28851   1.282   8.155   7.586 -1.0145  0.3828 -0.7262
  219MOL0     H28852   1.180   8.285   7.542  0.9806  1.0654  0.6670
  219MOL0     H28853   1.205   8.222   7.302 -0.2147  0.6090  0.5867
  219MOL0     H28854   1.106   8.113   7.401  0.6662 -1.0015  0.1273
  219MOL0     H28855   1.223   7.943   7.413  0.2214  3.6171  5.5885
  219MOL0     H28856   1.384   8.012   7.384 -0.8769 -1.9261  0.3920
  219MOL0     H28857   1.163   7.975   7.176 -0.6075  0.0159  1.7532
  219MOL0     H28858   1.289   8.081   7.144 -2.7436  0.3971 -0.3019
  219MOL0     H28859   1.295   7.781   7.198 -0.0617 -0.8217  1.1018
  219MOL0     H28860   1.451   7.877   7.227 -1.0172  0.8853  2.2877
  219MOL0     H28861   1.550   8.005   7.038 -0.8020 -1.4042  3.0992
  219MOL0     H28862   1.623   8.035   6.785 -2.6881  0.7875  2.2008
  219MOL0     H28863   1.538   7.941   6.658  2.0147 -1.3841 -0.5573
  219MOL0     H28864   1.617   7.738   6.749 -2.5917  1.7652 -1.1203
  219MOL0     H28865   1.718   7.822   6.871 -2.2188  3.0223  0.2902
  219MOL0     H28866   1.862   7.738   6.658 -0.1343 -0.8037 -1.6366
  219MOL0     H28867   1.763   7.836   6.565  1.4268 -1.0564  0.0407
  219MOL0     H28868   1.931   7.929   6.788 -1.5438 -1.0231  0.6581
  219MOL0     H28869   1.853   8.039   6.674  1.5890  0.9954  1.8191
  219MOL0     H28870   2.163   7.964   6.411 -1.4310  2.9893 -0.5531
  219MOL0     H28871   2.365   8.080   6.415 -0.6403  0.9942  0.2054
  219MOL0     H28872   2.714   8.052   6.341  2.2419 -0.6543 -1.3121
  219MOL0     H28873   2.942   8.114   6.272 -1.6205  1.7079 -1.6882
  219MOL0     H28874   3.140   8.164   6.230 -0.8664  1.0395 -0.9496
  219MOL0     H28875   3.216   8.118   6.386  0.2164  2.0405  2.5800
  219MOL0     H28876   3.346   8.317   6.389  0.7346 -1.3639  1.5059
  219MOL0     H28877   3.283   8.375   6.232  0.6028  0.0912 -0.6544
  219MOL0     H28878   3.390   8.167   6.116  0.5503 -1.5808 -0.5754
  219MOL0     H28879   3.423   8.106   6.282 -2.1312  0.7520  0.6734
  219MOL0     H28880   3.621   8.169   6.162 -0.0408 -1.1592  1.1065
  219MOL0     H28881   3.567   8.341   6.167 -0.1868  2.1082  3.6781
  219MOL0     H28882   3.608   8.162   6.403  0.6476 -0.9136  0.4731
  219MOL0     H28883   3.567   8.337   6.408 -1.5479 -1.9795  1.2007
  219MOL0     H28884   3.780   8.381   6.264  2.6347 -0.4243 -0.3449
  219MOL0     H28885   3.820   8.210   6.266  3.3028  2.1095 -1.5889
  219MOL0     H28886   3.802   8.404   6.495 -1.3658 -0.4818 -0.9119
  219MOL0     H28887   3.877   8.233   6.508  1.8270  1.8025  1.4326
  219MOL0     H28888   4.041   8.423   6.483 -1.8121 -0.2816  0.4017
  219MOL0     H28889   3.989   8.446   6.325 -1.6137  0.5114  2.4381
  219MOL0     H28890   2.932   8.426   6.576 -0.4296 -1.3196  1.7021
  219MOL0     H28891   2.718   8.379   6.618 -0.9387 -0.1046 -0.3840
  219MOL0     H28892   2.334   8.147   6.837 -0.6448 -0.5519  1.5214
  219MOL0     H28893   2.119   8.044   6.839  2.9925 -0.4832  1.4495
  219MOL0     H28894   1.681   8.644   7.259 -1.4602 -0.0045  0.6543
  219MOL0     H28895   1.916   8.746   7.211  0.2493  0.3078 -0.3855
  219MOL0     H28896   2.227   8.880   7.179 -1.5927 -4.9676  0.1218
  219MOL0     H28897   2.445   8.992   7.082  0.9228  2.6168  1.6384
  219MOL0     H28898   2.823   8.911   7.248 -0.6537 -0.8352 -1.9287
  219MOL0     H28899   2.807   9.053   7.334 -1.5919 -2.5449  0.8549
  219MOL0     H28900   2.912   9.169   7.141  0.1214  0.0111 -0.9971
  219MOL0     H28901   2.994   9.006   7.156 -0.7342 -1.2126  0.0762
  219MOL0     H28902   2.762   9.033   6.954 -0.2655  1.6402 -3.3723
  219MOL0     H28903   2.905   8.920   6.970  1.8157  0.6190  1.0398
  219MOL0     H28904   2.921   9.213   6.894 -4.6175 -1.5301 -1.1626
  219MOL0     H28905   3.059   9.107   6.918 -1.0610 -1.5182  3.7153
  219MOL0     H28906   2.931   8.998   6.538  1.2670 -0.0221 -0.7063
  219MOL0     H28907   2.655   8.905   7.432 -1.0453 -0.9279  1.0291
  219MOL0     H28908   2.459   8.811   7.538 -0.7041  2.6431  0.7750
  220MOL0     O28909   3.563   8.800   1.890  0.0857 -0.0044  0.2412
  220MOL0     C28910   3.633   8.897   1.865  0.1373 -0.6524  0.0898
  220MOL0     O28911   3.588   9.028   1.878  0.4748  0.1581 -0.5073
  220MOL0     C28912   3.464   9.047   1.941  0.6351 -0.4040  0.5602
  220MOL0     C28913   3.365   9.112   1.869 -0.1456  0.3599 -0.0870
  220MOL0     C28914   3.234   9.100   1.917 -0.1629  0.1335 -0.3522
  220MOL0     C28915   3.212   9.033   2.034  0.2550  0.2513 -0.1718
  220MOL0     O28916   3.087   9.014   2.084 -0.3562  0.0983  0.0840
  220MOL0     C28917   2.981   8.985   1.984  0.8202 -0.2009  0.0884
  220MOL0     C28918   2.882   9.104   1.963 -0.7791 -0.0343  0.2575
  220MOL0     C28919   2.747   9.101   2.030 -0.9239 -0.3249  0.4841
  220MOL0     C28920   2.653   8.981   2.013 -0.1879 -0.1960 -0.7343
  220MOL0     C28921   2.556   8.968   2.135  0.2543 -0.0328  0.0480
  220MOL0     C28922   2.481   9.097   2.162  0.0286 -0.2718  0.3519
  220MOL0     C28923   2.346   9.058   2.212 -0.1724 -0.2788  0.2938
  220MOL0     C28924   2.340   8.998   2.346  0.1079  0.7278  0.2090
  220MOL0     N28925   2.198   9.003   2.399 -0.5292 -0.3576  0.0128
  220MOL0     C28926   2.143   9.099   2.479  0.0036 -0.4909 -0.5961
  220MOL0     C28927   2.016   9.061   2.508 -0.0721  0.1126  0.1863
  220MOL0     C28928   1.934   9.115   2.621  0.9957 -0.3194  0.3128
  220MOL0     C28929   1.934   9.270   2.604  0.5850 -0.9899 -0.7580
  220MOL0     C28930   1.860   9.331   2.726  0.4677  1.3178 -0.2752
  220MOL0     C28931   1.837   9.481   2.714 -0.1559  0.0646 -0.5252
  220MOL0     O28932   1.762   9.526   2.601  0.4931  0.1098 -0.7206
  220MOL0     C28933   1.629   9.544   2.610  0.5907 -1.0994  0.5280
  220MOL0     C28934   1.564   9.620   2.511 -0.0347  1.3517 -0.6231
  220MOL0     C28935   1.425   9.613   2.501  0.3457 -0.1972  0.8850
  220MOL0     C28936   1.349   9.538   2.593 -0.0938  0.0560  0.3915
  220MOL0     C28937   1.200   9.510   2.575 -0.6473 -0.3232  0.5147
  220MOL0     O28938   1.137   9.599   2.489 -0.0286 -0.7914  0.4227
  220MOL0     C28939   1.002   9.573   2.456  0.3596 -0.3129 -0.4585
  220MOL0     C28940   0.968   9.537   2.321  0.1235 -0.0287 -0.3390
  220MOL0     C28941   0.840   9.526   2.276  1.1975 -0.7305 -0.5039
  220MOL0     C28942   0.732   9.556   2.356 -1.4997 -0.4672  0.5543
  220MOL0     O28943   0.597   9.561   2.326 -0.4545 -0.9652 -0.4916
  220MOL0     C28944   0.552   9.457   2.244 -1.0380 -0.4778 -0.1438
  220MOL0     C28945   0.398   9.460   2.224  0.0909  0.0541  0.4653
  220MOL0     C28946   0.367   9.395   2.091  0.4205  0.5505 -0.0222
  220MOL0     C28947   0.218   9.410   2.055  0.0458  0.3033  1.0791
  220MOL0     C28948   0.196   9.524   1.962  0.6615 -0.0754 -0.3108
  220MOL0     C28949   0.248   9.512   1.821  0.2425  0.0511 -0.1705
  220MOL0     C28950   0.258   9.646   1.746 -0.2233 -0.6206 -0.4812
  220MOL0     C28951   0.393   9.713   1.768  0.4442 -0.0094  0.8591
  220MOL0    Cl28952   0.527   9.626   1.693 -0.5174  0.4368 -0.3240
  220MOL0     C28953   0.762   9.594   2.485  0.0826  0.4472  0.0922
  220MOL0     C28954   0.891   9.605   2.540 -0.7652  0.2594  0.9157
  220MOL0     O28955   1.151   9.416   2.633 -0.0388  0.0965  0.4322
  220MOL0     C28956   1.416   9.482   2.699  0.4909  0.5034  0.8597
  220MOL0     C28957   1.558   9.480   2.711  0.2041  0.4668 -0.6434
  220MOL0     N28958   1.995   8.943   2.442  0.2161 -0.2066 -0.1751
  220MOL0     N28959   2.105   8.901   2.391  0.1530  0.6056 -0.1452
  220MOL0     C28960   3.311   8.975   2.111  0.2747 -0.3038 -0.4310
  220MOL0     C28961   3.443   8.985   2.068  0.4531 -0.1072  0.1261
  220MOL0     C28962   3.762   8.869   1.804 -0.0348 -0.0196  1.3620
  220MOL0     C28963   3.857   8.969   1.788  0.5465  0.3204  0.4884
  220MOL0     C28964   3.982   8.941   1.743  0.2715  0.6355 -0.1500
  220MOL0     C28965   4.022   8.818   1.694  0.4362  0.5580  0.6688
  220MOL0     O28966   4.145   8.808   1.642 -0.6305 -0.1252 -0.0248
  220MOL0     C28967   4.199   8.681   1.611  0.3441 -0.0535  0.0108
  220MOL0     C28968   4.338   8.694   1.552 -0.7105 -0.2105 -0.1128
  220MOL0     C28969   4.443   8.729   1.661 -0.1954 -0.3559 -0.0418
  220MOL0     C28970   4.594   8.738   1.626  0.2602  0.5253  0.5457
  220MOL0     C28971   4.628   8.812   1.497 -0.0096  0.1023 -0.5799
  220MOL0     C28972   4.649   8.877   1.398  0.3969 -0.4414  0.2559
  220MOL0     C28973   3.928   8.710   1.704  0.1628  0.4969 -0.6314
  220MOL0     C28974   3.793   8.733   1.758  0.7408 -0.4280  0.0407
  220MOL0     H28975   3.384   9.157   1.772  0.0560 -1.0922 -0.7587
  220MOL0     H28976   3.157   9.140   1.852 -1.0330 -0.9138 -0.0023
  220MOL0     H28977   2.929   8.903   2.034  0.7446 -2.7016 -3.6947
  220MOL0     H28978   3.011   8.942   1.888 -1.1087 -0.1205 -0.5854
  220MOL0     H28979   2.874   9.118   1.855  2.0261 -0.8193 -0.1495
  220MOL0     H28980   2.938   9.188   2.005  2.9533 -2.6465  1.0731
  220MOL0     H28981   2.703   9.196   2.000  2.0153  0.4619 -1.8633
  220MOL0     H28982   2.765   9.115   2.137 -0.2459 -1.3507  0.5162
  220MOL0     H28983   2.588   8.991   1.925 -0.9027 -0.6706 -0.2636
  220MOL0     H28984   2.704   8.885   2.000 -0.5798 -0.2501 -2.0400
  220MOL0     H28985   2.606   8.941   2.228 -0.2617 -0.4466  0.2150
  220MOL0     H28986   2.487   8.887   2.107  0.1076 -0.9614  2.7851
  220MOL0     H28987   2.465   9.153   2.069 -1.7148 -0.4635  0.4962
  220MOL0     H28988   2.535   9.156   2.236 -1.7893  1.7127  0.1969
  220MOL0     H28989   2.283   9.147   2.200 -0.3764 -0.4229  0.2973
  220MOL0     H28990   2.296   8.983   2.151 -2.4301 -2.3479  4.2885
  220MOL0     H28991   2.417   9.034   2.415  2.1488 -0.4256 -1.3540
  220MOL0     H28992   2.377   8.896   2.335 -1.2259  0.4769 -2.9800
  220MOL0     H28993   2.205   9.183   2.510  1.1998 -0.5783 -2.5864
  220MOL0     H28994   1.977   9.085   2.716  2.3205 -2.2620 -0.8337
  220MOL0     H28995   1.832   9.075   2.626  1.0705 -0.8769 -1.6254
  220MOL0     H28996   1.874   9.290   2.515  1.5017 -1.2680 -1.4487
  220MOL0     H28997   2.025   9.330   2.590 -1.4154  3.4726  2.7711
  220MOL0     H28998   1.766   9.274   2.723  0.8408  0.6198  0.6891
  220MOL0     H28999   1.911   9.315   2.821 -0.5083 -1.3576 -0.1169
  220MOL0     H29000   1.931   9.535   2.701 -0.0291 -0.3749 -1.4703
  220MOL0     H29001   1.793   9.509   2.811  5.0841  2.2806  1.6212
  220MOL0     H29002   1.623   9.670   2.435  3.0175 -2.0977 -0.8043
  220MOL0     H29003   1.384   9.653   2.409 -0.0969 -0.3554  1.0082
  220MOL0     H29004   1.040   9.491   2.255 -0.8026 -3.1680  0.6533
  220MOL0     H29005   0.815   9.489   2.177  1.9279  0.2126 -1.0605
  220MOL0     H29006   0.594   9.362   2.278  0.1760  0.0070 -0.2369
  220MOL0     H29007   0.597   9.471   2.146  0.3444 -1.0578  0.3827
  220MOL0     H29008   0.360   9.563   2.218  0.1926  0.0860  0.3502
  220MOL0     H29009   0.339   9.415   2.303 -0.7515 -2.9316 -1.6998
  220MOL0     H29010   0.392   9.289   2.103  2.1358  1.0301  0.9492
  220MOL0     H29011   0.431   9.439   2.014  0.7894 -1.6318 -1.0198
  220MOL0     H29012   0.183   9.317   2.009  1.6913 -1.4819  3.1989
  220MOL0     H29013   0.150   9.419   2.140 -0.9769 -0.8891  0.4206
  220MOL0     H29014   0.235   9.614   2.010 -2.8330  1.4285  0.0154
  220MOL0     H29015   0.087   9.533   1.958  0.7927  1.4239 -1.2081
  220MOL0     H29016   0.176   9.461   1.756  1.4399 -1.5922 -0.2853
  220MOL0     H29017   0.343   9.459   1.811  0.2232  0.3135 -2.3853
  220MOL0     H29018   0.244   9.624   1.640  0.0162 -3.8815  0.0663
  220MOL0     H29019   0.180   9.715   1.781  1.2120 -0.3160  2.3971
  220MOL0     H29020   0.420   9.730   1.872 -1.4275  1.0726  1.2237
  220MOL0     H29021   0.382   9.810   1.717 -0.2443  0.1074  1.2188
  220MOL0     H29022   0.684   9.625   2.555 -0.1924  0.6056 -0.2840
  220MOL0     H29023   0.907   9.643   2.640  0.0250 -0.7940  1.2044
  220MOL0     H29024   1.364   9.421   2.772 -0.0357 -0.6244 -0.4066
  220MOL0     H29025   1.591   9.409   2.786  0.2499  0.2701 -0.8496
  220MOL0     H29026   3.294   8.916   2.201  3.5779 -2.1362 -0.8487
  220MOL0     H29027   3.526   8.949   2.128  1.4756  2.7785  0.6424
  220MOL0     H29028   3.829   9.071   1.814 -2.4614  0.6696 -3.2794
  220MOL0     H29029   4.050   9.025   1.736  0.9226  0.1099 -0.2435
  220MOL0     H29030   4.132   8.649   1.531 -1.0892  1.8809  0.3627
  220MOL0     H29031   4.197   8.618   1.700 -0.6988  1.2308  0.9423
  220MOL0     H29032   4.369   8.599   1.506  0.0197 -0.7537  1.4291
  220MOL0     H29033   4.347   8.762   1.467  1.9635 -0.2801  0.0370
  220MOL0     H29034   4.435   8.654   1.741  2.9772 -2.7560 -1.7177
  220MOL0     H29035   4.412   8.828   1.694  2.4169 -0.3639  2.8855
  220MOL0     H29036   4.646   8.800   1.700  0.2384  0.8681  0.2748
  220MOL0     H29037   4.624   8.633   1.632 -0.2145  0.4471  2.4900
  220MOL0     H29038   4.652   8.930   1.305  1.5165 -0.9498 -0.0071
  220MOL0     H29039   3.947   8.610   1.666  0.2941  0.8262 -1.4495
  220MOL0     H29040   3.722   8.652   1.769 -0.2890 -0.3015 -3.9378
  221MOL0     O29041   2.343   9.732   6.513  0.0546  0.0486  0.0004
  221MOL0     C29042   2.353   9.674   6.399 -0.6354  0.4394  0.1038
  221MOL0     O29043   2.251   9.602   6.337  0.9206 -0.2509 -0.2880
  221MOL0     C29044   2.144   9.559   6.417 -0.4208 -0.3088 -0.6871
  221MOL0     C29045   2.155   9.478   6.532 -0.4471 -0.2387 -0.7611
  221MOL0     C29046   2.037   9.431   6.598 -0.2832  0.4635 -0.0661
  221MOL0     C29047   1.912   9.446   6.537 -0.4506 -0.8018 -0.2897
  221MOL0     O29048   1.797   9.408   6.599 -0.2059  1.1671 -0.2573
  221MOL0     C29049   1.809   9.266   6.628 -0.4928 -0.3758 -0.1433
  221MOL0     C29050   1.685   9.194   6.676 -0.4996  0.7377 -0.6389
  221MOL0     C29051   1.567   9.200   6.580  0.0983 -0.3878 -0.0615
  221MOL0     C29052   1.448   9.118   6.638 -0.2129 -0.4173 -0.1005
  221MOL0     C29053   1.331   9.101   6.541 -0.1038  0.3989  0.9441
  221MOL0     C29054   1.270   9.229   6.479 -0.3801  0.5123 -0.1149
  221MOL0     C29055   1.189   9.307   6.577 -0.3262 -0.0863 -0.2660
  221MOL0     C29056   1.057   9.248   6.627  0.2448 -0.0671  0.0285
  221MOL0     N29057   0.973   9.220   6.508  0.4272 -0.2034 -0.5590
  221MOL0     C29058   0.882   9.123   6.502 -0.1903 -0.3448  0.0497
  221MOL0     C29059   0.791   9.161   6.409 -0.1726  0.7941 -0.0649
  221MOL0     C29060   0.665   9.092   6.369 -0.5099 -0.3835 -0.4591
  221MOL0     C29061   0.603   9.015   6.494 -0.4171  0.1181 -0.0521
  221MOL0     C29062   0.482   8.934   6.449  0.0799  0.1979  0.1291
  221MOL0     C29063   0.354   9.017   6.415 -0.1174 -0.2217  0.2419
  221MOL0     O29064   0.264   9.014   6.529  0.3414 -0.5064 -0.2836
  221MOL0     C29065   0.144   8.942   6.517  0.2395  0.2937 -0.4609
  221MOL0     C29066   0.029   8.976   6.587  0.1076  0.0784 -0.4093
  221MOL0     C29067  -0.090   8.895   6.567 -1.0221  0.2745 -0.5274
  221MOL0     C29068  -0.090   8.777   6.490 -0.0146 -0.7288  0.1830
  221MOL0     C29069  -0.218   8.697   6.472  0.3605 -0.7088 -0.2417
  221MOL0     O29070  -0.207   8.577   6.414  0.0162 -0.0902 -0.1954
  221MOL0     C29071  -0.315   8.491   6.412  1.0309  0.2489 -0.2000
  221MOL0     C29072  -0.347   8.420   6.531 -0.5268 -0.3438 -0.0352
  221MOL0     C29073  -0.455   8.336   6.533 -0.4383  0.5362  0.6876
  221MOL0     C29074  -0.535   8.321   6.413 -0.8909  0.6476  0.6496
  221MOL0     O29075  -0.643   8.238   6.399  0.2388  0.0595  0.6404
  221MOL0     C29076  -0.652   8.117   6.474  1.0139  0.1149  0.6426
  221MOL0     C29077  -0.689   7.998   6.384 -1.1676 -0.2484 -0.1525
  221MOL0     C29078  -0.734   7.876   6.466  0.5590 -0.0298  0.9213
  221MOL0     C29079  -0.755   7.751   6.374  0.0491 -0.5446 -0.1669
  221MOL0     C29080  -0.897   7.763   6.311 -0.9077 -0.5542  0.5167
  221MOL0     C29081  -0.940   7.628   6.261 -0.0642 -0.4076  0.3611
  221MOL0     C29082  -1.082   7.655   6.198 -0.0732 -0.1041  0.8838
  221MOL0     C29083  -1.123   7.544   6.112  0.1368 -0.2549  0.3592
  221MOL0    Cl29084  -1.139   7.381   6.192 -0.1866 -0.7397 -0.4011
  221MOL0     C29085  -0.501   8.390   6.296  0.1926 -0.7940 -0.8326
  221MOL0     C29086  -0.402   8.485   6.302  0.5235  0.1270 -1.1350
  221MOL0     O29087  -0.322   8.743   6.524  0.4227  0.2776  0.3260
  221MOL0     C29088   0.030   8.748   6.427 -0.1428 -1.4547 -0.3475
  221MOL0     C29089   0.145   8.826   6.439  0.1501 -0.5788  0.0626
  221MOL0     N29090   0.833   9.283   6.364 -0.0559 -0.1358  1.2752
  221MOL0     N29091   0.951   9.317   6.414  0.2108 -0.4068  0.0460
  221MOL0     C29092   1.904   9.522   6.422 -0.0522 -1.0116  0.5409
  221MOL0     C29093   2.018   9.573   6.369 -0.7500 -0.2397 -0.3157
  221MOL0     C29094   2.471   9.702   6.316 -0.0690  0.6405  0.1388
  221MOL0     C29095   2.486   9.651   6.185 -0.6713  0.1670  0.0200
  221MOL0     C29096   2.598   9.685   6.113 -0.8842 -0.3943 -0.6415
  221MOL0     C29097   2.703   9.762   6.164 -0.5711 -0.1987 -0.3292
  221MOL0     O29098   2.814   9.791   6.089 -0.2131  0.6373 -1.0566
  221MOL0     C29099   2.922   9.868   6.146 -0.2352  0.3889 -0.3614
  221MOL0     C29100   3.042   9.882   6.053 -0.0617  0.6199 -0.2203
  221MOL0     C29101   3.176   9.935   6.122 -0.4327  0.9096  0.3648
  221MOL0     C29102   3.293   9.950   6.026  0.3339 -0.6080 -0.4098
  221MOL0     C29103   3.394  10.034   6.092  0.0196 -0.3654  0.5219
  221MOL0     C29104   3.481  10.108   6.130 -0.2211 -0.8168  0.0941
  221MOL0     C29105   2.686   9.815   6.292  0.5216  0.9297 -0.6306
  221MOL0     C29106   2.570   9.787   6.369 -0.3396 -0.1436 -0.3664
  221MOL0     H29107   2.256   9.460   6.570 -0.7304 -2.0849 -0.8049
  221MOL0     H29108   2.040   9.375   6.690 -0.8421 -1.0193 -0.9131
  221MOL0     H29109   1.869   9.268   6.720 -1.8886 -2.2017  0.8726
  221MOL0     H29110   1.871   9.212   6.556  0.3383 -1.7003  1.4772
  221MOL0     H29111   1.655   9.229   6.775  1.7802  0.0439  0.3703
  221MOL0     H29112   1.706   9.087   6.691 -0.9374  0.8740  1.1635
  221MOL0     H29113   1.600   9.150   6.487  0.6249 -2.1548  1.0131
  221MOL0     H29114   1.537   9.303   6.561  3.4556  1.2800  2.4495
  221MOL0     H29115   1.490   9.025   6.678 -0.6593 -0.7339 -0.3547
  221MOL0     H29116   1.404   9.169   6.724 -0.1713 -1.9279  0.8571
  221MOL0     H29117   1.242   9.054   6.585  0.0011  0.9228  1.7485
  221MOL0     H29118   1.359   9.040   6.455 -0.0144  1.9112 -0.1427
  221MOL0     H29119   1.216   9.200   6.389 -0.7152  1.7261 -0.3259
  221MOL0     H29120   1.346   9.300   6.446 -1.0510  1.0495 -0.5420
  221MOL0     H29121   1.241   9.332   6.670  1.7922  0.0614 -1.4323
  221MOL0     H29122   1.161   9.403   6.533  0.0722  0.6061  0.9462
  221MOL0     H29123   1.003   9.313   6.695 -2.8836 -2.8509  0.4463
  221MOL0     H29124   1.080   9.163   6.692  0.0107  1.5076  2.2891
  221MOL0     H29125   0.896   9.033   6.561 -0.2275 -0.0960  0.4398
  221MOL0     H29126   0.686   9.015   6.294 -1.2547 -4.6859  3.3386
  221MOL0     H29127   0.595   9.166   6.330 -0.3825 -0.6575 -1.2307
  221MOL0     H29128   0.594   9.087   6.576  4.2823  0.1148  0.7015
  221MOL0     H29129   0.672   8.937   6.526  1.1482  0.8516 -1.5087
  221MOL0     H29130   0.508   8.879   6.357  1.1994  0.8946  0.0157
  221MOL0     H29131   0.457   8.866   6.531  2.8890  2.6878  3.3368
  221MOL0     H29132   0.319   8.972   6.322  1.1718 -1.5710  0.3691
  221MOL0     H29133   0.391   9.120   6.407  1.7266 -0.5327  3.2614
  221MOL0     H29134   0.039   9.064   6.651 -0.9001 -0.3503  0.3717
  221MOL0     H29135  -0.184   8.922   6.614 -0.6492 -1.1572  1.1713
  221MOL0     H29136  -0.294   8.444   6.623  0.4477  1.9321 -1.1267
  221MOL0     H29137  -0.503   8.297   6.622 -2.0754  0.3067 -0.2503
  221MOL0     H29138  -0.738   8.123   6.542  0.4401  0.9887 -0.1365
  221MOL0     H29139  -0.564   8.086   6.532 -0.4808 -1.5597  2.1767
  221MOL0     H29140  -0.610   7.975   6.312  0.2040 -0.1705  1.2813
  221MOL0     H29141  -0.782   8.036   6.341 -1.5235  1.3719  1.8553
  221MOL0     H29142  -0.826   7.896   6.521  1.3098  1.0205  1.8604
  221MOL0     H29143  -0.657   7.846   6.538  2.1533 -4.3643 -2.1682
  221MOL0     H29144  -0.673   7.741   6.302  1.4258 -0.9881  1.4057
  221MOL0     H29145  -0.753   7.663   6.439  0.3638 -0.3515  0.0831
  221MOL0     H29146  -0.906   7.836   6.230  1.5420 -1.2139 -0.4232
  221MOL0     H29147  -0.968   7.807   6.382 -2.0629 -0.5064 -0.6195
  221MOL0     H29148  -0.955   7.557   6.343  2.4636 -2.4982 -0.7834
  221MOL0     H29149  -0.867   7.571   6.202 -0.0392  1.6381 -1.6884
  221MOL0     H29150  -1.161   7.668   6.273 -1.3513  1.1661 -0.5838
  221MOL0     H29151  -1.073   7.741   6.131  0.8694  0.3031  1.5164
  221MOL0     H29152  -1.040   7.540   6.042 -0.6964 -0.8700 -0.6188
  221MOL0     H29153  -1.220   7.582   6.077  0.9853  5.4237  3.0754
  221MOL0     H29154  -0.566   8.347   6.220 -0.0520 -2.5115  0.2662
  221MOL0     H29155  -0.389   8.533   6.206 -1.1899  2.8436 -0.1249
  221MOL0     H29156   0.044   8.652   6.377 -1.4797 -1.7277 -0.2244
  221MOL0     H29157   0.233   8.799   6.382 -0.3854  0.1330 -1.1507
  221MOL0     H29158   1.805   9.531   6.378  0.4120  0.3474 -0.2635
  221MOL0     H29159   1.999   9.637   6.284 -0.9493  4.0663  2.6638
  221MOL0     H29160   2.416   9.582   6.139 -1.5032 -0.2994  1.8563
  221MOL0     H29161   2.608   9.654   6.010  1.1424 -0.7777 -0.3620
  221MOL0     H29162   2.955   9.818   6.238 -1.5765  1.6715  0.8699
  221MOL0     H29163   2.879   9.966   6.167 -1.3484  0.0132 -0.8071
  221MOL0     H29164   3.056   9.780   6.016  1.0626  1.3029 -1.8138
  221MOL0     H29165   3.012   9.936   5.963 -0.2243 -0.1738 -0.6579
  221MOL0     H29166   3.213   9.879   6.208 -0.5885 -4.1538 -2.4721
  221MOL0     H29167   3.158  10.039   6.151 -2.0465  0.3076  1.6551
  221MOL0     H29168   3.337   9.851   6.014  0.0427 -0.6074 -1.5707
  221MOL0     H29169   3.256   9.996   5.934  1.2253 -0.0181 -0.4887
  221MOL0     H29170   3.569  10.168   6.138 -0.3383 -0.3815 -1.5948
  221MOL0     H29171   2.769   9.868   6.336  2.5192 -1.3538 -1.4232
  221MOL0     H29172   2.555   9.835   6.466 -2.6270  0.2896 -0.8631
  222MOL0     O29173   1.170   4.831   3.996 -0.1782 -0.4195 -0.0202
  222MOL0     C29174   1.239   4.929   4.041  0.6701 -0.0949 -0.9252
  222MOL0     O29175   1.186   5.048   4.087 -0.2291 -0.3592 -0.5212
  222MOL0     C29176   1.055   5.079   4.077 -0.0634 -0.4959 -0.1100
  222MOL0     C29177   0.976   5.121   4.189  0.0681 -0.2439  0.0012
  222MOL0     C29178   0.842   5.152   4.181 -0.0961 -0.1578 -0.4517
  222MOL0     C29179   0.780   5.148   4.058 -0.8682  0.7315 -0.2526
  222MOL0     O29180   0.651   5.188   4.044 -0.0625  0.4125  0.2220
  222MOL0     C29181   0.568   5.107   3.961  0.3818 -0.2393 -0.5396
  222MOL0     C29182   0.435   5.114   4.035 -0.3418  0.8475  0.2090
  222MOL0     C29183   0.349   5.018   3.950 -0.9130  0.1373 -0.4735
  222MOL0     C29184   0.200   5.040   3.995 -0.2948 -0.0271  0.2430
  222MOL0     C29185   0.097   4.969   3.907  0.0942  0.2897  0.1416
  222MOL0     C29186  -0.039   5.031   3.949 -0.8675  0.3396  1.1590
  222MOL0     C29187  -0.156   4.967   3.885 -0.5841 -0.3132  0.7303
  222MOL0     C29188  -0.164   5.004   3.737  0.0943 -1.0156  0.6005
  222MOL0     N29189  -0.307   4.993   3.693  0.5511  0.2355  0.1721
  222MOL0     C29190  -0.391   5.074   3.614  0.2554 -0.3500  0.0606
  222MOL0     C29191  -0.507   5.003   3.597 -0.4715 -0.1228  0.3766
  222MOL0     C29192  -0.616   5.053   3.517  0.1616 -0.3465 -0.3176
  222MOL0     C29193  -0.648   4.939   3.417  0.6571 -0.4942  0.2341
  222MOL0     C29194  -0.776   4.974   3.335  0.3075  1.3090 -0.7983
  222MOL0     C29195  -0.839   4.845   3.263  0.0290 -0.3239  0.0039
  222MOL0     O29196  -0.927   4.784   3.352 -0.0389 -0.0743 -0.3665
  222MOL0     C29197  -1.049   4.739   3.314 -0.4790 -0.8164 -0.5734
  222MOL0     C29198  -1.123   4.696   3.419 -0.9831  0.3900  0.0330
  222MOL0     C29199  -1.251   4.656   3.398 -0.0376 -0.0356  1.0641
  222MOL0     C29200  -1.314   4.669   3.275  0.5932  0.2415 -0.2340
  222MOL0     C29201  -1.462   4.646   3.261 -0.5101 -0.4652  0.9773
  222MOL0     O29202  -1.534   4.598   3.373 -0.0577  0.1632  0.2119
  222MOL0     C29203  -1.669   4.561   3.373 -0.7202  0.2893 -0.0258
  222MOL0     C29204  -1.769   4.597   3.276 -0.2569  0.8362  0.3378
  222MOL0     C29205  -1.894   4.537   3.287  0.6217 -0.3017  0.5756
  222MOL0     C29206  -1.926   4.451   3.385  0.3018 -0.4447  0.7832
  222MOL0     O29207  -2.055   4.410   3.408  0.2726 -0.4176  0.1602
  222MOL0     C29208  -2.165   4.479   3.350  0.7290 -0.0323 -0.6807
  222MOL0     C29209  -2.288   4.397   3.410 -0.5320 -0.2436  0.2844
  222MOL0     C29210  -2.405   4.437   3.313  0.3224  0.5358 -0.2337
  222MOL0     C29211  -2.529   4.351   3.338 -0.5406  0.1950  0.4216
  222MOL0     C29212  -2.645   4.392   3.241  0.0628 -0.4871  0.2938
  222MOL0     C29213  -2.699   4.534   3.276  1.2388 -0.0356 -0.0871
  222MOL0     C29214  -2.808   4.572   3.197  0.4837  0.5443  0.2062
  222MOL0     C29215  -2.888   4.697   3.253 -0.0679  0.1491 -0.1205
  222MOL0    Cl29216  -3.001   4.776   3.140 -0.1439 -0.0080  0.0169
  222MOL0     C29217  -1.831   4.419   3.476 -0.9751  0.2435 -0.1791
  222MOL0     C29218  -1.699   4.464   3.474 -0.4610  0.3210 -0.8408
  222MOL0     O29219  -1.507   4.653   3.144  0.1205  0.0877  0.3315
  222MOL0     C29220  -1.240   4.722   3.164  0.3936  1.3423  0.1977
  222MOL0     C29221  -1.105   4.757   3.185  0.2225  0.4831 -0.1487
  222MOL0     N29222  -0.499   4.893   3.674 -0.7782 -0.2921  0.3573
  222MOL0     N29223  -0.380   4.885   3.726 -0.1915 -1.0745 -0.7321
  222MOL0     C29224   0.853   5.119   3.942 -0.9152  0.1896 -0.2270
  222MOL0     C29225   0.987   5.085   3.952  0.0993 -0.0678  0.5563
  222MOL0     C29226   1.387   4.916   4.031 -0.4875  1.0361 -0.4409
  222MOL0     C29227   1.462   5.027   4.063 -0.8209  0.4495  0.6603
  222MOL0     C29228   1.601   5.025   4.040  0.3265  0.3618 -0.0187
  222MOL0     C29229   1.670   4.912   3.986 -0.0143  0.2131 -0.3398
  222MOL0     O29230   1.802   4.917   3.951  0.1724 -1.1193  0.3464
  222MOL0     C29231   1.878   4.798   3.913  0.1902  0.1366  0.0342
  222MOL0     C29232   1.868   4.793   3.766  0.2897 -0.1083  0.8478
  222MOL0     C29233   2.002   4.753   3.705 -0.3723  0.1854 -0.3321
  222MOL0     C29234   2.003   4.753   3.558  0.3170 -0.2903 -0.7841
  222MOL0     C29235   2.139   4.730   3.523 -0.1378  0.4342  1.3226
  222MOL0     C29236   2.251   4.724   3.492 -0.0320 -0.1275 -0.3664
  222MOL0     C29237   1.595   4.799   3.962  0.0646 -0.1503  0.4908
  222MOL0     C29238   1.458   4.800   3.990  0.1297 -0.7312  0.3177
  222MOL0     H29239   1.024   5.120   4.287  0.1088 -0.8196 -0.0215
  222MOL0     H29240   0.779   5.173   4.266  1.5899 -3.5567  1.8301
  222MOL0     H29241   0.615   5.008   3.959  1.9452  0.4719 -0.9036
  222MOL0     H29242   0.562   5.144   3.858  0.3440  0.8081 -0.1698
  222MOL0     H29243   0.399   5.217   4.031  3.9352  2.5584  0.2798
  222MOL0     H29244   0.451   5.069   4.133  1.2075 -0.5681 -0.6310
  222MOL0     H29245   0.375   4.912   3.955  0.2227  0.4581  2.6642
  222MOL0     H29246   0.366   5.064   3.852  1.9840  1.5742  0.5629
  222MOL0     H29247   0.213   5.005   4.098  4.3276  1.6044  0.4741
  222MOL0     H29248   0.179   5.147   3.991 -1.1920 -0.2308 -1.6858
  222MOL0     H29249   0.108   4.860   3.918 -0.8059 -0.0732 -1.9516
  222MOL0     H29250   0.123   4.990   3.803 -1.1802 -3.2015 -1.0608
  222MOL0     H29251  -0.053   5.138   3.933 -2.3251 -0.1519 -1.2628
  222MOL0     H29252  -0.048   5.008   4.056  2.0086  0.5519  1.5250
  222MOL0     H29253  -0.145   4.858   3.888  1.2083 -0.2334 -0.9306
  222MOL0     H29254  -0.250   4.997   3.933 -0.4016  2.0856 -0.2869
  222MOL0     H29255  -0.096   4.936   3.684  1.2152  1.4114 -1.2807
  222MOL0     H29256  -0.140   5.108   3.713  0.2911 -0.1015  4.1966
  222MOL0     H29257  -0.362   5.171   3.575 -2.1944  0.8842  1.0684
  222MOL0     H29258  -0.576   5.142   3.468 -0.2238  0.9742  1.6421
  222MOL0     H29259  -0.703   5.083   3.576  2.0340  2.6679  1.1669
  222MOL0     H29260  -0.660   4.851   3.480  0.3973  0.6338  1.8091
  222MOL0     H29261  -0.562   4.928   3.351  1.8804 -0.2868  1.7624
  222MOL0     H29262  -0.851   5.007   3.408  1.2440 -0.5831  1.1492
  222MOL0     H29263  -0.745   5.059   3.274  1.7438  1.6423  0.3252
  222MOL0     H29264  -0.756   4.777   3.242 -0.7397 -0.9102 -1.2434
  222MOL0     H29265  -0.876   4.868   3.163 -3.2172  1.9655  1.5546
  222MOL0     H29266  -1.083   4.680   3.519 -3.6948 -0.4182  1.0983
  222MOL0     H29267  -1.299   4.621   3.489  0.7009  1.2136  1.9607
  222MOL0     H29268  -1.747   4.659   3.190  2.1718 -0.3438  0.0386
  222MOL0     H29269  -1.969   4.564   3.213  2.0423 -1.0742 -1.2151
  222MOL0     H29270  -2.158   4.463   3.242 -1.8356 -1.1739 -0.7464
  222MOL0     H29271  -2.166   4.585   3.374 -0.7120 -0.3071  0.6695
  222MOL0     H29272  -2.298   4.420   3.517 -1.0728 -0.4879  0.2899
  222MOL0     H29273  -2.274   4.288   3.406 -0.2718 -0.1704 -1.8212
  222MOL0     H29274  -2.379   4.419   3.208  0.7092  0.7722 -0.1801
  222MOL0     H29275  -2.427   4.543   3.330 -2.2736 -0.0547  0.5213
  222MOL0     H29276  -2.489   4.250   3.320 -0.9235  0.5185 -2.9761
  222MOL0     H29277  -2.559   4.365   3.442  2.1311  3.3727  0.9311
  222MOL0     H29278  -2.727   4.323   3.261 -0.1998  0.3247  2.3179
  222MOL0     H29279  -2.614   4.393   3.136 -0.7026  0.8300  0.0635
  222MOL0     H29280  -2.626   4.616   3.278  1.8853 -0.5066  3.8044
  222MOL0     H29281  -2.730   4.528   3.381 -1.5754 -0.5323 -0.8792
  222MOL0     H29282  -2.787   4.583   3.090  1.2078 -2.2385 -0.0289
  222MOL0     H29283  -2.886   4.496   3.213  1.3968  0.0075  2.3971
  222MOL0     H29284  -2.808   4.767   3.281  0.7303 -0.4519 -0.8191
  222MOL0     H29285  -2.942   4.672   3.345  2.1138 -1.0362  0.9463
  222MOL0     H29286  -1.867   4.352   3.554  2.3355 -2.2238 -0.5596
  222MOL0     H29287  -1.623   4.436   3.546 -1.4232  2.8932  1.3658
  222MOL0     H29288  -1.284   4.733   3.065 -0.9213  2.4809  0.8702
  222MOL0     H29289  -1.047   4.802   3.106 -2.4470  0.6258 -2.1469
  222MOL0     H29290   0.806   5.100   3.846 -0.2492 -0.8099 -0.3646
  222MOL0     H29291   1.046   5.047   3.869  0.1376  1.5058 -0.1773
  222MOL0     H29292   1.414   5.115   4.105 -0.8783  0.1281  1.2857
  222MOL0     H29293   1.651   5.121   4.048 -1.9252  1.5823  0.1207
  222MOL0     H29294   1.836   4.704   3.949 -0.0605  0.4453  0.5482
  222MOL0     H29295   1.980   4.810   3.950 -0.1806  1.3002  0.7063
  222MOL0     H29296   1.785   4.731   3.733  1.3700  0.2229 -2.9138
  222MOL0     H29297   1.841   4.891   3.727 -5.2257 -0.2688  3.4202
  222MOL0     H29298   2.023   4.650   3.737 -1.0619  0.7608  2.1313
  222MOL0     H29299   2.076   4.816   3.754  0.3066  0.4922 -1.7103
  222MOL0     H29300   1.946   4.672   3.511  1.0843 -0.9871 -0.5533
  222MOL0     H29301   1.963   4.849   3.524  1.2042 -0.3097 -1.9421
  222MOL0     H29302   2.347   4.682   3.466 -0.5039 -0.3418 -1.8638
  222MOL0     H29303   1.636   4.711   3.915 -0.8136 -1.7325  2.5286
  222MOL0     H29304   1.405   4.710   3.960  3.1030 -3.5268  2.7948
  223MOL0     O29305   9.025   6.621   8.283 -0.6879  0.1120 -0.1350
  223MOL0     C29306   8.996   6.657   8.169 -0.7445  0.1086 -0.9429
  223MOL0     O29307   8.883   6.638   8.112 -0.5104 -0.9494  0.5397
  223MOL0     C29308   8.778   6.591   8.183  0.1546  0.0507  0.3086
  223MOL0     C29309   8.702   6.671   8.270 -1.8835  0.6325  0.2098
  223MOL0     C29310   8.598   6.603   8.340  0.0199 -0.2258  0.7542
  223MOL0     C29311   8.558   6.472   8.321 -0.6938 -0.0144 -0.6678
  223MOL0     O29312   8.463   6.409   8.400 -0.7807 -0.6082  0.0509
  223MOL0     C29313   8.510   6.310   8.487  0.2715 -0.3284  0.0448
  223MOL0     C29314   8.398   6.305   8.590 -0.0716  0.0987  0.1816
  223MOL0     C29315   8.406   6.409   8.703 -0.7147 -0.5514  0.0298
  223MOL0     C29316   8.287   6.392   8.800  0.8092 -0.4504 -0.4236
  223MOL0     C29317   8.282   6.263   8.873 -0.3716  0.0977 -0.9440
  223MOL0     C29318   8.181   6.262   8.993  0.0471 -0.9847 -0.0365
  223MOL0     C29319   8.179   6.123   9.057  0.6228  0.6092 -0.1776
  223MOL0     C29320   8.048   6.103   9.136  0.5926  0.4952  0.1183
  223MOL0     N29321   7.932   6.113   9.048  0.5588 -0.4751  0.3274
  223MOL0     C29322   7.851   6.224   9.034  0.5626  1.1051 -0.6020
  223MOL0     C29323   7.750   6.184   8.952 -0.1754 -0.9032  0.2121
  223MOL0     C29324   7.627   6.259   8.904  0.1254 -0.5406 -0.9090
  223MOL0     C29325   7.620   6.403   8.963  0.2647  0.8012  0.4569
  223MOL0     C29326   7.506   6.482   8.897 -0.6150  0.0662 -0.2006
  223MOL0     C29327   7.367   6.437   8.945  1.0347  0.5822  1.2164
  223MOL0     O29328   7.267   6.530   8.905  0.3055  0.3727  0.0865
  223MOL0     C29329   7.138   6.516   8.957  0.0553 -0.7360 -0.2743
  223MOL0     C29330   7.051   6.624   8.958  0.8598 -0.5421  0.4245
  223MOL0     C29331   6.921   6.624   9.009 -0.4449 -0.5284 -0.0889
  223MOL0     C29332   6.870   6.507   9.058  0.0460 -0.3529 -0.1703
  223MOL0     C29333   6.737   6.496   9.128  0.4594 -1.3819  0.1277
  223MOL0     O29334   6.701   6.375   9.179 -0.3831  0.2977  0.3659
  223MOL0     C29335   6.572   6.363   9.219  0.3613  0.0697 -0.2813
  223MOL0     C29336   6.466   6.396   9.134  0.4161  0.4485 -0.4980
  223MOL0     C29337   6.335   6.372   9.181  1.0084  0.0168 -0.0364
  223MOL0     C29338   6.306   6.319   9.307  0.7012  0.0219  0.0868
  223MOL0     O29339   6.173   6.267   9.330  0.0733  0.0751 -0.1423
  223MOL0     C29340   6.141   6.160   9.423  0.0892 -1.2792  0.6378
  223MOL0     C29341   5.995   6.172   9.458  0.2314 -0.1910 -0.4644
  223MOL0     C29342   5.974   6.296   9.550 -1.0417  0.1663  0.0802
  223MOL0     C29343   5.821   6.321   9.551  0.2055 -0.5890 -1.0891
  223MOL0     C29344   5.774   6.423   9.665 -0.7721  0.9994  0.2570
  223MOL0     C29345   5.633   6.460   9.627  0.0096 -0.4440  0.3791
  223MOL0     C29346   5.579   6.544   9.744 -0.1979 -0.1936 -0.2820
  223MOL0     C29347   5.430   6.538   9.754  0.1635  0.7593  0.3739
  223MOL0    Cl29348   5.356   6.654   9.872  0.1883  0.2381  0.0965
  223MOL0     C29349   6.413   6.278   9.392 -0.4023 -1.0609  0.0296
  223MOL0     C29350   6.541   6.303   9.344  0.0317 -0.0686 -0.6531
  223MOL0     O29351   6.671   6.599   9.130 -0.0054 -0.5655  0.2072
  223MOL0     C29352   6.949   6.391   9.044 -0.4470  0.4171 -0.7905
  223MOL0     C29353   7.077   6.397   8.991  0.1326  0.2739  0.3142
  223MOL0     N29354   7.771   6.050   8.917  0.1839  0.4750  0.7147
  223MOL0     N29355   7.880   6.012   8.974 -0.5043  0.2869  0.6715
  223MOL0     C29356   8.638   6.395   8.235 -0.2614  0.4012  0.1070
  223MOL0     C29357   8.755   6.452   8.178 -0.1863  0.0886  0.6243
  223MOL0     C29358   9.103   6.708   8.092 -0.2620 -0.6141  0.4329
  223MOL0     C29359   9.079   6.787   7.974  0.4930  0.0139 -0.5169
  223MOL0     C29360   9.187   6.843   7.905  0.6065  0.0458 -0.2408
  223MOL0     C29361   9.316   6.821   7.950  0.4831 -0.3307 -1.0111
  223MOL0     O29362   9.425   6.864   7.885  0.3330 -0.3979 -1.3349
  223MOL0     C29363   9.559   6.831   7.914 -0.2473  0.0697 -0.1194
  223MOL0     C29364   9.643   6.944   7.849 -0.6182  0.5071 -0.2098
  223MOL0     C29365   9.795   6.898   7.831  0.5188  0.2788  0.1576
  223MOL0     C29366   9.883   6.941   7.720  0.4089  0.7660 -0.1208
  223MOL0     C29367   9.831   6.918   7.590 -1.0759  0.1100  0.5994
  223MOL0     C29368   9.781   6.890   7.482 -1.8172  0.3921 -0.2344
  223MOL0     C29369   9.332   6.736   8.063 -0.0022  0.5836  0.3283
  223MOL0     C29370   9.227   6.684   8.133 -0.5808 -0.2867  0.1380
  223MOL0     H29371   8.722   6.776   8.290 -1.0512  0.4469  0.3796
  223MOL0     H29372   8.548   6.668   8.411  1.9192  0.5522  1.4307
  223MOL0     H29373   8.599   6.346   8.539 -1.2670  1.2650  1.7555
  223MOL0     H29374   8.521   6.211   8.442 -2.9100 -0.3094 -1.0555
  223MOL0     H29375   8.409   6.207   8.638 -0.2308  0.0986  0.2178
  223MOL0     H29376   8.298   6.309   8.547 -1.3335  0.7204  2.9283
  223MOL0     H29377   8.401   6.514   8.673 -1.0518 -0.5428  0.1125
  223MOL0     H29378   8.497   6.403   8.763 -1.2906 -0.6332  0.9228
  223MOL0     H29379   8.270   6.472   8.872  0.2997 -0.7513 -0.2043
  223MOL0     H29380   8.199   6.401   8.736  2.5083  1.4108 -2.6577
  223MOL0     H29381   8.385   6.246   8.903 -0.6662  0.2094  0.1857
  223MOL0     H29382   8.252   6.179   8.810 -2.5566  1.6772 -2.1566
  223MOL0     H29383   8.083   6.285   8.949  0.2115 -1.2162 -0.5171
  223MOL0     H29384   8.214   6.336   9.067  2.3903 -1.8731 -0.1211
  223MOL0     H29385   8.179   6.037   8.989  2.6650  0.3330  0.0880
  223MOL0     H29386   8.250   6.097   9.137 -0.6161 -0.5556  0.5946
  223MOL0     H29387   8.034   6.184   9.210 -1.1574  0.4196 -0.0792
  223MOL0     H29388   8.044   6.004   9.182  0.8223 -0.1525 -1.2356
  223MOL0     H29389   7.862   6.324   9.075 -0.4955  1.0643 -0.1865
  223MOL0     H29390   7.536   6.202   8.925 -0.7283  0.5466 -1.5163
  223MOL0     H29391   7.637   6.276   8.796 -1.5821 -1.0040 -1.1734
  223MOL0     H29392   7.713   6.455   8.941  0.0958  2.2719  2.8533
  223MOL0     H29393   7.615   6.398   9.072 -0.2300  0.1893  0.4134
  223MOL0     H29394   7.527   6.586   8.925  0.6367  0.0541 -1.0301
  223MOL0     H29395   7.504   6.465   8.789  0.6384 -2.7228  0.1144
  223MOL0     H29396   7.356   6.417   9.052 -0.6382 -0.8130  0.8317
  223MOL0     H29397   7.349   6.339   8.898 -0.3682  1.9963 -1.4849
  223MOL0     H29398   7.087   6.711   8.904 -0.3383 -1.7418 -2.5119
  223MOL0     H29399   6.863   6.716   9.007 -0.1741 -0.3680 -1.0604
  223MOL0     H29400   6.484   6.422   9.030 -0.3434  0.9617 -0.5040
  223MOL0     H29401   6.246   6.388   9.122 -0.0482 -1.2170  1.1548
  223MOL0     H29402   6.202   6.166   9.514 -1.3547  0.2025  1.5755
  223MOL0     H29403   6.173   6.064   9.382 -1.5373 -1.9096  0.7766
  223MOL0     H29404   5.976   6.079   9.513 -0.1246 -0.4162 -0.9567
  223MOL0     H29405   5.941   6.170   9.363 -1.9183  2.0227  0.5989
  223MOL0     H29406   6.028   6.389   9.529  0.2918 -0.2234  1.5595
  223MOL0     H29407   6.001   6.271   9.653  1.0818 -1.7887 -0.8555
  223MOL0     H29408   5.791   6.345   9.448 -0.0059 -1.1812 -1.1731
  223MOL0     H29409   5.771   6.227   9.578  1.6867 -0.2863  3.6190
  223MOL0     H29410   5.841   6.510   9.665 -0.5857  0.8795 -1.2872
  223MOL0     H29411   5.787   6.367   9.758  0.0039 -1.2819 -1.1257
  223MOL0     H29412   5.576   6.370   9.599  1.2227 -1.1605  0.1636
  223MOL0     H29413   5.649   6.518   9.535 -0.4177  0.4863  0.8751
  223MOL0     H29414   5.614   6.508   9.841 -0.2538 -1.1087 -0.5959
  223MOL0     H29415   5.614   6.647   9.733  0.1215 -0.4077 -1.3414
  223MOL0     H29416   5.404   6.433   9.771  1.0644  0.8102  2.3313
  223MOL0     H29417   5.383   6.564   9.659  1.9689 -1.5896 -1.2838
  223MOL0     H29418   6.397   6.231   9.488 -1.9050 -1.8064 -0.5491
  223MOL0     H29419   6.623   6.267   9.404 -1.3315 -3.4763 -0.6299
  223MOL0     H29420   6.906   6.299   9.082  2.7036 -0.9763 -0.2602
  223MOL0     H29421   7.130   6.302   8.992  0.6610  0.5410 -1.0965
  223MOL0     H29422   8.610   6.291   8.223 -1.3692  0.6930  0.0798
  223MOL0     H29423   8.821   6.382   8.127 -1.1426 -1.8396  1.8764
  223MOL0     H29424   8.979   6.812   7.940  0.7574  0.7603 -0.7583
  223MOL0     H29425   9.167   6.902   7.817 -1.5154  0.4088  0.4429
  223MOL0     H29426   9.600   6.734   7.884 -0.9126  0.0010 -0.8123
  223MOL0     H29427   9.581   6.835   8.022 -0.5155 -0.3314 -0.0469
  223MOL0     H29428   9.612   6.968   7.747  1.4926  2.7855 -0.3977
  223MOL0     H29429   9.631   7.036   7.907  3.5038  0.8385  0.3788
  223MOL0     H29430   9.805   6.789   7.826  0.1571  0.2638 -3.9505
  223MOL0     H29431   9.845   6.930   7.922  0.8250  1.8694 -0.5429
  223MOL0     H29432   9.907   7.048   7.729  1.9365  0.2592  3.8269
  223MOL0     H29433   9.976   6.889   7.742 -0.5476 -0.7780  0.4015
  223MOL0     H29434   9.747   6.879   7.381  0.7051  0.1428 -1.1261
  223MOL0     H29435   9.432   6.706   8.093  1.0611  1.6894 -1.9043
  223MOL0     H29436   9.266   6.618   8.210  1.5714  0.4302 -0.2465
  224MOL0     O29437   0.853   4.007  10.758  0.2529  0.1024 -0.8038
  224MOL0     C29438   0.824   3.919  10.840  0.8966 -0.6782  0.7303
  224MOL0     O29439   0.699   3.893  10.887  0.1735 -0.2683 -0.4829
  224MOL0     C29440   0.584   3.945  10.829 -0.2266  0.2721  0.2756
  224MOL0     C29441   0.579   3.983  10.694 -0.6499 -0.2740 -0.1880
  224MOL0     C29442   0.476   4.061  10.636  0.5628  0.3319  0.2877
  224MOL0     C29443   0.356   4.065  10.715 -0.1422  0.1902 -0.0239
  224MOL0     O29444   0.234   4.121  10.673 -0.0474 -0.1504 -0.0771
  224MOL0     C29445   0.225   4.201  10.550 -0.4849  0.1467 -0.6974
  224MOL0     C29446   0.098   4.142  10.483  1.2647 -0.5196  0.5461
  224MOL0     C29447   0.040   4.242  10.387  0.5359  0.6933  0.8900
  224MOL0     C29448  -0.095   4.200  10.324  0.4264  0.2724  0.4601
  224MOL0     C29449  -0.136   4.293  10.212  0.6345 -0.1014 -0.2869
  224MOL0     C29450  -0.282   4.330  10.228  0.3558 -0.6679  0.7505
  224MOL0     C29451  -0.303   4.430  10.335  0.1368 -0.5484  0.6777
  224MOL0     C29452  -0.447   4.485  10.354 -0.7139 -0.2911 -0.0649
  224MOL0     N29453  -0.497   4.557  10.237  0.5739 -0.0724 -0.4136
  224MOL0     C29454  -0.622   4.528  10.170  0.2797  0.2594 -0.2498
  224MOL0     C29455  -0.638   4.627  10.084  0.8231 -0.3385  0.4889
  224MOL0     C29456  -0.726   4.647   9.966 -0.1107  0.5054  0.0371
  224MOL0     C29457  -0.664   4.558   9.851 -0.2404  0.0536 -0.2535
  224MOL0     C29458  -0.749   4.573   9.726 -0.1568  0.8597  0.5655
  224MOL0     C29459  -0.682   4.508   9.604  0.6546  0.3255  0.0645
  224MOL0     O29460  -0.719   4.373   9.627  0.0093 -0.2133 -0.7148
  224MOL0     C29461  -0.828   4.320   9.560 -0.6379  0.0964 -0.5807
  224MOL0     C29462  -0.843   4.183   9.564  0.2713  0.3407 -0.3844
  224MOL0     C29463  -0.954   4.125   9.499  0.7047  0.0356  0.4051
  224MOL0     C29464  -1.056   4.190   9.431 -0.7414 -0.0816  0.4984
  224MOL0     C29465  -1.178   4.128   9.387 -0.2572  0.0741 -0.3118
  224MOL0     O29466  -1.271   4.212   9.345 -0.2128 -0.4311 -0.0170
  224MOL0     C29467  -1.400   4.176   9.341  0.4035  0.3382 -0.7336
  224MOL0     C29468  -1.488   4.268   9.267 -0.3642  0.3850 -0.1584
  224MOL0     C29469  -1.628   4.259   9.271 -0.4991 -0.0952 -0.5215
  224MOL0     C29470  -1.691   4.147   9.328 -0.0749 -0.3891 -1.2110
  224MOL0     O29471  -1.825   4.128   9.327  0.5977 -0.1250  0.0641
  224MOL0     C29472  -1.908   4.243   9.301 -0.1722 -0.7379 -0.8398
  224MOL0     C29473  -2.060   4.215   9.329 -0.9397 -0.6195  0.6100
  224MOL0     C29474  -2.079   4.195   9.476 -0.4376 -0.0720  0.2161
  224MOL0     C29475  -2.231   4.171   9.514  0.2487  0.9405  0.6638
  224MOL0     C29476  -2.254   4.164   9.669  1.1951  0.2895 -0.7273
  224MOL0     C29477  -2.401   4.128   9.706 -0.1869 -0.6270  1.2546
  224MOL0     C29478  -2.425   4.109   9.857  0.9389  0.1174 -0.1140
  224MOL0     C29479  -2.376   4.228   9.941 -0.1016  0.0131  0.5021
  224MOL0    Cl29480  -2.451   4.375   9.892  0.6280 -0.1562 -0.0066
  224MOL0     C29481  -1.605   4.046   9.386  0.4922  0.1725  0.5582
  224MOL0     C29482  -1.465   4.059   9.390 -0.3802  0.5998 -0.1161
  224MOL0     O29483  -1.183   4.006   9.395 -0.2379  0.4235  0.6842
  224MOL0     C29484  -1.037   4.324   9.423 -0.2505  0.0474  1.0800
  224MOL0     C29485  -0.920   4.385   9.480  0.8289  0.3251 -0.3376
  224MOL0     N29486  -0.533   4.717  10.095  0.3824  0.3588  0.2068
  224MOL0     N29487  -0.459   4.681  10.191 -0.4455 -0.2333 -0.1190
  224MOL0     C29488   0.355   3.997  10.848  0.3708 -1.0824  0.6242
  224MOL0     C29489   0.461   3.936  10.893 -0.6277  0.6117  0.7048
  224MOL0     C29490   0.937   3.836  10.889 -0.4068 -0.3041  0.0998
  224MOL0     C29491   0.917   3.712  10.944  0.3952  0.0315 -0.0724
  224MOL0     C29492   1.036   3.641  10.986 -0.9595 -1.3368  0.7085
  224MOL0     C29493   1.163   3.683  10.971 -0.2813 -0.7256  1.3593
  224MOL0     O29494   1.256   3.591  11.002 -0.0759  0.8778  0.7116
  224MOL0     C29495   1.388   3.609  10.940 -0.9543  0.0543 -0.8628
  224MOL0     C29496   1.476   3.487  10.961 -0.3573  0.6232 -0.8604
  224MOL0     C29497   1.611   3.508  10.905  0.1268 -0.5128 -0.4189
  224MOL0     C29498   1.717   3.403  10.961  0.2438  0.6832 -0.2936
  224MOL0     C29499   1.838   3.416  10.879  0.0283 -0.1285  0.0045
  224MOL0     C29500   1.927   3.446  10.804 -0.0086  0.3778  0.2684
  224MOL0     C29501   1.178   3.814  10.923 -0.0880 -0.5806  0.3739
  224MOL0     C29502   1.068   3.885  10.883 -0.5133  0.3420  0.3739
  224MOL0     H29503   0.661   3.979  10.622 -0.6224  0.8198 -0.2350
  224MOL0     H29504   0.475   4.103  10.536 -3.2690  0.3766  0.1699
  224MOL0     H29505   0.305   4.186  10.477  0.6377 -1.7862  0.8295
  224MOL0     H29506   0.224   4.307  10.576 -0.7192 -0.4143  1.8442
  224MOL0     H29507   0.023   4.123  10.561 -0.0628  1.0444 -0.2740
  224MOL0     H29508   0.115   4.047  10.432  3.5067 -0.8580  1.7898
  224MOL0     H29509   0.118   4.282  10.322  1.1467  1.5232  2.1033
  224MOL0     H29510   0.020   4.332  10.446  2.8148  2.3821 -0.7544
  224MOL0     H29511  -0.085   4.103  10.275 -3.6599 -1.3510  2.3957
  224MOL0     H29512  -0.174   4.187  10.398 -0.2008 -4.0200 -0.7422
  224MOL0     H29513  -0.117   4.233  10.122  0.0481  0.4658 -0.8017
  224MOL0     H29514  -0.079   4.386  10.197 -2.3755  1.5484 -2.7137
  224MOL0     H29515  -0.340   4.242  10.256  1.2964 -0.8414  2.2694
  224MOL0     H29516  -0.322   4.374  10.136 -4.2512 -0.8495  2.3796
  224MOL0     H29517  -0.271   4.401  10.436  0.9364  0.1574  0.6315
  224MOL0     H29518  -0.241   4.515  10.306 -0.9925  0.4669  1.1511
  224MOL0     H29519  -0.443   4.551  10.442  0.5156  0.8117 -0.9125
  224MOL0     H29520  -0.510   4.398  10.374  1.0213 -1.1869  1.9926
  224MOL0     H29521  -0.680   4.441  10.200  1.4167 -0.5063 -0.2431
  224MOL0     H29522  -0.725   4.753   9.939  1.0836 -0.0078 -2.2372
  224MOL0     H29523  -0.829   4.613   9.983 -0.0618  0.2461 -0.1790
  224MOL0     H29524  -0.668   4.452   9.877  1.0148 -0.3228 -1.4594
  224MOL0     H29525  -0.559   4.583   9.837 -0.8669  2.7240 -0.7072
  224MOL0     H29526  -0.851   4.535   9.737  1.1152 -2.8164  1.3021
  224MOL0     H29527  -0.751   4.678   9.697  0.3017  0.2253 -2.1227
  224MOL0     H29528  -0.575   4.532   9.602  0.5292  1.5994  3.0494
  224MOL0     H29529  -0.722   4.548   9.510 -0.8426 -1.0112  0.0854
  224MOL0     H29530  -0.767   4.118   9.607 -0.9550  0.7346  2.6564
  224MOL0     H29531  -0.961   4.017   9.499 -4.6515  0.1093  1.2276
  224MOL0     H29532  -1.439   4.353   9.219 -0.9178 -0.9929 -3.3962
  224MOL0     H29533  -1.685   4.339   9.227  0.3280  1.7203  1.5309
  224MOL0     H29534  -1.895   4.277   9.198  0.1817 -1.2956 -0.9809
  224MOL0     H29535  -1.874   4.316   9.376 -4.1698 -1.7739  2.3419
  224MOL0     H29536  -2.098   4.131   9.269 -4.6084  0.9739  0.4675
  224MOL0     H29537  -2.111   4.306   9.296  4.9960  2.1971 -2.4011
  224MOL0     H29538  -2.041   4.286   9.523 -1.2381 -0.2083  1.1393
  224MOL0     H29539  -2.013   4.117   9.514 -0.8866 -0.5531  0.0201
  224MOL0     H29540  -2.296   4.251   9.479  0.6037  0.3306 -1.5438
  224MOL0     H29541  -2.261   4.077   9.467 -1.8573  1.1787  1.4674
  224MOL0     H29542  -2.220   4.258   9.713 -1.0716  1.4369 -1.2777
  224MOL0     H29543  -2.188   4.084   9.704  0.8538  0.5704  0.6329
  224MOL0     H29544  -2.432   4.040   9.649 -1.8852  1.8135 -1.9647
  224MOL0     H29545  -2.458   4.213   9.667  1.5447 -0.0936 -0.2613
  224MOL0     H29546  -2.534   4.100   9.860  0.8749  0.0673 -1.9076
  224MOL0     H29547  -2.376   4.018   9.892  0.3711  0.1116  0.7165
  224MOL0     H29548  -2.269   4.247   9.927  0.4747 -2.2500  1.4054
  224MOL0     H29549  -2.395   4.202  10.045  1.0250  0.4893  0.8405
  224MOL0     H29550  -1.638   3.956   9.437  0.0983  1.2449  2.2660
  224MOL0     H29551  -1.408   3.979   9.437 -1.2672 -0.3536 -0.6271
  224MOL0     H29552  -1.107   4.396   9.381 -0.3190  1.1179  2.8954
  224MOL0     H29553  -0.914   4.490   9.454 -0.4817  0.3128 -0.7707
  224MOL0     H29554   0.264   3.999  10.907 -0.4562 -2.5355 -0.5340
  224MOL0     H29555   0.456   3.878  10.985 -0.3446 -0.4287  0.0781
  224MOL0     H29556   0.817   3.671  10.948 -0.0262  0.8445 -1.4462
  224MOL0     H29557   1.022   3.549  11.041  3.0663 -2.4651  0.1342
  224MOL0     H29558   1.437   3.694  10.988  1.9979 -1.6673 -0.5839
  224MOL0     H29559   1.360   3.625  10.835 -3.7478  0.4175 -0.1413
  224MOL0     H29560   1.490   3.465  11.068  4.3033 -0.9873 -1.5499
  224MOL0     H29561   1.425   3.396  10.926  3.0573 -0.6765 -2.9383
  224MOL0     H29562   1.641   3.610  10.930  1.2240 -1.2060  1.2854
  224MOL0     H29563   1.593   3.497  10.798 -1.8986  2.7556 -0.5645
  224MOL0     H29564   1.751   3.413  11.064 -1.5867  1.3310  0.2846
  224MOL0     H29565   1.685   3.298  10.964  2.6312 -0.2234  4.9056
  224MOL0     H29566   2.002   3.477  10.735 -0.9751  0.3868 -0.8012
  224MOL0     H29567   1.275   3.863  10.927 -0.5876  0.3642  2.6245
  224MOL0     H29568   1.088   3.980  10.835  0.4458  0.0117  0.0947
  225MOL0     O29569   0.099   9.188   0.367 -0.1342 -0.2592  0.0519
  225MOL0     C29570   0.125   9.080   0.421  0.5032  0.7504  0.2782
  225MOL0     O29571   0.033   8.976   0.473 -0.3655 -0.0259  0.2488
  225MOL0     C29572  -0.107   8.988   0.492  0.1698 -0.4549  0.1823
  225MOL0     C29573  -0.196   9.095   0.446 -0.8340  0.6144  0.5967
  225MOL0     C29574  -0.320   9.108   0.496  0.9458 -0.3400 -0.3300
  225MOL0     C29575  -0.374   9.002   0.567 -0.2074  0.3795  0.0541
  225MOL0     O29576  -0.511   8.990   0.585 -0.6921 -0.1840 -0.3678
  225MOL0     C29577  -0.600   9.100   0.552  0.7739  0.2916 -0.5078
  225MOL0     C29578  -0.729   9.069   0.621  1.6329  0.5164 -0.0519
  225MOL0     C29579  -0.700   9.058   0.770 -0.3694  0.1392 -0.8352
  225MOL0     C29580  -0.826   9.058   0.862  0.4998  0.0684 -0.0670
  225MOL0     C29581  -0.776   9.050   1.007 -0.7695 -0.2423  0.2795
  225MOL0     C29582  -0.871   8.965   1.096 -0.8237  0.8485 -0.3803
  225MOL0     C29583  -1.008   9.032   1.103 -0.3557 -0.0634 -0.4343
  225MOL0     C29584  -1.088   8.974   1.223 -0.4732 -0.3294 -0.3701
  225MOL0     N29585  -1.103   8.829   1.221 -0.6555 -0.2611  0.5419
  225MOL0     C29586  -1.133   8.769   1.103  0.1091  0.2240 -0.6047
  225MOL0     C29587  -1.122   8.634   1.134  0.3715  0.5452 -0.6670
  225MOL0     C29588  -1.140   8.535   1.018 -0.2846 -0.2392 -0.5229
  225MOL0     C29589  -1.022   8.449   0.993  1.2020 -0.2828  0.1178
  225MOL0     C29590  -0.912   8.522   0.916 -0.0404  0.8874  0.3371
  225MOL0     C29591  -0.806   8.568   1.003  0.3635  0.0906 -0.9892
  225MOL0     O29592  -0.712   8.630   0.918 -0.0168 -0.3757 -0.4645
  225MOL0     C29593  -0.598   8.667   0.987 -0.0373 -0.1446 -0.8763
  225MOL0     C29594  -0.587   8.737   1.110  0.4695  1.1062  0.4401
  225MOL0     C29595  -0.460   8.787   1.148  0.3726 -1.1272 -0.7376
  225MOL0     C29596  -0.351   8.762   1.067  0.5621  0.1584 -0.1362
  225MOL0     C29597  -0.227   8.828   1.093 -0.5893 -0.8719  0.4552
  225MOL0     O29598  -0.120   8.779   1.012  0.1175 -0.6547 -0.5135
  225MOL0     C29599   0.007   8.849   1.025  0.4133  0.1175  0.0997
  225MOL0     C29600   0.117   8.770   0.980  0.5390 -0.1699  0.2500
  225MOL0     C29601   0.245   8.830   0.978  0.0763 -0.0700 -0.2298
  225MOL0     C29602   0.273   8.954   1.037  0.5174 -0.3441 -0.3010
  225MOL0     O29603   0.402   8.999   1.031 -0.4268 -0.3526 -0.1286
  225MOL0     C29604   0.431   9.111   1.118 -0.0013 -0.3024 -0.4948
  225MOL0     C29605   0.587   9.132   1.131 -0.2365 -0.0324 -0.1321
  225MOL0     C29606   0.650   9.161   1.002  0.4493 -0.4174 -0.2987
  225MOL0     C29607   0.604   9.301   0.954 -0.2028  0.0450  0.1850
  225MOL0     C29608   0.698   9.359   0.854  0.0583  0.1333  0.5091
  225MOL0     C29609   0.707   9.288   0.721  0.0851  0.1755 -0.2235
  225MOL0     C29610   0.758   9.372   0.599 -0.6065 -0.8272 -0.7483
  225MOL0     C29611   0.801   9.275   0.492 -0.2446 -0.0080 -0.0961
  225MOL0    Cl29612   0.872   9.361   0.355  0.0699 -0.6189 -0.5656
  225MOL0     C29613   0.160   9.027   1.090 -0.4617  0.8015  0.4386
  225MOL0     C29614   0.028   8.986   1.066 -0.2383  0.4006 -0.1349
  225MOL0     O29615  -0.214   8.888   1.197 -0.1066  0.2153  0.9935
  225MOL0     C29616  -0.360   8.680   0.948 -0.6428 -0.8717 -0.2776
  225MOL0     C29617  -0.484   8.622   0.916  0.0349 -0.0253  1.0702
  225MOL0     N29618  -1.109   8.620   1.273  0.8619  0.1186  0.1166
  225MOL0     N29619  -1.083   8.740   1.319  0.6127 -0.5156 -0.0484
  225MOL0     C29620  -0.299   8.889   0.603  0.2562  0.2511  0.3537
  225MOL0     C29621  -0.162   8.888   0.572  0.0924  0.3507  0.7034
  225MOL0     C29622   0.265   9.039   0.424 -0.0478  0.7832 -0.1058
  225MOL0     C29623   0.363   9.079   0.337 -0.0564 -0.5819  0.5705
  225MOL0     C29624   0.491   9.021   0.328  0.0403 -0.5677  0.2021
  225MOL0     C29625   0.530   8.915   0.414  0.3205  0.1589  0.3034
  225MOL0     O29626   0.658   8.864   0.411 -0.4370  0.1432 -0.4190
  225MOL0     C29627   0.718   8.843   0.543  0.7046  0.2021 -0.7167
  225MOL0     C29628   0.863   8.784   0.502 -0.1857  0.6145  0.2296
  225MOL0     C29629   0.957   8.896   0.465 -0.3489 -0.0193 -0.0033
  225MOL0     C29630   1.042   8.934   0.593 -0.4920  1.4211  0.1949
  225MOL0     C29631   1.147   9.022   0.551 -0.6691  0.8131  0.0725
  225MOL0     C29632   1.243   9.082   0.518  0.1693 -0.0098 -0.2629
  225MOL0     C29633   0.437   8.876   0.509 -0.1061 -0.0664 -0.3431
  225MOL0     C29634   0.306   8.935   0.516  0.0653 -0.2690  0.2014
  225MOL0     H29635  -0.161   9.169   0.376  0.5604 -2.5495 -2.3358
  225MOL0     H29636  -0.376   9.191   0.455  1.9540 -0.5616 -2.3149
  225MOL0     H29637  -0.623   9.120   0.447 -3.5751 -1.9924 -0.2339
  225MOL0     H29638  -0.567   9.197   0.592  1.2651  0.1550 -0.5819
  225MOL0     H29639  -0.780   8.979   0.585 -2.9436  2.9049 -0.2536
  225MOL0     H29640  -0.798   9.147   0.587  0.2283 -0.3057  0.8112
  225MOL0     H29641  -0.642   9.146   0.801  0.2827 -0.6064  0.1183
  225MOL0     H29642  -0.633   8.973   0.786  0.3017  0.9166  0.7017
  225MOL0     H29643  -0.886   9.149   0.848  0.8380 -0.0124 -2.4947
  225MOL0     H29644  -0.888   8.972   0.834  2.6739 -1.5553 -0.1000
  225MOL0     H29645  -0.743   9.144   1.051 -0.1635 -0.4459  0.2617
  225MOL0     H29646  -0.683   8.993   1.005  0.3114  1.3724 -2.9909
  225MOL0     H29647  -0.825   8.962   1.195 -1.5569 -3.8884  0.0237
  225MOL0     H29648  -0.874   8.866   1.051  0.7479  0.5942  0.0302
  225MOL0     H29649  -1.001   9.140   1.123 -1.4237  0.2675 -1.7062
  225MOL0     H29650  -1.072   9.019   1.015  0.4361  4.2357 -1.8699
  225MOL0     H29651  -1.188   9.019   1.223 -0.2883  0.3228  2.7312
  225MOL0     H29652  -1.040   9.003   1.317 -4.9130 -2.1079  2.7982
  225MOL0     H29653  -1.157   8.809   1.005 -0.4014  1.1422 -0.1176
  225MOL0     H29654  -1.163   8.596   0.929 -0.8157 -0.7322 -0.7301
  225MOL0     H29655  -1.235   8.488   1.042  0.3246 -0.2449  2.2172
  225MOL0     H29656  -1.070   8.384   0.919  0.3377  2.1168 -1.5211
  225MOL0     H29657  -0.986   8.398   1.084  3.7206 -2.6209 -2.0110
  225MOL0     H29658  -0.878   8.443   0.848 -2.5323  1.4726 -1.7368
  225MOL0     H29659  -0.956   8.604   0.859 -1.4355 -1.3659 -2.0252
  225MOL0     H29660  -0.766   8.484   1.060 -1.9852 -0.9326 -0.7540
  225MOL0     H29661  -0.841   8.645   1.073  2.1685 -0.4447  0.5906
  225MOL0     H29662  -0.683   8.740   1.160  1.3352 -0.0233  2.2616
  225MOL0     H29663  -0.456   8.848   1.238  3.4512 -1.1507 -0.7675
  225MOL0     H29664   0.092   8.671   0.944  0.3709  0.1712 -0.5908
  225MOL0     H29665   0.333   8.776   0.945 -0.1169 -1.9091  1.9523
  225MOL0     H29666   0.386   9.120   1.218  0.0563  2.9981 -0.6321
  225MOL0     H29667   0.388   9.197   1.065  0.0185 -0.4501 -0.7480
  225MOL0     H29668   0.642   9.048   1.175  3.2480  0.8435 -2.4395
  225MOL0     H29669   0.600   9.215   1.201 -1.0631  0.3782 -0.4416
  225MOL0     H29670   0.633   9.090   0.921 -2.5486  0.2819 -0.4166
  225MOL0     H29671   0.756   9.178   1.024 -0.5410  1.9120  3.9411
  225MOL0     H29672   0.499   9.294   0.923 -0.7582 -0.7817  2.0777
  225MOL0     H29673   0.613   9.380   1.029 -0.6097 -0.2334  0.5388
  225MOL0     H29674   0.797   9.382   0.894 -1.2647 -0.0812  4.2668
  225MOL0     H29675   0.654   9.458   0.836  1.1758  1.0115  2.3201
  225MOL0     H29676   0.611   9.249   0.687 -0.4755  3.7969 -3.5036
  225MOL0     H29677   0.771   9.205   0.752  0.1244  0.9725  1.9858
  225MOL0     H29678   0.679   9.443   0.574 -0.5039 -0.7443 -0.8359
  225MOL0     H29679   0.847   9.430   0.624 -2.1264  0.5435  2.0847
  225MOL0     H29680   0.711   9.229   0.449 -0.8729  0.1154  1.0341
  225MOL0     H29681   0.875   9.203   0.528  1.7867  1.6183 -0.8030
  225MOL0     H29682   0.172   9.124   1.136  2.8377 -0.7792  3.3439
  225MOL0     H29683  -0.064   9.038   1.089 -0.6149 -0.8555  1.3138
  225MOL0     H29684  -0.272   8.651   0.893 -0.7687  1.1701 -1.6971
  225MOL0     H29685  -0.504   8.575   0.821 -3.2436  2.4759  0.3140
  225MOL0     H29686  -0.347   8.800   0.643 -1.6557 -0.2033 -2.6441
  225MOL0     H29687  -0.103   8.798   0.588  0.0278 -0.9748 -4.7660
  225MOL0     H29688   0.342   9.173   0.285  2.4880 -2.1760 -3.9610
  225MOL0     H29689   0.568   9.060   0.262 -1.3274 -0.2574 -1.2880
  225MOL0     H29690   0.658   8.777   0.606 -2.4945  2.2960 -1.3670
  225MOL0     H29691   0.736   8.934   0.600  2.4367 -0.8373  0.5004
  225MOL0     H29692   0.897   8.725   0.587 -2.6533 -3.5159 -1.3570
  225MOL0     H29693   0.859   8.711   0.421 -0.2457  1.0713 -0.1847
  225MOL0     H29694   0.909   8.985   0.423 -2.3577 -0.7330  0.6391
  225MOL0     H29695   1.027   8.860   0.390 -1.8541 -1.2570 -0.8749
  225MOL0     H29696   0.987   8.961   0.684 -1.5479 -2.1188  0.7402
  225MOL0     H29697   1.091   8.841   0.624  1.7798  1.4152 -2.9843
  225MOL0     H29698   1.330   9.139   0.492  0.3184  0.3942  1.0802
  225MOL0     H29699   0.455   8.801   0.585  0.2454 -1.6202 -1.8831
  225MOL0     H29700   0.236   8.910   0.596  1.2979 -0.2972  1.3083
  226MOL0     O29701   5.353   1.686   5.226  0.3210  0.1279 -0.4332
  226MOL0     C29702   5.352   1.787   5.159  0.5068 -0.4595 -0.1871
  226MOL0     O29703   5.281   1.805   5.040  0.0123 -0.2190 -0.0697
  226MOL0     C29704   5.164   1.727   5.004  0.1601  0.3354  0.1533
  226MOL0     C29705   5.096   1.638   5.091  0.1517  0.0188  0.2038
  226MOL0     C29706   5.002   1.548   5.035 -0.6413 -0.1430  0.9015
  226MOL0     C29707   4.964   1.546   4.899 -0.0948  0.1417 -0.7145
  226MOL0     O29708   4.872   1.447   4.859 -0.1476 -0.0767  0.2166
  226MOL0     C29709   4.841   1.448   4.720 -0.8122  0.0168 -0.3241
  226MOL0     C29710   4.733   1.351   4.690 -0.4506  0.2247 -0.3072
  226MOL0     C29711   4.613   1.385   4.780  0.5530 -0.9270  0.3814
  226MOL0     C29712   4.508   1.274   4.765 -1.5016  0.3817  0.1474
  226MOL0     C29713   4.368   1.292   4.844  0.5391  0.3138 -0.2695
  226MOL0     C29714   4.381   1.322   4.999 -0.6898 -0.2611  0.5951
  226MOL0     C29715   4.237   1.318   5.044  0.1327 -0.6964  0.2527
  226MOL0     C29716   4.233   1.324   5.198  0.0127 -0.5928  0.1451
  226MOL0     N29717   4.225   1.459   5.250 -0.1190  0.6094 -0.1315
  226MOL0     C29718   4.120   1.542   5.240  0.8622  0.5854  0.8067
  226MOL0     C29719   4.160   1.647   5.315 -0.2411  0.0434  0.5352
  226MOL0     C29720   4.094   1.784   5.346 -0.8793 -0.1305 -0.7290
  226MOL0     C29721   4.152   1.891   5.260  0.9460 -0.1670 -0.0032
  226MOL0     C29722   4.133   2.029   5.297  0.0700  0.4070 -0.1172
  226MOL0     C29723   4.156   2.137   5.189 -0.8460 -0.2412  0.2384
  226MOL0     O29724   4.081   2.105   5.072  0.0745 -0.7613 -0.2526
  226MOL0     C29725   3.945   2.151   5.067 -0.4854  0.1535 -0.8952
  226MOL0     C29726   3.873   2.213   5.164  0.4026  0.5146 -0.3658
  226MOL0     C29727   3.738   2.252   5.157 -0.2698  0.6288 -0.7377
  226MOL0     C29728   3.667   2.224   5.034  0.3025  0.1125 -1.6186
  226MOL0     C29729   3.515   2.245   5.030 -0.6472 -0.4326 -0.1743
  226MOL0     O29730   3.456   2.241   4.906  0.5020 -1.0356 -0.1844
  226MOL0     C29731   3.323   2.279   4.905  0.5145 -0.1625  0.1176
  226MOL0     C29732   3.240   2.199   4.821 -0.1735 -0.0458  0.0442
  226MOL0     C29733   3.096   2.209   4.834  0.0679  0.5160  0.8126
  226MOL0     C29734   3.028   2.306   4.913  0.1948  0.2170 -0.5420
  226MOL0     O29735   2.893   2.314   4.915 -0.3916 -0.1132  0.1834
  226MOL0     C29736   2.826   2.324   5.042  0.1952  0.1809  0.5257
  226MOL0     C29737   2.677   2.294   5.008 -0.2191  0.1655 -0.1838
  226MOL0     C29738   2.603   2.272   5.141  0.0508  0.1327 -0.2714
  226MOL0     C29739   2.458   2.232   5.116 -0.6028  0.7055 -0.1556
  226MOL0     C29740   2.386   2.206   5.251 -0.6395  0.0387 -0.1990
  226MOL0     C29741   2.247   2.162   5.211 -0.6154  0.0076 -0.2359
  226MOL0     C29742   2.155   2.199   5.328 -0.4904 -0.5600 -0.1080
  226MOL0     C29743   2.035   2.101   5.321  0.2690  0.7194  0.1801
  226MOL0    Cl29744   1.921   2.148   5.435  0.3551 -0.2382 -0.4632
  226MOL0     C29745   3.109   2.382   4.994 -0.9111  0.9869  0.2692
  226MOL0     C29746   3.253   2.366   4.990  0.5906 -1.0209  0.2878
  226MOL0     O29747   3.459   2.243   5.135 -0.2692 -0.3974 -0.2833
  226MOL0     C29748   3.745   2.177   4.933 -0.7090  0.5396 -0.2012
  226MOL0     C29749   3.880   2.137   4.946  0.8949 -0.4138  0.1417
  226MOL0     N29750   4.286   1.626   5.361 -0.5663  0.5843 -0.0662
  226MOL0     N29751   4.330   1.517   5.320 -0.8855  0.3239  0.0245
  226MOL0     C29752   5.034   1.637   4.817 -0.0163  0.3216  0.8106
  226MOL0     C29753   5.133   1.722   4.863  0.3205 -0.8320  0.2214
  226MOL0     C29754   5.424   1.901   5.216 -1.1384  1.1756  0.0783
  226MOL0     C29755   5.479   1.902   5.340 -1.1862  0.2077 -0.0019
  226MOL0     C29756   5.556   2.011   5.386 -0.2124 -0.5718  0.5544
  226MOL0     C29757   5.561   2.130   5.307  0.7805 -0.1798 -0.1151
  226MOL0     O29758   5.639   2.233   5.333 -0.1909  0.1194 -0.1461
  226MOL0     C29759   5.667   2.262   5.472  0.4740 -0.4264  0.4279
  226MOL0     C29760   5.820   2.273   5.492 -0.0235 -0.4593 -0.0080
  226MOL0     C29761   5.886   2.128   5.501  0.0421 -0.3666  0.6923
  226MOL0     C29762   6.038   2.122   5.491 -0.4318  1.0984  0.9315
  226MOL0     C29763   6.104   2.220   5.584 -0.2636 -0.2300 -0.7257
  226MOL0     C29764   6.160   2.293   5.660  0.0370  0.8539 -0.3407
  226MOL0     C29765   5.507   2.126   5.182  0.5915  0.4364  0.2690
  226MOL0     C29766   5.435   2.019   5.138  1.7580  0.5141 -0.0590
  226MOL0     H29767   5.128   1.628   5.194 -1.1073 -1.0490  0.5194
  226MOL0     H29768   4.953   1.462   5.080 -0.4371 -1.1573 -0.7311
  226MOL0     H29769   4.931   1.429   4.662 -0.4586  1.5336 -0.3309
  226MOL0     H29770   4.801   1.545   4.690  2.8863  1.8561  0.0389
  226MOL0     H29771   4.768   1.249   4.709  0.6624  0.4249 -1.1694
  226MOL0     H29772   4.706   1.355   4.584 -0.0276 -1.9281 -0.5579
  226MOL0     H29773   4.559   1.476   4.754 -2.1374 -2.0660  1.6304
  226MOL0     H29774   4.631   1.394   4.888  1.5771  2.5919  0.0305
  226MOL0     H29775   4.483   1.261   4.659 -1.2097  1.3853 -0.0508
  226MOL0     H29776   4.562   1.184   4.795  0.2255  1.4093  0.2025
  226MOL0     H29777   4.319   1.196   4.832  2.2732 -0.7159  0.4232
  226MOL0     H29778   4.305   1.371   4.802  0.2875  1.2375  1.7084
  226MOL0     H29779   4.420   1.423   5.015 -1.2417 -0.3209  2.6101
  226MOL0     H29780   4.448   1.260   5.059 -0.9826  1.2134  2.5520
  226MOL0     H29781   4.188   1.407   5.003 -0.9944  0.2134  3.2690
  226MOL0     H29782   4.189   1.223   5.018 -1.0191 -0.3006  0.8673
  226MOL0     H29783   4.323   1.284   5.245  0.9390  1.5927  0.3545
  226MOL0     H29784   4.145   1.267   5.230 -2.3791  2.1076 -1.1665
  226MOL0     H29785   4.023   1.530   5.192  0.8858 -0.6097  1.0283
  226MOL0     H29786   4.119   1.814   5.448  1.4389 -1.4350 -0.8606
  226MOL0     H29787   3.989   1.780   5.316 -0.3099  0.5626 -3.0762
  226MOL0     H29788   4.118   1.862   5.160  0.4439 -2.6618  0.8432
  226MOL0     H29789   4.260   1.873   5.258  1.0659  0.4695 -1.6682
  226MOL0     H29790   4.030   2.028   5.335  1.1667 -1.7790  3.2698
  226MOL0     H29791   4.205   2.052   5.376 -0.1687  0.6806  0.0242
  226MOL0     H29792   4.261   2.134   5.162 -1.7074 -1.5002 -3.5989
  226MOL0     H29793   4.134   2.243   5.205 -3.1326 -0.3303 -1.7520
  226MOL0     H29794   3.917   2.239   5.260  1.2897  3.1033 -1.3976
  226MOL0     H29795   3.697   2.293   5.248 -1.5886 -1.5818 -0.2698
  226MOL0     H29796   3.291   2.131   4.754 -0.9975  1.0596 -1.7543
  226MOL0     H29797   3.044   2.140   4.769  1.1717 -0.5233  1.0010
  226MOL0     H29798   2.833   2.420   5.093 -0.6858 -0.6775  2.3496
  226MOL0     H29799   2.867   2.248   5.108  1.7499  2.7566  2.7028
  226MOL0     H29800   2.663   2.222   4.927  2.4256  1.2499 -1.7403
  226MOL0     H29801   2.630   2.376   4.954 -1.5731 -1.7940 -2.1480
  226MOL0     H29802   2.599   2.370   5.191 -0.3112  2.0568 -3.7455
  226MOL0     H29803   2.661   2.193   5.189  1.0401  1.2081  0.3558
  226MOL0     H29804   2.404   2.307   5.057  1.6155  0.5594 -2.5998
  226MOL0     H29805   2.457   2.140   5.057 -0.2033 -2.1051  3.8094
  226MOL0     H29806   2.384   2.303   5.301 -2.7423 -0.5601  1.0123
  226MOL0     H29807   2.432   2.131   5.316 -1.2421  0.9896  1.3746
  226MOL0     H29808   2.239   2.053   5.206 -1.0310  0.0717 -1.5185
  226MOL0     H29809   2.205   2.217   5.126  0.6754  2.1910  0.4824
  226MOL0     H29810   2.203   2.181   5.425  0.1118 -0.6025 -0.4066
  226MOL0     H29811   2.127   2.304   5.325  1.5447  0.0290  0.2707
  226MOL0     H29812   2.078   2.001   5.338  0.5203  1.0927  1.9628
  226MOL0     H29813   1.991   2.104   5.221 -0.8884  0.9625  0.6898
  226MOL0     H29814   3.070   2.458   5.061 -0.1267  0.4660  1.3693
  226MOL0     H29815   3.303   2.424   5.067  2.3319 -0.1138 -1.4304
  226MOL0     H29816   3.688   2.157   4.843 -0.6782 -0.6191  0.0223
  226MOL0     H29817   3.940   2.096   4.865 -1.2367 -1.8307 -0.7868
  226MOL0     H29818   5.015   1.629   4.710  4.7948 -1.2395 -0.1517
  226MOL0     H29819   5.178   1.799   4.802  0.8368 -1.6266 -0.4150
  226MOL0     H29820   5.470   1.812   5.400 -2.1186  0.5013  0.3130
  226MOL0     H29821   5.616   1.999   5.475  0.7919 -3.2134 -0.3667
  226MOL0     H29822   5.624   2.185   5.536  0.8343 -0.5281  0.5471
  226MOL0     H29823   5.624   2.358   5.502  1.0881  0.2463 -0.7786
  226MOL0     H29824   5.860   2.325   5.404 -1.3467  1.5455  0.5135
  226MOL0     H29825   5.846   2.339   5.575  2.2196  1.7311 -2.2840
  226MOL0     H29826   5.849   2.065   5.419 -1.8968 -0.1558  1.3531
  226MOL0     H29827   5.855   2.093   5.599  0.3337 -1.1337  0.5137
  226MOL0     H29828   6.085   2.024   5.507  2.3843  2.2316  0.1826
  226MOL0     H29829   6.045   2.143   5.384 -2.1542 -1.5900  0.1928
  226MOL0     H29830   6.204   2.366   5.725 -1.6511  2.5827 -1.0236
  226MOL0     H29831   5.515   2.218   5.124  1.3779  1.0286  1.2692
  226MOL0     H29832   5.383   2.022   5.042 -1.3970  1.7949  1.5419
  227MOL0     O29833   2.572   4.010   4.044  0.0432  0.2017  0.3363
  227MOL0     C29834   2.638   4.080   3.966 -0.0986 -0.4824 -0.4853
  227MOL0     O29835   2.584   4.165   3.872 -0.2416  0.5433 -0.0808
  227MOL0     C29836   2.449   4.159   3.837  0.0749  0.0812  0.1831
  227MOL0     C29837   2.353   4.218   3.922 -0.1968 -1.3599  0.2905
  227MOL0     C29838   2.220   4.237   3.883 -0.2930 -0.4364  0.4256
  227MOL0     C29839   2.175   4.199   3.754  0.1283 -0.2406 -1.8310
  227MOL0     O29840   2.048   4.214   3.707  0.1151  0.0279 -0.1289
  227MOL0     C29841   2.002   4.349   3.696  0.4568  1.4217  0.6807
  227MOL0     C29842   1.878   4.346   3.605  0.0669 -0.0738 -0.1562
  227MOL0     C29843   1.932   4.316   3.463 -0.0802  0.3963  0.3989
  227MOL0     C29844   1.831   4.275   3.360 -0.0139  0.6430  0.6977
  227MOL0     C29845   1.888   4.279   3.215  0.2871  1.4985 -0.4872
  227MOL0     C29846   1.785   4.243   3.109  0.1914  0.0491 -0.2472
  227MOL0     C29847   1.734   4.096   3.107 -0.9444  0.2103  0.4736
  227MOL0     C29848   1.632   4.067   3.005  0.6026 -1.2566 -0.2044
  227MOL0     N29849   1.604   3.921   2.994 -0.5275  0.2767  0.6246
  227MOL0     C29850   1.545   3.849   2.881  0.1337 -0.4187 -0.8422
  227MOL0     C29851   1.526   3.726   2.928 -0.3199  0.6737 -0.3865
  227MOL0     C29852   1.476   3.608   2.847 -0.5811 -0.6896 -0.6233
  227MOL0     C29853   1.325   3.632   2.826  0.4248  0.0059  0.8628
  227MOL0     C29854   1.244   3.539   2.917  0.4620  0.6181  0.4200
  227MOL0     C29855   1.201   3.408   2.839  0.3659 -1.3400 -0.3548
  227MOL0     O29856   1.118   3.325   2.925 -0.2030 -0.1649 -1.3955
  227MOL0     C29857   1.067   3.218   2.871  0.7622  0.7197 -0.5890
  227MOL0     C29858   1.009   3.119   2.959  0.8353 -0.4363 -0.0370
  227MOL0     C29859   0.951   3.001   2.921 -0.4705  0.0488  0.2460
  227MOL0     C29860   0.931   2.980   2.781  0.1302 -0.6674 -0.4174
  227MOL0     C29861   0.834   2.883   2.730  0.2823  0.1348 -0.2859
  227MOL0     O29862   0.805   2.882   2.592  0.1487 -0.0556 -0.0720
  227MOL0     C29863   0.673   2.888   2.554  0.1793  0.5272 -0.2457
  227MOL0     C29864   0.571   2.938   2.635  0.3037 -0.4672  0.0336
  227MOL0     C29865   0.437   2.946   2.587 -0.5253 -0.2354 -0.1577
  227MOL0     C29866   0.418   2.888   2.459  0.9545 -0.4781 -0.3733
  227MOL0     O29867   0.290   2.895   2.409 -0.4890  0.3843 -0.1807
  227MOL0     C29868   0.239   2.761   2.361  0.5265  0.0847  0.8125
  227MOL0     C29869   0.085   2.761   2.362  0.2948  0.9021 -0.6942
  227MOL0     C29870   0.020   2.775   2.497 -0.0981  0.6070 -0.1758
  227MOL0     C29871  -0.131   2.769   2.495  0.3290 -0.9348 -0.2976
  227MOL0     C29872  -0.195   2.805   2.628  0.3838 -0.6655 -0.2546
  227MOL0     C29873  -0.238   2.688   2.714 -0.3298 -0.0428  0.6042
  227MOL0     C29874  -0.328   2.728   2.828  0.3432 -0.0837 -0.3984
  227MOL0     C29875  -0.346   2.636   2.949 -0.2035  0.7599  0.1839
  227MOL0    Cl29876  -0.440   2.474   2.915  0.1630 -0.5728 -0.0617
  227MOL0     C29877   0.517   2.839   2.378  0.8541  0.0238  0.4643
  227MOL0     C29878   0.649   2.839   2.422  1.0120  0.5815 -0.5516
  227MOL0     O29879   0.784   2.812   2.816 -0.2028 -0.6744  0.4434
  227MOL0     C29880   0.999   3.066   2.692 -0.6186  0.0505 -0.0955
  227MOL0     C29881   1.058   3.185   2.731  0.1294  0.2543 -0.1434
  227MOL0     N29882   1.578   3.719   3.059  0.5449  0.1090  0.6285
  227MOL0     N29883   1.628   3.835   3.091  0.0696 -0.0925 -0.6741
  227MOL0     C29884   2.276   4.131   3.677 -0.1782 -0.1126  0.7126
  227MOL0     C29885   2.402   4.105   3.717  0.3679 -0.6331 -0.1083
  227MOL0     C29886   2.781   4.093   3.973  0.5077 -0.0647 -0.8724
  227MOL0     C29887   2.839   4.225   3.957 -0.6935 -0.0947 -0.5595
  227MOL0     C29888   2.978   4.234   3.936  0.8772  0.6793  0.0186
  227MOL0     C29889   3.060   4.120   3.961  0.2817 -0.5133 -0.3786
  227MOL0     O29890   3.193   4.144   3.956  0.6439 -0.2807 -0.6045
  227MOL0     C29891   3.294   4.049   3.959  0.3775 -0.2900 -0.3963
  227MOL0     C29892   3.440   4.103   3.941 -0.5242 -0.5382 -0.0178
  227MOL0     C29893   3.470   4.154   3.799  0.1793 -0.9977 -0.7864
  227MOL0     C29894   3.619   4.189   3.794 -0.0698 -0.2731  0.6218
  227MOL0     C29895   3.653   4.226   3.656 -0.0768  0.0132  0.2298
  227MOL0     C29896   3.666   4.246   3.537  0.4055  0.2945  0.4393
  227MOL0     C29897   3.005   3.998   3.996 -0.0544  0.2615 -0.2703
  227MOL0     C29898   2.867   3.980   3.990 -0.1193 -0.0201  0.6667
  227MOL0     H29899   2.400   4.249   4.015  1.3251  0.1974 -0.9274
  227MOL0     H29900   2.155   4.291   3.951  1.6029  0.1672  1.8520
  227MOL0     H29901   2.076   4.419   3.657 -1.3423  2.7659 -0.5151
  227MOL0     H29902   1.978   4.370   3.800  1.1790  0.7941  0.9823
  227MOL0     H29903   1.814   4.435   3.611  0.5113  0.2914 -0.7918
  227MOL0     H29904   1.818   4.261   3.640  2.4921 -3.1333 -2.9025
  227MOL0     H29905   1.994   4.226   3.473 -0.5266  0.2445  2.1759
  227MOL0     H29906   1.994   4.397   3.424 -1.9732  1.3358 -0.7366
  227MOL0     H29907   1.804   4.174   3.390 -2.3320  1.5338  1.8297
  227MOL0     H29908   1.739   4.334   3.363 -1.2080 -1.1906  2.0024
  227MOL0     H29909   1.973   4.209   3.215  1.5731  2.9923  0.3843
  227MOL0     H29910   1.926   4.378   3.188 -1.2405  2.8859  2.1250
  227MOL0     H29911   1.819   4.282   3.013 -3.6019 -0.2342 -1.8810
  227MOL0     H29912   1.698   4.306   3.130  1.5872  2.1795 -0.5181
  227MOL0     H29913   1.823   4.034   3.092  0.1927  0.6441  4.4040
  227MOL0     H29914   1.689   4.075   3.205  1.5508 -0.1358  1.6056
  227MOL0     H29915   1.665   4.115   2.913  0.6455  4.9840  2.5497
  227MOL0     H29916   1.542   4.124   3.031  1.5107  0.7869 -1.2932
  227MOL0     H29917   1.527   3.887   2.781  1.3001 -0.5693 -1.1153
  227MOL0     H29918   1.496   3.513   2.896 -1.1810 -0.5177 -0.0260
  227MOL0     H29919   1.528   3.619   2.751  0.7448 -4.2749 -0.4627
  227MOL0     H29920   1.311   3.608   2.720 -0.1658  1.9174  0.4711
  227MOL0     H29921   1.300   3.738   2.830 -0.1438 -0.0991  0.2990
  227MOL0     H29922   1.306   3.517   3.005  1.3384  0.0499 -0.3152
  227MOL0     H29923   1.153   3.590   2.950  0.2982 -0.8191  2.2929
  227MOL0     H29924   1.287   3.350   2.804  0.5009 -2.3509  1.4873
  227MOL0     H29925   1.136   3.436   2.756 -2.0566 -0.9652  1.5663
  227MOL0     H29926   1.006   3.154   3.062 -2.8016  4.8750 -1.4926
  227MOL0     H29927   0.901   2.942   2.997 -0.4410  1.8854  1.7826
  227MOL0     H29928   0.587   2.984   2.732 -0.4616 -0.3542  0.1105
  227MOL0     H29929   0.353   2.991   2.640 -0.7570  0.2743 -0.9281
  227MOL0     H29930   0.280   2.680   2.421  1.6473  0.5027  0.6214
  227MOL0     H29931   0.264   2.761   2.255 -1.9336  0.2597  0.1588
  227MOL0     H29932   0.072   2.661   2.319  1.5915  0.2738  0.3223
  227MOL0     H29933   0.041   2.827   2.287 -2.5117  1.8471  1.5894
  227MOL0     H29934   0.061   2.870   2.533 -1.5132  1.3520 -0.4434
  227MOL0     H29935   0.044   2.692   2.563  0.8009  0.3291 -0.8348
  227MOL0     H29936  -0.166   2.834   2.414  2.0882 -0.8865 -1.0555
  227MOL0     H29937  -0.158   2.666   2.470  1.1872 -1.2252 -0.0395
  227MOL0     H29938  -0.290   2.853   2.602  1.0609  2.0326  1.8072
  227MOL0     H29939  -0.133   2.877   2.681 -2.2916  1.7935 -0.2028
  227MOL0     H29940  -0.147   2.639   2.750  0.2101  2.2909  2.7075
  227MOL0     H29941  -0.292   2.619   2.648 -1.4662  1.1524  0.2558
  227MOL0     H29942  -0.290   2.821   2.873 -1.0954  0.1748  0.3357
  227MOL0     H29943  -0.432   2.745   2.798 -0.0940 -1.4627  0.2410
  227MOL0     H29944  -0.408   2.689   3.022  0.3544  0.6218  0.7763
  227MOL0     H29945  -0.250   2.620   2.999  1.3670  1.1490 -2.4927
  227MOL0     H29946   0.501   2.798   2.279  3.3417  1.5977 -0.6871
  227MOL0     H29947   0.729   2.821   2.351  0.9541  0.9065 -0.6992
  227MOL0     H29948   0.991   3.051   2.585 -2.8186  1.2711 -0.1756
  227MOL0     H29949   1.094   3.252   2.653 -0.0188  1.4872  0.8184
  227MOL0     H29950   2.249   4.100   3.576 -1.3021  0.2502  0.8836
  227MOL0     H29951   2.472   4.045   3.659  3.4080  1.5748  0.9740
  227MOL0     H29952   2.774   4.311   3.944 -0.4543  0.3179  0.8044
  227MOL0     H29953   3.025   4.331   3.922  1.2291  0.4258 -0.5620
  227MOL0     H29954   3.281   3.972   3.883  0.9780 -0.1717 -0.6222
  227MOL0     H29955   3.286   4.002   4.058 -1.8534  0.7099 -0.0346
  227MOL0     H29956   3.459   4.185   4.010 -0.4739  0.7232 -1.4585
  227MOL0     H29957   3.506   4.016   3.949 -1.8867 -1.6874 -0.7935
  227MOL0     H29958   3.420   4.251   3.791  2.2225  0.2389  0.2899
  227MOL0     H29959   3.435   4.091   3.717  4.6239 -0.3902 -3.4779
  227MOL0     H29960   3.647   4.271   3.861 -0.6415 -0.2269  0.8076
  227MOL0     H29961   3.683   4.105   3.824 -0.1834 -0.3685  0.5935
  227MOL0     H29962   3.657   4.262   3.432  0.9624 -4.0946 -0.4441
  227MOL0     H29963   3.063   3.908   4.017  0.6322  0.6600 -0.4251
  227MOL0     H29964   2.834   3.877   4.004  1.1262 -0.6115 -0.4856
  228MOL0     O29965   3.635   9.429   5.800  0.2697  0.1713 -0.4423
  228MOL0     C29966   3.615   9.533   5.864 -0.3972 -0.1026  0.3336
  228MOL0     O29967   3.489   9.589   5.889  0.1672 -0.7254  0.0524
  228MOL0     C29968   3.376   9.526   5.852  0.2124 -0.1842 -0.2453
  228MOL0     C29969   3.268   9.618   5.850  0.2683 -0.2745  0.5040
  228MOL0     C29970   3.144   9.576   5.788 -0.5928 -1.0878  0.2202
  228MOL0     C29971   3.121   9.440   5.747  0.3733  0.2962 -0.1953
  228MOL0     O29972   2.993   9.402   5.704  0.0199  0.1631  0.7281
  228MOL0     C29973   2.881   9.438   5.784  0.6762 -0.1772 -0.0010
  228MOL0     C29974   2.862   9.340   5.904  0.3609 -0.7143  0.6255
  228MOL0     C29975   2.719   9.351   5.956 -0.7220 -0.2135  0.6619
  228MOL0     C29976   2.694   9.246   6.065 -0.2088 -0.2661 -0.4292
  228MOL0     C29977   2.550   9.241   6.122  0.3106 -0.9131  0.4654
  228MOL0     C29978   2.535   9.124   6.216  0.1457  0.4279  0.3020
  228MOL0     C29979   2.385   9.104   6.240 -0.0463  0.3870 -0.1919
  228MOL0     C29980   2.312   9.221   6.298  0.7855  0.0498 -0.1645
  228MOL0     N29981   2.381   9.248   6.422 -0.2735 -0.1164 -0.4834
  228MOL0     C29982   2.378   9.170   6.536 -0.9517 -0.1311  0.7052
  228MOL0     C29983   2.470   9.220   6.620  0.3143  0.9107  0.5738
  228MOL0     C29984   2.518   9.157   6.747  0.5360  0.3032  0.3956
  228MOL0     C29985   2.527   9.266   6.857  0.5987  1.0127  0.3973
  228MOL0     C29986   2.416   9.363   6.890 -0.2313 -0.4611  0.4585
  228MOL0     C29987   2.313   9.298   6.977  0.2904 -0.4404  0.2725
  228MOL0     O29988   2.229   9.230   6.877  0.0550 -0.5798  0.8292
  228MOL0     C29989   2.121   9.161   6.916 -0.0465 -0.1591 -0.0429
  228MOL0     C29990   2.036   9.185   7.014 -0.5062  0.4206 -0.9769
  228MOL0     C29991   1.918   9.113   7.033  0.6156  0.3869 -0.2802
  228MOL0     C29992   1.860   9.025   6.942 -0.1706  0.2123 -0.4772
  228MOL0     C29993   1.733   8.958   6.956  0.1270 -0.7875  0.0394
  228MOL0     O29994   1.673   9.009   7.062  0.3347 -0.5632 -0.5919
  228MOL0     C29995   1.544   8.981   7.094  0.0669 -0.3606  0.1528
  228MOL0     C29996   1.431   9.009   7.008  0.0369  0.6807 -0.0003
  228MOL0     C29997   1.305   8.973   7.047  0.7129  0.8520 -0.8462
  228MOL0     C29998   1.282   8.901   7.165 -0.5412 -0.6848  0.0297
  228MOL0     O29999   1.160   8.859   7.188 -0.8663  1.0862  0.4127
  228MOL0     C30000   1.120   8.729   7.135 -0.1022 -0.1576 -0.0438
  228MOL0     C30001   1.188   8.615   7.200  0.3950 -0.1255 -1.0949
  228MOL0     C30002   1.317   8.582   7.137  0.3048 -0.6490 -0.1139
  228MOL0     C30003   1.315   8.443   7.061 -1.3023  0.3536 -0.8169
  228MOL0     C30004   1.452   8.428   7.012 -0.8641  0.5701 -0.1583
  228MOL0     C30005   1.560   8.391   7.114  0.2221 -0.5235 -0.8542
  228MOL0     C30006   1.688   8.346   7.041 -1.3555 -0.6533 -0.2303
  228MOL0     C30007   1.797   8.272   7.124 -0.2953  1.3998 -0.4796
  228MOL0    Cl30008   1.736   8.108   7.176 -0.5762  0.1668 -0.2328
  228MOL0     C30009   1.389   8.877   7.254  0.6314  0.1801  1.1494
  228MOL0     C30010   1.517   8.916   7.218  0.9170  0.1014  0.0032
  228MOL0     O30011   1.693   8.867   6.887  0.0827  0.6420  0.4942
  228MOL0     C30012   1.953   8.995   6.838  0.1082 -0.0451  0.1696
  228MOL0     C30013   2.085   9.056   6.830  0.1646  0.2283  0.8849
  228MOL0     N30014   2.516   9.337   6.572  0.2589 -0.1715  0.5108
  228MOL0     N30015   2.465   9.350   6.449 -0.1110 -0.0388  0.3048
  228MOL0     C30016   3.227   9.350   5.754 -0.5443 -0.2230  0.3853
  228MOL0     C30017   3.354   9.392   5.817 -0.7776 -0.3040  0.6090
  228MOL0     C30018   3.724   9.627   5.897 -0.8330  0.1068 -0.1305
  228MOL0     C30019   3.700   9.746   5.970 -0.5783 -0.9609 -0.3542
  228MOL0     C30020   3.801   9.843   5.986  0.0399  0.0353 -0.5442
  228MOL0     C30021   3.928   9.820   5.947 -0.0103 -0.0650  0.9525
  228MOL0     O30022   4.038   9.903   5.971  0.1794 -0.5231  0.1447
  228MOL0     C30023   4.004  10.039   6.009  0.1919  0.1223 -0.8940
  228MOL0     C30024   4.131  10.125   5.981  0.5588 -0.2209 -0.4442
  228MOL0     C30025   4.243  10.106   6.086  0.0969 -0.2311 -0.5298
  228MOL0     C30026   4.381  10.156   6.027 -0.6229  0.0710 -0.0896
  228MOL0     C30027   4.503  10.107   6.098  0.7462  0.4638 -0.3848
  228MOL0     C30028   4.589  10.081   6.171  0.1766  0.9828  0.6645
  228MOL0     C30029   3.947   9.698   5.886  0.3051  0.1484  0.5994
  228MOL0     C30030   3.853   9.608   5.857 -0.7838 -0.0366  0.0695
  228MOL0     H30031   3.281   9.719   5.886  2.4721 -1.1621  2.4194
  228MOL0     H30032   3.061   9.645   5.779 -0.3888 -0.9576 -0.7997
  228MOL0     H30033   2.796   9.432   5.715  2.3204  0.3928 -2.1754
  228MOL0     H30034   2.886   9.540   5.823 -0.1713 -0.1669  0.1025
  228MOL0     H30035   2.936   9.362   5.981 -0.4194 -0.1307  1.2290
  228MOL0     H30036   2.878   9.240   5.864  4.4736  0.6428 -1.6487
  228MOL0     H30037   2.648   9.333   5.874  2.2779  2.2082 -2.7882
  228MOL0     H30038   2.695   9.450   5.996 -1.4273  1.6500 -3.7841
  228MOL0     H30039   2.725   9.152   6.018  1.3272 -0.4195  0.8197
  228MOL0     H30040   2.765   9.265   6.146 -0.2712 -1.0181 -0.2000
  228MOL0     H30041   2.483   9.228   6.037  1.0462 -0.0305 -0.2848
  228MOL0     H30042   2.525   9.340   6.163  1.7514 -0.6985  0.8836
  228MOL0     H30043   2.594   9.142   6.306  0.5196 -0.2976  0.2052
  228MOL0     H30044   2.569   9.032   6.167 -0.1590  0.2085  0.4995
  228MOL0     H30045   2.343   9.081   6.142 -1.3973  1.3269  0.1327
  228MOL0     H30046   2.374   9.018   6.306 -0.7245 -1.1606 -2.2221
  228MOL0     H30047   2.206   9.205   6.317  1.0461  0.5318  1.9056
  228MOL0     H30048   2.313   9.308   6.232 -2.5660  1.4726  1.4311
  228MOL0     H30049   2.330   9.073   6.537  0.7002 -1.1205 -2.6305
  228MOL0     H30050   2.610   9.102   6.728 -1.2402 -1.6375 -4.2800
  228MOL0     H30051   2.441   9.087   6.782  2.3412 -1.6100  0.6892
  228MOL0     H30052   2.615   9.322   6.824  1.7979  1.8164  4.3668
  228MOL0     H30053   2.545   9.211   6.950 -5.2141 -1.8284  0.2785
  228MOL0     H30054   2.450   9.448   6.950 -1.5140 -0.6822  1.5499
  228MOL0     H30055   2.367   9.398   6.799  0.6601 -2.2868 -0.7763
  228MOL0     H30056   2.254   9.369   7.034 -0.7180 -1.5983  0.7174
  228MOL0     H30057   2.344   9.225   7.053 -1.1729 -1.2424  0.1414
  228MOL0     H30058   2.047   9.268   7.084  0.1314  0.3082 -0.9337
  228MOL0     H30059   1.866   9.135   7.125 -0.5846 -0.8883 -0.6298
  228MOL0     H30060   1.453   9.063   6.917  1.8437  1.6656  0.9454
  228MOL0     H30061   1.223   8.983   6.976  2.6040  0.7857 -3.1516
  228MOL0     H30062   1.131   8.735   7.026  1.2470  0.8695  0.1253
  228MOL0     H30063   1.016   8.713   7.162  0.3147  1.1476  2.7474
  228MOL0     H30064   1.117   8.532   7.198 -1.3635  1.2076  0.9551
  228MOL0     H30065   1.205   8.632   7.306 -0.3377 -3.5162 -0.3275
  228MOL0     H30066   1.385   8.570   7.221 -1.4005 -3.0075  1.0556
  228MOL0     H30067   1.348   8.658   7.064 -3.5089  0.8025 -0.4725
  228MOL0     H30068   1.287   8.366   7.133 -0.9028  0.4916 -0.5120
  228MOL0     H30069   1.248   8.444   6.974 -2.4562  1.6319  0.0479
  228MOL0     H30070   1.481   8.512   6.948  0.2796  1.5958  1.6243
  228MOL0     H30071   1.445   8.345   6.941  1.3617  1.4671 -1.5016
  228MOL0     H30072   1.514   8.311   7.171  1.3915 -1.5783 -1.3432
  228MOL0     H30073   1.589   8.478   7.174 -1.6559 -2.4860  3.2992
  228MOL0     H30074   1.672   8.273   6.961  3.3198 -0.5571 -1.5531
  228MOL0     H30075   1.738   8.437   7.007 -1.3143 -0.3212  0.6930
  228MOL0     H30076   1.821   8.337   7.209 -1.4934  2.7357 -1.1229
  228MOL0     H30077   1.888   8.263   7.064 -0.6230 -1.0335 -0.7076
  228MOL0     H30078   1.383   8.827   7.350  1.3758 -1.8692  0.1834
  228MOL0     H30079   1.599   8.890   7.284  1.3395  1.1873 -0.0876
  228MOL0     H30080   1.916   8.925   6.763  2.9564 -1.9888  0.3789
  228MOL0     H30081   2.149   9.022   6.750 -2.8010 -1.2318 -1.0489
  228MOL0     H30082   3.208   9.247   5.727  0.0471  0.2404 -1.9678
  228MOL0     H30083   3.431   9.320   5.846  0.1064  0.7214  0.8533
  228MOL0     H30084   3.601   9.775   6.006  0.1245  3.4566 -1.3635
  228MOL0     H30085   3.769   9.932   6.041 -1.4788  1.1283 -3.0086
  228MOL0     H30086   3.973  10.019   6.112 -2.3697 -3.7559 -2.1915
  228MOL0     H30087   3.920  10.085   5.957 -2.3733  0.7713  3.3425
  228MOL0     H30088   4.168  10.115   5.879 -0.8399  0.5339 -1.0683
  228MOL0     H30089   4.107  10.232   5.985  2.6863  0.3470 -1.3918
  228MOL0     H30090   4.249  10.000   6.114 -0.2350  0.0592  0.7009
  228MOL0     H30091   4.228  10.156   6.182  1.4926 -0.3800 -0.2143
  228MOL0     H30092   4.392  10.115   5.926 -1.6052 -1.4705  0.3917
  228MOL0     H30093   4.378  10.264   6.014 -1.5704  0.1594  0.7345
  228MOL0     H30094   4.665  10.053   6.242 -0.9484 -0.3308  1.4006
  228MOL0     H30095   4.039   9.668   5.836  0.3114 -2.7872  2.1245
  228MOL0     H30096   3.863   9.527   5.785 -2.0192  2.0077 -2.5731
  229MOL0     O30097   4.454   6.773   1.972 -0.5284  0.1447  0.4730
  229MOL0     C30098   4.483   6.891   1.943  0.5730 -0.3411  0.6915
  229MOL0     O30099   4.390   6.984   1.908 -1.2163 -0.5665 -0.3599
  229MOL0     C30100   4.264   6.955   1.877 -0.3006 -0.2228  0.9075
  229MOL0     C30101   4.196   7.066   1.847 -0.6417  0.0311  0.0995
  229MOL0     C30102   4.060   7.072   1.823  0.4750  0.0949  0.7173
  229MOL0     C30103   3.986   6.961   1.832 -1.0013  0.4696 -0.0980
  229MOL0     O30104   3.857   6.951   1.807  0.0408 -0.1811 -0.1902
  229MOL0     C30105   3.767   6.989   1.919  0.0688  0.7043 -0.0283
  229MOL0     C30106   3.611   7.004   1.869 -0.5666  0.0055 -0.2643
  229MOL0     C30107   3.516   7.029   1.991 -0.1286  0.5357 -0.3935
  229MOL0     C30108   3.393   7.087   1.926 -0.2846 -0.0937  0.5807
  229MOL0     C30109   3.280   7.094   2.027 -0.1886  0.5228 -0.7288
  229MOL0     C30110   3.142   7.116   1.973 -1.0091  0.7372 -0.5894
  229MOL0     C30111   3.042   7.112   2.085  0.4894  0.4550 -0.3411
  229MOL0     C30112   2.897   7.136   2.037 -0.2063  0.9075  0.3878
  229MOL0     N30113   2.790   7.126   2.140  0.1164 -0.9866 -0.1690
  229MOL0     C30114   2.688   7.034   2.144 -0.5026 -0.1750  0.4829
  229MOL0     C30115   2.644   7.028   2.268  0.1029  0.4982 -0.8023
  229MOL0     C30116   2.551   6.935   2.338 -0.3006  0.0853 -0.1967
  229MOL0     C30117   2.410   6.982   2.376 -0.1317  0.1696 -0.2139
  229MOL0     C30118   2.322   6.875   2.444  1.2114  1.3810  1.1403
  229MOL0     C30119   2.205   6.935   2.539 -0.5152  0.6069  0.2081
  229MOL0     O30120   2.110   7.024   2.462 -0.6580  0.4638  0.3455
  229MOL0     C30121   2.049   7.132   2.517 -0.1988 -0.6082  0.2795
  229MOL0     C30122   2.048   7.158   2.655  0.8796 -0.0075  0.4668
  229MOL0     C30123   1.976   7.270   2.715 -0.0495  0.3302 -0.2674
  229MOL0     C30124   1.914   7.358   2.621  0.8551  0.4114 -0.6133
  229MOL0     C30125   1.836   7.467   2.674  0.4280  0.1214  0.4712
  229MOL0     O30126   1.889   7.533   2.781  0.0170  0.0298 -0.0404
  229MOL0     C30127   1.840   7.654   2.828  0.0937 -0.4379  0.6035
  229MOL0     C30128   1.771   7.655   2.944 -0.7024  0.2128 -0.1685
  229MOL0     C30129   1.716   7.778   2.998 -1.1128  0.6831 -0.5404
  229MOL0     C30130   1.726   7.893   2.917  0.5959 -0.5520  0.5105
  229MOL0     O30131   1.666   8.010   2.952 -0.3962 -0.4661  0.2297
  229MOL0     C30132   1.527   8.022   2.973 -0.2494 -0.6461 -0.2351
  229MOL0     C30133   1.446   8.010   2.840  1.0041  0.0800  0.4937
  229MOL0     C30134   1.437   7.863   2.779  1.1315  0.2600 -0.0289
  229MOL0     C30135   1.402   7.750   2.866 -0.4077  0.7504 -0.4907
  229MOL0     C30136   1.452   7.615   2.823 -0.2326 -0.2316  1.0765
  229MOL0     C30137   1.404   7.503   2.915 -0.3441  0.4031 -0.5001
  229MOL0     C30138   1.254   7.458   2.905  0.1366  0.2120  0.2961
  229MOL0     C30139   1.243   7.329   2.984  0.1940  0.3038  0.0187
  229MOL0    Cl30140   1.066   7.313   3.034 -0.1593 -0.2462 -0.3304
  229MOL0     C30141   1.807   7.895   2.808 -0.7125  0.0590  0.1198
  229MOL0     C30142   1.862   7.771   2.762  0.7287 -0.9062 -0.7646
  229MOL0     O30143   1.726   7.496   2.627  0.1021  0.6082  0.6462
  229MOL0     C30144   1.913   7.334   2.481  1.1624  0.3816 -0.2949
  229MOL0     C30145   1.986   7.222   2.433  0.0331 -0.0584 -0.1001
  229MOL0     N30146   2.717   7.110   2.343 -0.8199  0.1625  0.1658
  229MOL0     N30147   2.811   7.170   2.269 -1.2002 -0.4555 -0.4678
  229MOL0     C30148   4.053   6.837   1.852 -0.3415 -0.3105 -0.7817
  229MOL0     C30149   4.194   6.838   1.875  0.3446  1.0843 -0.3016
  229MOL0     C30150   4.619   6.927   1.945  0.4780  0.0488 -0.0464
  229MOL0     C30151   4.654   7.066   1.954  0.4132  0.5667 -0.5386
  229MOL0     C30152   4.785   7.101   1.973 -0.6420  0.2754 -0.3117
  229MOL0     C30153   4.889   7.007   1.987 -1.0026  0.3948  0.7587
  229MOL0     O30154   5.012   7.052   2.022 -0.7788  0.3211  0.0121
  229MOL0     C30155   5.125   6.972   2.025 -0.4718  1.1759  0.3073
  229MOL0     C30156   5.241   7.047   2.084 -0.1869  0.9995 -0.6613
  229MOL0     C30157   5.362   6.957   2.102  0.4976 -0.5342 -0.3834
  229MOL0     C30158   5.483   7.057   2.121  0.3142 -0.2352 -1.3571
  229MOL0     C30159   5.595   6.972   2.174  0.3116  0.3684  0.4121
  229MOL0     C30160   5.695   6.907   2.201  0.3519  1.1691  1.0247
  229MOL0     C30161   4.851   6.867   1.980 -0.2613 -0.4542 -0.8909
  229MOL0     C30162   4.723   6.828   1.961  0.4941  0.3308 -0.4434
  229MOL0     H30163   4.247   7.161   1.835 -0.4721 -0.3336 -3.0929
  229MOL0     H30164   4.012   7.166   1.794 -2.5114 -1.4588  0.2551
  229MOL0     H30165   3.794   7.091   1.949 -1.5771  2.1315 -2.9188
  229MOL0     H30166   3.775   6.909   1.992 -0.5975 -0.0986 -0.8121
  229MOL0     H30167   3.587   6.921   1.801  1.5144  1.4695 -3.0062
  229MOL0     H30168   3.612   7.089   1.800 -3.0851 -1.2956 -2.0483
  229MOL0     H30169   3.569   7.111   2.041  4.4376  0.3367 -4.2304
  229MOL0     H30170   3.507   6.942   2.057 -1.5329  1.4823  0.7320
  229MOL0     H30171   3.417   7.180   1.873 -0.2991 -1.7972 -2.6889
  229MOL0     H30172   3.357   7.026   1.843  1.1903 -0.6167  0.2828
  229MOL0     H30173   3.302   7.162   2.110 -3.2162  1.7100 -0.7860
  229MOL0     H30174   3.282   6.997   2.076  0.5479  0.4667 -0.8543
  229MOL0     H30175   3.120   7.042   1.895  0.2769 -0.5774  0.2423
  229MOL0     H30176   3.145   7.215   1.928  3.0536  1.3516  0.6642
  229MOL0     H30177   3.045   7.014   2.135  0.1478  0.3466 -0.5318
  229MOL0     H30178   3.066   7.194   2.153 -1.1653 -0.7840  1.8778
  229MOL0     H30179   2.867   7.067   1.958 -2.4343  3.8201 -1.5872
  229MOL0     H30180   2.888   7.237   1.996  2.5207  1.1398  0.2124
  229MOL0     H30181   2.655   6.972   2.061 -1.3342  1.4904 -0.4664
  229MOL0     H30182   2.617   6.919   2.424  2.8999  0.2456 -2.4684
  229MOL0     H30183   2.544   6.843   2.280  1.0430  0.5186 -1.0718
  229MOL0     H30184   2.368   7.033   2.288  0.0240  1.0616  0.2170
  229MOL0     H30185   2.424   7.055   2.457 -1.4189 -1.4056  1.4961
  229MOL0     H30186   2.282   6.805   2.370 -1.1200  2.1725  1.5689
  229MOL0     H30187   2.384   6.814   2.511  2.7523 -0.1249 -1.5082
  229MOL0     H30188   2.249   6.999   2.615 -2.2312  0.3773  1.4475
  229MOL0     H30189   2.148   6.858   2.592 -1.9388 -0.0893 -2.1524
  229MOL0     H30190   2.108   7.098   2.723 -0.0399  0.9969  2.2301
  229MOL0     H30191   1.971   7.279   2.823 -2.9198 -2.2595 -0.0317
  229MOL0     H30192   1.759   7.561   2.997 -1.7913  0.5297  0.1853
  229MOL0     H30193   1.663   7.780   3.093  0.9595  1.3936  0.6789
  229MOL0     H30194   1.508   8.119   3.021  1.5910 -0.4111  0.1028
  229MOL0     H30195   1.502   7.945   3.047  2.2382 -2.8146 -1.4753
  229MOL0     H30196   1.483   8.075   2.761 -0.0088  0.1159  0.0407
  229MOL0     H30197   1.351   8.055   2.870  0.6759 -0.1139 -0.2622
  229MOL0     H30198   1.535   7.837   2.737  0.4716 -2.2400 -0.1302
  229MOL0     H30199   1.369   7.866   2.693  3.8138  0.7003 -2.3133
  229MOL0     H30200   1.450   7.770   2.962 -0.5542  2.4799 -0.7509
  229MOL0     H30201   1.294   7.742   2.872 -0.3454  0.4982  0.4413
  229MOL0     H30202   1.561   7.619   2.824 -0.1492  1.3769 -2.1106
  229MOL0     H30203   1.415   7.584   2.725  0.8920 -0.8115  0.8159
  229MOL0     H30204   1.434   7.525   3.019  0.6125  1.4454 -0.9703
  229MOL0     H30205   1.470   7.420   2.890 -1.6774 -1.0379  0.6276
  229MOL0     H30206   1.193   7.534   2.957 -3.0025 -0.7726 -1.6379
  229MOL0     H30207   1.219   7.452   2.802 -2.5553 -1.9937  1.1968
  229MOL0     H30208   1.295   7.343   3.079  0.1597 -1.8704  0.4085
  229MOL0     H30209   1.293   7.244   2.936  1.4348  0.2804  1.2827
  229MOL0     H30210   1.827   7.988   2.755 -3.0676  0.3401 -0.4262
  229MOL0     H30211   1.912   7.774   2.666 -2.5361  0.2328 -2.5873
  229MOL0     H30212   1.854   7.389   2.409  1.0829 -0.3008 -0.7617
  229MOL0     H30213   1.986   7.192   2.329  0.6755 -1.6186  0.3249
  229MOL0     H30214   4.010   6.738   1.846 -1.2717  0.0255  0.2505
  229MOL0     H30215   4.232   6.739   1.900  1.0961  1.1196 -1.2722
  229MOL0     H30216   4.581   7.145   1.941  1.1344  0.9044 -2.9898
  229MOL0     H30217   4.808   7.207   1.979 -2.8359  1.0295 -2.8324
  229MOL0     H30218   5.161   6.954   1.923  0.7774 -0.3748  0.9741
  229MOL0     H30219   5.115   6.882   2.086  5.6112  1.3084  2.1500
  229MOL0     H30220   5.264   7.139   2.028 -1.4775  1.6807 -0.1069
  229MOL0     H30221   5.202   7.078   2.181 -2.5522 -0.5393 -1.0551
  229MOL0     H30222   5.373   6.890   2.017  1.7523 -2.2646  1.0817
  229MOL0     H30223   5.350   6.895   2.191 -1.7188  2.1101  1.3633
  229MOL0     H30224   5.504   7.123   2.037  0.7518  0.1178 -0.9744
  229MOL0     H30225   5.435   7.120   2.196 -0.8715  0.8780 -2.9830
  229MOL0     H30226   5.776   6.853   2.244  0.8394  1.7232  0.8109
  229MOL0     H30227   4.926   6.789   1.977 -0.8958 -1.0536 -2.4288
  229MOL0     H30228   4.686   6.726   1.964 -2.0634  1.2137  1.1605
  230MOL0     O30229   4.959   7.207   8.031  0.2386 -0.0342  0.6844
  230MOL0     C30230   5.075   7.183   8.075  0.4944 -0.3918  0.0573
  230MOL0     O30231   5.103   7.136   8.192  0.2722  0.8491  0.0785
  230MOL0     C30232   4.999   7.100   8.282  0.1727 -0.0270 -0.6600
  230MOL0     C30233   4.976   7.180   8.395 -0.2239  0.2038 -0.1742
  230MOL0     C30234   4.882   7.151   8.497  0.7476  0.4488  0.1633
  230MOL0     C30235   4.819   7.030   8.485 -0.3423  0.2932  0.7837
  230MOL0     O30236   4.716   7.020   8.570  0.2079  0.1548  0.1231
  230MOL0     C30237   4.625   6.909   8.558  0.7473  0.5698  0.1858
  230MOL0     C30238   4.496   6.975   8.507  0.0376  0.5070 -0.2641
  230MOL0     C30239   4.370   6.896   8.549  1.1036 -0.2512 -0.0255
  230MOL0     C30240   4.231   6.972   8.518 -0.3446 -0.7029  0.6872
  230MOL0     C30241   4.104   6.880   8.529  0.3218  0.2855 -0.0281
  230MOL0     C30242   4.002   6.931   8.440  0.1256 -0.1533 -0.2035
  230MOL0     C30243   3.878   6.837   8.445 -1.2295 -0.2367  0.3462
  230MOL0     C30244   3.781   6.888   8.334  0.1512 -0.4265 -0.1921
  230MOL0     N30245   3.673   6.793   8.332 -0.2387  0.0533 -0.3138
  230MOL0     C30246   3.580   6.777   8.431 -0.4947 -0.3466 -0.2316
  230MOL0     C30247   3.495   6.689   8.384  1.1989  0.0328  0.2764
  230MOL0     C30248   3.373   6.661   8.462 -0.5129  1.3595 -0.7956
  230MOL0     C30249   3.371   6.519   8.547 -0.6980 -0.4945 -0.0737
  230MOL0     C30250   3.241   6.498   8.624 -0.7169 -0.1069  0.0843
  230MOL0     C30251   3.125   6.463   8.527 -0.1067 -0.1003 -0.1542
  230MOL0     O30252   3.134   6.329   8.506  0.0140  0.3228  0.0450
  230MOL0     C30253   3.021   6.262   8.462  0.2449 -0.2412 -0.2278
  230MOL0     C30254   2.996   6.132   8.497  0.7234 -0.1457  0.0622
  230MOL0     C30255   2.872   6.073   8.486  0.3950  0.6085 -0.2022
  230MOL0     C30256   2.760   6.135   8.428 -0.2481  0.8628  0.2455
  230MOL0     C30257   2.631   6.071   8.397  0.4449  0.3902 -0.0825
  230MOL0     O30258   2.533   6.148   8.334 -0.2394 -0.0412 -0.0769
  230MOL0     C30259   2.423   6.079   8.285 -0.3364  0.6456 -0.2291
  230MOL0     C30260   2.445   5.988   8.186  0.3568  1.1426 -0.1654
  230MOL0     C30261   2.346   5.910   8.119 -0.3884  0.8528  0.8882
  230MOL0     C30262   2.218   5.903   8.165 -0.0886 -0.5500  0.5262
  230MOL0     O30263   2.114   5.833   8.107  0.1424  0.3908 -0.0069
  230MOL0     C30264   1.991   5.809   8.180  0.5368  0.2247  1.1882
  230MOL0     C30265   1.889   5.735   8.102  0.3818  0.2246  0.7833
  230MOL0     C30266   1.741   5.750   8.160 -0.7363 -0.0534  0.1043
  230MOL0     C30267   1.625   5.696   8.086 -0.2251 -0.0521 -0.2872
  230MOL0     C30268   1.591   5.556   8.126 -0.8030  0.4232  0.4285
  230MOL0     C30269   1.467   5.496   8.073  0.3630  0.1199  0.7435
  230MOL0     C30270   1.340   5.552   8.144 -0.3081  0.0443 -0.4787
  230MOL0     C30271   1.220   5.469   8.132  0.8800 -0.0875  0.5343
  230MOL0    Cl30272   1.227   5.307   8.222 -0.3981 -0.2321 -0.5153
  230MOL0     C30273   2.191   5.986   8.277 -0.1055  0.0744 -0.4459
  230MOL0     C30274   2.287   6.077   8.327 -0.2277 -0.5353  0.2560
  230MOL0     O30275   2.616   5.953   8.432 -1.0242 -0.0497 -0.0915
  230MOL0     C30276   2.788   6.262   8.372 -0.2047 -0.7959 -0.0298
  230MOL0     C30277   2.915   6.327   8.393 -0.6438  0.6749 -0.6859
  230MOL0     N30278   3.532   6.641   8.260  0.0537  0.5695  0.5559
  230MOL0     N30279   3.641   6.711   8.236  0.3810 -0.4451 -0.3293
  230MOL0     C30280   4.849   6.939   8.378 -0.5687 -0.7241  0.1464
  230MOL0     C30281   4.936   6.978   8.273 -0.5782  0.0137 -0.4450
  230MOL0     C30282   5.190   7.176   7.984 -0.2909 -0.2561  0.1923
  230MOL0     C30283   5.317   7.144   8.029  0.8100 -0.5491 -1.3923
  230MOL0     C30284   5.417   7.134   7.939 -0.0384 -0.0951 -0.1117
  230MOL0     C30285   5.406   7.176   7.806  0.1140  0.5305  0.0219
  230MOL0     O30286   5.515   7.193   7.724 -0.0811  1.6294 -0.0137
  230MOL0     C30287   5.532   7.083   7.621  0.6769 -0.1516  0.6370
  230MOL0     C30288   5.406   6.994   7.595  1.1750 -0.1136  0.3317
  230MOL0     C30289   5.416   6.892   7.476  0.3129 -0.8335  0.4558
  230MOL0     C30290   5.280   6.853   7.434  0.1414  0.8006  0.3993
  230MOL0     C30291   5.283   6.739   7.339  0.4832 -0.1540 -0.2724
  230MOL0     C30292   5.260   6.637   7.268 -0.1568 -0.0761 -0.7751
  230MOL0     C30293   5.282   7.226   7.765  0.4739  0.6322 -0.2297
  230MOL0     C30294   5.171   7.218   7.853  0.2662 -0.2598 -0.4455
  230MOL0     H30295   5.022   7.276   8.415 -0.7317  0.5521 -0.6671
  230MOL0     H30296   4.851   7.201   8.588 -3.9950 -0.6010 -0.6035
  230MOL0     H30297   4.615   6.861   8.656  0.3842 -0.9486 -0.5617
  230MOL0     H30298   4.666   6.825   8.501  2.3183  0.7053  1.0609
  230MOL0     H30299   4.498   6.990   8.399 -1.5347 -1.1876 -0.5686
  230MOL0     H30300   4.493   7.079   8.542  0.7754  0.5245 -0.2223
  230MOL0     H30301   4.363   6.885   8.657  1.5681 -0.1152  0.0209
  230MOL0     H30302   4.369   6.797   8.504 -0.7020 -0.6629  0.8221
  230MOL0     H30303   4.213   7.050   8.592 -3.1963 -0.2223 -0.3772
  230MOL0     H30304   4.249   7.009   8.416  2.3029  0.4913  1.4992
  230MOL0     H30305   4.067   6.865   8.631 -2.7300 -1.1368 -1.2083
  230MOL0     H30306   4.124   6.778   8.493 -0.6171 -0.1207  0.5718
  230MOL0     H30307   4.035   6.935   8.336 -2.6924  2.3197 -1.1541
  230MOL0     H30308   3.973   7.036   8.456 -1.6333 -0.6786  0.2586
  230MOL0     H30309   3.911   6.735   8.421  1.1220  0.0025  2.1065
  230MOL0     H30310   3.830   6.833   8.543 -0.5726  0.1402  0.6933
  230MOL0     H30311   3.829   6.908   8.238  3.6604  1.8709  1.8115
  230MOL0     H30312   3.746   6.987   8.364  3.2241  1.0364 -1.0116
  230MOL0     H30313   3.571   6.837   8.521  1.2294 -0.8748  0.3214
  230MOL0     H30314   3.300   6.664   8.381  0.5092  1.8926 -1.7209
  230MOL0     H30315   3.353   6.741   8.533 -2.7764 -1.7098  2.3545
  230MOL0     H30316   3.458   6.522   8.614  0.0532 -1.4718 -0.9842
  230MOL0     H30317   3.385   6.432   8.482 -2.2644 -0.0103 -1.1178
  230MOL0     H30318   3.241   6.421   8.701 -1.1390  0.1660  0.3633
  230MOL0     H30319   3.221   6.594   8.673  2.9170  0.7183  0.2372
  230MOL0     H30320   3.139   6.514   8.432 -2.0036 -1.2141 -1.0918
  230MOL0     H30321   3.026   6.483   8.570 -0.2381 -2.5353  0.8652
  230MOL0     H30322   3.074   6.070   8.540 -0.6391  0.3043  3.4629
  230MOL0     H30323   2.863   5.975   8.532  2.0829 -0.2013 -1.5016
  230MOL0     H30324   2.549   5.983   8.155  0.1305  0.9196 -0.9204
  230MOL0     H30325   2.380   5.849   8.036  0.9147 -0.6510  2.4488
  230MOL0     H30326   1.949   5.909   8.183  1.9001  1.0771 -2.7335
  230MOL0     H30327   2.001   5.763   8.279 -0.3031 -1.3749  0.5594
  230MOL0     H30328   1.906   5.627   8.105 -1.2076 -0.0982 -0.5373
  230MOL0     H30329   1.887   5.762   7.996 -0.7561  0.6357  0.8906
  230MOL0     H30330   1.714   5.856   8.162  0.8580  0.3860 -0.1371
  230MOL0     H30331   1.742   5.713   8.262 -1.4805  0.0130  0.1351
  230MOL0     H30332   1.535   5.756   8.096 -2.6916 -3.0382 -2.4988
  230MOL0     H30333   1.642   5.709   7.979  1.2078  0.5278 -0.0156
  230MOL0     H30334   1.578   5.546   8.234 -1.3010 -1.4408  0.2344
  230MOL0     H30335   1.674   5.496   8.088 -1.0441  0.1388  0.3431
  230MOL0     H30336   1.473   5.388   8.084  3.9242  0.2248  0.9122
  230MOL0     H30337   1.459   5.524   7.967  1.0274  3.0769  1.3769
  230MOL0     H30338   1.367   5.550   8.250 -0.0558  0.7399 -0.5217
  230MOL0     H30339   1.301   5.651   8.117 -0.9876 -0.4981 -1.5649
  230MOL0     H30340   1.194   5.447   8.028  2.4355 -3.6109  0.7682
  230MOL0     H30341   1.137   5.532   8.168  1.1415 -0.2767  1.4853
  230MOL0     H30342   2.098   5.979   8.333  0.3669 -0.8533  0.2517
  230MOL0     H30343   2.261   6.133   8.417  0.4340 -1.6886  1.2054
  230MOL0     H30344   2.702   6.321   8.340 -1.2229 -2.1143  0.2158
  230MOL0     H30345   2.920   6.427   8.351 -0.3212  0.7185 -0.5486
  230MOL0     H30346   4.816   6.837   8.362  2.7383 -1.9852  0.6014
  230MOL0     H30347   4.977   6.906   8.203  2.1222  1.5535 -0.5608
  230MOL0     H30348   5.329   7.118   8.134 -3.5885  1.2959 -0.1821
  230MOL0     H30349   5.507   7.087   7.979 -1.8983 -4.2188 -0.2696
  230MOL0     H30350   5.621   7.024   7.648  0.7934 -1.5395 -2.3949
  230MOL0     H30351   5.566   7.135   7.531 -0.8610 -1.1207 -0.5480
  230MOL0     H30352   5.384   6.949   7.692 -2.2591  2.0136  0.7049
  230MOL0     H30353   5.318   7.054   7.571  0.1343 -1.5712  0.3674
  230MOL0     H30354   5.468   6.803   7.511 -0.9637 -1.0719  1.8065
  230MOL0     H30355   5.472   6.939   7.394  1.1516 -0.8276  1.0082
  230MOL0     H30356   5.230   6.826   7.527 -1.3405 -0.5038 -0.7230
  230MOL0     H30357   5.223   6.927   7.376  0.2232 -1.0809 -2.3060
  230MOL0     H30358   5.244   6.554   7.201  0.0130  0.0740 -1.0025
  230MOL0     H30359   5.263   7.266   7.666 -0.2447  0.5291 -0.1383
  230MOL0     H30360   5.072   7.237   7.812  0.7911 -0.2825 -1.7978
  231MOL0     O30361   6.615   2.853   1.688 -0.4754  0.6540 -0.1843
  231MOL0     C30362   6.691   2.944   1.700  0.4930  0.7292 -0.6745
  231MOL0     O30363   6.659   3.069   1.725 -0.4358 -0.6137 -1.0446
  231MOL0     C30364   6.529   3.091   1.765 -0.8135 -0.2727  0.6085
  231MOL0     C30365   6.435   3.132   1.669 -0.6402  0.7078 -0.2005
  231MOL0     C30366   6.316   3.192   1.699  0.2589 -0.6934 -0.9346
  231MOL0     C30367   6.281   3.206   1.836  0.0688  0.4617 -0.4093
  231MOL0     O30368   6.168   3.265   1.889 -0.7230 -0.1953  0.4340
  231MOL0     C30369   6.057   3.295   1.806 -0.3084 -0.0010 -0.0110
  231MOL0     C30370   5.953   3.368   1.893  0.8897  0.2570  1.1695
  231MOL0     C30371   6.010   3.470   1.982  0.8701  0.7161  0.1852
  231MOL0     C30372   5.909   3.559   2.060 -0.3815  0.0262  0.2908
  231MOL0     C30373   5.856   3.678   1.974  0.5609  0.1656  0.3663
  231MOL0     C30374   5.800   3.795   2.058 -0.2318  0.3924  0.7540
  231MOL0     C30375   5.763   3.909   1.972  0.7017  0.5041 -0.2843
  231MOL0     C30376   5.611   3.929   1.977 -0.8789  0.2392 -0.3438
  231MOL0     N30377   5.564   4.016   1.871 -0.1465  0.3042 -0.3876
  231MOL0     C30378   5.490   3.970   1.761 -0.3254  0.7909 -0.3174
  231MOL0     C30379   5.487   4.075   1.682  0.2765  0.4671 -0.3824
  231MOL0     C30380   5.430   4.087   1.540  0.1999  0.9857  0.0645
  231MOL0     C30381   5.292   4.143   1.558  0.1532  0.9263  0.2513
  231MOL0     C30382   5.224   4.176   1.415  0.5391  0.6256  0.3294
  231MOL0     C30383   5.095   4.260   1.438 -0.7163  0.6397 -0.5505
  231MOL0     O30384   5.003   4.174   1.504  0.0419  0.3005 -0.4902
  231MOL0     C30385   4.878   4.217   1.515  0.5572 -0.7417 -1.2817
  231MOL0     C30386   4.788   4.124   1.566  0.2008  0.4918  0.3557
  231MOL0     C30387   4.653   4.161   1.582  0.0551 -0.3188 -0.0152
  231MOL0     C30388   4.599   4.288   1.561 -0.0883  1.0424 -0.6285
  231MOL0     C30389   4.459   4.331   1.591 -0.7141  0.3456 -0.5464
  231MOL0     O30390   4.437   4.468   1.582  0.8085  0.4422  0.0609
  231MOL0     C30391   4.309   4.516   1.603 -1.1158  0.3047 -0.2470
  231MOL0     C30392   4.227   4.494   1.721 -0.7786 -0.2241 -0.0394
  231MOL0     C30393   4.100   4.558   1.728  0.5041 -0.1030  0.2602
  231MOL0     C30394   4.056   4.640   1.621  0.4814 -0.7699  0.0042
  231MOL0     O30395   3.929   4.695   1.608  0.4618  0.3330  0.2180
  231MOL0     C30396   3.813   4.643   1.675  0.3403 -0.0092 -0.1923
  231MOL0     C30397   3.768   4.508   1.628 -0.0556  0.4548 -0.9721
  231MOL0     C30398   3.651   4.465   1.727  0.0421  0.3576 -0.7205
  231MOL0     C30399   3.519   4.541   1.702  0.0413  1.0986  0.4205
  231MOL0     C30400   3.414   4.481   1.789  0.4482 -0.5087 -0.8190
  231MOL0     C30401   3.287   4.569   1.811 -0.5899  0.4278 -0.1074
  231MOL0     C30402   3.187   4.499   1.893  0.4874  1.2208 -0.5991
  231MOL0     C30403   3.050   4.568   1.882 -0.3774 -0.0351  0.2332
  231MOL0    Cl30404   2.939   4.466   1.973 -0.2479 -0.4221  0.1486
  231MOL0     C30405   4.134   4.660   1.514 -0.6460  0.1755  0.6314
  231MOL0     C30406   4.257   4.600   1.502  0.3101  0.4399  0.5811
  231MOL0     O30407   4.376   4.241   1.623  0.9371  0.2536  0.0917
  231MOL0     C30408   4.689   4.374   1.501 -0.7837  1.1760  0.8212
  231MOL0     C30409   4.824   4.342   1.481  0.4653  0.1747  0.2065
  231MOL0     N30410   5.555   4.185   1.743  0.2999 -0.0056  0.2771
  231MOL0     N30411   5.598   4.147   1.850  0.3794  0.0130 -0.2095
  231MOL0     C30412   6.370   3.154   1.938  0.2844  0.1450  0.5802
  231MOL0     C30413   6.497   3.093   1.897 -0.0489  0.2450  0.2030
  231MOL0     C30414   6.831   2.909   1.702  0.9698 -0.5030  0.5746
  231MOL0     C30415   6.870   2.780   1.677  0.1112  0.7419  0.5140
  231MOL0     C30416   7.011   2.747   1.687  0.4045 -0.5767  0.8385
  231MOL0     C30417   7.107   2.843   1.716  0.0215  0.7932 -0.1592
  231MOL0     O30418   7.247   2.831   1.731  0.3825 -0.1500 -0.1875
  231MOL0     C30419   7.292   2.703   1.749  0.1349 -0.4645  0.1805
  231MOL0     C30420   7.437   2.712   1.775 -0.1812  0.5223 -0.2253
  231MOL0     C30421   7.495   2.573   1.823 -1.0062  0.3110 -0.0487
  231MOL0     C30422   7.629   2.600   1.891  0.4204 -0.2581  0.3574
  231MOL0     C30423   7.722   2.628   1.782  0.6396  0.1466 -0.9154
  231MOL0     C30424   7.808   2.654   1.701  0.2819 -0.5232  0.5094
  231MOL0     C30425   7.061   2.972   1.728 -0.0288  0.5489  0.0229
  231MOL0     C30426   6.927   3.002   1.718 -1.2486 -0.8677  0.1100
  231MOL0     H30427   6.475   3.115   1.570 -0.9873  0.8190 -0.3585
  231MOL0     H30428   6.246   3.228   1.624  0.8067  1.1253 -0.6332
  231MOL0     H30429   6.002   3.207   1.769 -2.4964  1.3614 -0.1415
  231MOL0     H30430   6.084   3.345   1.713 -1.4427 -1.0226 -0.9299
  231MOL0     H30431   5.895   3.294   1.948 -1.5021  1.8535  0.9366
  231MOL0     H30432   5.875   3.413   1.830 -0.2271 -1.8104  0.9844
  231MOL0     H30433   6.067   3.539   1.919 -1.2291  2.2642 -0.1406
  231MOL0     H30434   6.063   3.407   2.054 -0.6896  0.5347  1.2168
  231MOL0     H30435   5.825   3.493   2.080 -0.0145 -0.7963 -0.7798
  231MOL0     H30436   5.963   3.598   2.147  1.7917 -1.6403 -0.2089
  231MOL0     H30437   5.783   3.646   1.899  0.5922 -0.2977  0.5326
  231MOL0     H30438   5.941   3.706   1.912  0.7912 -3.0043 -0.8760
  231MOL0     H30439   5.862   3.822   2.144  1.7989 -1.5634 -0.0083
  231MOL0     H30440   5.713   3.748   2.104 -0.3413  0.4632  0.6213
  231MOL0     H30441   5.814   4.003   1.998 -0.5521  0.4555  2.7974
  231MOL0     H30442   5.781   3.892   1.865  2.4238 -1.0585  0.1980
  231MOL0     H30443   5.583   3.973   2.073 -0.1437 -0.7660  0.3439
  231MOL0     H30444   5.561   3.832   1.985 -0.5714  0.2046  1.6924
  231MOL0     H30445   5.458   3.872   1.729 -0.5003  0.5858  0.4545
  231MOL0     H30446   5.434   3.983   1.508  0.6888  0.0449  2.8900
  231MOL0     H30447   5.493   4.159   1.486  5.1737 -0.9459  2.5963
  231MOL0     H30448   5.311   4.230   1.620  0.9543 -0.6200  2.2788
  231MOL0     H30449   5.233   4.073   1.617 -0.6543  0.8327 -0.6462
  231MOL0     H30450   5.296   4.231   1.353 -0.4465  0.4181 -1.0526
  231MOL0     H30451   5.199   4.085   1.359  3.0702  0.3248 -0.4630
  231MOL0     H30452   5.049   4.300   1.347 -0.2799  0.7790 -0.7127
  231MOL0     H30453   5.118   4.344   1.504  0.3330  0.6987 -0.9746
  231MOL0     H30454   4.811   4.019   1.580 -1.9955 -0.2515 -1.0760
  231MOL0     H30455   4.589   4.085   1.626 -1.6352  1.7140  1.1970
  231MOL0     H30456   4.254   4.425   1.800  3.2885  1.0128 -0.1403
  231MOL0     H30457   4.038   4.534   1.814  2.6644 -3.8009  0.9682
  231MOL0     H30458   3.736   4.718   1.654 -1.3428 -1.9672 -1.3788
  231MOL0     H30459   3.837   4.645   1.781  1.4075 -1.1864 -0.3831
  231MOL0     H30460   3.845   4.432   1.641 -1.2178 -0.8549 -1.4484
  231MOL0     H30461   3.730   4.521   1.526 -0.8420  3.9866 -0.3799
  231MOL0     H30462   3.691   4.471   1.828 -0.1924 -0.7727 -0.5492
  231MOL0     H30463   3.635   4.358   1.717 -2.2869  0.1082  3.5059
  231MOL0     H30464   3.524   4.649   1.721  0.7715  0.8183  1.9725
  231MOL0     H30465   3.503   4.528   1.595  1.2040 -0.1546  0.3781
  231MOL0     H30466   3.449   4.448   1.888  0.7942 -2.6174 -1.5871
  231MOL0     H30467   3.371   4.394   1.738 -3.7965  0.1963  1.0680
  231MOL0     H30468   3.240   4.609   1.722 -0.5733  2.1262  0.6119
  231MOL0     H30469   3.336   4.650   1.866  1.3675  1.2544 -2.8905
  231MOL0     H30470   3.181   4.391   1.874 -0.3832  0.5870  2.7436
  231MOL0     H30471   3.213   4.519   1.997  2.4662  2.8990 -1.3540
  231MOL0     H30472   3.022   4.573   1.776 -0.7873 -0.3070  0.3283
  231MOL0     H30473   3.050   4.670   1.923 -4.8200 -0.0380  0.7364
  231MOL0     H30474   4.092   4.713   1.430  0.0700 -1.3432 -0.7462
  231MOL0     H30475   4.313   4.614   1.410  0.8500  1.3560  1.0346
  231MOL0     H30476   4.660   4.472   1.465 -0.2470  0.9386 -0.3284
  231MOL0     H30477   4.883   4.430   1.455 -1.2582  1.5818  0.9269
  231MOL0     H30478   6.338   3.142   2.041 -0.5453 -1.7099  0.1345
  231MOL0     H30479   6.562   3.049   1.971  1.0886  0.2002 -0.7866
  231MOL0     H30480   6.804   2.696   1.658  0.7265  0.5226 -0.8216
  231MOL0     H30481   7.043   2.644   1.677  0.3847 -0.6561  1.5697
  231MOL0     H30482   7.280   2.639   1.661  0.9417 -0.9945  0.4481
  231MOL0     H30483   7.235   2.663   1.834 -1.2066 -2.8891 -1.7143
  231MOL0     H30484   7.491   2.757   1.691 -1.3826  1.8703 -0.3178
  231MOL0     H30485   7.448   2.782   1.859 -6.2046 -0.9043  2.2505
  231MOL0     H30486   7.515   2.512   1.734  1.0990 -0.8954  1.1785
  231MOL0     H30487   7.435   2.515   1.893  1.6912  2.0341  4.0520
  231MOL0     H30488   7.625   2.681   1.964  1.2098 -1.5968  1.9332
  231MOL0     H30489   7.680   2.520   1.945  1.1544  0.5710  0.9077
  231MOL0     H30490   7.895   2.677   1.643  1.3682 -1.4985  1.7112
  231MOL0     H30491   7.119   3.063   1.736 -1.2923  1.3492  0.4099
  231MOL0     H30492   6.910   3.108   1.733  1.7587 -0.1377 -1.0112
  232MOL0     O30493   5.357   1.233  11.298 -0.4092 -0.1084  0.7752
  232MOL0     C30494   5.426   1.223  11.394  0.0634  0.1939 -0.2396
  232MOL0     O30495   5.376   1.193  11.514  0.6062  0.3818 -0.2634
  232MOL0     C30496   5.240   1.167  11.521 -0.0931  0.7716  0.5424
  232MOL0     C30497   5.201   1.041  11.482  0.7863  0.1002 -0.0779
  232MOL0     C30498   5.065   0.997  11.499 -0.4497 -0.6893  0.3936
  232MOL0     C30499   4.963   1.080  11.556  0.2706  0.0065 -0.0657
  232MOL0     O30500   4.832   1.046  11.579  0.6947 -0.3256  0.5817
  232MOL0     C30501   4.772   0.938  11.489 -0.1073 -0.1141  0.3767
  232MOL0     C30502   4.636   0.898  11.533  0.2166 -0.6138 -1.8902
  232MOL0     C30503   4.536   1.008  11.585 -0.5273 -0.1599 -0.3147
  232MOL0     C30504   4.516   1.112  11.478  0.0665 -0.5382  0.3764
  232MOL0     C30505   4.436   1.230  11.535 -0.4315 -0.3760 -0.1238
  232MOL0     C30506   4.388   1.333  11.426  0.3656  0.0768 -0.1220
  232MOL0     C30507   4.317   1.458  11.482  0.3990 -0.0538 -0.2161
  232MOL0     C30508   4.257   1.521  11.357 -0.4833 -0.1620  0.7059
  232MOL0     N30509   4.145   1.612  11.394  0.3405 -0.0293  0.1765
  232MOL0     C30510   4.023   1.588  11.447  0.1882 -0.6339  1.2100
  232MOL0     C30511   3.953   1.705  11.423 -0.1281  0.3322 -0.1821
  232MOL0     C30512   3.812   1.716  11.450 -0.7254 -0.1904 -0.2601
  232MOL0     C30513   3.738   1.619  11.352 -0.2425 -0.6562 -0.2660
  232MOL0     C30514   3.582   1.608  11.377  0.0713 -0.3449 -0.5659
  232MOL0     C30515   3.517   1.512  11.279 -1.0061 -0.1446 -0.5687
  232MOL0     O30516   3.415   1.574  11.202 -0.2925  0.3222  0.6064
  232MOL0     C30517   3.288   1.542  11.232  0.2001  0.3013  0.5619
  232MOL0     C30518   3.245   1.486  11.351 -0.1463 -0.4510  0.2368
  232MOL0     C30519   3.105   1.475  11.379  0.8438  0.1773  0.3424
  232MOL0     C30520   3.007   1.503  11.273  0.1640  0.0876 -0.3201
  232MOL0     C30521   2.859   1.501  11.300 -0.2044  0.3811  0.1553
  232MOL0     O30522   2.783   1.547  11.198  0.1408  0.3740 -0.7083
  232MOL0     C30523   2.647   1.564  11.242 -0.9927  0.8037 -0.6928
  232MOL0     C30524   2.553   1.485  11.184 -0.2146 -0.6178 -0.3631
  232MOL0     C30525   2.414   1.502  11.205  0.0754  0.9695  0.5975
  232MOL0     C30526   2.364   1.608  11.285  0.1204 -0.4223 -0.6916
  232MOL0     O30527   2.234   1.653  11.300 -0.3760 -0.5284  0.7150
  232MOL0     C30528   2.146   1.605  11.201 -0.2225  0.2426  0.6614
  232MOL0     C30529   2.013   1.673  11.192  0.0469  0.3172 -0.1856
  232MOL0     C30530   1.916   1.649  11.308  0.4430  0.0758 -0.0792
  232MOL0     C30531   1.775   1.713  11.268 -0.6772  0.2954  0.1983
  232MOL0     C30532   1.668   1.708  11.369 -0.2368 -0.1412 -0.1882
  232MOL0     C30533   1.537   1.756  11.307  1.0377 -0.4055  0.2759
  232MOL0     C30534   1.424   1.723  11.405  1.1514 -0.2587 -0.6140
  232MOL0     C30535   1.285   1.761  11.360 -0.3202  0.2200 -0.4281
  232MOL0    Cl30536   1.175   1.722  11.498 -0.3889  0.0994  0.2864
  232MOL0     C30537   2.465   1.685  11.354 -0.1535 -0.2403 -0.2747
  232MOL0     C30538   2.601   1.662  11.334 -0.6689 -0.1250 -0.1393
  232MOL0     O30539   2.822   1.478  11.414  0.0569 -0.1310 -0.7538
  232MOL0     C30540   3.059   1.555  11.149  0.3319  0.5795 -0.4980
  232MOL0     C30541   3.196   1.570  11.136 -0.3573  0.8068 -0.3154
  232MOL0     N30542   4.035   1.794  11.360  0.4278  0.5878  0.1565
  232MOL0     N30543   4.148   1.735  11.335  0.1691 -0.3625  0.0361
  232MOL0     C30544   5.015   1.200  11.611 -0.3149 -0.5158  0.1066
  232MOL0     C30545   5.155   1.242  11.597  1.0009  0.0381 -0.0922
  232MOL0     C30546   5.567   1.236  11.380  0.0972 -1.1889  0.0652
  232MOL0     C30547   5.632   1.285  11.494  0.5941  0.0976  0.1827
  232MOL0     C30548   5.765   1.306  11.480  0.0629  0.0070 -0.3852
  232MOL0     C30549   5.834   1.279  11.361  0.1726 -0.3557 -0.5776
  232MOL0     O30550   5.970   1.306  11.352 -0.4850  0.9135  0.0593
  232MOL0     C30551   6.014   1.440  11.384  0.5085 -0.4196 -0.0701
  232MOL0     C30552   5.973   1.538  11.270  0.0045  0.0750  0.5424
  232MOL0     C30553   6.041   1.490  11.142 -0.9197  0.1386 -0.2183
  232MOL0     C30554   6.188   1.465  11.146 -0.6546 -0.3212  0.3415
  232MOL0     C30555   6.262   1.578  11.207 -1.1417  0.3713 -0.5318
  232MOL0     C30556   6.314   1.674  11.250  0.3247 -0.2085 -0.0282
  232MOL0     C30557   5.769   1.230  11.251  0.9844  0.6221  0.7742
  232MOL0     C30558   5.633   1.195  11.261 -0.1170 -0.5034  1.3464
  232MOL0     H30559   5.281   0.982  11.439 -0.7565 -2.5974  0.5333
  232MOL0     H30560   5.046   0.900  11.455  1.7957 -1.8488  1.8423
  232MOL0     H30561   4.835   0.849  11.486 -2.5159 -1.8889  0.0675
  232MOL0     H30562   4.757   0.975  11.387  1.0238  0.0207  0.2437
  232MOL0     H30563   4.649   0.828  11.615  1.9124  4.0640  2.3326
  232MOL0     H30564   4.584   0.847  11.451  0.7210 -2.4180 -1.1355
  232MOL0     H30565   4.581   1.054  11.673 -1.3673 -0.0208  0.0540
  232MOL0     H30566   4.443   0.956  11.609  0.1342 -1.3054 -0.2003
  232MOL0     H30567   4.616   1.141  11.444  0.3155 -2.8450 -1.0910
  232MOL0     H30568   4.471   1.061  11.393  1.7225 -1.7513  0.1633
  232MOL0     H30569   4.491   1.278  11.617 -0.0739  0.3435 -0.7696
  232MOL0     H30570   4.344   1.194  11.581  0.8279 -2.9045  0.6504
  232MOL0     H30571   4.342   1.268  11.351  0.3242  1.7328 -1.5923
  232MOL0     H30572   4.478   1.375  11.380 -0.1262 -0.7542 -1.9161
  232MOL0     H30573   4.241   1.433  11.557 -4.4115  2.3258 -3.6948
  232MOL0     H30574   4.379   1.537  11.525 -0.1536  0.6994 -0.7672
  232MOL0     H30575   4.209   1.449  11.291  0.1377  0.4746 -0.4785
  232MOL0     H30576   4.337   1.578  11.308 -1.6112 -0.2618 -1.3551
  232MOL0     H30577   3.995   1.490  11.483  6.1957 -4.0176 -1.7005
  232MOL0     H30578   3.773   1.816  11.430 -0.6974 -0.6889 -3.2126
  232MOL0     H30579   3.794   1.669  11.547  1.0440 -0.4823 -0.0369
  232MOL0     H30580   3.781   1.519  11.364  2.5551  0.6679  2.1485
  232MOL0     H30581   3.756   1.656  11.251  1.5876  0.0575  0.2805
  232MOL0     H30582   3.562   1.578  11.480  2.5365 -1.5177 -0.3761
  232MOL0     H30583   3.533   1.706  11.371 -2.4739 -1.4827  0.1770
  232MOL0     H30584   3.490   1.417  11.327  0.6000  0.1008  0.9335
  232MOL0     H30585   3.593   1.505  11.200 -1.7012  1.1733 -1.3899
  232MOL0     H30586   3.311   1.463  11.434 -0.2048  3.9965  1.7699
  232MOL0     H30587   3.062   1.430  11.468 -0.6541 -2.8055 -1.7038
  232MOL0     H30588   2.582   1.403  11.120 -2.5640 -1.3513 -0.5925
  232MOL0     H30589   2.351   1.428  11.155 -1.0625  1.1261  1.7442
  232MOL0     H30590   2.133   1.500  11.229 -2.5315  0.2555 -0.1688
  232MOL0     H30591   2.181   1.607  11.097 -0.0983 -1.2002  0.6440
  232MOL0     H30592   1.956   1.646  11.102 -0.2318  0.5586 -0.0832
  232MOL0     H30593   2.033   1.780  11.184  1.7341 -0.0585 -1.3697
  232MOL0     H30594   1.954   1.712  11.389 -2.9720  1.5866  0.5030
  232MOL0     H30595   1.910   1.544  11.337 -1.9161  0.1770  0.0191
  232MOL0     H30596   1.803   1.818  11.254  2.0765 -0.4535 -0.4464
  232MOL0     H30597   1.741   1.675  11.171 -1.0514 -1.7815  1.1049
  232MOL0     H30598   1.683   1.764  11.462 -2.1420 -3.4763  2.3575
  232MOL0     H30599   1.651   1.604  11.398 -3.8445  0.1227 -0.9297
  232MOL0     H30600   1.515   1.699  11.216 -0.5192  0.0221  0.3529
  232MOL0     H30601   1.530   1.864  11.289 -3.4396  0.5333  5.2520
  232MOL0     H30602   1.418   1.617  11.430 -1.0468 -0.4893 -1.8893
  232MOL0     H30603   1.444   1.782  11.495  0.8104  0.4476 -0.9913
  232MOL0     H30604   1.262   1.695  11.276  1.7806  0.7556 -1.4839
  232MOL0     H30605   1.280   1.866  11.332  2.6507 -0.5670 -4.9704
  232MOL0     H30606   2.439   1.777  11.405 -0.4118 -0.5287  0.1242
  232MOL0     H30607   2.671   1.729  11.384 -0.0521 -2.3180  2.1978
  232MOL0     H30608   2.991   1.559  11.064 -0.8654 -2.7612  0.1222
  232MOL0     H30609   3.234   1.611  11.043 -0.8035  2.6680  0.2805
  232MOL0     H30610   4.936   1.255  11.661 -0.2387 -1.8300  1.7281
  232MOL0     H30611   5.206   1.327  11.641  1.3018  0.6302 -1.5049
  232MOL0     H30612   5.568   1.313  11.577 -2.1982  0.2372 -1.8582
  232MOL0     H30613   5.825   1.331  11.566  0.1465 -2.8449  0.4826
  232MOL0     H30614   6.123   1.449  11.396  0.8589  0.6847 -3.0611
  232MOL0     H30615   5.966   1.472  11.476 -2.9591  2.5197 -2.6351
  232MOL0     H30616   5.866   1.548  11.250  0.2112  1.4930  0.0290
  232MOL0     H30617   6.004   1.639  11.299 -0.1107  0.5096 -0.7873
  232MOL0     H30618   6.016   1.562  11.064 -0.6939 -0.9183 -1.3098
  232MOL0     H30619   5.987   1.403  11.103 -0.4426 -0.4042  0.3109
  232MOL0     H30620   6.206   1.364  11.185  3.5270 -1.3536 -3.3875
  232MOL0     H30621   6.225   1.458  11.043 -0.5159  2.0289  0.1836
  232MOL0     H30622   6.360   1.765  11.282 -1.9116  0.7568  0.6668
  232MOL0     H30623   5.826   1.214  11.160  2.6532 -1.4582  2.0970
  232MOL0     H30624   5.583   1.157  11.172  1.3938 -1.3047  0.8041
  233MOL0     O30625  11.265  10.916   1.917  0.0704 -0.7519 -0.2070
  233MOL0     C30626  11.334  10.992   1.851  1.1292  1.0999  0.1386
  233MOL0     O30627  11.305  11.122   1.806 -0.0914 -0.9309  0.2982
  233MOL0     C30628  11.184  11.184   1.827  0.1709  0.3012 -0.0259
  233MOL0     C30629  11.168  11.305   1.756  0.1013 -0.0195 -0.0267
  233MOL0     C30630  11.044  11.371   1.770  0.2028  0.0022 -0.6131
  233MOL0     C30631  10.931  11.309   1.834  0.2869  0.3498 -0.0596
  233MOL0     O30632  10.807  11.374   1.833 -0.5160  0.4522  0.8719
  233MOL0     C30633  10.706  11.289   1.784 -0.3878 -0.8869  0.4194
  233MOL0     C30634  10.583  11.364   1.732  0.5664 -0.3972 -0.1280
  233MOL0     C30635  10.457  11.281   1.730  0.8954  1.1818  0.7552
  233MOL0     C30636  10.323  11.348   1.689  0.9599 -1.3402 -0.6930
  233MOL0     C30637  10.212  11.244   1.676 -0.2841  0.3272  0.6446
  233MOL0     C30638  10.159  11.178   1.799  0.1474 -0.5353 -0.6731
  233MOL0     C30639  10.124  11.269   1.917  0.1525 -0.7434 -0.4556
  233MOL0     C30640   9.999  11.360   1.889 -0.4670  0.3604 -0.3691
  233MOL0     N30641   9.935  11.417   2.006  0.2775 -0.4227 -0.0167
  233MOL0     C30642   9.820  11.482   2.006  0.1227 -0.6653  0.2846
  233MOL0     C30643   9.824  11.552   2.123  0.7590 -0.3167  0.3776
  233MOL0     C30644   9.716  11.644   2.171 -0.6155  0.1779  0.1358
  233MOL0     C30645   9.732  11.697   2.324  0.2584 -0.0050 -0.4632
  233MOL0     C30646   9.633  11.817   2.349  0.1077 -0.4115 -0.4483
  233MOL0     C30647   9.481  11.807   2.302 -1.0367  0.0886  0.0723
  233MOL0     O30648   9.428  11.691   2.369 -0.1744 -0.1370 -0.1243
  233MOL0     C30649   9.294  11.661   2.352 -0.1197 -0.0055  0.0016
  233MOL0     C30650   9.208  11.724   2.258 -1.0455  0.4873 -0.4266
  233MOL0     C30651   9.085  11.665   2.235  0.0148  0.8745 -0.7315
  233MOL0     C30652   9.039  11.549   2.306 -0.2405 -0.0095  0.7592
  233MOL0     C30653   8.898  11.499   2.285  0.1719  0.3372 -0.4102
  233MOL0     O30654   8.851  11.397   2.364  0.0254  0.0631 -0.4861
  233MOL0     C30655   8.718  11.358   2.347 -0.0556  0.4744  0.3129
  233MOL0     C30656   8.622  11.405   2.443 -0.0168  0.1974  0.2517
  233MOL0     C30657   8.495  11.371   2.427  0.2429  0.1117  1.2823
  233MOL0     C30658   8.462  11.285   2.320  0.3835 -0.8041  0.1185
  233MOL0     O30659   8.325  11.264   2.308  0.0795 -0.4002 -0.4444
  233MOL0     C30660   8.266  11.346   2.202 -0.2876  0.2457  0.7281
  233MOL0     C30661   8.167  11.450   2.256  0.1855  0.0636  0.4870
  233MOL0     C30662   8.121  11.540   2.142 -0.3068  0.7542 -0.1752
  233MOL0     C30663   8.022  11.642   2.210  0.5123  0.4325 -0.3873
  233MOL0     C30664   7.966  11.744   2.113 -0.0401 -0.1007  0.3788
  233MOL0     C30665   7.846  11.692   2.019 -1.3820 -0.6175  0.1746
  233MOL0     C30666   7.724  11.784   2.029 -0.1557 -0.4256  0.3416
  233MOL0     C30667   7.653  11.779   2.163 -0.4016  0.0798 -0.6382
  233MOL0    Cl30668   7.515  11.884   2.180  0.3885 -0.2563 -0.1792
  233MOL0     C30669   8.555  11.238   2.230  0.4335 -0.1464 -0.4493
  233MOL0     C30670   8.684  11.265   2.246  1.0472 -0.4128  0.5031
  233MOL0     O30671   8.836  11.556   2.197  0.3569 -0.3120  0.1613
  233MOL0     C30672   9.126  11.478   2.392  0.1069 -0.2790 -0.2295
  233MOL0     C30673   9.252  11.542   2.409 -0.5857  0.0044 -0.6431
  233MOL0     N30674   9.926  11.507   2.206  0.4871  1.1091 -0.1429
  233MOL0     N30675   9.985  11.422   2.133 -0.1715  0.0160  1.0418
  233MOL0     C30676  10.954  11.193   1.908 -0.1586  0.8859 -0.3774
  233MOL0     C30677  11.081  11.134   1.907 -1.1418  0.8792  0.4420
  233MOL0     C30678  11.469  10.944   1.803 -0.5390  0.4922 -1.0300
  233MOL0     C30679  11.518  10.980   1.666 -0.4651  0.4076 -0.8192
  233MOL0     C30680  11.641  10.933   1.625 -0.2615  0.7273  0.2253
  233MOL0     C30681  11.723  10.855   1.715 -0.5542  0.5594  0.0938
  233MOL0     O30682  11.844  10.810   1.684 -0.8696  0.3610  0.0013
  233MOL0     C30683  11.908  10.843   1.557 -0.2629  0.4476  0.5274
  233MOL0     C30684  12.053  10.793   1.559 -0.6415 -0.0249 -1.0489
  233MOL0     C30685  12.055  10.652   1.604  0.7364 -0.1648  0.5084
  233MOL0     C30686  12.134  10.550   1.515  0.2006 -0.8927  0.2972
  233MOL0     C30687  12.277  10.597   1.507  0.8127 -0.1898 -0.5621
  233MOL0     C30688  12.388  10.641   1.500  0.5181  0.0059 -0.0658
  233MOL0     C30689  11.667  10.815   1.835  0.5442 -0.1265 -0.4512
  233MOL0     C30690  11.549  10.859   1.882  0.2024 -0.1086  0.2645
  233MOL0     H30691  11.242  11.342   1.686  2.1067 -2.2042  0.8001
  233MOL0     H30692  11.018  11.462   1.717 -2.8136 -0.0284  0.6458
  233MOL0     H30693  10.661  11.222   1.857 -3.4410 -1.8365 -2.1209
  233MOL0     H30694  10.740  11.239   1.693  2.5936  2.8749 -0.8160
  233MOL0     H30695  10.600  11.404   1.632 -0.5311 -3.7867 -1.8164
  233MOL0     H30696  10.578  11.450   1.800  2.0515  1.6932 -2.4912
  233MOL0     H30697  10.444  11.239   1.830  1.1920  0.1498  0.3744
  233MOL0     H30698  10.465  11.194   1.663 -1.9099 -0.8151  2.7491
  233MOL0     H30699  10.291  11.433   1.750 -2.3956 -1.7049 -1.7492
  233MOL0     H30700  10.340  11.397   1.593  0.8222 -1.2404 -0.6657
  233MOL0     H30701  10.251  11.158   1.620  1.4901  2.2352 -1.2047
  233MOL0     H30702  10.129  11.278   1.613 -0.9583 -2.0216  0.1601
  233MOL0     H30703  10.235  11.106   1.831  0.3182  0.0952  0.3870
  233MOL0     H30704  10.076  11.115   1.767  0.3024 -0.7270 -0.7006
  233MOL0     H30705  10.110  11.197   1.998  0.1599  0.2257  0.4318
  233MOL0     H30706  10.203  11.339   1.948 -3.0923  2.1837  2.1233
  233MOL0     H30707   9.928  11.294   1.838  0.6305 -2.6741  1.7234
  233MOL0     H30708  10.034  11.438   1.821  0.7203  0.0809 -0.1102
  233MOL0     H30709   9.745  11.483   1.927 -0.7460  0.3893  1.0912
  233MOL0     H30710   9.620  11.590   2.169 -0.7382  0.2449  2.0799
  233MOL0     H30711   9.708  11.732   2.107  0.2321 -0.9873 -1.6657
  233MOL0     H30712   9.831  11.742   2.330  0.2260  0.4155 -2.3384
  233MOL0     H30713   9.726  11.604   2.381  4.3221 -1.8946 -2.6891
  233MOL0     H30714   9.630  11.826   2.458  3.1934 -1.3997 -0.1847
  233MOL0     H30715   9.681  11.907   2.310  2.0623  0.0795  2.7356
  233MOL0     H30716   9.482  11.800   2.193 -1.0244  4.3520 -0.3677
  233MOL0     H30717   9.428  11.898   2.332  0.4846  1.9097 -2.3771
  233MOL0     H30718   9.250  11.798   2.192  1.3891 -0.6611 -0.2557
  233MOL0     H30719   9.010  11.707   2.169 -1.3849 -0.2422  0.0670
  233MOL0     H30720   8.653  11.477   2.518  1.8138 -0.5041  0.2239
  233MOL0     H30721   8.416  11.402   2.494  0.3393  0.4865  1.2283
  233MOL0     H30722   8.219  11.280   2.128  1.9404 -0.0499 -0.4969
  233MOL0     H30723   8.338  11.405   2.146 -1.0200  0.2527 -0.2367
  233MOL0     H30724   8.220  11.506   2.333  2.3817 -0.1450 -0.7779
  233MOL0     H30725   8.085  11.395   2.303  3.1335 -3.8030  1.6726
  233MOL0     H30726   8.070  11.481   2.066 -0.3606 -1.3487  1.4040
  233MOL0     H30727   8.200  11.589   2.084 -0.2004 -0.7769 -1.3913
  233MOL0     H30728   7.935  11.603   2.264  0.1411  2.7269  0.7831
  233MOL0     H30729   8.083  11.684   2.290 -1.0876  0.5790  0.8234
  233MOL0     H30730   8.051  11.776   2.052 -0.8851  3.5955  0.8839
  233MOL0     H30731   7.918  11.823   2.172 -0.6496  0.0737 -0.3243
  233MOL0     H30732   7.821  11.589   2.045 -1.5037 -0.4720  0.6404
  233MOL0     H30733   7.872  11.709   1.914 -2.1927  3.2495  0.4740
  233MOL0     H30734   7.742  11.891   2.016  0.9932 -0.4581  1.4302
  233MOL0     H30735   7.657  11.754   1.948 -1.0818  0.5804  0.7175
  233MOL0     H30736   7.723  11.799   2.245  0.1466  0.9830 -1.3113
  233MOL0     H30737   7.623  11.674   2.177  1.2825 -0.1318  2.1111
  233MOL0     H30738   8.520  11.176   2.148  0.3497 -1.3564  0.4673
  233MOL0     H30739   8.766  11.222   2.189  2.2220  1.6398  0.5473
  233MOL0     H30740   9.089  11.387   2.438 -3.1773  1.2781  0.4983
  233MOL0     H30741   9.316  11.492   2.481 -1.6684  0.5684  0.7570
  233MOL0     H30742  10.871  11.146   1.959 -0.9743  3.0660  0.4311
  233MOL0     H30743  11.078  11.044   1.968 -1.6839  1.0300  0.6473
  233MOL0     H30744  11.450  11.050   1.618 -0.6350 -0.9453 -2.6091
  233MOL0     H30745  11.673  10.957   1.524  1.7755 -0.9250  0.4196
  233MOL0     H30746  11.896  10.947   1.528 -2.2394 -0.0580 -0.5966
  233MOL0     H30747  11.848  10.786   1.486 -1.6233  3.5726 -0.9968
  233MOL0     H30748  12.096  10.784   1.459  1.4181 -1.8471 -0.0821
  233MOL0     H30749  12.120  10.856   1.618  1.4375 -0.0555 -3.2441
  233MOL0     H30750  11.953  10.611   1.597  2.4719 -5.2532  0.7649
  233MOL0     H30751  12.087  10.649   1.709  1.4951 -3.4635  0.2833
  233MOL0     H30752  12.147  10.452   1.561  1.1051 -1.4951 -1.1629
  233MOL0     H30753  12.085  10.546   1.417 -0.4553 -2.1725  0.6559
  233MOL0     H30754  12.479  10.696   1.491  1.5557 -1.4874  0.9244
  233MOL0     H30755  11.729  10.742   1.886  1.1046 -1.4157 -2.8522
  233MOL0     H30756  11.511  10.832   1.980 -1.1498  2.8027  0.6633
  234MOL0     O30757   4.915   6.804  10.743  0.1164  0.1322 -0.2131
  234MOL0     C30758   4.872   6.717  10.658 -0.3189 -0.8759 -0.1831
  234MOL0     O30759   4.747   6.669  10.651  0.6771  0.0288  0.1723
  234MOL0     C30760   4.674   6.673  10.770  0.1158 -0.6486 -0.5613
  234MOL0     C30761   4.561   6.760  10.780  0.4866  0.2258 -0.0420
  234MOL0     C30762   4.479   6.754  10.896 -0.9048  0.2750 -0.7105
  234MOL0     C30763   4.512   6.671  11.000 -0.4366  0.1839 -1.1527
  234MOL0     O30764   4.446   6.657  11.124  0.1486 -0.2703  0.3274
  234MOL0     C30765   4.303   6.671  11.136  0.0325 -0.5087  0.1407
  234MOL0     C30766   4.263   6.690  11.281 -0.0941 -0.6008 -0.2098
  234MOL0     C30767   4.106   6.668  11.288  0.2180 -0.4428 -0.0034
  234MOL0     C30768   4.039   6.806  11.293  0.3437  0.0582 -0.3630
  234MOL0     C30769   3.890   6.768  11.251 -0.1262  0.8574  0.0589
  234MOL0     C30770   3.784   6.872  11.291  0.0299  0.0142  0.4414
  234MOL0     C30771   3.806   7.008  11.232  0.0154  0.1361  0.7174
  234MOL0     C30772   3.719   7.106  11.284  0.0735  0.0312 -1.0901
  234MOL0     N30773   3.578   7.066  11.257 -0.1186 -0.1569 -0.8853
  234MOL0     C30774   3.519   7.062  11.134 -0.5662  0.7709  0.3450
  234MOL0     C30775   3.412   6.975  11.154  0.2171 -0.3782 -0.7382
  234MOL0     C30776   3.324   6.926  11.032  0.5191  0.1644  0.0458
  234MOL0     C30777   3.229   6.819  11.082 -0.4574  0.0708  0.6060
  234MOL0     C30778   3.124   6.771  10.972 -0.7145 -0.4074 -0.2575
  234MOL0     C30779   3.010   6.697  11.040 -1.0879  0.3355  0.2421
  234MOL0     O30780   2.914   6.792  11.094  0.2493 -0.3484 -0.3939
  234MOL0     C30781   2.829   6.873  11.013 -0.2325  1.4015 -0.5228
  234MOL0     C30782   2.825   6.874  10.874 -0.2710 -0.4288 -0.1782
  234MOL0     C30783   2.740   6.961  10.801  0.0740 -0.1462  0.7776
  234MOL0     C30784   2.663   7.061  10.872  0.4398  0.6990  0.4412
  234MOL0     C30785   2.579   7.170  10.814 -0.3847  0.4002  0.2533
  234MOL0     O30786   2.464   7.201  10.888 -0.2571  0.3107 -0.3783
  234MOL0     C30787   2.390   7.312  10.858 -0.4141 -0.1995  0.0769
  234MOL0     C30788   2.258   7.285  10.818  0.6489 -0.1999 -0.5924
  234MOL0     C30789   2.168   7.389  10.789 -0.0241  0.3375  0.8853
  234MOL0     C30790   2.218   7.525  10.791  1.2509 -0.5649  0.9956
  234MOL0     O30791   2.125   7.623  10.746 -0.1093 -0.0919 -0.0632
  234MOL0     C30792   2.182   7.754  10.711 -0.6050  0.9464  0.1079
  234MOL0     C30793   2.085   7.858  10.657  0.0220 -1.1145 -0.1170
  234MOL0     C30794   1.991   7.811  10.548 -0.3022  0.0988  0.0791
  234MOL0     C30795   2.066   7.732  10.438 -1.1076 -0.3158 -0.4126
  234MOL0     C30796   1.987   7.718  10.310  1.2360 -0.0276 -0.7386
  234MOL0     C30797   2.045   7.620  10.205 -0.3159 -0.1844  0.3762
  234MOL0     C30798   2.186   7.670  10.174  0.9172  0.3638 -0.1186
  234MOL0     C30799   2.244   7.605  10.052 -1.3186  0.2933 -0.1425
  234MOL0    Cl30800   2.335   7.727   9.960 -0.3038 -0.4264  0.0834
  234MOL0     C30801   2.349   7.556  10.840 -0.1664  0.2838  0.2872
  234MOL0     C30802   2.433   7.441  10.871  0.0671  0.7284 -0.0834
  234MOL0     O30803   2.623   7.235  10.717 -0.0523  1.3468  0.4283
  234MOL0     C30804   2.669   7.051  11.013  0.5010 -0.7085 -1.4918
  234MOL0     C30805   2.746   6.959  11.085 -0.0472  0.0991  0.6097
  234MOL0     N30806   3.401   6.947  11.291  1.1031 -0.0534 -0.2442
  234MOL0     N30807   3.498   6.997  11.349 -0.0705 -0.6260 -0.7659
  234MOL0     C30808   4.627   6.588  10.988  0.0159 -0.0603  0.4881
  234MOL0     C30809   4.704   6.587  10.874  0.0604 -0.0688 -0.7793
  234MOL0     C30810   4.960   6.673  10.556  0.0281  0.0866 -0.0676
  234MOL0     C30811   5.085   6.738  10.539 -0.2545 -0.5161 -0.7288
  234MOL0     C30812   5.177   6.697  10.443 -0.1871  0.8637  0.3743
  234MOL0     C30813   5.152   6.579  10.366  1.2679  0.7108 -0.4111
  234MOL0     O30814   5.245   6.509  10.294 -0.7594 -0.0888 -0.1814
  234MOL0     C30815   5.384   6.548  10.296 -0.4524  0.9536  1.2770
  234MOL0     C30816   5.467   6.426  10.250 -0.3710 -0.6560  0.4856
  234MOL0     C30817   5.481   6.308  10.347 -0.2593 -1.2991  0.2211
  234MOL0     C30818   5.585   6.343  10.462  0.7059  0.2561 -0.7542
  234MOL0     C30819   5.727   6.319  10.427  0.5070 -0.7309 -0.3350
  234MOL0     C30820   5.845   6.311  10.422 -0.9317 -0.0425  0.2313
  234MOL0     C30821   5.020   6.521  10.369  0.7012  0.4478 -0.4610
  234MOL0     C30822   4.928   6.576  10.466  0.5519  0.3282 -0.6104
  234MOL0     H30823   4.533   6.817  10.692  1.6178  0.5765 -0.1818
  234MOL0     H30824   4.386   6.809  10.898 -0.2241  1.4814 -1.6672
  234MOL0     H30825   4.255   6.581  11.098 -0.8958  0.5740 -1.3722
  234MOL0     H30826   4.280   6.757  11.073 -0.5055  0.4241  1.5666
  234MOL0     H30827   4.295   6.783  11.329 -0.3602 -0.6870  0.1415
  234MOL0     H30828   4.323   6.613  11.331  2.4941  0.9944 -0.6453
  234MOL0     H30829   4.083   6.604  11.373 -1.0735 -0.4935 -0.3684
  234MOL0     H30830   4.060   6.613  11.205 -1.5514 -2.2537  2.0649
  234MOL0     H30831   4.036   6.848  11.394  0.5965 -1.1166  0.1561
  234MOL0     H30832   4.091   6.877  11.228  0.6034  1.0133  0.8585
  234MOL0     H30833   3.864   6.671  11.295  2.2011 -0.1264 -0.5710
  234MOL0     H30834   3.889   6.755  11.142 -3.5829  0.5389  0.0291
  234MOL0     H30835   3.788   6.882  11.400 -0.1988  0.8324  0.3802
  234MOL0     H30836   3.681   6.845  11.266  0.6693 -0.2497 -2.1636
  234MOL0     H30837   3.911   7.038  11.234  1.3367 -3.7041 -0.9678
  234MOL0     H30838   3.792   6.980  11.127  0.5688 -0.3673  0.7681
  234MOL0     H30839   3.741   7.203  11.240  1.1649 -0.7903 -2.4406
  234MOL0     H30840   3.733   7.113  11.392 -0.9650  0.4109 -0.9771
  234MOL0     H30841   3.555   7.098  11.038 -1.4759 -2.2667 -1.2666
  234MOL0     H30842   3.389   6.891  10.952 -0.2155  1.8224 -1.3380
  234MOL0     H30843   3.261   7.002  10.985 -1.6538 -0.7186  1.3705
  234MOL0     H30844   3.179   6.852  11.173  1.1804 -1.6043  2.1937
  234MOL0     H30845   3.296   6.737  11.109 -1.9863 -1.1178  0.9020
  234MOL0     H30846   3.084   6.864  10.930  2.1733 -0.3165 -3.1370
  234MOL0     H30847   3.182   6.709  10.904  1.1932  2.5904 -1.5810
  234MOL0     H30848   3.048   6.629  11.117 -1.1287  0.4456  0.3618
  234MOL0     H30849   2.961   6.642  10.960 -0.9602  2.7894 -1.6226
  234MOL0     H30850   2.869   6.796  10.813 -1.5723 -0.3980 -1.2120
  234MOL0     H30851   2.730   6.944  10.695 -4.1783  1.2960  0.7652
  234MOL0     H30852   2.224   7.184  10.799  0.3494  0.3801 -3.6572
  234MOL0     H30853   2.072   7.370  10.743  0.4787  0.6359 -0.3256
  234MOL0     H30854   2.274   7.751  10.653 -0.2376  3.6110  0.4135
  234MOL0     H30855   2.229   7.796  10.800 -2.3955  0.4111  1.3682
  234MOL0     H30856   2.152   7.937  10.621 -1.8241  0.3892 -0.4067
  234MOL0     H30857   2.022   7.903  10.733  0.6339 -0.9008  0.2656
  234MOL0     H30858   1.932   7.890  10.500  1.6969  0.3516 -2.1941
  234MOL0     H30859   1.917   7.741  10.586  0.1973 -0.9941 -0.9086
  234MOL0     H30860   2.161   7.781  10.418 -1.2088  0.2195  0.3474
  234MOL0     H30861   2.080   7.632  10.481  1.8804  0.8941  1.7821
  234MOL0     H30862   1.956   7.808  10.256 -1.2831 -0.9510 -0.9508
  234MOL0     H30863   1.886   7.682  10.334  1.5056  0.1237  0.6642
  234MOL0     H30864   1.975   7.616  10.121  1.5822 -0.0896 -1.2716
  234MOL0     H30865   2.054   7.521  10.252  0.1993 -0.8105 -0.9917
  234MOL0     H30866   2.189   7.778  10.154  0.0764  0.4043 -0.0645
  234MOL0     H30867   2.242   7.642  10.263  2.6162 -1.4049 -1.6606
  234MOL0     H30868   2.163   7.563   9.990  0.5655 -1.6853 -1.4228
  234MOL0     H30869   2.313   7.527  10.084 -2.0742 -1.0445 -1.6066
  234MOL0     H30870   2.399   7.652  10.840  3.5535 -1.4647  0.4127
  234MOL0     H30871   2.531   7.453  10.918 -0.1899  0.1506  0.6104
  234MOL0     H30872   2.606   7.118  11.070  0.4053 -1.4905 -0.6606
  234MOL0     H30873   2.750   6.956  11.193 -0.9718  0.4668  0.6566
  234MOL0     H30874   4.650   6.508  11.058  1.8809 -0.2059 -0.2430
  234MOL0     H30875   4.791   6.522  10.873  0.4022  0.3572 -0.0203
  234MOL0     H30876   5.112   6.814  10.611 -2.8622 -1.7925  1.8473
  234MOL0     H30877   5.272   6.749  10.451  0.8122 -0.0777 -3.6951
  234MOL0     H30878   5.411   6.569  10.400  2.0151  1.6285  0.5667
  234MOL0     H30879   5.395   6.640  10.236 -1.6331  0.6550  0.5530
  234MOL0     H30880   5.420   6.405  10.154  3.3979  0.6935 -1.8843
  234MOL0     H30881   5.568   6.462  10.229 -1.6447  1.5272 -2.6444
  234MOL0     H30882   5.515   6.224  10.286 -1.0027 -1.3264 -0.1617
  234MOL0     H30883   5.382   6.291  10.391  1.0294  0.4139  4.3428
  234MOL0     H30884   5.587   6.446  10.499  0.2864 -0.0975  0.3198
  234MOL0     H30885   5.562   6.283  10.551  2.9114  0.6420  0.1463
  234MOL0     H30886   5.948   6.289  10.440 -1.4316 -1.2700  1.7112
  234MOL0     H30887   5.005   6.426  10.318  0.3708  1.4540 -2.3544
  234MOL0     H30888   4.841   6.513  10.479  1.6326 -0.6378  3.8444
  235MOL0     O30889   4.515   3.978  10.436  0.5254  0.4149  0.8624
  235MOL0     C30890   4.602   4.016  10.360 -0.2118 -0.3094 -0.2989
  235MOL0     O30891   4.585   4.084  10.241  0.0521  0.1076 -0.4764
  235MOL0     C30892   4.464   4.117  10.192 -0.6039  0.3712 -0.0913
  235MOL0     C30893   4.369   4.026  10.171  0.0157 -0.4257 -0.0126
  235MOL0     C30894   4.241   4.058  10.132 -0.4370  0.7216  0.2815
  235MOL0     C30895   4.218   4.187  10.084 -0.4683 -0.7468 -0.0144
  235MOL0     O30896   4.092   4.211  10.030  0.1298 -0.3309  0.3199
  235MOL0     C30897   4.054   4.340   9.971 -0.5581  0.5279 -0.0714
  235MOL0     C30898   3.909   4.366  10.011 -0.6774  0.5306 -0.1189
  235MOL0     C30899   3.893   4.522  10.019  0.6602 -0.3046 -0.5001
  235MOL0     C30900   3.857   4.599   9.890  0.7259 -1.0768 -0.1278
  235MOL0     C30901   3.710   4.599   9.844 -0.6253  0.5101 -0.5820
  235MOL0     C30902   3.690   4.679   9.712  1.4290 -0.7851 -0.2813
  235MOL0     C30903   3.543   4.662   9.675  0.1320 -0.4859 -0.0212
  235MOL0     C30904   3.516   4.512   9.631 -0.4575 -1.3841 -0.3615
  235MOL0     N30905   3.371   4.498   9.607 -0.2159  1.2605  0.4292
  235MOL0     C30906   3.274   4.591   9.560 -0.1205 -0.4022 -0.4810
  235MOL0     C30907   3.168   4.513   9.564 -1.4648 -0.1379  0.3483
  235MOL0     C30908   3.032   4.556   9.512  0.0218  0.2056 -0.2889
  235MOL0     C30909   2.918   4.553   9.614  0.1217  0.1934 -0.3127
  235MOL0     C30910   2.781   4.555   9.542 -0.9458  0.0312  0.2049
  235MOL0     C30911   2.671   4.538   9.643 -0.4940  0.6668 -0.0354
  235MOL0     O30912   2.552   4.612   9.611 -0.1824 -0.2240 -0.0899
  235MOL0     C30913   2.447   4.621   9.700  0.2626 -0.3993  0.6699
  235MOL0     C30914   2.414   4.526   9.798  0.2360  0.9255  0.1705
  235MOL0     C30915   2.297   4.540   9.873 -0.5903  0.0092 -0.2241
  235MOL0     C30916   2.210   4.654   9.865  0.1616 -0.4914 -0.0980
  235MOL0     C30917   2.092   4.683   9.950  0.3937  0.5356 -0.5742
  235MOL0     O30918   2.037   4.576  10.025 -0.0042  0.1727  0.2913
  235MOL0     C30919   1.910   4.576  10.085  0.5795  0.1315  0.7661
  235MOL0     C30920   1.837   4.685  10.114 -0.1363 -0.4532  0.4864
  235MOL0     C30921   1.714   4.680  10.179  0.2864  0.0221 -0.8843
  235MOL0     C30922   1.653   4.558  10.208  0.7640  0.5809 -0.6002
  235MOL0     O30923   1.525   4.553  10.258 -0.8216  0.0307 -0.4942
  235MOL0     C30924   1.436   4.652  10.213 -0.2805 -1.1103  0.2287
  235MOL0     C30925   1.295   4.598  10.232 -0.3049  0.0082 -0.4333
  235MOL0     C30926   1.199   4.683  10.162  0.1281  0.5053  0.4833
  235MOL0     C30927   1.057   4.637  10.191  0.1375  0.7028  0.5817
  235MOL0     C30928   0.952   4.730  10.134 -0.3153 -0.6412  0.1388
  235MOL0     C30929   0.815   4.683  10.175  0.8275  0.5048  0.0792
  235MOL0     C30930   0.711   4.794  10.159  0.2519  0.2817 -0.0406
  235MOL0     C30931   0.580   4.730  10.117 -0.0286 -0.6580  0.5592
  235MOL0    Cl30932   0.479   4.873  10.094 -0.1703  0.4772 -0.5496
  235MOL0     C30933   1.728   4.435  10.171 -0.5977  0.1588 -0.8164
  235MOL0     C30934   1.858   4.450  10.115  0.6011  0.1896  0.7496
  235MOL0     O30935   2.042   4.792   9.944 -0.0470  0.5654  0.8225
  235MOL0     C30936   2.247   4.745   9.763  0.1469 -0.3107 -0.2034
  235MOL0     C30937   2.359   4.729   9.682 -0.2194  0.5098 -0.9156
  235MOL0     N30938   3.195   4.380   9.596  0.2524  0.1770 -0.0955
  235MOL0     N30939   3.316   4.370   9.615  0.3736 -0.8828 -0.5920
  235MOL0     C30940   4.330   4.279  10.084 -0.0731 -0.0451  0.6896
  235MOL0     C30941   4.453   4.240  10.138  0.3387 -0.9778  0.7551
  235MOL0     C30942   4.742   3.990  10.406 -0.3322 -0.2778 -0.1261
  235MOL0     C30943   4.839   3.974  10.311  0.1531  0.4481 -0.2748
  235MOL0     C30944   4.969   3.930  10.351 -0.7295 -0.0633  0.1699
  235MOL0     C30945   5.000   3.918  10.484  0.0217  0.4665  0.7484
  235MOL0     O30946   5.124   3.892  10.544  0.7368 -0.4158  0.7278
  235MOL0     C30947   5.231   3.843  10.458 -0.1390 -1.0269  0.3160
  235MOL0     C30948   5.305   3.963  10.399  0.1859 -0.1239  0.4286
  235MOL0     C30949   5.393   4.031  10.509 -0.3563  0.7022 -0.7984
  235MOL0     C30950   5.462   4.160  10.450  0.0645  1.0244  0.0692
  235MOL0     C30951   5.515   4.222  10.577 -0.0509  0.7983  0.0723
  235MOL0     C30952   5.561   4.264  10.682  0.1977  0.1602 -0.0281
  235MOL0     C30953   4.904   3.953  10.577 -0.2460 -0.5667 -0.1932
  235MOL0     C30954   4.777   3.977  10.541  0.4391 -0.1079  1.0803
  235MOL0     H30955   4.377   3.919  10.190  0.2516 -0.8328 -2.1543
  235MOL0     H30956   4.164   3.983  10.123  3.6101 -3.7470 -1.5601
  235MOL0     H30957   4.072   4.325   9.864 -0.4385 -0.2671  0.0480
  235MOL0     H30958   4.113   4.426  10.005 -0.8006  0.7373 -0.1830
  235MOL0     H30959   3.880   4.322  10.107 -3.0766 -6.1611 -3.3036
  235MOL0     H30960   3.843   4.312   9.942 -0.1113  0.3669 -0.5414
  235MOL0     H30961   3.975   4.573  10.071  1.0059 -0.0769 -1.2536
  235MOL0     H30962   3.812   4.545  10.089  0.9570 -1.0252  0.0911
  235MOL0     H30963   3.885   4.702   9.912 -1.4830 -0.4548 -0.0104
  235MOL0     H30964   3.922   4.568   9.808 -0.3125 -2.3461 -0.5107
  235MOL0     H30965   3.646   4.647   9.919  0.8499 -1.2664  1.9520
  235MOL0     H30966   3.672   4.496   9.843  0.0051  0.2682 -1.8671
  235MOL0     H30967   3.755   4.634   9.637  2.4318 -1.9526  1.2185
  235MOL0     H30968   3.705   4.782   9.745 -4.2722  0.3893 -0.3026
  235MOL0     H30969   3.479   4.713   9.747  1.3339 -0.6503  1.2130
  235MOL0     H30970   3.539   4.725   9.585  3.9830  2.3360  1.5055
  235MOL0     H30971   3.539   4.449   9.717  0.2741  0.4600  0.8435
  235MOL0     H30972   3.587   4.475   9.557  1.1677  0.4553  0.1872
  235MOL0     H30973   3.292   4.695   9.535 -0.2558 -0.9123 -2.9376
  235MOL0     H30974   3.012   4.488   9.428  0.8425 -3.3647  2.1453
  235MOL0     H30975   3.038   4.660   9.481 -2.3226  0.3351 -0.4217
  235MOL0     H30976   2.938   4.632   9.687  1.8360 -0.8071  0.3362
  235MOL0     H30977   2.911   4.457   9.666  1.6781  0.9305  1.3479
  235MOL0     H30978   2.766   4.647   9.484  0.1151 -0.1701 -0.4331
  235MOL0     H30979   2.760   4.479   9.465 -0.0974  2.0754 -2.2025
  235MOL0     H30980   2.703   4.571   9.742 -0.6236  0.0665  0.2122
  235MOL0     H30981   2.645   4.432   9.656  0.9207 -0.0321 -2.2312
  235MOL0     H30982   2.465   4.433   9.820 -1.7977 -0.5267 -0.9098
  235MOL0     H30983   2.267   4.469   9.950 -2.0733  0.8605  0.0226
  235MOL0     H30984   1.877   4.785  10.100  2.9620 -1.9319 -2.6888
  235MOL0     H30985   1.666   4.777  10.192  0.4167  0.1565 -1.3790
  235MOL0     H30986   1.458   4.677  10.108  3.3151 -0.3595  1.0199
  235MOL0     H30987   1.439   4.753  10.254  1.3522  0.1876 -2.7834
  235MOL0     H30988   1.262   4.583  10.335 -1.4179  0.9869 -0.6306
  235MOL0     H30989   1.319   4.501  10.188  0.6977  0.3998 -0.7988
  235MOL0     H30990   1.228   4.686  10.057 -0.7721  0.7065  0.2353
  235MOL0     H30991   1.207   4.789  10.188  0.0582  0.7931 -0.6188
  235MOL0     H30992   1.040   4.545  10.135 -2.4399  3.1886 -3.2443
  235MOL0     H30993   1.044   4.631  10.299  1.0624 -0.1070  0.6613
  235MOL0     H30994   0.959   4.724  10.024  0.8477 -1.8579  0.2492
  235MOL0     H30995   0.976   4.830  10.170  2.1039  0.5741 -4.0697
  235MOL0     H30996   0.798   4.647  10.277 -3.1592  3.8088  0.8608
  235MOL0     H30997   0.787   4.594  10.118 -1.2650  2.3006 -1.8912
  235MOL0     H30998   0.712   4.858  10.248  1.1692  4.0300 -2.4832
  235MOL0     H30999   0.743   4.863  10.080 -1.1107 -1.9725 -2.7303
  235MOL0     H31000   0.530   4.683  10.202  0.7105  0.5269  1.6887
  235MOL0     H31001   0.571   4.657  10.036 -3.7533 -1.0238  1.1123
  235MOL0     H31002   1.683   4.337  10.182 -1.8459  0.5841 -1.9347
  235MOL0     H31003   1.916   4.361  10.095  3.1460  1.8294  0.4946
  235MOL0     H31004   2.192   4.839   9.760 -0.7173 -0.8238 -1.7475
  235MOL0     H31005   2.382   4.790   9.596 -1.4494  0.1831 -1.4968
  235MOL0     H31006   4.317   4.376  10.038 -0.6516 -0.1665  0.5854
  235MOL0     H31007   4.538   4.307  10.139  0.9444 -1.6188 -1.4554
  235MOL0     H31008   4.819   3.987  10.205 -1.0019 -1.8712 -0.4053
  235MOL0     H31009   5.049   3.922  10.278  2.0624 -0.7857  3.1216
  235MOL0     H31010   5.205   3.767  10.385  1.6613 -1.0615 -0.3469
  235MOL0     H31011   5.308   3.786  10.511 -0.0821 -2.4020 -1.1909
  235MOL0     H31012   5.369   3.929  10.317 -0.1607 -0.4250  0.2760
  235MOL0     H31013   5.226   4.027  10.357 -1.3709 -4.0270 -3.4334
  235MOL0     H31014   5.467   3.961  10.549  0.7375  0.8767 -2.4309
  235MOL0     H31015   5.343   4.060  10.602  1.6400 -1.7207  1.2001
  235MOL0     H31016   5.547   4.143  10.383  1.0604  0.8685  1.3280
  235MOL0     H31017   5.380   4.216  10.404 -0.5753  1.1388  1.3219
  235MOL0     H31018   5.615   4.291  10.770 -0.3707  1.1518  0.0237
  235MOL0     H31019   4.938   3.957  10.680 -2.7299 -1.1974  0.7115
  235MOL0     H31020   4.702   3.999  10.616  1.2362  4.2189  0.8513
  236MOL0     O31021   7.670   5.752   3.256 -0.2866  0.5551 -0.5452
  236MOL0     C31022   7.668   5.870   3.282  0.4805  0.6386  0.0455
  236MOL0     O31023   7.774   5.949   3.291 -0.4415  0.1302 -0.3296
  236MOL0     C31024   7.894   5.890   3.277 -0.8878 -0.2498  0.4059
  236MOL0     C31025   7.991   5.916   3.377 -0.0167  0.0027 -1.1471
  236MOL0     C31026   8.121   5.873   3.373  0.6460  0.1327 -0.8671
  236MOL0     C31027   8.163   5.803   3.255 -0.3134 -0.5127  0.3133
  236MOL0     O31028   8.287   5.755   3.243 -0.7602  0.4098 -1.1424
  236MOL0     C31029   8.354   5.787   3.124  0.4588 -0.5210  0.6904
  236MOL0     C31030   8.504   5.786   3.130 -1.4635 -0.1231 -0.6059
  236MOL0     C31031   8.556   5.662   3.184 -0.1427  0.4059 -0.3669
  236MOL0     C31032   8.709   5.668   3.161  0.0136  0.1651  0.5264
  236MOL0     C31033   8.781   5.554   3.239 -0.4697 -1.0259 -0.5814
  236MOL0     C31034   8.907   5.605   3.308 -0.9859  0.1959  0.0254
  236MOL0     C31035   9.033   5.624   3.216  0.6110 -0.4474 -0.0586
  236MOL0     C31036   9.155   5.695   3.277 -0.0961 -0.4944  0.0221
  236MOL0     N31037   9.265   5.686   3.187  0.3640 -1.0162  1.3207
  236MOL0     C31038   9.376   5.601   3.197  0.2158  0.3779  0.1440
  236MOL0     C31039   9.467   5.649   3.115 -0.4214  0.0639 -0.2599
  236MOL0     C31040   9.607   5.585   3.098  0.0231  0.0407 -0.8726
  236MOL0     C31041   9.678   5.629   2.973  0.5329  0.0239 -0.5124
  236MOL0     C31042   9.825   5.596   2.977 -0.3790 -0.1491  0.9973
  236MOL0     C31043   9.903   5.674   2.870  0.2262  0.3095  1.0832
  236MOL0     O31044   9.882   5.602   2.743 -0.4887 -0.5533 -0.4973
  236MOL0     C31045   9.979   5.533   2.681 -1.3213 -0.4394  0.4245
  236MOL0     C31046  10.113   5.583   2.664  0.5270  0.3978 -0.7804
  236MOL0     C31047  10.209   5.510   2.596 -0.9183  0.2678 -0.1985
  236MOL0     C31048  10.185   5.372   2.565 -1.0705 -0.5748 -0.0724
  236MOL0     C31049  10.290   5.287   2.508  0.9496  0.6647 -0.4395
  236MOL0     O31050  10.403   5.351   2.471 -0.3763 -0.2623 -0.4416
  236MOL0     C31051  10.486   5.293   2.382  0.6641 -0.0964  0.6558
  236MOL0     C31052  10.620   5.314   2.397  0.2872  0.3174 -0.0777
  236MOL0     C31053  10.716   5.272   2.302 -0.0622  0.7022  0.2467
  236MOL0     C31054  10.674   5.199   2.190  0.9171  1.6123  0.2186
  236MOL0     O31055  10.776   5.156   2.104  0.5224 -0.1523  0.4788
  236MOL0     C31056  10.731   5.074   1.993 -0.1247  0.4710 -0.4919
  236MOL0     C31057  10.861   4.989   1.953  0.3405 -0.4487  0.1313
  236MOL0     C31058  10.964   5.083   1.894  0.3995  0.3331 -0.4289
  236MOL0     C31059  10.945   5.101   1.738  0.5798  1.0333 -0.6618
  236MOL0     C31060  11.051   5.186   1.663  0.4025 -0.0478  0.1225
  236MOL0     C31061  10.998   5.199   1.521 -0.0629  0.0382 -0.3773
  236MOL0     C31062  11.102   5.277   1.442  0.5106 -0.3215 -0.6477
  236MOL0     C31063  11.069   5.266   1.294  0.1721 -0.2567  0.1706
  236MOL0    Cl31064  10.909   5.335   1.244  0.2934  0.0152 -0.3170
  236MOL0     C31065  10.534   5.169   2.175 -0.4007  0.2627  0.0982
  236MOL0     C31066  10.442   5.226   2.268 -0.3238 -0.0512 -0.3322
  236MOL0     O31067  10.270   5.163   2.482  0.1570 -0.1590  0.4073
  236MOL0     C31068  10.054   5.324   2.579 -0.1105 -0.0459  0.1744
  236MOL0     C31069   9.955   5.406   2.629 -0.5640 -0.1772 -0.1912
  236MOL0     N31070   9.416   5.763   3.058  0.8060  0.7705  0.2987
  236MOL0     N31071   9.298   5.792   3.105  0.2486  1.3818  0.1558
  236MOL0     C31072   8.074   5.783   3.154 -0.7131  0.5946  0.2445
  236MOL0     C31073   7.940   5.823   3.167  1.2370  0.6476  0.7916
  236MOL0     C31074   7.532   5.927   3.308 -0.7990 -0.6389  0.8088
  236MOL0     C31075   7.515   6.067   3.300 -0.0351  0.0511  0.3801
  236MOL0     C31076   7.404   6.137   3.322  0.2144 -0.2880 -0.0796
  236MOL0     C31077   7.291   6.061   3.362  0.3155  0.3234  0.2612
  236MOL0     O31078   7.171   6.132   3.365  0.3821  0.5780 -0.0569
  236MOL0     C31079   7.054   6.050   3.340  0.8703  1.2480 -0.2170
  236MOL0     C31080   6.943   6.132   3.293 -0.7819 -0.2863  0.8838
  236MOL0     C31081   6.966   6.196   3.158 -0.6322 -0.3248  0.9428
  236MOL0     C31082   6.831   6.213   3.087 -0.4321  0.2769  0.0486
  236MOL0     C31083   6.714   6.280   3.146  0.7239 -0.1000  0.9245
  236MOL0     C31084   6.609   6.342   3.172 -1.3781 -0.4282 -0.8942
  236MOL0     C31085   7.302   5.925   3.374 -0.1354  0.6627 -0.1090
  236MOL0     C31086   7.420   5.861   3.338 -0.0396 -0.2445 -1.0522
  236MOL0     H31087   7.946   5.973   3.458  0.8231  1.3009 -1.5557
  236MOL0     H31088   8.189   5.899   3.454  0.1410 -3.9786  1.1144
  236MOL0     H31089   8.329   5.885   3.080 -2.1009 -2.2552 -2.1007
  236MOL0     H31090   8.324   5.712   3.050  1.0714  0.1502 -0.2727
  236MOL0     H31091   8.531   5.867   3.198 -2.5250  1.6153 -2.1463
  236MOL0     H31092   8.544   5.802   3.029  1.2442  1.7608  0.6556
  236MOL0     H31093   8.525   5.570   3.135  0.0094  0.0711  0.1591
  236MOL0     H31094   8.524   5.659   3.288 -0.5415  0.8866 -0.4691
  236MOL0     H31095   8.735   5.658   3.055 -0.1394  0.3733  0.4681
  236MOL0     H31096   8.743   5.761   3.206 -1.9551 -0.7751  4.4379
  236MOL0     H31097   8.800   5.473   3.169  0.4363 -1.1529 -0.1982
  236MOL0     H31098   8.719   5.515   3.321 -1.0106  1.4398  0.2873
  236MOL0     H31099   8.945   5.534   3.382  1.3754  1.5105  0.1631
  236MOL0     H31100   8.893   5.700   3.361 -1.7907 -0.0009  0.1802
  236MOL0     H31101   9.059   5.528   3.172 -1.1606 -1.1488  0.3349
  236MOL0     H31102   9.002   5.696   3.139 -3.8293  0.5296  2.3288
  236MOL0     H31103   9.179   5.647   3.373  1.4586  1.2243  0.5517
  236MOL0     H31104   9.119   5.797   3.292 -0.9832 -1.0021  1.6656
  236MOL0     H31105   9.379   5.515   3.263 -0.5299  2.5246  3.1800
  236MOL0     H31106   9.590   5.477   3.093 -4.9808  0.6514 -2.4543
  236MOL0     H31107   9.664   5.603   3.190  0.8750 -2.6275 -0.7699
  236MOL0     H31108   9.663   5.736   2.955 -2.8640 -0.1449  0.6829
  236MOL0     H31109   9.624   5.565   2.902  0.8153 -1.4241  0.5287
  236MOL0     H31110   9.870   5.629   3.071  1.3837  2.5430 -0.6453
  236MOL0     H31111   9.839   5.488   2.980 -0.9597 -0.2321  0.8138
  236MOL0     H31112  10.011   5.682   2.884  0.7630  1.7326 -2.7070
  236MOL0     H31113   9.877   5.780   2.861  1.5161  0.4915 -1.2587
  236MOL0     H31114  10.145   5.685   2.687 -3.2695  1.3805  0.9087
  236MOL0     H31115  10.304   5.557   2.574 -0.7974  0.3710  0.5107
  236MOL0     H31116  10.635   5.361   2.494 -1.1036 -0.4758  0.5716
  236MOL0     H31117  10.821   5.296   2.319 -0.1383  0.0905  1.7466
  236MOL0     H31118  10.689   5.132   1.911 -0.8920  1.5043  0.5856
  236MOL0     H31119  10.649   5.005   2.016  1.4898 -1.2499  0.3782
  236MOL0     H31120  10.835   4.902   1.892  2.4196 -1.1638  0.2153
  236MOL0     H31121  10.885   4.948   2.052 -1.9448 -2.4312 -0.0220
  236MOL0     H31122  11.059   5.032   1.913  1.1728  2.3999  1.6664
  236MOL0     H31123  10.973   5.174   1.953 -0.8376  1.3268 -1.7203
  236MOL0     H31124  10.935   5.004   1.689 -1.7229  1.4117 -1.0697
  236MOL0     H31125  10.854   5.161   1.730  0.9884  1.9030  0.9026
  236MOL0     H31126  11.147   5.135   1.659 -0.5445 -1.9261 -4.4636
  236MOL0     H31127  11.058   5.279   1.721  2.5414 -0.1432  0.0869
  236MOL0     H31128  10.908   5.260   1.517  0.3809  0.6509 -1.5275
  236MOL0     H31129  10.961   5.105   1.479 -0.8918  0.5608 -0.8348
  236MOL0     H31130  11.120   5.379   1.480 -1.7488  0.3136 -1.1444
  236MOL0     H31131  11.192   5.216   1.455  0.8537  0.6627  2.6417
  236MOL0     H31132  11.088   5.162   1.267  1.3813 -0.3524  1.2752
  236MOL0     H31133  11.140   5.331   1.242 -1.9506  1.5221 -0.6633
  236MOL0     H31134  10.481   5.111   2.100  0.1807 -2.9746  2.0101
  236MOL0     H31135  10.335   5.209   2.261 -0.2684 -0.8650  0.5585
  236MOL0     H31136  10.045   5.217   2.563  1.5764 -0.0028 -1.4141
  236MOL0     H31137   9.856   5.362   2.637  0.4864 -2.8518 -0.7777
  236MOL0     H31138   8.108   5.719   3.073  0.8226 -0.0199  1.3235
  236MOL0     H31139   7.870   5.771   3.102  0.3152 -0.3192  2.4857
  236MOL0     H31140   7.605   6.119   3.267 -0.0002  0.2249  0.7423
  236MOL0     H31141   7.398   6.244   3.305  1.1121 -0.5196 -2.1497
  236MOL0     H31142   7.021   6.004   3.434  2.3960 -0.8465 -0.6188
  236MOL0     H31143   7.087   5.982   3.261  1.0081  2.5797 -1.3464
  236MOL0     H31144   6.861   6.059   3.289  1.2979 -2.8132  1.9597
  236MOL0     H31145   6.931   6.200   3.378  1.2282 -1.1110  1.8922
  236MOL0     H31146   7.023   6.133   3.089 -0.0434  2.2742 -1.0899
  236MOL0     H31147   7.028   6.286   3.162  2.7814 -2.4878  1.1000
  236MOL0     H31148   6.849   6.282   3.004  0.8047  1.5225  1.3025
  236MOL0     H31149   6.806   6.115   3.046  2.2184 -0.4337 -0.0474
  236MOL0     H31150   6.519   6.394   3.195  0.5397  2.5106  0.6264
  236MOL0     H31151   7.224   5.850   3.374  0.0110  0.4496 -2.4026
  236MOL0     H31152   7.415   5.753   3.336 -2.3548 -0.2335  0.4776
  237MOL0     O31153   8.869   5.820   2.345 -0.4571 -0.3612 -0.6028
  237MOL0     C31154   8.827   5.818   2.230 -0.1785 -0.3211 -0.7106
  237MOL0     O31155   8.696   5.828   2.193 -0.0228 -0.7138  0.0248
  237MOL0     C31156   8.599   5.819   2.293  0.0353  0.2790  0.8067
  237MOL0     C31157   8.518   5.931   2.314 -0.3473 -0.0845 -0.3268
  237MOL0     C31158   8.416   5.935   2.408  0.3319  0.0133 -0.3802
  237MOL0     C31159   8.388   5.821   2.487 -0.9574 -0.2437 -0.0350
  237MOL0     O31160   8.304   5.830   2.596 -0.1706  0.3927  0.6398
  237MOL0     C31161   8.168   5.873   2.562 -0.1599 -0.7008  0.4893
  237MOL0     C31162   8.062   5.792   2.643 -0.1824  0.1238  0.0865
  237MOL0     C31163   7.922   5.804   2.598  0.0845  0.4504 -0.0320
  237MOL0     C31164   7.838   5.764   2.729  0.9344  0.2948  0.0264
  237MOL0     C31165   7.696   5.727   2.677  0.1235  0.1450  0.0982
  237MOL0     C31166   7.604   5.664   2.787 -0.4068 -0.1805 -0.1219
  237MOL0     C31167   7.587   5.761   2.911 -0.5061 -0.4567 -0.0840
  237MOL0     C31168   7.485   5.865   2.892 -0.0486 -0.5626 -0.3666
  237MOL0     N31169   7.355   5.799   2.869 -0.1956 -0.2358  0.2261
  237MOL0     C31170   7.289   5.735   2.965  0.0493  1.0046  0.4225
  237MOL0     C31171   7.184   5.673   2.899 -0.0868 -0.4056  0.2133
  237MOL0     C31172   7.084   5.573   2.956  0.4371  0.2173  0.5122
  237MOL0     C31173   6.945   5.632   2.940  0.4061 -0.5037 -0.1711
  237MOL0     C31174   6.850   5.555   3.034  0.3458 -0.4321  0.2529
  237MOL0     C31175   6.711   5.607   3.061  0.0574  0.3764  0.5303
  237MOL0     O31176   6.727   5.715   3.147 -0.5555 -0.5017  0.2069
  237MOL0     C31177   6.611   5.785   3.189 -0.0276 -0.3446 -0.0341
  237MOL0     C31178   6.571   5.893   3.112  0.3247 -0.3068  0.2527
  237MOL0     C31179   6.466   5.978   3.158 -0.3589 -0.0398 -0.3898
  237MOL0     C31180   6.400   5.943   3.270 -0.2879 -0.4030 -0.0207
  237MOL0     C31181   6.275   6.011   3.309  0.6037  0.1157  0.3019
  237MOL0     O31182   6.239   6.126   3.241  0.1556  0.5080  0.0151
  237MOL0     C31183   6.128   6.200   3.273 -0.7509  0.0672 -0.4016
  237MOL0     C31184   5.997   6.148   3.266 -0.2392 -0.9968 -0.1871
  237MOL0     C31185   5.900   6.227   3.314  1.0419 -0.1654  0.5053
  237MOL0     C31186   5.932   6.356   3.366  0.3847 -1.0171  1.0906
  237MOL0     O31187   5.818   6.423   3.410  0.8816 -0.3633  0.6257
  237MOL0     C31188   5.819   6.569   3.415 -0.4133 -1.1487  1.2716
  237MOL0     C31189   5.848   6.604   3.559 -0.0672 -0.0755  1.3923
  237MOL0     C31190   5.736   6.575   3.665 -0.5486 -0.2320  0.4098
  237MOL0     C31191   5.602   6.624   3.627 -1.0105 -1.0396  0.0371
  237MOL0     C31192   5.581   6.774   3.611  0.7756 -0.0900 -0.0926
  237MOL0     C31193   5.509   6.793   3.483  0.7100  0.4509 -1.3309
  237MOL0     C31194   5.461   6.937   3.476 -0.5213 -0.7945 -0.2127
  237MOL0     C31195   5.319   6.947   3.531 -0.7448 -0.8920  0.1845
  237MOL0    Cl31196   5.184   6.907   3.409 -0.2850 -0.5133 -0.2426
  237MOL0     C31197   6.059   6.405   3.368 -0.1943  0.6590  0.2788
  237MOL0     C31198   6.158   6.327   3.311 -0.3961 -1.0299  0.0266
  237MOL0     O31199   6.208   5.957   3.395 -0.6593  0.2286  0.0306
  237MOL0     C31200   6.448   5.835   3.352 -0.5128  0.0492  0.3399
  237MOL0     C31201   6.554   5.758   3.308 -0.1378  0.8808 -0.1580
  237MOL0     N31202   7.196   5.698   2.761 -0.2174  0.5897 -0.2685
  237MOL0     N31203   7.303   5.770   2.752  0.2953 -0.6606 -0.5148
  237MOL0     C31204   8.466   5.709   2.469 -0.4553  1.5755  0.1455
  237MOL0     C31205   8.577   5.712   2.382 -0.2193  0.2101 -0.4055
  237MOL0     C31206   8.926   5.814   2.122  0.1769  0.7099  0.1464
  237MOL0     C31207   8.886   5.789   1.985 -0.2962 -0.8442 -0.0960
  237MOL0     C31208   8.990   5.800   1.889 -0.7060  0.0833 -0.0324
  237MOL0     C31209   9.127   5.807   1.925  0.1761  0.0523  0.3432
  237MOL0     O31210   9.208   5.794   1.821  0.2225  0.3681  0.5492
  237MOL0     C31211   9.327   5.714   1.825  0.1439  0.0632 -0.9606
  237MOL0     C31212   9.447   5.807   1.849 -0.1123  0.1187 -0.2664
  237MOL0     C31213   9.573   5.728   1.866 -0.9475 -1.0488 -0.2379
  237MOL0     C31214   9.615   5.646   1.745 -0.1772 -0.8829  0.3768
  237MOL0     C31215   9.763   5.637   1.736  0.1827 -0.3543 -0.3423
  237MOL0     C31216   9.887   5.635   1.722  0.6705  0.1103 -0.6173
  237MOL0     C31217   9.159   5.803   2.058  0.6520 -0.3703 -0.4312
  237MOL0     C31218   9.064   5.815   2.154 -0.1252  0.3936 -0.7385
  237MOL0     H31219   8.543   6.022   2.259  0.4373 -1.3229 -2.0980
  237MOL0     H31220   8.372   6.031   2.432  4.1836  2.9972 -3.8482
  237MOL0     H31221   8.155   5.850   2.456  1.4532  1.1204 -0.1468
  237MOL0     H31222   8.158   5.980   2.578  1.0775 -0.8684  2.9412
  237MOL0     H31223   8.078   5.807   2.750  2.9779 -2.0690  0.0397
  237MOL0     H31224   8.095   5.689   2.633  1.3359  0.6858 -1.0808
  237MOL0     H31225   7.904   5.742   2.510  0.9205 -0.6223  0.5213
  237MOL0     H31226   7.913   5.906   2.562  0.5076  1.0365  1.4394
  237MOL0     H31227   7.878   5.674   2.776 -0.3251 -2.2851 -3.4025
  237MOL0     H31228   7.837   5.856   2.789 -2.1244  1.4148 -1.5013
  237MOL0     H31229   7.704   5.653   2.598 -0.0634  0.3171 -0.0824
  237MOL0     H31230   7.641   5.813   2.638 -1.9152 -1.9862 -2.0025
  237MOL0     H31231   7.652   5.570   2.814  2.2336  0.3641 -2.4001
  237MOL0     H31232   7.512   5.634   2.737  0.0970  3.2459 -3.5657
  237MOL0     H31233   7.573   5.704   3.003  4.4245  1.8389  2.4628
  237MOL0     H31234   7.679   5.812   2.940  0.0828 -1.7423  0.3560
  237MOL0     H31235   7.502   5.918   2.798  0.4454 -2.8515 -1.6441
  237MOL0     H31236   7.483   5.943   2.969 -1.9294  0.9790 -1.8586
  237MOL0     H31237   7.303   5.708   3.069 -1.4097  1.0141  0.6392
  237MOL0     H31238   7.105   5.564   3.063  0.6670 -1.0411  0.3773
  237MOL0     H31239   7.076   5.477   2.905  0.5649 -0.1206  1.1171
  237MOL0     H31240   6.916   5.630   2.835  2.5114  3.5024 -1.0332
  237MOL0     H31241   6.953   5.734   2.978  3.3075  0.1222 -2.1375
  237MOL0     H31242   6.841   5.458   2.984 -1.2441  0.9256 -2.2901
  237MOL0     H31243   6.893   5.552   3.135  0.6997 -2.1565  0.0972
  237MOL0     H31244   6.643   5.538   3.111  0.1851  0.2405  0.5200
  237MOL0     H31245   6.673   5.639   2.963  0.1534 -1.3160 -0.0976
  237MOL0     H31246   6.629   5.918   3.024 -0.1770  1.5416  0.4050
  237MOL0     H31247   6.450   6.073   3.109  0.1194  0.5405  0.5625
  237MOL0     H31248   5.979   6.047   3.229 -2.1816 -0.7933  0.0794
  237MOL0     H31249   5.800   6.184   3.314  1.9814 -2.5644  2.3888
  237MOL0     H31250   5.714   6.588   3.394  0.2261  0.8571 -0.3826
  237MOL0     H31251   5.882   6.634   3.353 -2.3852  1.5300  1.9108
  237MOL0     H31252   5.861   6.712   3.547 -1.3721  0.3276  3.1966
  237MOL0     H31253   5.944   6.559   3.587  0.2194 -0.7708 -0.5743
  237MOL0     H31254   5.779   6.629   3.750 -0.2028 -2.0918  1.4519
  237MOL0     H31255   5.743   6.468   3.682  3.0136  0.1698  2.3488
  237MOL0     H31256   5.569   6.567   3.540  0.6684  0.6648 -1.8231
  237MOL0     H31257   5.534   6.598   3.709 -1.1529  0.0723  0.2777
  237MOL0     H31258   5.666   6.842   3.609  0.3906  0.3859 -0.9001
  237MOL0     H31259   5.507   6.810   3.684  0.1892 -1.5782  0.0847
  237MOL0     H31260   5.419   6.737   3.455  0.9057  0.7387 -2.6311
  237MOL0     H31261   5.579   6.775   3.401 -1.4994  3.2139 -4.1307
  237MOL0     H31262   5.525   7.007   3.530 -1.0356  0.0529 -0.6708
  237MOL0     H31263   5.470   6.976   3.374  0.8806 -3.5356 -1.2532
  237MOL0     H31264   5.309   7.049   3.569 -1.3385 -0.2490 -1.5740
  237MOL0     H31265   5.301   6.882   3.617 -0.4679  2.6455  3.1897
  237MOL0     H31266   6.068   6.510   3.394 -1.7276  1.0689 -0.6853
  237MOL0     H31267   6.262   6.352   3.293 -1.1526  1.7544 -0.8686
  237MOL0     H31268   6.409   5.823   3.453 -1.3368  0.9424  0.1412
  237MOL0     H31269   6.573   5.671   3.370  0.6182  0.3544 -1.0962
  237MOL0     H31270   8.452   5.628   2.539  2.4288 -1.3100 -2.2859
  237MOL0     H31271   8.649   5.630   2.379  0.0106  0.2976  1.5833
  237MOL0     H31272   8.782   5.777   1.955 -1.6452  1.9748  2.8788
  237MOL0     H31273   8.956   5.776   1.789 -2.3417  0.8771  0.2986
  237MOL0     H31274   9.330   5.668   1.726  2.0933 -3.5925  0.5940
  237MOL0     H31275   9.314   5.633   1.898 -2.0261  1.7372  0.6627
  237MOL0     H31276   9.452   5.874   1.763  1.8726 -1.0234 -1.1139
  237MOL0     H31277   9.446   5.867   1.940  4.9976  2.4784 -1.4209
  237MOL0     H31278   9.548   5.654   1.942 -1.1317 -4.3236 -3.2133
  237MOL0     H31279   9.646   5.798   1.906 -2.3314  0.0492  0.4397
  237MOL0     H31280   9.569   5.548   1.757 -0.5542 -0.6889  0.5500
  237MOL0     H31281   9.565   5.685   1.655  0.1394 -1.9208 -0.2700
  237MOL0     H31282   9.994   5.635   1.717  0.9156  1.8432  2.4235
  237MOL0     H31283   9.264   5.788   2.082  0.4686 -1.7014 -0.3630
  237MOL0     H31284   9.089   5.795   2.258 -1.4529 -2.7351 -0.9090
  238MOL0     O31285   7.348   2.593   0.653 -0.4367 -0.5221  0.0166
  238MOL0     C31286   7.402   2.550   0.756 -0.2686 -0.8310 -0.9309
  238MOL0     O31287   7.334   2.512   0.867  0.3797  0.5050  0.2255
  238MOL0     C31288   7.195   2.496   0.858  0.1742 -0.5563 -0.1512
  238MOL0     C31289   7.137   2.374   0.822  1.3807 -0.1515  0.9100
  238MOL0     C31290   6.992   2.365   0.818  0.9891 -0.0995 -0.1027
  238MOL0     C31291   6.907   2.478   0.855 -0.3930  0.7770  0.9795
  238MOL0     O31292   6.773   2.458   0.874  0.4030  0.5927  0.1645
  238MOL0     C31293   6.698   2.574   0.908 -0.2839  0.7866  0.8195
  238MOL0     C31294   6.557   2.538   0.906  0.2050 -0.2079  0.2191
  238MOL0     C31295   6.484   2.669   0.897  0.8517 -0.2857  0.2433
  238MOL0     C31296   6.332   2.652   0.939 -0.2749 -0.3558 -1.1144
  238MOL0     C31297   6.244   2.781   0.931 -0.2358 -0.6861 -0.4033
  238MOL0     C31298   6.114   2.752   0.993  0.0382  0.5535  0.8077
  238MOL0     C31299   6.024   2.887   0.966 -0.1079 -0.4672 -0.1683
  238MOL0     C31300   5.886   2.877   1.035  0.0245 -0.0442  0.3239
  238MOL0     N31301   5.819   3.003   1.028  1.1232 -0.6247  0.0796
  238MOL0     C31302   5.831   3.103   1.122 -0.5722  0.3024  0.8166
  238MOL0     C31303   5.725   3.184   1.088 -1.8964  0.2196  0.8984
  238MOL0     C31304   5.697   3.305   1.159 -0.4283 -1.0827 -0.3593
  238MOL0     C31305   5.800   3.424   1.123  0.6428  0.2389  1.6258
  238MOL0     C31306   5.773   3.546   1.215 -0.2126  0.0335 -1.1558
  238MOL0     C31307   5.632   3.604   1.191 -0.0376 -0.1885 -1.0272
  238MOL0     O31308   5.624   3.634   1.054 -0.0321  0.3998 -0.1488
  238MOL0     C31309   5.501   3.670   1.011 -0.2079 -0.3720 -0.3994
  238MOL0     C31310   5.456   3.625   0.883 -1.2695 -0.0026 -0.5087
  238MOL0     C31311   5.336   3.680   0.835  0.0647  0.3621  0.2470
  238MOL0     C31312   5.265   3.778   0.905 -0.0491  0.2914  0.2492
  238MOL0     C31313   5.129   3.820   0.861 -0.0748 -0.6079  0.8472
  238MOL0     O31314   5.124   3.820   0.718 -0.2474  0.6677 -0.0019
  238MOL0     C31315   5.011   3.861   0.649 -0.2054  0.3994 -0.8244
  238MOL0     C31316   5.036   3.863   0.516 -0.0826 -0.1319  0.7486
  238MOL0     C31317   4.934   3.909   0.429 -0.6102 -0.2766  0.5618
  238MOL0     C31318   4.811   3.951   0.481 -0.7046  0.3949  0.4131
  238MOL0     O31319   4.719   3.995   0.382  0.0821  0.2531  0.0997
  238MOL0     C31320   4.608   4.084   0.416  0.7912  0.4374 -0.7740
  238MOL0     C31321   4.474   4.009   0.453 -0.0834 -1.2142 -0.7201
  238MOL0     C31322   4.355   4.109   0.453  0.4626  0.2296 -0.4608
  238MOL0     C31323   4.228   4.049   0.508 -0.2664 -0.2908 -0.0909
  238MOL0     C31324   4.118   4.137   0.527  0.5987 -0.1786  0.2714
  238MOL0     C31325   4.140   4.275   0.601  0.1720 -0.9138  0.5805
  238MOL0     C31326   4.002   4.350   0.607 -0.5984  0.4437  0.3290
  238MOL0     C31327   4.027   4.500   0.646 -1.4714 -0.0915  1.0998
  238MOL0    Cl31328   3.858   4.563   0.648  0.5517 -0.4560 -0.0273
  238MOL0     C31329   4.791   3.945   0.617 -0.2506  0.1444  0.6795
  238MOL0     C31330   4.893   3.906   0.699  0.5048 -0.3509 -0.4719
  238MOL0     O31331   5.052   3.870   0.933 -0.8186 -0.8982 -0.5901
  238MOL0     C31332   5.307   3.822   1.033  0.2653 -0.8807  0.3462
  238MOL0     C31333   5.421   3.760   1.084 -0.4139  0.1026 -0.4267
  238MOL0     N31334   5.669   3.143   0.975 -0.7430  0.3675 -0.4863
  238MOL0     N31335   5.728   3.039   0.934 -0.8443 -0.2676 -0.0033
  238MOL0     C31336   6.967   2.597   0.892 -0.5529  1.0811  0.7571
  238MOL0     C31337   7.110   2.605   0.890  0.3851 -0.6047  0.3635
  238MOL0     C31338   7.548   2.554   0.774 -0.8615 -0.7673  0.6826
  238MOL0     C31339   7.611   2.477   0.868  0.3568 -0.2432 -1.0232
  238MOL0     C31340   7.753   2.467   0.879  0.3954  0.1110 -0.5948
  238MOL0     C31341   7.835   2.541   0.801  0.5843  0.4009  1.7476
  238MOL0     O31342   7.972   2.564   0.791 -0.1576 -0.2174 -0.3418
  238MOL0     C31343   8.046   2.461   0.858  0.1130  0.7794 -0.4903
  238MOL0     C31344   8.193   2.488   0.882  0.4819  0.0750  0.4592
  238MOL0     C31345   8.204   2.635   0.934  0.5074  0.0816 -0.0068
  238MOL0     C31346   8.350   2.686   0.939  0.6610  0.4685 -0.3072
  238MOL0     C31347   8.350   2.819   1.000  0.4437 -0.2906  0.6885
  238MOL0     C31348   8.365   2.932   1.026 -0.6464  0.3594 -1.1153
  238MOL0     C31349   7.776   2.623   0.707  0.2029  0.2692  0.3319
  238MOL0     C31350   7.637   2.624   0.689 -0.8604 -0.1405  0.0869
  238MOL0     H31351   7.205   2.297   0.786  2.5648  1.1252  0.3088
  238MOL0     H31352   6.941   2.270   0.806 -3.9203  1.1680  5.6426
  238MOL0     H31353   6.727   2.663   0.851  0.4187  0.1483  0.1467
  238MOL0     H31354   6.727   2.605   1.009  2.9435  0.2243  0.1762
  238MOL0     H31355   6.538   2.477   0.995 -0.1723 -0.0977  0.2154
  238MOL0     H31356   6.539   2.474   0.819  1.0962 -1.3364  0.8300
  238MOL0     H31357   6.486   2.713   0.797 -0.1619 -0.3950  0.1701
  238MOL0     H31358   6.530   2.741   0.966 -2.0123  1.4374  0.4983
  238MOL0     H31359   6.289   2.577   0.873  0.2033  1.2174 -3.3096
  238MOL0     H31360   6.330   2.620   1.044  0.0056 -1.2140 -1.3653
  238MOL0     H31361   6.232   2.801   0.824 -0.2843  1.7258  0.0021
  238MOL0     H31362   6.283   2.873   0.976 -6.6993  2.8085 -0.6821
  238MOL0     H31363   6.115   2.720   1.098 -0.4415  0.2051  0.7125
  238MOL0     H31364   6.064   2.674   0.934 -1.3684  1.5437  0.6581
  238MOL0     H31365   6.075   2.972   1.013  0.6397 -1.1782  0.3192
  238MOL0     H31366   6.010   2.906   0.859 -3.2351  2.8726  0.6018
  238MOL0     H31367   5.896   2.849   1.140  1.3010 -1.3207 -0.1120
  238MOL0     H31368   5.838   2.802   0.971  1.4135 -1.9721  1.4454
  238MOL0     H31369   5.905   3.109   1.200 -1.5881 -0.8460  1.9138
  238MOL0     H31370   5.689   3.276   1.265 -4.8011  2.7661  0.6948
  238MOL0     H31371   5.593   3.333   1.140 -0.7391 -0.9553  1.3074
  238MOL0     H31372   5.782   3.447   1.018  0.2613 -0.8929  1.4346
  238MOL0     H31373   5.901   3.395   1.150  0.7480 -0.2802  0.7033
  238MOL0     H31374   5.771   3.515   1.320  0.5064  3.1693 -0.1131
  238MOL0     H31375   5.845   3.628   1.212 -3.2007  2.8828 -0.4127
  238MOL0     H31376   5.620   3.694   1.253  0.9747 -0.6226 -0.1605
  238MOL0     H31377   5.554   3.533   1.219  1.3304 -1.7786 -1.0828
  238MOL0     H31378   5.507   3.547   0.828 -1.0063 -0.0888 -0.1480
  238MOL0     H31379   5.292   3.641   0.744 -0.7108  0.5444  0.5348
  238MOL0     H31380   5.134   3.855   0.469 -0.9850 -3.3324 -0.8992
  238MOL0     H31381   4.943   3.921   0.322  0.8567  1.6446  0.8390
  238MOL0     H31382   4.585   4.142   0.326 -1.0454  0.0106 -0.6093
  238MOL0     H31383   4.631   4.151   0.500 -0.7092  1.8015 -1.4072
  238MOL0     H31384   4.484   3.953   0.546 -3.5306  1.0164  1.2450
  238MOL0     H31385   4.456   3.934   0.376 -2.5371  1.0813 -2.5593
  238MOL0     H31386   4.332   4.134   0.349  1.6688  2.0792 -0.3197
  238MOL0     H31387   4.380   4.206   0.496  0.3681  0.3418 -0.6592
  238MOL0     H31388   4.191   3.965   0.450 -0.0998 -1.2612  1.1508
  238MOL0     H31389   4.252   4.005   0.606  0.1608  0.2714  0.0620
  238MOL0     H31390   4.045   4.080   0.585  0.0523 -1.1043 -1.2505
  238MOL0     H31391   4.079   4.146   0.425  0.7611 -1.7431  0.0485
  238MOL0     H31392   4.220   4.330   0.550  0.0265  1.0532  2.3429
  238MOL0     H31393   4.175   4.272   0.704  0.3864  0.0513  0.5453
  238MOL0     H31394   3.945   4.351   0.513  2.0550 -1.3638 -1.4539
  238MOL0     H31395   3.935   4.297   0.674  1.2179 -2.5741 -0.0426
  238MOL0     H31396   4.081   4.550   0.566 -2.8809  1.2345  0.9354
  238MOL0     H31397   4.064   4.529   0.745 -3.2457  2.3060  1.1335
  238MOL0     H31398   4.692   3.975   0.652 -1.4349 -0.6417 -1.7890
  238MOL0     H31399   4.871   3.910   0.806 -4.9344 -1.7479 -1.2062
  238MOL0     H31400   5.258   3.900   1.089  2.1111  0.7821 -0.2307
  238MOL0     H31401   5.455   3.790   1.182 -3.3799  3.3215 -0.1762
  238MOL0     H31402   6.921   2.687   0.932 -2.7681  0.4014 -0.1315
  238MOL0     H31403   7.175   2.689   0.915  0.3009 -0.6145  0.6280
  238MOL0     H31404   7.554   2.409   0.931  1.5333  0.6339  1.0952
  238MOL0     H31405   7.793   2.404   0.957 -0.7089  1.5434  1.2111
  238MOL0     H31406   8.038   2.368   0.802  2.0164  0.8149 -0.8781
  238MOL0     H31407   8.008   2.443   0.959  1.3368 -1.0803 -0.3272
  238MOL0     H31408   8.237   2.415   0.951 -0.2963  1.6048  2.6903
  238MOL0     H31409   8.237   2.476   0.783  0.3075 -3.3584  0.6635
  238MOL0     H31410   8.163   2.629   1.035 -0.1985  0.0189 -0.2947
  238MOL0     H31411   8.146   2.705   0.873 -0.0606 -1.0139 -0.7376
  238MOL0     H31412   8.427   2.624   0.986  0.5750 -1.7683 -2.8130
  238MOL0     H31413   8.392   2.689   0.838  1.6851  0.3484  0.0992
  238MOL0     H31414   8.374   3.038   1.044  4.1381  0.1430 -0.8882
  238MOL0     H31415   7.819   2.696   0.640 -1.1376  0.6542 -0.1226
  238MOL0     H31416   7.584   2.690   0.621 -3.0457 -2.0545 -0.1919
  239MOL0     O31417   0.075   2.347   6.394 -0.0176 -0.4666  0.7616
  239MOL0     C31418   0.107   2.327   6.275 -0.1463 -0.3181  0.3718
  239MOL0     O31419   0.025   2.344   6.166 -0.5353  0.0486 -0.5410
  239MOL0     C31420  -0.103   2.398   6.159 -0.0699  0.1706 -0.5972
  239MOL0     C31421  -0.141   2.430   6.032  0.7938  0.1247  0.0628
  239MOL0     C31422  -0.268   2.488   6.007 -0.6489 -0.1651 -0.3721
  239MOL0     C31423  -0.357   2.515   6.120 -1.2972  1.0586  0.1597
  239MOL0     O31424  -0.489   2.557   6.101 -0.3921 -0.9479 -0.3974
  239MOL0     C31425  -0.561   2.555   5.974 -0.4990  0.1584  0.0577
  239MOL0     C31426  -0.682   2.642   5.960 -0.1249 -0.4535 -0.1588
  239MOL0     C31427  -0.800   2.613   6.055  0.6180  0.1546  0.4747
  239MOL0     C31428  -0.908   2.723   6.038  0.0909 -0.1146 -1.0229
  239MOL0     C31429  -1.024   2.703   6.143  0.6096  0.1930  0.4016
  239MOL0     C31430  -1.135   2.805   6.154  0.6646 -0.2280 -0.7471
  239MOL0     C31431  -1.198   2.832   6.023  0.6157  0.0231  0.6961
  239MOL0     C31432  -1.326   2.909   6.042  0.0956 -0.2857 -0.7588
  239MOL0     N31433  -1.414   2.918   5.928 -0.5460  0.0561 -0.4772
  239MOL0     C31434  -1.512   2.830   5.888  0.1663 -0.2048 -0.9965
  239MOL0     C31435  -1.564   2.891   5.778 -0.8356  0.4965  0.2870
  239MOL0     C31436  -1.675   2.837   5.698  0.2294 -0.2476  0.0948
  239MOL0     C31437  -1.816   2.880   5.750 -0.0819  0.1679  0.0198
  239MOL0     C31438  -1.875   2.796   5.859 -0.0212  0.9921 -0.3739
  239MOL0     C31439  -2.026   2.818   5.879  0.1077 -0.0031  0.0239
  239MOL0     O31440  -2.108   2.823   5.758  0.6920  0.0830 -0.6944
  239MOL0     C31441  -2.238   2.810   5.776 -0.5745 -0.2012  0.1027
  239MOL0     C31442  -2.290   2.719   5.692  0.4869  1.0868  0.5128
  239MOL0     C31443  -2.423   2.690   5.694 -0.2790  0.1652 -0.4108
  239MOL0     C31444  -2.506   2.771   5.770 -0.8248 -0.0058  0.4264
  239MOL0     C31445  -2.651   2.749   5.767 -0.1768 -0.0759  0.4818
  239MOL0     O31446  -2.698   2.650   5.676 -0.1013 -0.0121 -0.3912
  239MOL0     C31447  -2.829   2.622   5.704 -0.2237 -0.1129  0.4000
  239MOL0     C31448  -2.888   2.591   5.831 -0.9094  0.4965  0.1598
  239MOL0     C31449  -3.019   2.570   5.846  0.4980 -0.0650  0.8862
  239MOL0     C31450  -3.110   2.584   5.745 -0.3415  0.4633 -0.0703
  239MOL0     O31451  -3.240   2.554   5.768 -0.8212  0.4374 -0.2517
  239MOL0     C31452  -3.327   2.588   5.669 -0.3879  0.2713 -0.1372
  239MOL0     C31453  -3.464   2.574   5.734 -0.7326  0.1733  0.6792
  239MOL0     C31454  -3.492   2.671   5.839 -0.5929 -0.2858  0.3679
  239MOL0     C31455  -3.634   2.649   5.900 -0.3917 -0.5501  0.0766
  239MOL0     C31456  -3.654   2.739   6.028 -0.1840  0.6481  0.8245
  239MOL0     C31457  -3.653   2.892   6.000 -0.0609  0.3261 -0.2281
  239MOL0     C31458  -3.714   2.954   6.132 -0.2324 -0.1367  0.0355
  239MOL0     C31459  -3.743   3.102   6.110  0.3239  0.3786  1.0447
  239MOL0    Cl31460  -3.822   3.180   6.247 -0.1213 -0.2188  0.3763
  239MOL0     C31461  -3.059   2.606   5.612  0.2337  1.0280 -0.0454
  239MOL0     C31462  -2.917   2.620   5.593 -0.0708 -0.1230  0.3318
  239MOL0     O31463  -2.714   2.815   5.851  0.6715  0.8593  0.7822
  239MOL0     C31464  -2.449   2.869   5.859 -1.3918 -0.3274  0.5883
  239MOL0     C31465  -2.309   2.889   5.864 -0.0047 -0.3243  0.4215
  239MOL0     N31466  -1.492   3.007   5.752  0.0790  0.4242  0.0227
  239MOL0     N31467  -1.395   3.025   5.844  0.3053  0.6345  0.3032
  239MOL0     C31468  -0.312   2.480   6.244 -0.7739 -0.2029  0.5741
  239MOL0     C31469  -0.183   2.433   6.268 -0.5541 -0.1337  0.4377
  239MOL0     C31470   0.242   2.284   6.252 -0.4841 -0.0846  0.2612
  239MOL0     C31471   0.337   2.276   6.358  0.7837  0.4040  0.6429
  239MOL0     C31472   0.468   2.232   6.337 -0.4344 -0.1557 -0.0435
  239MOL0     C31473   0.509   2.209   6.205  0.4113  0.3765  0.3483
  239MOL0     O31474   0.639   2.185   6.167 -0.8511  0.5066  1.4099
  239MOL0     C31475   0.746   2.230   6.251  0.5655  0.4642 -0.5660
  239MOL0     C31476   0.881   2.181   6.210 -0.0709 -0.3269 -0.0005
  239MOL0     C31477   0.988   2.254   6.296 -0.0814  0.6119  0.1918
  239MOL0     C31478   1.130   2.244   6.241 -0.0372 -0.4440 -0.2103
  239MOL0     C31479   1.224   2.283   6.350 -0.0800 -0.2229 -0.1834
  239MOL0     C31480   1.296   2.304   6.444  0.5828  0.1286  0.4181
  239MOL0     C31481   0.406   2.208   6.104  0.3229  0.6619 -0.5874
  239MOL0     C31482   0.281   2.255   6.120  0.1336 -0.6116 -0.4379
  239MOL0     H31483  -0.074   2.399   5.953  1.5273 -0.3780  0.8643
  239MOL0     H31484  -0.287   2.512   5.903  1.7825 -0.8664 -1.0562
  239MOL0     H31485  -0.583   2.449   5.957 -1.4646  0.2388  0.6964
  239MOL0     H31486  -0.497   2.591   5.893 -0.9681 -1.0669 -0.8858
  239MOL0     H31487  -0.714   2.640   5.856  2.6298  2.5249 -1.2251
  239MOL0     H31488  -0.654   2.747   5.970 -1.2885 -0.1612  0.2999
  239MOL0     H31489  -0.766   2.596   6.157  4.2984  0.3338 -0.6062
  239MOL0     H31490  -0.847   2.518   6.029 -1.9171  1.0774  1.3290
  239MOL0     H31491  -0.876   2.826   6.055 -0.2692  0.0476 -1.3277
  239MOL0     H31492  -0.952   2.720   5.938 -3.7595 -2.3511  0.4866
  239MOL0     H31493  -0.981   2.702   6.244 -1.9468  2.3683  1.6496
  239MOL0     H31494  -1.072   2.607   6.124 -2.2111  1.0827  2.2778
  239MOL0     H31495  -1.101   2.899   6.198 -3.7447  2.3666 -2.2622
  239MOL0     H31496  -1.205   2.773   6.232  2.2178 -0.5664  0.5588
  239MOL0     H31497  -1.127   2.883   5.958 -0.2261 -1.0596 -1.1713
  239MOL0     H31498  -1.219   2.739   5.970 -3.7534  0.5106  1.1633
  239MOL0     H31499  -1.299   3.011   6.072  1.0638 -0.5957 -0.5424
  239MOL0     H31500  -1.370   2.858   6.127  3.3588  1.5259  2.2829
  239MOL0     H31501  -1.545   2.744   5.945  2.0270  0.8884  1.9717
  239MOL0     H31502  -1.670   2.728   5.692  0.0097 -0.2549  0.0102
  239MOL0     H31503  -1.658   2.892   5.604  0.7555 -0.3397  0.1384
  239MOL0     H31504  -1.885   2.878   5.665 -0.0093  0.4083 -0.0476
  239MOL0     H31505  -1.823   2.985   5.783 -1.5930  0.4833 -1.1763
  239MOL0     H31506  -1.847   2.693   5.834 -0.3076  0.8994 -0.3160
  239MOL0     H31507  -1.817   2.808   5.951  0.6955 -1.3880 -0.4351
  239MOL0     H31508  -2.035   2.918   5.922 -0.8396 -0.3823  0.7386
  239MOL0     H31509  -2.072   2.747   5.948  1.0477  1.4522  2.2802
  239MOL0     H31510  -2.234   2.660   5.620  0.5696  1.4330  0.2896
  239MOL0     H31511  -2.462   2.613   5.628  2.7818 -1.3317 -0.6438
  239MOL0     H31512  -2.823   2.587   5.919 -0.7195  1.5145  0.0731
  239MOL0     H31513  -3.063   2.568   5.945  1.4086  2.0366  1.3841
  239MOL0     H31514  -3.316   2.519   5.585 -1.6831 -1.7366  1.2566
  239MOL0     H31515  -3.322   2.694   5.641 -2.0739  0.6066  0.7061
  239MOL0     H31516  -3.474   2.470   5.765 -0.4254  0.8448  3.2514
  239MOL0     H31517  -3.530   2.603   5.651 -1.0580  0.2720  0.9679
  239MOL0     H31518  -3.483   2.774   5.801 -0.6251  0.4145  2.1744
  239MOL0     H31519  -3.419   2.658   5.919 -4.5061  0.3274  4.4138
  239MOL0     H31520  -3.725   2.673   5.844  0.2747 -0.4837 -1.0119
  239MOL0     H31521  -3.645   2.547   5.937  0.6873  0.1206  2.4095
  239MOL0     H31522  -3.572   2.736   6.100  2.1130 -0.8605 -1.6496
  239MOL0     H31523  -3.745   2.708   6.080 -1.5487  1.9577 -0.6607
  239MOL0     H31524  -3.723   2.910   5.917 -1.6099 -1.6068  0.5643
  239MOL0     H31525  -3.553   2.927   5.974 -0.6976 -0.4268 -4.2908
  239MOL0     H31526  -3.801   2.903   6.175 -0.6603  0.3070 -0.2857
  239MOL0     H31527  -3.637   2.960   6.209  0.3743 -0.3731 -0.5472
  239MOL0     H31528  -3.805   3.113   6.021  0.9676 -0.6584  0.4513
  239MOL0     H31529  -3.646   3.147   6.090  1.3362 -2.1401 -0.2047
  239MOL0     H31530  -3.125   2.625   5.528 -2.4765 -1.7523  1.2493
  239MOL0     H31531  -2.875   2.642   5.495  5.3211  0.8032  2.4562
  239MOL0     H31532  -2.514   2.923   5.927 -2.0174 -2.5133  1.8135
  239MOL0     H31533  -2.279   2.965   5.936 -1.0591  1.3882 -0.8706
  239MOL0     H31534  -0.376   2.483   6.332 -0.4948 -0.1989  0.7787
  239MOL0     H31535  -0.141   2.409   6.365  0.1035 -1.7081 -0.1968
  239MOL0     H31536   0.287   2.293   6.453 -0.3606 -0.6321  0.2569
  239MOL0     H31537   0.541   2.230   6.417  3.7765  3.2464 -3.2703
  239MOL0     H31538   0.735   2.180   6.348  1.5480 -1.2753 -1.3163
  239MOL0     H31539   0.741   2.338   6.268 -2.4019  0.3703 -0.2981
  239MOL0     H31540   0.882   2.072   6.214 -0.4806 -0.4042 -1.3337
  239MOL0     H31541   0.889   2.216   6.106 -1.1770 -1.8245 -0.6344
  239MOL0     H31542   0.994   2.220   6.400 -0.4580 -1.6958 -0.4903
  239MOL0     H31543   0.973   2.362   6.283 -1.2179  0.1882 -2.6700
  239MOL0     H31544   1.145   2.143   6.201  1.1514 -0.2773 -0.2301
  239MOL0     H31545   1.143   2.313   6.157  1.6441 -0.0071  0.3637
  239MOL0     H31546   1.357   2.320   6.530  2.8120 -0.4385 -0.9765
  239MOL0     H31547   0.429   2.180   6.001 -3.5841 -0.9336 -1.1837
  239MOL0     H31548   0.210   2.243   6.039 -1.5039 -1.2048  1.0227
  240MOL0     O31549   0.511   8.052   5.469  0.5401  1.1973  0.0474
  240MOL0     C31550   0.444   8.121   5.390  0.4438  1.3908 -1.0272
  240MOL0     O31551   0.495   8.208   5.296  0.1649  0.0204  0.1003
  240MOL0     C31552   0.628   8.222   5.267 -0.4215 -0.2862  0.1706
  240MOL0     C31553   0.657   8.322   5.171 -0.2905  0.4801  0.1310
  240MOL0     C31554   0.794   8.366   5.149  0.7234  0.4106 -0.4985
  240MOL0     C31555   0.899   8.291   5.204 -0.5253  0.2470  0.4410
  240MOL0     O31556   1.027   8.307   5.167 -0.5628 -0.2189  0.6810
  240MOL0     C31557   1.067   8.421   5.078  0.5424  0.6290  0.0254
  240MOL0     C31558   1.212   8.382   5.041 -0.3576  0.2300 -0.5047
  240MOL0     C31559   1.282   8.498   4.969  0.9759 -0.2677 -0.2163
  240MOL0     C31560   1.429   8.462   4.956 -0.0842 -0.3306  0.2228
  240MOL0     C31561   1.511   8.575   4.891  0.4599  0.0713  0.3352
  240MOL0     C31562   1.611   8.520   4.797 -0.8148  0.3568  0.2184
  240MOL0     C31563   1.670   8.643   4.733 -0.2006 -0.3380 -0.2199
  240MOL0     C31564   1.794   8.608   4.648 -0.0971  0.3191 -0.1002
  240MOL0     N31565   1.775   8.518   4.537 -0.2119  1.6320 -0.1502
  240MOL0     C31566   1.835   8.391   4.531 -0.7588 -0.2679 -0.3489
  240MOL0     C31567   1.830   8.341   4.405  0.5795  0.1912 -0.4911
  240MOL0     C31568   1.868   8.196   4.375 -0.0164  0.2588  0.1795
  240MOL0     C31569   1.746   8.104   4.378 -0.4191 -1.4487 -0.1414
  240MOL0     C31570   1.703   8.056   4.517  0.2121 -0.0068 -0.5567
  240MOL0     C31571   1.580   7.959   4.497  0.6228  0.1287 -0.0232
  240MOL0     O31572   1.607   7.841   4.427  0.0720 -0.3538 -0.6358
  240MOL0     C31573   1.494   7.758   4.427  1.0825  0.1405  0.9355
  240MOL0     C31574   1.365   7.794   4.456  0.7513  0.4655 -0.0357
  240MOL0     C31575   1.267   7.697   4.471  0.0889  0.7442 -0.5116
  240MOL0     C31576   1.299   7.555   4.438 -0.1701 -0.5373 -1.4322
  240MOL0     C31577   1.204   7.445   4.458 -0.2449  0.1063  0.2604
  240MOL0     O31578   1.081   7.473   4.484 -0.2176 -0.3532  0.0190
  240MOL0     C31579   1.002   7.378   4.532  0.1775  0.8567  0.4554
  240MOL0     C31580   0.938   7.282   4.457 -0.1863 -0.6296  0.4875
  240MOL0     C31581   0.844   7.199   4.517  0.1487 -0.8940  0.3239
  240MOL0     C31582   0.815   7.213   4.657  0.5718  0.4363  0.6097
  240MOL0     O31583   0.717   7.132   4.710 -0.0278 -0.5944 -0.0340
  240MOL0     C31584   0.637   7.178   4.812 -0.1946 -0.4470 -0.3019
  240MOL0     C31585   0.547   7.068   4.876  0.1172 -0.7888 -0.6216
  240MOL0     C31586   0.476   6.972   4.777 -0.1769  0.4808 -0.7785
  240MOL0     C31587   0.382   7.047   4.697 -0.0210  0.4948  0.1985
  240MOL0     C31588   0.301   6.955   4.606 -0.3421  1.0542 -1.0085
  240MOL0     C31589   0.154   6.969   4.629  0.4872  0.5112 -0.4423
  240MOL0     C31590   0.075   6.899   4.526  0.3634 -0.0998 -0.4434
  240MOL0     C31591  -0.076   6.921   4.540  0.0076 -1.4600 -1.2346
  240MOL0    Cl31592  -0.113   7.102   4.538 -0.4529 -0.1771  0.3130
  240MOL0     C31593   0.890   7.302   4.729  0.1497 -0.0983  0.6939
  240MOL0     C31594   0.993   7.372   4.672 -0.4771 -0.7585  1.1208
  240MOL0     O31595   1.257   7.336   4.456  0.4548  0.9638 -0.1215
  240MOL0     C31596   1.430   7.531   4.397  0.1981 -0.5188  0.4795
  240MOL0     C31597   1.528   7.628   4.389  0.6523 -0.3997 -0.0472
  240MOL0     N31598   1.761   8.440   4.331  0.1492  0.0907 -0.0324
  240MOL0     N31599   1.737   8.539   4.408  0.8244 -0.0027 -0.6883
  240MOL0     C31600   0.877   8.178   5.285 -0.4323  0.3822  0.7260
  240MOL0     C31601   0.736   8.150   5.320 -0.1698 -0.3557  1.1418
  240MOL0     C31602   0.294   8.124   5.398  0.6304  0.5049 -0.7401
  240MOL0     C31603   0.215   8.159   5.289 -0.3233  0.5659  0.8431
  240MOL0     C31604   0.072   8.159   5.288 -0.9142  1.5084 -0.5431
  240MOL0     C31605   0.014   8.128   5.409  0.0187 -0.2025 -0.1882
  240MOL0     O31606  -0.123   8.123   5.417  0.2800 -0.9211  1.0682
  240MOL0     C31607  -0.196   8.239   5.370  0.4744  0.4007  0.0834
  240MOL0     C31608  -0.138   8.380   5.413  0.1230 -0.1009 -1.1203
  240MOL0     C31609  -0.247   8.489   5.408 -0.0365 -0.6400  0.5406
  240MOL0     C31610  -0.182   8.618   5.468 -0.3138  0.6649 -0.0062
  240MOL0     C31611  -0.285   8.720   5.513 -0.1505 -0.2298 -0.5658
  240MOL0     C31612  -0.365   8.815   5.533 -0.4252 -0.6823  0.1736
  240MOL0     C31613   0.091   8.078   5.515 -0.7527 -0.7891  0.1779
  240MOL0     C31614   0.229   8.080   5.509  0.0762 -1.1684  0.2918
  240MOL0     H31615   0.580   8.370   5.111  2.7137  3.5964 -1.5909
  240MOL0     H31616   0.818   8.454   5.091 -0.7166 -0.0589 -1.8726
  240MOL0     H31617   1.046   8.519   5.120  0.9155  0.5278  0.4546
  240MOL0     H31618   0.998   8.418   4.993 -0.2484  3.1981  0.5022
  240MOL0     H31619   1.219   8.298   4.971 -2.2515 -1.2553  0.9580
  240MOL0     H31620   1.262   8.361   5.136  2.2275  1.4266 -1.5127
  240MOL0     H31621   1.278   8.588   5.031 -0.0805 -1.3349  1.3553
  240MOL0     H31622   1.238   8.525   4.873 -0.3361  1.7819  0.8736
  240MOL0     H31623   1.477   8.447   5.053  0.8065  0.3240 -0.1002
  240MOL0     H31624   1.451   8.364   4.913 -1.6234 -0.6890  0.1817
  240MOL0     H31625   1.565   8.631   4.968  1.7078  0.4189 -0.7674
  240MOL0     H31626   1.451   8.646   4.833  0.2636 -0.0740  0.3584
  240MOL0     H31627   1.572   8.445   4.728  1.1323 -2.0853  1.6032
  240MOL0     H31628   1.690   8.468   4.853 -0.0493 -1.1186 -2.0684
  240MOL0     H31629   1.597   8.705   4.680 -3.1456 -1.4187  2.2454
  240MOL0     H31630   1.709   8.715   4.806  2.0080 -1.0486 -0.6364
  240MOL0     H31631   1.861   8.561   4.720  0.9003  1.9972  0.1198
  240MOL0     H31632   1.842   8.688   4.591  2.1730 -1.2331 -0.4977
  240MOL0     H31633   1.863   8.337   4.620  2.4600 -0.2943 -1.2510
  240MOL0     H31634   1.947   8.170   4.446  1.3317 -3.3367 -2.3167
  240MOL0     H31635   1.910   8.191   4.275 -1.2622  0.2191 -0.3586
  240MOL0     H31636   1.776   8.019   4.315  2.3244  0.6271 -1.8839
  240MOL0     H31637   1.663   8.158   4.330 -2.1620 -1.0123  3.1147
  240MOL0     H31638   1.788   8.006   4.565  0.5229 -0.7306 -1.8020
  240MOL0     H31639   1.664   8.137   4.579  2.3394  0.0311  0.8266
  240MOL0     H31640   1.503   8.018   4.447 -0.3935 -2.3437 -1.5443
  240MOL0     H31641   1.553   7.940   4.602 -1.8090  2.9453 -0.0111
  240MOL0     H31642   1.330   7.896   4.454  3.2670  1.4693  1.7860
  240MOL0     H31643   1.166   7.728   4.497  0.3243 -0.7977  2.6358
  240MOL0     H31644   0.963   7.272   4.352 -0.6897  0.3413  0.2602
  240MOL0     H31645   0.795   7.113   4.472 -1.5200 -1.4377  2.9893
  240MOL0     H31646   0.572   7.253   4.766  0.1707  0.8376  1.2044
  240MOL0     H31647   0.695   7.224   4.892  0.6070  0.8534 -1.5950
  240MOL0     H31648   0.470   7.116   4.938  0.8420 -0.7692  0.2818
  240MOL0     H31649   0.614   7.008   4.939  1.3461  0.0512 -1.0877
  240MOL0     H31650   0.421   6.894   4.831  0.9582 -0.5911 -1.1306
  240MOL0     H31651   0.551   6.920   4.718 -0.9206 -1.5112 -0.0461
  240MOL0     H31652   0.312   7.099   4.763  0.3333 -0.2144  1.1552
  240MOL0     H31653   0.435   7.124   4.640  0.2480  1.6190  1.9014
  240MOL0     H31654   0.320   6.853   4.640  0.4855  2.1389  2.1716
  240MOL0     H31655   0.331   6.967   4.501  1.7503  0.2791 -0.5545
  240MOL0     H31656   0.130   7.076   4.638  1.5426  0.8203 -1.1015
  240MOL0     H31657   0.143   6.917   4.725 -1.2320  3.1333  0.9122
  240MOL0     H31658   0.105   6.934   4.427 -0.3976  1.8602 -0.0276
  240MOL0     H31659   0.089   6.791   4.536 -0.9849 -0.2087  0.6742
  240MOL0     H31660  -0.110   6.868   4.630 -2.8047 -2.7219 -2.9024
  240MOL0     H31661  -0.119   6.879   4.449 -1.2411 -0.1168 -1.2867
  240MOL0     H31662   0.884   7.305   4.837 -3.1274 -2.2275  0.7213
  240MOL0     H31663   1.047   7.446   4.729  0.9159 -0.0458 -1.0016
  240MOL0     H31664   1.453   7.430   4.363  0.0832  0.4308 -2.8526
  240MOL0     H31665   1.631   7.616   4.356  1.6620  1.0201  2.3234
  240MOL0     H31666   0.968   8.125   5.313  0.0410  0.6537 -0.2570
  240MOL0     H31667   0.739   8.080   5.403 -3.0303 -2.2158 -0.1496
  240MOL0     H31668   0.251   8.195   5.193 -2.6618 -0.4940 -0.5128
  240MOL0     H31669   0.004   8.174   5.205 -0.2793  1.5607 -1.0669
  240MOL0     H31670  -0.300   8.242   5.404  0.8625  1.2523  1.2919
  240MOL0     H31671  -0.197   8.237   5.261 -0.3274 -3.4617  0.0217
  240MOL0     H31672  -0.113   8.371   5.519 -3.1326  1.7214 -0.0228
  240MOL0     H31673  -0.051   8.401   5.351  0.9194  1.4430  0.4272
  240MOL0     H31674  -0.332   8.456   5.468 -0.7473 -1.3899 -0.8201
  240MOL0     H31675  -0.265   8.502   5.300 -2.7424  4.0091  1.2969
  240MOL0     H31676  -0.132   8.590   5.562  0.2196 -2.0739 -1.0220
  240MOL0     H31677  -0.113   8.653   5.391 -0.5043  1.0812  0.0079
  240MOL0     H31678  -0.434   8.890   5.566 -0.4736 -0.0517 -1.3132
  240MOL0     H31679   0.026   8.038   5.592 -0.8611  2.5012  1.9491
  240MOL0     H31680   0.292   8.045   5.590  0.6220 -0.1586  0.3166
  241MOL0     O31681   1.078   9.705   1.985  0.0055  0.2273 -0.2298
  241MOL0     C31682   1.163   9.622   1.973  0.2343  0.4348 -0.5347
  241MOL0     O31683   1.144   9.495   1.937  0.0967 -0.2858 -0.0953
  241MOL0     C31684   1.017   9.440   1.916  0.5920 -0.1720 -0.1539
  241MOL0     C31685   0.944   9.499   1.816  0.5405  0.4292  0.0724
  241MOL0     C31686   0.821   9.439   1.776 -0.0296 -0.2027  0.6900
  241MOL0     C31687   0.768   9.329   1.848 -0.4011 -0.1270 -0.1038
  241MOL0     O31688   0.647   9.270   1.822  0.1681  0.5045 -0.0207
  241MOL0     C31689   0.621   9.251   1.678 -0.2980 -0.1596  0.3380
  241MOL0     C31690   0.506   9.164   1.652 -0.3571  0.4163 -0.3860
  241MOL0     C31691   0.516   9.016   1.710  0.5918  0.0108 -0.5322
  241MOL0     C31692   0.620   8.926   1.639 -0.5245  0.0982 -0.3045
  241MOL0     C31693   0.649   8.792   1.709  0.5928 -0.5970 -0.3610
  241MOL0     C31694   0.525   8.715   1.756 -0.0315  0.1830  0.2466
  241MOL0     C31695   0.556   8.583   1.832 -0.0961 -0.1644 -0.4453
  241MOL0     C31696   0.636   8.478   1.763 -0.6633 -0.3829 -0.0398
  241MOL0     N31697   0.594   8.460   1.627 -0.5405  0.0797  0.4088
  241MOL0     C31698   0.473   8.420   1.591  0.2632  0.7550  0.1821
  241MOL0     C31699   0.475   8.412   1.458 -0.3042  0.5012  0.1907
  241MOL0     C31700   0.362   8.382   1.385  0.5606 -0.4898  0.8137
  241MOL0     C31701   0.395   8.380   1.242  0.0922 -0.4561  1.0619
  241MOL0     C31702   0.281   8.337   1.157 -0.0842  0.0322  1.1590
  241MOL0     C31703   0.188   8.456   1.131  0.9841 -0.1741  0.6658
  241MOL0     O31704   0.058   8.415   1.068 -0.2400 -0.9255  0.1620
  241MOL0     C31705  -0.049   8.396   1.147  0.1490  0.0932 -0.4348
  241MOL0     C31706  -0.163   8.429   1.093  0.3370  0.8972  0.4524
  241MOL0     C31707  -0.290   8.406   1.161  0.3642  0.1710 -0.1023
  241MOL0     C31708  -0.300   8.345   1.283 -1.3044 -0.4276 -0.5109
  241MOL0     C31709  -0.417   8.311   1.357  0.6120  0.7720 -0.3656
  241MOL0     O31710  -0.531   8.369   1.311  0.0986 -0.5255  0.5947
  241MOL0     C31711  -0.654   8.301   1.335 -0.0882  0.2219  0.1324
  241MOL0     C31712  -0.761   8.394   1.333  0.4677  0.1923 -0.1058
  241MOL0     C31713  -0.884   8.343   1.352 -0.8602 -0.9844  0.0151
  241MOL0     C31714  -0.914   8.205   1.359  0.6136 -0.7849  0.0828
  241MOL0     O31715  -1.043   8.154   1.364  0.1724  0.3557  0.1049
  241MOL0     C31716  -1.146   8.246   1.324 -0.2600 -0.4161 -0.2483
  241MOL0     C31717  -1.272   8.166   1.305 -0.0826  0.3875  0.0037
  241MOL0     C31718  -1.384   8.257   1.252 -0.7905 -0.2159  1.5761
  241MOL0     C31719  -1.516   8.191   1.201 -0.2221  0.0441 -0.4493
  241MOL0     C31720  -1.585   8.145   1.333  0.5998  0.1352  0.5993
  241MOL0     C31721  -1.718   8.075   1.290  0.7626  0.2917  0.1469
  241MOL0     C31722  -1.827   8.172   1.235  0.1574  0.0933 -1.0403
  241MOL0     C31723  -1.953   8.191   1.318  1.1116  0.4762  0.4927
  241MOL0    Cl31724  -1.904   8.278   1.470 -0.5857 -0.0716 -0.2787
  241MOL0     C31725  -0.804   8.113   1.350  0.6136 -0.3312  0.0328
  241MOL0     C31726  -0.673   8.157   1.337  0.3411 -0.0118 -0.3120
  241MOL0     O31727  -0.412   8.223   1.449 -0.4051 -0.3166  0.1097
  241MOL0     C31728  -0.171   8.320   1.346 -0.5364  0.4003 -0.4568
  241MOL0     C31729  -0.049   8.342   1.276  0.4310 -0.5619  0.1139
  241MOL0     N31730   0.597   8.452   1.406  0.4148  0.1273 -0.6261
  241MOL0     N31731   0.660   8.479   1.513 -0.5308  0.1099  0.7308
  241MOL0     C31732   0.840   9.271   1.952  0.4121 -0.6926  0.4696
  241MOL0     C31733   0.966   9.330   1.979 -0.8810  0.3264  0.3426
  241MOL0     C31734   1.299   9.670   2.017 -0.4685  0.0819  0.1791
  241MOL0     C31735   1.413   9.625   1.952 -0.5272  0.1550 -0.1635
  241MOL0     C31736   1.543   9.650   2.006  0.0688  0.7325 -0.0210
  241MOL0     C31737   1.553   9.729   2.118  0.1847  0.1293 -0.4244
  241MOL0     O31738   1.665   9.779   2.174  0.1157 -0.1682  0.0254
  241MOL0     C31739   1.789   9.774   2.098 -0.4283 -0.5076 -0.3393
  241MOL0     C31740   1.885   9.655   2.127 -0.4880  0.3740  0.4754
  241MOL0     C31741   1.917   9.639   2.283 -0.1216 -0.1462 -0.0458
  241MOL0     C31742   2.053   9.568   2.310  0.8715 -1.0081  0.1674
  241MOL0     C31743   2.042   9.429   2.262  0.3625  1.3241 -1.1446
  241MOL0     C31744   2.037   9.313   2.229  0.5989 -0.2112 -0.7090
  241MOL0     C31745   1.439   9.786   2.174 -0.0736  0.0867  0.0486
  241MOL0     C31746   1.318   9.750   2.129  0.2893  0.6768  0.4059
  241MOL0     H31747   0.975   9.591   1.769 -0.8794  1.0031  0.2409
  241MOL0     H31748   0.759   9.492   1.705  3.3523  2.1698 -0.6995
  241MOL0     H31749   0.709   9.217   1.622 -1.4716 -1.2894 -0.8937
  241MOL0     H31750   0.599   9.351   1.638  0.4755 -0.8848 -2.1081
  241MOL0     H31751   0.503   9.152   1.543 -0.8247 -1.6556 -0.1902
  241MOL0     H31752   0.420   9.215   1.696 -0.0428 -1.6943  3.0694
  241MOL0     H31753   0.418   8.969   1.700  0.1385  0.4269  1.5868
  241MOL0     H31754   0.556   9.025   1.811  0.4480  0.0957 -0.4826
  241MOL0     H31755   0.578   8.911   1.539 -1.3297 -0.1508  0.0565
  241MOL0     H31756   0.713   8.982   1.626 -1.7328  3.6963  3.8649
  241MOL0     H31757   0.711   8.812   1.796 -0.8425  2.0157  0.1648
  241MOL0     H31758   0.705   8.729   1.640  0.0357  1.8084 -3.2504
  241MOL0     H31759   0.458   8.686   1.674  1.3570  0.5879 -1.0888
  241MOL0     H31760   0.465   8.778   1.822 -1.3496  1.9276 -2.4317
  241MOL0     H31761   0.610   8.612   1.923 -0.5842  0.0502 -0.2208
  241MOL0     H31762   0.465   8.535   1.870 -2.4798  2.8745 -1.8861
  241MOL0     H31763   0.637   8.377   1.804 -1.0598 -0.3306  0.1004
  241MOL0     H31764   0.742   8.505   1.768 -0.6125 -0.4246 -0.7495
  241MOL0     H31765   0.388   8.395   1.654 -0.0385 -0.4036 -0.6598
  241MOL0     H31766   0.291   8.461   1.410 -0.2253 -0.0726 -2.3328
  241MOL0     H31767   0.312   8.291   1.419 -0.8503 -0.1959 -0.3907
  241MOL0     H31768   0.464   8.296   1.234 -0.8718 -1.1958  0.1592
  241MOL0     H31769   0.431   8.473   1.197 -1.9042  0.1156  0.5314
  241MOL0     H31770   0.318   8.300   1.061  0.6145  2.3786  0.4558
  241MOL0     H31771   0.217   8.262   1.206 -1.6094  0.1099 -0.6147
  241MOL0     H31772   0.238   8.528   1.066 -1.8689  0.1247 -1.4084
  241MOL0     H31773   0.164   8.503   1.227  2.8675 -1.1701  1.6724
  241MOL0     H31774  -0.167   8.472   0.994 -0.5002  0.8271  0.4521
  241MOL0     H31775  -0.379   8.449   1.116  0.0829  0.8676  1.0666
  241MOL0     H31776  -0.735   8.500   1.326  2.4351 -0.3173 -1.5408
  241MOL0     H31777  -0.965   8.415   1.352  0.1809  0.2307  0.6497
  241MOL0     H31778  -1.116   8.286   1.226  0.4803 -0.8116 -0.1844
  241MOL0     H31779  -1.159   8.328   1.395 -0.8903 -1.4103  0.8138
  241MOL0     H31780  -1.298   8.112   1.396  1.0020  2.7617  1.8495
  241MOL0     H31781  -1.243   8.095   1.227 -0.5409  1.3883 -1.0992
  241MOL0     H31782  -1.347   8.317   1.168 -0.8657 -0.3763  1.4287
  241MOL0     H31783  -1.415   8.327   1.330 -1.4861  0.5046  0.6837
  241MOL0     H31784  -1.579   8.268   1.156 -0.1275  2.4710  3.1502
  241MOL0     H31785  -1.498   8.112   1.127  1.5066  0.2647 -0.3175
  241MOL0     H31786  -1.609   8.214   1.414  0.2165 -1.0771  1.5509
  241MOL0     H31787  -1.523   8.071   1.385  0.6200  0.5213  1.1286
  241MOL0     H31788  -1.755   8.036   1.385  0.0844  2.0057  0.6357
  241MOL0     H31789  -1.724   7.989   1.223 -4.9735 -0.0070  0.4889
  241MOL0     H31790  -1.777   8.268   1.215  0.3754 -0.5833 -4.1120
  241MOL0     H31791  -1.863   8.139   1.138 -1.7609 -0.8454 -0.0619
  241MOL0     H31792  -2.004   8.096   1.336  1.5161 -0.2279 -1.7487
  241MOL0     H31793  -2.035   8.248   1.274  1.3304  2.4881  2.5055
  241MOL0     H31794  -0.830   8.008   1.358 -2.3967  0.1914 -1.4345
  241MOL0     H31795  -0.593   8.090   1.306 -0.8719 -0.7300 -2.1001
  241MOL0     H31796  -0.151   8.286   1.447  0.9539 -0.2891 -0.9553
  241MOL0     H31797   0.041   8.314   1.329  0.2748 -0.3985  0.4632
  241MOL0     H31798   0.798   9.191   2.012  3.3942 -1.8141  1.2636
  241MOL0     H31799   1.021   9.265   2.047  2.5194 -0.1095 -2.5436
  241MOL0     H31800   1.401   9.560   1.865 -0.0688  1.6967 -1.4197
  241MOL0     H31801   1.629   9.604   1.957  0.8418  2.3140 -0.2037
  241MOL0     H31802   1.844   9.868   2.113  1.3041 -1.4936 -0.1881
  241MOL0     H31803   1.780   9.764   1.989  0.3969 -0.5954 -0.4097
  241MOL0     H31804   1.857   9.551   2.104  3.4948 -1.2513  1.9762
  241MOL0     H31805   1.979   9.670   2.072 -1.1930 -2.2046 -1.6895
  241MOL0     H31806   1.838   9.579   2.329 -0.2090 -1.1309 -1.4222
  241MOL0     H31807   1.903   9.739   2.325 -2.8490 -0.0678 -0.9736
  241MOL0     H31808   2.132   9.619   2.254 -2.0411 -0.3100 -3.7457
  241MOL0     H31809   2.053   9.564   2.419 -0.6706  1.0366  0.3103
  241MOL0     H31810   2.010   9.214   2.197  0.8169 -0.3845 -0.3571
  241MOL0     H31811   1.446   9.848   2.263 -1.8990 -0.7490  0.8287
  241MOL0     H31812   1.235   9.782   2.190 -0.5614 -1.3868  0.4283
  242MOL0     O31813  11.109   2.250   7.333  0.4230 -0.8194  1.1250
  242MOL0     C31814  11.159   2.262   7.220 -0.1287  0.3387  0.8263
  242MOL0     O31815  11.085   2.252   7.099 -0.5725 -0.3082  0.7751
  242MOL0     C31816  10.946   2.284   7.086  0.6761 -0.5875  0.3157
  242MOL0     C31817  10.890   2.247   6.969 -0.1306  0.4475  0.5999
  242MOL0     C31818  10.751   2.235   6.946  0.1798  0.7947  0.0129
  242MOL0     C31819  10.670   2.286   7.053  0.7736 -0.8647  0.5235
  242MOL0     O31820  10.531   2.298   7.044  0.3291 -0.6351 -0.2365
  242MOL0     C31821  10.473   2.192   6.960 -0.0626  0.5639 -0.2923
  242MOL0     C31822  10.322   2.186   7.012 -0.1559 -0.5927 -0.1260
  242MOL0     C31823  10.223   2.155   6.896  0.7028  0.1464 -0.1563
  242MOL0     C31824  10.085   2.145   6.958 -0.0380 -0.0619 -0.1554
  242MOL0     C31825  10.041   2.286   6.998  0.4443  0.2380  0.2014
  242MOL0     C31826   9.890   2.297   7.020  0.1000  0.4952 -0.8373
  242MOL0     C31827   9.821   2.171   7.079 -0.1494 -0.7896  0.3812
  242MOL0     C31828   9.862   2.144   7.223 -0.4754 -0.2552 -0.4970
  242MOL0     N31829   9.758   2.074   7.296 -0.0633  0.4158 -1.5997
  242MOL0     C31830   9.728   1.939   7.278 -0.0475  0.7775  1.0684
  242MOL0     C31831   9.645   1.916   7.375  0.0076  0.5931 -0.1349
  242MOL0     C31832   9.582   1.789   7.411  0.5018  0.2994  0.3984
  242MOL0     C31833   9.433   1.801   7.395  0.5422 -0.5315  0.6950
  242MOL0     C31834   9.359   1.663   7.400  0.4223  0.2311  0.6706
  242MOL0     C31835   9.201   1.687   7.385  0.1037 -0.5456  0.9761
  242MOL0     O31836   9.137   1.556   7.424  0.2339 -0.2051  0.1667
  242MOL0     C31837   9.005   1.562   7.420  0.7891  0.9481  0.8874
  242MOL0     C31838   8.936   1.481   7.513  0.0745 -0.3483 -0.5122
  242MOL0     C31839   8.797   1.474   7.505  0.1926 -0.2132  0.0690
  242MOL0     C31840   8.718   1.566   7.431 -0.6407  0.5011  0.3724
  242MOL0     C31841   8.569   1.556   7.423 -0.0213 -0.0668  0.2733
  242MOL0     O31842   8.511   1.581   7.293  0.2037 -0.4243  0.6845
  242MOL0     C31843   8.376   1.579   7.272 -0.2214  0.8183 -0.3536
  242MOL0     C31844   8.334   1.662   7.169 -1.0686  0.8857 -0.0198
  242MOL0     C31845   8.202   1.672   7.138  0.1005 -0.1277  0.0680
  242MOL0     C31846   8.110   1.584   7.183  0.6451  0.8249 -0.1921
  242MOL0     O31847   7.981   1.595   7.134 -1.0075 -0.4525 -0.1409
  242MOL0     C31848   7.909   1.477   7.111  0.7664 -0.9353 -0.9975
  242MOL0     C31849   7.775   1.484   7.188 -0.3998  0.6027  0.3431
  242MOL0     C31850   7.706   1.353   7.179 -0.0564  0.4943  0.3286
  242MOL0     C31851   7.563   1.368   7.205  0.2805 -0.7339 -0.5126
  242MOL0     C31852   7.490   1.236   7.165  0.1123  0.6185 -0.1642
  242MOL0     C31853   7.366   1.218   7.254 -0.0186  0.6872 -0.0194
  242MOL0     C31854   7.261   1.125   7.185 -0.7395  0.1494  0.2600
  242MOL0     C31855   7.139   1.112   7.268  0.4594 -0.4076 -0.8714
  242MOL0    Cl31856   7.021   1.021   7.169  0.5540  0.2569  0.1182
  242MOL0     C31857   8.149   1.483   7.281 -0.6790  0.3551 -0.3994
  242MOL0     C31858   8.282   1.484   7.328 -0.1443  0.3295 -0.8968
  242MOL0     O31859   8.515   1.516   7.527  0.5993  0.2268 -0.2450
  242MOL0     C31860   8.791   1.642   7.340 -0.8186  0.1316  0.2744
  242MOL0     C31861   8.934   1.647   7.329  0.0056  0.0474  0.1526
  242MOL0     N31862   9.624   2.030   7.451  0.1866  0.0460 -0.6566
  242MOL0     N31863   9.693   2.127   7.398  0.6342  0.3177 -0.4078
  242MOL0     C31864  10.725   2.337   7.167  0.2534  0.9223 -0.1205
  242MOL0     C31865  10.864   2.330   7.184 -0.0762  0.3432  0.2124
  242MOL0     C31866  11.306   2.257   7.212 -0.9398 -0.8379 -0.2468
  242MOL0     C31867  11.377   2.274   7.325 -0.3103  1.1413 -0.1468
  242MOL0     C31868  11.520   2.289   7.339  1.1429 -0.7132 -0.2350
  242MOL0     C31869  11.587   2.294   7.221 -0.0598  1.0340  0.6782
  242MOL0     O31870  11.724   2.298   7.226 -0.1554 -0.0236 -0.6914
  242MOL0     C31871  11.803   2.265   7.106  0.0804 -0.3823 -1.0351
  242MOL0     C31872  11.949   2.236   7.155  0.2227 -0.0818 -1.1009
  242MOL0     C31873  12.042   2.229   7.033 -1.1017  0.0284  0.0462
  242MOL0     C31874  12.185   2.195   7.081 -1.1110  0.2057  0.3463
  242MOL0     C31875  12.283   2.231   6.970  0.8651  0.0451  0.0072
  242MOL0     C31876  12.370   2.269   6.889 -0.3463 -0.9229  0.1633
  242MOL0     C31877  11.517   2.279   7.097  0.3033 -0.2281 -0.2841
  242MOL0     C31878  11.381   2.252   7.092  1.1139 -0.6325  0.1884
  242MOL0     H31879  10.962   2.213   6.895  1.1405  2.4591  0.8250
  242MOL0     H31880  10.716   2.191   6.853 -1.9922 -2.5811  2.1883
  242MOL0     H31881  10.523   2.100   6.993  2.4202  1.7531 -0.4956
  242MOL0     H31882  10.489   2.216   6.855  4.4420 -2.3002 -0.5341
  242MOL0     H31883  10.287   2.285   7.043 -1.8119 -0.6121 -1.7518
  242MOL0     H31884  10.300   2.120   7.096 -2.7061 -0.6821 -0.7803
  242MOL0     H31885  10.260   2.058   6.861  2.2637  0.1412  1.3751
  242MOL0     H31886  10.228   2.231   6.817 -0.9679  2.3273  1.6981
  242MOL0     H31887  10.017   2.093   6.890  1.1960  0.2727 -1.7079
  242MOL0     H31888  10.092   2.076   7.042 -0.0444 -0.2906 -0.3394
  242MOL0     H31889  10.067   2.354   6.916 -0.2044  1.8684  1.2887
  242MOL0     H31890  10.096   2.315   7.088  3.9788 -1.9742 -1.0425
  242MOL0     H31891   9.845   2.322   6.923 -1.3163  0.6244 -0.1817
  242MOL0     H31892   9.869   2.380   7.089  1.3001  1.5082 -1.6556
  242MOL0     H31893   9.712   2.184   7.072 -0.2128 -1.7935 -4.8633
  242MOL0     H31894   9.841   2.073   7.036 -0.3020 -0.9995  0.7785
  242MOL0     H31895   9.885   2.237   7.277  0.9812 -0.1338 -1.2720
  242MOL0     H31896   9.953   2.083   7.229  0.7227  1.5501  0.6743
  242MOL0     H31897   9.769   1.870   7.205 -1.1199  2.1696 -0.9578
  242MOL0     H31898   9.606   1.761   7.514 -1.7160  0.9044  1.1366
  242MOL0     H31899   9.625   1.711   7.348  1.5561 -0.4631  1.9778
  242MOL0     H31900   9.402   1.855   7.306  0.4212 -0.4949  0.7580
  242MOL0     H31901   9.400   1.855   7.485  2.8037  1.0764  0.6349
  242MOL0     H31902   9.401   1.587   7.334 -1.6776  0.6069 -1.2277
  242MOL0     H31903   9.378   1.618   7.498  0.6387  1.2927  1.1357
  242MOL0     H31904   9.177   1.708   7.281  0.4676  0.1204  1.0237
  242MOL0     H31905   9.157   1.762   7.452 -2.1851 -1.0830  0.1444
  242MOL0     H31906   8.993   1.415   7.578  1.7484  1.5026  0.0063
  242MOL0     H31907   8.751   1.405   7.575  1.1058  0.6363  1.5335
  242MOL0     H31908   8.405   1.716   7.107 -0.4213 -0.6677 -0.6685
  242MOL0     H31909   8.163   1.749   7.071 -1.1647  1.4174  2.4254
  242MOL0     H31910   7.964   1.383   7.116 -0.1948 -1.4684  0.3013
  242MOL0     H31911   7.864   1.494   7.013 -5.9062  4.0855  2.0928
  242MOL0     H31912   7.717   1.560   7.135  2.3950  0.4799 -3.2996
  242MOL0     H31913   7.796   1.498   7.294  2.5754 -0.9610  0.0680
  242MOL0     H31914   7.739   1.285   7.259 -1.8845 -1.9332 -0.8284
  242MOL0     H31915   7.723   1.310   7.080  0.2301 -1.3874  1.1543
  242MOL0     H31916   7.536   1.395   7.307  0.5075 -2.3551  0.0084
  242MOL0     H31917   7.531   1.448   7.137  1.8474 -0.5156 -1.0372
  242MOL0     H31918   7.555   1.148   7.168 -2.6121 -1.5924 -1.8161
  242MOL0     H31919   7.452   1.247   7.063 -1.8201 -0.2545  0.4280
  242MOL0     H31920   7.318   1.316   7.260  0.9155  1.5454 -3.6946
  242MOL0     H31921   7.380   1.190   7.358 -1.2544  1.7906  0.4715
  242MOL0     H31922   7.225   1.164   7.090 -0.1203 -0.2657 -0.1469
  242MOL0     H31923   7.302   1.024   7.171 -0.6478  0.5689 -3.5020
  242MOL0     H31924   7.088   1.209   7.275  1.7518  0.2363 -0.0384
  242MOL0     H31925   7.151   1.062   7.365  1.5555  4.2939  1.7144
  242MOL0     H31926   8.087   1.402   7.319  0.9787 -0.4653  0.6648
  242MOL0     H31927   8.317   1.409   7.398  0.0662  0.2017 -1.1390
  242MOL0     H31928   8.753   1.721   7.276 -0.4275 -0.3277 -0.5291
  242MOL0     H31929   8.987   1.710   7.258 -1.7354  0.1974 -1.0636
  242MOL0     H31930  10.661   2.399   7.228 -0.1123 -0.8004  1.3416
  242MOL0     H31931  10.899   2.363   7.281  2.3088 -3.5261  0.8990
  242MOL0     H31932  11.329   2.286   7.422 -2.6307 -0.8960 -0.9458
  242MOL0     H31933  11.577   2.302   7.430  1.0222  0.3751 -0.2973
  242MOL0     H31934  11.806   2.346   7.032  2.7972  0.0729 -0.5224
  242MOL0     H31935  11.765   2.175   7.057 -0.4117  0.4971 -2.3147
  242MOL0     H31936  11.971   2.317   7.225 -0.2069 -0.3152 -0.6913
  242MOL0     H31937  11.944   2.138   7.202 -3.9803  0.4363 -0.0306
  242MOL0     H31938  12.030   2.320   6.973  0.7554  0.6998  0.6353
  242MOL0     H31939  12.006   2.148   6.970  0.7278  0.8201 -2.1659
  242MOL0     H31940  12.234   2.248   7.164  1.3975 -1.0929 -0.1810
  242MOL0     H31941  12.187   2.089   7.106  2.6234  0.4501  1.7819
  242MOL0     H31942  12.446   2.280   6.815  1.7156  0.1087  2.2948
  242MOL0     H31943  11.573   2.289   7.005  0.0088  1.8580 -0.2846
  242MOL0     H31944  11.335   2.232   6.996 -0.3801 -1.5772  1.0538
  243MOL0     O31945   3.217   2.465   0.384  0.3119 -0.1719  0.0887
  243MOL0     C31946   3.146   2.386   0.448  0.6161  0.4649 -0.0150
  243MOL0     O31947   3.197   2.290   0.530  0.5261 -0.1447 -0.3100
  243MOL0     C31948   3.315   2.225   0.503  0.3455 -0.4278 -0.3071
  243MOL0     C31949   3.399   2.189   0.604 -0.3075 -0.3191 -0.4334
  243MOL0     C31950   3.525   2.133   0.584  0.1701  0.5683  0.2222
  243MOL0     C31951   3.567   2.098   0.457 -0.6239 -0.6308  0.1212
  243MOL0     O31952   3.687   2.042   0.425  0.1798 -0.3297 -1.2201
  243MOL0     C31953   3.809   2.079   0.491  0.2608  0.4179 -0.3157
  243MOL0     C31954   3.918   2.034   0.391  0.7099 -0.1553  0.9966
  243MOL0     C31955   4.058   2.068   0.447 -0.0255  0.2428 -0.0544
  243MOL0     C31956   4.097   2.011   0.583  0.0225 -0.4695  1.1451
  243MOL0     C31957   4.241   2.020   0.625 -0.6976 -0.6396 -0.0085
  243MOL0     C31958   4.309   2.165   0.594  0.0929 -1.0700  0.1227
  243MOL0     C31959   4.434   2.191   0.680 -0.1104  0.3905 -0.2784
  243MOL0     C31960   4.419   2.238   0.828 -0.6877 -0.1351  0.5886
  243MOL0     N31961   4.549   2.239   0.911  0.7611 -0.3189  0.1907
  243MOL0     C31962   4.564   2.181   1.027  0.4463 -0.0892  0.1215
  243MOL0     C31963   4.694   2.194   1.050 -0.0371  0.2283 -0.0877
  243MOL0     C31964   4.775   2.160   1.173 -0.0049  0.2782  0.2205
  243MOL0     C31965   4.844   2.286   1.236  1.1776  0.9267 -0.1557
  243MOL0     C31966   4.761   2.410   1.264 -0.0318 -0.9686 -0.1860
  243MOL0     C31967   4.784   2.522   1.153 -0.3411  0.7016 -0.5701
  243MOL0     O31968   4.717   2.646   1.189  0.3876 -0.5900 -0.0197
  243MOL0     C31969   4.582   2.646   1.204  0.3432 -0.5022  0.5048
  243MOL0     C31970   4.525   2.664   1.334  0.5527 -0.2863  0.3362
  243MOL0     C31971   4.386   2.666   1.358 -0.0661 -0.2544  0.5996
  243MOL0     C31972   4.301   2.642   1.247 -0.1489 -0.0342 -0.1522
  243MOL0     C31973   4.152   2.664   1.256 -1.0148  0.4619 -0.1714
  243MOL0     O31974   4.086   2.677   1.137  0.6105 -0.1825 -1.4302
  243MOL0     C31975   3.951   2.720   1.138 -0.1027 -0.6636  0.6775
  243MOL0     C31976   3.908   2.764   1.007 -0.2521 -0.1145 -0.4164
  243MOL0     C31977   3.777   2.803   0.988  0.3587 -0.6385  1.0191
  243MOL0     C31978   3.693   2.825   1.095 -0.5447  0.2712  0.3096
  243MOL0     O31979   3.573   2.873   1.089 -0.4021  0.7509 -0.8395
  243MOL0     C31980   3.464   2.782   1.060  0.1657 -0.7362  0.0368
  243MOL0     C31981   3.330   2.834   1.114 -0.6980  0.5484  0.2508
  243MOL0     C31982   3.213   2.742   1.071  1.1008  0.0362  0.3163
  243MOL0     C31983   3.077   2.792   1.124 -0.0325 -0.4888  0.0477
  243MOL0     C31984   2.974   2.690   1.101  0.1763  0.1342 -0.2606
  243MOL0     C31985   2.841   2.756   1.126 -0.6557 -0.3837  0.4818
  243MOL0     C31986   2.733   2.654   1.139 -0.1068  0.6086 -0.0415
  243MOL0     C31987   2.604   2.711   1.102  0.5764 -0.4770 -0.0518
  243MOL0    Cl31988   2.471   2.592   1.094 -0.0475  0.0340  0.1356
  243MOL0     C31989   3.734   2.793   1.224  0.7946 -0.3019  0.1980
  243MOL0     C31990   3.862   2.739   1.243  0.6351  0.7525  0.5043
  243MOL0     O31991   4.109   2.643   1.373  0.2814  0.0726 -0.2432
  243MOL0     C31992   4.356   2.612   1.124  0.3408  0.1034 -0.7946
  243MOL0     C31993   4.494   2.614   1.097  0.0975 -0.9072  0.3012
  243MOL0     N31994   4.756   2.247   0.941 -0.6325  0.0677 -0.0177
  243MOL0     N31995   4.667   2.292   0.863 -0.2324  0.2176 -0.6356
  243MOL0     C31996   3.492   2.130   0.347  0.4286 -0.1189  0.9123
  243MOL0     C31997   3.366   2.191   0.373  0.0784  0.0844 -0.1421
  243MOL0     C31998   2.998   2.400   0.444 -0.5125 -0.4522  0.2829
  243MOL0     C31999   2.937   2.522   0.396  0.0268  0.3317 -0.3338
  243MOL0     C32000   2.800   2.532   0.384  0.4042  0.5708 -0.0018
  243MOL0     C32001   2.719   2.421   0.416 -0.5751  0.1264  0.8562
  243MOL0     O32002   2.590   2.433   0.417  0.1026  0.3844 -0.1221
  243MOL0     C32003   2.533   2.450   0.282 -0.2600  0.3493 -0.2348
  243MOL0     C32004   2.396   2.391   0.292 -0.4685 -0.7984 -0.6069
  243MOL0     C32005   2.304   2.512   0.323 -0.3468  0.0289 -0.0213
  243MOL0     C32006   2.161   2.467   0.316  0.2916 -0.4041 -0.0273
  243MOL0     C32007   2.105   2.418   0.194 -0.9443  0.1130  0.7390
  243MOL0     C32008   2.078   2.374   0.083 -0.1172  0.5383  0.8425
  243MOL0     C32009   2.775   2.307   0.474 -0.0839 -0.1966  0.2852
  243MOL0     C32010   2.913   2.300   0.487  0.2309  0.1025 -0.6973
  243MOL0     H32011   3.367   2.223   0.702 -1.5120  0.7778 -1.1842
  243MOL0     H32012   3.595   2.101   0.661 -2.6433 -0.8949  2.3393
  243MOL0     H32013   3.814   2.030   0.589  2.1995  1.6530  0.2681
  243MOL0     H32014   3.824   2.184   0.518 -1.4390  0.1287  2.0489
  243MOL0     H32015   3.900   2.078   0.292  0.4857 -1.7802  0.2778
  243MOL0     H32016   3.909   1.927   0.371  1.0206 -0.4367  2.3165
  243MOL0     H32017   4.069   2.177   0.447  1.1998  0.1571  1.5759
  243MOL0     H32018   4.134   2.029   0.378 -0.6899  2.5160 -2.1786
  243MOL0     H32019   4.032   2.063   0.654 -2.6938 -0.1361 -1.3834
  243MOL0     H32020   4.069   1.907   0.562 -3.3811  0.1952  1.8598
  243MOL0     H32021   4.288   1.936   0.574  4.1851  1.4558  0.4414
  243MOL0     H32022   4.243   2.002   0.732 -0.5510 -1.1737 -0.0995
  243MOL0     H32023   4.245   2.250   0.618  3.9105  2.0265  0.3477
  243MOL0     H32024   4.327   2.168   0.486  4.3024 -0.4422  0.6774
  243MOL0     H32025   4.486   2.095   0.693 -0.8449  0.1795  1.3589
  243MOL0     H32026   4.491   2.266   0.625  0.0745  1.2355  1.0343
  243MOL0     H32027   4.354   2.161   0.871  0.7921 -1.3213  0.7728
  243MOL0     H32028   4.376   2.338   0.837 -1.4150 -0.0200 -2.8526
  243MOL0     H32029   4.479   2.142   1.081 -1.7861 -0.4102 -3.3034
  243MOL0     H32030   4.838   2.078   1.139 -1.6679 -0.1256 -2.0764
  243MOL0     H32031   4.711   2.115   1.250  3.1618 -1.2714  2.1944
  243MOL0     H32032   4.928   2.311   1.170 -0.2498  3.3203 -1.1807
  243MOL0     H32033   4.890   2.250   1.329 -0.3629  2.3385  1.2266
  243MOL0     H32034   4.654   2.384   1.267 -0.0186 -1.1020  3.6494
  243MOL0     H32035   4.793   2.459   1.356  0.5308  1.2694 -1.5098
  243MOL0     H32036   4.748   2.488   1.055 -2.8068 -1.3226  0.9248
  243MOL0     H32037   4.888   2.554   1.145 -0.0320  0.2605  1.3611
  243MOL0     H32038   4.588   2.681   1.420 -0.3644 -0.7155  1.1156
  243MOL0     H32039   4.355   2.704   1.455 -1.5768 -3.2163  1.3780
  243MOL0     H32040   3.984   2.760   0.930  0.3471  1.0005  0.1054
  243MOL0     H32041   3.733   2.819   0.891 -0.2438 -0.8404  1.2542
  243MOL0     H32042   3.476   2.678   1.092  0.8076 -0.4877  0.6246
  243MOL0     H32043   3.446   2.789   0.952 -3.7599  0.5806  0.6298
  243MOL0     H32044   3.308   2.930   1.067 -1.7009  0.3171  0.2090
  243MOL0     H32045   3.351   2.837   1.221  1.3044  0.8966 -0.1184
  243MOL0     H32046   3.229   2.636   1.092 -2.3676 -1.0808 -1.8275
  243MOL0     H32047   3.203   2.739   0.962  4.8319 -0.3129 -0.1354
  243MOL0     H32048   3.084   2.814   1.231  2.3395 -2.2060  0.3286
  243MOL0     H32049   3.054   2.891   1.082 -0.0380  0.6096  2.4375
  243MOL0     H32050   2.969   2.607   1.173 -0.0240  1.4891  1.3552
  243MOL0     H32051   2.985   2.650   1.000  0.8364 -2.9481  0.8970
  243MOL0     H32052   2.827   2.817   1.036  0.7619 -0.5159  0.1383
  243MOL0     H32053   2.839   2.815   1.218 -1.9344 -0.3663  0.4653
  243MOL0     H32054   2.759   2.570   1.075  0.3942  0.2564  0.6157
  243MOL0     H32055   2.735   2.623   1.244 -0.0917  1.6271  0.2773
  243MOL0     H32056   2.604   2.751   1.000 -2.3872  0.9068  0.3962
  243MOL0     H32057   2.579   2.790   1.173  0.7795 -1.9004  1.6780
  243MOL0     H32058   3.668   2.812   1.308 -0.9408  1.0809 -1.4024
  243MOL0     H32059   3.883   2.709   1.345  0.2368 -1.1756  0.0450
  243MOL0     H32060   4.302   2.555   1.050  2.0509 -2.6182 -0.0805
  243MOL0     H32061   4.537   2.565   1.010  2.0040  1.3494 -0.1418
  243MOL0     H32062   3.540   2.108   0.252  0.5840  0.5923  0.8184
  243MOL0     H32063   3.311   2.218   0.284  0.3970  1.8980  0.1732
  243MOL0     H32064   3.004   2.606   0.383 -0.9618  1.9469  3.5653
  243MOL0     H32065   2.743   2.622   0.362  0.5116  0.8437  0.8349
  243MOL0     H32066   2.588   2.390   0.209  0.6083  2.1200 -1.1075
  243MOL0     H32067   2.540   2.557   0.263 -4.1715  0.6550 -0.7877
  243MOL0     H32068   2.376   2.350   0.193  1.0538 -1.4455 -0.6792
  243MOL0     H32069   2.393   2.312   0.367  0.7568 -1.1908 -0.9417
  243MOL0     H32070   2.322   2.599   0.260  0.4743  1.2717  1.8371
  243MOL0     H32071   2.323   2.553   0.423  1.6946  0.2944 -0.4784
  243MOL0     H32072   2.151   2.377   0.377 -1.0798 -1.3012 -1.4978
  243MOL0     H32073   2.091   2.544   0.351  0.0600  0.1929 -1.6958
  243MOL0     H32074   2.059   2.325  -0.010  2.3258 -0.8995  0.9920
  243MOL0     H32075   2.711   2.233   0.522 -0.5787  0.3480  0.4763
  243MOL0     H32076   2.949   2.206   0.528 -0.1110  0.6921  1.0176
  244MOL0     O32077   8.691   1.596   2.045 -0.1059  0.2189  0.6236
  244MOL0     C32078   8.607   1.573   2.131 -0.6780 -0.2691  0.1368
  244MOL0     O32079   8.634   1.563   2.263 -0.2201 -0.1104 -0.2333
  244MOL0     C32080   8.764   1.594   2.306  0.4432  0.2378  0.4489
  244MOL0     C32081   8.778   1.717   2.386 -0.5437 -0.7422  0.0449
  244MOL0     C32082   8.899   1.766   2.423  0.1357 -0.1108  0.0534
  244MOL0     C32083   9.014   1.699   2.381  0.1817 -0.1909 -0.4513
  244MOL0     O32084   9.139   1.761   2.415  0.3501  0.5159 -0.6589
  244MOL0     C32085   9.249   1.756   2.323  0.0006 -0.2672 -0.2643
  244MOL0     C32086   9.386   1.783   2.392 -0.4004 -0.1273 -0.8931
  244MOL0     C32087   9.498   1.789   2.280  0.1093  0.2030 -0.2155
  244MOL0     C32088   9.622   1.835   2.344  0.3694 -0.2064 -0.7589
  244MOL0     C32089   9.711   1.877   2.235 -0.3630 -0.5982 -1.1421
  244MOL0     C32090   9.860   1.898   2.286 -0.4441 -0.0130 -0.3024
  244MOL0     C32091   9.929   1.769   2.326 -0.8992 -0.3934 -0.0581
  244MOL0     C32092   9.959   1.676   2.199 -0.9055 -0.0087  0.2980
  244MOL0     N32093  10.040   1.566   2.240 -0.3083  0.0250 -0.4390
  244MOL0     C32094  10.155   1.530   2.181 -0.6533  0.5653 -0.1738
  244MOL0     C32095  10.204   1.437   2.257  0.6349 -0.1474  0.1264
  244MOL0     C32096  10.331   1.355   2.225 -0.0163  0.1219  0.5414
  244MOL0     C32097  10.315   1.200   2.180  0.1130 -0.2566 -0.5806
  244MOL0     C32098  10.205   1.184   2.073  0.1219 -0.8773  0.1367
  244MOL0     C32099  10.068   1.141   2.126  0.4214  0.3349  0.6025
  244MOL0     O32100   9.975   1.141   2.016  0.2837  0.5418 -0.4204
  244MOL0     C32101   9.858   1.074   2.027  0.6301  0.5984  0.3975
  244MOL0     C32102   9.825   0.998   2.142  0.4087  0.2083 -0.2132
  244MOL0     C32103   9.704   0.929   2.149  0.4859 -0.2679  0.5431
  244MOL0     C32104   9.613   0.946   2.046  0.0944 -0.4678  0.1274
  244MOL0     C32105   9.483   0.875   2.049 -0.6704 -0.7387  0.4055
  244MOL0     O32106   9.406   0.904   1.942 -0.1431  0.5976  0.2519
  244MOL0     C32107   9.279   0.842   1.929  1.4627  0.4448  0.6739
  244MOL0     C32108   9.272   0.726   1.847 -0.0349 -0.2145 -1.1702
  244MOL0     C32109   9.150   0.653   1.833 -0.4520  0.3786 -0.9031
  244MOL0     C32110   9.027   0.702   1.890 -0.6217  0.2043  0.2392
  244MOL0     O32111   8.919   0.623   1.859  0.2111  0.3561 -0.0242
  244MOL0     C32112   8.814   0.624   1.956 -0.1943  0.4632 -0.2782
  244MOL0     C32113   8.717   0.519   1.925  0.9010 -0.3191  0.1028
  244MOL0     C32114   8.651   0.544   1.787 -0.1332 -0.2157  0.6170
  244MOL0     C32115   8.530   0.446   1.778 -0.4032 -0.6111 -0.2653
  244MOL0     C32116   8.467   0.447   1.649  0.3612  0.3952 -0.2857
  244MOL0     C32117   8.358   0.345   1.641  0.8608 -0.4235 -0.2208
  244MOL0     C32118   8.283   0.365   1.511 -0.0473  0.9898 -0.5224
  244MOL0     C32119   8.137   0.403   1.548 -0.7685 -0.2589  0.5555
  244MOL0    Cl32120   8.128   0.578   1.567  0.0904  0.7051  0.3221
  244MOL0     C32121   9.035   0.818   1.966 -0.3879  0.0274 -0.1018
  244MOL0     C32122   9.154   0.881   1.996  0.1666 -0.3469  0.3068
  244MOL0     O32123   9.451   0.812   2.154 -0.0892  0.3934  0.3982
  244MOL0     C32124   9.657   1.021   1.932  0.6122 -0.8098  0.2839
  244MOL0     C32125   9.770   1.081   1.924  0.1063 -0.1475  0.6764
  244MOL0     N32126  10.110   1.399   2.355  0.1895  0.2498 -0.4967
  244MOL0     N32127  10.013   1.482   2.353 -0.2301 -0.7241 -0.4696
  244MOL0     C32128   8.999   1.579   2.308  0.2719 -0.6216  0.3251
  244MOL0     C32129   8.878   1.526   2.267  0.4303 -0.2025 -0.4886
  244MOL0     C32130   8.466   1.579   2.079 -0.9919 -0.1483 -0.7496
  244MOL0     C32131   8.422   1.548   1.951  0.2439  0.0222  0.1021
  244MOL0     C32132   8.291   1.568   1.913 -0.1211 -0.4423 -0.1461
  244MOL0     C32133   8.197   1.618   2.006 -0.1067  0.3528 -0.5608
  244MOL0     O32134   8.063   1.649   1.993 -0.7421 -0.6567 -0.1334
  244MOL0     C32135   7.979   1.581   1.898  0.4509  0.4491 -0.3987
  244MOL0     C32136   7.868   1.670   1.838  0.3971 -0.0396  0.1004
  244MOL0     C32137   7.773   1.722   1.953 -0.7098  0.9290 -0.3168
  244MOL0     C32138   7.657   1.802   1.888 -0.1254 -0.0201 -0.5730
  244MOL0     C32139   7.555   1.839   1.983  0.6676 -0.2267  0.9798
  244MOL0     C32140   7.473   1.881   2.060  0.2077 -0.3489  0.1256
  244MOL0     C32141   8.237   1.636   2.127 -0.0770  0.1583  0.7271
  244MOL0     C32142   8.368   1.611   2.173  0.3335 -1.3877  0.4315
  244MOL0     H32143   8.690   1.772   2.417  0.0446 -0.2579  0.8742
  244MOL0     H32144   8.910   1.853   2.487 -0.9021  0.0769  0.0029
  244MOL0     H32145   9.233   1.830   2.244 -0.8291 -2.1263 -1.9207
  244MOL0     H32146   9.264   1.656   2.282  3.0909 -1.9427  4.2075
  244MOL0     H32147   9.394   1.719   2.480 -2.7201 -0.0386 -0.5468
  244MOL0     H32148   9.388   1.885   2.433  0.1947  0.4588 -2.3033
  244MOL0     H32149   9.477   1.869   2.208  2.3671  0.4633 -0.6731
  244MOL0     H32150   9.514   1.694   2.229  0.1140  0.5791 -0.9307
  244MOL0     H32151   9.606   1.922   2.409 -0.5339 -1.0470  0.1814
  244MOL0     H32152   9.667   1.764   2.414  1.1120  0.8730 -0.1014
  244MOL0     H32153   9.664   1.968   2.194  1.2456 -0.0106 -1.7647
  244MOL0     H32154   9.717   1.804   2.155  0.4228  0.6782 -2.2993
  244MOL0     H32155   9.873   1.962   2.373  0.4099 -0.9433  0.2838
  244MOL0     H32156   9.927   1.939   2.210 -1.7157  1.2767 -0.7739
  244MOL0     H32157  10.027   1.800   2.364 -0.2252 -1.1157 -1.1369
  244MOL0     H32158   9.883   1.715   2.410 -0.8090  3.1820  2.4960
  244MOL0     H32159  10.014   1.729   2.120 -0.1859 -2.2519 -0.7856
  244MOL0     H32160   9.861   1.645   2.162 -0.6858  0.2274 -0.4911
  244MOL0     H32161  10.199   1.574   2.091 -2.6693  2.9594 -0.0966
  244MOL0     H32162  10.398   1.341   2.311  0.4073 -1.4704 -0.0169
  244MOL0     H32163  10.389   1.411   2.150 -3.2351  0.5277 -1.8348
  244MOL0     H32164  10.279   1.144   2.267  0.4847  2.9754  1.8172
  244MOL0     H32165  10.413   1.168   2.143  0.9335  2.4373 -0.9377
  244MOL0     H32166  10.197   1.282   2.024 -0.8528 -2.8123 -3.9969
  244MOL0     H32167  10.245   1.113   2.000  3.7727 -0.4900  1.5539
  244MOL0     H32168  10.031   1.206   2.206  0.4434  0.6592  0.3483
  244MOL0     H32169  10.085   1.040   2.166  0.9406  0.1060 -0.1911
  244MOL0     H32170   9.896   0.980   2.222 -0.8586  0.0467  0.9120
  244MOL0     H32171   9.681   0.887   2.246  3.9816 -0.0989  1.5803
  244MOL0     H32172   9.364   0.701   1.796 -0.6030  0.3285 -2.5044
  244MOL0     H32173   9.153   0.564   1.771  1.7218 -1.1045  1.1868
  244MOL0     H32174   8.753   0.715   1.956 -0.1331  0.5226 -1.5886
  244MOL0     H32175   8.868   0.613   2.050  2.2079  0.8823 -1.5332
  244MOL0     H32176   8.641   0.510   2.003 -0.2816 -4.0275 -1.2260
  244MOL0     H32177   8.763   0.420   1.929  1.1162 -0.4447 -2.9538
  244MOL0     H32178   8.719   0.517   1.707 -0.3363 -0.6288  0.5837
  244MOL0     H32179   8.613   0.647   1.780 -1.1710 -0.5938  0.4535
  244MOL0     H32180   8.572   0.347   1.797 -1.9248 -1.0141  1.1559
  244MOL0     H32181   8.462   0.470   1.860  2.1766  1.7184  1.4155
  244MOL0     H32182   8.545   0.431   1.574  2.4873 -4.8659  2.5328
  244MOL0     H32183   8.413   0.540   1.628 -1.4244 -0.4823  0.1925
  244MOL0     H32184   8.292   0.337   1.728  2.4349 -2.0100  0.8986
  244MOL0     H32185   8.424   0.258   1.637  1.9991  0.2026  2.6075
  244MOL0     H32186   8.330   0.441   1.448  0.8391 -0.9918 -2.3961
  244MOL0     H32187   8.276   0.275   1.449  0.7959 -0.6259  1.6209
  244MOL0     H32188   8.105   0.355   1.641 -0.8382  1.8489  1.6754
  244MOL0     H32189   8.067   0.370   1.470 -0.0734 -2.4049  0.7602
  244MOL0     H32190   8.955   0.872   2.015 -0.1276  1.2706 -1.0095
  244MOL0     H32191   9.165   0.964   2.065 -2.9575  0.7149 -0.2862
  244MOL0     H32192   9.588   1.043   1.852 -0.1027  0.5266  1.2204
  244MOL0     H32193   9.807   1.150   1.849 -1.4673  2.0887  1.8320
  244MOL0     H32194   9.092   1.530   2.283  0.9304 -0.4381  2.2191
  244MOL0     H32195   8.885   1.431   2.215  3.6174  0.8683 -2.3274
  244MOL0     H32196   8.488   1.509   1.874 -2.8430 -1.2428 -2.1088
  244MOL0     H32197   8.259   1.553   1.810 -1.0422  1.8350 -0.2568
  244MOL0     H32198   7.929   1.498   1.948 -3.5863  2.8596  0.0170
  244MOL0     H32199   8.041   1.536   1.819  3.7822  0.8016  1.8081
  244MOL0     H32200   7.906   1.758   1.785 -2.2783  3.2952  3.1399
  244MOL0     H32201   7.810   1.608   1.768  4.4534 -3.0591 -0.9122
  244MOL0     H32202   7.831   1.783   2.023 -2.1838 -2.4399  4.2834
  244MOL0     H32203   7.734   1.640   2.013  2.0485  1.1739  2.0395
  244MOL0     H32204   7.691   1.896   1.845 -0.3381  0.1510 -0.3685
  244MOL0     H32205   7.610   1.750   1.803  0.1969 -1.6879  0.2236
  244MOL0     H32206   7.414   1.916   2.143  0.8118 -0.6633  0.7021
  244MOL0     H32207   8.169   1.678   2.199 -0.0905 -1.0725  1.4555
  244MOL0     H32208   8.383   1.644   2.275 -4.0208 -0.2811  0.8993
  245MOL0     O32209   3.508  11.109   4.530 -0.0083 -0.4156 -0.2402
  245MOL0     C32210   3.426  11.066   4.607 -0.0103 -0.5258  0.3561
  245MOL0     O32211   3.441  11.048   4.740  0.1073 -0.1383  0.0024
  245MOL0     C32212   3.558  11.000   4.782 -0.2084 -0.4847 -0.0656
  245MOL0     C32213   3.602  10.865   4.772 -0.8035 -0.1753  1.1362
  245MOL0     C32214   3.714  10.815   4.837 -0.3310  0.5727 -0.9163
  245MOL0     C32215   3.797  10.899   4.922  0.7514  0.2137 -0.2418
  245MOL0     O32216   3.899  10.851   4.999 -0.2433  0.4019 -0.1353
  245MOL0     C32217   4.005  10.778   4.931 -0.5187 -0.7422  0.2491
  245MOL0     C32218   4.127  10.866   4.960  0.3576  0.9902  0.0369
  245MOL0     C32219   4.132  10.996   4.882 -0.0807 -0.0407 -0.4085
  245MOL0     C32220   4.275  11.068   4.884 -0.5173 -0.1196 -0.7627
  245MOL0     C32221   4.316  11.114   5.030 -0.5486 -0.0448  0.0873
  245MOL0     C32222   4.278  11.264   5.052 -0.5206  0.4647 -0.3676
  245MOL0     C32223   4.298  11.300   5.195  1.0368  0.6163 -0.4288
  245MOL0     C32224   4.275  11.444   5.215  0.1253  0.1057  0.0270
  245MOL0     N32225   4.140  11.501   5.191  0.4417 -0.7115  0.2008
  245MOL0     C32226   4.019  11.430   5.155  0.2499 -0.3967 -0.3243
  245MOL0     C32227   3.926  11.535   5.116 -0.3259  0.1660 -0.1568
  245MOL0     C32228   3.789  11.515   5.055  0.4844  0.2703 -0.6428
  245MOL0     C32229   3.674  11.515   5.155 -0.2134  0.1494 -0.3671
  245MOL0     C32230   3.549  11.484   5.067  0.3896  0.4938 -1.1499
  245MOL0     C32231   3.425  11.446   5.149 -0.3518  0.1544 -0.7508
  245MOL0     O32232   3.342  11.402   5.036  0.3203  0.1959  0.1660
  245MOL0     C32233   3.209  11.392   5.041 -0.3708 -0.6616  0.1186
  245MOL0     C32234   3.128  11.410   5.154  0.3070  0.4706  0.7605
  245MOL0     C32235   2.984  11.404   5.150 -0.7032  0.5583 -0.7632
  245MOL0     C32236   2.921  11.352   5.032  0.1662  0.4772 -0.0581
  245MOL0     C32237   2.778  11.324   5.033  0.2764  0.4021  0.9031
  245MOL0     O32238   2.719  11.321   4.916  1.0043  0.4900  0.2717
  245MOL0     C32239   2.584  11.284   4.915  0.3667  0.0369  0.5146
  245MOL0     C32240   2.483  11.379   4.878  0.7544  0.0804  0.0110
  245MOL0     C32241   2.351  11.329   4.882  0.5470  0.5487  0.0862
  245MOL0     C32242   2.314  11.193   4.887 -0.2804  0.2466 -0.8826
  245MOL0     O32243   2.179  11.160   4.876  0.1870 -0.0622  0.4208
  245MOL0     C32244   2.149  11.028   4.858 -0.2086 -0.4198 -0.4517
  245MOL0     C32245   2.006  11.004   4.838  0.3945  0.0281 -0.7455
  245MOL0     C32246   1.962  10.862   4.879 -0.1577 -0.9068  0.2023
  245MOL0     C32247   1.836  10.815   4.815  0.1440 -0.0542  0.3683
  245MOL0     C32248   1.773  10.686   4.861 -0.1998 -0.9255 -0.2172
  245MOL0     C32249   1.636  10.695   4.922  0.2196 -0.3193 -0.0802
  245MOL0     C32250   1.586  10.568   5.005  0.8036 -1.2693 -0.1204
  245MOL0     C32251   1.543  10.449   4.924  1.0520 -0.3875 -0.4990
  245MOL0    Cl32252   1.553  10.305   5.027 -0.1049 -0.3145 -0.2476
  245MOL0     C32253   2.421  11.107   4.918 -0.4714 -0.3316  0.1687
  245MOL0     C32254   2.552  11.148   4.933  0.8430  0.1045 -0.1577
  245MOL0     O32255   2.725  11.291   5.143 -0.2133 -0.6018  0.0858
  245MOL0     C32256   3.006  11.325   4.924  0.0745 -0.4241 -0.1556
  245MOL0     C32257   3.144  11.347   4.931  0.2600  0.2312  0.3013
  245MOL0     N32258   3.994  11.654   5.124  0.3883 -0.0702 -0.0628
  245MOL0     N32259   4.124  11.633   5.167  0.4599  0.4973  0.1858
  245MOL0     C32260   3.760  11.042   4.922  0.3555  0.1192  0.2847
  245MOL0     C32261   3.640  11.080   4.856 -0.3279 -0.6079 -0.1693
  245MOL0     C32262   3.294  11.052   4.543  0.7277 -0.3138 -0.4110
  245MOL0     C32263   3.274  11.087   4.415  0.3748 -0.3357 -0.7371
  245MOL0     C32264   3.148  11.061   4.362 -0.4658  0.3822 -0.0249
  245MOL0     C32265   3.038  11.005   4.432 -0.4258 -0.2415  0.6612
  245MOL0     O32266   2.920  10.968   4.379  0.5443 -0.3653 -0.0147
  245MOL0     C32267   2.879  11.002   4.244  0.2096 -0.0583 -0.6380
  245MOL0     C32268   2.719  10.990   4.234  0.7418 -0.8338  0.1192
  245MOL0     C32269   2.654  11.029   4.101  0.3321  0.8126 -0.1965
  245MOL0     C32270   2.684  10.931   3.985 -0.8473 -0.0779 -1.2108
  245MOL0     C32271   2.653  10.792   4.019  0.3368 -0.0928 -0.1258
  245MOL0     C32272   2.621  10.683   4.059  0.0267 -0.1884 -0.0429
  245MOL0     C32273   3.063  10.979   4.565 -0.0370  0.7244 -0.0158
  245MOL0     C32274   3.189  10.997   4.619 -0.3614  0.5760 -0.1815
  245MOL0     H32275   3.534  10.806   4.712 -0.9711 -1.6024  2.6611
  245MOL0     H32276   3.737  10.709   4.835  0.7676  0.7327  1.0056
  245MOL0     H32277   3.984  10.767   4.824  2.7560 -0.9831 -0.4811
  245MOL0     H32278   4.013  10.677   4.972 -2.9179 -0.6341  1.1319
  245MOL0     H32279   4.212  10.810   4.922  0.9205  1.2322  0.9248
  245MOL0     H32280   4.136  10.874   5.068 -3.0847  0.5782  0.4675
  245MOL0     H32281   4.046  11.060   4.903 -0.3665  0.1380 -2.0267
  245MOL0     H32282   4.114  10.968   4.778 -1.1899 -2.0441  0.2764
  245MOL0     H32283   4.344  11.001   4.834  0.2864 -0.5264  0.8152
  245MOL0     H32284   4.276  11.165   4.833  2.1586  0.7121  0.7039
  245MOL0     H32285   4.425  11.105   5.045 -0.8300 -1.6375  1.5425
  245MOL0     H32286   4.264  11.045   5.097 -0.2101 -1.6560 -1.2355
  245MOL0     H32287   4.174  11.268   5.019  0.4125  3.6235 -3.6074
  245MOL0     H32288   4.344  11.313   4.979  3.2561 -2.3936  0.7900
  245MOL0     H32289   4.227  11.238   5.249 -0.5315  2.3737 -0.4069
  245MOL0     H32290   4.398  11.281   5.235  1.6724  0.7584 -1.8602
  245MOL0     H32291   4.338  11.496   5.142 -1.0140  2.0742  0.3457
  245MOL0     H32292   4.306  11.481   5.313  1.8774  2.3487 -1.2685
  245MOL0     H32293   4.000  11.323   5.150 -0.9896 -0.2242  0.2305
  245MOL0     H32294   3.772  11.421   5.001 -0.9557 -1.6559  2.7913
  245MOL0     H32295   3.770  11.594   4.982  1.2790  1.9883  0.9248
  245MOL0     H32296   3.655  11.610   5.206  0.6168  2.7386 -4.3779
  245MOL0     H32297   3.685  11.430   5.223 -0.0025  0.2202 -0.3124
  245MOL0     H32298   3.534  11.566   4.997  2.0066  1.1582 -0.7474
  245MOL0     H32299   3.560  11.397   5.001 -1.7763 -1.1907  0.5445
  245MOL0     H32300   3.381  11.525   5.210 -0.6245 -1.1950  0.8633
  245MOL0     H32301   3.448  11.377   5.231 -0.5285 -0.7931 -1.4833
  245MOL0     H32302   3.172  11.431   5.251  0.3666 -0.8400  1.0291
  245MOL0     H32303   2.925  11.420   5.239 -0.9462 -1.3957 -0.5249
  245MOL0     H32304   2.501  11.483   4.849 -0.0129  0.2425  0.0939
  245MOL0     H32305   2.265  11.390   4.858  1.0515  0.3932 -2.4527
  245MOL0     H32306   2.177  10.967   4.945 -2.3577 -4.6211 -2.4168
  245MOL0     H32307   2.209  10.990   4.774  1.8122 -1.7507  1.4717
  245MOL0     H32308   1.992  11.008   4.729 -0.6395  0.4208 -0.6116
  245MOL0     H32309   1.950  11.080   4.895 -0.0032 -0.4658 -0.4724
  245MOL0     H32310   1.935  10.868   4.985  0.5836  0.3175  0.3405
  245MOL0     H32311   2.049  10.797   4.864  1.1025  0.3275  1.8386
  245MOL0     H32312   1.752  10.884   4.818 -2.3379 -2.3590 -4.1721
  245MOL0     H32313   1.870  10.815   4.711 -1.7600  1.7664 -0.3238
  245MOL0     H32314   1.851  10.629   4.914  1.6132 -0.2978 -2.0817
  245MOL0     H32315   1.747  10.630   4.771  0.5316 -1.6659  0.0161
  245MOL0     H32316   1.573  10.720   4.836  4.6576  2.8698 -2.7927
  245MOL0     H32317   1.633  10.781   4.989  1.7905 -2.7366  3.3618
  245MOL0     H32318   1.670  10.539   5.070  1.3752 -0.4295 -0.4693
  245MOL0     H32319   1.494  10.590   5.059  0.2367 -0.5518 -1.3376
  245MOL0     H32320   1.614  10.444   4.841  0.5057 -2.4854 -0.8848
  245MOL0     H32321   1.445  10.458   4.876  0.9544 -0.4296 -0.3087
  245MOL0     H32322   2.408  11.001   4.938  0.5707 -0.6893 -0.9312
  245MOL0     H32323   2.616  11.067   4.966 -0.4036 -0.5393  0.7598
  245MOL0     H32324   2.971  11.277   4.833  0.6733 -1.4733  0.1438
  245MOL0     H32325   3.211  11.328   4.848  0.6825  0.9285  0.4766
  245MOL0     H32326   3.807  11.125   4.973  2.0783  0.9712 -2.4829
  245MOL0     H32327   3.609  11.182   4.873 -1.5089 -0.5261 -2.3904
  245MOL0     H32328   3.343  11.142   4.352 -2.5386  2.0307 -2.1622
  245MOL0     H32329   3.142  11.096   4.259  1.2734 -0.8829 -0.6006
  245MOL0     H32330   2.934  10.936   4.177 -0.3175 -0.1789 -0.9489
  245MOL0     H32331   2.902  11.106   4.218 -0.1389  0.9217  2.5487
  245MOL0     H32332   2.684  10.893   4.270  1.3446 -1.0415  0.1588
  245MOL0     H32333   2.667  11.060   4.301  1.3182 -3.7779  3.9754
  245MOL0     H32334   2.683  11.130   4.070 -0.1037  0.6367 -1.2293
  245MOL0     H32335   2.545  11.024   4.111  0.4699 -2.1415  0.8287
  245MOL0     H32336   2.636  10.966   3.893  1.0492  0.2932 -2.1076
  245MOL0     H32337   2.790  10.939   3.958 -0.7789  0.7064 -0.7190
  245MOL0     H32338   2.589  10.585   4.085 -0.6192  0.1030  0.2676
  245MOL0     H32339   2.983  10.926   4.616  2.4067 -2.6733  0.6380
  245MOL0     H32340   3.207  10.980   4.724  1.3197 -1.7270 -0.7735
  246MOL0     O32341   7.283   4.578  10.301  0.2880 -0.0088  0.1631
  246MOL0     C32342   7.350   4.576  10.408  0.7496  0.2883 -0.3697
  246MOL0     O32343   7.298   4.613  10.529 -0.8783  0.1498 -0.5225
  246MOL0     C32344   7.170   4.634  10.541 -0.0170 -0.4124  0.4256
  246MOL0     C32345   7.116   4.736  10.467  0.6647 -0.1571 -0.7092
  246MOL0     C32346   6.979   4.767  10.483  0.7988  0.2456  0.0351
  246MOL0     C32347   6.896   4.692  10.572 -0.7128  0.4149  0.3639
  246MOL0     O32348   6.764   4.724  10.580 -1.0373  0.4149 -0.2409
  246MOL0     C32349   6.669   4.619  10.578  0.2416 -0.6849  0.9855
  246MOL0     C32350   6.540   4.688  10.545 -0.2263  0.3198 -0.3992
  246MOL0     C32351   6.500   4.779  10.666 -0.7329 -0.1714 -0.0135
  246MOL0     C32352   6.434   4.914  10.625 -0.1474 -0.3811  0.1562
  246MOL0     C32353   6.302   4.904  10.543 -0.3949 -0.4219 -1.0520
  246MOL0     C32354   6.240   5.041  10.508  0.5541 -1.3401  0.7903
  246MOL0     C32355   6.192   5.128  10.628 -0.6606 -0.2535  0.4953
  246MOL0     C32356   6.107   5.040  10.725  0.0540 -0.2422  0.4643
  246MOL0     N32357   6.030   5.121  10.829 -0.3330 -0.1961 -0.4090
  246MOL0     C32358   5.894   5.138  10.816 -0.5594 -0.1110  1.2415
  246MOL0     C32359   5.863   5.199  10.936  0.2122 -1.0623  0.5053
  246MOL0     C32360   5.714   5.210  10.978  0.6431 -1.0988  0.0376
  246MOL0     C32361   5.656   5.077  11.032  0.7029 -0.1213 -0.1614
  246MOL0     C32362   5.502   5.085  11.050  0.8597 -0.5260  1.2198
  246MOL0     C32363   5.411   5.091  10.932 -1.4530  0.7770  0.5012
  246MOL0     O32364   5.271   5.100  10.979 -0.2643 -0.2311  0.1675
  246MOL0     C32365   5.182   5.123  10.880  0.0865 -0.2107 -0.4264
  246MOL0     C32366   5.206   5.119  10.739 -0.2963 -0.3531  0.0648
  246MOL0     C32367   5.105   5.168  10.652 -0.0394 -0.4052  0.4900
  246MOL0     C32368   4.983   5.226  10.694 -0.2348  0.4581 -0.9658
  246MOL0     C32369   4.886   5.269  10.598  0.1381  0.9054 -0.4877
  246MOL0     O32370   4.759   5.311  10.653 -0.3951 -0.0876  0.3981
  246MOL0     C32371   4.640   5.300  10.585 -0.4036 -0.1698 -0.1209
  246MOL0     C32372   4.530   5.372  10.633  0.3199  0.1375 -1.4899
  246MOL0     C32373   4.401   5.360  10.580 -0.8161  0.5240 -0.4483
  246MOL0     C32374   4.389   5.286  10.457 -0.8246  0.8846  1.1935
  246MOL0     O32375   4.275   5.280  10.380 -0.6209  0.1309  0.6873
  246MOL0     C32376   4.151   5.335  10.433  0.9245  0.2534  0.3321
  246MOL0     C32377   4.036   5.313  10.332 -0.0851  0.4989 -0.7669
  246MOL0     C32378   3.905   5.396  10.353  0.1683  0.1917  0.0128
  246MOL0     C32379   3.830   5.329  10.464  0.2928 -0.0877 -0.3108
  246MOL0     C32380   3.693   5.395  10.499  0.9247 -0.5843 -0.4927
  246MOL0     C32381   3.574   5.362  10.408 -0.1497  0.3623 -0.2906
  246MOL0     C32382   3.440   5.390  10.482 -0.1401  0.8078  0.0121
  246MOL0     C32383   3.324   5.361  10.399  0.4668 -0.5861  0.4668
  246MOL0    Cl32384   3.168   5.346  10.472 -0.0780 -0.8057 -0.0227
  246MOL0     C32385   4.500   5.219  10.406  0.2409  0.2076 -0.5161
  246MOL0     C32386   4.621   5.219  10.475  0.1492  0.8317 -0.4832
  246MOL0     O32387   4.909   5.267  10.474 -0.1677 -0.6954 -0.0790
  246MOL0     C32388   4.961   5.227  10.832 -0.7026  0.1304 -1.0496
  246MOL0     C32389   5.057   5.173  10.919 -0.0402 -1.0111  0.1170
  246MOL0     N32390   5.978   5.230  11.007 -0.2055 -0.2994 -0.3378
  246MOL0     N32391   6.081   5.173  10.945  0.7103  0.0381  0.2545
  246MOL0     C32392   6.956   4.576  10.622  0.9941  0.6627  0.6395
  246MOL0     C32393   7.089   4.543  10.605 -0.0185 -0.0884  0.3178
  246MOL0     C32394   7.500   4.543  10.402  0.3216 -0.5678  0.3068
  246MOL0     C32395   7.567   4.517  10.531  0.2805 -0.5212  0.1698
  246MOL0     C32396   7.704   4.496  10.533  0.2229  0.2509 -0.2876
  246MOL0     C32397   7.781   4.489  10.415  0.7350  0.7686 -1.0652
  246MOL0     O32398   7.914   4.470  10.402 -0.3901 -1.1357  0.1493
  246MOL0     C32399   8.000   4.472  10.517  0.2370 -0.4177  0.0410
  246MOL0     C32400   8.001   4.324  10.570  0.9362 -1.2156  0.4718
  246MOL0     C32401   8.139   4.288  10.610 -0.1549 -0.1381  0.5168
  246MOL0     C32402   8.144   4.163  10.697  0.0696  0.0301 -0.0534
  246MOL0     C32403   8.290   4.124  10.713  0.4383  0.4501  0.5736
  246MOL0     C32404   8.403   4.115  10.729 -0.4868 -0.0645 -0.5357
  246MOL0     C32405   7.713   4.504  10.293  0.4470  0.3258 -0.3447
  246MOL0     C32406   7.576   4.525  10.286  1.1792  0.7235 -0.0576
  246MOL0     H32407   7.170   4.789  10.389 -0.6348  0.4612 -1.2230
  246MOL0     H32408   6.943   4.839  10.410 -0.7322 -0.7936 -0.2851
  246MOL0     H32409   6.662   4.554  10.666 -1.4720 -1.2176  0.4944
  246MOL0     H32410   6.690   4.555  10.492 -0.1568  0.6766 -0.1516
  246MOL0     H32411   6.462   4.613  10.533 -0.4935  0.6944 -1.0553
  246MOL0     H32412   6.553   4.747  10.453 -1.4331  0.8667 -0.2395
  246MOL0     H32413   6.590   4.804  10.723 -1.0383  1.2647 -0.1312
  246MOL0     H32414   6.429   4.730  10.732  1.3732  0.6179  3.0489
  246MOL0     H32415   6.410   4.972  10.714 -2.1868  0.3717 -0.8183
  246MOL0     H32416   6.505   4.974  10.568 -1.5850  0.2677 -1.0322
  246MOL0     H32417   6.233   4.846  10.605 -1.2199  2.2745  0.7758
  246MOL0     H32418   6.345   4.857  10.454  2.9604 -0.0943  0.2340
  246MOL0     H32419   6.157   5.005  10.446  0.0221  1.2062 -0.0877
  246MOL0     H32420   6.302   5.101  10.441 -1.3847 -1.0326 -0.8381
  246MOL0     H32421   6.281   5.176  10.669 -0.8846  1.9426 -1.3944
  246MOL0     H32422   6.131   5.203  10.575  1.1565 -0.6338 -2.3337
  246MOL0     H32423   6.171   4.969  10.779 -0.8810 -1.6238 -0.2145
  246MOL0     H32424   6.027   4.986  10.674 -1.0805 -0.9495  2.8680
  246MOL0     H32425   5.820   5.102  10.744 -2.5097  1.5434  2.3147
  246MOL0     H32426   5.653   5.236  10.891 -0.3380  2.2359  1.5540
  246MOL0     H32427   5.706   5.295  11.046  4.3601 -1.2954  0.9537
  246MOL0     H32428   5.692   5.061  11.134 -0.5049  2.0910  0.6691
  246MOL0     H32429   5.694   4.993  10.971 -0.2806 -1.4533  1.0030
  246MOL0     H32430   5.475   4.989  11.094  1.6298 -1.1701  0.3035
  246MOL0     H32431   5.478   5.178  11.103  2.7301  0.3308  0.6692
  246MOL0     H32432   5.421   4.999  10.874 -0.0847  1.6208 -0.6948
  246MOL0     H32433   5.444   5.173  10.866 -1.6296  0.6501  0.2524
  246MOL0     H32434   5.297   5.066  10.712 -0.1789 -0.9347  1.5156
  246MOL0     H32435   5.115   5.159  10.544 -0.2168 -0.4034  0.4720
  246MOL0     H32436   4.529   5.434  10.722  0.0246 -0.9495 -0.7136
  246MOL0     H32437   4.318   5.418  10.618  0.2990 -0.1583  3.4367
  246MOL0     H32438   4.163   5.443  10.445  2.7999 -0.0581  1.7505
  246MOL0     H32439   4.121   5.287  10.527 -0.6229 -1.5573 -0.9998
  246MOL0     H32440   4.010   5.207  10.326  0.6998  0.1951  0.8454
  246MOL0     H32441   4.077   5.337  10.233 -0.7647 -1.9941 -1.7350
  246MOL0     H32442   3.852   5.416  10.260  0.1582 -0.9181 -0.2404
  246MOL0     H32443   3.946   5.487  10.397  0.3536 -0.6139  1.6003
  246MOL0     H32444   3.827   5.223  10.435  1.2874 -0.0117 -0.7126
  246MOL0     H32445   3.892   5.329  10.554 -2.5148  0.6721  1.7737
  246MOL0     H32446   3.703   5.504  10.500 -0.4105 -0.4158 -1.6783
  246MOL0     H32447   3.681   5.360  10.602  2.5582 -0.7225 -0.3313
  246MOL0     H32448   3.585   5.254  10.397  0.0771  0.3530  0.0375
  246MOL0     H32449   3.581   5.418  10.313  0.3850  1.5301  0.4072
  246MOL0     H32450   3.436   5.309  10.556 -0.0208  0.9122  0.1324
  246MOL0     H32451   3.432   5.484  10.536 -1.8615 -1.3526  3.8767
  246MOL0     H32452   3.335   5.261  10.357 -1.4234 -0.7480  0.3117
  246MOL0     H32453   3.314   5.419  10.307 -0.9443  0.7111  1.3997
  246MOL0     H32454   4.504   5.169  10.310  0.3230  1.1061 -0.9916
  246MOL0     H32455   4.702   5.157  10.437  1.7107  2.3898  0.1509
  246MOL0     H32456   4.873   5.258  10.887 -0.5793 -0.8128 -0.2983
  246MOL0     H32457   5.036   5.184  11.025  1.1424  1.9182  0.1616
  246MOL0     H32458   6.887   4.518  10.682  1.1601  0.2048  0.3935
  246MOL0     H32459   7.131   4.453  10.650  1.2488 -1.4383 -3.1959
  246MOL0     H32460   7.503   4.519  10.619 -1.0583 -0.3115 -0.7776
  246MOL0     H32461   7.747   4.479  10.631 -0.2696 -0.7129 -0.2314
  246MOL0     H32462   7.954   4.536  10.592  0.3381  1.5339 -1.4843
  246MOL0     H32463   8.095   4.508  10.477  0.8048  0.4410  2.0606
  246MOL0     H32464   7.945   4.316  10.664 -1.1668 -0.1772 -0.6230
  246MOL0     H32465   7.967   4.257  10.491  0.2686  0.6703 -0.9134
  246MOL0     H32466   8.196   4.364  10.664  0.6227 -0.7606  0.5947
  246MOL0     H32467   8.195   4.268  10.518 -1.1056  0.7352 -0.2842
  246MOL0     H32468   8.099   4.184  10.794  1.1078 -2.2779  0.9811
  246MOL0     H32469   8.089   4.083  10.647  4.3163 -2.8552 -0.6951
  246MOL0     H32470   8.508   4.097  10.746 -0.7404 -0.4471  0.7390
  246MOL0     H32471   7.764   4.497  10.197  1.7675  0.1483  0.3456
  246MOL0     H32472   7.540   4.529  10.184 -0.5329  1.6210  0.5571
  247MOL0     O32473   9.053   2.017   6.190 -0.9119 -0.0006 -0.1370
  247MOL0     C32474   9.074   2.095   6.285 -0.5524 -0.4157  0.4116
  247MOL0     O32475   8.983   2.135   6.374 -0.7827 -0.1677  1.0567
  247MOL0     C32476   8.850   2.118   6.350 -0.2796  0.3439 -0.1300
  247MOL0     C32477   8.795   2.156   6.228  0.1579  0.4074  0.1664
  247MOL0     C32478   8.659   2.135   6.200  0.9967  0.1652  1.2036
  247MOL0     C32479   8.580   2.064   6.283  0.4239  0.3790 -0.2699
  247MOL0     O32480   8.444   2.070   6.272  0.6282 -0.2369 -0.5585
  247MOL0     C32481   8.399   1.993   6.166 -0.4265  1.0226  0.3575
  247MOL0     C32482   8.258   1.925   6.200 -0.2765  0.2039  0.0173
  247MOL0     C32483   8.217   1.822   6.091 -1.1874 -0.6413  0.2699
  247MOL0     C32484   8.074   1.780   6.113 -1.1216  0.4545 -0.0097
  247MOL0     C32485   8.032   1.707   5.977  0.3528  0.4726 -0.5313
  247MOL0     C32486   7.894   1.638   5.994 -0.3685 -0.2915  0.2315
  247MOL0     C32487   7.783   1.743   6.025  0.1065  0.3469 -0.1504
  247MOL0     C32488   7.648   1.712   5.972  0.4202  0.1929  0.1964
  247MOL0     N32489   7.585   1.619   6.074  0.2009 -0.7489  0.2063
  247MOL0     C32490   7.536   1.662   6.194 -0.5333 -0.6608  1.4568
  247MOL0     C32491   7.480   1.553   6.243 -0.6515 -0.9963 -0.2998
  247MOL0     C32492   7.417   1.549   6.377  0.1819  0.4247  0.7145
  247MOL0     C32493   7.259   1.531   6.376 -0.5875 -0.0052  0.2271
  247MOL0     C32494   7.219   1.418   6.466 -0.3295 -0.3364  1.0872
  247MOL0     C32495   7.066   1.405   6.475 -0.6226  0.4786  0.2017
  247MOL0     O32496   7.013   1.514   6.546  0.4414  0.7841 -0.1381
  247MOL0     C32497   6.885   1.490   6.592 -0.1790  0.6903 -0.2965
  247MOL0     C32498   6.810   1.374   6.574  0.7123  0.2685  0.4323
  247MOL0     C32499   6.685   1.363   6.643 -0.1105 -0.4842  0.1976
  247MOL0     C32500   6.649   1.475   6.735  0.3789  1.2965 -0.1221
  247MOL0     C32501   6.519   1.465   6.810  0.0592  0.1982  0.5574
  247MOL0     O32502   6.448   1.351   6.804  0.5961 -0.0101  0.2439
  247MOL0     C32503   6.314   1.329   6.845  0.1543 -0.3804 -1.1165
  247MOL0     C32504   6.234   1.425   6.911  0.1923 -0.1799 -0.1025
  247MOL0     C32505   6.111   1.378   6.965 -0.1050 -0.3315  0.4371
  247MOL0     C32506   6.076   1.245   6.960 -0.8075  0.0440 -0.0981
  247MOL0     O32507   5.968   1.208   7.025  0.5087 -0.4903 -0.0521
  247MOL0     C32508   5.943   1.261   7.152 -1.3104 -0.7445  1.4250
  247MOL0     C32509   5.849   1.172   7.226 -0.3830  1.0878  0.0150
  247MOL0     C32510   5.724   1.122   7.147  0.6232  0.1147  0.0408
  247MOL0     C32511   5.637   1.022   7.225  0.8054  0.3890  0.1784
  247MOL0     C32512   5.508   0.986   7.156 -0.7720  0.0065 -0.2856
  247MOL0     C32513   5.441   0.872   7.219  0.0386 -0.5727  0.0303
  247MOL0     C32514   5.509   0.737   7.256 -0.5704 -0.3818  0.1207
  247MOL0     C32515   5.405   0.624   7.230  0.0036 -0.2332  0.6368
  247MOL0    Cl32516   5.400   0.595   7.049 -0.4005  0.1741 -0.1504
  247MOL0     C32517   6.152   1.160   6.883  0.4546  0.5744  0.2219
  247MOL0     C32518   6.267   1.202   6.823 -0.1550 -0.0993 -0.7902
  247MOL0     O32519   6.476   1.573   6.848  0.6539  0.6602 -0.2467
  247MOL0     C32520   6.724   1.595   6.744 -0.4788 -0.8539  1.0081
  247MOL0     C32521   6.845   1.600   6.676  1.1433 -0.0076  0.0466
  247MOL0     N32522   7.499   1.443   6.164  0.3521 -0.8199  0.0882
  247MOL0     N32523   7.566   1.487   6.059 -0.0681 -0.3459  0.4606
  247MOL0     C32524   8.631   2.031   6.410  0.5171  0.4434 -0.3461
  247MOL0     C32525   8.758   2.068   6.440 -0.7880 -0.0093  0.9901
  247MOL0     C32526   9.215   2.143   6.311  0.7221  0.4340  0.8977
  247MOL0     C32527   9.309   2.110   6.212 -0.0539  0.2419  0.1699
  247MOL0     C32528   9.434   2.149   6.218 -0.4459  1.0127  0.3217
  247MOL0     C32529   9.489   2.213   6.332  0.3558 -0.4236  0.7291
  247MOL0     O32530   9.617   2.250   6.350 -0.4495  0.0882 -0.0607
  247MOL0     C32531   9.708   2.195   6.251 -0.5989 -0.1723 -1.0969
  247MOL0     C32532   9.854   2.222   6.305 -1.0202 -0.1429  0.7376
  247MOL0     C32533   9.962   2.190   6.206  0.0779 -0.3358 -0.0207
  247MOL0     C32534   9.969   2.272   6.074 -0.5033 -0.3856 -0.3194
  247MOL0     C32535  10.106   2.266   6.025 -0.7540  0.1303  0.8578
  247MOL0     C32536  10.223   2.254   5.983 -0.2006  1.0672 -0.8467
  247MOL0     C32537   9.400   2.235   6.433  0.3650  0.4655 -0.4251
  247MOL0     C32538   9.265   2.208   6.423 -0.4117  0.1347  0.9970
  247MOL0     H32539   8.856   2.177   6.141  0.1912 -0.6478 -0.0895
  247MOL0     H32540   8.618   2.177   6.108  0.0116  2.1900  2.5034
  247MOL0     H32541   8.455   1.901   6.149  0.3511  1.8354 -1.7990
  247MOL0     H32542   8.396   2.047   6.071  0.9403  1.7993  0.7259
  247MOL0     H32543   8.182   2.001   6.216  0.9223  1.0402  2.0805
  247MOL0     H32544   8.265   1.870   6.294 -3.4935  1.8710  1.3726
  247MOL0     H32545   8.290   1.740   6.080 -0.5269  0.2500 -2.6706
  247MOL0     H32546   8.217   1.883   6.001 -0.3121  1.2192  1.4747
  247MOL0     H32547   8.064   1.702   6.189 -1.6593 -1.2587 -1.7167
  247MOL0     H32548   8.009   1.867   6.124 -0.2576  1.1946 -0.6802
  247MOL0     H32549   8.098   1.622   5.958  0.5111  0.8576 -1.8667
  247MOL0     H32550   8.051   1.778   5.896  1.9046  0.8440  0.1324
  247MOL0     H32551   7.907   1.566   6.076 -1.3479 -0.5914  0.1422
  247MOL0     H32552   7.866   1.585   5.903  4.1921 -1.9463 -0.4742
  247MOL0     H32553   7.779   1.756   6.134 -0.3263  1.0422 -0.2460
  247MOL0     H32554   7.810   1.837   5.976  1.1952  1.7364  2.8663
  247MOL0     H32555   7.664   1.657   5.879 -1.2506 -3.9741  2.1288
  247MOL0     H32556   7.578   1.796   5.958  0.5422  0.7981  2.7663
  247MOL0     H32557   7.554   1.755   6.246 -0.2400 -1.2658  2.4711
  247MOL0     H32558   7.445   1.638   6.435 -0.2338  0.3521  1.0317
  247MOL0     H32559   7.463   1.473   6.440 -0.9617  0.2448  1.3646
  247MOL0     H32560   7.218   1.520   6.275 -1.0468 -0.9697  0.5011
  247MOL0     H32561   7.215   1.625   6.409 -0.1497  0.5565 -0.7656
  247MOL0     H32562   7.258   1.331   6.414 -2.1297 -1.0621  0.8526
  247MOL0     H32563   7.273   1.427   6.560 -0.1487  0.0477  0.9500
  247MOL0     H32564   7.047   1.307   6.521 -0.1617 -0.7258 -2.0291
  247MOL0     H32565   7.026   1.408   6.374 -0.6009  1.5104  0.2112
  247MOL0     H32566   6.829   1.281   6.521  0.5660  0.5872 -0.1824
  247MOL0     H32567   6.624   1.275   6.627 -3.3555  1.4930  0.6330
  247MOL0     H32568   6.251   1.532   6.924 -1.6524  0.2817 -1.1583
  247MOL0     H32569   6.046   1.452   7.012  0.2907  0.5277 -0.3253
  247MOL0     H32570   5.889   1.356   7.141 -0.8365 -0.7201 -1.2938
  247MOL0     H32571   6.032   1.266   7.216 -1.0764  0.2569  1.0341
  247MOL0     H32572   5.809   1.216   7.318  0.6240 -0.2389  1.1369
  247MOL0     H32573   5.909   1.086   7.257  1.7013 -0.2081 -6.2043
  247MOL0     H32574   5.758   1.070   7.057  0.8225  1.3123 -0.6032
  247MOL0     H32575   5.670   1.216   7.131  2.9629  1.4013 -0.8966
  247MOL0     H32576   5.695   0.931   7.243 -1.2408 -0.9319  0.3797
  247MOL0     H32577   5.607   1.078   7.314  1.0147 -0.1370  0.5783
  247MOL0     H32578   5.539   0.952   7.056  2.2162 -1.1849  0.9251
  247MOL0     H32579   5.442   1.073   7.162 -0.3514  0.2403  3.4843
  247MOL0     H32580   5.355   0.852   7.155 -1.4993  1.5041  1.3275
  247MOL0     H32581   5.385   0.899   7.309  0.1168 -2.6035  0.7517
  247MOL0     H32582   5.599   0.723   7.196  0.4669  0.5859  1.3883
  247MOL0     H32583   5.530   0.742   7.364 -0.9282  1.2184  0.1331
  247MOL0     H32584   5.306   0.651   7.267 -1.0448  0.5693 -2.5047
  247MOL0     H32585   5.453   0.548   7.292  0.1563  0.1054  0.9429
  247MOL0     H32586   6.125   1.055   6.873 -0.8340  1.1276 -3.3795
  247MOL0     H32587   6.315   1.123   6.768 -1.4564 -1.1365 -0.4960
  247MOL0     H32588   6.688   1.673   6.810 -1.3888 -0.3009 -0.1030
  247MOL0     H32589   6.920   1.678   6.680  0.2458  0.8531  0.7344
  247MOL0     H32590   8.564   1.997   6.488 -0.5918  3.9274  0.3753
  247MOL0     H32591   8.787   2.048   6.542 -1.9690 -2.2730  0.9358
  247MOL0     H32592   9.273   2.074   6.117  2.1343  1.1500 -1.0731
  247MOL0     H32593   9.497   2.125   6.133  0.9495 -0.2175  1.6574
  247MOL0     H32594   9.694   2.242   6.153 -2.7832  1.4661 -0.1130
  247MOL0     H32595   9.709   2.086   6.251  0.0366 -0.2108  0.8061
  247MOL0     H32596   9.859   2.331   6.308  0.2663 -0.1673  0.1975
  247MOL0     H32597   9.873   2.179   6.404 -1.4668 -0.5466  0.6521
  247MOL0     H32598   9.948   2.084   6.183 -0.0503 -0.1048 -1.0718
  247MOL0     H32599  10.060   2.202   6.254  1.5817  0.2318 -2.9539
  247MOL0     H32600   9.904   2.240   5.991  0.3484  0.0014 -1.1476
  247MOL0     H32601   9.944   2.377   6.086  0.7723  0.2274 -2.4426
  247MOL0     H32602  10.328   2.266   5.972  0.3567  0.1844  2.3485
  247MOL0     H32603   9.439   2.277   6.526  1.0682 -0.7855 -0.1265
  247MOL0     H32604   9.200   2.249   6.500 -1.3328 -0.1737  0.4090
  248MOL0     O32605   9.708   6.350   3.749  0.3033 -0.2519  0.1133
  248MOL0     C32606   9.681   6.463   3.789 -0.0973  0.4941 -0.6398
  248MOL0     O32607   9.566   6.492   3.862 -0.0346 -0.0718 -0.2079
  248MOL0     C32608   9.491   6.398   3.929  0.2909  0.2931 -0.0015
  248MOL0     C32609   9.526   6.273   3.970  0.0943 -0.2582 -0.8460
  248MOL0     C32610   9.450   6.187   4.049  0.0226 -0.4397  0.0543
  248MOL0     C32611   9.325   6.228   4.091  0.2535  0.0639  0.1434
  248MOL0     O32612   9.251   6.145   4.165  0.1719  0.4745 -0.5145
  248MOL0     C32613   9.113   6.139   4.144  0.7421  0.0022  0.1234
  248MOL0     C32614   9.045   6.040   4.245 -1.0833  0.1694 -0.2671
  248MOL0     C32615   8.901   6.014   4.215  0.5781 -0.5092 -0.1096
  248MOL0     C32616   8.828   5.920   4.307 -0.1380  0.5792  0.3975
  248MOL0     C32617   8.728   5.833   4.230 -0.0452  0.4974 -0.4691
  248MOL0     C32618   8.600   5.893   4.166 -0.6276  0.3833  0.5589
  248MOL0     C32619   8.612   5.994   4.047  0.0145  0.9528 -0.1978
  248MOL0     C32620   8.681   5.931   3.922  0.3534  0.1253 -0.2605
  248MOL0     N32621   8.682   6.013   3.796 -0.2342 -0.8826  0.3264
  248MOL0     C32622   8.572   6.090   3.749 -0.6128 -0.4836  0.2907
  248MOL0     C32623   8.614   6.132   3.619 -0.2640 -0.4683  0.6885
  248MOL0     C32624   8.547   6.221   3.521 -0.6674 -0.6442  0.9095
  248MOL0     C32625   8.464   6.157   3.417  0.5014 -0.3466  0.5165
  248MOL0     C32626   8.407   6.257   3.321  0.7237 -0.8123  0.3630
  248MOL0     C32627   8.341   6.380   3.377 -0.3500  0.4114 -0.1303
  248MOL0     O32628   8.241   6.349   3.471 -0.1144 -0.3754  0.0379
  248MOL0     C32629   8.122   6.388   3.437 -0.7952  0.3097 -0.8176
  248MOL0     C32630   8.037   6.285   3.400  0.0438  0.4686  0.1231
  248MOL0     C32631   7.908   6.314   3.354  0.6235  0.0891 -0.9362
  248MOL0     C32632   7.867   6.449   3.362 -0.8273  0.5119  0.3341
  248MOL0     C32633   7.730   6.496   3.314 -0.0265 -0.0521 -0.0500
  248MOL0     O32634   7.692   6.625   3.346 -0.2522  0.2651 -0.2221
  248MOL0     C32635   7.560   6.660   3.312  0.1043 -0.4682 -0.0364
  248MOL0     C32636   7.465   6.668   3.419 -0.0532  0.2199 -0.2531
  248MOL0     C32637   7.339   6.732   3.401 -0.2717 -0.2188  0.6710
  248MOL0     C32638   7.295   6.769   3.268 -1.3907  0.5469  0.0277
  248MOL0     O32639   7.172   6.820   3.253  0.0822 -0.1237  0.4189
  248MOL0     C32640   7.089   6.759   3.151  0.3100  0.2434 -0.0506
  248MOL0     C32641   6.941   6.811   3.155 -0.0038  0.1661  0.0940
  248MOL0     C32642   6.845   6.777   3.033 -0.1784  1.2234  0.1851
  248MOL0     C32643   6.795   6.636   3.043  1.1699  0.9181 -0.7188
  248MOL0     C32644   6.699   6.606   2.928  0.8381 -0.0338  1.2632
  248MOL0     C32645   6.551   6.659   2.950 -0.0180  0.0665  0.0181
  248MOL0     C32646   6.456   6.633   2.828 -0.0618  0.1565  0.3022
  248MOL0     C32647   6.448   6.485   2.796 -0.1251  0.8427  0.2396
  248MOL0    Cl32648   6.394   6.373   2.933  0.3099 -0.0993 -0.1915
  248MOL0     C32649   7.395   6.775   3.168  0.5508  0.3762  0.5154
  248MOL0     C32650   7.525   6.715   3.186  0.3410 -0.4968 -0.1729
  248MOL0     O32651   7.649   6.406   3.277 -0.0964  0.1156 -0.7288
  248MOL0     C32652   7.954   6.550   3.407 -0.3736  0.6583 -0.5010
  248MOL0     C32653   8.085   6.521   3.452  0.9246 -0.4322  0.6543
  248MOL0     N32654   8.747   6.102   3.611  0.0725 -0.1529 -0.0628
  248MOL0     N32655   8.785   6.039   3.718 -0.2015 -0.3215 -0.7697
  248MOL0     C32656   9.282   6.355   4.050 -0.4843  0.5254 -0.6255
  248MOL0     C32657   9.363   6.439   3.976 -0.4115 -0.1866  0.6817
  248MOL0     C32658   9.772   6.571   3.755  0.6316 -0.7546  0.1884
  248MOL0     C32659   9.888   6.547   3.676  1.1610 -0.2559 -0.7762
  248MOL0     C32660   9.965   6.653   3.639  0.0092  0.1952  0.5922
  248MOL0     C32661   9.934   6.785   3.662  0.4626 -0.3239 -0.2152
  248MOL0     O32662  10.003   6.883   3.597  0.1783  0.1575 -0.2706
  248MOL0     C32663  10.145   6.891   3.615  0.5976  0.2901 -1.1331
  248MOL0     C32664  10.182   7.022   3.694  0.5970  0.5733  0.5083
  248MOL0     C32665  10.082   7.062   3.815  0.7435 -0.3756  0.1136
  248MOL0     C32666  10.004   7.199   3.776 -0.0764 -0.1494  0.7179
  248MOL0     C32667   9.926   7.258   3.887 -0.5368  0.5412  0.5018
  248MOL0     C32668   9.857   7.303   3.968 -0.3964  0.6551  0.4722
  248MOL0     C32669   9.821   6.809   3.742 -0.3533 -0.4781 -0.2435
  248MOL0     C32670   9.737   6.704   3.792  0.0178 -0.5703 -0.0658
  248MOL0     H32671   9.620   6.229   3.936  0.5286 -1.2422  1.4340
  248MOL0     H32672   9.485   6.086   4.073 -1.1899 -0.7714  0.4810
  248MOL0     H32673   9.088   6.111   4.042  2.5211 -0.7347 -0.1326
  248MOL0     H32674   9.064   6.235   4.162 -3.2220 -1.0736 -3.4346
  248MOL0     H32675   9.051   6.086   4.344 -0.1593  2.1172 -1.1775
  248MOL0     H32676   9.101   5.946   4.257 -1.5576  0.0825  1.6678
  248MOL0     H32677   8.905   5.979   4.111 -0.7087 -1.6571  0.2023
  248MOL0     H32678   8.845   6.108   4.213  0.5380 -0.5281 -2.1587
  248MOL0     H32679   8.895   5.850   4.359 -0.6579  0.4760  0.9527
  248MOL0     H32680   8.770   5.976   4.382  0.3533  2.2307 -0.4184
  248MOL0     H32681   8.697   5.769   4.313  1.0704  0.1734 -0.2932
  248MOL0     H32682   8.771   5.771   4.152  1.4919  0.0488  0.6904
  248MOL0     H32683   8.549   5.952   4.242 -4.6593  3.1211 -3.6749
  248MOL0     H32684   8.527   5.812   4.151 -1.8178  1.2243  1.6153
  248MOL0     H32685   8.511   6.021   4.014 -0.6809  0.8985  1.7101
  248MOL0     H32686   8.666   6.084   4.079  2.4410 -1.0681  1.7977
  248MOL0     H32687   8.629   5.839   3.894  4.8737 -2.6701 -0.5436
  248MOL0     H32688   8.785   5.908   3.946  1.2529  2.9062 -1.1412
  248MOL0     H32689   8.475   6.102   3.795  0.2580 -0.6336  2.3056
  248MOL0     H32690   8.616   6.285   3.465 -1.8313  1.1982  1.4647
  248MOL0     H32691   8.483   6.293   3.575  0.0285  1.1513 -0.5462
  248MOL0     H32692   8.381   6.104   3.464 -0.8423  1.9355  0.8969
  248MOL0     H32693   8.533   6.093   3.361 -0.8292  0.5666 -2.3681
  248MOL0     H32694   8.493   6.290   3.262  1.9499 -2.6578  1.0316
  248MOL0     H32695   8.336   6.212   3.250 -0.9421  0.6352  1.0514
  248MOL0     H32696   8.304   6.442   3.296 -0.2064 -0.0363 -0.5487
  248MOL0     H32697   8.423   6.443   3.413  2.4943 -0.1401 -4.7376
  248MOL0     H32698   8.079   6.185   3.389 -2.1749 -0.3176 -2.3559
  248MOL0     H32699   7.844   6.241   3.304  1.0929 -1.1816  0.2309
  248MOL0     H32700   7.494   6.639   3.519  0.8771 -2.0879 -1.1230
  248MOL0     H32701   7.265   6.742   3.480 -0.1782  3.2550  0.4703
  248MOL0     H32702   7.100   6.652   3.170  1.8222  0.5327  0.8276
  248MOL0     H32703   7.129   6.790   3.054  2.4431  2.2911  1.3734
  248MOL0     H32704   6.953   6.919   3.168  3.7308  0.0073 -0.8629
  248MOL0     H32705   6.894   6.771   3.245 -0.6249  2.6549  0.9590
  248MOL0     H32706   6.895   6.801   2.939 -1.2020 -1.5134 -1.1530
  248MOL0     H32707   6.759   6.843   3.050 -0.0224  0.6171  4.7106
  248MOL0     H32708   6.886   6.575   3.037  2.1172  2.1330  0.7723
  248MOL0     H32709   6.738   6.612   3.133 -1.5149  3.6285 -1.5029
  248MOL0     H32710   6.693   6.497   2.918 -1.8461  0.0740  0.8449
  248MOL0     H32711   6.741   6.653   2.839 -1.7964 -0.6473 -0.4180
  248MOL0     H32712   6.562   6.765   2.974  2.7540 -0.2010  0.3121
  248MOL0     H32713   6.519   6.604   3.039 -1.2647  0.3920 -0.2106
  248MOL0     H32714   6.361   6.683   2.851 -0.5934  0.8326 -2.8853
  248MOL0     H32715   6.495   6.684   2.739  0.5802  1.7054  1.4151
  248MOL0     H32716   6.548   6.452   2.766  1.4695  3.6470  2.0343
  248MOL0     H32717   6.378   6.482   2.712  0.0250  2.5503  0.0169
  248MOL0     H32718   7.378   6.824   3.073 -1.6926  1.9425  1.6443
  248MOL0     H32719   7.603   6.725   3.111 -0.1681  0.8411 -0.5463
  248MOL0     H32720   7.907   6.648   3.406 -2.5934 -0.3258  0.5326
  248MOL0     H32721   8.144   6.607   3.483  0.4579  0.7306 -1.4597
  248MOL0     H32722   9.183   6.390   4.077  0.6141  3.7950 -0.2924
  248MOL0     H32723   9.330   6.538   3.946 -2.6861 -0.8630  0.7757
  248MOL0     H32724   9.907   6.445   3.643  0.1712  0.1796 -2.8736
  248MOL0     H32725  10.038   6.640   3.560  0.4911  1.5849  0.7794
  248MOL0     H32726  10.203   6.901   3.523 -0.3509  1.8672 -1.6011
  248MOL0     H32727  10.174   6.802   3.673 -1.6792  0.6219  0.6704
  248MOL0     H32728  10.283   7.019   3.736  0.4135  0.1312  0.9324
  248MOL0     H32729  10.177   7.112   3.632 -1.1749  1.5201  1.9526
  248MOL0     H32730  10.139   7.072   3.908 -1.5712  1.4206  1.4325
  248MOL0     H32731  10.010   6.981   3.821 -0.4997  0.7792  1.5019
  248MOL0     H32732  10.083   7.266   3.739 -0.3867  0.0738  0.4488
  248MOL0     H32733   9.943   7.184   3.687 -1.6878  0.8184  1.6070
  248MOL0     H32734   9.795   7.329   4.051 -1.0426 -1.2935  0.6631
  248MOL0     H32735   9.794   6.910   3.769  1.9898  0.4215 -0.9875
  248MOL0     H32736   9.658   6.738   3.858  0.6122 -0.6792  0.7265
  249MOL0     O32737   1.802   0.219   8.197 -0.0877  0.1418  0.1946
  249MOL0     C32738   1.756   0.216   8.305  0.0767  0.0176 -0.7856
  249MOL0     O32739   1.623   0.225   8.338  0.1357 -0.3312 -0.3737
  249MOL0     C32740   1.518   0.210   8.250 -0.5956  0.1673  0.1140
  249MOL0     C32741   1.396   0.229   8.313  0.7597 -0.0530 -0.4532
  249MOL0     C32742   1.278   0.219   8.238 -0.1877 -0.1040  0.8768
  249MOL0     C32743   1.282   0.201   8.102  0.3728 -0.0358 -0.1167
  249MOL0     O32744   1.159   0.207   8.044  0.0159 -0.2368  0.9356
  249MOL0     C32745   1.142   0.236   7.909  0.3569  1.3917 -0.5015
  249MOL0     C32746   0.994   0.273   7.896  0.5419 -0.9806 -0.1086
  249MOL0     C32747   0.972   0.339   7.760  0.0927 -0.3756 -0.1556
  249MOL0     C32748   0.824   0.372   7.729 -0.3230  0.6358 -0.4339
  249MOL0     C32749   0.806   0.455   7.596 -0.5085  0.1502 -0.0450
  249MOL0     C32750   0.840   0.364   7.472  0.5101  0.0207 -1.4533
  249MOL0     C32751   0.786   0.434   7.346  0.3298  0.0213  0.0701
  249MOL0     C32752   0.797   0.350   7.221  0.3943  0.2504  0.0764
  249MOL0     N32753   0.712   0.227   7.220  0.6303 -0.8666 -0.7637
  249MOL0     C32754   0.573   0.221   7.224 -0.4923  0.1586 -0.1955
  249MOL0     C32755   0.541   0.092   7.214  0.0993 -0.1734  0.1619
  249MOL0     C32756   0.396   0.051   7.189 -1.2619 -0.7346  0.0844
  249MOL0     C32757   0.351   0.091   7.049  0.5476 -0.2928 -0.4238
  249MOL0     C32758   0.218   0.033   7.007 -0.0874 -0.7913  0.7289
  249MOL0     C32759   0.094   0.038   7.104 -0.6636  0.5660 -0.1524
  249MOL0     O32760  -0.007  -0.014   7.042  0.4731  0.0812 -0.6322
  249MOL0     C32761  -0.110  -0.070   7.122  0.5940 -0.2992  0.0075
  249MOL0     C32762  -0.205  -0.130   7.041  0.0522 -0.7158  0.2218
  249MOL0     C32763  -0.324  -0.190   7.094 -0.1114 -0.2469  1.2527
  249MOL0     C32764  -0.345  -0.187   7.231  0.0667 -0.1636 -0.0216
  249MOL0     C32765  -0.473  -0.242   7.295  0.0577  0.0617 -1.1567
  249MOL0     O32766  -0.571  -0.281   7.210 -0.5958 -0.3364 -0.2977
  249MOL0     C32767  -0.689  -0.337   7.260 -0.0241 -0.9628 -0.5817
  249MOL0     C32768  -0.693  -0.473   7.270  0.1618  0.1273  0.1157
  249MOL0     C32769  -0.808  -0.542   7.307 -0.1167  0.1993 -0.6146
  249MOL0     C32770  -0.928  -0.477   7.344 -0.5290  0.0708  0.3547
  249MOL0     O32771  -1.026  -0.563   7.383  0.0185  0.9346 -0.2197
  249MOL0     C32772  -1.159  -0.508   7.362 -0.2838 -0.1801  0.0600
  249MOL0     C32773  -1.273  -0.611   7.396  0.5499 -0.4797  0.3986
  249MOL0     C32774  -1.308  -0.692   7.269 -0.2893 -0.1576 -0.5325
  249MOL0     C32775  -1.374  -0.824   7.314  0.1468  0.6987 -0.4599
  249MOL0     C32776  -1.513  -0.792   7.383  0.3255 -0.4374  0.5182
  249MOL0     C32777  -1.590  -0.926   7.398  0.0261  0.0456  0.7471
  249MOL0     C32778  -1.725  -0.886   7.457  0.5063 -0.0932  0.6022
  249MOL0     C32779  -1.786  -0.996   7.551  1.2941  0.5467  0.8194
  249MOL0    Cl32780  -1.944  -0.927   7.605 -0.7834 -0.3009 -0.1304
  249MOL0     C32781  -0.922  -0.336   7.343 -0.5550 -0.2249 -0.7680
  249MOL0     C32782  -0.799  -0.272   7.305  0.3850 -0.0259  0.0519
  249MOL0     O32783  -0.471  -0.257   7.420 -0.8712  0.0374 -0.0959
  249MOL0     C32784  -0.242  -0.134   7.311 -0.1318  0.6825  0.8262
  249MOL0     C32785  -0.125  -0.078   7.260  0.6031 -0.0327  0.5707
  249MOL0     N32786   0.656   0.017   7.189  0.4914 -0.9015 -0.7381
  249MOL0     N32787   0.758   0.097   7.196  0.4188  0.8791  0.0750
  249MOL0     C32788   1.405   0.184   8.033  1.3295  0.2939  0.0355
  249MOL0     C32789   1.522   0.197   8.105 -0.4975 -0.5106  0.0504
  249MOL0     C32790   1.861   0.236   8.409  0.8580 -0.8603  0.1063
  249MOL0     C32791   1.816   0.294   8.533 -0.1123  0.8942 -0.0539
  249MOL0     C32792   1.906   0.330   8.629  0.2944  0.1290 -0.0876
  249MOL0     C32793   2.042   0.314   8.609 -0.2389  0.9944 -0.8072
  249MOL0     O32794   2.136   0.359   8.699 -0.0584  0.7553 -0.2962
  249MOL0     C32795   2.107   0.437   8.814  0.3259  0.3343 -0.6128
  249MOL0     C32796   2.234   0.477   8.881 -0.2258  0.4248  0.8016
  249MOL0     C32797   2.323   0.573   8.799 -0.1470  0.4576 -0.2729
  249MOL0     C32798   2.445   0.503   8.739  0.1426 -0.5296 -0.0553
  249MOL0     C32799   2.550   0.504   8.844  0.1388  1.0321  0.7493
  249MOL0     C32800   2.647   0.503   8.920 -0.2985 -1.1983  1.4941
  249MOL0     C32801   2.091   0.261   8.483  0.1234 -0.2749 -0.5002
  249MOL0     C32802   1.999   0.219   8.390  0.1514 -0.7999 -0.1472
  249MOL0     H32803   1.401   0.261   8.416 -0.7671  2.9310 -1.1857
  249MOL0     H32804   1.180   0.243   8.277 -0.8893 -0.5635 -0.5668
  249MOL0     H32805   1.147   0.147   7.845 -1.8431  0.1149  0.9548
  249MOL0     H32806   1.210   0.315   7.876  0.7785  1.7866  1.2359
  249MOL0     H32807   0.965   0.331   7.984  1.6591  0.1822 -0.4672
  249MOL0     H32808   0.936   0.181   7.891  0.1447 -0.7837  0.7778
  249MOL0     H32809   1.000   0.266   7.683 -1.0122 -0.5100 -0.4459
  249MOL0     H32810   1.039   0.425   7.750 -0.1427 -0.3770 -2.4785
  249MOL0     H32811   0.782   0.271   7.723  0.8768 -0.0016  1.1832
  249MOL0     H32812   0.776   0.424   7.813 -1.2131  1.6601 -1.5353
  249MOL0     H32813   0.859   0.551   7.598 -0.1808  0.0126 -1.1958
  249MOL0     H32814   0.699   0.470   7.582  0.1183  4.6932 -1.7320
  249MOL0     H32815   0.782   0.271   7.476 -0.4583  0.6588  1.1485
  249MOL0     H32816   0.947   0.343   7.463  1.1167 -1.5443  4.8468
  249MOL0     H32817   0.680   0.461   7.351  0.4819  0.3781  3.5928
  249MOL0     H32818   0.846   0.524   7.338 -3.4954  2.8892  0.8268
  249MOL0     H32819   0.902   0.325   7.205  0.1362  0.6922 -2.8361
  249MOL0     H32820   0.768   0.422   7.144 -1.5461 -1.5162 -0.9166
  249MOL0     H32821   0.503   0.303   7.236  2.2431  2.4355  1.5746
  249MOL0     H32822   0.338   0.110   7.261 -0.3988  0.8197 -0.4474
  249MOL0     H32823   0.384  -0.057   7.203 -1.5422 -0.9291 -1.4567
  249MOL0     H32824   0.432   0.064   6.981  0.6681  0.9227 -0.7917
  249MOL0     H32825   0.338   0.200   7.048 -1.1886 -0.4620  0.1719
  249MOL0     H32826   0.187   0.093   6.921  2.2585 -0.2114  0.2219
  249MOL0     H32827   0.224  -0.067   6.963 -1.5134 -1.5289  2.1240
  249MOL0     H32828   0.064   0.138   7.138 -3.8570 -0.1288 -0.6291
  249MOL0     H32829   0.129  -0.003   7.200  1.2288  1.7477 -0.2634
  249MOL0     H32830  -0.188  -0.142   6.935  2.8874 -2.4308  0.7666
  249MOL0     H32831  -0.382  -0.236   7.016  2.4981 -0.4765 -0.6979
  249MOL0     H32832  -0.613  -0.541   7.243 -0.4088  0.0058 -1.3615
  249MOL0     H32833  -0.803  -0.650   7.300 -2.0233 -0.2060  2.4220
  249MOL0     H32834  -1.172  -0.467   7.261  0.9751  1.7121  0.6299
  249MOL0     H32835  -1.171  -0.433   7.440  1.9064  2.0001 -1.5299
  249MOL0     H32836  -1.362  -0.554   7.422  0.1590 -0.0128 -1.7594
  249MOL0     H32837  -1.241  -0.676   7.478  2.1138 -1.2013 -0.7460
  249MOL0     H32838  -1.215  -0.719   7.218  0.9326  0.8038  1.1021
  249MOL0     H32839  -1.370  -0.638   7.196  0.1875 -1.1024 -1.6738
  249MOL0     H32840  -1.386  -0.897   7.234  2.2080 -0.0685 -0.1169
  249MOL0     H32841  -1.312  -0.872   7.391  0.1568 -0.6366 -1.2713
  249MOL0     H32842  -1.572  -0.724   7.321  0.7834  1.0997  1.6897
  249MOL0     H32843  -1.498  -0.753   7.484  0.2582  0.4641  0.1895
  249MOL0     H32844  -1.528  -0.993   7.457 -1.1469  0.1858  2.2042
  249MOL0     H32845  -1.590  -0.968   7.297 -0.3230  0.2717  0.6496
  249MOL0     H32846  -1.701  -0.793   7.508  3.0345 -0.5433  0.3461
  249MOL0     H32847  -1.801  -0.866   7.381 -0.2690  0.9610  1.6149
  249MOL0     H32848  -1.715  -1.036   7.624  0.4402  2.0615  2.5704
  249MOL0     H32849  -1.825  -1.081   7.495 -1.2908  2.7103 -0.9105
  249MOL0     H32850  -0.998  -0.265   7.376  1.6040  1.9894 -0.3231
  249MOL0     H32851  -0.802  -0.164   7.317 -3.7588 -0.1887  2.1946
  249MOL0     H32852  -0.250  -0.147   7.418  1.7865 -0.8474  0.8349
  249MOL0     H32853  -0.045  -0.052   7.329  0.5795 -1.0747  1.0008
  249MOL0     H32854   1.396   0.150   7.930  0.0098  0.6855  0.0049
  249MOL0     H32855   1.617   0.194   8.052  0.6429  2.0855  1.7513
  249MOL0     H32856   1.713   0.318   8.556  0.1185  3.3732 -1.3039
  249MOL0     H32857   1.864   0.357   8.725 -0.8566 -4.4121  0.9156
  249MOL0     H32858   2.032   0.392   8.880 -1.0409  3.0058 -0.2154
  249MOL0     H32859   2.061   0.531   8.781  2.6463  2.7816  2.4679
  249MOL0     H32860   2.201   0.539   8.966  1.7212  2.1653  0.3576
  249MOL0     H32861   2.283   0.384   8.912 -0.6536 -0.1416 -0.1864
  249MOL0     H32862   2.357   0.656   8.862  2.9561 -2.4389  2.2370
  249MOL0     H32863   2.266   0.612   8.714  0.5196  1.6753 -0.1943
  249MOL0     H32864   2.414   0.403   8.708 -0.2035 -1.5309  3.1015
  249MOL0     H32865   2.474   0.563   8.652 -3.5137  0.0675 -1.0373
  249MOL0     H32866   2.728   0.494   8.988  0.0627 -2.0648  0.9706
  249MOL0     H32867   2.196   0.249   8.460  0.1982 -0.5662 -0.0129
  249MOL0     H32868   2.037   0.177   8.297  0.7532 -2.4858  0.8258
  250MOL0     O32869   1.238   7.793   3.894  0.2469  0.1324 -0.4212
  250MOL0     C32870   1.208   7.832   4.012 -0.1556  0.7984  1.4750
  250MOL0     O32871   1.276   7.925   4.081  0.4192 -0.0725 -0.4749
  250MOL0     C32872   1.390   7.976   4.033  0.1435 -1.0684  0.6585
  250MOL0     C32873   1.515   7.938   4.079  0.3867  0.6352  0.5037
  250MOL0     C32874   1.632   7.988   4.022 -0.5708  0.5683  0.2134
  250MOL0     C32875   1.621   8.079   3.924  0.0164  0.9130  0.4705
  250MOL0     O32876   1.733   8.144   3.885  0.4942  0.0119  0.2320
  250MOL0     C32877   1.787   8.235   3.980 -0.5732  0.0131  0.3884
  250MOL0     C32878   1.746   8.375   3.939  0.0731 -0.0827  0.2056
  250MOL0     C32879   1.810   8.426   3.816 -0.1780  0.4786  0.2033
  250MOL0     C32880   1.771   8.575   3.798 -0.3158 -0.3589 -0.5523
  250MOL0     C32881   1.626   8.606   3.790 -0.5421 -0.3876  0.0508
  250MOL0     C32882   1.606   8.726   3.696 -0.3972 -0.3665 -0.4701
  250MOL0     C32883   1.661   8.854   3.765 -0.1072 -0.4478  0.8313
  250MOL0     C32884   1.644   8.978   3.682  0.6649 -0.2870 -0.2082
  250MOL0     N32885   1.504   9.001   3.661  0.3030 -0.2063 -0.2358
  250MOL0     C32886   1.400   8.979   3.751 -0.6285 -1.0733  0.5461
  250MOL0     C32887   1.290   8.983   3.682 -0.1906  1.3158  0.1509
  250MOL0     C32888   1.150   8.983   3.743 -0.3975 -0.6234  0.3854
  250MOL0     C32889   1.077   8.859   3.692 -0.6201 -0.1689 -0.4849
  250MOL0     C32890   1.114   8.730   3.764  0.7876  0.2595 -0.6939
  250MOL0     C32891   1.045   8.601   3.713 -0.1865 -0.2253 -0.4290
  250MOL0     O32892   0.905   8.622   3.703  0.7100  0.3244 -0.3450
  250MOL0     C32893   0.824   8.511   3.740  0.3092  0.1957 -0.5551
  250MOL0     C32894   0.684   8.545   3.758 -0.9749 -0.1618 -1.0969
  250MOL0     C32895   0.591   8.441   3.776 -0.8466  0.2483  0.3797
  250MOL0     C32896   0.632   8.307   3.779  0.1666  0.2550  0.3396
  250MOL0     C32897   0.525   8.198   3.793 -0.5597 -0.5091  0.5033
  250MOL0     O32898   0.397   8.240   3.797 -0.1188  0.0101  0.1008
  250MOL0     C32899   0.294   8.154   3.778  0.0330  0.0565 -0.4484
  250MOL0     C32900   0.189   8.210   3.698  1.1159  0.2521  0.3193
  250MOL0     C32901   0.077   8.125   3.674 -0.2034 -0.4087  0.1857
  250MOL0     C32902   0.066   7.991   3.728  0.7365 -0.5576 -0.1454
  250MOL0     O32903  -0.043   7.912   3.705  0.4204 -0.0154  0.1678
  250MOL0     C32904  -0.147   7.958   3.626  0.6229 -0.7890  0.0881
  250MOL0     C32905  -0.245   7.836   3.614  0.8011 -0.8138  0.1783
  250MOL0     C32906  -0.352   7.857   3.511 -0.4877 -0.7862 -0.0091
  250MOL0     C32907  -0.444   7.744   3.491  0.6910 -0.5060 -0.2092
  250MOL0     C32908  -0.543   7.778   3.381  0.3355 -0.4723  0.3397
  250MOL0     C32909  -0.637   7.664   3.362 -0.3764 -0.3807 -0.3162
  250MOL0     C32910  -0.761   7.707   3.271 -0.2612 -0.1940 -0.2152
  250MOL0     C32911  -0.879   7.765   3.349  0.2356 -0.1955 -0.3447
  250MOL0    Cl32912  -1.014   7.747   3.243 -0.1655 -0.0334  0.2470
  250MOL0     C32913   0.166   7.950   3.810 -1.0474 -1.0330 -0.4476
  250MOL0     C32914   0.274   8.025   3.846 -0.9522 -1.1051  0.8727
  250MOL0     O32915   0.565   8.085   3.784 -0.0287 -0.3423 -0.2763
  250MOL0     C32916   0.769   8.274   3.783  0.3103  0.3587  0.1238
  250MOL0     C32917   0.861   8.372   3.762  0.0096 -0.8366 -1.0016
  250MOL0     N32918   1.315   9.008   3.551 -0.0579  1.6500  0.2440
  250MOL0     N32919   1.438   9.021   3.546 -0.8798 -1.1241 -0.1928
  250MOL0     C32920   1.502   8.110   3.866  0.2600 -0.5002  0.2920
  250MOL0     C32921   1.387   8.054   3.921 -0.1777 -0.6212 -0.5347
  250MOL0     C32922   1.095   7.759   4.075  0.1707  0.8333  0.4647
  250MOL0     C32923   1.072   7.784   4.211  0.1976  0.4865  0.0324
  250MOL0     C32924   0.975   7.705   4.273  0.0237 -0.7647  0.1564
  250MOL0     C32925   0.912   7.599   4.211 -0.4527 -0.4826 -0.0671
  250MOL0     O32926   0.843   7.507   4.279  0.6103  0.5281 -0.6892
  250MOL0     C32927   0.725   7.564   4.343  0.0261  0.3420 -0.7040
  250MOL0     C32928   0.613   7.556   4.243  0.4677 -1.2567  0.8229
  250MOL0     C32929   0.563   7.405   4.200 -0.0068 -0.1091 -0.0412
  250MOL0     C32930   0.503   7.328   4.313 -0.4960 -1.1559 -0.2338
  250MOL0     C32931   0.473   7.184   4.267 -0.0461 -0.5021 -0.5107
  250MOL0     C32932   0.453   7.073   4.230  0.1236 -1.1754 -0.6640
  250MOL0     C32933   0.944   7.571   4.077  0.3805  1.0708  0.0030
  250MOL0     C32934   1.032   7.654   4.007 -0.0380 -0.4242 -0.5029
  250MOL0     H32935   1.514   7.869   4.163 -1.5335  1.1343  0.9331
  250MOL0     H32936   1.728   7.962   4.067 -0.8871 -2.1196 -0.4502
  250MOL0     H32937   1.895   8.221   3.987 -0.6424 -0.0810  1.5722
  250MOL0     H32938   1.748   8.212   4.080 -0.8098 -1.2931  0.0185
  250MOL0     H32939   1.753   8.441   4.026  1.4757  0.4646 -0.2837
  250MOL0     H32940   1.640   8.365   3.917  0.3059  0.2801 -1.2031
  250MOL0     H32941   1.776   8.368   3.730 -0.7291  1.6537 -0.3992
  250MOL0     H32942   1.919   8.430   3.816 -0.1251 -0.6706 -0.2576
  250MOL0     H32943   1.812   8.631   3.883 -0.5896 -2.8475  1.3386
  250MOL0     H32944   1.825   8.607   3.709 -0.9089  2.6909  0.0615
  250MOL0     H32945   1.573   8.614   3.885 -2.3095  1.0283 -0.9697
  250MOL0     H32946   1.577   8.518   3.746 -0.2116 -2.6673  3.8522
  250MOL0     H32947   1.502   8.738   3.663 -0.9783  3.3834  2.1502
  250MOL0     H32948   1.673   8.716   3.610 -0.2475 -0.9435 -0.2956
  250MOL0     H32949   1.616   8.864   3.864  1.1111 -2.5844  1.6880
  250MOL0     H32950   1.769   8.842   3.773  0.2554  1.3344 -0.7397
  250MOL0     H32951   1.693   8.957   3.586 -1.9182 -0.3171 -1.6001
  250MOL0     H32952   1.695   9.065   3.724  2.7457 -2.3498  1.7880
  250MOL0     H32953   1.409   8.964   3.859  1.4404 -0.8261  0.4447
  250MOL0     H32954   1.109   9.072   3.694  1.7989 -1.3897 -3.1903
  250MOL0     H32955   1.150   8.998   3.852 -2.8772 -1.7368  0.5873
  250MOL0     H32956   1.098   8.842   3.586 -1.8956 -0.3216 -0.7281
  250MOL0     H32957   0.970   8.881   3.696 -0.5151  0.8993 -2.1989
  250MOL0     H32958   1.222   8.714   3.766  0.6943 -0.4845 -1.4782
  250MOL0     H32959   1.082   8.739   3.868  1.5731  1.1602 -0.5090
  250MOL0     H32960   1.073   8.521   3.782 -2.5109 -1.7889 -1.1819
  250MOL0     H32961   1.080   8.581   3.612 -0.0443  0.3078 -0.4882
  250MOL0     H32962   0.638   8.643   3.755 -3.6152 -1.3224 -2.0250
  250MOL0     H32963   0.487   8.469   3.791 -0.2968  1.1812  3.0517
  250MOL0     H32964   0.189   8.305   3.646  0.1423 -1.1096 -2.3665
  250MOL0     H32965   0.001   8.156   3.603 -0.6534 -2.3557 -0.2504
  250MOL0     H32966  -0.113   7.975   3.523 -0.4565  1.2097  0.0097
  250MOL0     H32967  -0.187   8.051   3.667  2.3809  1.1357 -2.2482
  250MOL0     H32968  -0.284   7.827   3.715  3.8182  1.6499  1.7370
  250MOL0     H32969  -0.182   7.752   3.584  2.8068 -0.0808  2.1027
  250MOL0     H32970  -0.303   7.893   3.420  1.6133  0.4486  1.5199
  250MOL0     H32971  -0.425   7.935   3.538 -0.6400 -0.5653 -1.0103
  250MOL0     H32972  -0.392   7.650   3.473 -1.8543 -2.2663  1.1337
  250MOL0     H32973  -0.489   7.721   3.588  1.3195  0.4129  0.3213
  250MOL0     H32974  -0.495   7.809   3.288 -0.9539 -2.0270 -0.9058
  250MOL0     H32975  -0.597   7.867   3.413  0.3836 -0.3820  0.1681
  250MOL0     H32976  -0.674   7.621   3.455  0.1554 -0.0406  0.0598
  250MOL0     H32977  -0.584   7.583   3.311  0.5154  0.5238 -0.8639
  250MOL0     H32978  -0.730   7.779   3.195 -4.3445 -0.3146 -2.2315
  250MOL0     H32979  -0.799   7.623   3.212  0.3464  0.0199 -0.9296
  250MOL0     H32980  -0.853   7.871   3.353  0.7039 -0.1271 -3.1119
  250MOL0     H32981  -0.908   7.720   3.444 -0.0390 -0.5374 -0.5893
  250MOL0     H32982   0.159   7.848   3.845 -0.3484 -0.8709  0.1813
  250MOL0     H32983   0.346   7.986   3.917 -1.5679  0.8833  2.6673
  250MOL0     H32984   0.798   8.169   3.787 -3.8434 -1.0251 -0.8838
  250MOL0     H32985   0.964   8.341   3.771  0.8220  1.8908  0.1763
  250MOL0     H32986   1.511   8.181   3.784  1.5459  0.0645  0.8818
  250MOL0     H32987   1.290   8.070   3.874  0.2197  0.8119 -0.9379
  250MOL0     H32988   1.117   7.869   4.261  1.4389 -0.3565  0.3620
  250MOL0     H32989   0.957   7.722   4.379 -1.4827  0.3130 -0.2257
  250MOL0     H32990   0.745   7.667   4.374  0.1216  0.3307 -0.7261
  250MOL0     H32991   0.708   7.503   4.433  3.5369  1.3518  0.8252
  250MOL0     H32992   0.524   7.607   4.282  1.0375 -1.2308  2.1459
  250MOL0     H32993   0.634   7.619   4.156 -1.5419 -1.9368 -0.2389
  250MOL0     H32994   0.651   7.359   4.154 -1.4423 -1.0166 -2.0417
  250MOL0     H32995   0.481   7.412   4.128 -1.0032 -4.0312  0.4973
  250MOL0     H32996   0.578   7.324   4.393 -0.4488  7.1719  0.9913
  250MOL0     H32997   0.420   7.385   4.354  0.2054  0.1891 -0.6275
  250MOL0     H32998   0.431   6.977   4.187  0.3607 -1.3172 -0.4745
  250MOL0     H32999   0.916   7.474   4.037  2.1133  0.5332  0.0117
  250MOL0     H33000   1.073   7.617   3.914  2.1134  0.3589  0.0606
  251MOL0     O33001   5.568   2.715  10.299  0.7554  0.7624 -0.2273
  251MOL0     C33002   5.662   2.736  10.226  1.3638 -1.0830 -0.2976
  251MOL0     O33003   5.659   2.752  10.090 -0.5642  0.7629  0.1230
  251MOL0     C33004   5.542   2.777  10.026  0.1699  0.0062 -0.2437
  251MOL0     C33005   5.479   2.910  10.016 -1.0270  0.7180  0.6359
  251MOL0     C33006   5.356   2.918   9.962 -0.1573  0.1401  1.4651
  251MOL0     C33007   5.304   2.812   9.897 -0.3851  0.2506  0.4958
  251MOL0     O33008   5.191   2.828   9.811 -0.2210  0.8794 -0.4179
  251MOL0     C33009   5.095   2.936   9.817 -0.3108  0.2683 -0.0624
  251MOL0     C33010   4.950   2.895   9.775 -0.6835 -0.8437 -0.0706
  251MOL0     C33011   4.940   2.879   9.632 -0.9260  0.7545  0.2331
  251MOL0     C33012   4.794   2.874   9.582 -0.3812 -0.6964 -0.0867
  251MOL0     C33013   4.779   2.904   9.427 -0.5174  0.2587  1.0180
  251MOL0     C33014   4.628   2.905   9.389 -0.3169  0.4221 -0.2760
  251MOL0     C33015   4.596   2.931   9.240  0.6319 -1.0962  0.4321
  251MOL0     C33016   4.452   2.973   9.219  0.6288 -0.1968 -0.0606
  251MOL0     N33017   4.356   2.857   9.237 -0.0512 -0.6043  0.3012
  251MOL0     C33018   4.390   2.726   9.246  0.4824  0.3074 -0.5314
  251MOL0     C33019   4.274   2.663   9.263 -0.6576  0.2327  0.3215
  251MOL0     C33020   4.239   2.514   9.302  0.1195 -0.3502  0.4969
  251MOL0     C33021   4.177   2.512   9.442 -0.0349 -0.9699  0.3301
  251MOL0     C33022   4.257   2.557   9.560 -1.0117 -0.0933  0.6924
  251MOL0     C33023   4.178   2.553   9.692  0.0585 -0.1883 -0.1536
  251MOL0     O33024   4.213   2.435   9.773 -0.1901  0.1294 -0.7451
  251MOL0     C33025   4.107   2.354   9.785  0.9814  0.4443  0.7197
  251MOL0     C33026   3.975   2.385   9.824 -0.6817 -0.6751 -0.3180
  251MOL0     C33027   3.874   2.299   9.814 -0.1910  0.6977 -0.8700
  251MOL0     C33028   3.896   2.166   9.778  0.8509 -0.2524 -0.0910
  251MOL0     C33029   3.788   2.070   9.760  0.0874  0.9461 -0.8750
  251MOL0     O33030   3.667   2.108   9.806  0.3435  0.2601  0.1720
  251MOL0     C33031   3.573   2.010   9.810  0.9489  0.5074  0.2173
  251MOL0     C33032   3.567   1.913   9.911  0.7798  0.1075  0.2908
  251MOL0     C33033   3.471   1.810   9.916  0.3497 -1.4261 -0.2466
  251MOL0     C33034   3.381   1.803   9.803  0.9894 -0.1787 -0.2732
  251MOL0     O33035   3.295   1.696   9.805 -0.0086  0.6465  0.4327
  251MOL0     C33036   3.199   1.674   9.695 -0.8702  0.7495 -0.0692
  251MOL0     C33037   3.082   1.578   9.733 -0.0736 -0.1152 -0.3634
  251MOL0     C33038   3.120   1.446   9.801  0.0876  0.3293 -0.7692
  251MOL0     C33039   3.000   1.351   9.814  0.3456  0.4165  0.1391
  251MOL0     C33040   3.070   1.219   9.861  0.5003  0.3105 -0.3429
  251MOL0     C33041   2.972   1.105   9.904 -0.7225 -0.1291 -0.1797
  251MOL0     C33042   2.888   1.149  10.035  1.0557  1.0425  0.0662
  251MOL0     C33043   2.827   1.020  10.081 -0.1381 -0.0787 -0.3457
  251MOL0    Cl33044   2.949   0.901  10.150  0.0407  0.1191 -0.0605
  251MOL0     C33045   3.396   1.903   9.704  0.4575  0.4075  1.0784
  251MOL0     C33046   3.478   2.010   9.710  0.0155  0.0757 -0.7340
  251MOL0     O33047   3.815   1.967   9.701 -0.2626  0.9865 -0.2651
  251MOL0     C33048   4.032   2.120   9.744  0.6719  0.4188  0.0931
  251MOL0     C33049   4.139   2.219   9.753  0.3314 -0.5104 -0.6710
  251MOL0     N33050   4.171   2.761   9.274 -0.8608 -0.3445 -0.5108
  251MOL0     N33051   4.221   2.875   9.241  0.6762  0.3826  0.4081
  251MOL0     C33052   5.355   2.684   9.914  0.3063  0.1565 -0.7360
  251MOL0     C33053   5.481   2.663   9.973 -0.1767  0.2649 -0.8728
  251MOL0     C33054   5.792   2.753  10.292  0.2990 -0.3112 -0.5322
  251MOL0     C33055   5.802   2.722  10.431 -0.5525 -0.1421  0.6411
  251MOL0     C33056   5.930   2.726  10.486 -1.3447  0.0432  0.1917
  251MOL0     C33057   6.044   2.742  10.407 -0.3354  0.2022 -0.2554
  251MOL0     O33058   6.170   2.734  10.467 -0.1231 -1.0692  0.2347
  251MOL0     C33059   6.287   2.787  10.396 -0.5208 -0.4045  0.2029
  251MOL0     C33060   6.396   2.822  10.502 -0.0529  0.0832  1.7167
  251MOL0     C33061   6.355   2.944  10.583  0.4422  1.0093 -0.6013
  251MOL0     C33062   6.454   2.975  10.703  0.2280  0.0955  0.3989
  251MOL0     C33063   6.602   2.974  10.675 -0.0706  0.1283 -0.4926
  251MOL0     C33064   6.724   2.950  10.662  1.4142 -0.5952  0.0113
  251MOL0     C33065   6.030   2.764  10.271 -0.2594 -0.2536 -0.3047
  251MOL0     C33066   5.905   2.773  10.213 -0.5271 -0.1424 -0.6289
  251MOL0     H33067   5.537   2.987  10.066 -0.7365  0.8315  0.1237
  251MOL0     H33068   5.312   3.016   9.951  1.8920  0.9455 -0.3090
  251MOL0     H33069   5.135   3.018   9.757 -2.2102  1.3446  0.0877
  251MOL0     H33070   5.087   2.966   9.922 -3.0777  2.4613 -0.7900
  251MOL0     H33071   4.884   2.974   9.812  0.0555 -0.8445  1.3200
  251MOL0     H33072   4.905   2.809   9.826 -0.9829 -2.3658 -2.7606
  251MOL0     H33073   4.995   2.786   9.614 -0.3891  0.9691  0.7254
  251MOL0     H33074   4.990   2.955   9.572 -2.4380  0.0070 -2.1211
  251MOL0     H33075   4.757   2.773   9.600 -1.1594  0.0438  3.1339
  251MOL0     H33076   4.726   2.938   9.639  0.1804 -1.0851  1.0567
  251MOL0     H33077   4.827   2.830   9.363 -6.1419 -0.8892 -2.5370
  251MOL0     H33078   4.819   3.004   9.407  0.7312 -0.2103  1.0400
  251MOL0     H33079   4.590   2.991   9.444  1.6491  1.0686  0.1538
  251MOL0     H33080   4.582   2.809   9.418 -2.4689  1.0489 -1.3973
  251MOL0     H33081   4.662   3.010   9.203  2.1106 -2.3342  0.3534
  251MOL0     H33082   4.617   2.842   9.179 -0.7716 -0.5370 -0.9396
  251MOL0     H33083   4.440   3.005   9.115  0.9160  2.2386  0.5883
  251MOL0     H33084   4.419   3.054   9.285 -0.4651 -0.1885 -0.6024
  251MOL0     H33085   4.489   2.684   9.252  0.2953 -0.1261 -0.4601
  251MOL0     H33086   4.336   2.466   9.317 -0.0065  0.2628  4.2752
  251MOL0     H33087   4.189   2.464   9.218  1.3702  0.4317 -0.7557
  251MOL0     H33088   4.156   2.405   9.452 -4.0510 -0.6277 -2.2061
  251MOL0     H33089   4.081   2.564   9.436 -0.6668 -2.2072 -0.8952
  251MOL0     H33090   4.343   2.492   9.577  0.1911  1.5396  1.0461
  251MOL0     H33091   4.285   2.661   9.546  2.2132 -1.0412 -0.9685
  251MOL0     H33092   4.075   2.574   9.661  0.1702  2.9474  1.2020
  251MOL0     H33093   4.197   2.638   9.759 -2.2735  1.3362 -1.2999
  251MOL0     H33094   3.958   2.482   9.870 -1.1374 -1.2133  0.6837
  251MOL0     H33095   3.775   2.341   9.827  0.3987  1.9202 -0.1016
  251MOL0     H33096   3.648   1.901   9.982 -0.7618 -2.3564  1.7878
  251MOL0     H33097   3.474   1.726   9.985  3.8913 -0.4311  1.0152
  251MOL0     H33098   3.254   1.639   9.607 -2.2611 -1.8097 -0.0099
  251MOL0     H33099   3.151   1.767   9.664  0.9395  1.6618 -0.3026
  251MOL0     H33100   3.016   1.560   9.648 -2.6210  2.4670  0.9030
  251MOL0     H33101   3.017   1.619   9.811 -1.0477 -0.3403 -1.0409
  251MOL0     H33102   3.173   1.463   9.895 -0.0970  1.2018 -0.8065
  251MOL0     H33103   3.194   1.402   9.733  1.1463  0.5620  0.2104
  251MOL0     H33104   2.923   1.378   9.886  0.6716 -1.5692  1.3156
  251MOL0     H33105   2.951   1.327   9.719  1.6927  2.9806 -1.3054
  251MOL0     H33106   3.139   1.226   9.946  0.2505 -2.6571  0.2050
  251MOL0     H33107   3.134   1.198   9.776  0.5373  2.7403 -1.0001
  251MOL0     H33108   3.049   1.029   9.920  2.5661  3.1086  0.5228
  251MOL0     H33109   2.910   1.074   9.819  2.3152  3.4220 -4.0898
  251MOL0     H33110   2.948   1.199  10.111 -0.3953  0.9111  1.3357
  251MOL0     H33111   2.809   1.217  10.002 -0.1074 -0.3745 -0.1933
  251MOL0     H33112   2.768   0.987   9.995  1.2640 -0.0686 -1.3398
  251MOL0     H33113   2.758   1.027  10.166 -0.0373  1.2982 -0.3521
  251MOL0     H33114   3.327   1.895   9.621  0.0957  0.8410  1.3332
  251MOL0     H33115   3.477   2.080   9.627 -1.3167  2.2421  0.9995
  251MOL0     H33116   4.057   2.017   9.720  4.4237  1.2703 -0.3163
  251MOL0     H33117   4.241   2.193   9.729  2.3358  3.6713  2.0613
  251MOL0     H33118   5.309   2.602   9.860  0.8627  0.4956 -1.7553
  251MOL0     H33119   5.531   2.566   9.975  1.4663  1.0812  0.8049
  251MOL0     H33120   5.715   2.703  10.492 -0.2890 -1.2519  0.6962
  251MOL0     H33121   5.938   2.726  10.594  1.5999 -2.0541  0.1042
  251MOL0     H33122   6.252   2.874  10.340 -1.1248  0.3373  1.7003
  251MOL0     H33123   6.334   2.709  10.335  0.7608  3.3316 -4.1496
  251MOL0     H33124   6.401   2.734  10.567 -3.7901  1.0976  3.6516
  251MOL0     H33125   6.495   2.844  10.461 -1.7496  2.3269 -1.5968
  251MOL0     H33126   6.257   2.925  10.629  1.6128  0.0740  1.6519
  251MOL0     H33127   6.350   3.031  10.517 -3.2184  1.2027 -0.3004
  251MOL0     H33128   6.418   3.068  10.746 -1.1778 -1.3276  2.5292
  251MOL0     H33129   6.436   2.898  10.779  2.9042 -0.5663  0.4568
  251MOL0     H33130   6.821   2.906  10.650  0.5646 -2.5910  0.0517
  251MOL0     H33131   6.118   2.778  10.210  1.3766 -0.4025  1.8834
  251MOL0     H33132   5.904   2.797  10.107  0.6529  2.0410 -0.2084
  252MOL0     O33133  10.461   9.215   8.674 -0.3886  0.3863  0.2763
  252MOL0     C33134  10.477   9.256   8.784 -0.3816 -0.2551 -1.1152
  252MOL0     O33135  10.375   9.271   8.891 -0.0631  0.9676  0.8421
  252MOL0     C33136  10.248   9.214   8.874  0.5045  0.6163  0.2588
  252MOL0     C33137  10.222   9.089   8.813  0.0141  0.1415  0.2415
  252MOL0     C33138  10.086   9.039   8.803 -0.9646  0.1068 -0.6673
  252MOL0     C33139   9.982   9.115   8.852  0.2413  0.5149 -0.0064
  252MOL0     O33140   9.864   9.043   8.864  0.6033 -0.1993 -0.1380
  252MOL0     C33141   9.753   9.083   8.947  0.3869 -0.3155 -0.1260
  252MOL0     C33142   9.667   8.963   8.958  0.1242  0.1368 -0.1096
  252MOL0     C33143   9.605   8.910   8.816 -0.3719  0.0025  0.2440
  252MOL0     C33144   9.550   8.768   8.837  0.1438  0.2208  0.0093
  252MOL0     C33145   9.412   8.763   8.891  0.3830  0.3024  0.0120
  252MOL0     C33146   9.378   8.623   8.939  0.0662 -0.2592 -0.1573
  252MOL0     C33147   9.240   8.608   9.001 -0.2029  0.6466 -0.2497
  252MOL0     C33148   9.201   8.465   8.976 -0.2383 -0.0209  0.2663
  252MOL0     N33149   9.070   8.454   9.029  0.0252  0.0802  0.2212
  252MOL0     C33150   8.958   8.439   8.959  0.3427 -0.0801  0.9976
  252MOL0     C33151   8.864   8.450   9.051 -0.4130  0.3690 -0.5779
  252MOL0     C33152   8.718   8.477   9.012 -0.3312  0.5147  0.4647
  252MOL0     C33153   8.623   8.420   9.114 -0.1936 -0.0229 -0.1575
  252MOL0     C33154   8.608   8.266   9.116  0.6298  0.2946 -0.4127
  252MOL0     C33155   8.500   8.219   9.028  0.1012  0.0661  0.4149
  252MOL0     O33156   8.518   8.088   8.989  0.1283  1.3273  0.4524
  252MOL0     C33157   8.421   8.038   8.906 -0.0712  0.6884  0.9323
  252MOL0     C33158   8.319   8.114   8.852  0.2275 -0.1791  1.0911
  252MOL0     C33159   8.218   8.061   8.764  0.0584 -0.5730  0.3058
  252MOL0     C33160   8.226   7.928   8.723 -0.3813 -0.2258  0.3005
  252MOL0     C33161   8.122   7.862   8.639  0.0482  0.0229 -1.2485
  252MOL0     O33162   8.015   7.937   8.616 -1.2656 -0.1104 -0.0079
  252MOL0     C33163   7.904   7.890   8.554  0.9943  0.2133 -0.5839
  252MOL0     C33164   7.801   7.831   8.631  0.0564  0.1405  0.2573
  252MOL0     C33165   7.682   7.795   8.569 -0.5879  0.9718  0.3850
  252MOL0     C33166   7.668   7.799   8.435  0.8886 -0.2401 -0.3460
  252MOL0     O33167   7.565   7.748   8.357  0.0027  0.5463 -0.2363
  252MOL0     C33168   7.433   7.735   8.413  0.8715 -0.2924  0.8468
  252MOL0     C33169   7.330   7.707   8.306  0.3308 -0.4045 -0.6008
  252MOL0     C33170   7.191   7.752   8.348 -0.1398  0.6187  0.1967
  252MOL0     C33171   7.100   7.737   8.227  0.4998 -0.3515  0.4178
  252MOL0     C33172   6.957   7.786   8.263  0.1937  0.2931  1.0979
  252MOL0     C33173   6.878   7.809   8.131  0.2546 -0.1747 -0.4420
  252MOL0     C33174   6.779   7.916   8.149  0.5791 -0.5549  0.5195
  252MOL0     C33175   6.677   7.889   8.032 -0.7648 -0.9400  0.2862
  252MOL0    Cl33176   6.748   7.904   7.872 -0.0327 -0.2240  0.5639
  252MOL0     C33177   7.767   7.868   8.358 -0.9192  1.5078  0.4783
  252MOL0     C33178   7.880   7.913   8.420  0.0977 -0.6274  0.1841
  252MOL0     O33179   8.144   7.752   8.603  0.3063 -1.1300  0.0034
  252MOL0     C33180   8.328   7.851   8.773  0.5897 -1.0598 -0.3041
  252MOL0     C33181   8.420   7.899   8.864 -0.1014 -0.4404 -0.0737
  252MOL0     N33182   8.927   8.442   9.180 -0.1045 -0.6008  0.7239
  252MOL0     N33183   9.046   8.433   9.159  0.5544 -0.7804  0.1148
  252MOL0     C33184  10.006   9.236   8.914 -0.6449  0.3743 -0.1517
  252MOL0     C33185  10.141   9.286   8.920  0.4551 -0.2289  0.2763
  252MOL0     C33186  10.617   9.287   8.819 -0.2332  0.6104 -0.6099
  252MOL0     C33187  10.726   9.266   8.737 -0.2569  0.0063 -0.7511
  252MOL0     C33188  10.858   9.283   8.776 -0.0338 -0.0371  0.3263
  252MOL0     C33189  10.891   9.310   8.914  0.1847  0.3791  0.0431
  252MOL0     O33190  11.024   9.331   8.934 -0.4311 -1.2193 -0.8149
  252MOL0     C33191  11.076   9.371   9.055 -0.7430 -0.5965 -1.2558
  252MOL0     C33192  11.225   9.363   9.057 -0.2148 -0.7920  0.0284
  252MOL0     C33193  11.301   9.450   8.955  0.3928 -0.9077  0.5130
  252MOL0     C33194  11.447   9.440   9.006  1.2860 -0.1401 -0.1832
  252MOL0     C33195  11.539   9.523   8.927 -0.1653 -0.5474  0.3775
  252MOL0     C33196  11.620   9.604   8.873 -0.4683  1.2107  0.4902
  252MOL0     C33197  10.781   9.325   9.000 -0.1383 -0.3927  0.4698
  252MOL0     C33198  10.646   9.334   8.947 -0.7755 -1.2322  0.0270
  252MOL0     H33199  10.310   9.044   8.768  0.5096  2.7709 -1.6048
  252MOL0     H33200  10.075   8.936   8.768 -2.0338 -0.4198  1.0847
  252MOL0     H33201   9.702   9.172   8.908  1.4623 -0.1369 -1.1966
  252MOL0     H33202   9.783   9.120   9.046  0.9483 -0.2513 -0.3172
  252MOL0     H33203   9.589   8.983   9.032 -0.0263 -2.3619  0.5004
  252MOL0     H33204   9.742   8.891   8.993  2.3582  1.5206 -1.7880
  252MOL0     H33205   9.688   8.894   8.746  2.5854  0.6624  3.3080
  252MOL0     H33206   9.531   8.975   8.769 -2.1843 -2.5676 -0.6320
  252MOL0     H33207   9.568   8.724   8.739  4.2713  1.0616  0.2248
  252MOL0     H33208   9.608   8.720   8.916 -2.0341 -2.5741  0.0801
  252MOL0     H33209   9.346   8.802   8.813  1.8546  0.7294 -1.0593
  252MOL0     H33210   9.406   8.832   8.976 -0.0999 -0.0141  0.2381
  252MOL0     H33211   9.452   8.602   9.017  0.3298  1.6524  0.1492
  252MOL0     H33212   9.385   8.555   8.854 -1.1580 -0.6867  0.0705
  252MOL0     H33213   9.239   8.629   9.109 -0.1903 -0.3395 -0.0503
  252MOL0     H33214   9.171   8.669   8.943 -0.5620 -2.4488 -3.4120
  252MOL0     H33215   9.265   8.391   9.025 -0.9889 -0.5391  0.4629
  252MOL0     H33216   9.210   8.435   8.871 -0.6120 -2.4908  0.8902
  252MOL0     H33217   8.941   8.449   8.853 -0.9294 -3.2890  0.7878
  252MOL0     H33218   8.702   8.441   8.910 -0.1968  0.0170  0.6177
  252MOL0     H33219   8.713   8.586   9.015 -0.2423  0.8952 -4.6405
  252MOL0     H33220   8.525   8.463   9.092 -0.9418 -1.6965 -0.2750
  252MOL0     H33221   8.654   8.448   9.215  0.3866  2.1074 -0.8677
  252MOL0     H33222   8.697   8.207   9.095 -0.6751 -1.4309 -1.3292
  252MOL0     H33223   8.574   8.238   9.216  0.1767  0.4438 -0.5213
  252MOL0     H33224   8.509   8.276   8.935  1.1947  0.9012  1.0202
  252MOL0     H33225   8.399   8.234   9.069 -1.1494 -3.6348 -0.9179
  252MOL0     H33226   8.292   8.212   8.890  0.2394  1.0575 -1.8655
  252MOL0     H33227   8.136   8.127   8.740  1.0283  1.8013  2.9702
  252MOL0     H33228   7.828   7.819   8.735  2.3261 -1.0309 -0.3954
  252MOL0     H33229   7.611   7.746   8.635  0.4841 -0.3691  0.5926
  252MOL0     H33230   7.397   7.822   8.470 -0.8929 -1.2973  1.3442
  252MOL0     H33231   7.427   7.650   8.482 -0.3419  1.3590  2.8974
  252MOL0     H33232   7.333   7.603   8.274 -0.4336  0.1131 -2.4777
  252MOL0     H33233   7.354   7.760   8.213 -0.7248 -0.2074 -0.7743
  252MOL0     H33234   7.175   7.855   8.380  0.6402  0.2416  1.9111
  252MOL0     H33235   7.141   7.694   8.426 -0.0985 -1.1114 -1.0205
  252MOL0     H33236   7.131   7.798   8.142 -3.5989 -1.8471 -2.4612
  252MOL0     H33237   7.097   7.634   8.191 -2.6153  0.7486 -3.1704
  252MOL0     H33238   6.961   7.879   8.321 -4.4560  1.8318 -0.6097
  252MOL0     H33239   6.905   7.714   8.326  3.2022 -2.7150  0.4556
  252MOL0     H33240   6.837   7.710   8.111  0.3043 -0.6949  1.7551
  252MOL0     H33241   6.941   7.849   8.051  1.5393  0.7798  0.9698
  252MOL0     H33242   6.719   7.907   8.241 -2.3110  3.0499 -0.7726
  252MOL0     H33243   6.826   8.015   8.153 -1.4931  0.4608  1.4512
  252MOL0     H33244   6.581   7.942   8.035 -0.4992 -0.4494  0.2505
  252MOL0     H33245   6.640   7.787   8.045  0.5434 -1.1630  3.0723
  252MOL0     H33246   7.755   7.875   8.250  1.0789 -2.4567 -0.1795
  252MOL0     H33247   7.957   7.969   8.368 -0.6177 -1.3118 -1.7025
  252MOL0     H33248   8.341   7.748   8.741  0.7026 -1.6135  1.4094
  252MOL0     H33249   8.485   7.821   8.902  2.6959  0.7131 -2.1817
  252MOL0     H33250   9.920   9.288   8.955 -0.2480  0.3865  0.6852
  252MOL0     H33251  10.157   9.382   8.967 -2.8031  1.0147 -0.8212
  252MOL0     H33252  10.707   9.204   8.650 -1.4139 -0.6069 -0.0917
  252MOL0     H33253  10.943   9.261   8.712 -1.7443 -1.1652 -1.6704
  252MOL0     H33254  11.035   9.314   9.139  0.6777 -0.0524 -0.1524
  252MOL0     H33255  11.057   9.477   9.074  1.3283 -0.5728  1.1846
  252MOL0     H33256  11.263   9.390   9.157  0.5081  0.6289 -0.5932
  252MOL0     H33257  11.257   9.261   9.034 -1.2611 -0.2579 -4.8294
  252MOL0     H33258  11.271   9.555   8.966  1.1282 -0.9086  3.2810
  252MOL0     H33259  11.295   9.420   8.850  2.0517  2.3457 -0.6576
  252MOL0     H33260  11.440   9.478   9.109 -1.4715 -1.2721  0.1499
  252MOL0     H33261  11.474   9.334   9.007 -0.0347 -0.5278  1.7849
  252MOL0     H33262  11.680   9.681   8.830 -2.9032  1.7624 -2.2062
  252MOL0     H33263  10.804   9.364   9.098 -0.0676  1.6354 -0.2909
  252MOL0     H33264  10.572   9.372   9.016  1.6190 -0.3195  2.2636
  253MOL0     O33265   9.674   8.006   5.902  0.1833  0.2147  0.5858
  253MOL0     C33266   9.647   8.125   5.876  0.3285 -0.1838 -0.3101
  253MOL0     O33267   9.533   8.166   5.813 -0.1239 -0.6026 -0.0486
  253MOL0     C33268   9.438   8.074   5.771 -0.3540 -0.3131 -0.2007
  253MOL0     C33269   9.469   7.962   5.690 -0.3164 -0.4256 -0.1072
  253MOL0     C33270   9.375   7.870   5.671  0.5769 -0.1390  0.5647
  253MOL0     C33271   9.240   7.875   5.722 -0.7091 -0.4040 -0.0281
  253MOL0     O33272   9.164   7.759   5.716 -0.6221 -0.1338 -0.0652
  253MOL0     C33273   9.026   7.784   5.682  0.1340 -0.6345  0.0513
  253MOL0     C33274   8.968   7.638   5.692 -0.3453 -0.5711 -0.8014
  253MOL0     C33275   8.813   7.652   5.674  0.2206 -0.3195 -0.2034
  253MOL0     C33276   8.746   7.520   5.674  0.7625 -0.8080  0.2249
  253MOL0     C33277   8.602   7.519   5.625 -1.1340  0.1590  0.3293
  253MOL0     C33278   8.504   7.614   5.696 -0.6816  1.1822 -0.3975
  253MOL0     C33279   8.459   7.587   5.845  0.2519  0.5177  0.0484
  253MOL0     C33280   8.346   7.682   5.908 -0.0129  0.6500 -0.6186
  253MOL0     N33281   8.223   7.675   5.839  0.8280 -0.9202  0.5743
  253MOL0     C33282   8.128   7.575   5.827  0.1462 -0.6466 -0.5314
  253MOL0     C33283   8.008   7.636   5.806  0.0283 -0.0233 -0.2767
  253MOL0     C33284   7.871   7.572   5.793 -1.2312  0.0660 -0.2012
  253MOL0     C33285   7.771   7.647   5.871  0.5921 -0.5497 -0.1073
  253MOL0     C33286   7.633   7.571   5.875  0.0680 -0.0308 -0.1563
  253MOL0     C33287   7.558   7.622   5.743 -0.2728 -0.3948 -0.0149
  253MOL0     O33288   7.453   7.529   5.709 -0.3421 -0.4516 -0.3141
  253MOL0     C33289   7.338   7.533   5.790 -0.8020 -0.3235 -0.4231
  253MOL0     C33290   7.290   7.647   5.866  0.8807  0.3142  0.7855
  253MOL0     C33291   7.161   7.633   5.916  0.5623  0.0635 -0.6909
  253MOL0     C33292   7.084   7.527   5.897 -0.0996 -0.0316  0.4272
  253MOL0     C33293   6.947   7.524   5.954  0.2362  0.6399  0.4310
  253MOL0     O33294   6.900   7.614   6.053 -0.2877 -0.0520 -0.4941
  253MOL0     C33295   6.796   7.584   6.139 -0.3510  0.7591  0.6113
  253MOL0     C33296   6.784   7.456   6.202  0.3132  0.2981  0.0884
  253MOL0     C33297   6.692   7.431   6.303  0.2840  1.1813  0.8475
  253MOL0     C33298   6.595   7.519   6.340  0.4635  0.4715 -0.0633
  253MOL0     O33299   6.511   7.470   6.444 -0.5156  0.6535  0.6110
  253MOL0     C33300   6.388   7.543   6.470 -0.2567 -0.1147  0.0416
  253MOL0     C33301   6.279   7.503   6.370  0.5513 -0.1853 -0.2094
  253MOL0     C33302   6.155   7.595   6.393 -0.4931  0.3626  0.7672
  253MOL0     C33303   6.027   7.521   6.358 -0.8294 -0.8955  0.2980
  253MOL0     C33304   5.901   7.590   6.406  0.6567 -0.5690 -0.3879
  253MOL0     C33305   5.772   7.532   6.348 -1.5567  0.1179 -0.4171
  253MOL0     C33306   5.759   7.396   6.412 -0.3239  0.0633 -0.4536
  253MOL0     C33307   5.614   7.339   6.375 -0.6875 -0.1180 -0.9859
  253MOL0    Cl33308   5.487   7.454   6.446  0.0521  0.0756  0.4873
  253MOL0     C33309   6.614   7.644   6.294 -0.3916  0.4379  0.1497
  253MOL0     C33310   6.705   7.675   6.187  0.1950  1.0003 -0.3201
  253MOL0     O33311   6.883   7.424   5.916 -0.0485  0.5207 -0.7589
  253MOL0     C33312   7.137   7.423   5.830 -0.0027  0.0096 -1.1239
  253MOL0     C33313   7.265   7.421   5.777  0.0033 -1.4325  0.3334
  253MOL0     N33314   8.031   7.775   5.792  0.7204 -0.6745  0.1764
  253MOL0     N33315   8.153   7.795   5.817  0.4525  0.0443 -0.3260
  253MOL0     C33316   9.213   7.983   5.802  0.3007 -0.0469 -0.0336
  253MOL0     C33317   9.313   8.080   5.829 -0.0999  0.2938  0.1477
  253MOL0     C33318   9.743   8.226   5.927  0.1850 -0.1178  0.2016
  253MOL0     C33319   9.847   8.196   6.009 -0.8526 -0.5461 -0.2831
  253MOL0     C33320   9.953   8.286   6.042  0.3202 -0.6187  0.3426
  253MOL0     C33321   9.936   8.420   6.012  0.2847 -0.4577  0.4541
  253MOL0     O33322  10.025   8.524   6.035  0.1421  0.2525  0.2014
  253MOL0     C33323  10.132   8.516   6.137  0.4463  0.4017  0.6658
  253MOL0     C33324  10.268   8.523   6.066  0.8621  0.5838 -0.7999
  253MOL0     C33325  10.307   8.644   5.990  0.2831 -0.4930 -0.2410
  253MOL0     C33326  10.255   8.644   5.844 -0.0988  0.6547 -0.3243
  253MOL0     C33327  10.276   8.765   5.758  0.6311 -0.6161 -1.1480
  253MOL0     C33328  10.305   8.868   5.690  0.0095 -0.5705 -1.1192
  253MOL0     C33329   9.834   8.458   5.921 -0.7451  0.4893  0.8308
  253MOL0     C33330   9.738   8.360   5.890  0.2810  0.4234  0.6006
  253MOL0     H33331   9.569   7.938   5.653 -0.2744  1.4366 -1.3255
  253MOL0     H33332   9.397   7.773   5.628 -1.0763 -0.5185  0.4901
  253MOL0     H33333   9.007   7.841   5.591 -0.4652  0.8965  1.0952
  253MOL0     H33334   8.976   7.838   5.763 -2.5339  0.7172 -2.3143
  253MOL0     H33335   8.982   7.596   5.792 -3.0163  1.0771  0.3872
  253MOL0     H33336   9.019   7.576   5.618  0.8085 -3.5391  2.2214
  253MOL0     H33337   8.786   7.702   5.581 -0.8938 -2.8434 -1.3514
  253MOL0     H33338   8.763   7.705   5.755  1.9383  0.1366  0.6093
  253MOL0     H33339   8.802   7.450   5.610  1.4953 -0.3374  0.3416
  253MOL0     H33340   8.753   7.482   5.776  0.8212  1.2902  1.0399
  253MOL0     H33341   8.575   7.413   5.628 -2.0347  0.3640 -0.3058
  253MOL0     H33342   8.597   7.554   5.522  1.9936  0.4867  0.1860
  253MOL0     H33343   8.410   7.613   5.639 -0.9179  0.9152 -0.0080
  253MOL0     H33344   8.546   7.715   5.697 -3.2251  2.3167 -0.4732
  253MOL0     H33345   8.427   7.483   5.845  1.4101 -0.0243  4.5118
  253MOL0     H33346   8.548   7.583   5.909 -0.1727 -1.0463  0.5827
  253MOL0     H33347   8.373   7.788   5.904 -0.3526  0.7035 -2.0442
  253MOL0     H33348   8.330   7.648   6.011 -2.4029 -0.6849 -1.3356
  253MOL0     H33349   8.132   7.472   5.861  2.1628 -0.6802 -0.7730
  253MOL0     H33350   7.870   7.468   5.825 -1.8170  0.2494  0.4114
  253MOL0     H33351   7.843   7.575   5.688 -6.4768 -0.1893  0.9037
  253MOL0     H33352   7.760   7.745   5.824  0.7457 -0.9231 -0.9306
  253MOL0     H33353   7.809   7.663   5.972 -3.8039  1.3182  1.5235
  253MOL0     H33354   7.647   7.463   5.878 -2.3336 -0.6609 -3.9156
  253MOL0     H33355   7.572   7.606   5.958  0.4008  1.3940 -0.4849
  253MOL0     H33356   7.627   7.620   5.658  0.7243  4.0015  0.4099
  253MOL0     H33357   7.527   7.727   5.750 -0.2573 -0.3728 -0.2771
  253MOL0     H33358   7.352   7.733   5.888  0.7957  1.2693 -2.2853
  253MOL0     H33359   7.115   7.720   5.962 -0.8315 -1.2071  0.4224
  253MOL0     H33360   6.865   7.388   6.178  1.9119  1.8202  1.0202
  253MOL0     H33361   6.689   7.330   6.343  1.6674  1.1831  0.9945
  253MOL0     H33362   6.407   7.650   6.487  0.8031 -0.2515 -0.2084
  253MOL0     H33363   6.349   7.504   6.564  0.1992  0.2938  0.4116
  253MOL0     H33364   6.267   7.398   6.395  0.1927 -0.0240  0.3133
  253MOL0     H33365   6.307   7.513   6.264  1.4129  0.5869  0.0739
  253MOL0     H33366   6.163   7.685   6.331 -0.3567  1.1389  1.8769
  253MOL0     H33367   6.150   7.629   6.497 -0.7274 -0.7795  1.1467
  253MOL0     H33368   6.015   7.507   6.250  1.5027  2.1514 -0.4889
  253MOL0     H33369   6.032   7.423   6.406  0.1135  0.1852  2.5244
  253MOL0     H33370   5.916   7.696   6.386  1.4565 -0.6363 -0.1818
  253MOL0     H33371   5.901   7.575   6.514 -2.1626 -4.0866 -0.6831
  253MOL0     H33372   5.771   7.533   6.238 -0.8055  1.8385 -0.4371
  253MOL0     H33373   5.691   7.596   6.385  2.0752  3.1975  2.9887
  253MOL0     H33374   5.829   7.321   6.373 -0.5284  1.2351 -3.2826
  253MOL0     H33375   5.764   7.400   6.521 -2.1002  1.3745 -0.3817
  253MOL0     H33376   5.606   7.238   6.417  1.6076 -0.6394 -1.6428
  253MOL0     H33377   5.608   7.333   6.266  1.9827  0.4903 -1.2379
  253MOL0     H33378   6.548   7.729   6.306 -1.5572 -0.4269  0.0098
  253MOL0     H33379   6.723   7.774   6.147 -0.6278  1.0295 -0.6400
  253MOL0     H33380   7.075   7.335   5.815 -1.2344  0.2743  1.7718
  253MOL0     H33381   7.297   7.332   5.723 -2.4275 -0.8289 -2.3211
  253MOL0     H33382   9.116   7.986   5.849 -0.8743 -1.5030 -2.1613
  253MOL0     H33383   9.287   8.166   5.889  1.8347  0.4448  0.8299
  253MOL0     H33384   9.861   8.096   6.048  0.8952 -0.4022 -0.4602
  253MOL0     H33385  10.037   8.228   6.080 -1.6605 -2.4618  2.2076
  253MOL0     H33386  10.115   8.431   6.205 -0.9103  3.6459  4.8606
  253MOL0     H33387  10.134   8.601   6.206 -2.0697  0.5976  0.5800
  253MOL0     H33388  10.338   8.509   6.149 -0.7521  0.0690  0.5165
  253MOL0     H33389  10.271   8.435   6.002 -1.6997  0.4442 -0.8067
  253MOL0     H33390  10.415   8.641   6.002  0.2355 -1.8271  0.0718
  253MOL0     H33391  10.273   8.732   6.045 -4.9322 -2.5506  0.4279
  253MOL0     H33392  10.312   8.560   5.803 -1.2856 -1.2230  1.6148
  253MOL0     H33393  10.150   8.614   5.851 -0.9449  3.4165 -0.1630
  253MOL0     H33394  10.322   8.944   5.617 -0.4182  0.3754 -0.2709
  253MOL0     H33395   9.827   8.559   5.882  1.1186  0.0448 -0.8152
  253MOL0     H33396   9.656   8.400   5.831  0.1105 -1.3123 -0.4076
  254MOL0     O33397  10.871   5.788   6.947 -0.7624  0.1187 -0.6247
  254MOL0     C33398  10.848   5.822   6.827 -0.1448  0.1976 -0.0990
  254MOL0     O33399  10.926   5.912   6.758  0.5051 -0.0341  0.0603
  254MOL0     C33400  10.997   6.008   6.823  0.0543 -0.7239  0.0753
  254MOL0     C33401  10.937   6.132   6.837  0.3254 -0.1334 -0.3058
  254MOL0     C33402  11.015   6.224   6.906 -0.5450  1.2554 -0.4959
  254MOL0     C33403  11.148   6.193   6.952  0.4206 -1.0512 -0.6405
  254MOL0     O33404  11.201   6.289   7.033 -0.6937 -0.7500 -0.2117
  254MOL0     C33405  11.274   6.246   7.153 -0.4484 -0.1900 -0.1345
  254MOL0     C33406  11.301   6.351   7.269  0.2539 -0.9882 -0.6060
  254MOL0     C33407  11.391   6.469   7.214  0.7207 -0.1293 -0.7291
  254MOL0     C33408  11.426   6.561   7.322  0.2353  0.0175 -0.7925
  254MOL0     C33409  11.487   6.698   7.270  0.0414  0.4611 -0.4293
  254MOL0     C33410  11.634   6.670   7.255  0.8169  0.0771  0.4036
  254MOL0     C33411  11.725   6.781   7.221  0.1188  0.0840  0.6698
  254MOL0     C33412  11.757   6.867   7.336 -0.0476 -0.6129 -0.0520
  254MOL0     N33413  11.885   6.947   7.318 -0.3305  0.4505 -0.0008
  254MOL0     C33414  11.905   7.070   7.266 -0.5285  0.0375  0.5979
  254MOL0     C33415  12.023   7.117   7.311 -0.1565 -0.5188 -0.2648
  254MOL0     C33416  12.079   7.254   7.284 -0.5807  0.8930 -0.2012
  254MOL0     C33417  12.125   7.270   7.135 -0.1171  0.9029 -0.5264
  254MOL0     C33418  12.243   7.172   7.107  0.0031  0.2594  0.0666
  254MOL0     C33419  12.268   7.159   6.956 -0.4555 -0.3377 -0.6255
  254MOL0     O33420  12.314   7.292   6.904 -0.3977  0.2053  0.6138
  254MOL0     C33421  12.406   7.295   6.803  0.4820 -0.3331  0.5722
  254MOL0     C33422  12.434   7.186   6.721 -0.1111 -0.1822  0.5396
  254MOL0     C33423  12.546   7.197   6.634  0.1943  0.3602  0.5457
  254MOL0     C33424  12.624   7.311   6.629 -0.3290  0.1926  0.0035
  254MOL0     C33425  12.739   7.322   6.539 -0.1140 -0.7478 -0.6146
  254MOL0     O33426  12.804   7.444   6.543 -0.0330 -0.1434  0.1063
  254MOL0     C33427  12.923   7.463   6.463 -0.7742  0.0378  1.3561
  254MOL0     C33428  13.033   7.386   6.464 -0.2412 -1.0980  0.2854
  254MOL0     C33429  13.144   7.417   6.393  0.7016 -0.4408 -0.3951
  254MOL0     C33430  13.166   7.548   6.340 -0.9156  0.8349 -0.6738
  254MOL0     O33431  13.276   7.582   6.266  0.3950 -0.3546 -0.0167
  254MOL0     C33432  13.397   7.515   6.266 -0.1547  0.3919  0.4221
  254MOL0     C33433  13.488   7.615   6.200  0.5174 -0.2253 -0.5858
  254MOL0     C33434  13.636   7.563   6.192 -0.8046 -1.2987  0.2709
  254MOL0     C33435  13.733   7.651   6.112  0.3282 -0.5504 -0.4811
  254MOL0     C33436  13.714   7.805   6.128 -0.1453 -0.4107  0.3135
  254MOL0     C33437  13.845   7.887   6.108  0.4632 -0.1526 -0.3188
  254MOL0     C33438  13.894   7.866   5.960 -0.0816 -0.2238 -0.4179
  254MOL0     C33439  14.044   7.877   5.943 -0.6744 -0.5907 -0.2424
  254MOL0    Cl33440  14.089   7.865   5.777 -0.2370 -0.1078 -0.3116
  254MOL0     C33441  13.059   7.635   6.363  0.2417  0.3561  0.0753
  254MOL0     C33442  12.935   7.588   6.421 -0.5303 -0.0906  0.6383
  254MOL0     O33443  12.775   7.224   6.482  0.7770  0.2095 -0.7606
  254MOL0     C33444  12.589   7.413   6.708 -0.6506 -1.5485  0.0770
  254MOL0     C33445  12.486   7.404   6.798 -0.4118 -1.0104 -0.3407
  254MOL0     N33446  12.086   7.013   7.373  0.4685 -0.2224 -0.2597
  254MOL0     N33447  12.002   6.907   7.370  0.6373  0.1549 -0.2885
  254MOL0     C33448  11.204   6.067   6.926  0.0918 -0.6340 -0.8668
  254MOL0     C33449  11.128   5.975   6.861  0.8167 -0.7361 -0.7134
  254MOL0     C33450  10.733   5.762   6.754 -0.2532  0.0743  0.1636
  254MOL0     C33451  10.672   5.642   6.794  0.3451  0.3134  0.0374
  254MOL0     C33452  10.560   5.589   6.727  0.0841 -0.1595 -0.3045
  254MOL0     C33453  10.502   5.655   6.617  0.0909  0.0578  0.5474
  254MOL0     O33454  10.389   5.607   6.552  0.1952 -0.4475 -0.3289
  254MOL0     C33455  10.415   5.497   6.466  0.5688  0.8007  0.3287
  254MOL0     C33456  10.285   5.416   6.456  0.0473 -0.0976  0.0085
  254MOL0     C33457  10.309   5.317   6.344  0.2965  0.3477 -0.2961
  254MOL0     C33458  10.199   5.210   6.336 -0.1816  0.0560  0.2698
  254MOL0     C33459  10.183   5.164   6.195  0.9665  1.3329 -0.4915
  254MOL0     C33460  10.179   5.128   6.085  0.7765  0.8127 -0.3027
  254MOL0     C33461  10.559   5.773   6.581  0.7628 -0.6467  0.3444
  254MOL0     C33462  10.669   5.828   6.642 -0.2421 -0.4878 -0.2134
  254MOL0     H33463  10.837   6.152   6.800  0.6470  1.9064 -0.1751
  254MOL0     H33464  10.981   6.323   6.933  0.3110  1.1363  1.1509
  254MOL0     H33465  11.370   6.204   7.121  0.8044  1.5726  1.1080
  254MOL0     H33466  11.215   6.160   7.186  1.5615 -2.5841 -2.3199
  254MOL0     H33467  11.353   6.301   7.352 -0.0160 -1.1071 -0.5045
  254MOL0     H33468  11.213   6.404   7.306  1.6259  1.3353 -0.5025
  254MOL0     H33469  11.346   6.532   7.137  0.6530 -1.4921 -1.8374
  254MOL0     H33470  11.485   6.428   7.175  1.1981  1.0840 -0.9169
  254MOL0     H33471  11.330   6.598   7.358  0.7699  2.3950 -1.6128
  254MOL0     H33472  11.492   6.514   7.395 -0.6354 -1.6018 -1.0157
  254MOL0     H33473  11.464   6.782   7.335  1.8177 -0.2944  1.3025
  254MOL0     H33474  11.448   6.706   7.168 -2.8008 -2.6857  0.2245
  254MOL0     H33475  11.649   6.593   7.178  0.7800  0.6583 -0.1960
  254MOL0     H33476  11.675   6.617   7.342  1.1201 -1.0123 -0.3778
  254MOL0     H33477  11.822   6.740   7.193  1.0665  3.5227 -1.7099
  254MOL0     H33478  11.684   6.839   7.138 -2.7818 -0.9544  1.2635
  254MOL0     H33479  11.759   6.805   7.426 -0.1661 -1.1666 -0.4237
  254MOL0     H33480  11.670   6.932   7.347  0.9532  0.7160  0.2639
  254MOL0     H33481  11.833   7.130   7.212 -1.4432 -2.2248 -0.8036
  254MOL0     H33482  12.159   7.261   7.359  1.1468 -2.9770 -1.4357
  254MOL0     H33483  11.994   7.322   7.287 -1.5805 -0.1528 -2.5077
  254MOL0     H33484  12.148   7.371   7.100 -0.0179  0.3250 -2.2355
  254MOL0     H33485  12.048   7.242   7.062  2.3104  0.9159 -3.2272
  254MOL0     H33486  12.329   7.216   7.157  1.4175 -2.5075  0.2728
  254MOL0     H33487  12.228   7.068   7.138  1.9426 -0.7134 -1.9724
  254MOL0     H33488  12.177   7.133   6.902 -2.7732  2.8130  1.4228
  254MOL0     H33489  12.359   7.099   6.946  1.4294  1.9480  1.5045
  254MOL0     H33490  12.365   7.102   6.723  1.7235 -1.7369  1.5411
  254MOL0     H33491  12.553   7.103   6.580  1.3622  0.7256  0.0366
  254MOL0     H33492  13.040   7.288   6.510 -0.6846 -0.8706  0.8398
  254MOL0     H33493  13.224   7.345   6.382  1.1463 -0.0235  0.0616
  254MOL0     H33494  13.394   7.425   6.205 -0.1693  0.1131  0.8326
  254MOL0     H33495  13.426   7.496   6.370  0.0042  0.3996  0.3801
  254MOL0     H33496  13.483   7.702   6.266  1.1678 -1.2118  0.7838
  254MOL0     H33497  13.456   7.648   6.100  0.8822 -0.2320 -0.7047
  254MOL0     H33498  13.635   7.460   6.156 -2.5657 -1.4720  0.7176
  254MOL0     H33499  13.678   7.557   6.293  0.9417  2.1042 -0.0828
  254MOL0     H33500  13.832   7.613   6.136 -0.3914 -0.4762  3.1448
  254MOL0     H33501  13.717   7.642   6.004  1.3153  1.8190 -0.8854
  254MOL0     H33502  13.687   7.822   6.233  3.9074  1.2833  1.2587
  254MOL0     H33503  13.636   7.853   6.068  1.2400  2.1458  0.4094
  254MOL0     H33504  13.911   7.835   6.178 -1.2420 -1.6323  0.2541
  254MOL0     H33505  13.835   7.991   6.139 -3.1442 -0.0480 -1.4462
  254MOL0     H33506  13.857   7.779   5.905 -0.7360  0.2846 -0.7846
  254MOL0     H33507  13.857   7.959   5.916 -0.1184  0.3818  0.8445
  254MOL0     H33508  14.080   7.783   5.986 -1.4734 -0.6038  0.4308
  254MOL0     H33509  14.078   7.963   6.001 -2.3120  0.2521 -0.4775
  254MOL0     H33510  13.059   7.736   6.323  1.0011  1.1647  2.0255
  254MOL0     H33511  12.856   7.661   6.439 -1.0344  0.6150 -3.3564
  254MOL0     H33512  12.655   7.499   6.718 -0.8172 -1.5213  1.1216
  254MOL0     H33513  12.469   7.490   6.862  0.0699 -1.5120  0.4720
  254MOL0     H33514  11.302   6.054   6.970 -0.0269  0.3540 -0.2910
  254MOL0     H33515  11.178   5.879   6.856  3.6564  0.4877  1.4849
  254MOL0     H33516  10.714   5.596   6.883 -0.5536 -1.2211 -0.2793
  254MOL0     H33517  10.508   5.505   6.772  0.1601 -0.0550 -0.0162
  254MOL0     H33518  10.484   5.425   6.509 -0.2503 -1.0470 -1.3094
  254MOL0     H33519  10.448   5.540   6.371 -3.4055  1.1286 -1.0973
  254MOL0     H33520  10.250   5.372   6.550 -3.7788 -1.0054 -1.6171
  254MOL0     H33521  10.212   5.493   6.427  0.5712  0.3367 -0.1706
  254MOL0     H33522  10.405   5.267   6.365  1.0460  2.6345  2.3778
  254MOL0     H33523  10.314   5.369   6.248  1.0449  1.7851  0.4985
  254MOL0     H33524  10.240   5.128   6.397 -1.9996 -2.5706 -1.8062
  254MOL0     H33525  10.106   5.250   6.377  1.7486  0.9678  4.3181
  254MOL0     H33526  10.185   5.104   5.981  0.6189  0.7597 -0.3008
  254MOL0     H33527  10.519   5.827   6.495  3.1757 -0.4205 -0.7257
  254MOL0     H33528  10.721   5.914   6.603  2.2591 -2.8401 -2.5320
  255MOL0     O33529   8.122   3.188  10.708 -0.6626  0.3872 -0.0248
  255MOL0     C33530   8.150   3.167  10.828  0.1027 -0.0905 -0.3668
  255MOL0     O33531   8.064   3.169  10.928  0.4976 -0.4311  0.3290
  255MOL0     C33532   7.932   3.191  10.902  0.7254  0.0447 -0.6128
  255MOL0     C33533   7.857   3.089  10.839  0.3068 -0.2189 -0.7386
  255MOL0     C33534   7.724   3.118  10.826  0.5383  0.6734 -0.3293
  255MOL0     C33535   7.656   3.234  10.875 -0.4884  0.7536  0.5445
  255MOL0     O33536   7.518   3.242  10.885  0.0072 -0.1500  0.5392
  255MOL0     C33537   7.449   3.214  10.761 -0.1224  0.5994 -1.0817
  255MOL0     C33538   7.312   3.282  10.778  0.5487  0.9796  0.2524
  255MOL0     C33539   7.242   3.279  10.647  0.6673 -0.1423  0.0921
  255MOL0     C33540   7.108   3.350  10.656  0.7574  0.1427  0.9384
  255MOL0     C33541   7.043   3.374  10.519  0.0192 -0.3144  0.1182
  255MOL0     C33542   6.976   3.253  10.465 -0.2265  0.2305  0.6994
  255MOL0     C33543   6.840   3.279  10.407  0.3130 -0.3410  0.0053
  255MOL0     C33544   6.779   3.154  10.335  1.2783 -0.6645  0.7407
  255MOL0     N33545   6.637   3.176  10.285  0.3007 -0.6246 -0.0584
  255MOL0     C33546   6.583   3.290  10.234  0.0764 -0.7816 -0.4642
  255MOL0     C33547   6.456   3.267  10.203  0.6526  0.2226  0.2658
  255MOL0     C33548   6.345   3.368  10.171 -0.6113  0.0209 -0.2198
  255MOL0     C33549   6.382   3.495  10.100  0.4393  0.5992 -0.0704
  255MOL0     C33550   6.273   3.599  10.131  0.0417  0.1968  0.9444
  255MOL0     C33551   6.127   3.548  10.115  0.4001 -0.2797 -0.6941
  255MOL0     O33552   6.057   3.676  10.120 -0.2567 -0.8372 -0.3530
  255MOL0     C33553   5.918   3.689  10.115 -0.8336  0.2721 -0.8001
  255MOL0     C33554   5.841   3.579  10.121 -0.3496 -0.0605  0.0682
  255MOL0     C33555   5.705   3.598  10.119  0.4631 -0.0162 -0.3163
  255MOL0     C33556   5.648   3.731  10.118 -0.0692 -0.3344  0.5223
  255MOL0     C33557   5.497   3.758  10.115  0.0156 -0.2388  0.3544
  255MOL0     O33558   5.417   3.651  10.118 -0.7762 -1.6214 -0.1171
  255MOL0     C33559   5.277   3.659  10.102  0.3392 -0.1592  0.5612
  255MOL0     C33560   5.200   3.575  10.179  0.1507  0.9134 -0.0362
  255MOL0     C33561   5.059   3.572  10.180 -0.3644  0.4631 -0.2404
  255MOL0     C33562   4.989   3.648  10.089 -0.2061  0.2683 -0.4390
  255MOL0     O33563   4.857   3.654  10.095  0.1101  0.0298  0.1363
  255MOL0     C33564   4.765   3.571  10.175  1.2771 -0.8658  0.5143
  255MOL0     C33565   4.621   3.574  10.121  0.2082  0.1655 -0.6185
  255MOL0     C33566   4.586   3.703  10.037 -0.5878 -0.9113 -0.3533
  255MOL0     C33567   4.443   3.704   9.977 -0.3850 -0.2395  0.6377
  255MOL0     C33568   4.408   3.828   9.895  0.3833  0.0885  0.3211
  255MOL0     C33569   4.252   3.824   9.852 -0.3079 -0.5730  0.1133
  255MOL0     C33570   4.218   3.931   9.747  0.3173 -0.4421 -0.1328
  255MOL0     C33571   4.072   3.959   9.741 -0.5876  0.2310 -0.2964
  255MOL0    Cl33572   4.007   3.905   9.582  0.4630 -0.4334 -0.6994
  255MOL0     C33573   5.060   3.729   9.998 -0.8486  0.4560  0.4330
  255MOL0     C33574   5.202   3.734  10.013  0.2117 -0.2627 -0.2945
  255MOL0     O33575   5.465   3.884  10.103  0.0554 -0.4474  0.9315
  255MOL0     C33576   5.738   3.841  10.116  0.0449 -1.1526  0.0429
  255MOL0     C33577   5.873   3.816  10.106  0.1140  0.2838 -0.3789
  255MOL0     N33578   6.439   3.133  10.233  0.1021  0.2357 -0.0108
  255MOL0     N33579   6.543   3.080  10.283  0.6405 -0.3788 -0.0238
  255MOL0     C33580   7.738   3.323  10.937  0.7737  0.3688  0.7070
  255MOL0     C33581   7.876   3.312  10.943  0.6329  0.1142  0.7546
  255MOL0     C33582   8.286   3.124  10.865  1.1853  0.3469 -0.1108
  255MOL0     C33583   8.323   3.096  11.003  0.2102  0.2065  0.1873
  255MOL0     C33584   8.449   3.049  11.040 -1.0624  0.1851  0.8269
  255MOL0     C33585   8.557   3.047  10.941 -0.3215  0.0712  0.1856
  255MOL0     O33586   8.688   3.017  10.970  0.1940 -0.5173 -0.8065
  255MOL0     C33587   8.702   2.905  11.059 -0.3903  0.2256  0.3551
  255MOL0     C33588   8.724   2.964  11.199  0.1701  0.4572 -0.4209
  255MOL0     C33589   8.746   2.852  11.303  0.0332  0.6227 -0.8718
  255MOL0     C33590   8.866   2.770  11.291  0.4451  0.6841 -0.6557
  255MOL0     C33591   8.984   2.850  11.331 -0.9115  0.2824 -0.3484
  255MOL0     C33592   9.074   2.924  11.355 -0.5698  0.5131 -0.0743
  255MOL0     C33593   8.524   3.087  10.805  0.1577  1.0609 -0.6085
  255MOL0     C33594   8.393   3.121  10.769  0.4396 -0.6815  0.0741
  255MOL0     H33595   7.909   2.999  10.808  1.9285 -0.0471  1.2504
  255MOL0     H33596   7.662   3.040  10.782 -0.9574  1.8652 -0.4551
  255MOL0     H33597   7.435   3.109  10.735 -1.3228  0.3983  0.2386
  255MOL0     H33598   7.501   3.261  10.677 -1.2636 -0.2655 -2.3272
  255MOL0     H33599   7.333   3.387  10.800  2.4028  0.4340  1.3389
  255MOL0     H33600   7.259   3.242  10.864 -0.2569  0.7640 -0.3351
  255MOL0     H33601   7.227   3.173  10.625 -2.1056  0.3303 -0.5569
  255MOL0     H33602   7.306   3.324  10.571 -1.6055  0.6614 -1.4291
  255MOL0     H33603   7.036   3.313  10.730  2.4711  0.8781  3.0859
  255MOL0     H33604   7.123   3.447  10.703  3.0094  0.2048  0.2159
  255MOL0     H33605   7.109   3.416  10.443  0.1599 -3.1379 -1.4603
  255MOL0     H33606   6.976   3.460  10.527 -0.2317 -0.3360 -1.4482
  255MOL0     H33607   6.963   3.170  10.535  0.8508 -1.0101 -0.5122
  255MOL0     H33608   7.039   3.217  10.383  1.7220  2.4549  1.1288
  255MOL0     H33609   6.778   3.319  10.488  0.6595  2.1681 -0.8832
  255MOL0     H33610   6.846   3.359  10.333 -0.9551  0.6930  0.9620
  255MOL0     H33611   6.780   3.068  10.402  0.3053 -1.8522 -0.7073
  255MOL0     H33612   6.837   3.125  10.247  1.2102  1.2794  0.0002
  255MOL0     H33613   6.638   3.384  10.233 -3.1296  1.3548  1.6272
  255MOL0     H33614   6.312   3.393  10.272 -3.5445  1.0010 -1.2858
  255MOL0     H33615   6.266   3.310  10.122 -0.7464  0.7987 -0.9535
  255MOL0     H33616   6.401   3.465   9.996  2.3769  0.2176  0.3682
  255MOL0     H33617   6.474   3.535  10.142  1.4805 -0.4489 -1.2739
  255MOL0     H33618   6.290   3.634  10.234 -0.9792  0.0464  1.1752
  255MOL0     H33619   6.294   3.681  10.062 -0.1745 -0.4357  0.1169
  255MOL0     H33620   6.088   3.489  10.199  0.5386  0.8739  0.2087
  255MOL0     H33621   6.107   3.489  10.025  1.2278 -2.1089  0.2803
  255MOL0     H33622   5.879   3.479  10.106  0.3154  0.2987 -0.7677
  255MOL0     H33623   5.641   3.511  10.135  0.9576 -0.2619  0.3494
  255MOL0     H33624   5.247   3.525  10.263  0.8280  0.1409 -0.8508
  255MOL0     H33625   5.004   3.519  10.257 -4.0097  1.1392 -2.1967
  255MOL0     H33626   4.755   3.612  10.276 -0.7327 -0.0878  0.0477
  255MOL0     H33627   4.795   3.466  10.181  2.0246 -0.6620  0.5207
  255MOL0     H33628   4.543   3.561  10.198 -0.7667 -0.1631 -1.6316
  255MOL0     H33629   4.621   3.491  10.050  2.8844 -0.2617 -0.1997
  255MOL0     H33630   4.655   3.709   9.953  0.4191 -3.7731  0.1638
  255MOL0     H33631   4.600   3.793  10.098  0.4011 -0.3132 -1.4227
  255MOL0     H33632   4.444   3.614   9.914  2.2391 -0.8723  1.4669
  255MOL0     H33633   4.376   3.685  10.061 -0.1263 -1.2238  0.6334
  255MOL0     H33634   4.470   3.810   9.807  1.0709  0.1655  0.7802
  255MOL0     H33635   4.437   3.926   9.934 -2.8927  0.9640  0.8547
  255MOL0     H33636   4.194   3.856   9.940  0.8765  1.8675  0.0972
  255MOL0     H33637   4.222   3.723   9.822  1.2272 -1.4115  1.2613
  255MOL0     H33638   4.263   4.029   9.769  0.9230 -1.0179  1.3850
  255MOL0     H33639   4.262   3.894   9.654  1.0817 -1.9822  0.7952
  255MOL0     H33640   4.046   4.065   9.744  1.3093  0.7572 -0.7462
  255MOL0     H33641   4.023   3.906   9.823 -0.4286  2.9032  1.6596
  255MOL0     H33642   5.014   3.798   9.928 -2.3655  0.7832  1.6888
  255MOL0     H33643   5.264   3.793   9.946  2.5443 -0.8719  1.1730
  255MOL0     H33644   5.705   3.944  10.110  1.9852 -0.5489 -4.7767
  255MOL0     H33645   5.943   3.894  10.076 -1.3455  0.5787 -3.4200
  255MOL0     H33646   7.701   3.414  10.984  0.8534  0.1835  1.1283
  255MOL0     H33647   7.943   3.391  10.973  0.5321  1.3068 -1.8624
  255MOL0     H33648   8.239   3.104  11.072 -0.5192 -2.0232 -0.3765
  255MOL0     H33649   8.456   3.029  11.147  0.2161  0.2139  0.7701
  255MOL0     H33650   8.787   2.847  11.021 -0.5182  1.9889 -3.0049
  255MOL0     H33651   8.614   2.841  11.049  1.4583 -2.4106 -0.5231
  255MOL0     H33652   8.817   3.022  11.194  0.2359  0.4173  0.3247
  255MOL0     H33653   8.642   3.024  11.239  1.6102  0.7965  2.2234
  255MOL0     H33654   8.661   2.784  11.298  1.3202 -1.0536 -0.8014
  255MOL0     H33655   8.747   2.888  11.406  0.3643 -0.1154 -0.6078
  255MOL0     H33656   8.845   2.689  11.362  0.6260  1.9132  0.8536
  255MOL0     H33657   8.890   2.736  11.189  0.9040  0.9602 -0.6427
  255MOL0     H33658   9.154   2.989  11.385  0.4174 -1.1102  0.9696
  255MOL0     H33659   8.602   3.072  10.730 -0.5478 -1.1485 -0.9867
  255MOL0     H33660   8.365   3.150  10.669  0.0016  1.1602  0.6912
  256MOL0     O33661   0.618   2.703   5.390  0.1498  0.2972  0.1615
  256MOL0     C33662   0.585   2.794   5.469  0.7783  0.1011 -0.4251
  256MOL0     O33663   0.467   2.835   5.502 -0.0086  0.1780  0.1726
  256MOL0     C33664   0.344   2.794   5.442 -0.6112 -0.4301 -0.3763
  256MOL0     C33665   0.330   2.726   5.320  0.5611  0.1449  0.3275
  256MOL0     C33666   0.208   2.696   5.266  0.5562  0.4027 -0.0133
  256MOL0     C33667   0.088   2.730   5.328  0.3844  0.3234  0.5974
  256MOL0     O33668  -0.040   2.724   5.273 -0.0637  0.2640 -0.3835
  256MOL0     C33669  -0.082   2.643   5.164 -0.1417  0.5637  0.0835
  256MOL0     C33670  -0.237   2.650   5.166  0.2640 -0.0121 -0.1320
  256MOL0     C33671  -0.303   2.550   5.070 -0.1356 -0.1371  0.2652
  256MOL0     C33672  -0.458   2.575   5.062  0.4700 -0.5691 -0.0647
  256MOL0     C33673  -0.526   2.479   4.962 -0.0783  0.4605 -0.4370
  256MOL0     C33674  -0.671   2.524   4.940 -0.8870 -0.0419  0.2558
  256MOL0     C33675  -0.744   2.408   4.866  0.9906 -0.6284  0.1649
  256MOL0     C33676  -0.719   2.417   4.711 -0.4495  0.0212  1.2469
  256MOL0     N33677  -0.837   2.364   4.638 -0.2908  0.3754 -0.3608
  256MOL0     C33678  -0.954   2.432   4.633  0.3170 -0.9168  0.6344
  256MOL0     C33679  -1.027   2.387   4.526 -0.7580 -0.3027  0.8749
  256MOL0     C33680  -1.154   2.445   4.462  0.7280 -0.2458  0.3398
  256MOL0     C33681  -1.224   2.346   4.361 -0.0719  0.9206 -0.0250
  256MOL0     C33682  -1.364   2.402   4.332 -0.2243  0.1011 -0.7732
  256MOL0     C33683  -1.380   2.544   4.268 -0.1632 -0.3245  0.6056
  256MOL0     O33684  -1.322   2.554   4.140  0.5691 -0.1702  0.3843
  256MOL0     C33685  -1.376   2.656   4.062 -0.0596 -1.2200  0.3334
  256MOL0     C33686  -1.496   2.645   4.002  0.8140 -0.0270  1.0242
  256MOL0     C33687  -1.545   2.727   3.905  0.0343 -0.3348 -0.1419
  256MOL0     C33688  -1.466   2.827   3.854  0.4627 -0.1795  0.5978
  256MOL0     C33689  -1.516   2.908   3.740  0.1409 -0.0650  0.0490
  256MOL0     O33690  -1.631   2.885   3.682  0.0878  0.2099 -0.2500
  256MOL0     C33691  -1.695   2.985   3.618 -0.2054 -1.6598  0.2803
  256MOL0     C33692  -1.817   3.029   3.666  0.7330 -0.1189 -0.1492
  256MOL0     C33693  -1.893   3.130   3.607 -0.8983  0.7442 -0.3110
  256MOL0     C33694  -1.841   3.183   3.488 -0.5932  0.2192 -0.2581
  256MOL0     O33695  -1.930   3.269   3.428 -0.7010 -0.5748  0.3748
  256MOL0     C33696  -1.937   3.269   3.283 -0.3880  0.0810  0.4222
  256MOL0     C33697  -2.045   3.368   3.221 -0.6831  0.1094 -0.2235
  256MOL0     C33698  -2.192   3.347   3.272  0.0542 -0.1080 -0.0860
  256MOL0     C33699  -2.220   3.387   3.414 -0.8864 -0.6064 -0.6062
  256MOL0     C33700  -2.368   3.413   3.441  0.1352 -0.2396 -0.0200
  256MOL0     C33701  -2.448   3.278   3.473  0.6174 -0.2906 -0.2318
  256MOL0     C33702  -2.554   3.308   3.587  0.0948 -0.0316 -0.1469
  256MOL0     C33703  -2.695   3.336   3.541  0.6513  0.5810 -0.3809
  256MOL0    Cl33704  -2.684   3.487   3.436  0.1776 -0.1185  0.1873
  256MOL0     C33705  -1.712   3.150   3.444  0.1705 -0.4756  0.2608
  256MOL0     C33706  -1.639   3.047   3.503  0.1106  0.0068 -0.3865
  256MOL0     O33707  -1.449   3.006   3.720  0.2662  0.6904  0.5834
  256MOL0     C33708  -1.338   2.845   3.910  0.2162 -0.2264  0.5201
  256MOL0     C33709  -1.293   2.759   4.017 -0.2750  0.5248 -0.0616
  256MOL0     N33710  -0.949   2.276   4.475 -0.6624 -0.5089  0.2145
  256MOL0     N33711  -0.839   2.259   4.550 -0.0348  0.0852  0.4525
  256MOL0     C33712   0.100   2.793   5.457  0.5300  0.0673  0.0651
  256MOL0     C33713   0.222   2.823   5.515  0.1538 -0.4789  0.3560
  256MOL0     C33714   0.689   2.861   5.539  0.0371  0.2033 -0.0945
  256MOL0     C33715   0.672   2.982   5.608 -0.1089 -0.4757  0.4411
  256MOL0     C33716   0.783   3.066   5.640  0.2965  0.8467 -0.2685
  256MOL0     C33717   0.911   3.010   5.634 -0.1202 -0.4784 -0.8647
  256MOL0     O33718   1.005   3.096   5.682 -0.6244 -0.7576  0.0924
  256MOL0     C33719   1.142   3.057   5.661 -0.1059  0.7255 -0.0475
  256MOL0     C33720   1.188   3.074   5.522  0.7412 -0.4795  0.3813
  256MOL0     C33721   1.188   3.216   5.465 -0.7971  0.1410 -0.4772
  256MOL0     C33722   1.313   3.245   5.377 -0.3811 -0.0551  0.1488
  256MOL0     C33723   1.342   3.151   5.277  0.1277 -0.1241  0.1094
  256MOL0     C33724   1.344   3.070   5.188  0.7172  0.1998  0.5746
  256MOL0     C33725   0.926   2.890   5.575 -1.4436  0.2819  0.0218
  256MOL0     C33726   0.823   2.815   5.528  0.0680 -0.0168 -0.2090
  256MOL0     H33727   0.416   2.691   5.265 -1.8012 -0.9654 -3.0355
  256MOL0     H33728   0.201   2.657   5.165  3.5800  0.7535 -0.4798
  256MOL0     H33729  -0.051   2.538   5.159 -1.4388  0.2125 -2.2903
  256MOL0     H33730  -0.035   2.681   5.072  0.4156 -0.0425  0.1069
  256MOL0     H33731  -0.265   2.754   5.148 -1.2711 -0.0652  1.5490
  256MOL0     H33732  -0.268   2.634   5.270 -1.4788  0.7779 -0.4912
  256MOL0     H33733  -0.267   2.452   5.103 -0.7675 -0.7280 -0.7323
  256MOL0     H33734  -0.256   2.553   4.971 -0.7063  1.1934  0.0202
  256MOL0     H33735  -0.501   2.567   5.162  0.5962 -0.5219 -0.0062
  256MOL0     H33736  -0.474   2.672   5.013 -0.2302 -0.1455  0.9578
  256MOL0     H33737  -0.532   2.382   5.013 -4.6921  0.3903 -0.7147
  256MOL0     H33738  -0.469   2.467   4.869  1.1857 -2.4330  0.5612
  256MOL0     H33739  -0.671   2.617   4.881  0.6588 -0.2799 -0.1718
  256MOL0     H33740  -0.724   2.541   5.034  1.4539 -0.8594  1.8124
  256MOL0     H33741  -0.718   2.306   4.895  1.7109 -0.7203 -0.7645
  256MOL0     H33742  -0.851   2.420   4.886  0.8591 -1.1682 -0.2077
  256MOL0     H33743  -0.630   2.363   4.678 -1.5854 -0.8498 -0.5404
  256MOL0     H33744  -0.697   2.519   4.678  3.1154 -1.6607 -2.4783
  256MOL0     H33745  -0.987   2.519   4.689 -0.9373  0.0712 -1.5178
  256MOL0     H33746  -1.137   2.535   4.403  2.5458 -0.3526  0.6455
  256MOL0     H33747  -1.221   2.472   4.545 -0.2768 -0.1102 -0.4943
  256MOL0     H33748  -1.232   2.248   4.410 -1.4284  0.6645 -0.7013
  256MOL0     H33749  -1.166   2.338   4.269 -1.8598  1.9847 -1.3004
  256MOL0     H33750  -1.412   2.327   4.269  2.7099 -0.8499 -2.0356
  256MOL0     H33751  -1.400   2.397   4.435  2.2720 -0.8471  0.1213
  256MOL0     H33752  -1.341   2.621   4.336  1.5826 -0.3588 -0.2957
  256MOL0     H33753  -1.487   2.565   4.269 -0.3101 -1.0504  1.4607
  256MOL0     H33754  -1.552   2.555   4.028  1.5982 -2.0783 -3.4752
  256MOL0     H33755  -1.646   2.716   3.868 -0.9464  1.3962  1.7830
  256MOL0     H33756  -1.859   2.981   3.754 -2.3573  1.2992 -0.7096
  256MOL0     H33757  -1.990   3.158   3.647 -0.9886 -0.7775  0.6349
  256MOL0     H33758  -1.952   3.166   3.248  3.1758 -0.1832 -0.7363
  256MOL0     H33759  -1.835   3.291   3.249  0.3612 -0.9121  1.9074
  256MOL0     H33760  -2.033   3.358   3.113 -0.3968 -1.6938 -0.0621
  256MOL0     H33761  -2.020   3.469   3.255 -0.4418 -0.0808  0.1801
  256MOL0     H33762  -2.202   3.238   3.268 -0.7203 -0.0481 -0.0920
  256MOL0     H33763  -2.255   3.405   3.204 -0.9090  1.6365  2.1486
  256MOL0     H33764  -2.178   3.320   3.491  2.1309  1.5746 -0.1432
  256MOL0     H33765  -2.158   3.475   3.436 -0.7877 -0.7805 -0.1660
  256MOL0     H33766  -2.415   3.468   3.358  2.2558  1.1245 -0.4062
  256MOL0     H33767  -2.379   3.487   3.520  0.3597  0.9993 -1.1028
  256MOL0     H33768  -2.373   3.204   3.501  0.1281 -0.6290  0.2098
  256MOL0     H33769  -2.503   3.238   3.388  0.1016  3.7148 -2.0256
  256MOL0     H33770  -2.569   3.212   3.637  0.0533 -0.2841 -0.6410
  256MOL0     H33771  -2.522   3.393   3.648  1.2767  0.1254 -0.9449
  256MOL0     H33772  -2.760   3.341   3.629 -0.1121 -1.3288 -0.7846
  256MOL0     H33773  -2.728   3.253   3.478 -3.7763  1.2704  0.6525
  256MOL0     H33774  -1.679   3.194   3.350  0.0206 -1.2774 -0.1796
  256MOL0     H33775  -1.552   2.998   3.460 -0.7672 -1.5913 -0.4218
  256MOL0     H33776  -1.286   2.931   3.870 -1.8575 -0.1468 -2.2333
  256MOL0     H33777  -1.191   2.768   4.051 -0.3900  0.2430  0.3615
  256MOL0     H33778   0.014   2.828   5.513  0.3991  1.6866 -1.0798
  256MOL0     H33779   0.221   2.877   5.610 -3.0705 -0.7357  0.5678
  256MOL0     H33780   0.581   3.039   5.626  1.4212  2.6680 -0.9557
  256MOL0     H33781   0.773   3.166   5.681  4.5096  1.6266 -0.7338
  256MOL0     H33782   1.156   2.954   5.696 -1.1052  0.2131 -1.1189
  256MOL0     H33783   1.214   3.119   5.716 -0.0368 -0.1553  0.8869
  256MOL0     H33784   1.290   3.035   5.513  0.6649 -0.4808 -0.5818
  256MOL0     H33785   1.153   3.003   5.446  3.7538 -1.0166 -0.6347
  256MOL0     H33786   1.193   3.285   5.551 -1.6544  0.3246 -0.5608
  256MOL0     H33787   1.100   3.241   5.405 -0.8276  0.0665 -0.4636
  256MOL0     H33788   1.293   3.341   5.328  2.4805  0.5597  0.0225
  256MOL0     H33789   1.398   3.269   5.441 -3.3585  2.4636  3.5305
  256MOL0     H33790   1.344   2.999   5.108 -0.5998  0.1371  0.6182
  256MOL0     H33791   1.031   2.864   5.563 -0.4474  3.8541 -0.2404
  256MOL0     H33792   0.840   2.729   5.465 -0.0510  0.7588 -1.3216
  257MOL0     O33793   9.700   1.887   6.795  0.3731  0.2518  0.2299
  257MOL0     C33794   9.717   1.795   6.870  0.3332  0.6499 -0.3010
  257MOL0     O33795   9.643   1.771   6.992 -0.1191  0.2791  0.3670
  257MOL0     C33796   9.513   1.824   7.002 -0.3942 -0.1934  0.1358
  257MOL0     C33797   9.392   1.755   6.984 -0.4379  0.0367  0.3087
  257MOL0     C33798   9.269   1.807   6.998  0.6826 -0.1997 -0.5453
  257MOL0     C33799   9.255   1.942   7.030  1.0558 -0.1215  0.1641
  257MOL0     O33800   9.133   2.000   7.051  0.2742 -0.5720 -0.0926
  257MOL0     C33801   9.111   2.110   7.144  0.3458 -1.0981 -0.2628
  257MOL0     C33802   8.962   2.114   7.200  0.3691  0.1142 -0.2084
  257MOL0     C33803   8.868   2.200   7.100 -0.0682  0.0063 -0.0238
  257MOL0     C33804   8.752   2.260   7.184  0.7802 -0.2496 -0.2256
  257MOL0     C33805   8.653   2.314   7.087  0.7035 -0.5927  0.4099
  257MOL0     C33806   8.538   2.394   7.160 -0.3988  0.5447 -0.5022
  257MOL0     C33807   8.442   2.447   7.048  0.7253  0.1619 -0.9643
  257MOL0     C33808   8.328   2.524   7.115  0.1056  0.0914  0.0195
  257MOL0     N33809   8.210   2.543   7.034 -0.0923 -0.3319 -0.5282
  257MOL0     C33810   8.213   2.636   6.935 -0.0084 -0.5688  0.0102
  257MOL0     C33811   8.086   2.661   6.900  0.0852  1.0964 -0.8958
  257MOL0     C33812   8.033   2.769   6.816  0.7398 -0.4376  0.4552
  257MOL0     C33813   8.078   2.766   6.665  0.7507 -0.0433  0.6510
  257MOL0     C33814   8.018   2.660   6.574 -0.0818 -0.1281 -1.3322
  257MOL0     C33815   7.859   2.646   6.543  0.1095  0.0337  0.3721
  257MOL0     O33816   7.794   2.771   6.527 -0.0999 -0.3298 -0.3205
  257MOL0     C33817   7.657   2.770   6.495 -0.2078  0.4597 -0.2647
  257MOL0     C33818   7.585   2.891   6.505 -0.5932 -0.0713  0.2868
  257MOL0     C33819   7.456   2.906   6.477 -0.2072 -0.7378 -0.6853
  257MOL0     C33820   7.378   2.789   6.443  0.0832 -0.4197  0.2959
  257MOL0     C33821   7.239   2.802   6.424 -0.6833 -1.1203 -0.1683
  257MOL0     O33822   7.186   2.925   6.448  0.0284 -0.9400  0.4906
  257MOL0     C33823   7.048   2.940   6.434 -0.0867 -0.8592 -0.5397
  257MOL0     C33824   6.992   3.017   6.327  0.0701 -0.1442 -1.1427
  257MOL0     C33825   6.856   3.034   6.320 -0.4156  0.4855  0.5244
  257MOL0     C33826   6.767   2.967   6.405 -0.8875  0.3330 -0.2879
  257MOL0     O33827   6.641   2.982   6.370 -0.8123  1.2405  0.8456
  257MOL0     C33828   6.557   2.883   6.422  0.3395  0.4417 -0.0547
  257MOL0     C33829   6.420   2.904   6.365  0.0625  0.5724  0.4085
  257MOL0     C33830   6.303   2.844   6.442  1.1451 -0.1501  0.9709
  257MOL0     C33831   6.181   2.883   6.367  1.0737  0.4484  0.1406
  257MOL0     C33832   6.066   2.791   6.408 -0.3512  0.1517 -0.2674
  257MOL0     C33833   5.939   2.865   6.362 -0.6106 -0.3411 -0.3390
  257MOL0     C33834   5.809   2.790   6.387  0.1244  0.3635 -0.1618
  257MOL0     C33835   5.685   2.854   6.336 -0.2634 -0.3440  0.0937
  257MOL0    Cl33836   5.534   2.765   6.351  0.0039  0.2356  0.2356
  257MOL0     C33837   6.824   2.879   6.505  0.0149 -0.6777 -0.3246
  257MOL0     C33838   6.965   2.872   6.528  0.4871  0.0800 -0.4497
  257MOL0     O33839   7.177   2.705   6.385 -0.3646  0.4954  0.0473
  257MOL0     C33840   7.448   2.672   6.424 -0.9788 -0.5657  0.6697
  257MOL0     C33841   7.585   2.660   6.448 -0.0709 -0.3142 -0.2470
  257MOL0     N33842   8.010   2.558   6.971  0.3744 -0.3774  0.2613
  257MOL0     N33843   8.082   2.506   7.061 -0.6871  0.4194 -0.4083
  257MOL0     C33844   9.369   2.016   7.040  0.2645 -0.4806 -0.5778
  257MOL0     C33845   9.497   1.964   7.014  0.4457  0.0613 -0.1794
  257MOL0     C33846   9.830   1.698   6.851  0.2146 -0.7960  0.1621
  257MOL0     C33847   9.825   1.579   6.916 -0.2263  0.0367  0.2861
  257MOL0     C33848   9.921   1.484   6.895 -0.5780 -0.3205  0.4668
  257MOL0     C33849  10.037   1.512   6.813 -0.5217 -0.6796 -0.1697
  257MOL0     O33850  10.136   1.421   6.796 -0.8569 -0.3984 -0.0274
  257MOL0     C33851  10.148   1.316   6.891 -0.2259 -0.1643 -0.4595
  257MOL0     C33852  10.291   1.292   6.924 -0.4378  0.0702 -0.8524
  257MOL0     C33853  10.355   1.373   7.042 -0.1088  0.1355  0.3005
  257MOL0     C33854  10.501   1.336   7.056  0.4659  0.2808 -0.0970
  257MOL0     C33855  10.566   1.411   7.157  0.0568  0.3159  0.4602
  257MOL0     C33856  10.631   1.491   7.212 -0.7729 -0.4648  0.3035
  257MOL0     C33857  10.047   1.638   6.752 -0.6026 -0.9405  0.7589
  257MOL0     C33858   9.938   1.732   6.771  0.3221 -1.0919 -0.5454
  257MOL0     H33859   9.389   1.650   6.956  0.2040  0.5561 -1.9314
  257MOL0     H33860   9.180   1.745   6.990 -0.2866  1.2282 -1.5160
  257MOL0     H33861   9.136   2.209   7.104  0.7843 -1.1881 -0.2099
  257MOL0     H33862   9.173   2.093   7.233 -0.0086  0.3846  0.2991
  257MOL0     H33863   8.965   2.161   7.298  1.3816 -0.1493 -0.1032
  257MOL0     H33864   8.910   2.018   7.203 -0.0882  0.2664 -1.8341
  257MOL0     H33865   8.834   2.133   7.020 -0.3810 -0.0292  0.1374
  257MOL0     H33866   8.933   2.273   7.051  1.2307 -0.5304  0.8221
  257MOL0     H33867   8.705   2.181   7.243  1.7261 -2.1711 -1.8783
  257MOL0     H33868   8.789   2.340   7.249  1.8346 -1.6393  0.9535
  257MOL0     H33869   8.618   2.223   7.038 -1.4321 -0.1773  1.0488
  257MOL0     H33870   8.704   2.383   7.020  2.5199  0.9149  3.1258
  257MOL0     H33871   8.577   2.480   7.216 -0.8830 -0.5551  1.6149
  257MOL0     H33872   8.491   2.320   7.225  2.4415 -0.4705  0.5735
  257MOL0     H33873   8.487   2.526   6.988 -0.9619  3.2542  1.4844
  257MOL0     H33874   8.390   2.368   6.993  0.7634 -1.5203  1.2388
  257MOL0     H33875   8.346   2.615   7.173 -2.4439  1.3129 -0.9257
  257MOL0     H33876   8.290   2.449   7.184 -2.2507 -0.8698 -2.1660
  257MOL0     H33877   8.303   2.692   6.912 -1.0711 -0.1423 -3.7200
  257MOL0     H33878   8.056   2.870   6.850 -2.4586  0.8042 -0.6832
  257MOL0     H33879   7.924   2.769   6.827  0.9267  0.7787  2.8291
  257MOL0     H33880   8.187   2.772   6.665  0.7479  1.2761  3.0893
  257MOL0     H33881   8.034   2.859   6.629  0.1614 -0.8831 -0.8768
  257MOL0     H33882   8.072   2.671   6.480  0.7521 -1.1319 -0.9943
  257MOL0     H33883   8.057   2.569   6.620  3.8104  2.0657  0.2644
  257MOL0     H33884   7.821   2.597   6.633  0.1172 -0.2850  0.2023
  257MOL0     H33885   7.836   2.579   6.459  1.1026 -1.0623  0.9468
  257MOL0     H33886   7.645   2.977   6.533  0.3496  0.2750 -2.5284
  257MOL0     H33887   7.413   3.005   6.479  2.7738  0.6818 -1.3716
  257MOL0     H33888   7.068   3.063   6.265  1.5388  2.8383  2.4935
  257MOL0     H33889   6.814   3.080   6.231  0.4132  0.4852  0.1234
  257MOL0     H33890   6.545   2.888   6.531  0.8499 -3.3494  0.3087
  257MOL0     H33891   6.586   2.778   6.412 -1.9382 -0.4367  1.5820
  257MOL0     H33892   6.419   2.865   6.262 -0.4694  1.6245  0.0002
  257MOL0     H33893   6.408   3.012   6.350  0.1554  0.3145 -1.8941
  257MOL0     H33894   6.299   2.902   6.535 -2.0690 -1.8824  2.0647
  257MOL0     H33895   6.312   2.735   6.448 -0.6911 -0.5066 -1.4115
  257MOL0     H33896   6.172   2.991   6.378  0.0306  0.3318  0.6334
  257MOL0     H33897   6.200   2.861   6.261  1.3710  0.8453  0.1114
  257MOL0     H33898   6.064   2.787   6.518 -3.1530 -1.0084 -0.2631
  257MOL0     H33899   6.085   2.695   6.360 -0.7062 -0.7763  1.3500
  257MOL0     H33900   5.947   2.881   6.254  1.5539  1.7544  0.0335
  257MOL0     H33901   5.931   2.963   6.411  3.4127  0.6697 -1.3144
  257MOL0     H33902   5.821   2.685   6.357 -1.3967 -0.4235  1.7414
  257MOL0     H33903   5.788   2.771   6.493  3.3028 -0.1873  0.4900
  257MOL0     H33904   5.710   2.877   6.232  3.7647 -3.0578  0.2461
  257MOL0     H33905   5.668   2.948   6.388 -3.1307 -1.5848  1.6511
  257MOL0     H33906   6.759   2.822   6.570 -2.0885 -2.1660 -3.4583
  257MOL0     H33907   7.000   2.822   6.617 -1.5404  0.0349  0.3703
  257MOL0     H33908   7.400   2.587   6.375  0.5048  0.0519 -2.0112
  257MOL0     H33909   7.633   2.563   6.446 -0.6211 -0.7026  2.0496
  257MOL0     H33910   9.356   2.121   7.065  2.3809 -0.7172  1.8887
  257MOL0     H33911   9.577   2.033   7.040 -1.2132  2.0341 -0.0266
  257MOL0     H33912   9.738   1.558   6.978 -1.6527  3.1886 -0.4677
  257MOL0     H33913   9.901   1.387   6.940  1.4254 -1.9088 -1.8198
  257MOL0     H33914  10.110   1.220   6.854  0.7334 -0.7790  0.0912
  257MOL0     H33915  10.108   1.344   6.989  1.3220 -3.9933  1.4856
  257MOL0     H33916  10.302   1.184   6.939 -1.1906  0.1234  0.1984
  257MOL0     H33917  10.346   1.316   6.833  4.2148 -1.8816  1.0869
  257MOL0     H33918  10.305   1.352   7.136 -0.3647 -0.4990  0.0324
  257MOL0     H33919  10.351   1.478   7.010  0.3955 -0.6157 -2.5639
  257MOL0     H33920  10.502   1.230   7.083 -5.1555 -0.3583 -1.0678
  257MOL0     H33921  10.543   1.353   6.956 -1.4564 -0.9846 -1.1981
  257MOL0     H33922  10.707   1.548   7.261 -1.2488  0.0526  0.4497
  257MOL0     H33923  10.139   1.665   6.700  0.3168  0.5982  3.0233
  257MOL0     H33924   9.945   1.823   6.712  0.4651 -0.3853  0.5346
  258MOL0     O33925   9.713   1.072   7.304 -0.0851 -0.3574 -0.0830
  258MOL0     C33926   9.718   1.190   7.269 -0.8761 -0.6974 -0.0852
  258MOL0     O33927   9.611   1.271   7.223  1.0356  0.5882  0.1552
  258MOL0     C33928   9.480   1.239   7.254 -0.1942 -0.3619 -0.0153
  258MOL0     C33929   9.391   1.282   7.162 -0.5206 -0.9650 -0.5641
  258MOL0     C33930   9.255   1.245   7.169  0.2334 -0.3631 -0.2765
  258MOL0     C33931   9.204   1.180   7.280 -0.0098 -0.6728  0.6714
  258MOL0     O33932   9.067   1.164   7.284  0.8898 -0.0035 -0.4335
  258MOL0     C33933   9.002   1.120   7.405  0.1486 -0.2258 -0.0072
  258MOL0     C33934   8.848   1.118   7.371 -0.2956  0.6525 -0.7653
  258MOL0     C33935   8.769   1.058   7.481  0.1374  0.4244 -0.0984
  258MOL0     C33936   8.621   1.111   7.461 -0.1101  0.4767 -0.1888
  258MOL0     C33937   8.534   1.045   7.569  1.2040  0.8665 -1.2494
  258MOL0     C33938   8.428   1.147   7.612  0.5004  0.9144  0.8162
  258MOL0     C33939   8.301   1.079   7.651  0.2805  0.2210  0.1959
  258MOL0     C33940   8.302   1.040   7.799 -0.0092  0.3874  0.0417
  258MOL0     N33941   8.186   0.974   7.840  0.4442  0.6381  0.6917
  258MOL0     C33942   8.054   1.005   7.810 -0.2304  1.1314  0.2505
  258MOL0     C33943   7.974   0.907   7.864  0.1144 -0.0139  0.5884
  258MOL0     C33944   7.829   0.912   7.886  0.0095  0.2780 -0.2205
  258MOL0     C33945   7.766   0.781   7.839 -0.7162 -0.3258  0.1603
  258MOL0     C33946   7.610   0.784   7.847 -1.4382 -0.9741  0.6121
  258MOL0     C33947   7.558   0.643   7.818  0.3598  0.4623  0.1343
  258MOL0     O33948   7.424   0.628   7.862  0.8160  0.5937  0.3387
  258MOL0     C33949   7.326   0.619   7.763  0.0277  0.6981  0.5756
  258MOL0     C33950   7.208   0.546   7.783  0.8065  0.1738 -0.6538
  258MOL0     C33951   7.095   0.545   7.700 -0.3741  0.3363  0.8497
  258MOL0     C33952   7.100   0.595   7.572 -0.0696 -0.5561 -1.4544
  258MOL0     C33953   6.984   0.598   7.476 -0.0601  0.5024 -0.7006
  258MOL0     O33954   6.862   0.568   7.522 -0.7524 -0.6855 -0.0401
  258MOL0     C33955   6.755   0.529   7.452  0.9192  0.3923 -0.5838
  258MOL0     C33956   6.639   0.517   7.536  0.6008  0.3516 -0.3170
  258MOL0     C33957   6.518   0.478   7.481  0.3324 -0.0226 -0.0703
  258MOL0     C33958   6.505   0.461   7.339  0.4154 -0.2269  0.5638
  258MOL0     O33959   6.388   0.459   7.268  0.0388  0.3788  0.1734
  258MOL0     C33960   6.278   0.432   7.347  1.0604 -0.2613  0.2237
  258MOL0     C33961   6.155   0.417   7.264 -0.4774 -0.2911  0.2165
  258MOL0     C33962   6.170   0.309   7.152  0.2596 -0.8551  0.1914
  258MOL0     C33963   6.170   0.166   7.208  0.6790 -0.2637 -0.9221
  258MOL0     C33964   6.150   0.059   7.104  0.0125  0.2020 -0.2406
  258MOL0     C33965   6.000   0.034   7.081  0.1626  0.4719  0.3091
  258MOL0     C33966   5.960  -0.120   7.096 -0.7942 -0.5654  0.3808
  258MOL0     C33967   6.008  -0.213   6.983 -0.3362  0.1915  1.0600
  258MOL0    Cl33968   5.927  -0.178   6.814  0.1572 -0.0930  0.3187
  258MOL0     C33969   6.622   0.471   7.263  0.6410  0.3566 -0.5172
  258MOL0     C33970   6.747   0.498   7.315 -0.8771  0.4453  0.2732
  258MOL0     O33971   7.003   0.628   7.361  0.7747 -0.1708 -0.5536
  258MOL0     C33972   7.217   0.676   7.552  0.6799  0.1149  0.7693
  258MOL0     C33973   7.328   0.681   7.640 -0.5707  0.0244 -0.0968
  258MOL0     N33974   8.059   0.821   7.924  0.5101  0.1601 -0.5177
  258MOL0     N33975   8.180   0.853   7.904  0.1481 -0.0981  0.0014
  258MOL0     C33976   9.295   1.147   7.382  0.3309 -0.1156 -0.0273
  258MOL0     C33977   9.438   1.170   7.366  1.0980 -0.3237 -0.6683
  258MOL0     C33978   9.841   1.266   7.287 -1.8147 -0.3955 -0.4005
  258MOL0     C33979   9.864   1.395   7.225  0.3632 -0.6621  0.3991
  258MOL0     C33980   9.990   1.458   7.238  0.5446  0.3248  0.3960
  258MOL0     C33981  10.091   1.411   7.314  0.6529 -0.3481 -0.3667
  258MOL0     O33982  10.200   1.489   7.349  0.1965  0.3879 -0.5457
  258MOL0     C33983  10.321   1.440   7.420 -0.9869 -1.0113  0.1889
  258MOL0     C33984  10.416   1.554   7.443  0.3239  0.4144 -0.7820
  258MOL0     C33985  10.370   1.657   7.547  0.1218  1.1118 -0.5140
  258MOL0     C33986  10.459   1.669   7.670  0.1988  1.0665 -0.3514
  258MOL0     C33987  10.596   1.699   7.645  0.4612  0.0108  0.5247
  258MOL0     C33988  10.709   1.735   7.632 -0.7469  0.4256 -0.3135
  258MOL0     C33989  10.069   1.279   7.371  0.2200 -0.3994 -0.4940
  258MOL0     C33990   9.950   1.204   7.347  0.0038  0.7126  0.4415
  258MOL0     H33991   9.425   1.341   7.078 -0.2632  0.5109  0.5376
  258MOL0     H33992   9.174   1.276   7.103 -1.6878 -0.3271  1.9506
  258MOL0     H33993   9.018   1.175   7.499 -1.3933 -1.1059  0.8127
  258MOL0     H33994   9.033   1.018   7.428  2.5115  0.8656  2.2956
  258MOL0     H33995   8.829   1.062   7.279  1.3196 -0.0181 -0.7261
  258MOL0     H33996   8.817   1.222   7.360 -0.2028  0.7063 -0.5418
  258MOL0     H33997   8.802   1.099   7.577  2.1756  1.3495 -1.1403
  258MOL0     H33998   8.769   0.951   7.503 -1.9265  0.5130  0.5650
  258MOL0     H33999   8.624   1.219   7.480  0.0175  0.3455  0.5764
  258MOL0     H34000   8.579   1.082   7.365  0.9252 -3.3813  0.3389
  258MOL0     H34001   8.597   1.019   7.654 -0.0796 -1.0294 -0.8098
  258MOL0     H34002   8.492   0.947   7.543  3.1131 -0.2300 -0.3932
  258MOL0     H34003   8.405   1.209   7.525  1.1868  1.0896  0.7552
  258MOL0     H34004   8.463   1.215   7.690  0.5948  1.3525  0.3966
  258MOL0     H34005   8.217   1.146   7.628  1.0522  1.8441  1.8000
  258MOL0     H34006   8.282   0.990   7.592  1.8135  1.4324 -2.2698
  258MOL0     H34007   8.307   1.130   7.861 -0.1266  0.5257 -0.1471
  258MOL0     H34008   8.390   0.979   7.819 -1.4503 -2.5097 -1.6561
  258MOL0     H34009   8.013   1.095   7.766 -0.3544  0.9409 -0.0281
  258MOL0     H34010   7.770   0.996   7.849 -0.1867 -0.2472 -1.1307
  258MOL0     H34011   7.810   0.909   7.994 -0.2010  3.3169 -0.1071
  258MOL0     H34012   7.807   0.700   7.900 -1.0549  0.5130  1.5335
  258MOL0     H34013   7.812   0.773   7.740  1.1092 -2.1381  1.0914
  258MOL0     H34014   7.569   0.815   7.943 -0.6611  1.6306  0.1686
  258MOL0     H34015   7.573   0.859   7.775  0.0278 -0.0207  0.8250
  258MOL0     H34016   7.629   0.576   7.866 -0.3115  0.8558  1.7314
  258MOL0     H34017   7.563   0.614   7.712 -3.2233  0.9402 -0.2976
  258MOL0     H34018   7.207   0.485   7.874 -0.9975  1.0657 -0.0087
  258MOL0     H34019   7.011   0.480   7.720  0.0721 -0.5358 -0.0203
  258MOL0     H34020   6.648   0.531   7.643 -0.0335  1.5786 -0.4057
  258MOL0     H34021   6.426   0.481   7.539  0.3950  2.6295  0.0212
  258MOL0     H34022   6.263   0.514   7.418  0.7826 -0.5098  0.4577
  258MOL0     H34023   6.294   0.336   7.397 -3.0254 -2.6158 -2.3256
  258MOL0     H34024   6.144   0.522   7.233  3.6021  0.8396  1.9159
  258MOL0     H34025   6.064   0.387   7.316  0.3730 -3.1611  0.2247
  258MOL0     H34026   6.253   0.326   7.083 -1.9363  1.3107 -2.1411
  258MOL0     H34027   6.077   0.307   7.094 -0.6233  0.0005  1.4982
  258MOL0     H34028   6.265   0.156   7.262 -0.4736  0.5646  1.4119
  258MOL0     H34029   6.097   0.143   7.287  1.9788 -0.9437  0.1192
  258MOL0     H34030   6.198  -0.030   7.147 -1.2493  0.3574  1.6067
  258MOL0     H34031   6.202   0.074   7.009  2.9335 -1.2952  0.9970
  258MOL0     H34032   5.974   0.067   6.980 -0.4870 -0.4377  0.1595
  258MOL0     H34033   5.934   0.088   7.149  0.4752  1.5773 -0.2489
  258MOL0     H34034   5.999  -0.165   7.187  2.0252  0.3741 -0.2584
  258MOL0     H34035   5.851  -0.132   7.098 -0.4950 -6.0312 -0.5953
  258MOL0     H34036   5.989  -0.319   7.001  0.2562 -0.3072 -0.9749
  258MOL0     H34037   6.117  -0.205   6.980 -0.1731 -1.7779 -0.6547
  258MOL0     H34038   6.607   0.455   7.157  0.6097  1.0827 -0.6297
  258MOL0     H34039   6.816   0.518   7.233 -2.1313  0.5376 -0.7809
  258MOL0     H34040   7.224   0.736   7.463 -0.6787  0.6209  0.9896
  258MOL0     H34041   7.415   0.742   7.615  0.1246 -1.0357 -0.3258
  258MOL0     H34042   9.250   1.106   7.472 -1.4605 -0.1680 -0.8943
  258MOL0     H34043   9.507   1.139   7.444  0.0645 -0.4298  0.2295
  258MOL0     H34044   9.793   1.433   7.152  0.6973  1.5303  1.1356
  258MOL0     H34045  10.004   1.561   7.204 -0.3076  0.1185 -0.6239
  258MOL0     H34046  10.370   1.359   7.366 -0.8986 -0.9689  0.2040
  258MOL0     H34047  10.292   1.392   7.514 -1.7949 -0.1313  0.4147
  258MOL0     H34048  10.513   1.520   7.479 -0.8662 -1.5236  0.8625
  258MOL0     H34049  10.441   1.608   7.352 -0.1656  0.0047 -1.1644
  258MOL0     H34050  10.278   1.632   7.600  1.5901 -0.0355  1.6620
  258MOL0     H34051  10.354   1.753   7.498 -3.1248  0.0469 -1.7495
  258MOL0     H34052  10.420   1.749   7.735 -0.7679  0.6342 -0.3913
  258MOL0     H34053  10.457   1.579   7.732 -0.5300  2.2282  1.4053
  258MOL0     H34054  10.812   1.766   7.629 -0.6747  0.6421  2.5234
  258MOL0     H34055  10.149   1.227   7.422  1.6196 -0.2755 -2.4140
  258MOL0     H34056   9.945   1.101   7.380 -0.0268  0.8835  0.9846
  259MOL0     O34057  11.169   5.554  11.050  0.2481 -0.0919  0.4924
  259MOL0     C34058  11.248   5.556  10.961 -0.3765 -0.3095  0.7494
  259MOL0     O34059  11.222   5.572  10.831 -0.0857  0.0802  0.3480
  259MOL0     C34060  11.101   5.559  10.778  1.0412  0.8998  0.1251
  259MOL0     C34061  11.083   5.625  10.659 -0.6582  0.9723 -0.4958
  259MOL0     C34062  10.962   5.613  10.587  0.3043 -1.4154  0.0403
  259MOL0     C34063  10.858   5.540  10.639  0.2852 -1.4651 -0.4558
  259MOL0     O34064  10.743   5.502  10.573 -0.0556  0.3130 -0.4228
  259MOL0     C34065  10.732   5.513  10.429 -0.2729  0.9371 -0.4108
  259MOL0     C34066  10.600   5.447  10.389  0.2374 -0.2712  0.5901
  259MOL0     C34067  10.473   5.529  10.422  0.1943 -0.6521 -0.4616
  259MOL0     C34068  10.456   5.578  10.570  0.8936 -0.1690 -0.5440
  259MOL0     C34069  10.312   5.631  10.597 -0.3536  0.0278 -0.6359
  259MOL0     C34070  10.206   5.522  10.592 -0.4725  0.3236 -0.8120
  259MOL0     C34071  10.069   5.558  10.645  0.1927 -0.6831 -0.0852
  259MOL0     C34072   9.981   5.430  10.653  0.1902  0.5046  0.5621
  259MOL0     N34073   9.851   5.462  10.693 -0.2069  0.3251  0.1474
  259MOL0     C34074   9.741   5.416  10.628  1.6378 -0.3816  0.1457
  259MOL0     C34075   9.632   5.475  10.691  0.0440 -0.7146  0.2101
  259MOL0     C34076   9.491   5.441  10.666  0.8312 -0.5607  0.2889
  259MOL0     C34077   9.409   5.430  10.801 -1.9436 -1.1176 -0.4963
  259MOL0     C34078   9.266   5.464  10.784 -0.8335  0.1526  0.1179
  259MOL0     C34079   9.196   5.343  10.724 -0.0078 -0.5488 -0.4433
  259MOL0     O34080   9.053   5.377  10.719  0.1183  0.0890 -0.6635
  259MOL0     C34081   8.971   5.366  10.835 -0.3876  0.6083  0.4701
  259MOL0     C34082   8.839   5.396  10.805 -0.2515  0.3328  0.1481
  259MOL0     C34083   8.742   5.384  10.904 -0.2962 -1.1484 -0.1575
  259MOL0     C34084   8.773   5.357  11.039 -0.3383 -0.6386  0.4303
  259MOL0     C34085   8.673   5.344  11.143 -0.6754  0.2326  0.6307
  259MOL0     O34086   8.554   5.382  11.112  0.6877  0.2774  0.4824
  259MOL0     C34087   8.458   5.378  11.209  0.0322 -0.9325  0.5525
  259MOL0     C34088   8.465   5.485  11.299  0.4703  0.1019  0.2848
  259MOL0     C34089   8.356   5.505  11.391 -0.7310  0.8682  0.7294
  259MOL0     C34090   8.247   5.417  11.397  0.1388 -0.5379  0.1604
  259MOL0     O34091   8.156   5.460  11.485 -0.3459  0.2715  0.2390
  259MOL0     C34092   8.035   5.385  11.527  0.5679  1.0127  1.1869
  259MOL0     C34093   7.934   5.469  11.604  0.4738  0.7374 -1.1755
  259MOL0     C34094   7.829   5.379  11.674 -0.4544  0.3906  0.0254
  259MOL0     C34095   7.709   5.464  11.737  0.4265 -0.4187  0.2594
  259MOL0     C34096   7.580   5.458  11.650  0.2753  0.7979 -0.0619
  259MOL0     C34097   7.480   5.567  11.683  0.2934 -0.4008 -0.5391
  259MOL0     C34098   7.349   5.554  11.602  0.8387 -0.6367 -0.1889
  259MOL0     C34099   7.232   5.645  11.644  0.6597  1.6188  0.6460
  259MOL0    Cl34100   7.134   5.582  11.779 -0.2528  0.0008  0.0094
  259MOL0     C34101   8.236   5.318  11.303 -0.4717 -0.0807  0.5591
  259MOL0     C34102   8.338   5.297  11.209  0.0026 -0.4878  0.8727
  259MOL0     O34103   8.704   5.282  11.248 -0.0040  0.2477 -0.4813
  259MOL0     C34104   8.913   5.322  11.072  0.2269 -1.0816  0.0834
  259MOL0     C34105   9.012   5.332  10.968  0.2143 -0.7112 -0.1218
  259MOL0     N34106   9.688   5.553  10.800  0.6004 -0.4609  1.2450
  259MOL0     N34107   9.810   5.548  10.793  0.3174  0.5524 -0.0434
  259MOL0     C34108  10.881   5.472  10.757  0.6670 -0.1944 -0.6356
  259MOL0     C34109  10.998   5.475  10.827 -0.0450 -0.6839 -0.2042
  259MOL0     C34110  11.388   5.526  10.992  0.8780  0.1559  0.6730
  259MOL0     C34111  11.490   5.577  10.909  0.8570 -0.1031 -0.2318
  259MOL0     C34112  11.624   5.531  10.913  0.8638 -0.3428  0.3089
  259MOL0     C34113  11.659   5.454  11.022  0.3290 -0.8715  0.0893
  259MOL0     O34114  11.789   5.414  11.040 -0.0831  0.6304  0.3838
  259MOL0     C34115  11.888   5.415  10.940 -0.5421  1.5871 -0.1350
  259MOL0     C34116  11.893   5.278  10.852  0.2308 -0.5397  0.1037
  259MOL0     C34117  12.018   5.268  10.752 -0.3062 -0.5538  0.8041
  259MOL0     C34118  12.154   5.332  10.816  0.7737  0.7494 -0.6487
  259MOL0     C34119  12.258   5.322  10.714  0.6399 -0.2189 -0.2482
  259MOL0     C34120  12.349   5.332  10.633  0.8770 -0.9000  1.1268
  259MOL0     C34121  11.565   5.417  11.120 -0.7171 -0.8000 -0.4308
  259MOL0     C34122  11.427   5.450  11.104 -0.3958  0.2452 -0.5625
  259MOL0     H34123  11.167   5.689  10.633 -0.2116  1.2203  1.4066
  259MOL0     H34124  10.961   5.661  10.490  2.5363  3.0918  1.9243
  259MOL0     H34125  10.813   5.449  10.391  0.9381  1.4793  1.1149
  259MOL0     H34126  10.750   5.614  10.392 -1.1392  0.3953 -2.4384
  259MOL0     H34127  10.601   5.346  10.429 -0.0635 -0.1907  0.8151
  259MOL0     H34128  10.608   5.442  10.280 -0.8785 -1.8504  0.5546
  259MOL0     H34129  10.392   5.464  10.389  1.7851 -1.9289 -2.0708
  259MOL0     H34130  10.463   5.620  10.362 -1.2823 -1.3635 -1.3435
  259MOL0     H34131  10.476   5.491  10.634  3.5483  1.8306  1.5627
  259MOL0     H34132  10.524   5.654  10.608 -1.9929  1.5871  1.5848
  259MOL0     H34133  10.293   5.709  10.522 -0.7060 -2.2222 -3.0711
  259MOL0     H34134  10.303   5.668  10.699 -0.3305 -0.9434 -0.2717
  259MOL0     H34135  10.242   5.444  10.660  1.5141  0.1288 -1.9814
  259MOL0     H34136  10.197   5.486  10.490 -0.5287  0.4669 -0.8572
  259MOL0     H34137  10.078   5.598  10.746  3.2962 -0.9836 -0.1545
  259MOL0     H34138  10.040   5.640  10.579 -0.5644 -2.4992 -2.1245
  259MOL0     H34139  10.037   5.362  10.717  0.9844 -0.5735 -1.2069
  259MOL0     H34140   9.978   5.389  10.551 -2.6893  0.0856  0.7279
  259MOL0     H34141   9.728   5.358  10.537  1.2497 -1.4846  0.8842
  259MOL0     H34142   9.486   5.346  10.612  1.6290 -2.4785  3.3450
  259MOL0     H34143   9.455   5.518  10.598  0.2106 -0.8238  0.3126
  259MOL0     H34144   9.452   5.498  10.875  0.1026 -0.2411 -2.3781
  259MOL0     H34145   9.420   5.327  10.837 -2.5232 -0.5145  1.5302
  259MOL0     H34146   9.234   5.483  10.887  0.1314 -0.6148  0.5779
  259MOL0     H34147   9.253   5.552  10.721 -1.0158 -1.0845 -1.6488
  259MOL0     H34148   9.209   5.254  10.786 -0.3718 -1.0312 -1.0481
  259MOL0     H34149   9.235   5.316  10.626  2.2735 -0.6468  0.4236
  259MOL0     H34150   8.804   5.414  10.705  0.0670 -1.2432 -0.2796
  259MOL0     H34151   8.639   5.382  10.870 -0.3066  1.9431 -0.5988
  259MOL0     H34152   8.542   5.561  11.298  0.0356  0.5453  0.4871
  259MOL0     H34153   8.360   5.580  11.470  1.8144 -0.4859  1.9920
  259MOL0     H34154   8.071   5.307  11.595  4.5543 -0.0298 -1.7430
  259MOL0     H34155   7.997   5.338  11.435  1.3348 -1.3662  2.0100
  259MOL0     H34156   7.880   5.544  11.545 -1.9355 -1.0297 -1.3389
  259MOL0     H34157   7.987   5.521  11.685  1.2330 -0.7448 -0.6769
  259MOL0     H34158   7.888   5.323  11.748 -0.4908 -0.6180 -0.6801
  259MOL0     H34159   7.797   5.307  11.598 -1.2881 -0.0985  0.8224
  259MOL0     H34160   7.692   5.431  11.840  0.6662  0.2925  0.5334
  259MOL0     H34161   7.742   5.567  11.753  2.1945 -0.6990 -1.2073
  259MOL0     H34162   7.536   5.359  11.668 -0.0474  0.3990 -2.6948
  259MOL0     H34163   7.601   5.445  11.544  0.2911  1.9902 -0.2134
  259MOL0     H34164   7.529   5.664  11.675 -2.0871  0.9017 -0.2977
  259MOL0     H34165   7.449   5.561  11.787  1.7193  1.9060  0.0811
  259MOL0     H34166   7.372   5.576  11.498 -0.3009 -1.4708 -0.6492
  259MOL0     H34167   7.312   5.451  11.603  1.1671 -0.7673 -0.9907
  259MOL0     H34168   7.165   5.649  11.557 -1.7121 -0.4718  2.2152
  259MOL0     H34169   7.267   5.744  11.673 -1.3824  3.1405 -1.6344
  259MOL0     H34170   8.146   5.258  11.293 -0.7378  0.1269  1.5900
  259MOL0     H34171   8.327   5.222  11.131 -0.7013  2.2160 -1.8159
  259MOL0     H34172   8.940   5.301  11.174 -1.1152  2.2584  1.2560
  259MOL0     H34173   9.112   5.292  10.980 -0.3508 -3.3862 -2.9050
  259MOL0     H34174  10.795   5.412  10.787  1.1273 -0.9534 -0.7935
  259MOL0     H34175  11.013   5.415  10.916 -0.1684  0.8616  0.9045
  259MOL0     H34176  11.461   5.643  10.827 -0.8615  1.0586  1.2306
  259MOL0     H34177  11.690   5.555  10.831  0.2129 -2.9885 -1.0916
  259MOL0     H34178  11.975   5.425  11.006 -1.6675  1.4665  1.4031
  259MOL0     H34179  11.872   5.504  10.879  0.1115  1.4047 -0.5899
  259MOL0     H34180  11.886   5.191  10.917 -0.7685  1.5679  3.0234
  259MOL0     H34181  11.800   5.281  10.794  0.0831 -0.4292  0.3449
  259MOL0     H34182  11.999   5.311  10.653  3.0120 -1.4379 -0.3498
  259MOL0     H34183  12.040   5.163  10.731  2.4380  0.3002 -1.0753
  259MOL0     H34184  12.138   5.438  10.836  1.2004  0.7874 -0.5062
  259MOL0     H34185  12.190   5.276  10.902  1.2223 -0.1482 -1.4078
  259MOL0     H34186  12.428   5.342  10.561  0.2060  2.1157  0.6830
  259MOL0     H34187  11.606   5.371  11.209  1.5347  1.7973 -0.0138
  259MOL0     H34188  11.363   5.416  11.185  0.3720 -0.3377 -0.1892
  260MOL0     O34189   0.367   4.248   4.681  0.3962 -0.3020  0.3129
  260MOL0     C34190   0.426   4.311   4.599 -0.3667 -0.0856  0.4051
  260MOL0     O34191   0.390   4.338   4.465  1.3052 -0.5028  0.3352
  260MOL0     C34192   0.277   4.280   4.410  0.0129 -0.5664  0.2338
  260MOL0     C34193   0.171   4.361   4.377 -0.4947 -0.5053  0.0873
  260MOL0     C34194   0.074   4.302   4.294  0.2342  0.0769 -0.2260
  260MOL0     C34195   0.096   4.172   4.240  2.1734 -0.8887 -0.3834
  260MOL0     O34196  -0.001   4.112   4.160  0.2639 -0.3671  0.3303
  260MOL0     C34197  -0.072   4.201   4.057  0.5532 -0.5930 -0.0571
  260MOL0     C34198  -0.007   4.174   3.924  0.3096 -0.8539 -0.4401
  260MOL0     C34199  -0.086   4.257   3.809  0.5187  0.2986 -0.0852
  260MOL0     C34200  -0.199   4.173   3.730 -0.1923 -0.0226 -0.7608
  260MOL0     C34201  -0.274   4.276   3.635  0.1927  1.0054  0.0747
  260MOL0     C34202  -0.377   4.232   3.537 -0.4246 -0.4123 -0.6286
  260MOL0     C34203  -0.485   4.144   3.605  0.7406 -1.2093 -0.2577
  260MOL0     C34204  -0.443   4.003   3.605 -0.1278  0.7013 -0.7354
  260MOL0     N34205  -0.554   3.915   3.656  0.0502  0.7856  0.3358
  260MOL0     C34206  -0.646   3.946   3.758 -0.1684 -1.0160 -0.5277
  260MOL0     C34207  -0.729   3.837   3.752  0.5379 -0.5543 -1.1785
  260MOL0     C34208  -0.828   3.827   3.861  0.1675  0.0882  0.2974
  260MOL0     C34209  -0.927   3.946   3.879 -0.3777  0.1726 -0.4711
  260MOL0     C34210  -1.025   3.915   3.987  0.2684  0.0008  0.6374
  260MOL0     C34211  -1.150   4.014   3.975 -0.2545 -0.5416 -0.1635
  260MOL0     O34212  -1.224   3.998   4.099  0.0120 -0.4020  0.6751
  260MOL0     C34213  -1.323   3.901   4.118  0.8509  0.4505  0.1058
  260MOL0     C34214  -1.388   3.918   4.244  1.4604  0.4729  0.8294
  260MOL0     C34215  -1.493   3.831   4.271 -0.2944 -0.5147 -0.9239
  260MOL0     C34216  -1.521   3.723   4.189  0.5631  0.6306 -0.4848
  260MOL0     C34217  -1.632   3.631   4.224 -0.6770  0.1468  0.2972
  260MOL0     O34218  -1.658   3.618   4.351 -0.6396  0.8408 -0.6870
  260MOL0     C34219  -1.747   3.524   4.400 -0.0395  0.2968 -0.1735
  260MOL0     C34220  -1.769   3.398   4.339 -0.4424 -0.2795 -0.1689
  260MOL0     C34221  -1.861   3.302   4.382  0.3300  0.1605  0.2928
  260MOL0     C34222  -1.936   3.335   4.492 -0.1943  0.7608  0.1712
  260MOL0     O34223  -2.007   3.233   4.556  0.0646 -0.7577  0.7436
  260MOL0     C34224  -2.098   3.151   4.487  0.2191 -0.9293  0.2962
  260MOL0     C34225  -2.197   3.072   4.569  0.7234 -0.9553 -0.4238
  260MOL0     C34226  -2.320   3.034   4.487  0.0983 -0.6693 -0.3708
  260MOL0     C34227  -2.428   2.953   4.566 -0.2107  1.5622 -0.3427
  260MOL0     C34228  -2.491   3.042   4.678  0.5561  0.4674  0.9591
  260MOL0     C34229  -2.603   2.983   4.769 -0.1673 -0.4396 -0.2367
  260MOL0     C34230  -2.652   3.094   4.868  0.4522  0.7305 -0.7067
  260MOL0     C34231  -2.764   3.042   4.976 -0.1718  0.3307  0.2368
  260MOL0    Cl34232  -2.878   2.917   4.914 -0.1505  0.1475  0.5830
  260MOL0     C34233  -1.921   3.457   4.550  0.3291  0.0920  0.5203
  260MOL0     C34234  -1.837   3.557   4.500  0.0553 -0.6110 -0.8353
  260MOL0     O34235  -1.700   3.594   4.133  0.5949  0.6497  0.6015
  260MOL0     C34236  -1.460   3.709   4.068 -0.1738  0.6503  0.0695
  260MOL0     C34237  -1.358   3.794   4.036  1.0930  0.1788  0.6618
  260MOL0     N34238  -0.683   3.744   3.657  0.1665  0.0319 -0.0055
  260MOL0     N34239  -0.570   3.791   3.593  0.5058 -0.3954  0.6577
  260MOL0     C34240   0.215   4.103   4.262 -0.5184  0.1296 -0.2182
  260MOL0     C34241   0.306   4.158   4.358  0.8590  0.1323  0.7952
  260MOL0     C34242   0.560   4.354   4.631  0.2422  0.1040  0.4878
  260MOL0     C34243   0.644   4.407   4.529 -0.4209 -0.1419 -0.3761
  260MOL0     C34244   0.772   4.455   4.551  0.4690 -0.1416 -0.5802
  260MOL0     C34245   0.832   4.431   4.673  0.7458  0.4795  0.1217
  260MOL0     O34246   0.962   4.453   4.694 -0.4140 -0.4935 -0.4391
  260MOL0     C34247   1.057   4.388   4.604 -0.4922  0.4328  0.1711
  260MOL0     C34248   1.072   4.247   4.642 -0.7261 -0.3201 -0.3329
  260MOL0     C34249   1.185   4.174   4.560  1.2665 -0.7429  0.3712
  260MOL0     C34250   1.240   4.045   4.618  0.2104 -0.2736  0.2645
  260MOL0     C34251   1.161   3.930   4.585 -0.0282 -0.4645 -0.1965
  260MOL0     C34252   1.116   3.822   4.557  0.1936  0.8409 -0.2011
  260MOL0     C34253   0.761   4.374   4.778 -0.8191  0.3974 -0.2159
  260MOL0     C34254   0.628   4.343   4.752 -0.0431  0.1957 -0.3205
  260MOL0     H34255   0.163   4.463   4.414  1.1672 -0.9637  1.8771
  260MOL0     H34256  -0.022   4.350   4.275 -1.3566 -3.4192 -2.0550
  260MOL0     H34257  -0.056   4.308   4.077 -1.9364 -0.4587  1.7236
  260MOL0     H34258  -0.177   4.172   4.066  0.3480  0.3804  0.9469
  260MOL0     H34259   0.007   4.069   3.899 -0.6667 -0.6447 -2.0096
  260MOL0     H34260   0.095   4.211   3.940 -0.9558  2.2478  1.5911
  260MOL0     H34261  -0.011   4.280   3.732 -0.5801 -1.5765 -1.8371
  260MOL0     H34262  -0.135   4.342   3.856  0.2601 -0.4438  1.0260
  260MOL0     H34263  -0.144   4.091   3.681  0.9950  0.8824 -0.9993
  260MOL0     H34264  -0.263   4.119   3.800  0.0595 -0.8807 -1.1812
  260MOL0     H34265  -0.198   4.335   3.583  1.7727 -1.0711 -0.0810
  260MOL0     H34266  -0.323   4.337   3.712 -4.2002 -1.5706 -0.3474
  260MOL0     H34267  -0.328   4.184   3.452 -0.4938 -2.4359  0.4170
  260MOL0     H34268  -0.420   4.320   3.489 -2.7287  0.8572  3.2860
  260MOL0     H34269  -0.507   4.179   3.706  3.5946 -2.8204  1.0604
  260MOL0     H34270  -0.571   4.149   3.537  1.8394  1.1823 -1.5982
  260MOL0     H34271  -0.348   3.991   3.657  1.6082  0.2548 -3.7662
  260MOL0     H34272  -0.421   3.964   3.505  2.7714 -2.1867  0.8294
  260MOL0     H34273  -0.658   4.020   3.837  2.9921 -0.3474 -0.5482
  260MOL0     H34274  -0.781   3.810   3.958 -0.5092  2.5295  1.1445
  260MOL0     H34275  -0.900   3.752   3.828 -2.7360  3.3939 -1.6999
  260MOL0     H34276  -0.978   3.967   3.784  1.4099 -0.1762 -1.5697
  260MOL0     H34277  -0.873   4.036   3.910 -2.2755  0.8686  0.9538
  260MOL0     H34278  -1.066   3.814   3.985 -1.2950  0.6329 -0.0719
  260MOL0     H34279  -0.973   3.927   4.083  1.5017  1.8487 -0.1964
  260MOL0     H34280  -1.213   4.012   3.886 -0.0670  1.7360 -0.4003
  260MOL0     H34281  -1.111   4.116   3.969 -0.7828 -0.3588 -0.5566
  260MOL0     H34282  -1.359   4.005   4.301  1.9916  1.0483 -0.2888
  260MOL0     H34283  -1.548   3.843   4.364  0.9898  0.7785 -0.2913
  260MOL0     H34284  -1.703   3.367   4.259 -1.5795 -1.1107 -0.8124
  260MOL0     H34285  -1.871   3.207   4.330  0.1031 -0.7241  1.8638
  260MOL0     H34286  -2.034   3.083   4.431  0.5607 -1.8463  1.7514
  260MOL0     H34287  -2.156   3.212   4.417 -0.9382 -2.3853 -0.0740
  260MOL0     H34288  -2.238   3.138   4.646 -1.8937  0.8883 -3.1564
  260MOL0     H34289  -2.151   2.980   4.606  0.8491 -1.4285 -1.7025
  260MOL0     H34290  -2.285   2.974   4.402  2.6506  0.4853 -0.2414
  260MOL0     H34291  -2.371   3.119   4.441 -0.4183 -2.2023 -2.8633
  260MOL0     H34292  -2.504   2.901   4.508  0.9017 -1.6704  0.8929
  260MOL0     H34293  -2.368   2.874   4.613 -0.6588  0.0305 -2.2314
  260MOL0     H34294  -2.516   3.139   4.635  2.4107  0.3542 -0.5043
  260MOL0     H34295  -2.413   3.057   4.753  0.7136 -2.8702  1.6271
  260MOL0     H34296  -2.576   2.894   4.826 -0.0331  0.6996  1.5437
  260MOL0     H34297  -2.681   2.955   4.698 -0.6974  1.1455 -0.3179
  260MOL0     H34298  -2.573   3.137   4.929 -0.4357  4.5389 -1.9432
  260MOL0     H34299  -2.693   3.182   4.817  0.7159  0.8045 -0.7892
  260MOL0     H34300  -2.828   3.125   5.008 -3.2842 -2.7295  2.7108
  260MOL0     H34301  -2.715   3.011   5.068 -1.8585  0.6394  1.2906
  260MOL0     H34302  -1.989   3.481   4.631  1.5676  0.4105  1.4940
  260MOL0     H34303  -1.822   3.651   4.552 -1.7135  0.1251 -1.5574
  260MOL0     H34304  -1.498   3.631   4.003 -1.3430  2.3478 -1.3764
  260MOL0     H34305  -1.296   3.785   3.947  0.6561  0.1314  0.3593
  260MOL0     H34306   0.218   4.002   4.222 -0.2090 -1.0702  2.5891
  260MOL0     H34307   0.397   4.104   4.384 -0.2662 -2.4020 -0.2454
  260MOL0     H34308   0.606   4.431   4.430 -2.8881  0.3290  0.6288
  260MOL0     H34309   0.816   4.501   4.463 -1.5498 -1.4217 -2.3604
  260MOL0     H34310   1.154   4.435   4.622 -0.9068  0.3338  3.1650
  260MOL0     H34311   1.026   4.392   4.499 -1.7001 -1.2421  0.4228
  260MOL0     H34312   1.102   4.245   4.747 -2.1318 -1.2987  0.0875
  260MOL0     H34313   0.980   4.188   4.635  0.1876 -1.6351 -1.9836
  260MOL0     H34314   1.273   4.237   4.544  0.5814  0.0411 -0.4966
  260MOL0     H34315   1.148   4.163   4.457 -0.9954 -0.6496  1.1118
  260MOL0     H34316   1.345   4.037   4.590 -0.4895 -1.6489 -2.3400
  260MOL0     H34317   1.239   4.063   4.726 -2.7831  0.9085  0.1263
  260MOL0     H34318   1.092   3.722   4.529 -1.2637  0.7628  1.1824
  260MOL0     H34319   0.814   4.367   4.873 -0.9001 -1.0595 -0.2553
  260MOL0     H34320   0.584   4.288   4.835  1.3780  1.4776  1.3549
  261MOL0     O34321   9.340   9.925   0.075  0.1382  0.0996  0.2905
  261MOL0     C34322   9.270   9.881   0.168 -0.4274  0.1785  0.7325
  261MOL0     O34323   9.319   9.836   0.285  0.0552  0.0992  0.1413
  261MOL0     C34324   9.457   9.850   0.323 -0.2653  0.6997 -0.1260
  261MOL0     C34325   9.567   9.851   0.242  0.0206  0.1926 -0.3582
  261MOL0     C34326   9.702   9.856   0.289  0.4222 -0.5339 -0.2778
  261MOL0     C34327   9.721   9.869   0.424 -0.4140 -0.6368 -0.5542
  261MOL0     O34328   9.836   9.865   0.496  1.2011 -0.3276  0.2842
  261MOL0     C34329   9.960   9.855   0.427 -0.1654 -0.4396  0.0488
  261MOL0     C34330  10.062   9.792   0.520 -0.5620 -0.4417 -0.1135
  261MOL0     C34331  10.173   9.734   0.444  0.0848  1.0174  0.7373
  261MOL0     C34332  10.270   9.653   0.527  0.3299 -0.0635 -0.1064
  261MOL0     C34333  10.353   9.557   0.432  0.8516 -0.3259  0.4348
  261MOL0     C34334  10.423   9.609   0.305 -0.1208 -0.2671  0.2627
  261MOL0     C34335  10.519   9.721   0.353 -0.1456 -0.1953  0.3183
  261MOL0     C34336  10.634   9.687   0.449  0.3971  0.6579  1.0462
  261MOL0     N34337  10.721   9.582   0.402 -0.3161  0.3278 -0.0186
  261MOL0     C34338  10.828   9.608   0.319 -0.6444  0.2576 -1.0911
  261MOL0     C34339  10.891   9.490   0.313  0.2315 -0.3182 -0.7988
  261MOL0     C34340  11.021   9.476   0.238  0.1019 -0.0391 -0.1819
  261MOL0     C34341  11.046   9.361   0.133  0.7178  0.5082 -0.4848
  261MOL0     C34342  10.955   9.366   0.011  0.9921 -0.4032  0.1998
  261MOL0     C34343  10.993   9.260  -0.091  0.4744  0.4979  0.5053
  261MOL0     O34344  11.087   9.321  -0.175  0.7142 -0.2065  0.1103
  261MOL0     C34345  11.042   9.407  -0.275  0.3465  0.2014 -0.6798
  261MOL0     C34346  11.105   9.527  -0.280 -1.1354  0.1731 -0.6643
  261MOL0     C34347  11.071   9.627  -0.369  0.3094 -0.0837  0.0164
  261MOL0     C34348  10.975   9.600  -0.471  0.1145 -0.3347  0.7804
  261MOL0     C34349  10.926   9.700  -0.571 -0.9817  0.6049  0.0950
  261MOL0     O34350  10.863   9.652  -0.681 -0.0460 -0.7814 -0.5248
  261MOL0     C34351  10.768   9.721  -0.757 -0.4334 -0.3859  0.0179
  261MOL0     C34352  10.721   9.852  -0.736 -0.2614  0.3933  0.8337
  261MOL0     C34353  10.625   9.909  -0.825  0.4618  0.4980 -0.3071
  261MOL0     C34354  10.570   9.830  -0.923 -0.2097  0.2476 -0.4171
  261MOL0     O34355  10.489   9.891  -1.013 -0.5681  0.4297  0.0108
  261MOL0     C34356  10.361   9.827  -1.045  0.4050 -0.3310  0.6499
  261MOL0     C34357  10.275   9.916  -1.136  0.1896  0.8057  0.4957
  261MOL0     C34358  10.151   9.828  -1.173 -0.1359 -0.9595  0.2034
  261MOL0     C34359  10.047   9.888  -1.272  0.4171 -0.7160  0.0027
  261MOL0     C34360   9.942   9.783  -1.309 -0.7968 -0.0800 -0.4007
  261MOL0     C34361   9.827   9.768  -1.209  0.8207  0.2740 -0.4788
  261MOL0     C34362   9.711   9.667  -1.239  0.3324  0.7235  0.0072
  261MOL0     C34363   9.645   9.707  -1.373  0.1838  0.5066  0.5110
  261MOL0    Cl34364   9.487   9.639  -1.372  0.5609  0.1567 -0.0324
  261MOL0     C34365  10.626   9.704  -0.944  0.3270  0.6730 -0.1468
  261MOL0     C34366  10.724   9.648  -0.867 -0.2757  0.8829  0.1073
  261MOL0     O34367  10.941   9.820  -0.542 -0.7984  0.4038  0.2070
  261MOL0     C34368  10.927   9.467  -0.472  0.4800  0.4149 -0.2996
  261MOL0     C34369  10.950   9.375  -0.374  0.4326 -0.3343  0.5298
  261MOL0     N34370  10.815   9.391   0.382  0.9794 -0.0150  0.0867
  261MOL0     N34371  10.712   9.449   0.434 -0.2105  0.0083  0.4084
  261MOL0     C34372   9.607   9.860   0.507  0.3928  0.0069  0.6020
  261MOL0     C34373   9.474   9.857   0.457  0.2837 -0.6167 -0.0971
  261MOL0     C34374   9.125   9.898   0.151 -0.0654  0.1662  0.0716
  261MOL0     C34375   9.074   9.938   0.029 -0.1628  0.3792 -0.3862
  261MOL0     C34376   8.947   9.958   0.012  0.6118  0.3056 -0.6090
  261MOL0     C34377   8.852   9.953   0.115 -0.3971 -0.3418 -0.4041
  261MOL0     O34378   8.717   9.977   0.090 -0.1711 -0.7572 -0.0761
  261MOL0     C34379   8.626   9.931   0.189 -0.1637  0.3430  0.2820
  261MOL0     C34380   8.485   9.926   0.142 -0.0809  0.5595  0.3181
  261MOL0     C34381   8.391   9.877   0.250 -0.0039 -0.0016 -0.5181
  261MOL0     C34382   8.243   9.862   0.205  0.5146 -0.6686 -0.3659
  261MOL0     C34383   8.148   9.816   0.308 -0.7676  0.9420  0.5032
  261MOL0     C34384   8.068   9.774   0.387  0.9557 -0.3050 -0.3421
  261MOL0     C34385   8.901   9.908   0.239 -0.4236 -0.0120 -0.0073
  261MOL0     C34386   9.033   9.885   0.257 -0.0653  0.0193 -0.3395
  261MOL0     H34387   9.556   9.828   0.137 -0.6455  4.3352 -1.3777
  261MOL0     H34388   9.780   9.850   0.215  0.2527 -2.8670 -0.3513
  261MOL0     H34389   9.996   9.956   0.407 -1.3257  0.2969  1.4817
  261MOL0     H34390   9.956   9.804   0.331  0.8763 -0.9171  0.2358
  261MOL0     H34391  10.020   9.706   0.571 -1.6961  1.8846  3.2207
  261MOL0     H34392  10.096   9.863   0.596  1.9669 -2.3347  0.6591
  261MOL0     H34393  10.224   9.796   0.370  1.8773 -0.5041  0.6474
  261MOL0     H34394  10.128   9.649   0.391 -1.5336  2.3466 -0.1287
  261MOL0     H34395  10.336   9.723   0.580  0.4939  0.1600 -0.6031
  261MOL0     H34396  10.220   9.592   0.603  1.0952 -1.1082 -0.4244
  261MOL0     H34397  10.283   9.485   0.388  2.1647 -0.8191 -0.9264
  261MOL0     H34398  10.412   9.500   0.504 -0.6552 -1.8855  0.5067
  261MOL0     H34399  10.355   9.645   0.228 -0.7860 -0.1104  0.9041
  261MOL0     H34400  10.478   9.524   0.267  0.3846  0.1896 -0.0396
  261MOL0     H34401  10.566   9.759   0.261  0.0173 -0.2534  0.3762
  261MOL0     H34402  10.473   9.807   0.402  2.2188  0.8661  0.8392
  261MOL0     H34403  10.593   9.666   0.548 -1.0686 -1.4042  0.0999
  261MOL0     H34404  10.703   9.770   0.464  0.7430 -0.0481  3.8572
  261MOL0     H34405  10.860   9.704   0.281  0.0733  0.8777  0.9487
  261MOL0     H34406  11.096   9.452   0.314 -0.5857 -0.8122  0.2629
  261MOL0     H34407  11.050   9.572   0.194  0.4325  1.5893  3.2328
  261MOL0     H34408  11.027   9.271   0.193  0.3703  2.4253  2.5508
  261MOL0     H34409  11.151   9.365   0.103  1.4483 -0.4332  1.7036
  261MOL0     H34410  10.851   9.364   0.044  0.5156  1.9920 -0.9162
  261MOL0     H34411  10.972   9.463  -0.037 -2.1961 -1.0190 -2.5972
  261MOL0     H34412  10.904   9.231  -0.147 -0.6132  2.8997  0.9178
  261MOL0     H34413  11.020   9.167  -0.039  1.5754 -0.7843 -2.1838
  261MOL0     H34414  11.184   9.545  -0.208 -2.4917 -0.9563  1.2043
  261MOL0     H34415  11.125   9.722  -0.370 -0.8728  0.7004 -3.3492
  261MOL0     H34416  10.764   9.912  -0.657 -0.7867  0.8432  0.7894
  261MOL0     H34417  10.596  10.011  -0.804  1.2641  0.1864  2.8359
  261MOL0     H34418  10.298   9.806  -0.958 -2.0406  0.7399 -0.7595
  261MOL0     H34419  10.389   9.734  -1.094 -0.5265 -0.8592  1.0919
  261MOL0     H34420  10.330   9.952  -1.224  5.4043 -3.0732  1.6875
  261MOL0     H34421  10.242  10.005  -1.082  1.3940  2.1780 -0.9229
  261MOL0     H34422  10.094   9.800  -1.084 -0.6636  1.9867  0.8954
  261MOL0     H34423  10.203   9.749  -1.227 -2.2909 -3.4723  1.5504
  261MOL0     H34424  10.013   9.983  -1.231  0.8973 -0.0134 -1.1661
  261MOL0     H34425  10.101   9.917  -1.363 -2.2780  1.2914 -1.0892
  261MOL0     H34426   9.998   9.689  -1.311  1.8467  1.1608  3.1422
  261MOL0     H34427   9.897   9.805  -1.406  0.9624  1.3925 -0.9287
  261MOL0     H34428   9.785   9.868  -1.191  0.7875  0.0680  0.6765
  261MOL0     H34429   9.865   9.741  -1.110  0.7785  0.9636 -0.2660
  261MOL0     H34430   9.735   9.561  -1.247 -2.4727  0.0179 -0.0604
  261MOL0     H34431   9.638   9.688  -1.160 -0.7926 -0.0731 -0.7944
  261MOL0     H34432   9.708   9.693  -1.461  1.5714  0.1917  1.5220
  261MOL0     H34433   9.614   9.812  -1.379 -1.8995 -0.1415 -1.3302
  261MOL0     H34434  10.601   9.648  -1.034 -0.1612  1.8274 -0.7496
  261MOL0     H34435  10.771   9.557  -0.902  4.4499  2.7353  0.9213
  261MOL0     H34436  10.850   9.436  -0.542  1.3333  0.7730 -1.4226
  261MOL0     H34437  10.899   9.279  -0.381 -3.2965  1.4008  1.7010
  261MOL0     H34438   9.630   9.849   0.613  1.4151 -1.2626  0.2675
  261MOL0     H34439   9.393   9.842   0.527  1.9002  0.9186  2.2701
  261MOL0     H34440   9.142   9.945  -0.055  0.1120  0.0570 -0.1951
  261MOL0     H34441   8.909   9.982  -0.087 -1.2766  1.9085  0.4329
  261MOL0     H34442   8.624   9.999   0.274 -1.8989  0.3438  0.2919
  261MOL0     H34443   8.655   9.839   0.240  0.9221  0.8871  0.6644
  261MOL0     H34444   8.459  10.029   0.112  1.1539  0.8608  0.2407
  261MOL0     H34445   8.479   9.858   0.057 -1.7153 -0.5774  1.2811
  261MOL0     H34446   8.402   9.938   0.341 -2.3037  2.2964 -1.6575
  261MOL0     H34447   8.414   9.771   0.266  0.6673  0.3035  0.7335
  261MOL0     H34448   8.220   9.959   0.162 -3.1255 -1.7906 -1.3043
  261MOL0     H34449   8.240   9.794   0.119  2.0958  2.0486 -2.7431
  261MOL0     H34450   8.000   9.735   0.460  0.9596  1.1722  0.4913
  261MOL0     H34451   8.835   9.890   0.323  0.7823 -0.2743  0.9207
  261MOL0     H34452   9.056   9.868   0.362 -0.4781  1.5370  0.0164
  262MOL0     O34453   8.397   1.583   8.745  0.9351 -0.0303 -0.2005
  262MOL0     C34454   8.463   1.489   8.796  1.0267  0.7511 -0.8210
  262MOL0     O34455   8.425   1.358   8.793  0.0536 -0.0304  0.1779
  262MOL0     C34456   8.323   1.331   8.709 -0.5143 -0.7661  0.2709
  262MOL0     C34457   8.198   1.294   8.770 -0.1092  0.3366 -0.3435
  262MOL0     C34458   8.092   1.263   8.684 -0.3168  0.1624 -0.3681
  262MOL0     C34459   8.103   1.258   8.542 -0.1431 -0.7960  1.0226
  262MOL0     O34460   8.013   1.197   8.460  0.5568  0.7472  0.3797
  262MOL0     C34461   7.866   1.206   8.484 -0.2464 -0.6251  0.7786
  262MOL0     C34462   7.818   1.354   8.456  0.0590  0.5923 -0.5726
  262MOL0     C34463   7.672   1.370   8.483 -0.0304 -0.1829  0.5113
  262MOL0     C34464   7.633   1.333   8.629 -0.9119 -0.0924 -0.3686
  262MOL0     C34465   7.489   1.371   8.652  0.2452 -0.5510  0.0102
  262MOL0     C34466   7.387   1.277   8.595 -0.3147  0.6351 -0.8187
  262MOL0     C34467   7.248   1.322   8.639  0.4291  0.1354 -0.4614
  262MOL0     C34468   7.190   1.431   8.553  0.2020  0.2923 -0.2122
  262MOL0     N34469   7.045   1.428   8.575 -0.1714  0.2930  0.4782
  262MOL0     C34470   6.982   1.453   8.696  1.0276  0.1691 -0.1477
  262MOL0     C34471   6.854   1.471   8.662  0.2009  0.0084  0.9035
  262MOL0     C34472   6.736   1.515   8.746 -0.2892 -0.2760 -0.7714
  262MOL0     C34473   6.626   1.399   8.749 -0.7590 -0.3959  0.4236
  262MOL0     C34474   6.510   1.438   8.842 -0.2680  1.1462  0.0654
  262MOL0     C34475   6.407   1.323   8.851 -0.2131 -0.3519  0.4277
  262MOL0     O34476   6.352   1.290   8.724  1.0047  0.0131 -0.0357
  262MOL0     C34477   6.266   1.187   8.708 -0.4162 -0.2352  0.3850
  262MOL0     C34478   6.193   1.127   8.812 -0.4300 -0.3019 -0.6363
  262MOL0     C34479   6.089   1.037   8.788  0.5955  0.2778  0.0870
  262MOL0     C34480   6.052   1.005   8.659  0.2253 -0.1520 -0.0003
  262MOL0     C34481   5.934   0.924   8.631 -0.2239  0.1035 -0.0655
  262MOL0     O34482   5.851   0.875   8.728  0.7839  0.0469 -0.6517
  262MOL0     C34483   5.728   0.826   8.689  0.4850  0.0713  0.3152
  262MOL0     C34484   5.716   0.715   8.606  0.3631  0.4345 -0.2842
  262MOL0     C34485   5.593   0.658   8.569  0.1049  0.0911 -0.0625
  262MOL0     C34486   5.475   0.720   8.614  0.0819 -0.6980 -0.1110
  262MOL0     O34487   5.361   0.659   8.574 -0.0552 -0.3436 -0.2401
  262MOL0     C34488   5.244   0.672   8.650  0.5531  0.2540  0.1431
  262MOL0     C34489   5.133   0.582   8.599 -0.2475 -0.5745  0.4528
  262MOL0     C34490   5.029   0.544   8.712  0.2771 -0.1298  0.2125
  262MOL0     C34491   4.952   0.664   8.773  0.9906  0.2525 -0.7051
  262MOL0     C34492   4.824   0.620   8.842  0.2584  0.3723 -0.2323
  262MOL0     C34493   4.772   0.730   8.927  0.1856 -0.4789  0.4928
  262MOL0     C34494   4.641   0.682   8.999 -0.2378  0.0110  0.0031
  262MOL0     C34495   4.571   0.788   9.081  0.0530  0.5562 -0.4079
  262MOL0    Cl34496   4.459   0.718   9.181  0.2986 -0.1245  0.4112
  262MOL0     C34497   5.489   0.840   8.691 -0.1439  0.1615  1.0342
  262MOL0     C34498   5.611   0.893   8.726 -0.0382 -0.4301  0.2325
  262MOL0     O34499   5.920   0.919   8.511 -0.3412  0.7985  0.0008
  262MOL0     C34500   6.128   1.067   8.561  0.2496  0.1635 -0.5310
  262MOL0     C34501   6.222   1.168   8.577  0.5242  0.0873  0.2952
  262MOL0     N34502   6.839   1.472   8.521 -0.1231  0.0610 -0.1600
  262MOL0     N34503   6.953   1.453   8.470  0.0619 -0.5683  0.5986
  262MOL0     C34504   8.234   1.294   8.485  0.0976  0.8508  0.4738
  262MOL0     C34505   8.343   1.328   8.566  0.3440 -0.5296 -0.1104
  262MOL0     C34506   8.554   1.526   8.903 -0.2507  0.2017 -0.5014
  262MOL0     C34507   8.606   1.665   8.915 -0.3937  0.1252 -0.5852
  262MOL0     C34508   8.679   1.698   9.029 -0.1077 -0.9002  1.1213
  262MOL0     C34509   8.709   1.608   9.126  0.1159 -0.1490 -0.3191
  262MOL0     O34510   8.810   1.632   9.229  0.5573  0.3613  0.4557
  262MOL0     C34511   8.796   1.754   9.312 -0.1437  0.5150 -0.3293
  262MOL0     C34512   8.652   1.769   9.376  1.0437 -0.2836  0.5719
  262MOL0     C34513   8.631   1.900   9.454  0.3987 -0.9121 -0.0317
  262MOL0     C34514   8.475   1.949   9.446  0.1025 -0.1606 -0.3613
  262MOL0     C34515   8.402   1.871   9.546  1.3039  0.0411  0.0945
  262MOL0     C34516   8.348   1.820   9.640 -0.0828  0.3136  0.1566
  262MOL0     C34517   8.669   1.476   9.113  0.1734 -0.4090  1.0688
  262MOL0     C34518   8.592   1.437   9.011  1.0799  0.5082 -0.0519
  262MOL0     H34519   8.192   1.287   8.878 -0.0636  2.1713 -0.1869
  262MOL0     H34520   8.000   1.236   8.734  0.3431 -1.2880  0.1187
  262MOL0     H34521   7.835   1.176   8.585  0.1224 -1.2360  0.7157
  262MOL0     H34522   7.818   1.135   8.416  0.9551 -0.7525  0.0445
  262MOL0     H34523   7.824   1.381   8.350 -2.6875  1.2138 -0.6460
  262MOL0     H34524   7.870   1.415   8.531 -1.8177 -0.4234  1.6882
  262MOL0     H34525   7.616   1.312   8.409  0.2132 -1.8931  1.6157
  262MOL0     H34526   7.639   1.473   8.465 -3.9894 -1.0977  1.5648
  262MOL0     H34527   7.640   1.227   8.656 -2.4165  0.3529  2.0396
  262MOL0     H34528   7.695   1.394   8.695 -0.9464 -0.6740  0.2143
  262MOL0     H34529   7.469   1.470   8.611 -0.3194 -1.1868 -1.2939
  262MOL0     H34530   7.483   1.374   8.761 -1.6454 -0.8969 -0.0444
  262MOL0     H34531   7.399   1.173   8.628 -2.3416 -0.3029 -2.7934
  262MOL0     H34532   7.381   1.282   8.486  2.0989  1.4466 -0.9631
  262MOL0     H34533   7.179   1.237   8.638  0.6058 -0.0099 -0.6231
  262MOL0     H34534   7.241   1.335   8.748 -0.4071 -1.3999 -0.3060
  262MOL0     H34535   7.204   1.420   8.445 -0.7186  0.4404 -0.3502
  262MOL0     H34536   7.233   1.525   8.588 -2.2332  1.6159 -0.5698
  262MOL0     H34537   7.026   1.475   8.793  2.6719  2.7961 -1.4013
  262MOL0     H34538   6.695   1.611   8.714 -1.0374  0.7065  2.7622
  262MOL0     H34539   6.768   1.528   8.849  1.6700 -2.6254 -0.9708
  262MOL0     H34540   6.674   1.307   8.784 -0.8325 -1.7369 -2.6233
  262MOL0     H34541   6.587   1.398   8.646  2.0802  0.6216 -0.7629
  262MOL0     H34542   6.548   1.464   8.941  1.6740 -4.1235  1.0305
  262MOL0     H34543   6.458   1.524   8.798  2.4725  3.7645  1.5426
  262MOL0     H34544   6.330   1.353   8.923 -0.0506  0.0810  0.4271
  262MOL0     H34545   6.450   1.232   8.892  1.5532  0.7079  1.0622
  262MOL0     H34546   6.225   1.142   8.915 -1.4840 -0.8167 -0.2240
  262MOL0     H34547   6.032   1.003   8.874  0.3842 -1.7782 -0.8122
  262MOL0     H34548   5.812   0.670   8.582  1.0079  1.2460  0.6646
  262MOL0     H34549   5.595   0.568   8.509  0.8752 -0.9830  1.5182
  262MOL0     H34550   5.203   0.773   8.658 -1.1700 -0.0839 -2.8126
  262MOL0     H34551   5.267   0.644   8.753 -0.7532 -2.9518 -0.3363
  262MOL0     H34552   5.177   0.486   8.571 -0.1283  0.0530 -1.6293
  262MOL0     H34553   5.084   0.637   8.518  0.7106  1.0559  0.9188
  262MOL0     H34554   5.073   0.486   8.793  1.8970 -0.4554 -0.8435
  262MOL0     H34555   4.954   0.474   8.673 -0.0894 -0.6000  1.7109
  262MOL0     H34556   5.007   0.724   8.846 -1.8730 -0.0901  1.9611
  262MOL0     H34557   4.920   0.731   8.693 -0.1069  0.5151 -0.0708
  262MOL0     H34558   4.843   0.531   8.902 -2.0775 -2.7221 -3.6823
  262MOL0     H34559   4.749   0.579   8.774 -0.2792 -0.7593  0.9836
  262MOL0     H34560   4.741   0.814   8.864 -1.8700 -1.5701 -0.0716
  262MOL0     H34561   4.845   0.768   8.998 -0.1518 -0.1058  0.6468
  262MOL0     H34562   4.573   0.663   8.916  1.8255  0.8615 -2.0061
  262MOL0     H34563   4.663   0.590   9.052  1.4956 -1.2574 -2.7024
  262MOL0     H34564   4.521   0.867   9.024  1.7628  1.2397 -1.0417
  262MOL0     H34565   4.644   0.839   9.145 -0.7319 -0.4431  1.3365
  262MOL0     H34566   5.397   0.883   8.730 -0.0605 -1.3008  2.9654
  262MOL0     H34567   5.610   0.977   8.795  0.5416  1.5481 -2.0237
  262MOL0     H34568   6.090   1.058   8.460 -1.2054  1.6601 -0.1659
  262MOL0     H34569   6.263   1.199   8.481 -1.9033 -2.1396 -1.6123
  262MOL0     H34570   8.254   1.292   8.379 -1.9716  1.3078  0.0126
  262MOL0     H34571   8.436   1.369   8.529 -0.7017  4.3619  1.9283
  262MOL0     H34572   8.592   1.731   8.830 -1.3507  0.0123 -0.5237
  262MOL0     H34573   8.728   1.795   9.025  3.6284 -2.6472 -0.5011
  262MOL0     H34574   8.825   1.832   9.241  0.9967 -1.5569 -2.2759
  262MOL0     H34575   8.867   1.756   9.395 -1.9561  0.5362  1.3037
  262MOL0     H34576   8.579   1.761   9.295  1.3354 -0.3591  0.3122
  262MOL0     H34577   8.638   1.694   9.454  1.8433  1.4949  2.5181
  262MOL0     H34578   8.694   1.976   9.407  0.3101 -2.2827 -2.5374
  262MOL0     H34579   8.654   1.888   9.560  4.0262  1.3187 -0.3851
  262MOL0     H34580   8.467   2.057   9.460 -4.0908 -0.5060  1.4028
  262MOL0     H34581   8.430   1.931   9.348 -2.0416 -0.8300  0.6984
  262MOL0     H34582   8.311   1.786   9.734 -1.4667  0.3496 -0.3490
  262MOL0     H34583   8.696   1.410   9.194  0.7374 -1.1232  0.3229
  262MOL0     H34584   8.552   1.336   9.008  0.7675  0.6524 -1.0176
  263MOL0     O34585   0.887   6.332   2.665  0.1725 -0.1908 -0.0820
  263MOL0     C34586   0.922   6.452   2.645  0.5733  0.2428 -0.6097
  263MOL0     O34587   0.844   6.549   2.608 -0.1716  0.2980  0.4675
  263MOL0     C34588   0.710   6.530   2.615  0.6780  0.1892 -0.3210
  263MOL0     C34589   0.626   6.501   2.725  0.0530  0.1429  0.1649
  263MOL0     C34590   0.487   6.469   2.707 -0.2762  0.2416 -0.8625
  263MOL0     C34591   0.430   6.467   2.581  0.2115 -0.0501  0.0765
  263MOL0     O34592   0.292   6.455   2.576  0.0008  0.1841 -0.6527
  263MOL0     C34593   0.227   6.472   2.449  0.0268 -0.0094  0.6920
  263MOL0     C34594   0.082   6.444   2.453 -0.0302 -0.8369 -0.1278
  263MOL0     C34595   0.006   6.564   2.514  0.6706 -0.1222  0.1410
  263MOL0     C34596  -0.137   6.526   2.516  0.6027 -0.6650  0.0075
  263MOL0     C34597  -0.228   6.643   2.576 -0.5804 -1.7733  0.3714
  263MOL0     C34598  -0.372   6.591   2.586 -0.1527 -1.4163 -0.0412
  263MOL0     C34599  -0.470   6.706   2.558  0.1867  0.1442  0.0036
  263MOL0     C34600  -0.623   6.669   2.563 -0.8511  0.1939 -0.4828
  263MOL0     N34601  -0.662   6.572   2.458 -0.4569 -0.0845  0.4700
  263MOL0     C34602  -0.693   6.589   2.323  0.6998 -0.1096  0.0174
  263MOL0     C34603  -0.756   6.475   2.281 -0.3687  0.2181 -0.3767
  263MOL0     C34604  -0.836   6.471   2.146 -0.6985  0.5844  0.1925
  263MOL0     C34605  -0.987   6.500   2.176  0.7556 -0.0846 -0.1066
  263MOL0     C34606  -1.070   6.488   2.049 -0.3044 -0.8907  0.8890
  263MOL0     C34607  -1.221   6.506   2.049  0.3467 -0.9729 -0.1861
  263MOL0     O34608  -1.271   6.618   2.120  0.5370  0.1907 -0.8606
  263MOL0     C34609  -1.404   6.613   2.157  0.0620 -0.0481  0.7588
  263MOL0     C34610  -1.500   6.543   2.092  0.3337  0.9380  0.1631
  263MOL0     C34611  -1.630   6.537   2.139  1.1524  0.4428  0.0291
  263MOL0     C34612  -1.671   6.614   2.251  0.3157  0.5859 -0.0229
  263MOL0     C34613  -1.816   6.626   2.289  0.1031  0.0463 -0.4283
  263MOL0     O34614  -1.840   6.705   2.401 -0.3323 -0.0316  0.8777
  263MOL0     C34615  -1.978   6.725   2.403  0.4883  0.9069 -0.5530
  263MOL0     C34616  -2.048   6.822   2.330 -0.4374 -0.1301  0.1254
  263MOL0     C34617  -2.186   6.836   2.329  1.0987 -0.0058 -0.5740
  263MOL0     C34618  -2.267   6.747   2.404  0.1820 -0.3727  0.4740
  263MOL0     O34619  -2.402   6.746   2.407 -0.4950 -0.2490  0.0657
  263MOL0     C34620  -2.467   6.869   2.412  0.2441 -0.5988 -0.5605
  263MOL0     C34621  -2.621   6.843   2.394 -0.0850 -0.4979 -0.5088
  263MOL0     C34622  -2.651   6.780   2.528  0.0099  0.2152  0.8549
  263MOL0     C34623  -2.786   6.719   2.526  0.2693  0.7490 -0.0855
  263MOL0     C34624  -2.834   6.677   2.672 -1.3512  0.0829  0.3236
  263MOL0     C34625  -2.974   6.605   2.676  0.0055  0.1191  0.6381
  263MOL0     C34626  -3.005   6.577   2.822  0.4941 -0.3648 -0.0194
  263MOL0     C34627  -3.157   6.536   2.820 -0.7208 -0.3695  0.3298
  263MOL0    Cl34628  -3.228   6.546   2.984  0.0487 -0.3715 -0.3668
  263MOL0     C34629  -2.200   6.660   2.488 -0.3781 -0.3735 -0.0734
  263MOL0     C34630  -2.059   6.648   2.486 -0.0186 -0.0512  0.5543
  263MOL0     O34631  -1.895   6.560   2.216 -0.8209 -0.5868  0.3775
  263MOL0     C34632  -1.577   6.682   2.323 -0.2274 -0.1646 -0.5887
  263MOL0     C34633  -1.439   6.683   2.276  0.4287  0.0360 -0.3634
  263MOL0     N34634  -0.745   6.382   2.385  0.9753 -0.8223 -0.0823
  263MOL0     N34635  -0.699   6.446   2.490  0.1084  0.3928 -0.8158
  263MOL0     C34636   0.519   6.488   2.470 -0.5665 -0.3011  0.5776
  263MOL0     C34637   0.657   6.509   2.490  0.4092 -0.9556 -0.0862
  263MOL0     C34638   1.066   6.487   2.648  0.0224 -0.2865  0.1903
  263MOL0     C34639   1.173   6.386   2.641  0.3390 -0.2563  0.0241
  263MOL0     C34640   1.311   6.439   2.650 -0.8285  0.2150  0.0452
  263MOL0     C34641   1.340   6.572   2.669 -0.9370  0.3907  0.5824
  263MOL0     O34642   1.471   6.615   2.668  0.5310  0.2711 -0.0576
  263MOL0     C34643   1.504   6.646   2.533  0.0656 -0.3061  0.2591
  263MOL0     C34644   1.646   6.705   2.529 -1.2697  0.4282 -0.8009
  263MOL0     C34645   1.745   6.622   2.604  0.0051  0.6078  0.3381
  263MOL0     C34646   1.770   6.491   2.520  0.0621  0.3930  0.0712
  263MOL0     C34647   1.859   6.395   2.578 -0.6968  0.7208 -0.1221
  263MOL0     C34648   1.931   6.306   2.608  0.5586 -0.1447  0.1754
  263MOL0     C34649   1.235   6.667   2.669 -0.1377  0.6228 -0.8870
  263MOL0     C34650   1.106   6.622   2.662  0.5400  0.6194  0.6058
  263MOL0     H34651   0.669   6.503   2.825 -0.9618 -1.1965  0.6473
  263MOL0     H34652   0.420   6.460   2.793 -0.7694 -4.2401 -1.4537
  263MOL0     H34653   0.277   6.402   2.381 -1.0678 -1.2142  1.0920
  263MOL0     H34654   0.254   6.572   2.415 -0.1232  0.2416  1.2942
  263MOL0     H34655   0.057   6.350   2.503 -0.4131 -1.6480 -1.7586
  263MOL0     H34656   0.039   6.431   2.353  0.6469 -0.7314 -0.4398
  263MOL0     H34657   0.023   6.647   2.444 -1.8779  0.5245  0.1907
  263MOL0     H34658   0.045   6.585   2.614  4.8373 -1.7487 -0.9220
  263MOL0     H34659  -0.171   6.490   2.418 -1.2207 -0.2493  0.4476
  263MOL0     H34660  -0.158   6.445   2.587 -0.1355 -0.2810  0.2342
  263MOL0     H34661  -0.218   6.722   2.501 -0.6630  0.3339  2.4877
  263MOL0     H34662  -0.198   6.687   2.671  0.2341  2.6924 -1.6997
  263MOL0     H34663  -0.380   6.554   2.689  1.3233  2.3990  1.6179
  263MOL0     H34664  -0.394   6.510   2.515 -0.7486  2.3335 -4.5854
  263MOL0     H34665  -0.457   6.794   2.622  3.6402 -0.3791  0.2040
  263MOL0     H34666  -0.460   6.733   2.452  0.5570 -1.0720 -0.2885
  263MOL0     H34667  -0.683   6.761   2.556 -1.5261 -0.0418  1.6781
  263MOL0     H34668  -0.627   6.624   2.662 -0.5508  0.1398 -0.4929
  263MOL0     H34669  -0.684   6.684   2.270 -1.1086  1.4350  2.2784
  263MOL0     H34670  -0.829   6.377   2.090  1.6081  0.8610 -0.0580
  263MOL0     H34671  -0.800   6.550   2.079  0.0121  1.2863  1.3653
  263MOL0     H34672  -1.001   6.600   2.217 -2.4600 -0.4633 -0.0193
  263MOL0     H34673  -1.022   6.428   2.251  3.5022  1.4030  2.8282
  263MOL0     H34674  -1.030   6.564   1.982  1.1915 -1.3368  1.2401
  263MOL0     H34675  -1.051   6.388   2.010 -2.1528 -0.7455 -0.5139
  263MOL0     H34676  -1.256   6.410   2.088  2.7139 -0.4585  3.7033
  263MOL0     H34677  -1.245   6.513   1.942  0.6455 -1.1087 -0.2625
  263MOL0     H34678  -1.487   6.493   1.996 -2.2248 -1.9917  1.1889
  263MOL0     H34679  -1.705   6.495   2.072 -1.1854  2.0224  1.4962
  263MOL0     H34680  -1.985   6.889   2.272 -0.8952 -0.1113 -0.3568
  263MOL0     H34681  -2.227   6.912   2.264  1.4049  0.0046 -0.7556
  263MOL0     H34682  -2.439   6.938   2.332  1.2981  0.2473  0.5044
  263MOL0     H34683  -2.442   6.916   2.507 -1.9351 -0.0518 -0.2217
  263MOL0     H34684  -2.655   6.786   2.307 -1.6338  1.7697 -1.4969
  263MOL0     H34685  -2.677   6.937   2.387  0.8027 -0.0286 -1.7535
  263MOL0     H34686  -2.638   6.853   2.609  1.3329  0.2847  0.5993
  263MOL0     H34687  -2.584   6.696   2.547  0.5084  0.5597  0.6476
  263MOL0     H34688  -2.864   6.787   2.489  0.3413 -1.1226 -4.2239
  263MOL0     H34689  -2.792   6.633   2.459  0.2307  0.4741  0.2650
  263MOL0     H34690  -2.833   6.768   2.733  2.4976  0.9278 -0.7654
  263MOL0     H34691  -2.759   6.611   2.717 -0.1551  1.9727  1.2078
  263MOL0     H34692  -2.980   6.512   2.618 -0.7670  1.1715 -1.0264
  263MOL0     H34693  -3.051   6.669   2.633 -2.1590 -3.9340 -2.2580
  263MOL0     H34694  -2.952   6.492   2.866  3.3925  0.7517 -1.1154
  263MOL0     H34695  -2.985   6.663   2.885 -1.9056 -0.1097  0.5032
  263MOL0     H34696  -3.160   6.433   2.782  1.9754 -1.1629  1.9666
  263MOL0     H34697  -3.214   6.601   2.753 -0.1292 -0.9488 -0.7693
  263MOL0     H34698  -2.248   6.591   2.555  0.2508  1.3695  2.3033
  263MOL0     H34699  -2.020   6.573   2.554 -3.5944 -2.3446  0.3077
  263MOL0     H34700  -1.607   6.742   2.408 -0.6669 -2.3608  0.9176
  263MOL0     H34701  -1.363   6.726   2.341  0.4850 -1.3400  0.5373
  263MOL0     H34702   0.483   6.480   2.368 -0.0103 -0.9729  0.4238
  263MOL0     H34703   0.724   6.515   2.404  1.4534  0.0759  0.7567
  263MOL0     H34704   1.151   6.282   2.617  2.0860  0.0882 -3.7635
  263MOL0     H34705   1.389   6.370   2.620 -0.6861  0.9464 -1.3561
  263MOL0     H34706   1.434   6.705   2.474  0.8057 -1.5380 -1.9601
  263MOL0     H34707   1.495   6.548   2.485  0.3024 -1.3522  2.2409
  263MOL0     H34708   1.687   6.715   2.428 -0.8667  1.8812 -0.5018
  263MOL0     H34709   1.651   6.804   2.574 -1.4525  1.4829 -2.9697
  263MOL0     H34710   1.711   6.603   2.706 -1.2465 -1.2273 -0.3593
  263MOL0     H34711   1.845   6.666   2.599  0.4943 -0.4430 -4.6838
  263MOL0     H34712   1.673   6.444   2.504  2.0248 -3.8101 -0.7624
  263MOL0     H34713   1.821   6.518   2.427  0.2409  0.0983  0.0821
  263MOL0     H34714   1.984   6.215   2.630  1.3305  0.9294  3.2091
  263MOL0     H34715   1.242   6.775   2.675 -0.5272  0.5685  1.7879
  263MOL0     H34716   1.019   6.685   2.678  1.2033  1.2159  2.0482
  264MOL0     O34717  10.561   2.824   8.306  0.2866 -0.1244 -0.1004
  264MOL0     C34718  10.497   2.764   8.219 -0.1868 -0.8598 -0.8125
  264MOL0     O34719  10.549   2.705   8.112  0.2416  0.1076 -0.2114
  264MOL0     C34720  10.687   2.713   8.095 -0.0232 -0.6225  1.1141
  264MOL0     C34721  10.770   2.626   8.156 -0.2847  0.8157  0.1805
  264MOL0     C34722  10.910   2.626   8.135 -0.3258 -0.3929  0.9575
  264MOL0     C34723  10.965   2.729   8.052  0.3521 -0.1877 -0.8716
  264MOL0     O34724  11.097   2.736   8.006  0.6043  0.1865  0.2715
  264MOL0     C34725  11.194   2.649   8.066 -0.1573  0.2255  0.4459
  264MOL0     C34726  11.251   2.708   8.194 -0.4924  0.9383  0.2740
  264MOL0     C34727  11.361   2.815   8.154  0.6147  0.4422 -0.0972
  264MOL0     C34728  11.449   2.842   8.270 -0.3115  0.2697 -0.1503
  264MOL0     C34729  11.589   2.881   8.212 -0.0910  0.4194  0.6635
  264MOL0     C34730  11.688   2.900   8.324  0.9213  0.2559 -0.4782
  264MOL0     C34731  11.813   2.960   8.274 -0.6369 -0.8487 -0.1104
  264MOL0     C34732  11.894   2.870   8.186 -0.0518  0.2463  0.0629
  264MOL0     N34733  12.033   2.913   8.162 -0.8483  0.4034  0.3856
  264MOL0     C34734  12.077   3.037   8.109  0.2559  0.0188  0.7626
  264MOL0     C34735  12.204   3.039   8.070 -0.0087  0.7332  0.3823
  264MOL0     C34736  12.289   3.153   8.023  0.1505 -0.5513  1.0205
  264MOL0     C34737  12.308   3.153   7.870 -0.2086 -0.6399 -0.7169
  264MOL0     C34738  12.439   3.239   7.822  0.1124 -1.0418 -0.6358
  264MOL0     C34739  12.568   3.171   7.865 -0.5354  0.1347  1.0376
  264MOL0     O34740  12.679   3.196   7.769  0.3297  0.5983  0.5468
  264MOL0     C34741  12.801   3.220   7.835 -0.1430 -0.2486 -0.2696
  264MOL0     C34742  12.856   3.134   7.933 -0.1679 -0.5245  0.9989
  264MOL0     C34743  12.972   3.172   7.998 -0.4188  0.5464 -0.9538
  264MOL0     C34744  13.033   3.297   7.973 -0.0540  1.7944  0.5688
  264MOL0     C34745  13.155   3.332   8.060 -0.4295 -1.3593 -0.1357
  264MOL0     O34746  13.234   3.425   8.001 -0.3215 -0.2467 -0.2771
  264MOL0     C34747  13.334   3.483   8.075  0.2588 -0.0741 -0.0695
  264MOL0     C34748  13.348   3.619   8.072  0.4081 -0.8764  0.6997
  264MOL0     C34749  13.453   3.679   8.136  0.7049  0.2486 -0.0460
  264MOL0     C34750  13.562   3.606   8.187  0.1000  0.0912  0.4594
  264MOL0     O34751  13.684   3.651   8.230 -0.0688 -1.2036  1.0292
  264MOL0     C34752  13.711   3.796   8.244  0.4604  0.7564 -0.1192
  264MOL0     C34753  13.657   3.855   8.374  1.4683 -0.0858  0.1135
  264MOL0     C34754  13.738   3.821   8.504 -0.2632 -0.3922  0.3236
  264MOL0     C34755  13.892   3.849   8.495  0.0417  0.7074 -0.4802
  264MOL0     C34756  13.927   3.788   8.639 -0.4161 -0.1353 -0.1371
  264MOL0     C34757  14.064   3.845   8.681 -0.4275 -0.3859  0.1104
  264MOL0     C34758  14.190   3.821   8.593  0.3574 -0.5360 -0.5237
  264MOL0     C34759  14.257   3.685   8.619 -0.2556  0.4317  0.2289
  264MOL0    Cl34760  14.407   3.672   8.519  0.2404 -0.1564  0.1659
  264MOL0     C34761  13.555   3.467   8.177  0.2134 -0.0308  0.4543
  264MOL0     C34762  13.440   3.404   8.127  0.1404 -0.2616 -0.3369
  264MOL0     O34763  13.168   3.282   8.168  0.0104 -0.6972  0.0616
  264MOL0     C34764  12.991   3.371   7.864  0.0513  0.8939  0.1266
  264MOL0     C34765  12.873   3.344   7.799 -0.3417  0.0158 -0.5669
  264MOL0     N34766  12.244   2.902   8.085 -0.3407 -1.2502  0.3223
  264MOL0     N34767  12.143   2.836   8.135  0.4547 -0.0855 -0.4011
  264MOL0     C34768  10.876   2.827   7.999 -0.2558 -0.5652  0.4855
  264MOL0     C34769  10.739   2.815   8.013 -1.1557 -0.0514 -0.1079
  264MOL0     C34770  10.344   2.758   8.228 -0.6197 -0.8819  0.0421
  264MOL0     C34771  10.269   2.669   8.151 -0.5341  0.1648 -0.3147
  264MOL0     C34772  10.131   2.660   8.161  0.3186 -0.6713  0.1265
  264MOL0     C34773  10.062   2.746   8.241 -0.3048 -0.0044 -0.0428
  264MOL0     O34774   9.929   2.734   8.238  0.3843 -0.1968  0.1395
  264MOL0     C34775   9.856   2.859   8.225 -0.0123 -0.8524  0.0411
  264MOL0     C34776   9.709   2.825   8.205 -0.3294  0.4547 -0.0436
  264MOL0     C34777   9.686   2.770   8.066 -0.8641 -0.5458  0.5364
  264MOL0     C34778   9.715   2.621   8.053 -0.0200 -0.7687  0.3416
  264MOL0     C34779   9.646   2.557   7.938 -0.5291  0.0386  0.3919
  264MOL0     C34780   9.597   2.498   7.842  0.2363 -0.3615 -0.4319
  264MOL0     C34781  10.132   2.848   8.309  0.1326  0.0178  0.0781
  264MOL0     C34782  10.271   2.851   8.307  0.5891 -0.5519  0.0189
  264MOL0     H34783  10.722   2.550   8.218 -0.0059  1.6062  1.4126
  264MOL0     H34784  10.964   2.536   8.161 -1.3465 -1.3910 -0.2138
  264MOL0     H34785  11.271   2.626   7.992  0.4754  0.4891  1.0077
  264MOL0     H34786  11.152   2.549   8.080  1.1036 -1.2345 -4.2959
  264MOL0     H34787  11.285   2.614   8.239 -1.2421  0.7972  0.5577
  264MOL0     H34788  11.168   2.750   8.252  0.6560 -1.4931  4.0694
  264MOL0     H34789  11.320   2.905   8.108 -1.4145 -1.2199 -1.7865
  264MOL0     H34790  11.417   2.767   8.073 -1.8816 -1.9445 -0.5624
  264MOL0     H34791  11.413   2.918   8.339 -0.4085 -1.1604  1.4426
  264MOL0     H34792  11.459   2.747   8.325 -1.9550 -1.7852 -3.0863
  264MOL0     H34793  11.589   2.969   8.147  2.6334 -0.6223 -0.9006
  264MOL0     H34794  11.621   2.798   8.148 -2.6668  0.7693 -1.2650
  264MOL0     H34795  11.702   2.816   8.393  0.9847  0.3325 -0.3968
  264MOL0     H34796  11.645   2.978   8.388 -1.3838 -0.6521 -0.8216
  264MOL0     H34797  11.785   3.045   8.210 -1.6542 -1.5090 -0.5822
  264MOL0     H34798  11.868   2.997   8.360 -1.7216  3.6716 -1.0816
  264MOL0     H34799  11.841   2.867   8.090 -0.8895 -1.1703  0.5358
  264MOL0     H34800  11.893   2.767   8.224  0.2037  0.6316  1.1539
  264MOL0     H34801  12.010   3.120   8.088 -0.0423 -0.8398 -2.1536
  264MOL0     H34802  12.386   3.153   8.074  0.6360 -0.4691  0.1253
  264MOL0     H34803  12.251   3.252   8.051  2.4396  0.7827 -0.2375
  264MOL0     H34804  12.223   3.204   7.825  1.1309 -0.2062 -2.8793
  264MOL0     H34805  12.323   3.048   7.845  2.3579  0.3652 -4.1336
  264MOL0     H34806  12.428   3.248   7.713  1.6961  2.4332 -0.6291
  264MOL0     H34807  12.420   3.337   7.866 -2.1732 -2.6144  2.1849
  264MOL0     H34808  12.561   3.062   7.865  3.4028 -0.3699  4.5536
  264MOL0     H34809  12.596   3.193   7.968 -3.7138 -1.8892  2.4987
  264MOL0     H34810  12.796   3.044   7.945 -2.7669  0.8886 -0.3658
  264MOL0     H34811  13.015   3.111   8.077 -0.1303  0.4956 -1.1483
  264MOL0     H34812  13.269   3.681   8.031  2.0130  1.5126  0.9765
  264MOL0     H34813  13.438   3.786   8.145  0.9726  0.4033 -1.3568
  264MOL0     H34814  13.668   3.856   8.163 -2.2307 -1.0006 -0.1364
  264MOL0     H34815  13.818   3.811   8.233  0.4829 -0.0431 -1.2397
  264MOL0     H34816  13.551   3.830   8.382  1.6629 -0.5547  1.4933
  264MOL0     H34817  13.666   3.962   8.352  0.7743  0.0598  0.5195
  264MOL0     H34818  13.718   3.715   8.523 -0.9593 -0.4368 -0.5905
  264MOL0     H34819  13.703   3.873   8.594 -2.7435 -1.6930  0.1665
  264MOL0     H34820  13.947   3.795   8.417  0.0224 -0.6288  0.3956
  264MOL0     H34821  13.930   3.951   8.485  2.4709 -0.0822  0.1118
  264MOL0     H34822  13.931   3.679   8.635 -2.0945 -0.4383  3.2840
  264MOL0     H34823  13.866   3.827   8.721 -0.1996 -1.2989  0.5939
  264MOL0     H34824  14.086   3.817   8.784 -0.3495 -0.1933  0.1471
  264MOL0     H34825  14.047   3.953   8.686  1.2719 -0.0930  0.2865
  264MOL0     H34826  14.164   3.826   8.486  0.2043 -1.7144 -0.5526
  264MOL0     H34827  14.266   3.898   8.607 -2.9691  2.4957  3.3508
  264MOL0     H34828  14.183   3.606   8.605  1.8638 -1.4357 -1.0159
  264MOL0     H34829  14.290   3.672   8.722  0.2128 -3.0358 -0.2611
  264MOL0     H34830  13.640   3.400   8.186  0.9944  0.8158 -0.3831
  264MOL0     H34831  13.433   3.296   8.138 -1.9711 -0.3232 -1.7743
  264MOL0     H34832  13.043   3.459   7.830 -0.6881  1.5868  0.7407
  264MOL0     H34833  12.842   3.413   7.721  1.6016  1.0388 -0.4973
  264MOL0     H34834  10.924   2.887   7.922 -1.7553 -1.6612 -1.3631
  264MOL0     H34835  10.671   2.885   7.967 -2.0593 -1.9492 -1.8411
  264MOL0     H34836  10.305   2.598   8.077 -0.8858 -2.7837  2.1297
  264MOL0     H34837  10.076   2.607   8.084 -2.0413  0.0988  1.2206
  264MOL0     H34838   9.902   2.913   8.142  0.7016  0.4379  1.2294
  264MOL0     H34839   9.867   2.923   8.314  1.5233  3.8847 -3.1826
  264MOL0     H34840   9.686   2.753   8.285  0.2340  1.9025  1.4837
  264MOL0     H34841   9.644   2.913   8.206  0.5676  1.1259  0.0008
  264MOL0     H34842   9.761   2.824   8.008 -1.8821 -0.4376 -0.7385
  264MOL0     H34843   9.593   2.800   8.016 -0.2446  2.6601  1.0948
  264MOL0     H34844   9.820   2.591   8.052 -0.5695 -3.2657  3.1004
  264MOL0     H34845   9.673   2.577   8.144 -1.8894  0.3174  0.0631
  264MOL0     H34846   9.543   2.454   7.760 -0.9024 -0.5187  0.3742
  264MOL0     H34847  10.086   2.923   8.372  0.0592  3.7017 -3.9017
  264MOL0     H34848  10.322   2.921   8.372 -0.5881 -0.7792  1.2225
  265MOL0     O34849   8.920   2.929   1.992 -0.1066 -0.5585  1.1212
  265MOL0     C34850   8.993   3.022   1.952 -0.4630 -0.5734  0.5675
  265MOL0     O34851   8.961   3.134   1.880  0.4316 -0.6526  1.6301
  265MOL0     C34852   8.834   3.153   1.830  0.2337 -1.0530 -0.6528
  265MOL0     C34853   8.810   3.277   1.784  0.6953 -0.8956 -0.0992
  265MOL0     C34854   8.697   3.321   1.720  0.2457 -0.5765  0.2007
  265MOL0     C34855   8.597   3.228   1.701 -0.0863 -0.0626  0.1726
  265MOL0     O34856   8.500   3.268   1.619 -0.1501 -0.2627 -0.1535
  265MOL0     C34857   8.362   3.257   1.667 -0.0913  0.0202 -1.0382
  265MOL0     C34858   8.280   3.321   1.559  0.4448  0.2216 -0.9532
  265MOL0     C34859   8.124   3.318   1.578  0.2570 -0.0257 -0.2115
  265MOL0     C34860   8.071   3.378   1.719  0.0858 -0.3536  0.3899
  265MOL0     C34861   7.925   3.356   1.733 -0.4498 -0.3170 -0.4429
  265MOL0     C34862   7.867   3.424   1.871  0.2527  0.0266  0.1779
  265MOL0     C34863   7.733   3.371   1.899  0.9160  0.2453  0.6378
  265MOL0     C34864   7.636   3.420   1.786  0.1094 -0.3037  0.4044
  265MOL0     N34865   7.621   3.564   1.792  0.2916 -0.5777 -0.3521
  265MOL0     C34866   7.555   3.634   1.891  0.3230  1.0896 -0.8136
  265MOL0     C34867   7.560   3.762   1.869 -0.8200  0.2886  0.6386
  265MOL0     C34868   7.502   3.877   1.950  0.4080  0.1702  0.0206
  265MOL0     C34869   7.355   3.882   1.919 -0.3188 -0.4089  0.3514
  265MOL0     C34870   7.279   3.858   2.057 -0.8412  0.5187 -0.0587
  265MOL0     C34871   7.122   3.877   2.047  0.6816  0.2219  0.2801
  265MOL0     O34872   7.060   3.812   1.936  0.2301 -0.2612  0.8054
  265MOL0     C34873   6.931   3.860   1.909  0.1874 -0.3785 -0.3148
  265MOL0     C34874   6.894   3.901   1.783 -0.1238 -0.8165 -0.0471
  265MOL0     C34875   6.762   3.943   1.763 -0.4193 -0.3578 -0.5078
  265MOL0     C34876   6.672   3.952   1.873  0.1214  0.1723 -0.6160
  265MOL0     C34877   6.537   4.008   1.853  0.9531 -0.9135 -0.7458
  265MOL0     O34878   6.452   4.022   1.961  0.6714  0.9542  0.6227
  265MOL0     C34879   6.334   4.087   1.962 -0.1568  0.1435 -0.0387
  265MOL0     C34880   6.299   4.198   1.886 -0.6436 -0.5920 -0.4092
  265MOL0     C34881   6.170   4.258   1.892 -0.0660 -0.0102 -0.8457
  265MOL0     C34882   6.070   4.197   1.976  0.0493 -0.2915 -0.6195
  265MOL0     O34883   5.940   4.240   1.979 -0.3813  0.8439  0.4337
  265MOL0     C34884   5.927   4.366   2.032 -0.3632  0.3622  0.8158
  265MOL0     C34885   5.780   4.399   2.033  0.0988 -0.5421  0.0627
  265MOL0     C34886   5.742   4.469   1.898 -0.4280 -0.3657 -0.7738
  265MOL0     C34887   5.588   4.496   1.900  0.5745  0.0805  0.1267
  265MOL0     C34888   5.550   4.601   1.801 -0.8867  0.1817 -0.5149
  265MOL0     C34889   5.403   4.640   1.804 -0.2053 -0.0230 -0.2030
  265MOL0     C34890   5.368   4.765   1.730  1.3445  0.0960 -0.0617
  265MOL0     C34891   5.212   4.764   1.712 -0.9543 -0.1297 -0.8191
  265MOL0    Cl34892   5.132   4.773   1.874  0.4788 -0.1491  0.7024
  265MOL0     C34893   6.109   4.093   2.062 -0.1645  0.2200 -0.3885
  265MOL0     C34894   6.231   4.033   2.047 -0.6389 -1.0405 -0.6787
  265MOL0     O34895   6.498   4.029   1.738  0.5745  0.3729  0.1315
  265MOL0     C34896   6.712   3.920   2.003 -0.0306 -0.0325  0.6029
  265MOL0     C34897   6.840   3.862   2.018 -0.4196  0.2126  0.0464
  265MOL0     N34898   7.636   3.774   1.756 -0.4368  0.6007  0.3064
  265MOL0     N34899   7.668   3.659   1.709 -0.3594  0.0811  0.6117
  265MOL0     C34900   8.611   3.093   1.745  0.3029  0.7897 -0.0079
  265MOL0     C34901   8.726   3.060   1.814 -0.6250 -0.1396  0.1432
  265MOL0     C34902   9.143   3.008   1.971  0.1637  0.1731 -0.3643
  265MOL0     C34903   9.198   2.880   2.014 -0.6303 -0.8668 -0.6201
  265MOL0     C34904   9.339   2.860   2.033 -0.3438 -0.8645 -0.1378
  265MOL0     C34905   9.423   2.955   1.993 -0.2374 -1.1736  0.5302
  265MOL0     O34906   9.560   2.922   2.011  0.1733  0.6566  0.3934
  265MOL0     C34907   9.655   2.973   1.917 -0.2704  0.7840 -0.2642
  265MOL0     C34908   9.791   2.990   1.994  0.3806 -0.1376 -0.5672
  265MOL0     C34909   9.842   2.851   2.033  1.2385 -0.0516  0.2918
  265MOL0     C34910   9.984   2.848   2.078  0.8045 -1.0059  0.8894
  265MOL0     C34911  10.033   2.713   2.080 -0.5317  0.0737 -0.2433
  265MOL0     C34912  10.039   2.593   2.072  0.3372  0.8025  0.2064
  265MOL0     C34913   9.375   3.081   1.948 -0.1301  0.5283 -0.1358
  265MOL0     C34914   9.234   3.110   1.934 -0.7174 -0.4760  0.2252
  265MOL0     H34915   8.892   3.347   1.798  0.4705 -0.6624  0.0471
  265MOL0     H34916   8.690   3.418   1.670 -0.9346 -1.8928 -2.4134
  265MOL0     H34917   8.358   3.327   1.751  1.7762 -0.2104 -0.7146
  265MOL0     H34918   8.333   3.154   1.688 -0.9323  0.6095  0.9381
  265MOL0     H34919   8.296   3.256   1.471  1.8318 -1.1103  0.2236
  265MOL0     H34920   8.329   3.416   1.536 -1.7863  1.6299 -0.1645
  265MOL0     H34921   8.092   3.215   1.563 -1.2717  0.7075 -2.4606
  265MOL0     H34922   8.081   3.373   1.494  0.7170 -0.4127 -0.7126
  265MOL0     H34923   8.118   3.322   1.800 -2.0281 -1.1384  1.1448
  265MOL0     H34924   8.105   3.479   1.741  2.7043 -1.5121  2.0328
  265MOL0     H34925   7.897   3.250   1.738 -1.0547 -0.1635 -0.5422
  265MOL0     H34926   7.879   3.404   1.647 -0.5653 -1.9663 -1.3345
  265MOL0     H34927   7.862   3.534   1.870 -1.5268  0.0072 -2.1518
  265MOL0     H34928   7.916   3.395   1.964  1.0893 -0.9752 -0.5403
  265MOL0     H34929   7.742   3.263   1.911 -0.8135  0.3255  3.7167
  265MOL0     H34930   7.696   3.412   1.994 -1.1243  0.0851 -0.0543
  265MOL0     H34931   7.540   3.373   1.808  0.0880  0.0054  0.9834
  265MOL0     H34932   7.675   3.401   1.685 -0.1171  1.0308  0.0447
  265MOL0     H34933   7.510   3.582   1.975  2.0525  2.7606  1.2786
  265MOL0     H34934   7.557   3.958   1.903  1.8744  0.0320  1.4354
  265MOL0     H34935   7.523   3.864   2.056  0.4471 -0.2205 -0.0310
  265MOL0     H34936   7.325   3.817   1.837 -1.5992  0.1451  0.3617
  265MOL0     H34937   7.321   3.980   1.885 -0.3114  0.0731  1.6580
  265MOL0     H34938   7.308   3.757   2.087  0.6527 -0.2100 -3.4808
  265MOL0     H34939   7.313   3.928   2.134 -1.5981  1.3399 -0.4473
  265MOL0     H34940   7.107   3.985   2.051 -2.2591 -0.0693  4.9765
  265MOL0     H34941   7.088   3.839   2.144 -0.0074  1.7309  0.6624
  265MOL0     H34942   6.976   3.893   1.711  2.7657 -1.1486  3.0093
  265MOL0     H34943   6.750   3.956   1.656  3.8985  0.1930 -1.1276
  265MOL0     H34944   6.372   4.250   1.824 -0.7188  2.3382  1.7350
  265MOL0     H34945   6.144   4.342   1.827 -0.0064  0.6052 -0.0868
  265MOL0     H34946   5.981   4.438   1.970 -2.8155  0.8666 -0.8470
  265MOL0     H34947   5.955   4.377   2.138  0.3559  0.8107  0.5889
  265MOL0     H34948   5.768   4.468   2.118  0.5737 -3.3093  2.5233
  265MOL0     H34949   5.717   4.310   2.041 -2.9434  1.4539  0.1052
  265MOL0     H34950   5.777   4.404   1.816  1.1884 -1.4788  0.7147
  265MOL0     H34951   5.781   4.568   1.875 -1.8485 -0.0325 -1.8548
  265MOL0     H34952   5.541   4.404   1.864  0.9327 -1.1625  2.6464
  265MOL0     H34953   5.546   4.524   1.998  0.1197  0.7956 -0.2570
  265MOL0     H34954   5.566   4.558   1.702  2.0927 -1.9780  0.7609
  265MOL0     H34955   5.617   4.687   1.804 -2.2066  1.2394 -0.3953
  265MOL0     H34956   5.372   4.659   1.907 -0.3880 -3.3821  0.4727
  265MOL0     H34957   5.348   4.553   1.768 -2.0442  1.4452 -1.0653
  265MOL0     H34958   5.394   4.858   1.781  0.8796  0.5783 -0.6989
  265MOL0     H34959   5.423   4.764   1.635  3.8685  4.1796  1.1016
  265MOL0     H34960   5.188   4.670   1.662 -0.4339 -0.1060 -1.1220
  265MOL0     H34961   5.179   4.844   1.645  1.8083  2.2891  0.4931
  265MOL0     H34962   6.039   4.055   2.135 -0.2846  0.4524 -0.3798
  265MOL0     H34963   6.257   3.942   2.100  0.6573 -0.3514 -0.0778
  265MOL0     H34964   6.641   3.921   2.085 -2.2131  1.4027 -1.1776
  265MOL0     H34965   6.854   3.822   2.117 -0.6067 -2.1679 -0.8392
  265MOL0     H34966   8.537   3.014   1.745  1.1524 -0.0574  1.8213
  265MOL0     H34967   8.721   2.971   1.875 -0.8421 -0.2858 -0.0914
  265MOL0     H34968   9.145   2.788   2.034 -0.3522 -0.8609  0.2171
  265MOL0     H34969   9.376   2.768   2.076 -0.8645 -0.3183  1.5239
  265MOL0     H34970   9.627   3.070   1.874 -3.9515 -0.6274 -1.4314
  265MOL0     H34971   9.660   2.904   1.833  1.3026 -1.2028  1.3577
  265MOL0     H34972   9.867   3.047   1.941 -2.0826  2.0853 -1.9690
  265MOL0     H34973   9.758   3.049   2.080 -0.3527 -2.3582  0.7763
  265MOL0     H34974   9.858   2.801   1.937  1.0554  2.1914 -0.9614
  265MOL0     H34975   9.772   2.790   2.091 -0.1562  1.9535  0.8262
  265MOL0     H34976  10.047   2.900   2.006 -2.2850  0.9429 -0.5849
  265MOL0     H34977   9.998   2.878   2.182  0.8155  0.8400  0.3792
  265MOL0     H34978  10.038   2.486   2.064 -0.1006  0.9084 -1.2738
  265MOL0     H34979   9.437   3.161   1.907  2.7993 -0.6755  1.6069
  265MOL0     H34980   9.202   3.199   1.882 -1.4427 -2.2776 -2.6275
  266MOL0     O34981   4.089   1.999   7.607  0.8140 -0.1414  0.0759
  266MOL0     C34982   4.114   1.951   7.496 -0.0108  0.1609  0.5121
  266MOL0     O34983   4.029   1.872   7.418 -0.2420 -0.3105 -0.2532
  266MOL0     C34984   3.898   1.860   7.465  0.1193  0.2896  0.0482
  266MOL0     C34985   3.848   1.732   7.473 -0.4132 -0.5903 -1.0786
  266MOL0     C34986   3.715   1.709   7.525  0.2674 -0.0724 -0.8354
  266MOL0     C34987   3.636   1.819   7.545  1.0965  0.8125 -0.8834
  266MOL0     O34988   3.505   1.821   7.595  0.7888  0.4093  0.2099
  266MOL0     C34989   3.403   1.738   7.533 -0.6484  0.3422  0.2040
  266MOL0     C34990   3.269   1.758   7.603  0.8753 -0.2259 -0.2869
  266MOL0     C34991   3.155   1.665   7.552 -0.4933  0.8105 -0.5833
  266MOL0     C34992   3.177   1.511   7.564 -0.3838  0.3722 -0.1280
  266MOL0     C34993   3.037   1.439   7.564 -0.3635 -0.4141  0.1811
  266MOL0     C34994   2.959   1.478   7.435 -0.0738  0.4667  0.4365
  266MOL0     C34995   2.869   1.353   7.409  0.4427  0.3035  0.3032
  266MOL0     C34996   2.740   1.382   7.330 -0.5383 -0.2040 -0.4693
  266MOL0     N34997   2.681   1.260   7.287  0.3414  0.1298  0.7772
  266MOL0     C34998   2.726   1.202   7.171  0.8190 -0.1140  0.5723
  266MOL0     C34999   2.641   1.100   7.152 -1.0572 -0.4285  0.1511
  266MOL0     C35000   2.644   1.013   7.030  0.9010 -0.7208  0.6403
  266MOL0     C35001   2.679   0.866   7.065  0.8261 -0.2102  0.5386
  266MOL0     C35002   2.578   0.792   7.159 -0.5357 -0.5179  0.2398
  266MOL0     C35003   2.436   0.782   7.098 -0.2965 -0.6246 -0.1312
  266MOL0     O35004   2.441   0.734   6.964  0.1847  0.3332 -0.2853
  266MOL0     C35005   2.322   0.698   6.911  0.1494  0.9822  0.1447
  266MOL0     C35006   2.197   0.722   6.964  0.1518  0.2819 -0.4093
  266MOL0     C35007   2.084   0.695   6.883  0.0291  0.3553  0.3286
  266MOL0     C35008   2.093   0.641   6.754  0.4719 -0.0710  0.0322
  266MOL0     C35009   1.963   0.609   6.683 -0.2899 -0.2957 -0.7131
  266MOL0     O35010   1.976   0.563   6.553 -0.4631  0.4256 -1.1954
  266MOL0     C35011   1.879   0.555   6.449  0.0568  0.3740 -0.2638
  266MOL0     C35012   1.913   0.486   6.340 -0.0270  0.5266  0.2309
  266MOL0     C35013   1.821   0.469   6.240 -0.4271  0.3908 -0.2248
  266MOL0     C35014   1.700   0.532   6.231 -0.6665  0.0335 -0.2257
  266MOL0     O35015   1.618   0.493   6.130 -0.1967  0.4700  0.3080
  266MOL0     C35016   1.510   0.575   6.101  0.4586  0.4395 -0.8527
  266MOL0     C35017   1.426   0.536   5.990  0.1979  0.4809 -0.1276
  266MOL0     C35018   1.337   0.407   6.011  0.8072 -1.0771 -0.2747
  266MOL0     C35019   1.395   0.294   5.933 -0.0690  1.0121 -0.1895
  266MOL0     C35020   1.353   0.156   5.996  0.0027  0.3964  0.2144
  266MOL0     C35021   1.204   0.147   5.977 -0.3165 -0.4874 -0.3624
  266MOL0     C35022   1.152   0.006   6.003  0.8511  0.9009  0.3978
  266MOL0     C35023   0.991   0.015   6.000 -1.6203 -0.0770  0.4762
  266MOL0    Cl35024   0.941   0.070   5.838  0.2897  0.0687  0.0350
  266MOL0     C35025   1.661   0.614   6.343  0.7631  0.1457 -0.3235
  266MOL0     C35026   1.751   0.626   6.456  0.4514  0.0384  0.3757
  266MOL0     O35027   1.866   0.652   6.735  0.1880  0.2230  0.3707
  266MOL0     C35028   2.221   0.619   6.706 -0.3347 -0.6874  0.1181
  266MOL0     C35029   2.331   0.645   6.780 -0.6093 -0.0232 -0.7216
  266MOL0     N35030   2.551   1.092   7.254  0.2655 -0.1825 -0.0766
  266MOL0     N35031   2.577   1.185   7.343 -0.3511  0.2607 -0.8897
  266MOL0     C35032   3.685   1.945   7.521 -0.0960 -0.6767 -0.3972
  266MOL0     C35033   3.821   1.972   7.487  0.2433  0.3988 -0.1357
  266MOL0     C35034   4.249   1.970   7.447 -1.0004  0.5726 -0.4964
  266MOL0     C35035   4.370   1.953   7.524  0.9320 -1.2613  0.0490
  266MOL0     C35036   4.489   1.971   7.462  0.1622 -0.1353  0.1374
  266MOL0     C35037   4.507   2.006   7.331 -0.6027  1.3691 -0.3704
  266MOL0     O35038   4.638   2.031   7.306 -0.7751 -0.7972  0.7607
  266MOL0     C35039   4.694   1.964   7.195  0.2961  0.6291 -0.2595
  266MOL0     C35040   4.845   1.998   7.184  0.6338  0.1718  1.3747
  266MOL0     C35041   4.932   2.006   7.313  0.3542  0.7685  0.5434
  266MOL0     C35042   5.078   2.025   7.284  0.2033  0.0748  0.8903
  266MOL0     C35043   5.162   1.897   7.262  1.0751 -0.1353 -0.3335
  266MOL0     C35044   5.235   1.799   7.241 -0.1624 -0.2880  1.4388
  266MOL0     C35045   4.398   2.022   7.247 -0.7057 -0.4210 -0.9516
  266MOL0     C35046   4.270   2.009   7.312 -0.6093 -0.3936 -0.0383
  266MOL0     H35047   3.910   1.644   7.453  0.5564 -0.4059  0.8596
  266MOL0     H35048   3.684   1.604   7.527  1.0360 -0.3319  2.3147
  266MOL0     H35049   3.424   1.632   7.551 -0.7702  0.6034  2.0654
  266MOL0     H35050   3.397   1.756   7.425 -0.4683 -0.9640 -0.0366
  266MOL0     H35051   3.239   1.861   7.583 -0.1210 -0.8437 -2.3126
  266MOL0     H35052   3.278   1.749   7.712  0.8511 -1.5242 -0.3724
  266MOL0     H35053   3.133   1.682   7.446 -3.5841  1.0286 -0.0004
  266MOL0     H35054   3.064   1.686   7.608 -0.0599  1.3398 -0.0551
  266MOL0     H35055   3.242   1.474   7.484  2.2087  3.5878  0.2609
  266MOL0     H35056   3.222   1.497   7.663 -0.9911  1.1063  0.2596
  266MOL0     H35057   2.976   1.477   7.646  0.0627  3.0514 -0.9489
  266MOL0     H35058   3.039   1.330   7.570  0.5999 -0.3895  0.4049
  266MOL0     H35059   3.024   1.496   7.348  1.7782 -0.7495  1.4872
  266MOL0     H35060   2.903   1.571   7.448  1.2890  1.3918 -0.0567
  266MOL0     H35061   2.930   1.276   7.361  2.4184  2.4168 -0.7398
  266MOL0     H35062   2.826   1.305   7.498 -0.2648 -0.1098 -0.2474
  266MOL0     H35063   2.756   1.450   7.246  0.7767 -0.2159 -0.2521
  266MOL0     H35064   2.670   1.440   7.392 -1.3867  0.4276 -1.9720
  266MOL0     H35065   2.809   1.238   7.109 -1.7021 -1.6613 -4.1657
  266MOL0     H35066   2.719   1.037   6.954  0.3931 -0.1046  0.3276
  266MOL0     H35067   2.545   1.011   6.984  1.7899  0.5936 -1.4477
  266MOL0     H35068   2.780   0.872   7.107  0.3527 -2.5427  2.2120
  266MOL0     H35069   2.695   0.809   6.972 -0.4986  2.1382 -1.2454
  266MOL0     H35070   2.611   0.689   7.172 -1.2832 -0.5044  3.0738
  266MOL0     H35071   2.577   0.836   7.260 -1.4940  0.4290 -0.1617
  266MOL0     H35072   2.392   0.882   7.098  0.4040 -0.1924 -3.3523
  266MOL0     H35073   2.376   0.715   7.160 -1.2150 -2.4269 -2.7718
  266MOL0     H35074   2.190   0.764   7.064  2.0818 -1.8197  0.7128
  266MOL0     H35075   1.987   0.726   6.921 -0.1625 -2.0120  1.9785
  266MOL0     H35076   2.007   0.436   6.320 -0.1046  0.4701 -0.0021
  266MOL0     H35077   1.856   0.413   6.153 -2.6450 -1.2271 -0.1637
  266MOL0     H35078   1.552   0.674   6.082  0.5039  0.5522 -0.2133
  266MOL0     H35079   1.449   0.580   6.192 -0.3465 -0.2380 -1.3431
  266MOL0     H35080   1.483   0.503   5.902  2.0676 -4.4642  2.5116
  266MOL0     H35081   1.351   0.614   5.977 -1.0275 -0.4801  0.9094
  266MOL0     H35082   1.235   0.420   5.974  0.1803 -1.8307  1.1498
  266MOL0     H35083   1.330   0.388   6.118  1.2735  0.3520  0.0359
  266MOL0     H35084   1.352   0.301   5.833  2.9979 -0.3231 -1.7324
  266MOL0     H35085   1.504   0.297   5.926  0.0612  0.3395  1.2309
  266MOL0     H35086   1.389   0.139   6.098 -2.9946  0.0912  1.3201
  266MOL0     H35087   1.399   0.080   5.932 -2.4275 -1.4916  0.5913
  266MOL0     H35088   1.183   0.179   5.875 -0.6916  4.2159  0.9649
  266MOL0     H35089   1.155   0.221   6.042  0.5090  0.6083 -0.9606
  266MOL0     H35090   1.190  -0.070   5.934 -1.4791  0.4825 -0.5218
  266MOL0     H35091   1.179  -0.026   6.104 -2.4116  1.9292  1.7187
  266MOL0     H35092   0.949   0.084   6.074 -1.2543  1.3759 -0.6411
  266MOL0     H35093   0.954  -0.087   6.018 -0.5529 -0.8827 -1.5918
  266MOL0     H35094   1.569   0.672   6.341 -0.4153 -1.6643 -0.2618
  266MOL0     H35095   1.728   0.699   6.533  0.9411 -0.2914  0.8445
  266MOL0     H35096   2.226   0.582   6.604  1.3475  3.1033 -1.3298
  266MOL0     H35097   2.432   0.641   6.740  0.5447  0.6106  1.9127
  266MOL0     H35098   3.629   2.030   7.558  1.5493 -0.7450  2.5146
  266MOL0     H35099   3.850   2.076   7.473 -3.5907  1.2946 -3.0833
  266MOL0     H35100   4.357   1.932   7.629  0.6457  2.8605  1.0006
  266MOL0     H35101   4.568   1.966   7.537 -0.3287  3.0408  1.0294
  266MOL0     H35102   4.642   1.983   7.101 -1.0490 -0.7143  0.1839
  266MOL0     H35103   4.697   1.858   7.221  1.9227  0.8412  0.5768
  266MOL0     H35104   4.882   1.920   7.118 -1.9064 -0.0621  0.1070
  266MOL0     H35105   4.856   2.093   7.132 -1.1022 -0.5487 -0.4253
  266MOL0     H35106   4.907   1.913   7.365 -2.7138  0.8056 -0.6529
  266MOL0     H35107   4.893   2.092   7.369 -1.6553 -1.0916  2.1406
  266MOL0     H35108   5.080   2.087   7.194 -2.4810 -3.0765 -1.6001
  266MOL0     H35109   5.124   2.080   7.367  1.8260  0.1741 -0.0304
  266MOL0     H35110   5.299   1.714   7.232  3.4175  2.3448 -0.4559
  266MOL0     H35111   4.409   2.047   7.143  0.6984 -1.5525 -1.1006
  266MOL0     H35112   4.184   2.026   7.247 -0.0551  0.5074 -0.5467
  267MOL0     O35113   6.706   5.720   7.482 -0.3379  0.0112  0.2337
  267MOL0     C35114   6.717   5.602   7.521  0.0962 -0.3587  0.1931
  267MOL0     O35115   6.629   5.504   7.480 -0.4957  0.2789 -0.2389
  267MOL0     C35116   6.512   5.528   7.408 -0.3210 -1.0828  0.3686
  267MOL0     C35117   6.454   5.418   7.353 -0.2275 -0.4236  0.7603
  267MOL0     C35118   6.330   5.431   7.284  0.8772  0.0001 -0.0892
  267MOL0     C35119   6.263   5.551   7.270  0.4044  0.5520  0.2619
  267MOL0     O35120   6.141   5.548   7.206  0.7505 -0.0177 -0.4095
  267MOL0     C35121   6.117   5.659   7.119  0.2560 -0.2928 -0.3151
  267MOL0     C35122   5.991   5.628   7.043  0.4345 -0.2000 -0.2887
  267MOL0     C35123   5.860   5.606   7.130 -0.3600 -0.0732  0.5831
  267MOL0     C35124   5.744   5.589   7.025 -0.6684  0.1790 -0.9001
  267MOL0     C35125   5.615   5.542   7.102 -0.9118 -0.4288  0.2224
  267MOL0     C35126   5.499   5.509   7.002 -0.1129  0.6639  0.0683
  267MOL0     C35127   5.385   5.439   7.076 -0.4250 -0.4119  0.7476
  267MOL0     C35128   5.292   5.379   6.965  0.6201 -0.4760  1.0186
  267MOL0     N35129   5.361   5.266   6.897  0.3481  0.1970 -0.4757
  267MOL0     C35130   5.324   5.138   6.926  1.4100 -0.7564 -0.3957
  267MOL0     C35131   5.385   5.060   6.842 -0.4656 -0.4636 -0.1370
  267MOL0     C35132   5.361   4.909   6.843 -0.7373  0.3216 -0.4090
  267MOL0     C35133   5.212   4.872   6.833  0.2736  0.4477  0.0029
  267MOL0     C35134   5.130   4.953   6.735  0.5674  0.9363  0.1610
  267MOL0     C35135   5.165   4.904   6.601 -0.0708 -0.5388  0.0303
  267MOL0     O35136   5.071   4.954   6.499  0.6152 -0.3656 -0.0109
  267MOL0     C35137   4.935   4.913   6.481 -1.3552  0.7398 -0.2034
  267MOL0     C35138   4.888   4.788   6.530  0.4090 -0.8399  0.1779
  267MOL0     C35139   4.764   4.747   6.505 -0.1524  0.5989  1.1919
  267MOL0     C35140   4.678   4.829   6.436  0.5797 -0.8959 -1.1289
  267MOL0     C35141   4.536   4.797   6.409  0.2354 -0.3386  0.0387
  267MOL0     O35142   4.433   4.891   6.399 -1.0226 -0.4849  0.2708
  267MOL0     C35143   4.307   4.867   6.359  0.0036  0.5245 -0.3000
  267MOL0     C35144   4.225   4.756   6.387 -0.5804  0.9409  0.7096
  267MOL0     C35145   4.100   4.738   6.334  0.1513  0.6104 -0.5331
  267MOL0     C35146   4.054   4.834   6.245 -0.2508  0.0741 -0.9896
  267MOL0     O35147   3.929   4.808   6.196 -0.3630  0.8465  0.5348
  267MOL0     C35148   3.853   4.907   6.121  0.1237  0.3845 -0.9927
  267MOL0     C35149   3.698   4.878   6.137  0.4377  1.1891  0.0567
  267MOL0     C35150   3.624   4.941   6.020  0.4720  0.1480  0.6618
  267MOL0     C35151   3.479   4.882   6.026  0.1178 -0.5654  0.0309
  267MOL0     C35152   3.383   4.936   5.913 -0.9472 -0.3631  0.3470
  267MOL0     C35153   3.237   4.887   5.931 -0.7039  0.3361 -0.4198
  267MOL0     C35154   3.226   4.735   5.878 -0.0717 -0.5856 -0.6925
  267MOL0     C35155   3.087   4.717   5.818 -0.0597 -0.7764 -0.3046
  267MOL0    Cl35156   2.941   4.722   5.940 -0.1847  0.0415 -0.4814
  267MOL0     C35157   4.134   4.942   6.209  0.5441  0.1266 -0.4300
  267MOL0     C35158   4.257   4.965   6.271  0.5652  1.0691  0.1496
  267MOL0     O35159   4.524   4.679   6.384  0.3176 -0.2508  0.2980
  267MOL0     C35160   4.717   4.957   6.390  1.1039 -0.2723  0.9796
  267MOL0     C35161   4.849   4.995   6.409 -0.3854  0.2904  0.4023
  267MOL0     N35162   5.441   5.138   6.742  0.8523  0.1450  0.3524
  267MOL0     N35163   5.429   5.258   6.780 -0.4012 -0.2570  0.2424
  267MOL0     C35164   6.322   5.662   7.331  0.7107 -0.4714 -0.8493
  267MOL0     C35165   6.443   5.660   7.405 -0.0291  1.5125  0.3420
  267MOL0     C35166   6.823   5.569   7.612 -0.0175 -0.1547 -0.8179
  267MOL0     C35167   6.838   5.446   7.672 -0.4461 -0.3117  0.0349
  267MOL0     C35168   6.937   5.416   7.774  0.2839  0.0720  0.0057
  267MOL0     C35169   7.010   5.520   7.829 -0.0739  0.1014 -1.2244
  267MOL0     O35170   7.116   5.501   7.908  0.7376  0.4519  0.0854
  267MOL0     C35171   7.115   5.394   7.997  0.0010 -0.0346  0.2691
  267MOL0     C35172   7.212   5.415   8.110 -1.1853 -0.6712 -0.4152
  267MOL0     C35173   7.366   5.424   8.075 -1.0892  0.1610  0.8905
  267MOL0     C35174   7.406   5.529   7.971 -0.1119  0.5304 -0.1748
  267MOL0     C35175   7.550   5.532   7.954 -0.4154 -0.3747  0.0522
  267MOL0     C35176   7.672   5.520   7.947 -0.4070 -0.3158 -0.1474
  267MOL0     C35177   6.995   5.646   7.771 -0.3257 -0.1297  0.3874
  267MOL0     C35178   6.904   5.668   7.670  0.7917  0.1805  0.1230
  267MOL0     H35179   6.514   5.327   7.355  3.0449  1.5471  3.0852
  267MOL0     H35180   6.283   5.345   7.238  1.4658  0.2220 -1.1648
  267MOL0     H35181   6.200   5.672   7.049  3.2984 -2.5055  2.5497
  267MOL0     H35182   6.105   5.750   7.179  3.2995 -0.5051  0.7821
  267MOL0     H35183   5.996   5.539   6.980 -2.3265 -1.8997  1.6455
  267MOL0     H35184   5.968   5.702   6.965  0.0207  0.0515  0.0618
  267MOL0     H35185   5.848   5.684   7.206 -2.0213 -1.4123  1.7495
  267MOL0     H35186   5.877   5.517   7.191  2.9051 -0.6635 -0.9747
  267MOL0     H35187   5.722   5.683   6.974 -1.9802 -0.4651 -1.5623
  267MOL0     H35188   5.773   5.520   6.945 -1.4172 -1.4307  0.1667
  267MOL0     H35189   5.590   5.618   7.176 -0.6569  0.5220 -0.6473
  267MOL0     H35190   5.645   5.441   7.132 -3.3476 -2.1890 -2.7764
  267MOL0     H35191   5.539   5.444   6.924  0.3058  1.8625 -0.7493
  267MOL0     H35192   5.469   5.603   6.953  0.8914  1.0887  0.2468
  267MOL0     H35193   5.423   5.360   7.141  1.7065  1.2792  1.6686
  267MOL0     H35194   5.329   5.511   7.137  0.5979  2.1573 -1.1236
  267MOL0     H35195   5.254   5.459   6.900 -0.5821  0.5334  2.8532
  267MOL0     H35196   5.201   5.336   7.009  1.1839 -2.6160  0.1823
  267MOL0     H35197   5.263   5.113   7.012  3.0778  1.7123  1.6800
  267MOL0     H35198   5.416   4.859   6.923 -0.3484 -0.5881 -1.2211
  267MOL0     H35199   5.404   4.860   6.755 -2.1432 -0.6096 -0.6106
  267MOL0     H35200   5.162   4.873   6.930  0.3182 -3.1633  0.2112
  267MOL0     H35201   5.190   4.766   6.821 -4.0831  0.8637  2.4063
  267MOL0     H35202   5.024   4.937   6.758  1.0154  1.8329  3.2628
  267MOL0     H35203   5.155   5.058   6.751  0.5388  0.5682  3.2584
  267MOL0     H35204   5.168   4.795   6.595 -0.7971 -0.5421 -0.2991
  267MOL0     H35205   5.266   4.939   6.576 -0.4703 -0.0946 -1.0015
  267MOL0     H35206   4.958   4.718   6.575  1.0088 -0.7110 -0.5258
  267MOL0     H35207   4.738   4.647   6.538 -1.3339  0.1011 -1.0425
  267MOL0     H35208   4.259   4.684   6.461  0.4045  0.0770 -0.5448
  267MOL0     H35209   4.036   4.653   6.355 -1.7199  1.6456 -1.7620
  267MOL0     H35210   3.891   4.914   6.019  1.2161 -3.0863 -0.9458
  267MOL0     H35211   3.852   5.007   6.165 -1.2206  0.2467 -0.6395
  267MOL0     H35212   3.655   4.921   6.228  2.0980  2.5785  0.2250
  267MOL0     H35213   3.685   4.770   6.129 -1.4953  1.2661  1.3822
  267MOL0     H35214   3.666   4.908   5.925  1.3863  2.5661  0.1595
  267MOL0     H35215   3.627   5.048   6.040 -4.0495 -0.1186  4.9365
  267MOL0     H35216   3.482   4.774   6.012 -0.0420 -0.7006  0.9754
  267MOL0     H35217   3.439   4.904   6.125  1.4592 -2.4936  1.0662
  267MOL0     H35218   3.420   4.884   5.824 -1.5941 -2.6910  1.3630
  267MOL0     H35219   3.382   5.043   5.891  1.1900 -0.4130 -0.1340
  267MOL0     H35220   3.169   4.956   5.879 -3.4232 -0.7851  1.4218
  267MOL0     H35221   3.214   4.889   6.038 -2.8527 -2.6169 -0.6990
  267MOL0     H35222   3.307   4.715   5.807  1.6343 -0.4095  1.1174
  267MOL0     H35223   3.244   4.659   5.955 -1.1644 -4.0533 -3.5943
  267MOL0     H35224   3.084   4.619   5.768  0.7661  0.4121 -2.8834
  267MOL0     H35225   3.065   4.788   5.738 -0.4329 -1.1515 -0.5467
  267MOL0     H35226   4.099   5.011   6.133 -0.7246 -2.6149 -2.4989
  267MOL0     H35227   4.312   5.054   6.242 -2.5784  3.6301  1.4270
  267MOL0     H35228   4.654   5.025   6.334  0.6334 -0.9630  0.6614
  267MOL0     H35229   4.877   5.080   6.349 -0.9939  0.2114 -0.0055
  267MOL0     H35230   6.275   5.758   7.317 -0.5525 -1.0169 -0.4783
  267MOL0     H35231   6.485   5.741   7.465  3.6320 -0.4398  0.7224
  267MOL0     H35232   6.788   5.356   7.639  1.6893 -1.5673  0.0525
  267MOL0     H35233   6.951   5.312   7.800 -1.3929 -0.2670 -0.3363
  267MOL0     H35234   7.154   5.309   7.940  3.6578  3.1259 -2.5479
  267MOL0     H35235   7.012   5.399   8.032  0.4048  0.6240  1.4036
  267MOL0     H35236   7.198   5.500   8.178  4.1817 -0.9384  1.5128
  267MOL0     H35237   7.213   5.332   8.180 -0.6559 -1.5841 -1.4650
  267MOL0     H35238   7.394   5.322   8.048  0.3581  0.6475  0.4585
  267MOL0     H35239   7.413   5.457   8.168 -0.3330 -0.4841  0.7514
  267MOL0     H35240   7.372   5.485   7.876  3.5986 -3.4233  0.0244
  267MOL0     H35241   7.362   5.626   7.995  0.2264  0.9856 -1.2955
  267MOL0     H35242   7.775   5.493   7.943  0.3164  2.1804  0.0472
  267MOL0     H35243   7.055   5.723   7.818 -1.4949 -0.6277  2.8342
  267MOL0     H35244   6.897   5.767   7.624 -3.0130  0.6542  1.3767
  268MOL0     O35245   9.313   8.136   2.933  0.5990  0.2596 -0.4285
  268MOL0     C35246   9.345   8.178   2.822  0.4105 -1.1348  0.6479
  268MOL0     O35247   9.266   8.210   2.718 -0.0744 -0.6178 -0.3243
  268MOL0     C35248   9.129   8.206   2.722  0.1814 -0.1649 -0.1581
  268MOL0     C35249   9.048   8.150   2.826 -2.0039 -0.2274 -0.8305
  268MOL0     C35250   8.913   8.162   2.815 -0.3830 -0.7937 -0.2560
  268MOL0     C35251   8.848   8.218   2.703  0.8703  0.5441 -0.2100
  268MOL0     O35252   8.720   8.208   2.703  0.8067  0.3366 -0.3791
  268MOL0     C35253   8.643   8.187   2.580 -0.3778  0.6486 -0.5984
  268MOL0     C35254   8.493   8.180   2.610  0.0752  0.2730  0.0616
  268MOL0     C35255   8.419   8.187   2.473  0.4468  0.3664  0.7571
  268MOL0     C35256   8.272   8.187   2.489 -0.6697 -0.8933 -0.5811
  268MOL0     C35257   8.202   8.127   2.363  0.0322  0.2148 -0.3999
  268MOL0     C35258   8.194   8.224   2.246  0.2123  0.4351 -0.0169
  268MOL0     C35259   8.099   8.341   2.267 -0.1338 -0.4206 -0.4806
  268MOL0     C35260   8.104   8.441   2.154  0.1918 -0.2179 -0.1553
  268MOL0     N35261   8.029   8.566   2.172  1.0649 -0.0439 -0.9345
  268MOL0     C35262   7.907   8.586   2.235 -0.2293 -0.1474 -0.8352
  268MOL0     C35263   7.878   8.712   2.224 -0.0437 -0.3675 -0.4432
  268MOL0     C35264   7.752   8.782   2.269 -0.0178  0.6157 -0.3032
  268MOL0     C35265   7.624   8.777   2.181  0.5759 -0.7361 -0.8478
  268MOL0     C35266   7.627   8.866   2.062 -0.5497  0.6068 -0.9229
  268MOL0     C35267   7.522   8.819   1.960  0.9959 -0.4754 -0.1631
  268MOL0     O35268   7.395   8.860   2.008 -0.2701 -0.6527  0.3694
  268MOL0     C35269   7.275   8.859   1.937 -1.1757 -1.1536 -0.1711
  268MOL0     C35270   7.175   8.937   2.006  0.2470 -0.0139 -0.2329
  268MOL0     C35271   7.046   8.950   1.948  0.1305  0.0339 -0.5284
  268MOL0     C35272   7.019   8.883   1.824  0.0550  0.7565 -0.0111
  268MOL0     C35273   6.880   8.897   1.764  0.3355 -0.1193 -0.6014
  268MOL0     O35274   6.804   8.784   1.722 -0.7353 -0.4713 -0.0959
  268MOL0     C35275   6.687   8.808   1.662  0.4350  0.0980  0.1120
  268MOL0     C35276   6.570   8.788   1.718  0.4214 -0.9111 -0.1167
  268MOL0     C35277   6.446   8.792   1.654 -0.7423 -0.5120 -0.8447
  268MOL0     C35278   6.444   8.823   1.518  0.7141  0.1555 -0.3253
  268MOL0     O35279   6.331   8.819   1.438 -0.2222 -0.7802  0.1221
  268MOL0     C35280   6.217   8.878   1.503  0.6452  0.3014  0.7973
  268MOL0     C35281   6.128   8.963   1.414  0.3881  0.0728 -0.0682
  268MOL0     C35282   6.097   8.909   1.277 -0.2307 -0.3297  0.2388
  268MOL0     C35283   6.197   8.952   1.172  1.1221  0.2928  0.4625
  268MOL0     C35284   6.166   8.901   1.035  0.7735 -0.1656  0.3727
  268MOL0     C35285   6.275   8.948   0.932 -0.1898 -0.1120  0.2592
  268MOL0     C35286   6.231   8.913   0.791  0.3013 -0.1677  0.6306
  268MOL0     C35287   6.329   8.972   0.692  0.4085  0.8974 -0.6837
  268MOL0    Cl35288   6.355   9.143   0.724 -0.3754  0.0620 -0.7136
  268MOL0     C35289   6.566   8.840   1.451 -0.1159  0.2068 -0.3181
  268MOL0     C35290   6.685   8.822   1.520 -0.0981 -0.5926 -0.1966
  268MOL0     O35291   6.850   9.014   1.757 -0.2948  0.4381 -0.6176
  268MOL0     C35292   7.119   8.801   1.767 -0.1348 -0.4147 -0.3714
  268MOL0     C35293   7.248   8.795   1.824 -0.3113  0.5490 -0.2003
  268MOL0     N35294   7.984   8.775   2.163 -0.1222  0.8809  1.4151
  268MOL0     N35295   8.057   8.683   2.121 -0.8507  1.1657  0.5050
  268MOL0     C35296   8.932   8.253   2.599  1.0274  0.4514  0.2560
  268MOL0     C35297   9.068   8.249   2.607 -0.0293  0.9107  0.0020
  268MOL0     C35298   9.486   8.213   2.804 -0.7897 -0.0615  0.7233
  268MOL0     C35299   9.534   8.280   2.689  0.4869 -0.3254  0.5577
  268MOL0     C35300   9.667   8.308   2.662  0.2753 -0.0901 -0.1576
  268MOL0     C35301   9.765   8.256   2.755 -0.9576  0.3634  0.0835
  268MOL0     O35302   9.902   8.249   2.725  0.1138 -0.2978  0.3051
  268MOL0     C35303   9.950   8.321   2.621  0.9374  0.6748 -0.3831
  268MOL0     C35304  10.101   8.300   2.632 -0.2922 -0.9090 -0.4053
  268MOL0     C35305  10.191   8.365   2.533  0.8115 -0.2359 -0.3621
  268MOL0     C35306  10.161   8.519   2.524  1.1442 -0.2618  0.8438
  268MOL0     C35307  10.207   8.584   2.648  0.7229  1.0238  0.4732
  268MOL0     C35308  10.239   8.633   2.754  0.2718  0.5113 -0.7020
  268MOL0     C35309   9.719   8.194   2.868  0.5142  0.3532 -0.4250
  268MOL0     C35310   9.584   8.182   2.900  0.0885 -0.1313 -0.0339
  268MOL0     H35311   9.085   8.096   2.913  2.6860  2.1640 -0.9763
  268MOL0     H35312   8.847   8.136   2.898 -0.1227  1.9716  0.9430
  268MOL0     H35313   8.676   8.092   2.536 -1.3530  0.1440 -0.2689
  268MOL0     H35314   8.661   8.283   2.532  0.0588  1.6973  1.5226
  268MOL0     H35315   8.474   8.264   2.677  0.7190  1.6597 -1.4071
  268MOL0     H35316   8.469   8.088   2.662 -1.0181  2.1293  3.0894
  268MOL0     H35317   8.435   8.095   2.415 -5.0133 -1.0676  0.9325
  268MOL0     H35318   8.445   8.277   2.417  1.0544  0.4613  1.1854
  268MOL0     H35319   8.243   8.124   2.573 -0.2905  0.4220  0.5856
  268MOL0     H35320   8.238   8.286   2.521  2.2921  0.4669 -1.2893
  268MOL0     H35321   8.105   8.089   2.399 -1.3483  2.8145 -1.1215
  268MOL0     H35322   8.266   8.044   2.332 -0.8430 -0.5242 -0.2862
  268MOL0     H35323   8.155   8.165   2.161 -0.0658 -0.8511  0.9729
  268MOL0     H35324   8.292   8.267   2.227  1.1182 -1.7584 -0.5995
  268MOL0     H35325   7.993   8.312   2.270 -0.0958 -0.9821 -2.5506
  268MOL0     H35326   8.123   8.398   2.357 -1.3154  0.9457 -0.9835
  268MOL0     H35327   8.058   8.392   2.068 -1.0046 -1.9794  1.4155
  268MOL0     H35328   8.205   8.465   2.119 -0.3199 -1.1151 -2.4233
  268MOL0     H35329   7.847   8.512   2.288 -2.4406  0.6887 -2.0569
  268MOL0     H35330   7.777   8.887   2.284 -0.5573  1.3463 -3.7265
  268MOL0     H35331   7.732   8.729   2.363  0.9543 -0.5261 -0.7143
  268MOL0     H35332   7.536   8.803   2.241  0.3367  1.3972 -2.0173
  268MOL0     H35333   7.610   8.676   2.142  0.6748  0.4540 -4.3202
  268MOL0     H35334   7.597   8.966   2.095 -1.8089 -0.0211 -0.0781
  268MOL0     H35335   7.728   8.858   2.021 -0.4713 -2.8367 -0.3970
  268MOL0     H35336   7.535   8.711   1.945  2.6268 -0.1159 -1.6213
  268MOL0     H35337   7.547   8.877   1.871  1.7615  2.2500  1.6737
  268MOL0     H35338   7.206   8.998   2.090  1.9623 -1.8550  0.5487
  268MOL0     H35339   6.980   9.028   1.985  1.2296 -0.7431  3.5485
  268MOL0     H35340   6.585   8.780   1.826  3.7622  1.1282 -0.2849
  268MOL0     H35341   6.356   8.782   1.713 -2.0884  1.9890 -2.3054
  268MOL0     H35342   6.240   8.946   1.585  1.6002 -0.0579  0.8384
  268MOL0     H35343   6.160   8.791   1.539  2.4163 -1.1632  0.2161
  268MOL0     H35344   6.163   9.065   1.398 -1.0231  0.5958  0.0225
  268MOL0     H35345   6.037   8.966   1.475  1.2995 -0.8034  1.4016
  268MOL0     H35346   5.999   8.947   1.250  0.9838  1.3601 -2.1478
  268MOL0     H35347   6.087   8.800   1.275 -2.4064 -0.1693 -1.3456
  268MOL0     H35348   6.220   9.059   1.173 -0.0403  0.5672  0.1561
  268MOL0     H35349   6.286   8.898   1.206 -0.8487 -2.6891  1.3160
  268MOL0     H35350   6.076   8.946   0.993  0.4056 -2.0232 -0.9673
  268MOL0     H35351   6.169   8.791   1.039  4.2975 -0.1785  0.9821
  268MOL0     H35352   6.373   8.904   0.951  0.6438  1.7131  0.3529
  268MOL0     H35353   6.285   9.054   0.955  2.0961 -0.4591  1.0595
  268MOL0     H35354   6.227   8.806   0.771 -2.1419  0.2645 -1.9185
  268MOL0     H35355   6.129   8.949   0.772 -1.0380 -4.1406 -0.7902
  268MOL0     H35356   6.294   8.949   0.591  0.8354 -1.6618 -0.3193
  268MOL0     H35357   6.427   8.925   0.699  0.1357 -0.0171 -2.3802
  268MOL0     H35358   6.554   8.843   1.343 -0.2899 -2.7401 -0.4556
  268MOL0     H35359   6.777   8.826   1.463 -0.0716  1.3099 -0.1038
  268MOL0     H35360   7.100   8.746   1.675  2.2916 -1.6898 -0.1800
  268MOL0     H35361   7.324   8.738   1.772  1.5835  1.3465  1.5721
  268MOL0     H35362   8.896   8.287   2.502  3.5617 -2.1557 -1.7477
  268MOL0     H35363   9.124   8.282   2.520 -0.5534  0.8124 -0.3823
  268MOL0     H35364   9.470   8.284   2.601  1.1580 -2.3718 -0.0703
  268MOL0     H35365   9.679   8.360   2.567  1.1194 -1.3774 -0.7963
  268MOL0     H35366   9.916   8.424   2.636 -1.7034 -0.3084  1.0852
  268MOL0     H35367   9.913   8.281   2.526  1.4338 -1.4600  0.2715
  268MOL0     H35368  10.138   8.339   2.727 -1.1704  1.9720 -1.1431
  268MOL0     H35369  10.124   8.194   2.623  1.6905 -0.7944  2.2269
  268MOL0     H35370  10.182   8.325   2.432  1.4537 -1.5197  0.0709
  268MOL0     H35371  10.293   8.347   2.568 -0.0287 -3.2723  0.8193
  268MOL0     H35372  10.225   8.564   2.448  0.2809  0.6250  0.6191
  268MOL0     H35373  10.055   8.534   2.501  0.9239 -0.9168  1.4214
  268MOL0     H35374  10.278   8.685   2.839  1.0076  0.1693 -0.8259
  268MOL0     H35375   9.781   8.150   2.945 -0.5999 -3.6069 -1.5840
  268MOL0     H35376   9.553   8.130   2.990 -4.0711  0.3869 -0.9361
  269MOL0     O35377   5.797   6.761   1.262 -0.2228  0.5740 -0.4210
  269MOL0     C35378   5.803   6.733   1.141 -0.5513 -0.1784 -0.4291
  269MOL0     O35379   5.905   6.667   1.081 -0.2383  0.3190  0.2559
  269MOL0     C35380   6.010   6.614   1.150 -0.0523  0.0390  0.2906
  269MOL0     C35381   5.997   6.515   1.251 -0.3886  0.7284  0.2495
  269MOL0     C35382   6.117   6.475   1.312  0.1432 -0.1415 -0.0271
  269MOL0     C35383   6.240   6.520   1.272  0.5411 -0.0143  0.0277
  269MOL0     O35384   6.351   6.474   1.330  0.6046 -0.4204  0.0314
  269MOL0     C35385   6.346   6.402   1.455  0.3361  0.0821 -0.7823
  269MOL0     C35386   6.486   6.383   1.499  0.6447  0.1477  0.0707
  269MOL0     C35387   6.491   6.358   1.649 -0.0143 -0.5272 -1.0132
  269MOL0     C35388   6.629   6.372   1.701 -0.5278  0.6537  0.0071
  269MOL0     C35389   6.627   6.363   1.856 -0.5804  0.3440 -0.4825
  269MOL0     C35390   6.762   6.363   1.917 -0.2740  0.4861  0.3933
  269MOL0     C35391   6.768   6.405   2.070 -0.6114  0.8512  1.4862
  269MOL0     C35392   6.896   6.363   2.145 -0.4106 -0.3222 -0.4990
  269MOL0     N35393   6.877   6.227   2.208 -0.1066 -0.3312  1.0591
  269MOL0     C35394   6.804   6.221   2.321  0.0420  0.4583  0.0276
  269MOL0     C35395   6.764   6.094   2.319 -0.1090  0.7002 -0.7809
  269MOL0     C35396   6.664   6.035   2.401  0.1774 -0.2832 -0.7366
  269MOL0     C35397   6.536   6.112   2.349  0.1625  0.7792 -0.1926
  269MOL0     C35398   6.503   6.059   2.210 -0.9163  0.2604  0.1201
  269MOL0     C35399   6.359   6.097   2.175  0.9826 -0.0427 -1.2650
  269MOL0     O35400   6.333   6.237   2.151  0.3568 -0.2968 -0.9925
  269MOL0     C35401   6.214   6.279   2.118  0.2787 -0.8119 -0.6003
  269MOL0     C35402   6.199   6.412   2.073 -0.4241 -0.0153  0.1098
  269MOL0     C35403   6.078   6.477   2.052 -0.2990 -0.8869  0.7379
  269MOL0     C35404   5.957   6.413   2.075 -0.3261 -0.1916 -0.1863
  269MOL0     C35405   5.825   6.482   2.054 -0.6163 -0.6265  0.6130
  269MOL0     O35406   5.704   6.414   2.074 -0.2440 -0.1899  0.3303
  269MOL0     C35407   5.593   6.488   2.095  0.3277 -0.6618  0.6892
  269MOL0     C35408   5.498   6.505   1.986 -0.5562 -0.2699 -0.1049
  269MOL0     C35409   5.375   6.563   2.012 -0.4960  0.1420 -0.0665
  269MOL0     C35410   5.333   6.591   2.148 -0.0568  0.6052  0.3884
  269MOL0     O35411   5.210   6.648   2.173  0.4574 -0.3313 -0.1201
  269MOL0     C35412   5.137   6.591   2.294  0.1106  0.2390 -0.1576
  269MOL0     C35413   4.984   6.604   2.267 -1.3686  0.5746 -0.3564
  269MOL0     C35414   4.900   6.541   2.373 -0.6429  0.4261 -0.2434
  269MOL0     C35415   4.745   6.546   2.346 -0.2456 -0.0401 -0.5128
  269MOL0     C35416   4.657   6.472   2.451 -0.3371 -0.4388 -0.1736
  269MOL0     C35417   4.659   6.524   2.595  0.4192  0.5573 -0.4141
  269MOL0     C35418   4.551   6.453   2.670 -0.9228  0.1452  0.3517
  269MOL0     C35419   4.560   6.471   2.818  0.1829  0.8897 -0.2991
  269MOL0    Cl35420   4.422   6.384   2.893  0.0498 -0.3140  0.2957
  269MOL0     C35421   5.425   6.569   2.253  0.1758 -0.3001  0.1151
  269MOL0     C35422   5.546   6.515   2.227 -0.4005  0.6044 -0.8208
  269MOL0     O35423   5.834   6.591   2.008  0.2959  0.3564 -0.5373
  269MOL0     C35424   5.968   6.281   2.126  0.3361 -0.2888  1.0930
  269MOL0     C35425   6.093   6.215   2.138 -0.0421 -0.5815 -0.3203
  269MOL0     N35426   6.840   6.023   2.233  0.2835  0.1668  0.4640
  269MOL0     N35427   6.899   6.108   2.160  0.1674 -0.4317 -0.2805
  269MOL0     C35428   6.245   6.602   1.166  0.4392 -0.9566  0.2172
  269MOL0     C35429   6.135   6.650   1.102 -0.0903 -0.0399  0.7434
  269MOL0     C35430   5.677   6.753   1.067 -0.4002  0.5481  0.1216
  269MOL0     C35431   5.665   6.716   0.928 -0.1148 -0.3282 -0.6339
  269MOL0     C35432   5.536   6.724   0.865  0.5099  0.3087 -0.9404
  269MOL0     C35433   5.422   6.762   0.936  0.5439 -0.1697  0.0259
  269MOL0     O35434   5.299   6.741   0.874  0.6612 -0.3878 -0.6548
  269MOL0     C35435   5.176   6.799   0.923  0.0800  0.9616 -1.1896
  269MOL0     C35436   5.095   6.696   1.001  0.4775 -0.9267 -0.5497
  269MOL0     C35437   4.949   6.744   1.032 -0.3470 -0.1105  0.6014
  269MOL0     C35438   4.861   6.619   1.037 -0.4165 -0.6196 -0.1061
  269MOL0     C35439   4.719   6.655   1.037 -1.0470 -0.3931 -0.4442
  269MOL0     C35440   4.602   6.691   1.042 -0.2585 -0.4283 -0.3749
  269MOL0     C35441   5.437   6.783   1.074 -0.4965  0.8542 -0.1582
  269MOL0     C35442   5.563   6.774   1.140  0.7706  0.3579  0.5640
  269MOL0     H35443   5.904   6.462   1.271  0.1416 -0.0461  0.6999
  269MOL0     H35444   6.090   6.409   1.394 -0.4891  1.3791  1.0227
  269MOL0     H35445   6.307   6.303   1.431 -3.4896  1.2386 -0.0563
  269MOL0     H35446   6.281   6.454   1.525 -0.6516 -0.7049 -1.0930
  269MOL0     H35447   6.536   6.474   1.464 -1.1145  1.1953  0.1775
  269MOL0     H35448   6.536   6.302   1.446  3.4254  0.8408  1.4165
  269MOL0     H35449   6.456   6.258   1.679  0.5373  0.0422  1.8606
  269MOL0     H35450   6.418   6.420   1.702  2.6281  1.4315  0.5830
  269MOL0     H35451   6.694   6.293   1.663 -0.2468  0.9310 -0.0931
  269MOL0     H35452   6.674   6.466   1.669 -1.2448  0.7400 -0.7731
  269MOL0     H35453   6.579   6.267   1.877 -1.7849  0.6016 -1.8715
  269MOL0     H35454   6.568   6.439   1.908  2.5900  1.9461  1.0720
  269MOL0     H35455   6.831   6.433   1.870  1.9959 -1.8031  0.0654
  269MOL0     H35456   6.792   6.258   1.905 -1.6300  0.2170 -1.0314
  269MOL0     H35457   6.760   6.514   2.067 -0.9251  0.8342 -1.5337
  269MOL0     H35458   6.678   6.374   2.124 -0.5883  0.1445  1.1258
  269MOL0     H35459   6.930   6.434   2.222  3.4716  0.1186 -2.3605
  269MOL0     H35460   6.978   6.353   2.074  0.1166  1.0377 -0.1268
  269MOL0     H35461   6.771   6.300   2.388 -3.3302 -1.1752  0.4958
  269MOL0     H35462   6.677   6.039   2.509  1.2067  3.6412 -0.8587
  269MOL0     H35463   6.658   5.928   2.378  0.4578 -1.1295  2.6013
  269MOL0     H35464   6.542   6.220   2.365 -0.4662  0.5261  2.2039
  269MOL0     H35465   6.455   6.080   2.416  0.5300  0.9437  0.3374
  269MOL0     H35466   6.560   6.102   2.127 -2.3203 -0.4235 -1.2495
  269MOL0     H35467   6.511   5.950   2.203 -3.4257 -0.5322  5.1482
  269MOL0     H35468   6.283   6.064   2.247  1.0339  1.7743 -0.3083
  269MOL0     H35469   6.320   6.050   2.084  0.7367 -0.0152 -1.1763
  269MOL0     H35470   6.290   6.469   2.051 -1.0448  1.3499  0.9598
  269MOL0     H35471   6.094   6.577   2.012 -0.5349 -1.7174 -1.5401
  269MOL0     H35472   5.540   6.475   1.891 -0.4915  0.6426 -0.3799
  269MOL0     H35473   5.307   6.588   1.932 -0.9890  2.3124  0.9637
  269MOL0     H35474   5.156   6.655   2.381 -1.0148 -0.5727  0.7083
  269MOL0     H35475   5.174   6.489   2.303  1.3740  0.5239 -1.6213
  269MOL0     H35476   4.977   6.541   2.178 -3.8144 -0.9940  0.8140
  269MOL0     H35477   4.955   6.706   2.244 -1.4287  1.2637  2.3899
  269MOL0     H35478   4.912   6.574   2.476 -2.9858  0.9183 -0.0761
  269MOL0     H35479   4.928   6.435   2.372 -0.3466  0.4793  1.0261
  269MOL0     H35480   4.724   6.653   2.336  3.1443  0.6976 -1.0647
  269MOL0     H35481   4.733   6.501   2.247 -1.5299 -0.5061 -0.1545
  269MOL0     H35482   4.691   6.369   2.455  0.4853 -0.2465 -1.5390
  269MOL0     H35483   4.552   6.473   2.421 -0.4580  0.5470  0.2338
  269MOL0     H35484   4.641   6.632   2.590 -1.1273  0.3461  0.0391
  269MOL0     H35485   4.754   6.500   2.644  1.7106  1.1461 -2.4995
  269MOL0     H35486   4.455   6.461   2.617  1.5182  1.5676 -4.4442
  269MOL0     H35487   4.584   6.352   2.643 -2.0155  0.1888 -1.3472
  269MOL0     H35488   4.559   6.576   2.850 -1.3388  0.0629  2.7855
  269MOL0     H35489   4.654   6.430   2.855 -1.0709 -2.3860 -0.4832
  269MOL0     H35490   5.400   6.585   2.358 -2.1397  1.1550 -0.5733
  269MOL0     H35491   5.608   6.489   2.312 -1.6082 -2.0806 -0.6616
  269MOL0     H35492   5.876   6.238   2.165 -0.6329  2.2972  1.8354
  269MOL0     H35493   6.092   6.111   2.171  1.9644 -0.1743  1.1747
  269MOL0     H35494   6.345   6.623   1.129 -0.3329  0.9845 -0.9315
  269MOL0     H35495   6.147   6.713   1.014 -3.2641  1.7768  1.4500
  269MOL0     H35496   5.764   6.685   0.895 -0.1720 -1.0652 -0.1428
  269MOL0     H35497   5.537   6.694   0.761 -0.0663 -1.7193 -0.4050
  269MOL0     H35498   5.118   6.840   0.840 -1.5376 -1.2158 -1.2187
  269MOL0     H35499   5.190   6.884   0.991  1.2153 -1.1244  1.3802
  269MOL0     H35500   5.093   6.610   0.934  0.6088  0.8482 -2.9962
  269MOL0     H35501   5.142   6.674   1.097 -1.2614  2.3924  1.2536
  269MOL0     H35502   4.921   6.821   0.960 -0.5096 -0.9764 -0.2839
  269MOL0     H35503   4.934   6.785   1.132 -1.7484 -1.1658  0.8456
  269MOL0     H35504   4.880   6.553   0.952  2.4852 -1.1690  0.8645
  269MOL0     H35505   4.892   6.557   1.121 -0.8992  0.4431  0.8811
  269MOL0     H35506   4.498   6.713   1.048  0.1069  1.3371  0.1567
  269MOL0     H35507   5.350   6.810   1.133 -0.5558 -0.2619  0.2796
  269MOL0     H35508   5.551   6.784   1.247 -4.8000  0.7851  0.2106
  270MOL0     O35509   9.471  11.241   2.902 -0.1234 -0.4328  0.0704
  270MOL0     C35510   9.496  11.283   2.794 -0.1196 -0.5390 -0.4092
  270MOL0     O35511   9.412  11.276   2.690  0.3898  0.1103  0.1580
  270MOL0     C35512   9.297  11.202   2.693 -0.0815  0.2910 -0.2294
  270MOL0     C35513   9.284  11.060   2.699 -0.1231 -0.0795  0.0214
  270MOL0     C35514   9.157  10.997   2.714  0.4045 -0.5858  0.7043
  270MOL0     C35515   9.043  11.072   2.714  0.1600 -1.6388 -0.3096
  270MOL0     O35516   8.922  11.014   2.722 -0.1105 -0.8210  0.1180
  270MOL0     C35517   8.804  11.099   2.720  0.0512 -0.2736 -0.7234
  270MOL0     C35518   8.671  11.012   2.743  0.2641 -0.0624  0.1480
  270MOL0     C35519   8.550  11.105   2.753  0.7396  0.7801 -0.0636
  270MOL0     C35520   8.414  11.032   2.717  0.3973  0.8147 -0.2264
  270MOL0     C35521   8.302  11.124   2.667  0.5325  0.0143 -0.0786
  270MOL0     C35522   8.281  11.246   2.757 -0.1276 -1.1536  0.2663
  270MOL0     C35523   8.161  11.322   2.689 -0.1760  0.1340 -0.7631
  270MOL0     C35524   8.115  11.434   2.768  1.0938 -0.7649 -0.0838
  270MOL0     N35525   8.006  11.509   2.706  0.2447  0.0797 -0.0818
  270MOL0     C35526   7.875  11.462   2.708 -0.2892  0.0929  0.5033
  270MOL0     C35527   7.806  11.541   2.622  0.2083  0.1978 -0.2098
  270MOL0     C35528   7.662  11.551   2.595 -0.1371  0.2317  0.8276
  270MOL0     C35529   7.593  11.684   2.643  0.3310  0.8454 -0.4969
  270MOL0     C35530   7.437  11.669   2.637 -0.8561  0.8103 -0.1292
  270MOL0     C35531   7.377  11.681   2.496 -1.3478  0.0765 -0.3516
  270MOL0     O35532   7.401  11.576   2.402 -0.0614  0.0329  0.2188
  270MOL0     C35533   7.337  11.463   2.412  0.9673  0.6769  0.3593
  270MOL0     C35534   7.386  11.354   2.336 -0.4736 -0.1116  1.3735
  270MOL0     C35535   7.323  11.221   2.343 -0.3843 -0.4886  0.9520
  270MOL0     C35536   7.222  11.196   2.428  0.1293  0.2669 -0.1308
  270MOL0     C35537   7.154  11.068   2.419 -0.9287  0.3787  0.1415
  270MOL0     O35538   7.071  11.040   2.521 -0.2505  0.1818  0.4680
  270MOL0     C35539   6.958  10.971   2.501  0.0508  0.7253 -0.8751
  270MOL0     C35540   6.937  10.882   2.612  0.4585 -0.0533 -1.1388
  270MOL0     C35541   6.818  10.799   2.601 -1.0950  0.0406  0.7505
  270MOL0     C35542   6.721  10.823   2.498  0.7691  0.4185  0.3749
  270MOL0     O35543   6.594  10.766   2.509 -0.0390  1.0350 -0.0435
  270MOL0     C35544   6.505  10.775   2.401 -0.0175 -0.9883 -0.0886
  270MOL0     C35545   6.361  10.753   2.443  0.5522  0.0344  0.0231
  270MOL0     C35546   6.278  10.731   2.317 -0.2151 -0.3837 -0.9500
  270MOL0     C35547   6.130  10.703   2.357  0.4337  0.0552 -0.3918
  270MOL0     C35548   6.026  10.724   2.247  0.2709  0.1636  0.6111
  270MOL0     C35549   5.889  10.662   2.290 -0.4137  0.8095 -0.1317
  270MOL0     C35550   5.776  10.695   2.192  0.5155 -0.3819 -0.2576
  270MOL0     C35551   5.752  10.846   2.147 -0.2530 -0.3959  0.3193
  270MOL0    Cl35552   5.732  10.974   2.272  0.1876 -0.1432 -0.4625
  270MOL0     C35553   6.749  10.904   2.396 -0.3134  0.2167  0.5687
  270MOL0     C35554   6.868  10.975   2.396  0.4247 -0.6351  0.4363
  270MOL0     O35555   7.160  10.991   2.324 -0.5187  0.5302  0.5595
  270MOL0     C35556   7.181  11.298   2.511  0.1395 -0.3315 -0.0659
  270MOL0     C35557   7.239  11.430   2.509  0.7902  0.2434 -0.6581
  270MOL0     N35558   7.903  11.621   2.563  0.3280 -0.0442 -0.0577
  270MOL0     N35559   8.020  11.608   2.622 -0.2282  0.3858  0.1184
  270MOL0     C35560   9.056  11.211   2.710 -0.9600  0.0564  0.7787
  270MOL0     C35561   9.182  11.281   2.696  0.6628  0.4830  0.3806
  270MOL0     C35562   9.627  11.351   2.775 -0.1399  0.1627 -0.6213
  270MOL0     C35563   9.673  11.407   2.653 -0.1438 -0.0607  0.1298
  270MOL0     C35564   9.800  11.474   2.639  0.7087  0.1280  0.3509
  270MOL0     C35565   9.885  11.482   2.747  0.2726 -0.3086 -0.5072
  270MOL0     O35566  10.013  11.526   2.741  0.3690  0.1993 -0.5203
  270MOL0     C35567  10.089  11.532   2.621 -0.0794 -0.6820 -1.3854
  270MOL0     C35568  10.143  11.399   2.584 -0.5644 -0.7439 -0.4374
  270MOL0     C35569  10.212  11.406   2.447  0.2903 -0.2681 -0.0186
  270MOL0     C35570  10.265  11.266   2.421 -0.0268  0.2322 -0.3131
  270MOL0     C35571  10.384  11.245   2.508 -0.4235  0.8724  0.3224
  270MOL0     C35572  10.466  11.227   2.597  0.5377 -0.4437  0.0694
  270MOL0     C35573   9.832  11.452   2.875 -0.8121  0.7008  1.0784
  270MOL0     C35574   9.710  11.378   2.887  0.0625 -0.3900 -0.1874
  270MOL0     H35575   9.372  10.996   2.696 -1.3802 -1.9843  1.2126
  270MOL0     H35576   9.150  10.889   2.726  0.0269 -0.7283 -0.5837
  270MOL0     H35577   8.790  11.139   2.619 -3.0802 -1.5286 -0.9238
  270MOL0     H35578   8.809  11.187   2.784  1.7660  2.1390 -3.8762
  270MOL0     H35579   8.670  10.957   2.837  0.1087  2.5066  1.7381
  270MOL0     H35580   8.669  10.940   2.661  2.1063  1.9622 -1.8256
  270MOL0     H35581   8.562  11.186   2.680 -1.7247  0.6019 -0.7865
  270MOL0     H35582   8.548  11.145   2.854 -0.2264 -0.6391  0.5263
  270MOL0     H35583   8.436  10.952   2.646 -0.4623  0.6152 -0.2805
  270MOL0     H35584   8.378  10.979   2.805  2.6319 -3.0986 -1.4346
  270MOL0     H35585   8.209  11.067   2.657  0.8689 -0.2744 -1.7661
  270MOL0     H35586   8.333  11.162   2.570 -0.2225 -1.5103 -0.9534
  270MOL0     H35587   8.363  11.318   2.756  0.2799 -1.4693  3.0531
  270MOL0     H35588   8.259  11.220   2.861  3.1544 -0.1872  1.3281
  270MOL0     H35589   8.192  11.339   2.585  3.8815  0.7453  0.3675
  270MOL0     H35590   8.075  11.255   2.689 -1.5296  1.7669 -2.3533
  270MOL0     H35591   8.201  11.500   2.781 -1.3981  2.4755  1.3337
  270MOL0     H35592   8.090  11.407   2.871 -0.6909  2.0646  0.3257
  270MOL0     H35593   7.838  11.379   2.768 -0.0280  1.5474  2.7733
  270MOL0     H35594   7.620  11.459   2.640  3.6007 -1.4810  1.1487
  270MOL0     H35595   7.655  11.533   2.488 -0.0987 -3.2521  1.2785
  270MOL0     H35596   7.640  11.755   2.574  3.0289  0.7415  1.0850
  270MOL0     H35597   7.629  11.705   2.744  0.9153 -0.7451 -0.3552
  270MOL0     H35598   7.415  11.568   2.673  1.2228  0.0282 -0.8865
  270MOL0     H35599   7.394  11.740   2.708  0.1830  1.9234 -0.5773
  270MOL0     H35600   7.412  11.772   2.448 -0.0204  1.0208  2.2039
  270MOL0     H35601   7.271  11.705   2.512 -0.9522 -0.3162  4.4196
  270MOL0     H35602   7.470  11.366   2.270 -2.3178  1.3995 -0.8333
  270MOL0     H35603   7.356  11.137   2.283 -1.3027  3.0489 -5.3244
  270MOL0     H35604   7.013  10.870   2.689 -0.5444  0.7135  0.0144
  270MOL0     H35605   6.820  10.726   2.681  1.8940  0.3939  1.0990
  270MOL0     H35606   6.533  10.712   2.316  3.7641 -1.7617  1.5001
  270MOL0     H35607   6.499  10.881   2.375  1.2796 -0.9835 -0.4541
  270MOL0     H35608   6.326  10.838   2.502 -0.5312  0.3554 -1.0495
  270MOL0     H35609   6.354  10.670   2.513 -0.7067  0.2591  0.1782
  270MOL0     H35610   6.315  10.647   2.257  1.7797 -0.7221  0.6190
  270MOL0     H35611   6.290  10.816   2.250 -0.0230  1.0529  0.8310
  270MOL0     H35612   6.126  10.602   2.399 -4.5264 -0.7014 -2.0472
  270MOL0     H35613   6.118  10.771   2.441  2.8151 -0.1960  0.2377
  270MOL0     H35614   6.048  10.669   2.155 -4.2646 -0.8214 -0.1557
  270MOL0     H35615   6.020  10.823   2.200 -1.4614 -0.6845 -1.1292
  270MOL0     H35616   5.870  10.703   2.389  2.2804  1.7655  0.0703
  270MOL0     H35617   5.897  10.553   2.298  1.4951  0.8356 -1.2278
  270MOL0     H35618   5.805  10.647   2.098  0.6348 -0.4168 -0.2037
  270MOL0     H35619   5.681  10.651   2.224  0.9596 -1.5925 -0.5636
  270MOL0     H35620   5.654  10.846   2.099  0.7074  2.0662 -1.9100
  270MOL0     H35621   5.822  10.884   2.072  0.6757 -2.4081  0.0924
  270MOL0     H35622   6.686  10.908   2.308  0.2017 -0.9730  0.1176
  270MOL0     H35623   6.901  11.019   2.302 -1.0477 -1.1627 -0.3575
  270MOL0     H35624   7.093  11.293   2.574  0.6949  0.2758  0.7603
  270MOL0     H35625   7.208  11.499   2.587 -1.6194 -2.5604  1.0772
  270MOL0     H35626   8.968  11.274   2.710 -1.4007 -0.5531  0.5028
  270MOL0     H35627   9.194  11.388   2.703 -0.0064  0.5532  0.5737
  270MOL0     H35628   9.610  11.409   2.564 -0.7843  2.5824  0.5734
  270MOL0     H35629   9.817  11.519   2.542  0.0553  1.9212  1.0362
  270MOL0     H35630  10.166  11.608   2.634  0.2739 -1.0601 -1.2380
  270MOL0     H35631  10.027  11.577   2.543 -0.0573  0.7959 -0.5789
  270MOL0     H35632  10.222  11.378   2.656  3.2633 -0.1159 -4.0471
  270MOL0     H35633  10.071  11.317   2.583 -1.8918  0.2854  2.2218
  270MOL0     H35634  10.295  11.477   2.445 -1.6977  2.2478  1.3324
  270MOL0     H35635  10.152  11.435   2.361  1.6173  2.6814 -0.0739
  270MOL0     H35636  10.192  11.189   2.447  1.8805 -1.3102  0.8103
  270MOL0     H35637  10.293  11.250   2.317 -0.0609  2.1551 -0.6445
  270MOL0     H35638  10.523  11.207   2.685 -1.9210 -0.2946  1.8112
  270MOL0     H35639   9.890  11.469   2.965  0.3953  0.4341  0.3708
  270MOL0     H35640   9.691  11.341   2.987  1.1463  0.8809  0.5249
  271MOL0     O35641   3.209   7.979  10.869 -0.0654  0.2362  0.3714
  271MOL0     C35642   3.260   7.907  10.955 -0.3901  0.8255 -0.7766
  271MOL0     O35643   3.183   7.843  11.055  0.2632 -0.5462 -0.2933
  271MOL0     C35644   3.048   7.856  11.044  0.0568  0.6248 -0.5104
  271MOL0     C35645   2.981   7.950  11.119  0.4359  0.0181  0.1508
  271MOL0     C35646   2.840   7.942  11.108 -0.6976  0.6760  0.9618
  271MOL0     C35647   2.771   7.848  11.028  0.3100 -0.7594 -0.3623
  271MOL0     O35648   2.635   7.849  11.012 -0.2477  0.7940 -0.1418
  271MOL0     C35649   2.541   7.932  11.093  0.5318 -0.1935 -0.2662
  271MOL0     C35650   2.406   7.862  11.097 -0.3648  0.0176 -0.3006
  271MOL0     C35651   2.300   7.962  11.154  0.1367 -0.1835 -0.7952
  271MOL0     C35652   2.157   7.893  11.151 -0.4680 -0.3378  0.6701
  271MOL0     C35653   2.062   7.985  11.221  0.4107 -0.2331  0.5035
  271MOL0     C35654   2.058   7.986  11.370  0.6877 -0.1389 -0.0987
  271MOL0     C35655   1.932   8.067  11.412 -0.6528  0.1335  0.2981
  271MOL0     C35656   1.918   8.059  11.563 -0.7992 -0.2103 -0.1335
  271MOL0     N35657   2.007   8.152  11.637 -0.9386  0.0409  0.0038
  271MOL0     C35658   1.973   8.279  11.660 -0.2568  0.2560  0.2497
  271MOL0     C35659   2.078   8.326  11.728 -0.0051  0.0869  0.1328
  271MOL0     C35660   2.109   8.472  11.765 -0.4427 -0.4248  0.2637
  271MOL0     C35661   2.037   8.576  11.680  0.2185 -0.5122  0.6226
  271MOL0     C35662   2.075   8.597  11.533  0.0902  0.2688  0.7060
  271MOL0     C35663   1.967   8.677  11.467  0.6541 -1.0790 -0.0994
  271MOL0     O35664   1.955   8.807  11.535  0.0949 -0.2159  0.7115
  271MOL0     C35665   1.901   8.908  11.462 -0.0982 -0.5393 -0.2650
  271MOL0     C35666   1.777   8.883  11.404  1.0480 -0.8277  0.8259
  271MOL0     C35667   1.720   8.994  11.334  1.0230 -0.1009  0.1247
  271MOL0     C35668   1.767   9.129  11.335 -0.1558  0.8833 -0.4168
  271MOL0     C35669   1.700   9.240  11.270 -0.5093 -0.2061  0.8282
  271MOL0     O35670   1.747   9.358  11.295 -0.4706  1.2869 -0.6894
  271MOL0     C35671   1.680   9.472  11.261  0.5536 -0.0466  0.0439
  271MOL0     C35672   1.649   9.515  11.132  0.9968  0.5764  0.0038
  271MOL0     C35673   1.574   9.632  11.109 -1.3642 -0.3599 -0.8095
  271MOL0     C35674   1.520   9.705  11.219 -0.0796  0.3059  0.1460
  271MOL0     O35675   1.444   9.811  11.187 -0.0423  0.2765 -0.0287
  271MOL0     C35676   1.356   9.865  11.284  0.0745  0.2967  0.7543
  271MOL0     C35677   1.284   9.987  11.224 -0.2808 -0.2091  0.5938
  271MOL0     C35678   1.169  10.029  11.321 -0.1590 -0.4258  0.3015
  271MOL0     C35679   1.082  10.145  11.261  0.5420 -0.7163  0.0733
  271MOL0     C35680   0.974  10.191  11.362 -0.1195  0.0169  0.2835
  271MOL0     C35681   0.899  10.304  11.301  0.0838 -0.1216  0.1498
  271MOL0     C35682   0.777  10.348  11.368  0.7338  0.1140 -0.6511
  271MOL0     C35683   0.649  10.314  11.296  0.5355  0.2532  0.4579
  271MOL0    Cl35684   0.645  10.381  11.130 -0.7773  0.1845  0.2929
  271MOL0     C35685   1.553   9.661  11.348  0.4706  1.0137 -0.1333
  271MOL0     C35686   1.637   9.553  11.367 -0.6266 -0.3883  0.0907
  271MOL0     O35687   1.612   9.218  11.192 -0.3062  1.0236  0.7895
  271MOL0     C35688   1.881   9.144  11.415  0.6663 -0.0215  0.5986
  271MOL0     C35689   1.941   9.040  11.483 -0.3744 -0.2098  0.6062
  271MOL0     N35690   2.173   8.224  11.734 -0.3437 -0.2798 -0.2375
  271MOL0     N35691   2.140   8.124  11.669  0.1016  0.4161  0.9181
  271MOL0     C35692   2.845   7.754  10.953 -0.4495 -0.8462 -0.1302
  271MOL0     C35693   2.980   7.760  10.971 -0.0677  0.4979 -0.7488
  271MOL0     C35694   3.400   7.910  10.959 -0.2169  0.3091  0.1161
  271MOL0     C35695   3.482   8.024  10.976 -0.3151  0.5188 -0.0111
  271MOL0     C35696   3.619   8.006  10.973 -0.2034  0.1145 -0.0765
  271MOL0     C35697   3.677   7.880  10.945  0.1581 -0.3304  0.7728
  271MOL0     O35698   3.810   7.871  10.923  0.1101 -0.6568 -0.0997
  271MOL0     C35699   3.889   7.765  10.982  0.1881  0.0415 -0.1526
  271MOL0     C35700   4.034   7.770  10.944  0.1578 -0.2334 -0.3765
  271MOL0     C35701   4.052   7.758  10.795  0.7148 -0.6171  0.1837
  271MOL0     C35702   4.190   7.788  10.753  0.4501  0.3364 -0.1082
  271MOL0     C35703   4.216   7.935  10.756  0.4872  0.6393  0.1153
  271MOL0     C35704   4.238   8.057  10.760  0.5040 -0.0227  0.4022
  271MOL0     C35705   3.598   7.766  10.942  0.5348  0.0685 -0.3630
  271MOL0     C35706   3.459   7.785  10.954  0.7660  0.6863 -0.1982
  271MOL0     H35707   3.020   8.033  11.176  2.0842 -1.2921  1.0399
  271MOL0     H35708   2.781   7.997  11.181 -2.0038 -0.6301  0.9443
  271MOL0     H35709   2.523   8.034  11.058 -1.2525  0.1311  1.4506
  271MOL0     H35710   2.579   7.932  11.195  1.9042  1.7385 -0.7328
  271MOL0     H35711   2.410   7.768  11.153 -5.2196  0.4200  1.2146
  271MOL0     H35712   2.364   7.838  10.998 -1.4954  0.6066  0.0189
  271MOL0     H35713   2.288   8.052  11.092  1.1867  1.4420  1.2438
  271MOL0     H35714   2.328   8.005  11.251  0.2146  1.0795 -1.3483
  271MOL0     H35715   2.123   7.884  11.047 -2.3869  1.4468  1.0866
  271MOL0     H35716   2.175   7.794  11.195  1.9828 -0.6920 -0.9224
  271MOL0     H35717   1.960   7.970  11.186  1.0019  0.3531 -1.6089
  271MOL0     H35718   2.095   8.085  11.191 -1.3290  0.5892  1.1836
  271MOL0     H35719   2.142   8.042  11.411 -2.0328  4.3438  0.0702
  271MOL0     H35720   2.037   7.885  11.406 -2.8269  0.4800 -0.0790
  271MOL0     H35721   1.954   8.169  11.381 -0.2371 -0.0834 -0.1284
  271MOL0     H35722   1.842   8.038  11.357 -0.8896  0.7509  0.3520
  271MOL0     H35723   1.928   7.955  11.596 -3.1500 -0.3489  0.3352
  271MOL0     H35724   1.814   8.088  11.578  0.2307  2.8902  1.6855
  271MOL0     H35725   1.894   8.334  11.610 -1.3095 -1.4036  0.0044
  271MOL0     H35726   2.217   8.485  11.767 -0.3739 -0.5831 -1.4680
  271MOL0     H35727   2.074   8.476  11.869  1.1641 -2.7579  0.9755
  271MOL0     H35728   2.055   8.674  11.726 -0.8141 -0.7793  1.6500
  271MOL0     H35729   1.930   8.555  11.691  0.1235  0.5273  2.0514
  271MOL0     H35730   2.167   8.651  11.507 -0.4695  1.7346  1.6176
  271MOL0     H35731   2.085   8.500  11.484  5.3386  1.3506 -1.0469
  271MOL0     H35732   1.871   8.624  11.477 -0.0411 -0.2696 -1.9964
  271MOL0     H35733   1.982   8.690  11.360  3.1599  2.4314  0.5058
  271MOL0     H35734   1.720   8.791  11.391 -1.9622  1.0808 -0.6433
  271MOL0     H35735   1.630   8.964  11.282  2.0005  0.7735 -2.1924
  271MOL0     H35736   1.682   9.452  11.050  1.9403 -1.0100  1.5203
  271MOL0     H35737   1.553   9.662  11.007  0.5357 -2.6489 -1.9656
  271MOL0     H35738   1.404   9.907  11.372 -1.7436  3.1257  0.5179
  271MOL0     H35739   1.275   9.793  11.304  0.3686 -0.5285 -0.8541
  271MOL0     H35740   1.225   9.954  11.138 -0.0684 -4.0963  1.7692
  271MOL0     H35741   1.355  10.069  11.209  0.4408 -0.8374  0.5549
  271MOL0     H35742   1.214  10.053  11.418  1.1515  1.9179 -0.8129
  271MOL0     H35743   1.097   9.947  11.330 -0.7377  0.1812  1.4287
  271MOL0     H35744   1.156  10.224  11.248  0.2809 -0.2841  1.1419
  271MOL0     H35745   1.033  10.120  11.166  0.7413  1.1671 -0.5666
  271MOL0     H35746   1.010  10.218  11.461  3.0863 -2.1060 -0.1495
  271MOL0     H35747   0.903  10.110  11.386  2.0726 -1.3005  2.7382
  271MOL0     H35748   0.873  10.292  11.196 -0.9175 -2.4190  0.5984
  271MOL0     H35749   0.973  10.385  11.304 -0.5491  0.5053 -0.7676
  271MOL0     H35750   0.763  10.310  11.469  0.4284 -0.1370 -0.7875
  271MOL0     H35751   0.791  10.456  11.375  0.3576  0.2276 -1.4381
  271MOL0     H35752   0.569  10.359  11.355  0.0854  0.8837 -0.5946
  271MOL0     H35753   0.634  10.206  11.293 -0.1297  0.3595 -1.0336
  271MOL0     H35754   1.523   9.709  11.441 -1.4512  0.9008 -0.6598
  271MOL0     H35755   1.667   9.534  11.470 -1.2109  1.8031  0.7310
  271MOL0     H35756   1.898   9.251  11.428 -1.4619  0.7393 -1.9838
  271MOL0     H35757   2.017   9.050  11.559  0.4455 -0.3063 -0.1803
  271MOL0     H35758   2.797   7.671  10.901 -1.2248  0.7622 -2.0948
  271MOL0     H35759   3.040   7.681  10.927 -1.1118 -1.9674  1.9492
  271MOL0     H35760   3.448   8.127  10.982 -0.9299  0.2672  1.4087
  271MOL0     H35761   3.693   8.085  10.986  0.8509 -0.9472  0.6239
  271MOL0     H35762   3.840   7.671  10.957 -1.2409  1.1840 -1.9209
  271MOL0     H35763   3.881   7.793  11.087  0.3543  2.7166 -0.7816
  271MOL0     H35764   4.069   7.874  10.954 -0.1227  0.3210 -3.8154
  271MOL0     H35765   4.105   7.714  11.005  3.0682 -0.6294 -3.7470
  271MOL0     H35766   3.976   7.821  10.747  2.3671  0.2230 -1.4233
  271MOL0     H35767   4.029   7.658  10.759  2.9708 -0.2023 -2.8016
  271MOL0     H35768   4.256   7.736  10.824 -1.1235 -3.1096 -0.9221
  271MOL0     H35769   4.202   7.742  10.654  2.5503 -2.1203  1.1507
  271MOL0     H35770   4.261   8.161  10.768  1.2063 -0.1749  0.4314
  271MOL0     H35771   3.640   7.666  10.937  0.5893  0.1390 -1.9142
  271MOL0     H35772   3.393   7.702  10.976 -1.5809  3.0721  2.7270
  272MOL0     O35773   0.226   1.017  10.909  0.1324  0.5693  0.2378
  272MOL0     C35774   0.146   1.044  10.826  0.5261 -0.7790 -0.6146
  272MOL0     O35775   0.150   0.999  10.691  1.0086  0.1436  0.1808
  272MOL0     C35776   0.271   0.951  10.649 -0.3581  0.1364 -0.9050
  272MOL0     C35777   0.276   0.823  10.594  0.2719  0.4988 -1.1446
  272MOL0     C35778   0.398   0.767  10.546 -0.1414 -0.2529  0.2105
  272MOL0     C35779   0.518   0.842  10.567  0.3509  0.3295 -0.1688
  272MOL0     O35780   0.630   0.788  10.507 -0.2026  0.3466 -0.1356
  272MOL0     C35781   0.756   0.829  10.568  0.2035  0.2612  0.5411
  272MOL0     C35782   0.817   0.938  10.480 -0.5685  0.8249  0.6635
  272MOL0     C35783   0.813   0.896  10.325 -0.0105 -0.0848 -0.7221
  272MOL0     C35784   0.889   0.986  10.222 -0.5191 -0.2050  0.4799
  272MOL0     C35785   0.868   0.937  10.080  0.9489  0.1311  0.0586
  272MOL0     C35786   0.921   0.795  10.079 -0.5774 -0.0205  0.3574
  272MOL0     C35787   0.946   0.765   9.919 -0.0886  0.1252  0.5499
  272MOL0     C35788   0.819   0.726   9.856 -0.3406  1.0638  0.1499
  272MOL0     N35789   0.755   0.616   9.919  0.7976 -0.7811  0.6519
  272MOL0     C35790   0.801   0.483   9.916  0.6474 -0.3671 -0.5383
  272MOL0     C35791   0.694   0.407   9.949 -0.8983  0.6309 -0.4892
  272MOL0     C35792   0.673   0.256   9.944 -1.3059 -0.9903  0.9731
  272MOL0     C35793   0.526   0.208   9.929  0.5736  0.7771  0.3638
  272MOL0     C35794   0.522   0.056   9.929 -0.0994 -0.0139  0.2514
  272MOL0     C35795   0.391  -0.008   9.882  0.5346  0.1562  0.0396
  272MOL0     O35796   0.291   0.025   9.981 -0.3623 -0.1667  0.7156
  272MOL0     C35797   0.168   0.061   9.934  0.3587 -0.0789 -0.5986
  272MOL0     C35798   0.105   0.008   9.821 -0.3678  0.3258 -0.4981
  272MOL0     C35799  -0.026   0.035   9.792  0.0793  2.1135  0.4371
  272MOL0     C35800  -0.102   0.122   9.867  0.1941  0.4911 -0.4550
  272MOL0     C35801  -0.246   0.140   9.839  0.3216  0.5044  0.2565
  272MOL0     O35802  -0.318   0.215   9.924 -0.4490 -0.6007 -0.6683
  272MOL0     C35803  -0.449   0.243   9.940  0.6171  0.0618  0.7469
  272MOL0     C35804  -0.551   0.211   9.845  0.0546 -0.2905  0.1224
  272MOL0     C35805  -0.679   0.215   9.891  0.2055 -0.0399  0.3472
  272MOL0     C35806  -0.716   0.252  10.018 -0.0876 -0.0330  0.4053
  272MOL0     O35807  -0.851   0.241  10.053 -0.3133 -0.4316  0.3384
  272MOL0     C35808  -0.897   0.311  10.171  0.1498  1.0236  0.1346
  272MOL0     C35809  -1.049   0.315  10.154  0.5761  0.0290 -0.1020
  272MOL0     C35810  -1.096   0.421  10.053 -0.0010 -0.2805 -0.1748
  272MOL0     C35811  -1.247   0.427  10.059 -0.5504  0.0059  0.1378
  272MOL0     C35812  -1.296   0.512   9.943 -0.0391 -0.0901  0.6087
  272MOL0     C35813  -1.448   0.540   9.940 -0.6295  0.2843 -0.2482
  272MOL0     C35814  -1.477   0.665  10.034  0.5576 -0.1254  0.7366
  272MOL0     C35815  -1.631   0.692  10.021 -0.6169 -0.8285  0.0547
  272MOL0    Cl35816  -1.731   0.548  10.052  0.0295 -0.0982  0.1360
  272MOL0     C35817  -0.615   0.288  10.109  1.2521 -1.2083  0.4035
  272MOL0     C35818  -0.482   0.287  10.070  0.3512 -0.5559 -0.1737
  272MOL0     O35819  -0.292   0.083   9.747  0.4340  0.7333  0.6586
  272MOL0     C35820  -0.036   0.187   9.972  0.5727  0.0867 -0.8387
  272MOL0     C35821   0.099   0.160  10.008 -0.0488 -0.5396 -0.1372
  272MOL0     N35822   0.592   0.491   9.972 -0.4550 -1.0222  0.2438
  272MOL0     N35823   0.627   0.615   9.966  0.6756  0.2169  0.2691
  272MOL0     C35824   0.511   0.970  10.623 -0.0259  0.3018 -0.5261
  272MOL0     C35825   0.390   1.031  10.651 -0.3657 -0.4311  0.5889
  272MOL0     C35826   0.038   1.128  10.868  0.3372 -0.6635  0.0375
  272MOL0     C35827  -0.074   1.151  10.781  0.0707  0.8589 -0.2618
  272MOL0     C35828  -0.191   1.215  10.824 -0.5389 -0.3839  1.1763
  272MOL0     C35829  -0.200   1.262  10.954  0.1280 -0.0025  0.2165
  272MOL0     O35830  -0.310   1.339  10.985 -0.3607  0.5453 -0.8793
  272MOL0     C35831  -0.338   1.358  11.120 -0.8120  0.2183 -0.1758
  272MOL0     C35832  -0.486   1.396  11.145  1.1255 -0.6952 -0.0637
  272MOL0     C35833  -0.599   1.290  11.124  0.6649  0.0774 -0.3406
  272MOL0     C35834  -0.718   1.347  11.188  0.2225 -0.0389 -0.1593
  272MOL0     C35835  -0.831   1.252  11.163  0.2203  0.7612  0.1744
  272MOL0     C35836  -0.923   1.165  11.158  1.4920 -0.4222 -0.0967
  272MOL0     C35837  -0.090   1.249  11.044 -0.7550 -0.1794  0.5550
  272MOL0     C35838   0.024   1.184  10.998 -1.0423  0.2186  0.2161
  272MOL0     H35839   0.182   0.770  10.606  0.7507 -0.1806 -0.3388
  272MOL0     H35840   0.408   0.669  10.501  0.9464 -1.0896  2.1600
  272MOL0     H35841   0.822   0.742  10.576 -0.1137 -0.0716 -0.2817
  272MOL0     H35842   0.747   0.869  10.669  2.1741  1.1756  0.4122
  272MOL0     H35843   0.922   0.948  10.511 -0.9201  1.9651  1.5620
  272MOL0     H35844   0.776   1.035  10.512 -0.5911  1.0100  0.0873
  272MOL0     H35845   0.710   0.891  10.290 -0.3124 -1.0908  0.2386
  272MOL0     H35846   0.856   0.796  10.339 -0.3027 -0.2173 -0.7569
  272MOL0     H35847   0.848   1.085  10.246 -0.7273 -0.8131  2.8623
  272MOL0     H35848   0.994   0.998  10.252 -0.5744  2.2965 -0.0867
  272MOL0     H35849   0.915   0.998  10.002  2.7822  0.0341  1.0513
  272MOL0     H35850   0.760   0.943  10.058  1.5851  0.2121 -3.8454
  272MOL0     H35851   0.845   0.726  10.117  0.1994 -0.2514  1.5215
  272MOL0     H35852   1.015   0.789  10.135 -1.0669 -0.0547  1.1873
  272MOL0     H35853   0.981   0.856   9.870  1.4597 -0.4064  0.6402
  272MOL0     H35854   1.020   0.685   9.918  1.2427  1.1897  3.2933
  272MOL0     H35855   0.829   0.712   9.748 -0.7402 -1.7649  0.4050
  272MOL0     H35856   0.765   0.820   9.864 -0.4017  1.0619 -0.1972
  272MOL0     H35857   0.896   0.458   9.869  1.7776  1.7056  0.4846
  272MOL0     H35858   0.722   0.218  10.034 -0.2425  1.2107  1.3987
  272MOL0     H35859   0.723   0.219   9.854 -2.6902 -0.3357 -0.1062
  272MOL0     H35860   0.493   0.255   9.835  0.5910 -1.9908 -1.1445
  272MOL0     H35861   0.477   0.237  10.022  0.1972  0.5289  0.2468
  272MOL0     H35862   0.602   0.018   9.865  1.4055 -0.3651  2.2405
  272MOL0     H35863   0.547   0.025  10.031 -0.3767  1.3848  0.7765
  272MOL0     H35864   0.402  -0.117   9.882  3.7086  0.3211 -2.3482
  272MOL0     H35865   0.372   0.034   9.783 -2.7694  0.1748  0.5863
  272MOL0     H35866   0.150  -0.063   9.753 -2.3260  0.9742 -2.6043
  272MOL0     H35867  -0.063  -0.011   9.701  1.1725  1.5642  0.2521
  272MOL0     H35868  -0.524   0.185   9.743  2.8418 -1.8538  1.1348
  272MOL0     H35869  -0.764   0.203   9.825  0.4730  4.7267 -1.2348
  272MOL0     H35870  -0.853   0.410  10.184  2.8103  0.1634 -1.5890
  272MOL0     H35871  -0.875   0.255  10.263  1.1710 -2.9660 -2.3048
  272MOL0     H35872  -1.097   0.356  10.243 -1.6974  0.0391 -1.2495
  272MOL0     H35873  -1.095   0.218  10.134 -0.1032  0.6456 -1.7437
  272MOL0     H35874  -1.068   0.392   9.951  3.2957 -2.2886  1.1343
  272MOL0     H35875  -1.058   0.519  10.081  0.5763 -1.1257  2.2501
  272MOL0     H35876  -1.277   0.322  10.058  1.4823 -0.6183  0.2456
  272MOL0     H35877  -1.278   0.478  10.151 -1.7242  4.0053 -2.2283
  272MOL0     H35878  -1.277   0.444   9.860 -0.5536  1.4347 -0.8129
  272MOL0     H35879  -1.238   0.600   9.913 -2.4693  0.3101 -3.9128
  272MOL0     H35880  -1.512   0.461   9.980 -1.3982  0.4989 -1.0225
  272MOL0     H35881  -1.480   0.549   9.835 -1.1795 -1.8083 -0.3021
  272MOL0     H35882  -1.445   0.644  10.136 -1.8370 -0.5372  1.4631
  272MOL0     H35883  -1.426   0.756  10.001  1.2419 -0.7733 -0.0328
  272MOL0     H35884  -1.662   0.739   9.928 -0.8550  0.3640  0.7164
  272MOL0     H35885  -1.663   0.760  10.101 -0.8744  1.2091 -1.7071
  272MOL0     H35886  -0.628   0.297  10.216  0.1846 -4.6302  0.6925
  272MOL0     H35887  -0.410   0.313  10.146 -0.4521  0.8673  0.1399
  272MOL0     H35888  -0.103   0.235  10.043 -0.9274 -0.6721 -1.6754
  272MOL0     H35889   0.149   0.202  10.095  2.4358 -2.5589 -0.4759
  272MOL0     H35890   0.606   1.020  10.639  0.3407 -1.0364  1.9526
  272MOL0     H35891   0.382   1.136  10.679  1.5056 -0.3707  1.0425
  272MOL0     H35892  -0.063   1.131  10.675  2.8568  2.0530 -0.2917
  272MOL0     H35893  -0.268   1.239  10.752 -0.1782  0.2616  1.0067
  272MOL0     H35894  -0.267   1.431  11.160  1.6159 -1.5748 -0.9380
  272MOL0     H35895  -0.327   1.270  11.184 -0.2621  1.2860  1.2498
  272MOL0     H35896  -0.481   1.430  11.249 -0.4445 -0.1515 -0.1390
  272MOL0     H35897  -0.509   1.482  11.081 -4.9373  0.7306  3.2149
  272MOL0     H35898  -0.569   1.197  11.173  1.2863 -0.2440 -1.3113
  272MOL0     H35899  -0.613   1.267  11.017 -2.0191 -2.6562  0.4600
  272MOL0     H35900  -0.698   1.375  11.292 -0.7881  2.2842 -0.5321
  272MOL0     H35901  -0.741   1.448  11.155 -2.7839 -0.0366  1.5400
  272MOL0     H35902  -0.984   1.079  11.175  1.7232 -0.6118 -0.2180
  272MOL0     H35903  -0.093   1.269  11.150 -1.4436  0.8589  0.3585
  272MOL0     H35904   0.096   1.168  11.077  1.0055  4.2195 -0.5247
  273MOL0     O35905   3.246   5.732   7.834 -0.0311 -0.1212 -0.0559
  273MOL0     C35906   3.280   5.704   7.721 -0.5953  0.2961 -0.0736
  273MOL0     O35907   3.396   5.742   7.657  0.3059  0.3603 -0.3249
  273MOL0     C35908   3.492   5.820   7.715  0.2439 -0.3107  0.2831
  273MOL0     C35909   3.596   5.776   7.793 -0.0732 -0.2455  0.8717
  273MOL0     C35910   3.697   5.871   7.822  0.4521 -0.1627  0.0030
  273MOL0     C35911   3.685   6.011   7.792 -0.0824  1.2405 -0.3551
  273MOL0     O35912   3.797   6.085   7.814  0.7271 -0.0832  0.2118
  273MOL0     C35913   3.775   6.219   7.869 -0.3685 -0.0581 -0.1776
  273MOL0     C35914   3.772   6.211   8.029  0.1671  0.3527  0.1744
  273MOL0     C35915   3.650   6.139   8.090 -0.3314  0.5235 -0.4693
  273MOL0     C35916   3.518   6.213   8.080  0.0244 -0.2492  0.4909
  273MOL0     C35917   3.410   6.164   8.175 -1.0831 -1.5505  0.4514
  273MOL0     C35918   3.358   6.041   8.110  0.4316  0.4173  1.2288
  273MOL0     C35919   3.229   5.980   8.182  0.1350  0.1166  1.6327
  273MOL0     C35920   3.247   5.836   8.213 -0.1983 -0.5916  0.5458
  273MOL0     N35921   3.123   5.767   8.252  0.1108 -0.2937 -0.7018
  273MOL0     C35922   3.065   5.661   8.191  0.7327  0.2599  0.4251
  273MOL0     C35923   2.962   5.615   8.275 -0.6819 -0.7227  0.0006
  273MOL0     C35924   2.873   5.494   8.248 -0.7908 -0.4355  0.1167
  273MOL0     C35925   2.726   5.535   8.216 -0.4354 -0.1543 -0.1666
  273MOL0     C35926   2.672   5.642   8.313 -0.4763 -0.1405  0.0070
  273MOL0     C35927   2.667   5.599   8.456  0.6616  0.1013  0.4938
  273MOL0     O35928   2.552   5.510   8.482  0.4727  0.5229  0.0028
  273MOL0     C35929   2.427   5.555   8.493  0.4380 -0.3203  0.2199
  273MOL0     C35930   2.325   5.461   8.482  0.7733  0.5030  0.3130
  273MOL0     C35931   2.190   5.496   8.499  0.6043  1.4366  0.2231
  273MOL0     C35932   2.152   5.626   8.516  0.3224  0.2587 -0.0107
  273MOL0     C35933   2.009   5.667   8.554 -0.6023 -0.7749 -0.2502
  273MOL0     O35934   1.910   5.602   8.496  0.2351  0.3388 -0.5643
  273MOL0     C35935   1.777   5.602   8.531  0.5743  0.3030  0.5241
  273MOL0     C35936   1.701   5.696   8.606 -1.1277 -0.8426 -0.2956
  273MOL0     C35937   1.571   5.692   8.628  0.5714  0.6754  0.6053
  273MOL0     C35938   1.491   5.596   8.560 -0.0760 -0.6698 -0.8710
  273MOL0     O35939   1.356   5.610   8.589  0.2810  0.1439  0.5939
  273MOL0     C35940   1.267   5.506   8.570 -0.8069  0.7821  0.2581
  273MOL0     C35941   1.275   5.400   8.670  0.2648 -0.8204  0.1263
  273MOL0     C35942   1.217   5.262   8.611 -1.0295  0.7528 -0.4938
  273MOL0     C35943   1.182   5.177   8.738 -0.5640 -0.1422 -0.2867
  273MOL0     C35944   1.154   5.034   8.703  0.3884  0.0309  0.5997
  273MOL0     C35945   1.009   5.021   8.634  0.3940  0.1007 -0.3268
  273MOL0     C35946   0.957   4.882   8.639  0.4964  0.1457  0.0740
  273MOL0     C35947   0.858   4.852   8.527 -0.1669 -0.1315 -0.1595
  273MOL0    Cl35948   0.737   4.973   8.502 -0.1801  0.1252 -0.3697
  273MOL0     C35949   1.557   5.500   8.489  0.2820  0.8031  0.0769
  273MOL0     C35950   1.698   5.495   8.481 -0.8712 -0.6077  0.4364
  273MOL0     O35951   1.999   5.771   8.626 -0.7801  0.1006  0.6585
  273MOL0     C35952   2.248   5.725   8.493 -1.8384  0.2274 -0.7221
  273MOL0     C35953   2.387   5.690   8.500 -0.4476  0.0652  0.1636
  273MOL0     N35954   2.955   5.709   8.381 -0.6017 -0.4701 -0.1989
  273MOL0     N35955   3.050   5.791   8.367 -0.1749 -1.1037  0.7637
  273MOL0     C35956   3.572   6.057   7.728  1.1649 -0.0465  0.1195
  273MOL0     C35957   3.480   5.962   7.686 -0.4851 -0.0022  0.0282
  273MOL0     C35958   3.181   5.629   7.645 -0.2928  0.1875 -0.2229
  273MOL0     C35959   3.228   5.525   7.548  0.6501 -0.5038  0.0428
  273MOL0     C35960   3.131   5.454   7.477 -0.7804 -0.4615 -0.1985
  273MOL0     C35961   3.000   5.467   7.499 -1.0017 -0.5529  0.5815
  273MOL0     O35962   2.920   5.391   7.426  0.3367  0.4576  0.8461
  273MOL0     C35963   2.777   5.396   7.437  0.3531  0.6109 -0.0558
  273MOL0     C35964   2.704   5.296   7.343 -0.1400  0.2477  0.8657
  273MOL0     C35965   2.553   5.294   7.365  0.1951 -0.0802 -0.4204
  273MOL0     C35966   2.478   5.211   7.250  0.0474 -0.2889  0.9036
  273MOL0     C35967   2.338   5.257   7.238  0.5740 -0.0822  0.9090
  273MOL0     C35968   2.225   5.303   7.237 -0.7005  0.6878 -0.0979
  273MOL0     C35969   2.954   5.555   7.599 -0.5636 -0.6836  0.2738
  273MOL0     C35970   3.046   5.634   7.673 -1.4399 -0.1038 -0.0412
  273MOL0     H35971   3.595   5.674   7.829 -0.3177  0.6370  3.6036
  273MOL0     H35972   3.787   5.823   7.859 -0.0694 -2.8032 -1.9250
  273MOL0     H35973   3.688   6.272   7.829 -2.3980 -1.6445  1.9011
  273MOL0     H35974   3.859   6.280   7.834 -1.4073  1.7379  0.3346
  273MOL0     H35975   3.781   6.312   8.070 -0.9432 -0.1576  1.8122
  273MOL0     H35976   3.854   6.143   8.053 -1.0166 -2.1373 -2.2693
  273MOL0     H35977   3.661   6.130   8.199 -0.8102  1.7864 -0.3005
  273MOL0     H35978   3.635   6.041   8.045 -4.7324  1.2920 -1.0724
  273MOL0     H35979   3.544   6.318   8.099  0.8604 -0.3081 -0.2585
  273MOL0     H35980   3.478   6.197   7.980 -1.3726 -0.1111  1.0092
  273MOL0     H35981   3.332   6.241   8.181  1.0192  0.6744  0.7816
  273MOL0     H35982   3.451   6.150   8.275  0.9556  1.0626  0.0852
  273MOL0     H35983   3.427   5.958   8.092  2.6143  2.8714 -3.1683
  273MOL0     H35984   3.321   6.074   8.013 -1.0135  0.5013  1.7710
  273MOL0     H35985   3.202   6.037   8.271 -3.2486 -0.5009  1.1384
  273MOL0     H35986   3.141   5.998   8.120 -2.4950 -4.2174  3.6560
  273MOL0     H35987   3.320   5.825   8.294  1.0969 -2.6711 -0.7898
  273MOL0     H35988   3.270   5.788   8.117 -2.5623 -2.9371  1.0333
  273MOL0     H35989   3.097   5.623   8.095  1.5757 -1.2654  1.2734
  273MOL0     H35990   2.874   5.426   8.333  1.8059 -1.3256 -0.5229
  273MOL0     H35991   2.923   5.447   8.163 -1.0108 -0.6297  0.0960
  273MOL0     H35992   2.649   5.457   8.208  1.4595 -2.3890  1.6663
  273MOL0     H35993   2.741   5.579   8.117  0.7759 -0.1132  0.0241
  273MOL0     H35994   2.729   5.735   8.301 -1.7552  0.8963  1.4740
  273MOL0     H35995   2.567   5.660   8.287 -0.0074  3.9400  0.1935
  273MOL0     H35996   2.670   5.687   8.520 -0.1475  1.1695 -0.8982
  273MOL0     H35997   2.758   5.551   8.495  0.8121 -0.5276 -0.5967
  273MOL0     H35998   2.342   5.356   8.461 -1.2202  0.1896  0.1077
  273MOL0     H35999   2.113   5.420   8.507  2.3404 -0.5395 -0.9341
  273MOL0     H36000   1.756   5.785   8.638  0.9567 -1.7075 -1.2805
  273MOL0     H36001   1.544   5.771   8.697  1.5553  1.1690  0.4413
  273MOL0     H36002   1.291   5.458   8.475  2.2406  1.6672  0.4464
  273MOL0     H36003   1.164   5.538   8.555 -0.5973  0.2986 -2.6572
  273MOL0     H36004   1.216   5.418   8.761 -1.8202 -1.1230 -1.1038
  273MOL0     H36005   1.377   5.382   8.706  0.0912 -0.7471  0.6658
  273MOL0     H36006   1.287   5.203   8.551 -1.4430 -0.1623 -0.1079
  273MOL0     H36007   1.122   5.275   8.558 -0.6661 -0.4464 -1.5005
  273MOL0     H36008   1.274   5.178   8.799  0.9890  0.9288 -2.5152
  273MOL0     H36009   1.106   5.211   8.809  0.3734 -2.8036  2.2023
  273MOL0     H36010   1.154   4.966   8.789  2.2679 -3.6401 -1.9867
  273MOL0     H36011   1.233   4.994   8.638 -1.2026  0.2906 -1.5940
  273MOL0     H36012   1.015   5.066   8.534 -1.2761 -2.0279 -1.4547
  273MOL0     H36013   0.945   5.082   8.699  3.4348  2.6746  0.5152
  273MOL0     H36014   1.043   4.825   8.601  2.8194  2.3884  1.6521
  273MOL0     H36015   0.920   4.854   8.738  0.1416  2.8944  0.7781
  273MOL0     H36016   0.799   4.764   8.555 -1.1577  0.0182 -1.6482
  273MOL0     H36017   0.912   4.846   8.433 -2.1497  1.8471 -1.5291
  273MOL0     H36018   1.502   5.425   8.432  0.1087  0.7185  0.3514
  273MOL0     H36019   1.758   5.418   8.433  1.7348  0.9946  0.8786
  273MOL0     H36020   2.213   5.826   8.475 -1.7792  0.1427 -1.3156
  273MOL0     H36021   2.459   5.770   8.484 -0.0207 -0.6614 -1.9587
  273MOL0     H36022   3.560   6.162   7.703 -0.5628 -0.2460  0.0460
  273MOL0     H36023   3.413   6.011   7.616  3.0291  1.1591 -2.8587
  273MOL0     H36024   3.329   5.512   7.512  2.0922 -0.1769  3.6179
  273MOL0     H36025   3.170   5.377   7.411 -0.1171  1.3701 -2.0505
  273MOL0     H36026   2.756   5.498   7.405  1.0587  0.9428  0.5053
  273MOL0     H36027   2.737   5.385   7.539  0.5290  3.0583  0.3408
  273MOL0     H36028   2.724   5.333   7.243  0.6333 -1.4541  0.3478
  273MOL0     H36029   2.754   5.198   7.348  0.7752  0.7213  1.1104
  273MOL0     H36030   2.527   5.400   7.366  0.1887 -0.0767  1.0251
  273MOL0     H36031   2.533   5.248   7.462  1.5175  1.2407  0.5158
  273MOL0     H36032   2.520   5.218   7.149 -3.5619  0.8357 -0.6827
  273MOL0     H36033   2.486   5.103   7.264 -2.9463 -0.6668  0.2493
  273MOL0     H36034   2.122   5.333   7.244 -1.9945 -2.7601 -1.7982
  273MOL0     H36035   2.852   5.573   7.631 -0.4706  0.2758  0.0570
  273MOL0     H36036   3.013   5.696   7.756  0.5409  2.7573 -1.2390
  274MOL0     O36037   1.692   2.931   3.319  0.5205 -1.1290 -0.1376
  274MOL0     C36038   1.754   2.955   3.423  0.4745 -0.6530  0.4342
  274MOL0     O36039   1.760   2.881   3.537 -0.2431 -0.7516  0.3291
  274MOL0     C36040   1.693   2.770   3.574 -0.4333 -0.0059  0.2068
  274MOL0     C36041   1.746   2.699   3.684  0.2610  0.4548  0.6417
  274MOL0     C36042   1.669   2.586   3.721 -0.4483  0.3911 -0.7243
  274MOL0     C36043   1.561   2.542   3.654 -0.1467  0.3167 -0.1617
  274MOL0     O36044   1.500   2.436   3.714  0.6731 -0.3136  0.1566
  274MOL0     C36045   1.402   2.362   3.640 -0.3579 -0.1436  0.4550
  274MOL0     C36046   1.344   2.250   3.718 -0.4713 -0.0734 -0.4683
  274MOL0     C36047   1.208   2.208   3.671 -0.8835 -0.6485  0.9555
  274MOL0     C36048   1.132   2.120   3.775 -0.1870 -0.4492  0.0409
  274MOL0     C36049   0.987   2.098   3.728  0.5528 -0.2508  0.1241
  274MOL0     C36050   0.975   2.020   3.599 -0.8877  0.5553 -0.5361
  274MOL0     C36051   0.820   1.998   3.565  0.4046 -0.5103 -0.6053
  274MOL0     C36052   0.810   1.891   3.460 -0.1834  0.7500  0.4903
  274MOL0     N36053   0.674   1.852   3.416  0.6210  0.1736  0.1837
  274MOL0     C36054   0.608   1.892   3.314  0.4732  0.4845  0.4644
  274MOL0     C36055   0.490   1.829   3.319 -0.0371  0.3532 -0.0308
  274MOL0     C36056   0.364   1.834   3.221 -0.2239  0.1838 -0.0902
  274MOL0     C36057   0.389   1.715   3.124  0.1208 -0.7993 -0.9893
  274MOL0     C36058   0.326   1.722   2.984  0.5577 -0.1159  0.2447
  274MOL0     C36059   0.176   1.668   2.992  0.2084  1.1823 -0.0798
  274MOL0     O36060   0.084   1.752   3.066  0.5955 -0.0521  0.3603
  274MOL0     C36061  -0.014   1.692   3.144 -0.9082  0.4095 -0.4159
  274MOL0     C36062  -0.055   1.557   3.126  0.1894  0.2924  0.2986
  274MOL0     C36063  -0.168   1.506   3.199  0.6074 -0.1505 -0.3793
  274MOL0     C36064  -0.238   1.592   3.291 -1.2071  0.8955  0.0446
  274MOL0     C36065  -0.379   1.555   3.325 -0.3542 -1.0012 -0.4574
  274MOL0     O36066  -0.430   1.447   3.269  0.7991  0.4392  0.6754
  274MOL0     C36067  -0.563   1.428   3.280 -0.8553 -0.4551 -0.6465
  274MOL0     C36068  -0.632   1.412   3.405 -0.2803  0.1161 -0.3223
  274MOL0     C36069  -0.776   1.396   3.405 -0.0865 -0.4657  0.3746
  274MOL0     C36070  -0.852   1.385   3.283 -0.0060  1.2406  0.1948
  274MOL0     O36071  -0.979   1.333   3.295  0.0349  0.6099 -0.4968
  274MOL0     C36072  -1.074   1.362   3.195  0.2632  0.3138 -0.7998
  274MOL0     C36073  -1.215   1.313   3.226 -0.0528  0.3456  0.4384
  274MOL0     C36074  -1.250   1.365   3.369  0.2510 -0.0070  0.5272
  274MOL0     C36075  -1.398   1.361   3.397  0.2578  0.2036 -0.3650
  274MOL0     C36076  -1.455   1.215   3.396 -0.5501  1.1315  0.0303
  274MOL0     C36077  -1.602   1.228   3.418  0.8694  0.6545  0.1830
  274MOL0     C36078  -1.637   1.310   3.545 -0.5180 -0.1424 -0.2774
  274MOL0     C36079  -1.785   1.302   3.588 -0.7930 -0.0849  0.7167
  274MOL0    Cl36080  -1.807   1.401   3.733  0.0333 -0.4179 -0.0656
  274MOL0     C36081  -0.774   1.389   3.163 -0.0126 -0.0952 -0.6501
  274MOL0     C36082  -0.636   1.418   3.159 -0.1217  0.3295 -0.7345
  274MOL0     O36083  -0.432   1.621   3.414  0.0696  0.1454  0.0338
  274MOL0     C36084  -0.185   1.719   3.315 -0.4807  0.1120 -0.3979
  274MOL0     C36085  -0.077   1.771   3.238 -0.2038  0.2420  0.5971
  274MOL0     N36086   0.489   1.750   3.438  0.3043  0.2138  0.2019
  274MOL0     N36087   0.601   1.762   3.485  0.2888 -0.8710 -0.0608
  274MOL0     C36088   1.510   2.612   3.547  0.3743 -0.1705  0.7549
  274MOL0     C36089   1.572   2.729   3.510 -0.2024  1.0479  0.0343
  274MOL0     C36090   1.855   3.059   3.412 -0.5069 -0.0242  0.0391
  274MOL0     C36091   1.897   3.127   3.523  0.2430 -0.5685 -0.4371
  274MOL0     C36092   1.993   3.229   3.518 -0.4857  0.2168 -0.3995
  274MOL0     C36093   2.048   3.264   3.396 -0.5179 -0.6400  0.8089
  274MOL0     O36094   2.159   3.344   3.387  0.2646 -0.0987 -0.4747
  274MOL0     C36095   2.221   3.386   3.269  0.7553 -0.6691 -0.4154
  274MOL0     C36096   2.329   3.288   3.217 -0.0112  0.1510  0.6018
  274MOL0     C36097   2.365   3.323   3.071 -0.9075  0.1099  0.1512
  274MOL0     C36098   2.266   3.265   2.969 -0.9692 -0.0744  0.2088
  274MOL0     C36099   2.316   3.267   2.833 -0.7598  1.2561  0.2631
  274MOL0     C36100   2.376   3.271   2.723  0.0555  0.4088  0.7502
  274MOL0     C36101   2.008   3.197   3.282  0.1209  0.0317 -0.0857
  274MOL0     C36102   1.905   3.101   3.288 -0.6352  0.3510  0.0656
  274MOL0     H36103   1.839   2.717   3.738  1.3351  1.3728 -1.4040
  274MOL0     H36104   1.696   2.530   3.811 -1.4915 -1.8709 -1.7359
  274MOL0     H36105   1.443   2.329   3.544 -1.2951  1.0528 -0.3884
  274MOL0     H36106   1.325   2.437   3.622  1.0252  2.6096  4.4981
  274MOL0     H36107   1.352   2.282   3.823  1.3232  0.0323 -0.6135
  274MOL0     H36108   1.414   2.167   3.706 -0.8824 -0.4306 -0.4262
  274MOL0     H36109   1.220   2.147   3.582  1.1614 -0.0921  0.8102
  274MOL0     H36110   1.149   2.296   3.644 -2.0652 -0.9871  2.2948
  274MOL0     H36111   1.181   2.023   3.790  2.0361  0.6830  0.4491
  274MOL0     H36112   1.144   2.169   3.872  1.5410  0.8118 -0.7583
  274MOL0     H36113   0.923   2.185   3.711 -0.8870 -1.5150 -1.2956
  274MOL0     H36114   0.946   2.036   3.808  2.2863  1.2233  2.2515
  274MOL0     H36115   1.019   1.922   3.621 -0.0999  1.1641  0.7416
  274MOL0     H36116   1.036   2.060   3.519  0.4498 -0.3709 -0.0171
  274MOL0     H36117   0.766   1.958   3.652  0.7433  2.3634  1.0687
  274MOL0     H36118   0.764   2.090   3.547  0.1457 -0.9969 -2.5317
  274MOL0     H36119   0.852   1.798   3.499 -0.5527  0.5778  0.4771
  274MOL0     H36120   0.871   1.931   3.378 -1.0574  2.5725  0.6670
  274MOL0     H36121   0.644   1.958   3.236 -0.8223 -0.2847 -0.8443
  274MOL0     H36122   0.351   1.933   3.175 -0.2113 -1.3868 -3.8685
  274MOL0     H36123   0.269   1.811   3.270 -0.5238 -0.2687 -0.8684
  274MOL0     H36124   0.356   1.624   3.174 -2.4858 -0.2020 -1.5080
  274MOL0     H36125   0.498   1.714   3.110 -0.0519 -0.9560 -2.4696
  274MOL0     H36126   0.322   1.828   2.955  0.6277 -0.3897 -0.7821
  274MOL0     H36127   0.381   1.660   2.913 -1.1969 -2.6073  0.9289
  274MOL0     H36128   0.190   1.572   3.042  1.9059  0.8413 -1.1222
  274MOL0     H36129   0.135   1.646   2.893  0.6865  0.2079 -0.0744
  274MOL0     H36130   0.003   1.481   3.074 -0.8781  0.4674 -1.1939
  274MOL0     H36131  -0.198   1.408   3.165  0.9951 -0.1010 -0.8724
  274MOL0     H36132  -0.584   1.423   3.502 -1.2821  2.6695 -0.0145
  274MOL0     H36133  -0.833   1.384   3.496  1.6640 -1.2812  1.4314
  274MOL0     H36134  -1.040   1.332   3.095  1.7851  0.6910 -0.4174
  274MOL0     H36135  -1.070   1.470   3.176  1.2247  0.2507 -1.0366
  274MOL0     H36136  -1.223   1.204   3.222  4.9265 -0.1966 -0.4869
  274MOL0     H36137  -1.287   1.345   3.149  2.0044 -1.1132 -2.2724
  274MOL0     H36138  -1.225   1.471   3.378  0.6414 -0.1692  1.4513
  274MOL0     H36139  -1.205   1.305   3.448 -1.1271 -1.9156 -0.0731
  274MOL0     H36140  -1.419   1.419   3.488  2.9955  1.4569 -0.4340
  274MOL0     H36141  -1.438   1.410   3.308 -0.0510 -0.2562 -0.4824
  274MOL0     H36142  -1.404   1.156   3.472 -1.3048  1.8912  1.1804
  274MOL0     H36143  -1.449   1.162   3.301  3.1782  0.3670  0.5727
  274MOL0     H36144  -1.652   1.131   3.426  0.6308  0.8925  2.1933
  274MOL0     H36145  -1.646   1.283   3.334  0.2203 -1.5565 -0.9898
  274MOL0     H36146  -1.566   1.282   3.623 -1.1530  1.3177  0.8525
  274MOL0     H36147  -1.616   1.414   3.518  2.2110 -0.2278  1.1650
  274MOL0     H36148  -1.801   1.195   3.602  1.3510 -0.4357  0.8999
  274MOL0     H36149  -1.853   1.345   3.514 -0.6826 -0.6208  0.2976
  274MOL0     H36150  -0.809   1.356   3.065  1.6338  1.6374 -1.8989
  274MOL0     H36151  -0.581   1.437   3.067 -0.3047  2.1960 -0.5132
  274MOL0     H36152  -0.256   1.787   3.362 -3.2053 -1.4986 -1.8926
  274MOL0     H36153  -0.063   1.879   3.242  1.9181  0.0910 -0.8541
  274MOL0     H36154   1.414   2.587   3.503 -0.6981  2.7743  1.2038
  274MOL0     H36155   1.514   2.786   3.437  0.3293 -1.1665 -2.2645
  274MOL0     H36156   1.839   3.105   3.613 -1.9006 -1.7137 -2.0102
  274MOL0     H36157   2.043   3.264   3.607  2.7490 -0.3528 -1.8416
  274MOL0     H36158   2.270   3.482   3.289  0.8702  0.2387 -4.1794
  274MOL0     H36159   2.149   3.409   3.190  1.0548  2.5068  0.1182
  274MOL0     H36160   2.424   3.281   3.270 -1.7375  1.4627  4.2088
  274MOL0     H36161   2.286   3.188   3.229 -2.3791  0.9368 -0.7203
  274MOL0     H36162   2.456   3.267   3.047 -1.2493  0.0547 -1.0751
  274MOL0     H36163   2.373   3.431   3.064  0.2164  0.0710  0.6080
  274MOL0     H36164   2.214   3.172   2.994 -0.0048 -0.1268  2.3104
  274MOL0     H36165   2.196   3.348   2.976 -0.1993  0.4625  2.4550
  274MOL0     H36166   2.436   3.301   2.639 -1.9877 -0.3333 -1.0645
  274MOL0     H36167   2.055   3.218   3.186 -0.7532 -3.5533 -1.4920
  274MOL0     H36168   1.883   3.058   3.191  2.4865  1.3531 -1.2199
  275MOL0     O36169  11.134   4.962   7.558  0.0548  0.7986 -0.3473
  275MOL0     C36170  11.138   5.037   7.655  0.1524 -1.3138  0.1750
  275MOL0     O36171  11.046   5.134   7.679  0.5785  0.1739  0.3338
  275MOL0     C36172  10.914   5.125   7.632 -0.4628  0.4725 -0.3682
  275MOL0     C36173  10.859   5.246   7.616  0.0971 -0.5557 -0.1138
  275MOL0     C36174  10.731   5.264   7.567  0.0339 -0.9360  0.0603
  275MOL0     C36175  10.655   5.153   7.524  0.5821 -0.1238 -0.0800
  275MOL0     O36176  10.523   5.177   7.470  0.1689 -0.1049  0.2221
  275MOL0     C36177  10.496   5.121   7.345 -0.1592 -0.9627  0.4360
  275MOL0     C36178  10.384   5.010   7.334 -0.4488 -0.5683 -1.2109
  275MOL0     C36179  10.355   4.961   7.190  0.8626  0.2932 -0.4453
  275MOL0     C36180  10.346   5.076   7.088 -0.3406  0.5608 -0.3674
  275MOL0     C36181  10.285   5.027   6.952  1.0875  0.2454  0.5680
  275MOL0     C36182  10.271   5.127   6.839 -0.0111 -0.9200  0.0113
  275MOL0     C36183  10.173   5.075   6.737  0.3010 -0.5841  0.3512
  275MOL0     C36184  10.033   5.062   6.791  0.1011  0.2124 -0.7313
  275MOL0     N36185   9.939   5.057   6.675 -0.1143 -0.6514  0.2249
  275MOL0     C36186   9.856   4.964   6.630 -0.5740 -0.1308  0.3208
  275MOL0     C36187   9.756   5.022   6.557  0.1020  0.1533 -1.3176
  275MOL0     C36188   9.643   4.953   6.489  0.1404 -0.4676  0.3515
  275MOL0     C36189   9.578   4.833   6.569 -0.8747 -0.2645  0.4208
  275MOL0     C36190   9.550   4.872   6.725  0.1233 -0.9438 -0.2970
  275MOL0     C36191   9.428   4.801   6.780 -0.0810 -0.2414  0.6228
  275MOL0     O36192   9.315   4.853   6.703  0.1287  0.3465 -0.3113
  275MOL0     C36193   9.185   4.810   6.712  0.5320  0.0884  0.2326
  275MOL0     C36194   9.133   4.746   6.818  0.0198 -0.6781 -0.4045
  275MOL0     C36195   8.998   4.709   6.816 -0.1792  0.4703  0.0809
  275MOL0     C36196   8.902   4.750   6.721  0.0521 -0.7343 -1.0624
  275MOL0     C36197   8.769   4.697   6.704 -0.2442 -0.0897 -0.2591
  275MOL0     O36198   8.742   4.574   6.761  0.3550 -0.6983 -0.1915
  275MOL0     C36199   8.625   4.502   6.752 -0.4152  0.3122 -0.4773
  275MOL0     C36200   8.514   4.531   6.669 -0.5188  0.1528 -0.5911
  275MOL0     C36201   8.405   4.445   6.670  0.4179 -0.9836  1.3933
  275MOL0     C36202   8.400   4.332   6.749 -0.3461  0.2827  0.3964
  275MOL0     O36203   8.301   4.246   6.732  0.9536  0.3955  0.8020
  275MOL0     C36204   8.301   4.122   6.793  0.0837  0.2056 -0.1103
  275MOL0     C36205   8.174   4.049   6.779 -0.5836 -0.2241  0.4888
  275MOL0     C36206   8.132   4.008   6.632  0.0640 -0.3471  0.1415
  275MOL0     C36207   7.996   3.930   6.626  0.0842 -0.0230 -0.2519
  275MOL0     C36208   7.990   3.824   6.509 -0.7094  0.2679  0.3427
  275MOL0     C36209   7.988   3.901   6.374 -0.1862  0.1335  0.3687
  275MOL0     C36210   7.874   3.856   6.271 -0.3457 -0.2207 -0.3340
  275MOL0     C36211   7.830   3.961   6.167  0.6367  0.1767  0.6252
  275MOL0    Cl36212   7.759   4.104   6.251 -0.5230  0.4936 -0.6125
  275MOL0     C36213   8.509   4.308   6.824 -1.3351 -0.1040 -0.6334
  275MOL0     C36214   8.619   4.394   6.838  0.6915 -0.5607  0.2485
  275MOL0     O36215   8.684   4.761   6.635  0.3409  0.3042  0.1179
  275MOL0     C36216   8.955   4.825   6.608  0.8700 -0.1021 -0.2255
  275MOL0     C36217   9.093   4.855   6.610  0.0844  0.5728  0.1253
  275MOL0     N36218   9.787   5.157   6.559 -0.1539 -0.5829 -0.2039
  275MOL0     N36219   9.906   5.175   6.625 -0.1577  0.1032  0.1203
  275MOL0     C36220  10.708   5.030   7.548 -0.5904 -0.7175  0.3212
  275MOL0     C36221  10.836   5.014   7.598 -0.2320 -0.0747  0.0670
  275MOL0     C36222  11.265   5.039   7.733 -0.7475  0.2360 -0.5563
  275MOL0     C36223  11.339   4.916   7.734 -0.3042  0.7361 -0.0146
  275MOL0     C36224  11.453   4.908   7.816  1.3030  0.9135  0.6059
  275MOL0     C36225  11.488   5.018   7.889  0.6448 -0.3731 -0.0869
  275MOL0     O36226  11.598   5.003   7.963  0.0957  0.5109  0.1909
  275MOL0     C36227  11.636   5.095   8.064 -0.0965 -0.1745 -0.6812
  275MOL0     C36228  11.743   5.024   8.149 -0.0295 -0.7161  0.7485
  275MOL0     C36229  11.794   5.113   8.269  0.0874  0.5282 -0.7667
  275MOL0     C36230  11.879   5.223   8.228 -0.5739 -0.2727  0.1343
  275MOL0     C36231  12.018   5.183   8.208 -0.2956 -0.7228  0.1311
  275MOL0     C36232  12.136   5.171   8.215 -0.3342  0.7388 -0.1587
  275MOL0     C36233  11.403   5.126   7.894  0.1918  0.0902  0.1679
  275MOL0     C36234  11.293   5.147   7.814 -0.4025  0.4852  0.6019
  275MOL0     H36235  10.922   5.331   7.643  2.6904 -2.9372  2.0096
  275MOL0     H36236  10.679   5.359   7.576  2.0444  0.1787  0.5847
  275MOL0     H36237  10.590   5.078   7.308  0.3821  1.2912 -1.0026
  275MOL0     H36238  10.472   5.210   7.286  0.2836 -1.5037 -0.5919
  275MOL0     H36239  10.295   5.058   7.375  0.5532  0.9939 -0.8029
  275MOL0     H36240  10.410   4.926   7.400 -0.3789 -0.8971 -1.6487
  275MOL0     H36241  10.262   4.906   7.201 -0.2932  2.6239  3.4231
  275MOL0     H36242  10.436   4.896   7.156  0.6803 -1.4486  2.2561
  275MOL0     H36243  10.275   5.153   7.119  2.1612  1.6626  3.2426
  275MOL0     H36244  10.444   5.123   7.075 -0.4115  0.7475 -0.2353
  275MOL0     H36245  10.187   4.986   6.976  0.9742  0.4759  0.5076
  275MOL0     H36246  10.352   4.947   6.917 -1.1403 -0.9464 -1.2255
  275MOL0     H36247  10.371   5.146   6.800  0.7385 -3.5269  0.4658
  275MOL0     H36248  10.238   5.226   6.872  2.3443  0.5015 -1.6386
  275MOL0     H36249  10.168   5.141   6.650 -1.3891  2.8972  2.8258
  275MOL0     H36250  10.214   4.976   6.715 -1.7079 -1.0853 -1.3973
  275MOL0     H36251  10.014   5.134   6.871 -0.8586 -1.0793  0.2357
  275MOL0     H36252  10.029   4.962   6.835  1.5237  0.8785  1.0266
  275MOL0     H36253   9.871   4.862   6.665 -1.3179 -0.5675 -0.5907
  275MOL0     H36254   9.692   4.903   6.405  1.8773 -0.7672  1.4793
  275MOL0     H36255   9.572   5.024   6.447  1.4477  1.5497  1.3523
  275MOL0     H36256   9.652   4.753   6.563 -0.6322 -0.0584  0.6547
  275MOL0     H36257   9.483   4.795   6.530 -0.1271 -0.8999 -0.8217
  275MOL0     H36258   9.640   4.850   6.784 -0.3792 -1.2638  0.3547
  275MOL0     H36259   9.531   4.980   6.730 -1.8438 -1.1334 -2.2788
  275MOL0     H36260   9.407   4.812   6.887  0.1647 -1.3706  0.8035
  275MOL0     H36261   9.449   4.696   6.761  2.8831  0.4359 -0.2434
  275MOL0     H36262   9.192   4.715   6.904 -1.0429  0.0851  0.6354
  275MOL0     H36263   8.957   4.654   6.899 -1.5508  0.5209 -0.5435
  275MOL0     H36264   8.505   4.617   6.604 -0.1110  1.4077  0.9736
  275MOL0     H36265   8.324   4.467   6.601  2.8007  0.9536 -1.0231
  275MOL0     H36266   8.309   4.135   6.902  1.4395  1.1012 -0.3010
  275MOL0     H36267   8.387   4.067   6.754 -0.0327  0.6974 -1.0847
  275MOL0     H36268   8.094   4.119   6.807 -0.4405 -0.0453  0.4541
  275MOL0     H36269   8.166   3.967   6.850 -0.1231  0.5012  1.4034
  275MOL0     H36270   8.209   3.939   6.596  0.2815  0.2488 -0.5484
  275MOL0     H36271   8.145   4.090   6.561  1.0411 -1.3966 -0.9368
  275MOL0     H36272   7.981   3.875   6.720 -2.4994  3.1147  1.3603
  275MOL0     H36273   7.917   4.006   6.621  0.2175  0.0562 -1.3887
  275MOL0     H36274   7.906   3.761   6.537 -1.1924  0.9893  0.5442
  275MOL0     H36275   8.075   3.756   6.516  1.8379  3.3409  2.4798
  275MOL0     H36276   8.091   3.895   6.339  0.9004  1.6854  2.9908
  275MOL0     H36277   7.968   4.007   6.390 -1.0378  0.0501 -0.0922
  275MOL0     H36278   7.918   3.768   6.223  0.6577 -0.2399  0.5983
  275MOL0     H36279   7.781   3.826   6.321 -0.6316 -0.5573 -1.0474
  275MOL0     H36280   7.753   3.915   6.106  1.0179 -1.5887  1.4135
  275MOL0     H36281   7.924   3.988   6.116 -0.7677  0.5652 -1.9080
  275MOL0     H36282   8.522   4.210   6.869 -2.9927 -1.7481 -3.4311
  275MOL0     H36283   8.696   4.382   6.913 -1.0640  0.2512  2.3005
  275MOL0     H36284   8.892   4.861   6.527 -0.6184 -0.5221  0.6862
  275MOL0     H36285   9.146   4.915   6.537 -0.7416  1.2375  0.0533
  275MOL0     H36286  10.652   4.944   7.512 -0.8718 -1.1184  1.6679
  275MOL0     H36287  10.886   4.921   7.575 -2.2788 -0.8945 -1.3627
  275MOL0     H36288  11.315   4.834   7.667 -2.3370 -1.3634  3.0376
  275MOL0     H36289  11.513   4.817   7.818  1.0626  0.7264  3.4412
  275MOL0     H36290  11.561   5.124   8.138  4.9721  2.4139  4.2113
  275MOL0     H36291  11.661   5.194   8.027 -3.2190  2.0630  2.5367
  275MOL0     H36292  11.705   4.927   8.181 -0.9959 -0.0770  1.6180
  275MOL0     H36293  11.824   5.003   8.079  0.3960 -1.5650  1.4836
  275MOL0     H36294  11.850   5.046   8.335  1.6328  0.7696 -1.7877
  275MOL0     H36295  11.700   5.146   8.316 -0.7391  1.3858 -2.8646
  275MOL0     H36296  11.841   5.275   8.138 -2.8697  0.1773  1.2769
  275MOL0     H36297  11.886   5.293   8.312  3.8758 -0.2502 -0.0375
  275MOL0     H36298  12.243   5.167   8.222 -0.3482  0.5487 -0.0276
  275MOL0     H36299  11.428   5.211   7.956  0.4210  0.5810 -0.5798
  275MOL0     H36300  11.231   5.236   7.818  0.8963  1.5667 -1.4432
  276MOL0     O36301   4.626   2.670   6.433  0.6184  0.4862 -0.4114
  276MOL0     C36302   4.589   2.554   6.462 -0.1929  0.5948  0.5281
  276MOL0     O36303   4.656   2.461   6.530 -0.1360  0.1134 -0.1757
  276MOL0     C36304   4.787   2.498   6.553 -0.0343 -0.2251  0.8872
  276MOL0     C36305   4.823   2.612   6.629  0.2808  0.3930  0.5536
  276MOL0     C36306   4.958   2.645   6.664  0.4202  0.8446 -0.0686
  276MOL0     C36307   5.061   2.571   6.617 -0.1313 -0.1448 -0.4803
  276MOL0     O36308   5.183   2.599   6.668 -0.8876 -0.1387 -0.7408
  276MOL0     C36309   5.289   2.556   6.587  1.3095  0.7995 -0.8892
  276MOL0     C36310   5.416   2.584   6.666  0.7989  0.4345  0.4618
  276MOL0     C36311   5.553   2.538   6.609  0.0101 -0.1285  0.1647
  276MOL0     C36312   5.673   2.583   6.694 -0.1073  0.8321 -0.1080
  276MOL0     C36313   5.802   2.513   6.673 -0.4524  0.7202  1.0953
  276MOL0     C36314   5.924   2.536   6.765 -0.3952 -0.5723  0.6182
  276MOL0     C36315   6.058   2.510   6.698 -0.4265  0.0995 -0.4957
  276MOL0     C36316   6.178   2.579   6.765  0.8374  0.0632 -0.6067
  276MOL0     N36317   6.312   2.534   6.717  0.8123 -0.5299 -0.0121
  276MOL0     C36318   6.367   2.414   6.680  0.0229  0.2163 -0.4343
  276MOL0     C36319   6.494   2.438   6.641 -0.7297  0.2308  0.4284
  276MOL0     C36320   6.583   2.336   6.580 -0.1044  0.2698 -0.3003
  276MOL0     C36321   6.630   2.361   6.438 -0.7137 -0.4596  0.6533
  276MOL0     C36322   6.525   2.299   6.338  0.7844  0.0920  0.4784
  276MOL0     C36323   6.389   2.362   6.338  0.7200  0.1011 -0.5439
  276MOL0     O36324   6.305   2.285   6.423  0.1553 -0.0649  0.5319
  276MOL0     C36325   6.168   2.291   6.422 -0.8532 -0.3227 -0.2103
  276MOL0     C36326   6.104   2.196   6.490  0.0407  0.0679 -0.2469
  276MOL0     C36327   5.965   2.181   6.504 -0.5019  0.3276  0.7878
  276MOL0     C36328   5.892   2.275   6.419 -0.5651  0.8999 -0.3987
  276MOL0     C36329   5.742   2.258   6.413  0.3337 -1.0358  0.2479
  276MOL0     O36330   5.669   2.346   6.336  0.3059  0.3891 -0.3946
  276MOL0     C36331   5.532   2.328   6.308 -0.8282  0.7388 -0.2387
  276MOL0     C36332   5.465   2.440   6.262  0.3319  0.0553  0.0916
  276MOL0     C36333   5.328   2.436   6.236 -0.7412 -1.4193  0.9961
  276MOL0     C36334   5.255   2.325   6.246  0.4485  0.9033 -0.9728
  276MOL0     O36335   5.124   2.317   6.229  0.9423 -0.0024  0.1268
  276MOL0     C36336   5.071   2.209   6.151 -0.0288  0.5880  0.2084
  276MOL0     C36337   4.923   2.232   6.120  0.1883  0.3484  0.6203
  276MOL0     C36338   4.870   2.138   6.019 -0.3787 -0.1921  0.7366
  276MOL0     C36339   4.713   2.151   5.986  0.3531 -0.0042 -0.4320
  276MOL0     C36340   4.629   2.151   6.123  0.5040  0.5321  0.9461
  276MOL0     C36341   4.475   2.126   6.091  1.1125 -0.1126  0.5624
  276MOL0     C36342   4.387   2.170   6.212  0.4742 -0.1227  0.0977
  276MOL0     C36343   4.237   2.136   6.189  0.1741  0.1983 -0.2198
  276MOL0    Cl36344   4.174   2.251   6.061  0.0706 -0.2330  0.3373
  276MOL0     C36345   5.320   2.210   6.294 -0.3265  0.7980  0.6177
  276MOL0     C36346   5.463   2.206   6.314  0.4674  0.3650  0.1317
  276MOL0     O36347   5.696   2.178   6.493  1.2706  0.2512  0.1541
  276MOL0     C36348   5.954   2.381   6.355 -0.1512 -0.9680  0.3964
  276MOL0     C36349   6.090   2.385   6.353 -0.1691 -0.4721 -0.7366
  276MOL0     N36350   6.517   2.569   6.659  0.4966  0.2898 -0.9438
  276MOL0     N36351   6.410   2.622   6.701  0.3477 -0.3128  0.3983
  276MOL0     C36352   5.030   2.453   6.544  0.7134  1.0158 -0.3271
  276MOL0     C36353   4.895   2.415   6.505  0.4746 -0.7689 -1.3661
  276MOL0     C36354   4.447   2.521   6.441 -0.7435 -1.1939  0.3229
  276MOL0     C36355   4.387   2.408   6.507 -0.5852  0.0997  0.0205
  276MOL0     C36356   4.253   2.382   6.478  0.3338 -0.1561  0.2682
  276MOL0     C36357   4.169   2.474   6.404  0.2796  0.6570 -0.1740
  276MOL0     O36358   4.034   2.446   6.394  0.0162  0.1564  0.8380
  276MOL0     C36359   3.956   2.484   6.283 -0.8916  0.0457 -0.4382
  276MOL0     C36360   3.814   2.429   6.319  0.0364  0.6039  0.2364
  276MOL0     C36361   3.809   2.275   6.354  0.3384 -0.3752 -0.5803
  276MOL0     C36362   3.824   2.199   6.235  0.7411 -0.2161  0.6340
  276MOL0     C36363   3.757   2.068   6.232  0.0448 -0.0623 -0.4117
  276MOL0     C36364   3.703   1.961   6.231 -0.7222  1.0991 -0.3614
  276MOL0     C36365   4.234   2.589   6.356  0.3503  0.0884  0.3071
  276MOL0     C36366   4.364   2.618   6.375 -0.2609  1.0147 -0.0520
  276MOL0     H36367   4.745   2.681   6.663 -0.1599  0.8753 -1.3343
  276MOL0     H36368   4.987   2.733   6.720 -0.3943  0.7491  0.5274
  276MOL0     H36369   5.285   2.604   6.489  3.2816 -1.4260 -2.1766
  276MOL0     H36370   5.286   2.447   6.578  1.7175  0.6835  0.1979
  276MOL0     H36371   5.399   2.519   6.753 -0.8635 -0.1241 -0.2431
  276MOL0     H36372   5.414   2.690   6.690  2.1372  0.0638  2.4686
  276MOL0     H36373   5.557   2.581   6.508 -1.8884  0.6873  0.3969
  276MOL0     H36374   5.569   2.430   6.607  0.2805 -0.2864  3.8947
  276MOL0     H36375   5.681   2.689   6.668  2.9496  0.0523 -3.0254
  276MOL0     H36376   5.644   2.585   6.800  0.6411  2.4309  0.0938
  276MOL0     H36377   5.840   2.537   6.573  1.8358 -1.4951  1.3302
  276MOL0     H36378   5.785   2.405   6.671 -2.9568  0.9053 -3.9176
  276MOL0     H36379   5.920   2.480   6.858  1.5024 -0.6499  0.6783
  276MOL0     H36380   5.918   2.645   6.777 -0.3354 -0.3691 -0.9434
  276MOL0     H36381   6.071   2.403   6.681 -2.7410 -0.0672 -1.4887
  276MOL0     H36382   6.056   2.555   6.599  0.0825  2.0565  0.3256
  276MOL0     H36383   6.178   2.575   6.875  0.1293  4.7126 -0.2542
  276MOL0     H36384   6.163   2.685   6.744 -1.2260 -0.2894 -1.1399
  276MOL0     H36385   6.305   2.325   6.667 -1.7145  1.4637 -1.1482
  276MOL0     H36386   6.533   2.239   6.572  1.1181 -0.2211 -3.0303
  276MOL0     H36387   6.667   2.320   6.649 -1.3873  1.8157  1.7170
  276MOL0     H36388   6.729   2.317   6.426 -1.5982 -3.7867  3.6967
  276MOL0     H36389   6.640   2.470   6.432 -0.0259 -0.5880 -0.9300
  276MOL0     H36390   6.569   2.309   6.239  0.9280  2.3845  0.7138
  276MOL0     H36391   6.514   2.191   6.348  2.8161 -0.5002 -2.5684
  276MOL0     H36392   6.346   2.363   6.237  1.1753 -1.4506 -0.7809
  276MOL0     H36393   6.403   2.467   6.364 -0.1509  0.3255 -0.9556
  276MOL0     H36394   6.179   2.139   6.543  0.4369  1.0890  0.3129
  276MOL0     H36395   5.925   2.107   6.572 -0.8213 -0.8315 -0.6000
  276MOL0     H36396   5.530   2.527   6.266  1.7112 -0.9813  0.7421
  276MOL0     H36397   5.285   2.531   6.207  4.3239  1.0075  0.4056
  276MOL0     H36398   5.068   2.110   6.196 -0.2928  0.0877 -0.8821
  276MOL0     H36399   5.133   2.203   6.061  0.5813 -2.4614  0.7279
  276MOL0     H36400   4.913   2.340   6.106  2.3408  0.8470  2.3989
  276MOL0     H36401   4.877   2.209   6.217  2.3272 -2.6848  1.0667
  276MOL0     H36402   4.893   2.032   6.034 -1.1143 -0.4418  0.1722
  276MOL0     H36403   4.924   2.155   5.925  1.4348 -4.0702  0.8697
  276MOL0     H36404   4.691   2.245   5.935 -3.9397  0.6892  2.1085
  276MOL0     H36405   4.676   2.064   5.931 -0.5092 -1.2988  2.0011
  276MOL0     H36406   4.637   2.253   6.161 -0.5625  1.4856 -1.2104
  276MOL0     H36407   4.658   2.077   6.199  1.1955  0.2078  0.3697
  276MOL0     H36408   4.465   2.020   6.064 -3.7901  0.4730 -0.9336
  276MOL0     H36409   4.449   2.190   6.006  0.9904  2.0830  2.1589
  276MOL0     H36410   4.414   2.111   6.300 -0.5385  1.9733  1.9097
  276MOL0     H36411   4.404   2.275   6.236  0.6018 -0.2092  0.4032
  276MOL0     H36412   4.174   2.147   6.277  0.7268  1.5921  0.0214
  276MOL0     H36413   4.235   2.031   6.156  3.9522  0.5560 -2.1693
  276MOL0     H36414   5.267   2.116   6.302 -1.4409  0.7235 -4.2173
  276MOL0     H36415   5.512   2.115   6.349  1.8035  1.5377  1.4467
  276MOL0     H36416   5.904   2.462   6.302 -0.4796  1.7506  4.4542
  276MOL0     H36417   6.132   2.467   6.294 -0.0530 -0.4555 -0.6304
  276MOL0     H36418   5.106   2.386   6.505 -0.8562 -0.3205 -1.2327
  276MOL0     H36419   4.879   2.326   6.444 -0.8756 -2.8695  1.8000
  276MOL0     H36420   4.433   2.334   6.572 -4.4362 -1.4241  1.3501
  276MOL0     H36421   4.201   2.303   6.531 -0.9879  1.7794  2.0179
  276MOL0     H36422   3.992   2.452   6.185  1.0295 -0.4968  0.4066
  276MOL0     H36423   3.950   2.593   6.273 -0.4698  0.0357 -0.8099
  276MOL0     H36424   3.776   2.496   6.397 -0.8048 -1.8345  2.0554
  276MOL0     H36425   3.749   2.433   6.232  1.4529  0.3129 -0.8755
  276MOL0     H36426   3.710   2.255   6.395 -0.0768  0.9909 -0.8848
  276MOL0     H36427   3.896   2.247   6.414 -0.0966  1.4551  0.9912
  276MOL0     H36428   3.795   2.253   6.144 -0.6368  0.6731  1.5746
  276MOL0     H36429   3.931   2.185   6.219  0.5788  0.4312 -1.2573
  276MOL0     H36430   3.667   1.861   6.245  0.3935  0.9647  2.1856
  276MOL0     H36431   4.192   2.669   6.297  1.1733  0.7117  0.5539
  276MOL0     H36432   4.416   2.701   6.330  0.5002  0.2006 -0.7129
  277MOL0     O36433   0.393   0.082   3.964 -0.2602 -0.6983 -0.4043
  277MOL0     C36434   0.410   0.004   4.061 -0.1804 -0.2095  0.2136
  277MOL0     O36435   0.340   0.013   4.173 -0.9268  0.1170 -0.1309
  277MOL0     C36436   0.232   0.093   4.171  0.8703  0.1804  0.4017
  277MOL0     C36437   0.125   0.038   4.111  0.6730  0.6170  0.5285
  277MOL0     C36438  -0.002   0.104   4.104 -0.1053 -0.0945 -0.4954
  277MOL0     C36439  -0.017   0.227   4.175  1.0945 -0.2172  0.6736
  277MOL0     O36440  -0.136   0.290   4.159  0.1059  0.7548 -0.4790
  277MOL0     C36441  -0.189   0.397   4.241 -1.0348  0.0165 -0.1367
  277MOL0     C36442  -0.341   0.395   4.245  0.1645  0.6855 -0.1202
  277MOL0     C36443  -0.396   0.255   4.285  0.1568 -0.5181 -0.1831
  277MOL0     C36444  -0.547   0.273   4.298 -0.1367 -0.6399  0.2960
  277MOL0     C36445  -0.607   0.135   4.305  0.4183  0.1760  1.2152
  277MOL0     C36446  -0.757   0.154   4.324 -0.2055  1.2552 -0.2364
  277MOL0     C36447  -0.811   0.011   4.373  0.4919 -0.5081 -0.2154
  277MOL0     C36448  -0.828  -0.100   4.268  0.8010 -1.0558  0.4338
  277MOL0     N36449  -0.902  -0.218   4.312 -0.1850  0.8179  0.0977
  277MOL0     C36450  -1.035  -0.260   4.286 -0.1232  0.4732 -0.4099
  277MOL0     C36451  -1.042  -0.368   4.361  0.5154  0.2841 -0.4613
  277MOL0     C36452  -1.153  -0.468   4.363 -0.4836  0.2242  0.2886
  277MOL0     C36453  -1.230  -0.455   4.499 -0.1967  0.6701  0.3360
  277MOL0     C36454  -1.351  -0.544   4.501  0.5549  0.1057  1.4483
  277MOL0     C36455  -1.430  -0.548   4.632  0.6594 -0.4460  0.1453
  277MOL0     O36456  -1.517  -0.430   4.644  0.5393  0.0359 -0.1490
  277MOL0     C36457  -1.631  -0.439   4.717 -0.0267 -0.8393  0.3555
  277MOL0     C36458  -1.663  -0.541   4.805 -0.2395 -0.3169 -0.1316
  277MOL0     C36459  -1.783  -0.550   4.876 -0.6647  0.2834 -0.5281
  277MOL0     C36460  -1.892  -0.459   4.858  0.8894 -0.2195  0.3539
  277MOL0     C36461  -2.011  -0.453   4.943 -0.0583 -0.0278 -0.3247
  277MOL0     O36462  -2.113  -0.375   4.900 -0.1786 -0.0580 -0.0551
  277MOL0     C36463  -2.231  -0.382   4.967 -0.6028 -0.0834 -0.5720
  277MOL0     C36464  -2.322  -0.479   4.911 -0.4026 -0.4482 -0.1081
  277MOL0     C36465  -2.449  -0.486   4.965  0.9717  0.0627 -0.1416
  277MOL0     C36466  -2.487  -0.422   5.074 -0.0966 -0.3280 -0.3716
  277MOL0     O36467  -2.624  -0.417   5.105 -0.1143 -0.6830  0.1438
  277MOL0     C36468  -2.677  -0.343   5.213 -0.2390 -0.1772 -0.1092
  277MOL0     C36469  -2.832  -0.353   5.210  1.1362 -0.2158  0.6588
  277MOL0     C36470  -2.902  -0.308   5.333 -0.3452  0.6119 -0.3073
  277MOL0     C36471  -3.038  -0.379   5.347  0.6416  0.4204 -0.1136
  277MOL0     C36472  -3.163  -0.281   5.360 -0.3448 -0.4185 -0.1464
  277MOL0     C36473  -3.274  -0.372   5.396 -0.0416 -0.0196  0.0549
  277MOL0     C36474  -3.412  -0.306   5.390  0.1822 -0.8435  0.0690
  277MOL0     C36475  -3.435  -0.208   5.511 -0.2778  0.3100 -0.6406
  277MOL0    Cl36476  -3.474  -0.298   5.658  0.0960 -0.3761  0.0863
  277MOL0     C36477  -2.394  -0.326   5.136  0.2608 -0.5177 -0.6950
  277MOL0     C36478  -2.260  -0.317   5.088  0.3509 -0.6123  0.8924
  277MOL0     O36479  -2.013  -0.517   5.047  0.0116 -0.4919 -0.8933
  277MOL0     C36480  -1.862  -0.349   4.772 -0.4122  0.1414  0.6290
  277MOL0     C36481  -1.738  -0.343   4.697 -0.1945  0.5513  0.1411
  277MOL0     N36482  -0.932  -0.388   4.445  0.1277  0.1212 -0.0493
  277MOL0     N36483  -0.848  -0.295   4.410 -0.8045 -0.0642 -0.7901
  277MOL0     C36484   0.096   0.275   4.246 -0.0146  0.2732  0.0599
  277MOL0     C36485   0.223   0.219   4.232  0.3705  0.3502  0.7063
  277MOL0     C36486   0.528  -0.087   4.052  0.0004 -0.7951  0.7221
  277MOL0     C36487   0.626  -0.059   3.959  0.2624 -0.4023 -0.5887
  277MOL0     C36488   0.741  -0.148   3.954  0.4863 -0.6635 -0.1729
  277MOL0     C36489   0.765  -0.249   4.042 -0.1881  1.4388 -0.0687
  277MOL0     O36490   0.892  -0.304   4.041 -0.8558  0.0185 -0.6929
  277MOL0     C36491   0.910  -0.423   4.122 -0.4301  1.3529 -0.3388
  277MOL0     C36492   1.058  -0.469   4.118 -0.2235  0.2613 -0.0162
  277MOL0     C36493   1.144  -0.342   4.141 -0.8081 -0.9265 -0.0436
  277MOL0     C36494   1.279  -0.387   4.192 -0.3867 -0.4843  0.5163
  277MOL0     C36495   1.366  -0.271   4.213  0.7636 -0.1333  0.1067
  277MOL0     C36496   1.436  -0.181   4.242  0.5064 -1.0609  0.0727
  277MOL0     C36497   0.661  -0.279   4.125 -0.4730  1.1720 -0.1937
  277MOL0     C36498   0.550  -0.197   4.143 -0.5756 -0.1685 -0.3469
  277MOL0     H36499   0.151  -0.051   4.055  1.1087  1.9028 -1.4402
  277MOL0     H36500  -0.091   0.056   4.065 -0.0158  0.1028 -0.9463
  277MOL0     H36501  -0.158   0.490   4.194  2.2041 -1.6719 -1.6881
  277MOL0     H36502  -0.147   0.389   4.342  2.0968 -2.3036 -1.4631
  277MOL0     H36503  -0.390   0.424   4.151 -1.9755 -1.8519  0.1057
  277MOL0     H36504  -0.375   0.473   4.314  1.2122 -0.0356  1.2711
  277MOL0     H36505  -0.348   0.217   4.376 -0.3566 -1.8954 -0.4660
  277MOL0     H36506  -0.371   0.194   4.198  0.7318 -2.9397  1.5531
  277MOL0     H36507  -0.570   0.339   4.382  1.6862 -1.0882  1.2150
  277MOL0     H36508  -0.592   0.325   4.213 -1.7092  3.0338  3.0872
  277MOL0     H36509  -0.565   0.079   4.389  0.7855 -0.5822  0.5412
  277MOL0     H36510  -0.584   0.081   4.213  0.5910  1.7191  0.3189
  277MOL0     H36511  -0.803   0.180   4.228  1.5645  1.0439 -1.1967
  277MOL0     H36512  -0.779   0.235   4.394  2.5128  0.1296  2.1442
  277MOL0     H36513  -0.749  -0.034   4.451 -0.2341 -3.0082 -1.0097
  277MOL0     H36514  -0.910   0.031   4.415  0.4049 -1.5034  0.0746
  277MOL0     H36515  -0.728  -0.122   4.229  0.0919 -1.2540 -1.3898
  277MOL0     H36516  -0.893  -0.042   4.201  0.8021 -0.0113  1.3162
  277MOL0     H36517  -1.098  -0.231   4.203  0.5814 -0.4085 -1.2721
  277MOL0     H36518  -1.112  -0.566   4.339  0.2271  0.8967 -1.4224
  277MOL0     H36519  -1.224  -0.447   4.282  4.2891  0.0316 -4.4976
  277MOL0     H36520  -1.267  -0.353   4.510 -1.7113 -0.0031  1.9630
  277MOL0     H36521  -1.155  -0.483   4.574 -2.4369 -2.2927  1.7250
  277MOL0     H36522  -1.407  -0.520   4.410  1.0457 -1.3976  0.7118
  277MOL0     H36523  -1.315  -0.647   4.491 -1.3010 -0.5902  1.6740
  277MOL0     H36524  -1.369  -0.559   4.722  1.3101 -2.0769 -0.4543
  277MOL0     H36525  -1.494  -0.636   4.618  1.5320 -1.2063  0.8040
  277MOL0     H36526  -1.584  -0.611   4.830 -0.0509  0.3849  1.2850
  277MOL0     H36527  -1.810  -0.633   4.941  0.9590 -0.4382 -0.7224
  277MOL0     H36528  -2.301  -0.533   4.819 -0.0166  0.8947 -0.8277
  277MOL0     H36529  -2.522  -0.560   4.933 -1.8041  1.2026  2.9906
  277MOL0     H36530  -2.668  -0.235   5.199 -2.6620 -0.0735 -1.4827
  277MOL0     H36531  -2.646  -0.387   5.308 -1.5449 -0.3933  0.2432
  277MOL0     H36532  -2.848  -0.454   5.171  0.8470  0.0403  0.0917
  277MOL0     H36533  -2.862  -0.292   5.123 -0.5339 -1.3456  0.3869
  277MOL0     H36534  -2.914  -0.200   5.347 -0.6569  0.3590  1.6200
  277MOL0     H36535  -2.849  -0.337   5.424  0.7736  0.9170 -0.8327
  277MOL0     H36536  -3.066  -0.451   5.269 -0.2636 -1.7023  2.0412
  277MOL0     H36537  -3.023  -0.443   5.435  0.4077  1.3399  0.6089
  277MOL0     H36538  -3.186  -0.229   5.267  0.4424 -0.2264 -0.2376
  277MOL0     H36539  -3.134  -0.203   5.431  2.4575  0.4282 -2.0552
  277MOL0     H36540  -3.259  -0.425   5.491  0.7176 -1.9403 -1.0784
  277MOL0     H36541  -3.292  -0.439   5.311 -2.1342  1.8840 -1.1252
  277MOL0     H36542  -3.426  -0.262   5.291  0.8369 -2.9373 -0.9961
  277MOL0     H36543  -3.490  -0.382   5.384 -2.0626  1.3357 -0.2948
  277MOL0     H36544  -3.520  -0.142   5.491 -2.7244 -2.3467  0.3952
  277MOL0     H36545  -3.351  -0.148   5.548 -1.8533  1.0904  1.8883
  277MOL0     H36546  -2.415  -0.267   5.224  0.8314 -1.4490  0.0990
  277MOL0     H36547  -2.183  -0.253   5.130 -0.4121  1.8246 -1.1623
  277MOL0     H36548  -1.943  -0.277   4.762 -1.5143 -1.1367  0.0170
  277MOL0     H36549  -1.731  -0.271   4.617 -0.5816 -0.5321 -0.9054
  277MOL0     H36550   0.085   0.351   4.323  0.5041 -1.3747  1.8180
  277MOL0     H36551   0.312   0.261   4.278  2.4805  1.9399 -4.1800
  277MOL0     H36552   0.610   0.018   3.884  0.1611 -1.9435 -2.2118
  277MOL0     H36553   0.813  -0.140   3.873  0.3045 -0.3011 -0.3068
  277MOL0     H36554   0.847  -0.504   4.084 -2.3001  1.5728  2.0615
  277MOL0     H36555   0.892  -0.401   4.228  1.0925 -2.3071  0.8378
  277MOL0     H36556   1.085  -0.537   4.199  2.8324  2.0182  0.6053
  277MOL0     H36557   1.064  -0.508   4.016 -2.3502 -1.5224  0.4653
  277MOL0     H36558   1.095  -0.263   4.199  2.4902 -0.3377  2.2275
  277MOL0     H36559   1.161  -0.300   4.041  0.2309 -1.1101  0.0473
  277MOL0     H36560   1.272  -0.463   4.270 -3.2315 -4.2855 -2.9934
  277MOL0     H36561   1.329  -0.441   4.111 -1.0257 -0.4843  0.1204
  277MOL0     H36562   1.481  -0.090   4.278 -0.3590 -1.4845  2.4608
  277MOL0     H36563   0.673  -0.366   4.188 -3.4307  1.1043  0.4195
  277MOL0     H36564   0.481  -0.223   4.223  0.2563 -0.3650  0.3164
  278MOL0     O36565   6.829   0.827   1.737  0.5042  0.1343 -0.0447
  278MOL0     C36566   6.803   0.712   1.771  0.5643  0.2234 -0.7753
  278MOL0     O36567   6.688   0.644   1.736 -0.5158  0.4326 -0.5287
  278MOL0     C36568   6.606   0.701   1.638  0.0318  0.0273  0.2245
  278MOL0     C36569   6.472   0.745   1.670 -0.5480 -0.0114 -0.6553
  278MOL0     C36570   6.377   0.779   1.576  0.5243 -1.5874 -0.4821
  278MOL0     C36571   6.408   0.756   1.441  1.2011  0.5099  0.8555
  278MOL0     O36572   6.323   0.783   1.339  0.4169 -0.5533  0.1414
  278MOL0     C36573   6.187   0.821   1.365 -0.0009 -0.6607  0.0212
  278MOL0     C36574   6.107   0.699   1.435 -0.3052 -0.7194  0.3974
  278MOL0     C36575   5.997   0.629   1.371 -0.0690 -0.7739 -0.7185
  278MOL0     C36576   5.868   0.708   1.348  0.4450  0.2898  0.6273
  278MOL0     C36577   5.832   0.811   1.451 -0.1188 -0.3060  0.3123
  278MOL0     C36578   5.693   0.863   1.419 -0.2128  0.4007 -0.1113
  278MOL0     C36579   5.636   0.960   1.529  0.6207  0.2454  0.2127
  278MOL0     C36580   5.509   1.020   1.468  0.5593  0.4456 -0.6268
  278MOL0     N36581   5.401   0.920   1.444  0.7237  0.1471 -0.3197
  278MOL0     C36582   5.345   0.905   1.318  0.2276 -0.0626 -1.1815
  278MOL0     C36583   5.231   0.842   1.332  0.8385 -0.1815  0.3716
  278MOL0     C36584   5.132   0.785   1.220 -0.3967 -0.2859 -0.2789
  278MOL0     C36585   5.116   0.640   1.210  0.0687  0.0523  0.2155
  278MOL0     C36586   5.025   0.590   1.100  0.4925 -0.3212  0.2131
  278MOL0     C36587   4.870   0.607   1.127 -0.7643 -0.2274  0.0725
  278MOL0     O36588   4.832   0.743   1.113 -0.5300 -0.0532 -0.1699
  278MOL0     C36589   4.710   0.782   1.169  0.1982  0.2933 -0.0962
  278MOL0     C36590   4.690   0.919   1.189 -0.2831  0.2896  0.0099
  278MOL0     C36591   4.564   0.980   1.228 -0.1615 -0.5808 -0.5408
  278MOL0     C36592   4.456   0.897   1.235  0.7584 -0.1574  0.0431
  278MOL0     C36593   4.325   0.956   1.271 -0.2404 -0.3014 -0.3769
  278MOL0     O36594   4.215   0.874   1.246  0.2268  0.1353  0.4318
  278MOL0     C36595   4.081   0.906   1.251  0.0444 -0.9093 -0.0286
  278MOL0     C36596   3.985   0.812   1.209 -0.9067 -0.4119 -0.1239
  278MOL0     C36597   3.843   0.825   1.224 -0.7547  0.2370  0.9235
  278MOL0     C36598   3.799   0.924   1.308 -0.3320 -0.8923 -0.1049
  278MOL0     O36599   3.663   0.917   1.338 -0.2699 -0.4920  0.5111
  278MOL0     C36600   3.599   1.016   1.420 -0.9559  0.0448 -0.7868
  278MOL0     C36601   3.555   1.137   1.339  0.2024  0.5602 -0.1872
  278MOL0     C36602   3.422   1.120   1.269 -0.6924  0.4760  1.1760
  278MOL0     C36603   3.302   1.149   1.358  0.0430  0.0551  0.0180
  278MOL0     C36604   3.177   1.093   1.287 -0.4509 -0.2274  0.3497
  278MOL0     C36605   3.050   1.150   1.356  0.2610  0.0004  0.0677
  278MOL0     C36606   3.008   1.292   1.290  0.9548  0.3934  0.6344
  278MOL0     C36607   2.866   1.329   1.349  0.7109  0.0544  0.1741
  278MOL0    Cl36608   2.742   1.205   1.337 -0.5083 -0.0761  0.0514
  278MOL0     C36609   3.891   1.021   1.356 -0.5956 -0.7826 -0.7210
  278MOL0     C36610   4.026   1.012   1.324 -0.6594 -0.3160  0.7640
  278MOL0     O36611   4.312   1.071   1.309 -0.0949 -0.9072  0.3224
  278MOL0     C36612   4.478   0.759   1.213 -0.3544 -0.3407  0.6778
  278MOL0     C36613   4.604   0.699   1.183  0.4353  0.1125 -0.4515
  278MOL0     N36614   5.207   0.827   1.467 -0.8580  0.4417 -0.6597
  278MOL0     N36615   5.306   0.882   1.533 -0.8226 -0.1523  0.7679
  278MOL0     C36616   6.538   0.724   1.399 -0.1084  0.0375 -0.9851
  278MOL0     C36617   6.635   0.701   1.499 -0.6012  0.2567  0.0396
  278MOL0     C36618   6.900   0.639   1.859 -0.3092  0.4141 -0.0275
  278MOL0     C36619   7.022   0.686   1.905  0.4698 -0.6633 -0.9225
  278MOL0     C36620   7.099   0.609   1.995 -0.2245  0.3517 -0.3792
  278MOL0     C36621   7.051   0.481   2.040  0.9347 -0.0628 -0.0601
  278MOL0     O36622   7.111   0.398   2.136 -0.8136  0.9121 -0.5290
  278MOL0     C36623   7.246   0.366   2.106  0.0833 -0.3905 -1.0160
  278MOL0     C36624   7.261   0.238   2.021 -0.6916 -1.0215  0.3661
  278MOL0     C36625   7.420   0.213   1.988  0.3590  0.2745  0.6142
  278MOL0     C36626   7.433   0.065   1.954  0.1946  1.0582 -0.2557
  278MOL0     C36627   7.577   0.035   1.925  0.0564  0.7918  0.2748
  278MOL0     C36628   7.701   0.025   1.911  1.2215 -0.0232 -0.2819
  278MOL0     C36629   6.926   0.440   1.995  0.5649 -0.6012  0.0745
  278MOL0     C36630   6.857   0.514   1.900 -0.6019 -0.1119  0.3192
  278MOL0     H36631   6.443   0.744   1.774 -5.1328 -2.6866 -1.6772
  278MOL0     H36632   6.276   0.806   1.604  0.7078 -1.5092  0.1057
  278MOL0     H36633   6.147   0.831   1.264  0.2448  1.8404  0.0964
  278MOL0     H36634   6.180   0.916   1.420  1.9305  0.0737 -0.8809
  278MOL0     H36635   6.076   0.733   1.534  0.6575  2.1356 -0.1768
  278MOL0     H36636   6.179   0.617   1.437  2.0101  1.0683 -2.2766
  278MOL0     H36637   5.976   0.547   1.440  0.3415 -0.0131  0.3579
  278MOL0     H36638   6.033   0.594   1.274  0.3576 -1.4623 -0.3139
  278MOL0     H36639   5.875   0.755   1.250 -0.5491  2.2304  1.4291
  278MOL0     H36640   5.782   0.640   1.346 -0.2595  1.1706  0.6613
  278MOL0     H36641   5.900   0.897   1.457 -0.4190  0.0147 -0.7199
  278MOL0     H36642   5.832   0.767   1.551 -2.2899  2.5382  1.7184
  278MOL0     H36643   5.620   0.782   1.409 -0.8800  0.9672  0.1550
  278MOL0     H36644   5.704   0.920   1.326 -2.8471 -2.1901 -2.2289
  278MOL0     H36645   5.597   0.908   1.617 -0.6913 -1.8636 -1.5333
  278MOL0     H36646   5.711   1.039   1.542 -0.7423  1.7444 -0.7168
  278MOL0     H36647   5.536   1.071   1.375 -0.1671  3.9573  0.9110
  278MOL0     H36648   5.476   1.107   1.526 -3.1620 -2.2941  1.8794
  278MOL0     H36649   5.389   0.927   1.221  0.3758  0.1433 -1.0688
  278MOL0     H36650   5.156   0.815   1.118 -3.0215 -3.4218 -2.0144
  278MOL0     H36651   5.032   0.815   1.254 -0.1308 -2.0314  2.3608
  278MOL0     H36652   5.059   0.608   1.298  0.4521 -1.1740  0.0356
  278MOL0     H36653   5.217   0.600   1.211  0.8088  1.6814 -1.9901
  278MOL0     H36654   5.034   0.638   1.002 -0.1431 -1.2238 -0.2991
  278MOL0     H36655   5.030   0.480   1.096  0.9749 -0.2722 -0.9392
  278MOL0     H36656   4.848   0.563   1.225  0.0410 -1.3578 -0.2333
  278MOL0     H36657   4.815   0.548   1.054 -1.9289 -2.1383  2.3509
  278MOL0     H36658   4.773   0.986   1.173 -1.2951  2.0397  1.6657
  278MOL0     H36659   4.552   1.085   1.250  1.8977 -0.3778 -0.2157
  278MOL0     H36660   4.023   0.717   1.172 -0.0606 -0.2363  0.2664
  278MOL0     H36661   3.776   0.759   1.170 -1.9575  3.1553 -1.4389
  278MOL0     H36662   3.670   1.053   1.495  1.3834 -0.3920 -2.6823
  278MOL0     H36663   3.514   0.963   1.465  1.2478 -2.0216  1.1989
  278MOL0     H36664   3.631   1.172   1.269 -0.1582  0.7008 -0.5105
  278MOL0     H36665   3.534   1.216   1.411  0.8228 -1.5164  2.4670
  278MOL0     H36666   3.412   1.020   1.226  2.6085  1.7751 -3.4257
  278MOL0     H36667   3.414   1.195   1.189 -0.6540 -1.6395 -0.9210
  278MOL0     H36668   3.300   1.098   1.455 -0.7237  0.2473  0.1145
  278MOL0     H36669   3.301   1.255   1.385 -3.8375  0.5267 -1.3138
  278MOL0     H36670   3.188   0.985   1.298 -2.0699 -0.8012 -2.5728
  278MOL0     H36671   3.178   1.108   1.179 -0.7674  1.9448  0.6023
  278MOL0     H36672   3.060   1.167   1.463  0.8703  1.2552 -0.1711
  278MOL0     H36673   2.972   1.076   1.336  0.0989  0.5777 -1.6332
  278MOL0     H36674   3.071   1.376   1.319  0.9888  0.5287  0.1719
  278MOL0     H36675   3.005   1.299   1.181  4.0610  2.3009  0.5646
  278MOL0     H36676   2.821   1.421   1.312 -0.0874 -0.8730 -1.2777
  278MOL0     H36677   2.873   1.344   1.457  0.0719  0.2250  0.1954
  278MOL0     H36678   3.860   1.109   1.410 -0.8533  0.2221 -2.4407
  278MOL0     H36679   4.094   1.087   1.362  1.8874 -0.2781 -3.3253
  278MOL0     H36680   4.400   0.684   1.213 -0.8250  0.1416  0.2397
  278MOL0     H36681   4.604   0.596   1.149  4.3987 -0.6119  1.1745
  278MOL0     H36682   6.576   0.710   1.298  1.5816  0.8845 -0.4968
  278MOL0     H36683   6.725   0.653   1.464 -2.6090 -1.7349 -2.8709
  278MOL0     H36684   7.054   0.789   1.891 -4.0995  1.1550  0.2305
  278MOL0     H36685   7.196   0.648   2.025  0.2885  1.2008 -2.8868
  278MOL0     H36686   7.292   0.346   2.203  2.1231 -0.2902 -1.9318
  278MOL0     H36687   7.299   0.447   2.055 -0.4388  0.0717 -0.8430
  278MOL0     H36688   7.220   0.152   2.075  2.7154 -1.3243  2.8352
  278MOL0     H36689   7.209   0.242   1.926  1.1832 -1.6608 -0.7535
  278MOL0     H36690   7.478   0.235   2.078 -0.2432 -2.4761  1.7911
  278MOL0     H36691   7.447   0.269   1.898  0.3297 -4.5777 -2.7909
  278MOL0     H36692   7.409   0.006   2.043 -0.0838 -1.0460 -1.6415
  278MOL0     H36693   7.379   0.049   1.860 -0.9119  1.4414  0.3035
  278MOL0     H36694   7.808   0.025   1.919  1.0709 -0.2221  3.7951
  278MOL0     H36695   6.881   0.344   2.017 -1.3881  0.9609  3.8965
  278MOL0     H36696   6.770   0.464   1.858  0.0129 -0.7999 -0.1692
  279MOL0     O36697   5.932   5.117   1.322 -0.3913  0.0280  0.5104
  279MOL0     C36698   5.932   5.009   1.384 -1.2616 -0.5890  0.1543
  279MOL0     O36699   5.840   4.966   1.471  0.6989  0.2766  0.3341
  279MOL0     C36700   5.713   5.022   1.471 -0.3011 -1.0109 -0.1058
  279MOL0     C36701   5.634   5.005   1.587 -0.0924 -0.2965  0.3832
  279MOL0     C36702   5.520   5.080   1.615 -1.0138  0.3179  0.4116
  279MOL0     C36703   5.469   5.159   1.512 -0.2383 -1.2899 -0.4977
  279MOL0     O36704   5.352   5.237   1.533 -0.0699 -0.8832  0.2801
  279MOL0     C36705   5.292   5.233   1.663  0.6474 -0.0797 -0.6529
  279MOL0     C36706   5.151   5.298   1.651 -0.3165  0.7644  0.0040
  279MOL0     C36707   5.060   5.230   1.559  0.2907 -0.4339  0.2489
  279MOL0     C36708   4.925   5.294   1.544  0.8708 -0.6057  0.9983
  279MOL0     C36709   4.857   5.261   1.402 -0.8502  0.0199  0.1254
  279MOL0     C36710   4.749   5.371   1.374  0.1421  0.4142  0.0421
  279MOL0     C36711   4.614   5.357   1.451  0.1979  0.0613  0.2047
  279MOL0     C36712   4.553   5.494   1.477  0.0081  0.2533  0.0053
  279MOL0     N36713   4.516   5.566   1.357 -0.6264  0.7157  0.0087
  279MOL0     C36714   4.585   5.672   1.302 -0.1672  0.2110  0.0294
  279MOL0     C36715   4.496   5.731   1.217  0.3806  0.4056  0.3227
  279MOL0     C36716   4.507   5.849   1.119  0.1045  1.0776 -0.5196
  279MOL0     C36717   4.501   5.983   1.192  0.3966 -0.0100  0.2129
  279MOL0     C36718   4.373   5.991   1.287 -0.6611  0.3069 -0.5054
  279MOL0     C36719   4.248   5.976   1.207  0.3774 -0.4277  0.3790
  279MOL0     O36720   4.133   6.000   1.283 -0.1883 -0.3526  0.5526
  279MOL0     C36721   4.002   5.980   1.248  0.3130  0.4749  0.7697
  279MOL0     C36722   3.909   5.974   1.345  0.9391 -1.2446  0.8947
  279MOL0     C36723   3.776   5.973   1.318  0.2722  0.1699  1.1173
  279MOL0     C36724   3.728   5.969   1.189  1.4501 -0.6710  0.4937
  279MOL0     C36725   3.582   5.969   1.156 -0.4612 -0.1933  0.4001
  279MOL0     O36726   3.542   5.959   1.028 -0.0301 -0.0804 -0.2125
  279MOL0     C36727   3.411   5.944   0.982 -0.1311 -0.5468  0.3439
  279MOL0     C36728   3.370   5.829   0.910 -1.1349  0.2106 -0.2375
  279MOL0     C36729   3.244   5.819   0.867 -0.8186  0.8753 -1.0477
  279MOL0     C36730   3.139   5.914   0.901 -0.6607  0.6918  0.2520
  279MOL0     O36731   3.008   5.909   0.860  0.1328 -1.1544  0.2753
  279MOL0     C36732   2.971   5.795   0.786 -0.4333  0.2802  1.0048
  279MOL0     C36733   2.824   5.815   0.766  0.7940  0.2412 -0.1739
  279MOL0     C36734   2.755   5.681   0.773 -0.8528 -0.3800  0.4920
  279MOL0     C36735   2.601   5.699   0.764  0.3330  0.0638  0.1284
  279MOL0     C36736   2.522   5.572   0.821  0.3217  0.1665  0.3182
  279MOL0     C36737   2.393   5.607   0.895  0.0441 -0.5731  0.2345
  279MOL0     C36738   2.335   5.486   0.963 -0.6842 -0.2874  0.7024
  279MOL0     C36739   2.216   5.535   1.045 -0.4887 -0.2471 -0.3121
  279MOL0    Cl36740   2.147   5.388   1.126 -0.0149 -0.0487 -0.2248
  279MOL0     C36741   3.175   6.016   0.995 -0.2691  0.1604  1.1607
  279MOL0     C36742   3.316   6.036   1.024  0.4214 -0.4900 -0.1415
  279MOL0     O36743   3.509   5.976   1.254  0.3834 -0.2343 -0.1610
  279MOL0     C36744   3.826   5.983   1.086  0.5707 -0.2926 -0.1849
  279MOL0     C36745   3.964   5.996   1.118  0.4450 -0.1918  0.1602
  279MOL0     N36746   4.374   5.653   1.216 -0.0592 -0.0841  0.1467
  279MOL0     N36747   4.389   5.560   1.306  0.4921  0.1798 -0.1727
  279MOL0     C36748   5.538   5.163   1.390 -1.0401 -0.1910  0.7344
  279MOL0     C36749   5.657   5.100   1.369 -0.2375 -0.3912  0.8852
  279MOL0     C36750   6.056   4.928   1.370  0.3952  0.1652 -0.6415
  279MOL0     C36751   6.163   4.969   1.284 -0.0462  0.2506 -0.1218
  279MOL0     C36752   6.285   4.897   1.277 -0.4919 -0.2485 -0.8554
  279MOL0     C36753   6.297   4.787   1.363 -0.6304  1.0466  0.4342
  279MOL0     O36754   6.413   4.718   1.375 -0.3789 -0.0166  0.7574
  279MOL0     C36755   6.547   4.782   1.368 -0.0037  0.2100 -0.0340
  279MOL0     C36756   6.644   4.701   1.457 -0.1294 -0.4582 -0.2371
  279MOL0     C36757   6.773   4.784   1.471  0.1639  0.2439 -0.8882
  279MOL0     C36758   6.865   4.695   1.541  0.8911  0.8527 -0.6703
  279MOL0     C36759   6.924   4.595   1.440 -0.3889  0.4112  0.4806
  279MOL0     C36760   6.972   4.521   1.353 -0.1415 -0.0272 -0.1305
  279MOL0     C36761   6.191   4.745   1.438  0.4325 -0.0762 -1.1664
  279MOL0     C36762   6.073   4.806   1.447  0.3352 -0.4214 -0.1330
  279MOL0     H36763   5.685   4.942   1.660 -1.4289 -2.2562 -0.3033
  279MOL0     H36764   5.467   5.065   1.708  1.5853 -1.0240  1.7742
  279MOL0     H36765   5.360   5.281   1.734  2.9456 -0.8510 -2.2385
  279MOL0     H36766   5.273   5.129   1.692 -1.4008  0.3733 -0.2183
  279MOL0     H36767   5.180   5.397   1.614  0.4036  0.3911 -0.4498
  279MOL0     H36768   5.104   5.315   1.748 -1.6694  1.2669 -0.7091
  279MOL0     H36769   5.038   5.128   1.594 -0.2162 -1.3165 -2.3987
  279MOL0     H36770   5.105   5.214   1.460 -1.3344  0.0420 -0.5977
  279MOL0     H36771   4.861   5.250   1.621  1.2902  0.4682  1.9871
  279MOL0     H36772   4.943   5.402   1.556  1.3020 -0.7113  1.3508
  279MOL0     H36773   4.816   5.160   1.403  1.3467 -1.0681 -2.9977
  279MOL0     H36774   4.933   5.255   1.324  1.3449 -0.3614  2.1674
  279MOL0     H36775   4.725   5.369   1.267 -1.6056  0.1991  0.4010
  279MOL0     H36776   4.794   5.467   1.399 -1.0323  1.8982 -3.0195
  279MOL0     H36777   4.544   5.313   1.379 -0.3074  1.6631 -0.3180
  279MOL0     H36778   4.619   5.302   1.545  0.5698 -1.4429 -0.6574
  279MOL0     H36779   4.618   5.561   1.534 -1.0464  3.6175 -2.4535
  279MOL0     H36780   4.462   5.487   1.538  1.1546  2.6527  2.2062
  279MOL0     H36781   4.688   5.699   1.325 -0.1647 -0.9037  1.5425
  279MOL0     H36782   4.425   5.847   1.046 -0.4079 -2.0183 -0.0321
  279MOL0     H36783   4.602   5.828   1.070  1.1502 -1.6353  2.3211
  279MOL0     H36784   4.499   6.056   1.110 -2.3105 -2.2525 -1.9081
  279MOL0     H36785   4.590   6.008   1.250  1.2412 -1.3809 -0.4411
  279MOL0     H36786   4.370   5.913   1.364 -2.6146  0.8661  0.0336
  279MOL0     H36787   4.366   6.087   1.338  0.6896  1.0904 -1.7196
  279MOL0     H36788   4.227   5.879   1.160  0.7409  0.8260 -2.6339
  279MOL0     H36789   4.257   6.055   1.132  2.0543  2.0284  2.9564
  279MOL0     H36790   3.932   5.976   1.451 -4.2542 -5.0661  2.4839
  279MOL0     H36791   3.695   5.949   1.386 -1.2324  1.0616 -0.2749
  279MOL0     H36792   3.443   5.750   0.896 -2.1685 -0.7843 -0.1216
  279MOL0     H36793   3.227   5.733   0.803  1.7271  0.2347 -0.9958
  279MOL0     H36794   2.987   5.704   0.845 -0.4478  1.1160  2.3383
  279MOL0     H36795   3.016   5.791   0.686 -3.9363 -2.3516 -0.7092
  279MOL0     H36796   2.803   5.867   0.672 -1.9216  0.3491  0.4258
  279MOL0     H36797   2.777   5.875   0.844  1.2068  1.3729 -0.7767
  279MOL0     H36798   2.777   5.641   0.872 -1.8497 -1.3418  0.3425
  279MOL0     H36799   2.783   5.615   0.690  1.7823 -0.6362  1.4894
  279MOL0     H36800   2.574   5.793   0.813  0.3832  2.3833 -3.8831
  279MOL0     H36801   2.568   5.728   0.664 -0.7108  1.0057  0.7279
  279MOL0     H36802   2.591   5.538   0.899  0.5634 -1.1357 -0.4226
  279MOL0     H36803   2.500   5.494   0.747  1.4608 -0.3907  0.5428
  279MOL0     H36804   2.328   5.654   0.821 -1.1267 -1.5649  0.5961
  279MOL0     H36805   2.409   5.689   0.966  2.1308 -0.9246  0.2489
  279MOL0     H36806   2.288   5.416   0.893 -0.4186  1.5236 -1.3760
  279MOL0     H36807   2.404   5.430   1.028 -0.9202  0.1789  1.3646
  279MOL0     H36808   2.144   5.581   0.977 -0.8758  0.9188  0.8345
  279MOL0     H36809   2.260   5.607   1.115 -1.3728  1.3559 -1.3457
  279MOL0     H36810   3.093   6.082   1.024  0.3838  0.9803  1.1728
  279MOL0     H36811   3.327   6.112   1.100 -2.1869 -0.7505  0.6165
  279MOL0     H36812   3.795   5.979   0.982 -1.1223 -0.2655  0.2881
  279MOL0     H36813   4.036   6.004   1.037  0.0389  3.0773 -0.0192
  279MOL0     H36814   5.488   5.200   1.301 -0.6785  0.2289  0.7027
  279MOL0     H36815   5.700   5.121   1.271 -0.6337  0.5903  0.9098
  279MOL0     H36816   6.156   5.067   1.238 -1.7151  0.6053  0.7936
  279MOL0     H36817   6.366   4.946   1.224 -0.0469  2.1550  1.7772
  279MOL0     H36818   6.531   4.886   1.401 -1.4795 -0.1911  0.5870
  279MOL0     H36819   6.589   4.783   1.267  0.1627  3.2775 -0.0460
  279MOL0     H36820   6.598   4.676   1.553  1.2354 -1.5497  0.1675
  279MOL0     H36821   6.658   4.607   1.403 -1.5023 -1.1852  0.6329
  279MOL0     H36822   6.747   4.862   1.542  1.2673  0.5966 -0.8569
  279MOL0     H36823   6.814   4.830   1.380 -1.0264  2.7521 -0.2401
  279MOL0     H36824   6.947   4.737   1.600  0.9158  2.5875 -1.8724
  279MOL0     H36825   6.811   4.635   1.616 -2.0743  5.5331  1.3889
  279MOL0     H36826   7.017   4.465   1.273  0.3698  1.0779 -0.6280
  279MOL0     H36827   6.201   4.646   1.482 -2.8388 -0.9578 -2.0897
  279MOL0     H36828   5.994   4.771   1.513  0.5157  1.9606  1.4611
  280MOL0     O36829   8.204   5.792   0.736 -0.4084  0.7065 -0.2495
  280MOL0     C36830   8.135   5.686   0.714  0.3003  0.0916 -0.1345
  280MOL0     O36831   8.174   5.577   0.641  0.4100 -0.1139  0.7204
  280MOL0     C36832   8.289   5.584   0.563  0.0448 -1.2775 -0.3601
  280MOL0     C36833   8.388   5.493   0.587  0.3692  0.1615  0.0822
  280MOL0     C36834   8.513   5.513   0.533  0.4415  1.8022  0.0257
  280MOL0     C36835   8.535   5.623   0.448 -0.2637 -0.6273 -0.7955
  280MOL0     O36836   8.661   5.655   0.405 -0.4793  0.3786  0.4014
  280MOL0     C36837   8.683   5.711   0.279 -0.0260  0.4338 -0.7529
  280MOL0     C36838   8.811   5.654   0.231 -0.0455 -0.2265 -0.6844
  280MOL0     C36839   8.829   5.700   0.087  0.1307  0.1734  0.5707
  280MOL0     C36840   8.966   5.646   0.029  0.0004  0.2991  0.1954
  280MOL0     C36841   8.982   5.656  -0.120 -0.4416  0.1682 -0.0918
  280MOL0     C36842   9.125   5.607  -0.164 -0.0341  1.1736 -0.8670
  280MOL0     C36843   9.235   5.718  -0.145  1.0570 -0.3482 -0.0121
  280MOL0     C36844   9.370   5.648  -0.127  0.5723 -0.4342  1.1299
  280MOL0     N36845   9.487   5.730  -0.140 -0.1636 -0.6516 -0.5724
  280MOL0     C36846   9.603   5.693  -0.215  0.1032 -1.3556 -0.3763
  280MOL0     C36847   9.691   5.800  -0.199  0.4919  0.8616  0.2207
  280MOL0     C36848   9.817   5.815  -0.278  0.7391  1.1139  0.1941
  280MOL0     C36849   9.834   5.957  -0.341  0.0093 -1.4706  0.1938
  280MOL0     C36850   9.931   5.965  -0.465  0.4832  0.0749 -0.2950
  280MOL0     C36851   9.890   5.897  -0.594 -0.2619 -0.2220  0.0657
  280MOL0     O36852   9.814   5.989  -0.664 -0.4362 -0.4021  0.2792
  280MOL0     C36853   9.679   5.961  -0.674  0.3570 -0.0860 -0.0519
  280MOL0     C36854   9.604   5.857  -0.606 -2.1893 -0.7753  0.2994
  280MOL0     C36855   9.466   5.845  -0.623  0.4216  0.9512  1.0110
  280MOL0     C36856   9.398   5.948  -0.685 -0.1945  0.2217 -0.0797
  280MOL0     C36857   9.252   5.953  -0.675  0.1146 -0.3303 -0.0862
  280MOL0     O36858   9.192   5.844  -0.612  0.0076 -0.6738  0.6066
  280MOL0     C36859   9.056   5.849  -0.605  0.5332 -0.0844 -0.6274
  280MOL0     C36860   8.975   5.913  -0.697 -0.2387  0.0982  0.4547
  280MOL0     C36861   8.836   5.918  -0.680 -0.4442 -0.3303 -0.0445
  280MOL0     C36862   8.769   5.849  -0.572  0.2724 -0.9973  1.5846
  280MOL0     O36863   8.640   5.838  -0.554  0.1186  0.0853 -0.1688
  280MOL0     C36864   8.553   5.834  -0.675 -0.6907 -0.0171 -0.2435
  280MOL0     C36865   8.415   5.792  -0.635  0.9138  0.0505 -0.4745
  280MOL0     C36866   8.389   5.652  -0.576  0.3212 -0.2818  0.3301
  280MOL0     C36867   8.247   5.655  -0.526  0.6450 -0.7217 -0.8111
  280MOL0     C36868   8.218   5.509  -0.489 -0.1661  0.7025  0.8838
  280MOL0     C36869   8.082   5.498  -0.412  0.1825  0.2744 -0.8680
  280MOL0     C36870   8.063   5.350  -0.374  0.2792  0.1676  0.1918
  280MOL0     C36871   7.955   5.346  -0.264 -0.4302  0.3365  0.7011
  280MOL0    Cl36872   7.946   5.182  -0.196 -0.2879  0.0785 -0.0324
  280MOL0     C36873   8.845   5.782  -0.485 -0.2372  0.7060  0.6821
  280MOL0     C36874   8.984   5.779  -0.500 -0.1389  0.1914  0.0905
  280MOL0     O36875   9.196   6.062  -0.701 -0.6105 -0.5652  0.2105
  280MOL0     C36876   9.468   6.052  -0.742  1.3612 -0.6173 -0.6286
  280MOL0     C36877   9.608   6.058  -0.736 -0.2646 -0.2640  0.8097
  280MOL0     N36878   9.631   5.888  -0.112  0.5115 -0.4726 -0.1142
  280MOL0     N36879   9.514   5.850  -0.076 -0.4488 -1.0905  0.2907
  280MOL0     C36880   8.429   5.708   0.420  0.2892  0.1644  0.4640
  280MOL0     C36881   8.303   5.694   0.472  0.3122  0.2002  0.4827
  280MOL0     C36882   7.999   5.681   0.761 -0.6188  0.5421  0.8606
  280MOL0     C36883   7.954   5.795   0.822  1.0286  0.8945 -0.5164
  280MOL0     C36884   7.825   5.791   0.871  0.0918 -0.1424  0.0762
  280MOL0     C36885   7.749   5.680   0.877 -0.4790  0.2690 -0.4899
  280MOL0     O36886   7.625   5.686   0.924  0.2792  0.1540  0.1065
  280MOL0     C36887   7.530   5.588   0.883 -0.5738 -1.0298 -0.2274
  280MOL0     C36888   7.388   5.635   0.910 -0.4139  0.2102  0.3822
  280MOL0     C36889   7.293   5.565   0.811 -0.6133  0.9379  0.2991
  280MOL0     C36890   7.148   5.581   0.856 -0.0417  0.0996  0.2102
  280MOL0     C36891   7.119   5.478   0.951 -0.3044 -0.2155  0.0348
  280MOL0     C36892   7.089   5.389   1.025 -0.0376 -0.0792  0.4174
  280MOL0     C36893   7.805   5.563   0.824 -0.4987 -1.0563 -0.5066
  280MOL0     C36894   7.931   5.561   0.770  0.5205 -0.0106 -0.2631
  280MOL0     H36895   8.389   5.411   0.659  5.1342  0.2389  0.3919
  280MOL0     H36896   8.601   5.459   0.568 -0.0119  1.6105  0.8980
  280MOL0     H36897   8.678   5.821   0.275 -1.2929  0.5587  1.9255
  280MOL0     H36898   8.603   5.665   0.219  0.7224  1.3885 -2.5775
  280MOL0     H36899   8.797   5.546   0.232 -0.8647 -0.1284 -0.1778
  280MOL0     H36900   8.897   5.684   0.292 -0.8125 -2.0007  1.3945
  280MOL0     H36901   8.830   5.809   0.078 -1.1110  0.1999  0.6492
  280MOL0     H36902   8.742   5.664   0.032 -0.3443 -1.0408  2.0352
  280MOL0     H36903   9.044   5.714   0.063  0.2381  1.2665 -2.0993
  280MOL0     H36904   8.987   5.543   0.058 -3.6732 -1.0215 -1.1813
  280MOL0     H36905   8.969   5.758  -0.155 -0.4228  0.0067 -0.5756
  280MOL0     H36906   8.902   5.595  -0.164 -4.3513  3.0167  2.4495
  280MOL0     H36907   9.110   5.576  -0.268 -2.0970 -2.6473  0.3974
  280MOL0     H36908   9.140   5.518  -0.103 -0.9494 -0.1455 -2.4581
  280MOL0     H36909   9.231   5.784  -0.232 -1.0285  2.8061  2.2193
  280MOL0     H36910   9.207   5.778  -0.058 -2.4707 -0.1105 -1.1669
  280MOL0     H36911   9.379   5.576  -0.209  1.4853  2.3170 -1.3553
  280MOL0     H36912   9.384   5.601  -0.029  1.2615  0.9571  1.7192
  280MOL0     H36913   9.613   5.609  -0.284  0.3233  1.3032 -3.8351
  280MOL0     H36914   9.825   5.732  -0.349 -0.6896 -0.1791  1.4666
  280MOL0     H36915   9.900   5.788  -0.212  0.9302  0.2798 -0.3697
  280MOL0     H36916   9.873   6.012  -0.255  0.6370 -3.6617  1.3961
  280MOL0     H36917   9.739   6.001  -0.370 -0.4038 -0.1171  3.2193
  280MOL0     H36918   9.956   6.068  -0.492  1.5596 -0.9798 -3.7709
  280MOL0     H36919  10.020   5.916  -0.424 -2.1245 -1.9493  3.5310
  280MOL0     H36920   9.855   5.793  -0.589  1.1870 -0.8326 -1.6260
  280MOL0     H36921   9.979   5.874  -0.653 -0.5356  0.6013 -0.6914
  280MOL0     H36922   9.653   5.792  -0.533  0.2272  0.4261 -0.1421
  280MOL0     H36923   9.400   5.773  -0.576 -0.7826  3.0411  2.7123
  280MOL0     H36924   9.013   5.954  -0.790  1.8105 -4.9447 -1.2262
  280MOL0     H36925   8.794   5.982  -0.756 -0.6091  0.6363  0.8255
  280MOL0     H36926   8.599   5.772  -0.752 -1.4347  1.7620 -2.2228
  280MOL0     H36927   8.543   5.932  -0.722  1.2698  0.3235 -0.0412
  280MOL0     H36928   8.360   5.811  -0.727  0.2604  0.3344 -0.0305
  280MOL0     H36929   8.375   5.863  -0.562  0.9567 -0.1731 -0.2314
  280MOL0     H36930   8.462   5.633  -0.496  1.6843  0.0102 -0.7975
  280MOL0     H36931   8.396   5.580  -0.658 -1.1346 -2.4038  1.9578
  280MOL0     H36932   8.235   5.719  -0.439  1.8390  0.4271 -1.4512
  280MOL0     H36933   8.184   5.701  -0.603  2.4719 -0.6582 -2.3451
  280MOL0     H36934   8.300   5.479  -0.423 -2.1049 -0.8219  2.7266
  280MOL0     H36935   8.211   5.435  -0.570  1.1615 -1.4811  2.6468
  280MOL0     H36936   7.993   5.531  -0.466 -0.6053  0.2576  0.3754
  280MOL0     H36937   8.086   5.547  -0.315 -3.2328  0.4209 -0.6845
  280MOL0     H36938   8.034   5.290  -0.461  0.4413 -0.1444  0.3526
  280MOL0     H36939   8.157   5.317  -0.329 -0.8326 -0.3568  2.2611
  280MOL0     H36940   7.862   5.383  -0.309  0.5853 -0.2388 -2.0649
  280MOL0     H36941   7.988   5.420  -0.190  2.5309 -0.6444  0.4736
  280MOL0     H36942   8.801   5.715  -0.412  1.8646  1.1197  2.4145
  280MOL0     H36943   9.042   5.721  -0.430 -0.8015 -0.0984  0.4019
  280MOL0     H36944   9.408   6.138  -0.771  2.5130  0.6465  0.5919
  280MOL0     H36945   9.666   6.137  -0.783 -2.8079  0.7992 -0.7536
  280MOL0     H36946   8.445   5.802   0.367 -2.1055  1.8055  2.4069
  280MOL0     H36947   8.224   5.761   0.442  0.6059  0.0661 -0.6484
  280MOL0     H36948   8.005   5.891   0.823  0.5385  1.1576  0.5194
  280MOL0     H36949   7.794   5.877   0.930  4.2791  0.9570  1.0129
  280MOL0     H36950   7.549   5.488   0.923 -0.1774 -1.2210 -0.8718
  280MOL0     H36951   7.538   5.572   0.775  0.6101 -0.2633 -0.2776
  280MOL0     H36952   7.357   5.600   1.009 -0.6388  2.1218  1.0127
  280MOL0     H36953   7.378   5.744   0.911 -0.4662  0.2073  1.2192
  280MOL0     H36954   7.334   5.463   0.808  0.7827  1.4933 -0.2009
  280MOL0     H36955   7.295   5.604   0.709  0.0870 -0.1014 -0.1014
  280MOL0     H36956   7.128   5.681   0.896  2.8034  0.3033  1.3159
  280MOL0     H36957   7.085   5.565   0.767  1.9017 -1.2638 -0.9819
  280MOL0     H36958   7.049   5.307   1.081 -1.0929 -1.1139 -1.7244
  280MOL0     H36959   7.753   5.471   0.850  0.4851 -1.3396  0.5844
  280MOL0     H36960   7.971   5.473   0.720 -0.2564 -0.0583 -0.8205
  281MOL0     O36961   2.261   1.199   9.302  0.4983 -0.1901  0.5228
  281MOL0     C36962   2.290   1.160   9.413 -0.7550 -0.3236  0.1212
  281MOL0     O36963   2.203   1.118   9.509  0.0522 -0.0560  0.3913
  281MOL0     C36964   2.068   1.116   9.477 -0.1794  0.2588 -0.1469
  281MOL0     C36965   1.987   1.128   9.583  0.4067 -0.0126 -0.3664
  281MOL0     C36966   1.850   1.106   9.577  0.3232 -0.9303 -0.3498
  281MOL0     C36967   1.790   1.060   9.456  0.6318 -0.2354 -0.7568
  281MOL0     O36968   1.653   1.043   9.464  0.5693  0.1718 -0.3814
  281MOL0     C36969   1.583   1.009   9.342  0.3552  1.1961  0.8771
  281MOL0     C36970   1.443   0.943   9.386  0.3078  0.6355 -0.2726
  281MOL0     C36971   1.358   0.948   9.259 -0.0107 -0.2402  0.1138
  281MOL0     C36972   1.233   0.880   9.287 -0.8975  0.1790  0.3103
  281MOL0     C36973   1.140   0.856   9.170 -0.2820 -0.7697 -0.0105
  281MOL0     C36974   1.012   0.779   9.202 -0.2035 -0.6633 -0.6882
  281MOL0     C36975   1.033   0.647   9.279 -0.2951  0.3389  0.2313
  281MOL0     C36976   0.889   0.585   9.306 -0.5909 -0.5064 -0.3671
  281MOL0     N36977   0.883   0.481   9.413 -0.3925  0.1751 -0.1682
  281MOL0     C36978   0.913   0.354   9.380 -0.3353 -1.0581  0.6482
  281MOL0     C36979   0.891   0.296   9.501  0.4683  0.2333  0.9387
  281MOL0     C36980   0.925   0.147   9.509 -0.0048 -0.4890  0.4780
  281MOL0     C36981   0.824   0.041   9.456  0.1957  0.1569 -0.4520
  281MOL0     C36982   0.702   0.045   9.551 -0.3484 -0.0804  0.1442
  281MOL0     C36983   0.611  -0.076   9.554  0.0219 -0.0224 -0.4114
  281MOL0     O36984   0.588  -0.132   9.422 -0.2823  0.4641 -0.3509
  281MOL0     C36985   0.503  -0.068   9.334 -0.6636  0.7135 -0.9001
  281MOL0     C36986   0.420   0.042   9.361 -0.2880  0.3576 -0.4478
  281MOL0     C36987   0.331   0.108   9.276 -0.1758 -0.4233 -0.4472
  281MOL0     C36988   0.318   0.048   9.150  0.3228 -0.2627  0.3489
  281MOL0     C36989   0.208   0.093   9.072  0.4254 -0.0750 -0.2407
  281MOL0     O36990   0.123   0.192   9.113  0.1069 -0.2514 -0.1000
  281MOL0     C36991  -0.016   0.183   9.061 -0.0688  0.0823 -2.3742
  281MOL0     C36992  -0.113   0.153   9.159 -0.5397  0.1990 -0.5859
  281MOL0     C36993  -0.251   0.168   9.129  0.0988  0.1682  0.2904
  281MOL0     C36994  -0.288   0.195   8.994 -0.2129  0.3393 -0.1971
  281MOL0     O36995  -0.425   0.177   8.977  0.0188 -0.2496  0.1429
  281MOL0     C36996  -0.488   0.234   8.865  0.5058  0.1702  0.1221
  281MOL0     C36997  -0.640   0.222   8.878  0.1474  0.3256 -0.3207
  281MOL0     C36998  -0.692   0.079   8.859  0.1065  0.5366 -0.4686
  281MOL0     C36999  -0.688   0.023   8.715 -1.1044  0.0566  0.1733
  281MOL0     C37000  -0.778  -0.095   8.695 -0.1734 -0.1637 -0.4552
  281MOL0     C37001  -0.940  -0.070   8.712 -0.3681  0.3320 -0.2658
  281MOL0     C37002  -1.018  -0.181   8.655  0.0061  0.1106 -0.0301
  281MOL0     C37003  -1.011  -0.308   8.737 -0.6826 -0.7101 -0.6675
  281MOL0    Cl37004  -1.044  -0.454   8.645 -0.4310  0.2259  0.1288
  281MOL0     C37005  -0.193   0.227   8.891  0.1033  0.0360  0.4177
  281MOL0     C37006  -0.058   0.221   8.928 -0.0389 -0.8144  0.1099
  281MOL0     O37007   0.190   0.033   8.964  0.2522  0.0554 -0.1235
  281MOL0     C37008   0.408  -0.056   9.109  0.9205 -0.0584  0.6920
  281MOL0     C37009   0.489  -0.121   9.201  0.4666  0.2024 -0.0869
  281MOL0     N37010   0.831   0.380   9.593 -0.4799 -0.4129 -0.6532
  281MOL0     N37011   0.833   0.501   9.536 -0.6537 -0.4741 -0.0595
  281MOL0     C37012   1.871   1.052   9.341  0.2343  0.0929 -0.6852
  281MOL0     C37013   2.012   1.061   9.354  0.2711 -0.4878 -0.6015
  281MOL0     C37014   2.423   1.193   9.446 -0.7824 -0.1734 -0.2533
  281MOL0     C37015   2.475   1.207   9.572 -0.1998 -0.4271  0.1494
  281MOL0     C37016   2.612   1.202   9.606  0.4770  0.5837 -0.4875
  281MOL0     C37017   2.708   1.179   9.501 -0.2829 -0.2273 -0.0404
  281MOL0     O37018   2.841   1.208   9.526  0.0602  0.2183 -0.3543
  281MOL0     C37019   2.946   1.197   9.428 -0.2884 -0.0987 -0.3746
  281MOL0     C37020   3.079   1.196   9.506  0.3149 -0.2894  0.1380
  281MOL0     C37021   3.198   1.181   9.416 -0.5085 -0.1369 -0.9618
  281MOL0     C37022   3.334   1.138   9.480  0.6966  0.8852 -0.1261
  281MOL0     C37023   3.431   1.103   9.376  1.8156 -0.5891 -0.3724
  281MOL0     C37024   3.497   1.079   9.280  0.7368  0.5010  0.6202
  281MOL0     C37025   2.662   1.176   9.372  0.6096 -0.7524  0.5899
  281MOL0     C37026   2.520   1.166   9.346  0.6995  0.2756 -0.1740
  281MOL0     H37027   2.028   1.172   9.673 -1.4204  1.8448 -0.3595
  281MOL0     H37028   1.793   1.114   9.669 -0.2652 -2.2553 -0.5801
  281MOL0     H37029   1.647   0.947   9.278  0.3327  1.3245  0.7281
  281MOL0     H37030   1.552   1.097   9.285 -0.5832  0.5376  0.3398
  281MOL0     H37031   1.401   0.996   9.472 -0.1707 -0.2993  0.0926
  281MOL0     H37032   1.462   0.842   9.425  1.5439  1.2679  0.8200
  281MOL0     H37033   1.409   0.893   9.179  0.9161  1.4683 -0.5187
  281MOL0     H37034   1.344   1.054   9.236 -0.1835 -0.1845  0.4632
  281MOL0     H37035   1.260   0.793   9.346 -0.2373  0.4948  0.4879
  281MOL0     H37036   1.179   0.945   9.356 -2.1232  1.6794 -1.9126
  281MOL0     H37037   1.202   0.793   9.106  0.8133  1.3546 -1.1352
  281MOL0     H37038   1.120   0.952   9.123  0.7349 -0.1455  0.7739
  281MOL0     H37039   0.966   0.759   9.105  0.7968  0.8885 -1.5341
  281MOL0     H37040   0.946   0.844   9.261 -2.3270 -1.9915 -1.4983
  281MOL0     H37041   1.085   0.593   9.200 -1.5640  0.4407 -0.7108
  281MOL0     H37042   1.087   0.653   9.374 -2.3932 -0.4283  1.5586
  281MOL0     H37043   0.846   0.536   9.218  0.3283 -0.9835 -0.5670
  281MOL0     H37044   0.818   0.666   9.327 -0.1382  0.3893 -2.1258
  281MOL0     H37045   0.968   0.315   9.295  0.9926  0.6459  0.6574
  281MOL0     H37046   0.952   0.126   9.613  2.1019 -2.8735 -0.4421
  281MOL0     H37047   1.018   0.132   9.453 -1.0802 -1.3882 -1.1423
  281MOL0     H37048   0.863  -0.061   9.464 -2.1255 -0.8930 -1.5389
  281MOL0     H37049   0.793   0.070   9.356  2.3332  0.1271 -1.1786
  281MOL0     H37050   0.740   0.045   9.653 -0.3000 -1.5139  0.1445
  281MOL0     H37051   0.632   0.127   9.531  0.3165  0.6149  0.6011
  281MOL0     H37052   0.520  -0.047   9.606  0.1654 -3.5108  2.1345
  281MOL0     H37053   0.655  -0.145   9.626  1.7657  2.0781  0.6658
  281MOL0     H37054   0.429   0.087   9.459 -2.4899  0.9067 -0.4499
  281MOL0     H37055   0.277   0.193   9.316  1.3853 -1.1630  3.7915
  281MOL0     H37056  -0.074   0.131   9.257  2.0419  1.7449 -1.1424
  281MOL0     H37057  -0.330   0.151   9.201 -0.9119  1.5628 -0.4418
  281MOL0     H37058  -0.449   0.183   8.776  0.1683  2.5013 -1.4633
  281MOL0     H37059  -0.458   0.339   8.850 -0.6413  0.6795  1.1885
  281MOL0     H37060  -0.693   0.294   8.814 -1.7329  2.1135  2.9749
  281MOL0     H37061  -0.685   0.259   8.970 -1.6719 -2.9234  0.2531
  281MOL0     H37062  -0.793   0.077   8.900 -0.0366 -2.0995 -0.7668
  281MOL0     H37063  -0.636   0.007   8.921  0.4906  0.9589 -0.3201
  281MOL0     H37064  -0.718   0.097   8.641  0.1192 -1.9616 -2.4971
  281MOL0     H37065  -0.586  -0.008   8.693 -1.4854 -2.5635  1.6117
  281MOL0     H37066  -0.742  -0.186   8.743 -1.5143 -0.8382 -0.6668
  281MOL0     H37067  -0.765  -0.123   8.590  0.7350 -0.1534 -0.3502
  281MOL0     H37068  -0.964   0.017   8.651 -1.6479  0.2903  0.1460
  281MOL0     H37069  -0.976  -0.047   8.812 -0.9898  1.2551 -0.6891
  281MOL0     H37070  -1.124  -0.154   8.655 -0.0131  0.0419  0.6471
  281MOL0     H37071  -0.981  -0.202   8.554  1.8592 -1.0842  0.8412
  281MOL0     H37072  -1.083  -0.296   8.819 -1.3351  0.2878 -1.3651
  281MOL0     H37073  -0.914  -0.318   8.785 -0.4006 -3.3035 -1.6160
  281MOL0     H37074  -0.220   0.254   8.790 -1.4341  1.6625  1.2127
  281MOL0     H37075   0.027   0.237   8.863 -0.6732  0.8136 -0.3689
  281MOL0     H37076   0.403  -0.091   9.007 -2.0170 -0.1779  0.7976
  281MOL0     H37077   0.547  -0.210   9.179 -0.6932 -0.0492 -2.4429
  281MOL0     H37078   1.839   1.027   9.240 -1.1744  4.0380 -1.3888
  281MOL0     H37079   2.077   1.036   9.271  1.5814  1.9125 -0.4067
  281MOL0     H37080   2.402   1.228   9.650 -1.0110 -1.9804 -0.1593
  281MOL0     H37081   2.655   1.227   9.702 -1.8439  0.2380  0.7044
  281MOL0     H37082   2.956   1.285   9.362  2.6677  0.9909  1.3198
  281MOL0     H37083   2.942   1.107   9.366  3.4428  0.5080 -1.8379
  281MOL0     H37084   3.096   1.291   9.556 -0.5118 -0.2330  0.3280
  281MOL0     H37085   3.079   1.114   9.580 -1.2313  0.8977  1.5249
  281MOL0     H37086   3.212   1.279   9.369 -0.9082  0.3182 -0.1458
  281MOL0     H37087   3.172   1.103   9.343  1.5646 -0.8641 -1.0159
  281MOL0     H37088   3.371   1.221   9.541  0.2390  2.0509 -1.3878
  281MOL0     H37089   3.323   1.046   9.537 -2.2805  1.8489  1.0343
  281MOL0     H37090   3.562   1.050   9.200  2.8262  1.1827  1.9630
  281MOL0     H37091   2.730   1.163   9.289 -0.5801 -0.5269 -0.4468
  281MOL0     H37092   2.492   1.135   9.246  0.0997 -3.4862  0.9919
  282MOL0     O37093   8.385   6.837   5.733  0.2712 -0.0575 -0.2462
  282MOL0     C37094   8.328   6.870   5.628  0.2263  0.6508  0.4831
  282MOL0     O37095   8.391   6.916   5.513  0.3101 -0.3600  0.2861
  282MOL0     C37096   8.528   6.927   5.518 -0.0617  0.0415  0.5541
  282MOL0     C37097   8.584   7.053   5.545  0.2818  1.2810 -0.3608
  282MOL0     C37098   8.718   7.065   5.545  0.6184 -0.4444  0.3251
  282MOL0     C37099   8.806   6.961   5.532  0.1277 -0.2860  0.7837
  282MOL0     O37100   8.943   6.987   5.526 -0.3262 -0.4213 -0.9043
  282MOL0     C37101   9.040   6.892   5.530 -0.6434  0.9477 -0.4126
  282MOL0     C37102   9.181   6.947   5.562 -0.7307 -0.3152 -0.6228
  282MOL0     C37103   9.195   7.100   5.541  0.8139  0.3330 -0.1749
  282MOL0     C37104   9.316   7.167   5.619  0.5478  0.6018 -0.2327
  282MOL0     C37105   9.312   7.316   5.617 -0.3411  0.3460  0.1025
  282MOL0     C37106   9.400   7.356   5.739  0.1126  0.0247  1.1789
  282MOL0     C37107   9.378   7.504   5.749  0.5995 -0.4564  0.6555
  282MOL0     C37108   9.463   7.557   5.861 -0.3232 -1.1854 -0.9458
  282MOL0     N37109   9.385   7.597   5.986 -0.4868  0.0264  0.7502
  282MOL0     C37110   9.304   7.706   6.007 -0.4557 -0.2994 -0.3104
  282MOL0     C37111   9.271   7.704   6.141 -1.0541 -0.4401  0.3920
  282MOL0     C37112   9.180   7.809   6.201 -0.3559  0.1048 -0.0025
  282MOL0     C37113   9.265   7.910   6.274 -0.8861  0.5562 -0.2962
  282MOL0     C37114   9.177   8.006   6.347  0.0375 -0.2662 -0.1239
  282MOL0     C37115   9.159   7.957   6.496  0.1614  0.1874  0.1571
  282MOL0     O37116   9.088   7.836   6.510  0.1350  0.1945  0.2734
  282MOL0     C37117   8.953   7.825   6.539 -0.2019 -1.0272 -0.4166
  282MOL0     C37118   8.870   7.934   6.576  0.0820  0.5611  0.3721
  282MOL0     C37119   8.744   7.904   6.641 -0.0783  0.0173 -0.4598
  282MOL0     C37120   8.700   7.772   6.663 -0.1006 -1.2553  1.1021
  282MOL0     C37121   8.575   7.748   6.749  0.6355  0.2574 -0.3359
  282MOL0     O37122   8.483   7.850   6.762  0.1036  0.3011  0.2464
  282MOL0     C37123   8.352   7.816   6.790 -0.0327 -0.4881  1.3622
  282MOL0     C37124   8.301   7.881   6.902 -0.2883  0.5799  0.3889
  282MOL0     C37125   8.180   7.837   6.961 -0.2537  0.1085  0.5000
  282MOL0     C37126   8.091   7.757   6.880  0.7324 -0.3411  0.2308
  282MOL0     O37127   7.960   7.720   6.920 -0.4481 -0.1983 -0.6267
  282MOL0     C37128   7.935   7.706   7.063  0.0875  0.2210  0.2767
  282MOL0     C37129   7.790   7.680   7.097  0.6007  1.5276  0.5083
  282MOL0     C37130   7.706   7.807   7.129  0.5494 -0.2668 -0.7006
  282MOL0     C37131   7.600   7.758   7.233  0.2950  0.6310  0.5825
  282MOL0     C37132   7.524   7.875   7.290 -0.2973  0.2526 -0.7452
  282MOL0     C37133   7.598   7.921   7.420  0.6329  0.0394  0.6866
  282MOL0     C37134   7.537   8.046   7.482  0.2958  0.2688 -0.2508
  282MOL0     C37135   7.608   8.180   7.449 -0.2174  0.0705  0.6041
  282MOL0    Cl37136   7.543   8.292   7.568 -0.2631  0.0938  0.2856
  282MOL0     C37137   8.136   7.717   6.755 -0.1561 -0.1436  0.1798
  282MOL0     C37138   8.265   7.734   6.711 -0.1253 -0.7534  0.0479
  282MOL0     O37139   8.564   7.633   6.802  0.5228  0.3293 -0.9272
  282MOL0     C37140   8.790   7.674   6.636 -0.1542  0.4110 -1.1984
  282MOL0     C37141   8.903   7.700   6.565  0.4063 -0.1132 -0.1302
  282MOL0     N37142   9.336   7.599   6.192 -0.3013 -0.2656 -0.1050
  282MOL0     N37143   9.390   7.524   6.105  0.1079  0.2112 -0.1208
  282MOL0     C37144   8.753   6.833   5.513 -1.1046  0.3880 -0.0218
  282MOL0     C37145   8.616   6.817   5.512  0.3273  0.0407 -0.6011
  282MOL0     C37146   8.190   6.836   5.615 -0.2431  0.5794 -0.3415
  282MOL0     C37147   8.127   6.831   5.496  0.2650  0.5026  0.4124
  282MOL0     C37148   7.987   6.830   5.484 -0.7907  0.5034  0.4881
  282MOL0     C37149   7.908   6.822   5.590  0.3842 -0.0004 -0.6375
  282MOL0     O37150   7.765   6.821   5.586  0.0909  0.4081 -0.2673
  282MOL0     C37151   7.699   6.793   5.461  0.3650 -0.1344 -0.4107
  282MOL0     C37152   7.549   6.789   5.475  0.4074 -0.3673  1.0923
  282MOL0     C37153   7.497   6.646   5.426  0.7441 -0.6903 -0.1488
  282MOL0     C37154   7.355   6.625   5.476 -0.9288 -0.4697 -0.2069
  282MOL0     C37155   7.291   6.505   5.437 -0.7235  0.6876  1.5092
  282MOL0     C37156   7.233   6.408   5.390 -0.6795  0.0265 -0.5444
  282MOL0     C37157   7.962   6.827   5.717 -0.2551  0.0572  0.0429
  282MOL0     C37158   8.107   6.827   5.733 -0.1407  0.5590 -0.4493
  282MOL0     H37159   8.517   7.133   5.576 -2.6794 -0.0991 -2.6247
  282MOL0     H37160   8.748   7.170   5.546  0.5964 -0.4426  1.0112
  282MOL0     H37161   9.043   6.840   5.434  1.4276 -0.0532  0.1388
  282MOL0     H37162   9.019   6.823   5.612 -0.7880  0.1830 -1.0861
  282MOL0     H37163   9.253   6.905   5.491  1.1719  1.0710  0.3803
  282MOL0     H37164   9.215   6.922   5.663 -0.2937 -1.5784 -1.0608
  282MOL0     H37165   9.103   7.141   5.585  0.4892 -2.1019  1.6385
  282MOL0     H37166   9.193   7.131   5.437 -0.4442  0.7999 -0.0381
  282MOL0     H37167   9.309   7.123   5.719  0.7126 -2.2343 -1.3892
  282MOL0     H37168   9.414   7.133   5.585  0.0281 -1.2994  0.0559
  282MOL0     H37169   9.208   7.346   5.628 -0.7745  0.2180 -2.8808
  282MOL0     H37170   9.356   7.339   5.519 -1.7611  0.5372 -0.5165
  282MOL0     H37171   9.506   7.339   5.719 -0.2319 -0.1830 -0.6713
  282MOL0     H37172   9.363   7.301   5.826 -0.9259 -4.2414 -1.6499
  282MOL0     H37173   9.407   7.553   5.656 -0.2579  0.0195  0.6228
  282MOL0     H37174   9.273   7.518   5.775  0.8041 -0.2978  1.4008
  282MOL0     H37175   9.506   7.652   5.829  0.0567 -1.5614 -1.5836
  282MOL0     H37176   9.542   7.487   5.890  2.1506  1.3952 -0.9852
  282MOL0     H37177   9.268   7.765   5.923 -1.9996 -1.4415 -0.5166
  282MOL0     H37178   9.114   7.756   6.270 -1.5013 -0.4168 -1.4464
  282MOL0     H37179   9.109   7.853   6.130 -0.1948  1.2623  0.5284
  282MOL0     H37180   9.313   7.959   6.188 -0.6168 -0.5024 -0.7726
  282MOL0     H37181   9.336   7.861   6.341 -0.8560 -1.4939 -1.7333
  282MOL0     H37182   9.223   8.104   6.336 -1.2979  0.3438 -0.4400
  282MOL0     H37183   9.081   8.007   6.295  0.3687  0.7179 -0.7327
  282MOL0     H37184   9.108   8.029   6.560  0.4792  1.2939 -0.8170
  282MOL0     H37185   9.261   7.947   6.534 -0.1767 -2.2034  0.6274
  282MOL0     H37186   8.912   8.033   6.565  3.3798 -0.6456  0.9078
  282MOL0     H37187   8.688   7.989   6.681  0.9373 -0.2134  1.5544
  282MOL0     H37188   8.363   7.948   6.962  2.1220  0.8154 -2.1491
  282MOL0     H37189   8.170   7.877   7.062 -0.8990  1.3555 -0.0403
  282MOL0     H37190   7.972   7.791   7.120  1.9603  1.0514 -2.0205
  282MOL0     H37191   7.992   7.621   7.104 -0.0945  1.3234  3.0585
  282MOL0     H37192   7.804   7.607   7.177  2.0714  1.2201 -0.0063
  282MOL0     H37193   7.758   7.612   7.018  3.9273 -1.7989  1.7433
  282MOL0     H37194   7.654   7.846   7.041 -0.0607  4.3776  1.4491
  282MOL0     H37195   7.761   7.892   7.171 -1.9434  0.5985  1.0575
  282MOL0     H37196   7.526   7.693   7.185 -0.0102  2.5255 -1.6590
  282MOL0     H37197   7.651   7.711   7.318 -0.0599 -1.0640 -0.0936
  282MOL0     H37198   7.422   7.847   7.318 -0.3798  1.5418  0.3323
  282MOL0     H37199   7.515   7.960   7.222 -3.0162  1.5731  1.0935
  282MOL0     H37200   7.705   7.911   7.401  0.3541 -3.7557  0.4596
  282MOL0     H37201   7.575   7.850   7.500  0.0191  0.1169  0.5850
  282MOL0     H37202   7.437   8.048   7.437 -0.3130 -1.1030  0.9546
  282MOL0     H37203   7.537   8.034   7.591 -0.4014 -1.6155 -0.4204
  282MOL0     H37204   7.577   8.214   7.350  2.5368 -1.1443 -0.7879
  282MOL0     H37205   7.717   8.170   7.459 -0.0433  1.6295  0.5252
  282MOL0     H37206   8.061   7.672   6.691 -2.4044  4.5076 -0.8620
  282MOL0     H37207   8.305   7.696   6.617 -0.5672 -0.9397 -0.0649
  282MOL0     H37208   8.767   7.569   6.651 -0.1267  0.5087 -0.4032
  282MOL0     H37209   8.972   7.625   6.528 -1.0213 -0.4093 -2.3874
  282MOL0     H37210   8.813   6.743   5.506 -1.0214  0.3892  0.6732
  282MOL0     H37211   8.581   6.715   5.512 -1.3388  0.5707  0.5970
  282MOL0     H37212   8.181   6.841   5.402 -0.5052  2.0072  0.0976
  282MOL0     H37213   7.953   6.829   5.381  1.9757  0.2949 -0.5153
  282MOL0     H37214   7.738   6.702   5.413  1.4587  1.2910 -2.4098
  282MOL0     H37215   7.723   6.870   5.387 -0.4841  1.8487  1.3173
  282MOL0     H37216   7.514   6.804   5.577  0.1510 -0.3743  1.0057
  282MOL0     H37217   7.520   6.861   5.398  3.0489 -0.8122 -0.4713
  282MOL0     H37218   7.555   6.561   5.461 -0.3528 -2.2086 -1.8486
  282MOL0     H37219   7.497   6.639   5.316  2.0204 -0.8658 -0.1465
  282MOL0     H37220   7.351   6.641   5.585  1.3745 -2.2716  0.2334
  282MOL0     H37221   7.289   6.708   5.448  1.9206  2.5596  1.3184
  282MOL0     H37222   7.175   6.330   5.345  0.7550 -0.8447 -0.9517
  282MOL0     H37223   7.893   6.830   5.801  1.4602  1.0209  1.4806
  282MOL0     H37224   8.141   6.829   5.836 -3.2090 -0.7739  0.6876
  283MOL0     O37225   9.768   0.065   1.077 -0.5563 -0.0206  0.8735
  283MOL0     C37226   9.816  -0.049   1.084  0.7042 -0.6470  0.5535
  283MOL0     O37227   9.741  -0.161   1.082 -0.0511  0.2001 -0.1065
  283MOL0     C37228   9.613  -0.168   1.044  0.4840  0.6678  1.0500
  283MOL0     C37229   9.511  -0.202   1.129  1.1512  0.9193  0.4381
  283MOL0     C37230   9.379  -0.219   1.086  0.0142 -1.2226  0.2369
  283MOL0     C37231   9.362  -0.196   0.950 -0.6904 -0.3902  0.4269
  283MOL0     O37232   9.239  -0.209   0.889 -0.0658  0.1443  0.3830
  283MOL0     C37233   9.116  -0.176   0.952  0.9712  0.3950 -0.3959
  283MOL0     C37234   9.000  -0.185   0.857  0.3764  0.5904  0.4925
  283MOL0     C37235   8.863  -0.173   0.915  0.9090 -0.1786 -0.3894
  283MOL0     C37236   8.759  -0.212   0.814  0.1976  0.0512 -0.0263
  283MOL0     C37237   8.628  -0.217   0.891  0.5189  0.5623  0.1742
  283MOL0     C37238   8.503  -0.197   0.797 -0.0121  0.8328 -0.1716
  283MOL0     C37239   8.370  -0.203   0.863 -0.2636 -0.1244  0.2059
  283MOL0     C37240   8.266  -0.149   0.762  0.4567  0.0406  0.1460
  283MOL0     N37241   8.132  -0.152   0.830  0.2455  0.1570 -0.1302
  283MOL0     C37242   8.049  -0.260   0.822 -0.1314 -0.4597  0.8086
  283MOL0     C37243   7.933  -0.211   0.876 -0.2539 -0.1638 -0.1297
  283MOL0     C37244   7.805  -0.280   0.901 -0.4827 -0.3380 -0.0594
  283MOL0     C37245   7.706  -0.263   0.781 -0.4969 -0.0616 -0.0304
  283MOL0     C37246   7.565  -0.314   0.826 -0.4778 -0.1473  0.8200
  283MOL0     C37247   7.461  -0.270   0.718 -0.4690  0.4194 -0.5224
  283MOL0     O37248   7.339  -0.344   0.720  1.0263  0.4069 -0.9255
  283MOL0     C37249   7.246  -0.328   0.828 -0.0727 -0.1686  0.7352
  283MOL0     C37250   7.239  -0.202   0.893  1.0458 -0.2696  0.8407
  283MOL0     C37251   7.139  -0.175   0.983  0.6167 -0.1203  0.2993
  283MOL0     C37252   7.054  -0.277   1.024  0.8426 -0.7960  0.5101
  283MOL0     C37253   6.956  -0.250   1.134 -0.2148 -0.6293 -0.1140
  283MOL0     O37254   6.874  -0.351   1.171  0.9890 -0.0279  0.0357
  283MOL0     C37255   6.777  -0.320   1.266 -0.8387  0.2013  0.2674
  283MOL0     C37256   6.656  -0.264   1.224  0.2696  0.2786 -0.5076
  283MOL0     C37257   6.560  -0.220   1.319 -0.1896 -1.0024  0.1501
  283MOL0     C37258   6.579  -0.251   1.452  0.2020 -0.1216  1.2483
  283MOL0     O37259   6.486  -0.225   1.544  0.3276  0.2927  0.3495
  283MOL0     C37260   6.453  -0.328   1.632  0.4300 -0.2205 -0.6518
  283MOL0     C37261   6.392  -0.442   1.557  0.1399  0.4213 -0.2538
  283MOL0     C37262   6.252  -0.414   1.505 -0.0583  0.5730  0.9008
  283MOL0     C37263   6.217  -0.529   1.404  1.1758  0.3612  0.1480
  283MOL0     C37264   6.071  -0.537   1.359 -1.1746  0.2016 -0.1329
  283MOL0     C37265   6.026  -0.400   1.306 -0.2538 -0.2912  0.0476
  283MOL0     C37266   5.903  -0.424   1.214  0.2782 -1.1517  0.0882
  283MOL0     C37267   5.815  -0.302   1.169 -0.0334  0.0033 -0.2349
  283MOL0    Cl37268   5.896  -0.199   1.046  0.4514 -0.2538 -0.4129
  283MOL0     C37269   6.696  -0.303   1.493 -0.5850  0.6029 -0.0230
  283MOL0     C37270   6.795  -0.342   1.403  0.2502 -0.2616  0.7770
  283MOL0     O37271   6.959  -0.136   1.191 -0.1563  0.1020  0.7154
  283MOL0     C37272   7.067  -0.398   0.957 -0.3611  1.0216  0.6005
  283MOL0     C37273   7.162  -0.431   0.869 -1.1508 -0.4915 -0.1056
  283MOL0     N37274   7.949  -0.080   0.919  0.3486  0.0728 -0.2880
  283MOL0     N37275   8.066  -0.044   0.873  0.4895  0.2193 -0.2344
  283MOL0     C37276   9.454  -0.152   0.859  0.3086  0.0832 -0.4510
  283MOL0     C37277   9.586  -0.134   0.913 -0.3123  0.1256 -0.2915
  283MOL0     C37278   9.960  -0.061   1.092  0.1302 -0.2322  0.3084
  283MOL0     C37279  10.040   0.048   1.088  0.1021 -0.0219  0.0941
  283MOL0     C37280  10.173   0.050   1.113 -0.2292 -0.7192 -0.4036
  283MOL0     C37281  10.235  -0.075   1.130 -0.0486  0.5700 -0.4059
  283MOL0     O37282  10.369  -0.095   1.145 -0.0718  0.1552  0.3000
  283MOL0     C37283  10.424  -0.023   1.256  0.9264 -0.8020 -0.4045
  283MOL0     C37284  10.573   0.003   1.244 -0.5916  0.3302  0.4227
  283MOL0     C37285  10.608   0.129   1.160  0.2939  0.6649 -0.2821
  283MOL0     C37286  10.754   0.154   1.157  0.0731 -0.5844  0.3721
  283MOL0     C37287  10.790   0.237   1.036  0.1108 -0.2150  0.1051
  283MOL0     C37288  10.806   0.288   0.923 -0.9380 -0.6680  0.4500
  283MOL0     C37289  10.159  -0.200   1.122 -0.0794 -0.3469  0.4065
  283MOL0     C37290  10.019  -0.190   1.100 -0.3314  0.3053  0.2879
  283MOL0     H37291   9.539  -0.223   1.232  3.5743 -0.3710 -0.4127
  283MOL0     H37292   9.296  -0.250   1.149 -1.2900 -1.2825 -1.4195
  283MOL0     H37293   9.131  -0.075   0.992 -0.8934  1.2833 -1.8511
  283MOL0     H37294   9.095  -0.238   1.040  2.3570 -0.0599 -0.3528
  283MOL0     H37295   9.015  -0.281   0.806 -0.0985  0.7134  0.1157
  283MOL0     H37296   9.012  -0.107   0.781 -1.1677 -1.8806 -2.4768
  283MOL0     H37297   8.859  -0.067   0.944  0.9685 -0.4284  0.5820
  283MOL0     H37298   8.845  -0.229   1.008  1.3916  0.8136  0.3253
  283MOL0     H37299   8.755  -0.125   0.749  4.2643  3.2191  3.3946
  283MOL0     H37300   8.786  -0.298   0.752  2.4177  0.3056  0.4729
  283MOL0     H37301   8.620  -0.138   0.966  1.3358  1.5495 -0.7679
  283MOL0     H37302   8.605  -0.314   0.937 -0.5800  0.5027 -0.4504
  283MOL0     H37303   8.501  -0.282   0.728 -3.0397  0.8449 -0.2170
  283MOL0     H37304   8.515  -0.105   0.739  1.2511 -0.8145 -2.6890
  283MOL0     H37305   8.350  -0.306   0.895  1.9602 -1.0108 -1.1132
  283MOL0     H37306   8.364  -0.138   0.951  0.2224 -0.4953  0.5170
  283MOL0     H37307   8.263  -0.206   0.669  0.2883 -2.4826  1.5989
  283MOL0     H37308   8.293  -0.046   0.739 -2.6851  0.9487  0.0869
  283MOL0     H37309   8.073  -0.356   0.777 -1.2438 -0.8608  1.0280
  283MOL0     H37310   7.763  -0.239   0.993  0.3420  0.4348 -0.0067
  283MOL0     H37311   7.813  -0.388   0.922  1.2450 -0.0318  1.1133
  283MOL0     H37312   7.743  -0.306   0.688 -1.2013  2.1270 -1.3984
  283MOL0     H37313   7.690  -0.157   0.761 -1.5664 -0.3321 -0.6843
  283MOL0     H37314   7.555  -0.423   0.819  2.7283 -0.5277  0.7990
  283MOL0     H37315   7.537  -0.284   0.927  1.2619  0.0592  1.2685
  283MOL0     H37316   7.506  -0.280   0.619 -2.5908 -1.0393 -1.4139
  283MOL0     H37317   7.447  -0.163   0.732 -1.8368  0.1171  0.7755
  283MOL0     H37318   7.317  -0.130   0.870  1.6905 -0.6386  1.8108
  283MOL0     H37319   7.129  -0.073   1.018 -0.9196  1.5235 -4.1298
  283MOL0     H37320   6.650  -0.253   1.116 -2.6956 -1.0837 -0.5855
  283MOL0     H37321   6.474  -0.164   1.285  0.8379 -0.2496 -1.2996
  283MOL0     H37322   6.378  -0.288   1.700  2.6985  1.1072  1.2070
  283MOL0     H37323   6.527  -0.366   1.703 -2.1606  0.0936  2.4101
  283MOL0     H37324   6.407  -0.531   1.619 -1.0492  0.0290 -0.5177
  283MOL0     H37325   6.452  -0.461   1.467 -0.8260 -0.5814 -0.7183
  283MOL0     H37326   6.238  -0.315   1.462 -0.4321 -0.4767 -1.5908
  283MOL0     H37327   6.182  -0.420   1.588 -1.5101  2.6929 -0.0801
  283MOL0     H37328   6.279  -0.519   1.315 -1.0170 -0.2634 -1.5192
  283MOL0     H37329   6.243  -0.617   1.464  1.2613  0.8774  0.8926
  283MOL0     H37330   6.005  -0.560   1.443  0.3727 -0.8985  0.8354
  283MOL0     H37331   6.057  -0.615   1.284 -1.9472  0.0013  0.2156
  283MOL0     H37332   6.102  -0.345   1.249  0.6828  0.7648  2.2112
  283MOL0     H37333   6.005  -0.339   1.394  4.5923  0.8282  0.6756
  283MOL0     H37334   5.929  -0.484   1.126  2.9225 -0.3215  0.2118
  283MOL0     H37335   5.842  -0.482   1.283  2.5312 -2.4343  1.0710
  283MOL0     H37336   5.798  -0.242   1.260 -0.8143 -0.3480 -0.1399
  283MOL0     H37337   5.716  -0.329   1.132  0.3135  1.8306 -2.7711
  283MOL0     H37338   6.724  -0.342   1.591 -0.1792  0.0344 -0.3602
  283MOL0     H37339   6.895  -0.359   1.440 -0.1908 -0.4163  1.9707
  283MOL0     H37340   6.998  -0.480   0.971  0.6382 -0.1169 -0.8247
  283MOL0     H37341   7.167  -0.535   0.838  0.9776 -1.4691  3.0082
  283MOL0     H37342   9.438  -0.128   0.754  2.5730  1.1568 -0.6177
  283MOL0     H37343   9.665  -0.082   0.859  1.8516 -0.5666  2.0159
  283MOL0     H37344  10.007   0.151   1.079  0.2183  0.0490  0.4876
  283MOL0     H37345  10.212   0.151   1.102  0.2403 -1.1166 -3.3438
  283MOL0     H37346  10.414  -0.089   1.342  0.0092  0.0907  0.1975
  283MOL0     H37347  10.366   0.067   1.278  1.3881  0.0314 -2.3714
  283MOL0     H37348  10.611   0.036   1.341  4.8363  1.4146 -1.7106
  283MOL0     H37349  10.634  -0.078   1.205  0.4307  2.8192 -3.8303
  283MOL0     H37350  10.559   0.216   1.206 -0.8419  1.0380 -2.0854
  283MOL0     H37351  10.566   0.125   1.059  0.4630  3.9427 -0.6136
  283MOL0     H37352  10.780   0.206   1.249  1.2569 -0.7038  0.1221
  283MOL0     H37353  10.808   0.060   1.146 -0.1198 -0.4210 -4.5613
  283MOL0     H37354  10.822   0.337   0.829 -0.6822 -0.3421  0.6623
  283MOL0     H37355  10.207  -0.295   1.140  0.3199 -0.4368 -1.0401
  283MOL0     H37356   9.955  -0.276   1.113 -1.4417  1.0763  0.0012
  284MOL0     O37357   4.423   0.023   0.790 -0.2464  0.6595  0.2759
  284MOL0     C37358   4.485   0.125   0.798 -0.5069 -0.5459  0.1030
  284MOL0     O37359   4.441   0.243   0.754 -0.2299  0.2787  0.5116
  284MOL0     C37360   4.319   0.263   0.704  0.1063 -0.6486 -0.0649
  284MOL0     C37361   4.309   0.375   0.609 -0.1644 -0.1856 -1.1899
  284MOL0     C37362   4.193   0.407   0.542 -0.7473  0.7672  0.9703
  284MOL0     C37363   4.078   0.335   0.567 -0.2164  1.0021 -0.2190
  284MOL0     O37364   3.955   0.375   0.526  0.1432 -0.6111 -0.1548
  284MOL0     C37365   3.944   0.430   0.396  0.8989  0.2635  0.9525
  284MOL0     C37366   3.923   0.578   0.394 -0.0526  0.5458 -0.0232
  284MOL0     C37367   3.782   0.626   0.415 -0.6355 -0.7506 -0.4480
  284MOL0     C37368   3.696   0.632   0.287  0.0299  0.3612 -0.2022
  284MOL0     C37369   3.550   0.668   0.330  0.2431  0.2650  0.6383
  284MOL0     C37370   3.532   0.817   0.338  0.2390  0.5060 -0.1315
  284MOL0     C37371   3.390   0.852   0.388  0.4916 -0.2986  0.7225
  284MOL0     C37372   3.357   0.996   0.361 -0.4517 -0.6298  0.0466
  284MOL0     N37373   3.232   1.057   0.409  0.2854  0.1903  0.0207
  284MOL0     C37374   3.111   0.993   0.382 -0.1996 -0.2480  0.2236
  284MOL0     C37375   3.027   1.091   0.411  0.1616  0.0792 -1.3931
  284MOL0     C37376   2.875   1.086   0.403 -0.4646  0.4204 -0.0478
  284MOL0     C37377   2.817   1.173   0.286  0.2484 -0.1344 -0.2934
  284MOL0     C37378   2.672   1.142   0.262 -0.1718 -0.6717 -0.2671
  284MOL0     C37379   2.620   1.225   0.152  0.4611 -0.5865  0.3759
  284MOL0     O37380   2.485   1.184   0.106  0.4354 -0.2099 -0.0674
  284MOL0     C37381   2.372   1.246   0.142 -0.2372  0.5317  0.2729
  284MOL0     C37382   2.259   1.192   0.080 -0.6534  0.3828 -0.4458
  284MOL0     C37383   2.136   1.237   0.126  0.1681 -0.0291  0.4771
  284MOL0     C37384   2.123   1.323   0.237 -0.9660  0.6284  0.5398
  284MOL0     C37385   1.997   1.369   0.290  0.7794 -0.0972  0.9454
  284MOL0     O37386   1.991   1.447   0.402 -0.3992 -0.3098 -0.8661
  284MOL0     C37387   1.882   1.512   0.457  0.3091 -0.7029  0.5149
  284MOL0     C37388   1.759   1.538   0.387  0.1311 -0.2779 -0.1027
  284MOL0     C37389   1.663   1.624   0.437 -0.1302  0.8614 -0.1702
  284MOL0     C37390   1.677   1.673   0.560 -1.1115 -0.8315 -0.3173
  284MOL0     O37391   1.573   1.738   0.621 -0.4215 -0.0369 -0.0342
  284MOL0     C37392   1.447   1.741   0.557 -0.0221 -0.5188 -0.5465
  284MOL0     C37393   1.356   1.784   0.667 -0.0191 -0.1615 -0.5391
  284MOL0     C37394   1.209   1.778   0.620  1.0032  0.8452 -0.0549
  284MOL0     C37395   1.109   1.774   0.743 -0.6305 -0.1287  0.5816
  284MOL0     C37396   0.961   1.769   0.705 -0.7465  0.5701  0.2554
  284MOL0     C37397   0.878   1.739   0.831  0.8355 -0.8596  0.3186
  284MOL0     C37398   0.732   1.716   0.776  0.0188  1.0303 -0.4384
  284MOL0     C37399   0.624   1.703   0.889  0.0114 -0.2370  0.3855
  284MOL0    Cl37400   0.473   1.678   0.789  0.2897 -0.2744  0.1162
  284MOL0     C37401   1.793   1.649   0.631 -0.0814 -0.1934 -0.3091
  284MOL0     C37402   1.897   1.569   0.581  0.5309  0.5348 -0.4448
  284MOL0     O37403   1.897   1.319   0.232  0.8313  1.0414  0.4153
  284MOL0     C37404   2.241   1.386   0.282  0.0589  0.9270  0.6941
  284MOL0     C37405   2.368   1.345   0.238 -0.5874  0.2723 -0.5196
  284MOL0     N37406   3.097   1.206   0.442  0.3725 -0.6011  0.6536
  284MOL0     N37407   3.224   1.182   0.451  0.8919 -0.8318 -0.4425
  284MOL0     C37408   4.082   0.233   0.662 -0.2003 -0.0468  0.3996
  284MOL0     C37409   4.197   0.189   0.723  0.1846 -0.1146  0.1135
  284MOL0     C37410   4.617   0.140   0.867 -0.0834  0.5066 -0.5928
  284MOL0     C37411   4.697   0.254   0.844  1.0026  0.6581 -0.1114
  284MOL0     C37412   4.821   0.269   0.914 -0.2549  0.3322  1.1229
  284MOL0     C37413   4.866   0.173   1.012 -0.1695  0.7840 -0.6795
  284MOL0     O37414   4.981   0.190   1.078 -0.3493  0.0035 -0.6843
  284MOL0     C37415   5.006   0.117   1.197 -0.5716  0.0091  0.1160
  284MOL0     C37416   5.125   0.177   1.277  0.0347  0.2179  0.3513
  284MOL0     C37417   5.236   0.211   1.188 -0.0861  0.1987  0.5914
  284MOL0     C37418   5.366   0.202   1.263 -0.7253 -0.1077  0.3078
  284MOL0     C37419   5.465   0.287   1.203  0.1257 -0.0761  0.1960
  284MOL0     C37420   5.544   0.352   1.141 -0.7918 -0.5012  0.1009
  284MOL0     C37421   4.782   0.067   1.026 -0.8274  0.8487 -0.4028
  284MOL0     C37422   4.663   0.050   0.961 -0.5840 -0.0298 -0.1827
  284MOL0     H37423   4.392   0.441   0.585 -1.5422  0.8100 -3.5932
  284MOL0     H37424   4.198   0.498   0.482  0.1710  1.1537  1.6045
  284MOL0     H37425   3.855   0.375   0.363  1.1080 -1.2294  2.6891
  284MOL0     H37426   4.013   0.391   0.320 -1.2843 -4.0183  0.8580
  284MOL0     H37427   3.947   0.616   0.294  0.9864  0.8309  0.3225
  284MOL0     H37428   3.994   0.628   0.460 -1.4657 -0.2541  2.1854
  284MOL0     H37429   3.774   0.722   0.466  0.0053 -0.6321 -0.5605
  284MOL0     H37430   3.738   0.553   0.484 -0.0136 -0.6199  0.1031
  284MOL0     H37431   3.737   0.697   0.209  2.0262 -2.1743 -1.4020
  284MOL0     H37432   3.682   0.534   0.240  0.3931  1.7562 -3.5527
  284MOL0     H37433   3.519   0.617   0.422 -0.5515 -1.0631 -0.3342
  284MOL0     H37434   3.484   0.621   0.257  0.3111 -1.5157  1.6569
  284MOL0     H37435   3.557   0.863   0.242 -1.9716  2.7680  0.2904
  284MOL0     H37436   3.604   0.864   0.407  0.2457 -1.8467  1.5752
  284MOL0     H37437   3.313   0.796   0.334 -1.3228  1.1473  1.6745
  284MOL0     H37438   3.378   0.827   0.494  2.6112 -1.9200  0.6447
  284MOL0     H37439   3.357   1.008   0.252  1.8354  1.1953  0.1611
  284MOL0     H37440   3.439   1.066   0.380  0.1615 -1.6183  1.1441
  284MOL0     H37441   3.097   0.889   0.357  0.1592 -0.5468  1.2055
  284MOL0     H37442   2.833   1.117   0.499  0.4032  0.1582  0.4224
  284MOL0     H37443   2.840   0.987   0.371 -0.5588  0.7206 -0.8933
  284MOL0     H37444   2.863   1.151   0.190 -3.3947  1.9578 -2.7649
  284MOL0     H37445   2.834   1.280   0.303  0.6802  0.2396 -2.7581
  284MOL0     H37446   2.665   1.044   0.214 -0.3072 -0.1302 -1.4049
  284MOL0     H37447   2.607   1.139   0.350  0.4333  1.0229  0.2731
  284MOL0     H37448   2.685   1.218   0.064  0.1567  0.4091  0.0546
  284MOL0     H37449   2.628   1.332   0.175 -1.0491 -0.4804  0.4871
  284MOL0     H37450   2.266   1.113   0.005 -1.4860  1.0226 -1.2140
  284MOL0     H37451   2.055   1.191   0.071  2.1009 -1.2687 -1.5540
  284MOL0     H37452   1.760   1.494   0.288  2.8493  1.9571 -1.1991
  284MOL0     H37453   1.571   1.630   0.379 -0.7934  2.5642  0.9678
  284MOL0     H37454   1.421   1.641   0.523  1.2692 -1.0348 -0.0900
  284MOL0     H37455   1.447   1.814   0.475  1.2809 -0.6522 -0.6862
  284MOL0     H37456   1.375   1.886   0.702 -0.0249 -0.9796  2.0281
  284MOL0     H37457   1.374   1.730   0.759 -0.4144  1.6292  0.6512
  284MOL0     H37458   1.189   1.695   0.552 -1.1446  1.7163 -0.6041
  284MOL0     H37459   1.189   1.875   0.573 -0.0304  1.2040  1.0419
  284MOL0     H37460   1.138   1.685   0.799  1.3806 -1.0385 -1.6925
  284MOL0     H37461   1.138   1.855   0.811  0.5522  0.7678 -0.9120
  284MOL0     H37462   0.935   1.704   0.622 -3.2566 -0.8928  2.0585
  284MOL0     H37463   0.933   1.868   0.669 -3.0966 -0.3022 -0.4551
  284MOL0     H37464   0.887   1.831   0.891  1.4370 -1.1491  0.6732
  284MOL0     H37465   0.908   1.657   0.897  2.6916 -0.0871  0.5023
  284MOL0     H37466   0.700   1.793   0.705 -0.6867  0.0568 -1.1939
  284MOL0     H37467   0.738   1.622   0.722  0.9691 -0.1772  1.6451
  284MOL0     H37468   0.617   1.798   0.943 -2.4495 -1.0371  1.6341
  284MOL0     H37469   0.644   1.632   0.970  3.6247  1.2545  1.0118
  284MOL0     H37470   1.806   1.696   0.727 -1.0299  0.0540 -0.2942
  284MOL0     H37471   1.993   1.571   0.632  0.1146  1.6212  0.3249
  284MOL0     H37472   2.237   1.459   0.362 -1.7020  1.1211  0.4530
  284MOL0     H37473   2.453   1.401   0.275 -1.3352  2.3191 -1.6819
  284MOL0     H37474   3.984   0.189   0.676 -0.2716 -0.3560 -0.9183
  284MOL0     H37475   4.204   0.098   0.781  0.5152 -0.7494 -0.8906
  284MOL0     H37476   4.661   0.328   0.773  0.5786  1.8249  1.2660
  284MOL0     H37477   4.890   0.348   0.886  1.9272 -2.0671 -0.7462
  284MOL0     H37478   5.019   0.009   1.187 -1.4247 -0.1614  0.6952
  284MOL0     H37479   4.920   0.135   1.263 -0.1110 -0.0394  0.7408
  284MOL0     H37480   5.081   0.268   1.318  1.9946  0.2571  2.5647
  284MOL0     H37481   5.131   0.109   1.363 -2.9443 -1.1472 -0.3953
  284MOL0     H37482   5.231   0.312   1.148 -0.8309  0.1284  0.5028
  284MOL0     H37483   5.243   0.142   1.103 -0.2687 -0.8815  1.4368
  284MOL0     H37484   5.343   0.239   1.363 -0.1001  1.9266 -0.2496
  284MOL0     H37485   5.402   0.099   1.261 -0.2083 -0.0036 -3.2543
  284MOL0     H37486   5.617   0.412   1.089  0.8995  0.6771  3.5504
  284MOL0     H37487   4.813   0.005   1.109  4.2255  1.9206 -1.1937
  284MOL0     H37488   4.605  -0.037   0.989 -0.2079  0.2106  1.4171
  285MOL0     O37489  10.772   4.384   2.194 -0.1461  0.1719 -0.2870
  285MOL0     C37490  10.870   4.375   2.265  0.6508  0.1234 -0.0979
  285MOL0     O37491  10.865   4.342   2.395  0.0884  0.4150  1.5284
  285MOL0     C37492  10.743   4.301   2.443  0.1218 -0.9332 -0.4872
  285MOL0     C37493  10.648   4.396   2.488  0.0335  0.6950  0.4705
  285MOL0     C37494  10.515   4.357   2.533  0.0052  0.3043 -0.2038
  285MOL0     C37495  10.481   4.224   2.527  0.0495  0.1610  0.1003
  285MOL0     O37496  10.354   4.180   2.562  0.1520 -0.0578  0.0587
  285MOL0     C37497  10.234   4.240   2.493 -1.0610  0.9954 -1.0151
  285MOL0     C37498  10.164   4.338   2.593 -0.5777  0.5911  0.7643
  285MOL0     C37499  10.013   4.362   2.570 -1.3739  0.1401 -0.8636
  285MOL0     C37500   9.953   4.454   2.684 -0.2561  0.2519 -0.6530
  285MOL0     C37501   9.817   4.494   2.649  0.3588  0.0741  0.2291
  285MOL0     C37502   9.752   4.586   2.765 -0.4020 -0.0571 -0.5396
  285MOL0     C37503   9.606   4.622   2.733  0.0755  0.4814  0.0640
  285MOL0     C37504   9.536   4.687   2.853 -0.1405  0.0001  0.0778
  285MOL0     N37505   9.401   4.714   2.814  0.7347  0.3124 -0.3536
  285MOL0     C37506   9.303   4.619   2.797 -0.5100 -0.4562  0.3585
  285MOL0     C37507   9.190   4.690   2.752  0.4796  0.3507 -0.4241
  285MOL0     C37508   9.061   4.619   2.712 -0.0655  0.8949 -0.4516
  285MOL0     C37509   9.056   4.547   2.571  0.5428  0.8458 -0.6662
  285MOL0     C37510   9.151   4.428   2.569  0.3038 -0.7086 -0.9089
  285MOL0     C37511   9.107   4.333   2.455 -0.9838 -0.3361 -0.6616
  285MOL0     O37512   9.145   4.202   2.499 -0.3033  0.3817  0.0410
  285MOL0     C37513   9.264   4.149   2.458 -0.6731  0.5869  0.6330
  285MOL0     C37514   9.324   4.049   2.537 -0.1482 -0.0008  0.5618
  285MOL0     C37515   9.447   3.994   2.511 -0.4232  1.3099  0.3339
  285MOL0     C37516   9.525   4.037   2.399  0.1719  0.5927  0.6699
  285MOL0     C37517   9.655   3.981   2.360  0.3027  0.0826  0.1534
  285MOL0     O37518   9.721   3.894   2.448 -0.9154  0.7237 -0.4168
  285MOL0     C37519   9.836   3.850   2.386 -0.3729  0.0302  0.3836
  285MOL0     C37520   9.846   3.755   2.290  0.0237  0.0883 -0.2932
  285MOL0     C37521   9.966   3.699   2.252 -0.2886 -0.1963 -0.0828
  285MOL0     C37522  10.084   3.764   2.293 -0.2082 -0.2712 -0.3307
  285MOL0     O37523  10.211   3.716   2.254  0.9949  0.0289 -0.7812
  285MOL0     C37524  10.220   3.622   2.143  0.6523  0.1315 -0.2227
  285MOL0     C37525  10.374   3.598   2.125  0.8768 -0.6400 -0.6545
  285MOL0     C37526  10.429   3.523   2.248  0.4589 -0.1650 -0.5921
  285MOL0     C37527  10.569   3.455   2.228  0.7973  0.2004 -0.1721
  285MOL0     C37528  10.691   3.536   2.240  0.0632  0.5305  0.5921
  285MOL0     C37529  10.709   3.606   2.377 -0.7742 -0.0530  0.0820
  285MOL0     C37530  10.847   3.670   2.385 -0.3045 -0.2555 -0.8398
  285MOL0     C37531  10.914   3.672   2.523 -0.6932  0.4573 -0.3082
  285MOL0    Cl37532  11.078   3.757   2.510 -0.2002  0.1098  0.1638
  285MOL0     C37533  10.083   3.864   2.392  0.5911  0.2933  0.2922
  285MOL0     C37534   9.954   3.912   2.439  0.0283 -0.2849 -0.3326
  285MOL0     O37535   9.695   4.014   2.249  0.1281  0.4698  0.2177
  285MOL0     C37536   9.461   4.138   2.320  0.3206  0.0960 -0.5332
  285MOL0     C37537   9.337   4.187   2.341  0.5140  0.1513 -0.7954
  285MOL0     N37538   9.229   4.822   2.747 -0.8382  0.8073  0.0408
  285MOL0     N37539   9.345   4.841   2.795 -0.2254  0.2379  0.2672
  285MOL0     C37540  10.572   4.128   2.492  0.4446  0.0026 -0.5034
  285MOL0     C37541  10.700   4.169   2.440 -1.1118  0.7032  0.6215
  285MOL0     C37542  10.999   4.383   2.200  0.1941  0.6908 -0.5399
  285MOL0     C37543  11.011   4.374   2.054 -0.1969 -0.3979 -0.6158
  285MOL0     C37544  11.130   4.398   1.990  0.4866 -0.3787  0.3747
  285MOL0     C37545  11.246   4.408   2.068 -0.0816 -0.2164  0.0413
  285MOL0     O37546  11.368   4.436   2.025 -0.1482  0.0450 -0.2401
  285MOL0     C37547  11.422   4.427   1.892  0.1321  0.2487  0.9146
  285MOL0     C37548  11.577   4.405   1.876  0.3316 -0.7674  0.1573
  285MOL0     C37549  11.638   4.301   1.973  0.4448 -0.3372  0.9861
  285MOL0     C37550  11.772   4.257   1.926 -0.2209 -1.3189  0.4102
  285MOL0     C37551  11.883   4.356   1.928  0.1889 -0.0321 -0.1187
  285MOL0     C37552  11.962   4.449   1.932 -0.2728 -0.0815  0.9483
  285MOL0     C37553  11.233   4.403   2.208 -0.8041  0.4015 -0.0771
  285MOL0     C37554  11.117   4.394   2.275 -0.3285  0.2246  0.3814
  285MOL0     H37555  10.672   4.501   2.499  1.6608  0.5776 -1.2823
  285MOL0     H37556  10.446   4.438   2.557 -0.5708  0.5518 -2.4961
  285MOL0     H37557  10.183   4.144   2.480  0.5950 -0.5973  2.6798
  285MOL0     H37558  10.263   4.289   2.400  0.4995 -1.6239 -2.0207
  285MOL0     H37559  10.223   4.430   2.585 -1.0825  0.8111 -0.9073
  285MOL0     H37560  10.172   4.290   2.690  2.3961  0.6674  0.6473
  285MOL0     H37561   9.973   4.260   2.566 -1.4963  0.2216 -4.0448
  285MOL0     H37562  10.005   4.412   2.473  2.1224  2.3594 -0.1630
  285MOL0     H37563   9.962   4.402   2.780  0.4020 -2.0651 -1.8808
  285MOL0     H37564  10.008   4.547   2.696 -0.2451  0.1742 -0.0655
  285MOL0     H37565   9.753   4.407   2.634 -0.6010  0.9665 -1.1104
  285MOL0     H37566   9.810   4.546   2.553 -1.8306  1.4717  1.0594
  285MOL0     H37567   9.803   4.683   2.768 -3.4295  1.7639 -2.4573
  285MOL0     H37568   9.755   4.534   2.861 -0.6536  0.1726 -0.4043
  285MOL0     H37569   9.610   4.696   2.652  0.2437  0.3075 -0.0866
  285MOL0     H37570   9.548   4.531   2.712 -0.4406  0.9429 -0.5957
  285MOL0     H37571   9.600   4.773   2.878  0.9486 -1.2515  1.7976
  285MOL0     H37572   9.527   4.619   2.938 -2.9433  1.3034  0.9475
  285MOL0     H37573   9.305   4.511   2.804 -3.1487 -0.7679 -2.0618
  285MOL0     H37574   8.984   4.696   2.698  2.3788  3.3449 -1.5568
  285MOL0     H37575   9.028   4.547   2.786  2.8841 -1.2922 -1.0644
  285MOL0     H37576   9.080   4.618   2.492  0.1386  1.2752 -0.4101
  285MOL0     H37577   8.953   4.514   2.556  0.1386 -0.5281  3.6887
  285MOL0     H37578   9.255   4.461   2.556  0.1169 -0.1810 -1.0807
  285MOL0     H37579   9.147   4.370   2.662 -0.3090  1.6198  0.5848
  285MOL0     H37580   9.151   4.365   2.360  0.7769 -0.6309  0.0291
  285MOL0     H37581   8.997   4.332   2.448 -1.1836 -1.0397  1.6337
  285MOL0     H37582   9.269   4.024   2.627  0.7119  2.0384  1.7160
  285MOL0     H37583   9.485   3.919   2.580 -0.0880 -0.3619 -1.5535
  285MOL0     H37584   9.752   3.709   2.261  1.1667 -1.3597 -1.9720
  285MOL0     H37585   9.974   3.617   2.182  1.3666  0.5069 -0.7700
  285MOL0     H37586  10.179   3.669   2.053  0.3606  1.1648  0.4298
  285MOL0     H37587  10.172   3.526   2.165  0.9140  0.1699  0.5605
  285MOL0     H37588  10.430   3.687   2.096 -1.4179  0.3115 -2.5365
  285MOL0     H37589  10.388   3.525   2.044 -1.1205  1.0375 -2.6408
  285MOL0     H37590  10.367   3.435   2.267  0.1393  0.2173  0.1861
  285MOL0     H37591  10.423   3.594   2.332  1.6076  0.2701 -0.8575
  285MOL0     H37592  10.584   3.376   2.302  0.0298 -2.8171 -2.9886
  285MOL0     H37593  10.566   3.413   2.127 -1.4897 -2.8074  0.9891
  285MOL0     H37594  10.699   3.604   2.155  0.3173 -1.0145 -0.6728
  285MOL0     H37595  10.772   3.466   2.216 -0.6122  0.6776 -2.4674
  285MOL0     H37596  10.684   3.532   2.454 -1.1874 -4.2511 -3.6612
  285MOL0     H37597  10.641   3.688   2.400 -2.8435 -1.2863 -1.3307
  285MOL0     H37598  10.909   3.609   2.318 -1.7552 -0.3963 -2.1066
  285MOL0     H37599  10.848   3.773   2.347 -1.3120  0.3988  0.8145
  285MOL0     H37600  10.924   3.568   2.555  4.8025  1.5380  2.7606
  285MOL0     H37601  10.851   3.735   2.586 -0.0108  2.8945 -1.9275
  285MOL0     H37602  10.180   3.885   2.436  0.4381 -1.4604  1.6215
  285MOL0     H37603   9.940   3.988   2.514  0.5158 -0.2159 -0.3090
  285MOL0     H37604   9.519   4.175   2.236  1.6528 -0.7850 -0.0285
  285MOL0     H37605   9.306   4.263   2.269 -0.7148 -1.2755 -1.8317
  285MOL0     H37606  10.540   4.024   2.491  0.5087 -0.1453  2.9450
  285MOL0     H37607  10.769   4.096   2.401  0.2535  2.1391  0.2708
  285MOL0     H37608  10.918   4.367   1.998 -0.6083  1.6533 -0.3011
  285MOL0     H37609  11.137   4.397   1.882  1.4921  0.0661  0.4280
  285MOL0     H37610  11.387   4.517   1.842 -0.2993  0.5631  1.7577
  285MOL0     H37611  11.373   4.347   1.835 -0.1095  2.5033 -2.3436
  285MOL0     H37612  11.590   4.381   1.769 -1.6341 -1.8654  0.1240
  285MOL0     H37613  11.637   4.495   1.892  2.3883 -2.0984  0.4173
  285MOL0     H37614  11.570   4.216   1.978 -0.5189  0.2206 -1.4375
  285MOL0     H37615  11.644   4.332   2.078  1.2857  2.3002  0.2498
  285MOL0     H37616  11.805   4.185   2.001 -0.0775 -1.1665  0.4925
  285MOL0     H37617  11.775   4.214   1.825 -1.4029 -2.1424  0.6981
  285MOL0     H37618  12.026   4.533   1.956 -0.2383  0.3898 -0.6821
  285MOL0     H37619  11.327   4.425   2.257  0.2904 -1.8618 -1.0055
  285MOL0     H37620  11.121   4.408   2.383 -0.1233  0.1735  0.3814
  286MOL0     O37621   7.722   4.658  10.857 -0.2964 -0.1455  0.1081
  286MOL0     C37622   7.753   4.566  10.930  0.3887  1.2626 -0.5108
  286MOL0     O37623   7.656   4.486  10.997  0.1623  0.3585  0.2151
  286MOL0     C37624   7.523   4.525  11.000  0.2219  0.5865 -0.5183
  286MOL0     C37625   7.441   4.582  10.899 -0.2795  0.0908 -0.5817
  286MOL0     C37626   7.317   4.622  10.938  0.1763 -0.0416  0.5989
  286MOL0     C37627   7.258   4.596  11.061  0.3102  0.4732  0.5338
  286MOL0     O37628   7.126   4.614  11.092  0.0520 -0.2115  1.3043
  286MOL0     C37629   7.049   4.683  10.991  0.4348 -0.3652  0.3465
  286MOL0     C37630   6.920   4.731  11.069 -0.2779  0.3366 -0.4330
  286MOL0     C37631   6.835   4.828  10.985  0.1933  0.4983 -0.1875
  286MOL0     C37632   6.708   4.870  11.058 -0.1771  0.2355  0.5007
  286MOL0     C37633   6.668   5.004  10.999  0.7710  0.0106 -0.8077
  286MOL0     C37634   6.559   5.063  11.089  0.3453 -0.1826 -0.6925
  286MOL0     C37635   6.512   5.200  11.050  0.4719 -0.8286 -0.6496
  286MOL0     C37636   6.383   5.260  11.130 -0.2436 -0.4783 -0.4332
  286MOL0     N37637   6.405   5.275  11.279  0.8647 -0.1316  0.4606
  286MOL0     C37638   6.391   5.174  11.371 -0.4455  1.1496 -0.6128
  286MOL0     C37639   6.434   5.228  11.486  0.2456  0.4094  0.0913
  286MOL0     C37640   6.452   5.160  11.615 -0.4973  0.1272 -0.7802
  286MOL0     C37641   6.585   5.198  11.685  0.6183 -1.0641 -0.0030
  286MOL0     C37642   6.698   5.121  11.634  0.2711 -0.1959 -0.0024
  286MOL0     C37643   6.739   5.159  11.494  0.2582 -0.5428 -0.6224
  286MOL0     O37644   6.857   5.090  11.474 -0.1281  0.0098 -0.7066
  286MOL0     C37645   6.914   5.101  11.352 -0.0832 -0.4908  0.7501
  286MOL0     C37646   6.883   5.182  11.247  0.3553 -0.7527  1.0598
  286MOL0     C37647   6.966   5.175  11.126 -0.4000 -0.5899  0.1602
  286MOL0     C37648   7.079   5.084  11.120 -0.2077  0.0421 -0.8169
  286MOL0     C37649   7.163   5.061  10.995  0.1016 -0.2544 -0.6180
  286MOL0     O37650   7.271   4.977  11.004  0.7019  0.6007  0.0962
  286MOL0     C37651   7.352   4.950  10.900  0.7578 -0.5935 -0.6151
  286MOL0     C37652   7.301   4.931  10.768  0.3430 -0.3123 -0.1851
  286MOL0     C37653   7.380   4.907  10.656 -0.6041 -0.3014  0.0855
  286MOL0     C37654   7.518   4.904  10.667 -0.4335 -0.0411 -0.5015
  286MOL0     O37655   7.596   4.877  10.557 -1.0650 -0.6017  0.6610
  286MOL0     C37656   7.738   4.901  10.570 -0.2045  0.9162  0.1931
  286MOL0     C37657   7.808   4.884  10.440 -0.4983 -0.0688 -0.0585
  286MOL0     C37658   7.960   4.864  10.456  0.2688  0.9054  0.4993
  286MOL0     C37659   8.020   4.863  10.311  0.2429 -0.1434  0.4175
  286MOL0     C37660   7.985   4.743  10.219 -0.6508  0.5720 -0.0548
  286MOL0     C37661   8.006   4.765  10.058 -0.5368  0.4534 -0.6734
  286MOL0     C37662   7.998   4.635   9.980 -0.4123 -0.3491  0.1053
  286MOL0     C37663   8.021   4.647   9.821  0.8848  0.4469 -0.0728
  286MOL0    Cl37664   8.188   4.720   9.782  0.1920 -0.5905 -0.1597
  286MOL0     C37665   7.571   4.921  10.805 -0.5847 -0.2592  0.3192
  286MOL0     C37666   7.490   4.950  10.918 -0.2171 -0.3563  0.2396
  286MOL0     O37667   7.125   5.124  10.900  0.4080  0.7667 -0.6982
  286MOL0     C37668   7.111   5.008  11.232 -0.6282 -0.6783 -0.2634
  286MOL0     C37669   7.028   5.023  11.339  0.7331 -1.2744 -0.2442
  286MOL0     N37670   6.451   5.361  11.475 -0.3920 -0.9316  0.1305
  286MOL0     N37671   6.435   5.387  11.341  0.1002 -1.2716 -0.7499
  286MOL0     C37672   7.340   4.536  11.162  0.0458 -0.0797  0.3859
  286MOL0     C37673   7.468   4.501  11.126 -0.7118 -0.2397 -0.1908
  286MOL0     C37674   7.899   4.519  10.946  1.2856  0.2509  0.0338
  286MOL0     C37675   7.930   4.407  11.024 -0.4301 -0.8263 -1.0482
  286MOL0     C37676   8.071   4.372  11.040  0.0883 -0.0424  0.1093
  286MOL0     C37677   8.168   4.444  10.970  0.6268 -1.1926  0.3601
  286MOL0     O37678   8.304   4.414  10.978  0.9221 -0.2913  0.3739
  286MOL0     C37679   8.414   4.505  10.931  0.5847 -0.0285  0.0693
  286MOL0     C37680   8.527   4.418  10.920 -0.1641 -0.2578  0.2471
  286MOL0     C37681   8.671   4.476  10.911 -0.0045 -0.5841 -0.0690
  286MOL0     C37682   8.789   4.378  10.918  0.2136 -0.6001 -0.9985
  286MOL0     C37683   8.786   4.305  11.051  0.8897 -0.4590  1.0564
  286MOL0     C37684   8.779   4.254  11.154 -0.5335 -0.2553 -0.4347
  286MOL0     C37685   8.135   4.564  10.896 -0.6773  0.7472  0.4109
  286MOL0     C37686   7.994   4.602  10.885 -0.5845 -0.0776  0.5461
  286MOL0     H37687   7.465   4.589  10.793 -3.7409 -2.9673 -1.7828
  286MOL0     H37688   7.260   4.643  10.848  0.9340 -2.5433 -0.5759
  286MOL0     H37689   7.018   4.615  10.912  0.0478  1.4427 -1.1160
  286MOL0     H37690   7.102   4.768  10.947 -1.4059  2.3575  2.9642
  286MOL0     H37691   6.954   4.770  11.166  4.2593  1.7974 -2.2975
  286MOL0     H37692   6.854   4.646  11.085  0.8060 -0.7952 -1.7730
  286MOL0     H37693   6.797   4.778  10.896 -1.3370 -0.3229  0.8816
  286MOL0     H37694   6.892   4.912  10.945 -1.5086  1.5274 -0.5346
  286MOL0     H37695   6.628   4.804  11.022 -1.8613  2.6152 -0.4337
  286MOL0     H37696   6.706   4.861  11.167 -2.4690 -0.7075  0.4392
  286MOL0     H37697   6.626   4.981  10.901  0.2376 -1.4335 -0.2665
  286MOL0     H37698   6.751   5.075  10.989 -0.0282  1.6309  2.6137
  286MOL0     H37699   6.605   5.076  11.187  0.8043 -1.4540 -0.7326
  286MOL0     H37700   6.468   5.003  11.091 -0.1407  0.5385 -0.4997
  286MOL0     H37701   6.594   5.271  11.065  0.2839 -0.3044 -1.9540
  286MOL0     H37702   6.493   5.211  10.943 -2.9648  1.9057  0.0596
  286MOL0     H37703   6.302   5.190  11.108 -0.8758  1.0264 -3.4469
  286MOL0     H37704   6.360   5.356  11.084 -0.0995 -0.3769 -0.2978
  286MOL0     H37705   6.357   5.073  11.347 -1.1222  1.2589 -0.1479
  286MOL0     H37706   6.438   5.052  11.604 -0.1883 -0.0448  0.3338
  286MOL0     H37707   6.372   5.197  11.680  0.1328 -0.7751  0.5713
  286MOL0     H37708   6.575   5.194  11.794  0.8366  1.4568  0.1743
  286MOL0     H37709   6.602   5.305  11.668 -2.7059 -0.3514  0.3632
  286MOL0     H37710   6.781   5.122  11.705 -0.9930 -1.4510  1.5819
  286MOL0     H37711   6.668   5.015  11.635 -0.8200  0.0751 -0.9907
  286MOL0     H37712   6.753   5.268  11.493 -2.0237 -0.1698  0.8456
  286MOL0     H37713   6.666   5.137  11.416 -1.5424  1.6473  0.3503
  286MOL0     H37714   6.815   5.266  11.256  1.7720  0.7454 -1.1382
  286MOL0     H37715   6.953   5.231  11.034  0.7853 -0.8672 -0.1912
  286MOL0     H37716   7.196   4.944  10.743  0.8607  0.2834 -2.2799
  286MOL0     H37717   7.336   4.883  10.560 -0.4136 -0.9725  0.1601
  286MOL0     H37718   7.778   4.830  10.643 -2.0885 -2.7118 -2.0137
  286MOL0     H37719   7.750   5.006  10.599 -1.5981  1.6929 -1.7934
  286MOL0     H37720   7.773   4.957  10.366  0.7543 -1.4126 -2.0635
  286MOL0     H37721   7.775   4.788  10.399  1.4623 -0.9577  0.3353
  286MOL0     H37722   7.970   4.774  10.518 -3.7536  0.2060  0.4033
  286MOL0     H37723   8.013   4.946  10.505  0.5748 -0.0585  1.8166
  286MOL0     H37724   7.980   4.953  10.264  2.1481  0.3837 -0.3270
  286MOL0     H37725   8.127   4.886  10.323  0.4333  0.2338 -1.5929
  286MOL0     H37726   7.879   4.718  10.225 -0.1654 -1.6542  0.3559
  286MOL0     H37727   8.046   4.661  10.259  1.0736  2.4319  1.3255
  286MOL0     H37728   8.107   4.806  10.060  0.8861 -2.6250  3.0166
  286MOL0     H37729   7.931   4.837  10.023 -1.5169 -1.3162 -2.4677
  286MOL0     H37730   8.073   4.571  10.027  1.5282  0.4488 -1.7180
  286MOL0     H37731   7.903   4.590  10.008 -0.0909  0.4510  2.7407
  286MOL0     H37732   7.936   4.697   9.776 -0.3503 -2.9689 -1.9323
  286MOL0     H37733   8.001   4.549   9.775 -1.2983 -0.1463  1.9563
  286MOL0     H37734   7.678   4.924  10.826 -0.3539  3.9741 -0.6905
  286MOL0     H37735   7.531   4.976  11.016 -1.2950  2.8993 -0.0433
  286MOL0     H37736   7.196   4.941  11.230 -0.4158 -0.4008 -1.6461
  286MOL0     H37737   7.040   4.963  11.428  1.4681 -2.5721 -1.1881
  286MOL0     H37738   7.300   4.515  11.261  0.6717 -0.8331  0.4887
  286MOL0     H37739   7.538   4.449  11.191 -1.8005 -1.0334  0.3763
  286MOL0     H37740   7.856   4.349  11.080  1.6272 -0.2529  2.5945
  286MOL0     H37741   8.102   4.280  11.089  0.8141 -0.4528 -1.0586
  286MOL0     H37742   8.441   4.583  11.003  0.1208  0.3760 -0.1871
  286MOL0     H37743   8.394   4.548  10.832  1.5364  1.8468  0.6392
  286MOL0     H37744   8.527   4.359  11.013 -1.0378 -1.2601 -0.3676
  286MOL0     H37745   8.512   4.346  10.839  0.3484 -0.0806 -0.0069
  286MOL0     H37746   8.679   4.556  10.985 -0.0763  0.4831 -1.1685
  286MOL0     H37747   8.668   4.516  10.809 -0.3858 -1.3272 -0.3526
  286MOL0     H37748   8.796   4.314  10.829  4.2286  1.0515 -2.0945
  286MOL0     H37749   8.883   4.432  10.913  2.1143 -3.7108 -1.5022
  286MOL0     H37750   8.784   4.206  11.250  4.5988 -1.0926 -0.8405
  286MOL0     H37751   8.210   4.621  10.842  2.3840 -3.2925 -0.0547
  286MOL0     H37752   7.969   4.691  10.829  1.7031 -0.2660 -0.9217
  287MOL0     O37753   4.919   9.756  11.236 -0.2004  0.7425  0.0996
  287MOL0     C37754   4.840   9.849  11.249 -0.5403 -0.2339 -0.3967
  287MOL0     O37755   4.866   9.981  11.253 -0.3448  0.5731  0.1965
  287MOL0     C37756   4.996  10.007  11.280 -0.0130 -0.9386 -0.0748
  287MOL0     C37757   5.085  10.027  11.171 -0.1419 -0.6333 -1.5530
  287MOL0     C37758   5.219  10.063  11.191  0.3222 -0.1214  0.0389
  287MOL0     C37759   5.260  10.102  11.320  0.8569  1.3120 -0.4958
  287MOL0     O37760   5.370  10.175  11.346 -0.3073 -0.1566  0.2486
  287MOL0     C37761   5.489  10.160  11.268  0.7219  0.8178 -1.2989
  287MOL0     C37762   5.615  10.181  11.361  0.3821  0.3716 -0.4888
  287MOL0     C37763   5.605  10.145  11.517  0.4448  0.7884  0.7407
  287MOL0     C37764   5.599   9.998  11.537 -0.1916  0.3185  0.7985
  287MOL0     C37765   5.543   9.984  11.682  0.7668  0.4578  0.3243
  287MOL0     C37766   5.576   9.843  11.731  0.4436  0.5119  0.2691
  287MOL0     C37767   5.499   9.798  11.852  0.1409  0.2679  0.1375
  287MOL0     C37768   5.418   9.670  11.838 -0.1967  0.2359 -0.1185
  287MOL0     N37769   5.312   9.664  11.938  0.1271 -0.4617 -0.3965
  287MOL0     C37770   5.264   9.543  11.997 -0.0878 -0.2178 -0.2614
  287MOL0     C37771   5.147   9.579  12.049  0.0175 -0.2932  0.3965
  287MOL0     C37772   5.046   9.493  12.104  0.1255 -0.7750 -0.5195
  287MOL0     C37773   5.014   9.377  12.009  0.2623 -0.2274 -0.0363
  287MOL0     C37774   4.890   9.402  11.912 -0.2920  0.5492 -0.4924
  287MOL0     C37775   4.853   9.279  11.831  1.1574  0.5548 -1.0202
  287MOL0     O37776   4.831   9.160  11.909  0.0912  0.0613 -0.1100
  287MOL0     C37777   4.711   9.126  11.967 -0.2093 -0.7528 -0.0036
  287MOL0     C37778   4.590   9.181  11.933 -0.7101  0.4469  0.7409
  287MOL0     C37779   4.472   9.145  12.001 -0.1362 -0.0735 -0.4832
  287MOL0     C37780   4.473   9.068  12.115 -1.0956 -1.4664 -0.1372
  287MOL0     C37781   4.350   9.052  12.194 -0.3073 -0.6953  1.0596
  287MOL0     O37782   4.232   9.116  12.166 -0.0664 -0.4943  0.0347
  287MOL0     C37783   4.100   9.086  12.219  0.1231  0.5318 -0.5236
  287MOL0     C37784   4.067   8.966  12.290 -0.2034  0.0563 -0.1697
  287MOL0     C37785   3.942   8.946  12.350 -0.3370 -0.8190  0.6283
  287MOL0     C37786   3.840   9.032  12.308  0.6887 -0.8183  0.6756
  287MOL0     O37787   3.716   8.989  12.343  0.0786  0.2384 -0.3411
  287MOL0     C37788   3.607   9.081  12.334 -0.4421 -0.2647  0.6038
  287MOL0     C37789   3.490   8.990  12.391 -0.0980 -0.1214  0.3636
  287MOL0     C37790   3.478   8.855  12.316 -0.8867 -0.0458  0.6854
  287MOL0     C37791   3.348   8.784  12.359  0.7806  0.4040 -0.3368
  287MOL0     C37792   3.328   8.640  12.303  0.4179  0.7695 -0.4044
  287MOL0     C37793   3.332   8.631  12.147 -0.3568  0.0805 -0.0786
  287MOL0     C37794   3.299   8.487  12.095  0.0259 -0.7772  0.2366
  287MOL0     C37795   3.147   8.475  12.068  0.4337 -0.2187  0.6784
  287MOL0    Cl37796   3.093   8.585  11.939  0.3424 -0.2421  0.1309
  287MOL0     C37797   3.866   9.145  12.220  0.4818 -0.2360 -0.4509
  287MOL0     C37798   3.998   9.177  12.193  0.5316  0.3056  1.1039
  287MOL0     O37799   4.358   8.977  12.286 -0.7949 -0.5767 -0.3504
  287MOL0     C37800   4.599   9.014  12.153  0.7817 -0.6657  0.1576
  287MOL0     C37801   4.716   9.040  12.076  0.5889 -0.2056 -0.0802
  287MOL0     N37802   5.122   9.719  12.031 -0.4361  0.8720 -0.5258
  287MOL0     N37803   5.224   9.764  11.968  0.3239 -0.7653 -0.0983
  287MOL0     C37804   5.172  10.086  11.426  0.0960  0.4831 -1.0768
  287MOL0     C37805   5.046  10.035  11.409  0.2596 -0.3790  0.5498
  287MOL0     C37806   4.696   9.820  11.265 -0.6927  0.8542  0.5910
  287MOL0     C37807   4.641   9.718  11.190  0.7401  0.5244  0.4397
  287MOL0     C37808   4.505   9.679  11.221 -1.3986 -0.9960 -0.2152
  287MOL0     C37809   4.435   9.750  11.328 -0.1788 -0.3563 -0.5689
  287MOL0     O37810   4.309   9.714  11.382 -0.1069  0.3781 -0.4437
  287MOL0     C37811   4.229   9.624  11.313 -0.2278  0.4865 -0.2014
  287MOL0     C37812   4.079   9.647  11.321 -0.4127  0.4313 -0.2014
  287MOL0     C37813   4.036   9.789  11.281  0.0800  0.7350  0.4554
  287MOL0     C37814   4.034   9.813  11.132 -0.5706  1.3861  0.4586
  287MOL0     C37815   4.167   9.848  11.072  1.1275  0.2066 -0.0152
  287MOL0     C37816   4.280   9.888  11.047 -0.3562  0.5699 -0.6741
  287MOL0     C37817   4.492   9.858  11.389  0.5442  0.4867  0.6650
  287MOL0     C37818   4.622   9.890  11.356  1.5097 -0.1886 -0.1425
  287MOL0     H37819   5.048  10.002  11.072 -1.1531  0.8334 -1.5775
  287MOL0     H37820   5.290  10.067  11.109 -0.0523 -4.2192 -0.7207
  287MOL0     H37821   5.486  10.226  11.180  2.7082  2.0361 -0.5241
  287MOL0     H37822   5.509  10.059  11.231 -0.1752  1.3652 -3.4150
  287MOL0     H37823   5.635  10.289  11.356 -3.8255  1.4418  1.3420
  287MOL0     H37824   5.703  10.130  11.321  0.6798  1.9924 -2.0396
  287MOL0     H37825   5.518  10.197  11.558 -0.4010  0.7454 -0.9164
  287MOL0     H37826   5.693  10.179  11.573  1.3334  0.4832 -0.4278
  287MOL0     H37827   5.526   9.950  11.471  0.0637 -1.8070  1.9836
  287MOL0     H37828   5.699   9.953  11.530 -0.7391 -0.6520 -1.7605
  287MOL0     H37829   5.438  10.008  11.663  0.4666 -1.4762 -0.6608
  287MOL0     H37830   5.584  10.062  11.747  0.1300  0.5630  0.6044
  287MOL0     H37831   5.683   9.838  11.757  0.4982  1.7402  0.3562
  287MOL0     H37832   5.570   9.769  11.651  1.8670 -0.3776  0.9262
  287MOL0     H37833   5.576   9.771  11.925  1.3343  1.2488 -0.7051
  287MOL0     H37834   5.447   9.877  11.906 -0.2730 -1.5838  2.5837
  287MOL0     H37835   5.474   9.575  11.840  0.2581  0.3357 -3.1572
  287MOL0     H37836   5.372   9.667  11.739 -0.0381 -3.0033 -0.2005
  287MOL0     H37837   5.307   9.443  11.999 -0.8985 -0.5581  1.0074
  287MOL0     H37838   4.957   9.543  12.144  0.7984  0.0087  0.0163
  287MOL0     H37839   5.087   9.465  12.202 -2.5216  2.3637  1.7133
  287MOL0     H37840   4.987   9.289  12.067  1.5658 -0.6612 -0.0591
  287MOL0     H37841   5.109   9.354  11.961  0.7022  2.4588 -0.6602
  287MOL0     H37842   4.808   9.434  11.976 -0.6955  1.2828 -1.3494
  287MOL0     H37843   4.900   9.493  11.851 -1.5954  0.3332 -1.0531
  287MOL0     H37844   4.932   9.259  11.758 -0.1207  1.4646 -2.6962
  287MOL0     H37845   4.767   9.300  11.767 -1.2645  0.7818  2.0587
  287MOL0     H37846   4.581   9.232  11.838 -0.2855 -1.5127 -0.4185
  287MOL0     H37847   4.377   9.171  11.956 -1.1170 -0.8779  1.0212
  287MOL0     H37848   4.145   8.899  12.325  0.8386  1.8578  1.1552
  287MOL0     H37849   3.923   8.857  12.410 -3.6635 -1.5038 -1.2031
  287MOL0     H37850   3.593   9.113  12.231 -0.1461  1.8122  1.1645
  287MOL0     H37851   3.631   9.172  12.390 -1.9610  0.8206 -0.4307
  287MOL0     H37852   3.406   9.060  12.387 -0.8489 -0.7473  3.0617
  287MOL0     H37853   3.497   8.962  12.497 -2.5413 -5.6765 -0.5857
  287MOL0     H37854   3.562   8.787  12.333 -1.5691 -1.7616 -2.1164
  287MOL0     H37855   3.477   8.867  12.207  1.9345  0.6996  0.6681
  287MOL0     H37856   3.346   8.771  12.467 -1.2801  0.7515 -0.2945
  287MOL0     H37857   3.266   8.855  12.344  0.0665 -0.3440 -0.0137
  287MOL0     H37858   3.229   8.603  12.331  0.8794  0.2099  0.5021
  287MOL0     H37859   3.404   8.577  12.349 -2.5527 -0.1634  3.7861
  287MOL0     H37860   3.425   8.671  12.105 -1.8150  0.6708 -3.1108
  287MOL0     H37861   3.263   8.712  12.119  1.1817  1.0566 -1.3092
  287MOL0     H37862   3.354   8.468  12.002  2.3663  4.9692  0.0552
  287MOL0     H37863   3.336   8.414  12.167 -1.7738 -0.5974  1.4033
  287MOL0     H37864   3.093   8.484  12.163  3.1268  1.2322  2.2054
  287MOL0     H37865   3.133   8.373  12.030 -1.2699 -0.0600  0.8251
  287MOL0     H37866   3.788   9.213  12.187  1.4691 -0.0718 -2.6310
  287MOL0     H37867   4.023   9.270  12.143  1.3357 -0.3289  0.2965
  287MOL0     H37868   4.609   8.955  12.244 -0.8433 -1.0747  0.0962
  287MOL0     H37869   4.809   9.002  12.117 -0.9693 -1.8711  2.1069
  287MOL0     H37870   5.203  10.121  11.524  1.0883 -1.2295 -0.7345
  287MOL0     H37871   4.979  10.035  11.495  0.6329  2.2283  0.9087
  287MOL0     H37872   4.688   9.664  11.108 -0.1079 -1.3245  1.0950
  287MOL0     H37873   4.466   9.587  11.178 -0.5969 -1.6260  0.3646
  287MOL0     H37874   4.253   9.518  11.326 -1.8529  0.2517  1.3059
  287MOL0     H37875   4.255   9.628  11.206  2.0191  1.8192  0.3355
  287MOL0     H37876   4.028   9.568  11.264 -1.7678  1.2604 -0.1977
  287MOL0     H37877   4.041   9.633  11.423 -1.5422 -0.8847 -0.7677
  287MOL0     H37878   4.083   9.862  11.348  3.6562 -0.1708 -0.8754
  287MOL0     H37879   3.931   9.787  11.314 -0.3052  1.1810 -0.6789
  287MOL0     H37880   3.997   9.721  11.086  2.0933  0.6996 -0.5240
  287MOL0     H37881   3.965   9.896  11.117  0.4087  2.5733  2.1016
  287MOL0     H37882   4.377   9.931  11.028  0.8198 -2.0013 -0.9404
  287MOL0     H37883   4.434   9.905  11.468 -1.3755  0.3048 -0.5885
  287MOL0     H37884   4.670   9.969  11.412  0.5944  2.3365 -2.6567
  288MOL0     O37885   1.104   1.327   2.873 -0.2733 -0.6382 -0.5117
  288MOL0     C37886   1.145   1.221   2.926 -0.7144 -0.2475 -0.3381
  288MOL0     O37887   1.097   1.096   2.918  0.1665 -0.4161  0.2328
  288MOL0     C37888   0.964   1.083   2.898  0.6062  0.7642  0.2640
  288MOL0     C37889   0.876   1.031   2.994 -0.1172  0.0955 -0.2453
  288MOL0     C37890   0.737   1.026   2.969  0.7095  0.2781  0.2396
  288MOL0     C37891   0.683   1.053   2.844  0.2139  1.1203 -0.2854
  288MOL0     O37892   0.552   1.056   2.800  0.2490  0.9396 -0.4659
  288MOL0     C37893   0.446   1.019   2.886  0.6811 -0.3260 -0.4234
  288MOL0     C37894   0.327   1.006   2.803 -0.1453  0.3910  0.0004
  288MOL0     C37895   0.197   0.949   2.860  0.6266 -0.0749 -0.4497
  288MOL0     C37896   0.089   0.916   2.748  0.2106  0.7021 -0.0828
  288MOL0     C37897  -0.051   0.890   2.814  0.6560 -0.1040  0.1830
  288MOL0     C37898  -0.169   0.889   2.715 -1.1227 -0.3813  0.8900
  288MOL0     C37899  -0.311   0.882   2.768 -0.7562  0.1013 -0.2165
  288MOL0     C37900  -0.425   0.882   2.665 -0.2288  0.0072  0.8431
  288MOL0     N37901  -0.450   0.756   2.600 -0.5496  0.5181 -0.3136
  288MOL0     C37902  -0.371   0.697   2.504 -0.9110  0.1772 -0.3999
  288MOL0     C37903  -0.442   0.612   2.443  0.3623 -0.2713  0.1176
  288MOL0     C37904  -0.402   0.533   2.318  0.0605 -0.7236  0.4858
  288MOL0     C37905  -0.335   0.618   2.215 -0.0342 -0.6902  0.2150
  288MOL0     C37906  -0.326   0.563   2.076 -0.3602 -0.4399 -0.1123
  288MOL0     C37907  -0.471   0.539   2.011 -0.2345 -0.0151  0.0061
  288MOL0     O37908  -0.452   0.524   1.864 -0.1580  0.3922 -0.3008
  288MOL0     C37909  -0.563   0.489   1.791  0.2851  0.5708  0.0345
  288MOL0     C37910  -0.693   0.543   1.808  0.8752  0.3161  0.1819
  288MOL0     C37911  -0.802   0.509   1.728 -0.6807 -0.5423  0.8325
  288MOL0     C37912  -0.781   0.426   1.617  0.8006 -0.3715  1.0101
  288MOL0     C37913  -0.893   0.389   1.532  0.2775 -0.2000  0.2315
  288MOL0     O37914  -1.009   0.467   1.549  0.5639 -0.4551 -0.2692
  288MOL0     C37915  -1.117   0.426   1.478  0.4614  0.3855 -0.5463
  288MOL0     C37916  -1.185   0.528   1.420 -0.6666  0.0355 -0.1569
  288MOL0     C37917  -1.305   0.503   1.357 -0.2264 -0.4286  0.4734
  288MOL0     C37918  -1.354   0.381   1.328 -0.4967 -0.0536 -0.3385
  288MOL0     O37919  -1.473   0.372   1.272  0.5214 -0.0013  0.3353
  288MOL0     C37920  -1.551   0.484   1.227 -0.4298  0.0634 -0.2904
  288MOL0     C37921  -1.680   0.437   1.159  0.3997  0.2999 -0.5890
  288MOL0     C37922  -1.794   0.401   1.264 -0.6171 -1.3920 -0.6034
  288MOL0     C37923  -1.930   0.370   1.202  0.6358  0.8144  0.4337
  288MOL0     C37924  -1.997   0.506   1.162  0.0727 -0.3493 -0.5989
  288MOL0     C37925  -2.133   0.480   1.104  0.0481  0.0496  0.2192
  288MOL0     C37926  -2.237   0.590   1.130  0.1389  0.2513 -0.3645
  288MOL0     C37927  -2.283   0.595   1.278  0.7340  0.3434 -0.1435
  288MOL0    Cl37928  -2.357   0.443   1.319 -0.2213  0.0167  0.5974
  288MOL0     C37929  -1.280   0.269   1.367  0.1046  0.1537 -0.0231
  288MOL0     C37930  -1.157   0.292   1.438 -0.8485  0.0367 -0.7688
  288MOL0     O37931  -0.875   0.300   1.448 -0.5438  0.2968 -0.1114
  288MOL0     C37932  -0.661   0.380   1.589 -0.7345 -0.1841  0.5634
  288MOL0     C37933  -0.548   0.410   1.677  0.0063 -1.3335 -0.4795
  288MOL0     N37934  -0.566   0.614   2.497 -0.4628  0.1446  1.1889
  288MOL0     N37935  -0.568   0.701   2.594 -0.4550  0.2707 -0.4489
  288MOL0     C37936   0.776   1.091   2.743 -0.2211  0.6091 -0.6197
  288MOL0     C37937   0.912   1.105   2.770 -1.6459  0.1118 -0.6769
  288MOL0     C37938   1.275   1.230   2.992 -0.1712 -1.0266  0.8664
  288MOL0     C37939   1.345   1.354   3.003 -0.4857  0.0941 -1.1793
  288MOL0     C37940   1.462   1.372   3.091 -0.7154  0.3845  0.1898
  288MOL0     C37941   1.505   1.259   3.175  0.0345 -0.1840 -0.3116
  288MOL0     O37942   1.619   1.277   3.258 -0.0384  0.1866 -0.1031
  288MOL0     C37943   1.683   1.163   3.322 -1.1662  0.1940 -0.6728
  288MOL0     C37944   1.751   1.072   3.219  0.6647  0.7965  0.7204
  288MOL0     C37945   1.875   1.137   3.163 -1.6807  0.2261  0.9253
  288MOL0     C37946   1.985   1.175   3.256 -0.7290 -0.6401 -0.2297
  288MOL0     C37947   2.089   1.233   3.171 -0.1163 -0.3276  0.0629
  288MOL0     C37948   2.157   1.290   3.080  0.0873 -0.3199  0.1322
  288MOL0     C37949   1.428   1.145   3.161 -0.4405  0.7421 -0.3149
  288MOL0     C37950   1.321   1.133   3.073  0.8640 -0.3530  0.1903
  288MOL0     H37951   0.906   1.008   3.095  0.9601 -4.0195 -1.3103
  288MOL0     H37952   0.665   1.007   3.048 -0.3246 -0.3447 -0.8132
  288MOL0     H37953   0.429   1.085   2.972 -0.9630 -0.1933 -0.8326
  288MOL0     H37954   0.475   0.922   2.927  0.4132  0.1045  0.8378
  288MOL0     H37955   0.369   0.946   2.722  3.6161 -0.9928  2.7063
  288MOL0     H37956   0.318   1.100   2.749  1.6848 -0.3912 -1.7614
  288MOL0     H37957   0.151   1.017   2.933  1.3958 -0.8129  0.7542
  288MOL0     H37958   0.214   0.856   2.915  0.1212  0.6076  0.9179
  288MOL0     H37959   0.088   0.996   2.674 -0.3897 -2.3747 -3.6770
  288MOL0     H37960   0.120   0.827   2.692 -2.0798 -0.8192  0.8913
  288MOL0     H37961  -0.066   0.945   2.907  0.4543 -1.9669  1.2795
  288MOL0     H37962  -0.059   0.790   2.857  1.7520 -0.1761  0.2498
  288MOL0     H37963  -0.162   0.800   2.651 -1.1572 -2.5123  3.6708
  288MOL0     H37964  -0.164   0.973   2.645  0.9936 -2.2928 -1.4495
  288MOL0     H37965  -0.326   0.799   2.839  0.6624  0.7345  0.8715
  288MOL0     H37966  -0.321   0.967   2.836 -0.6492 -0.7743  0.9238
  288MOL0     H37967  -0.417   0.949   2.578  0.7602 -0.5541  0.4923
  288MOL0     H37968  -0.517   0.918   2.711 -1.5253  0.2508 -1.7310
  288MOL0     H37969  -0.267   0.719   2.484 -0.7320 -1.3169 -1.2932
  288MOL0     H37970  -0.494   0.498   2.269  1.1891  0.4109 -2.7024
  288MOL0     H37971  -0.327   0.454   2.333  2.1464  0.8965 -0.8724
  288MOL0     H37972  -0.233   0.639   2.248  0.3079 -0.4196 -0.9437
  288MOL0     H37973  -0.374   0.719   2.204  0.8967 -0.5456 -2.7806
  288MOL0     H37974  -0.263   0.624   2.010  0.7908 -2.1957 -0.7024
  288MOL0     H37975  -0.278   0.465   2.081  0.9899  0.2206  4.1385
  288MOL0     H37976  -0.533   0.628   2.026 -0.1653 -0.3491  2.8788
  288MOL0     H37977  -0.534   0.464   2.060 -0.4004 -0.4230 -0.8150
  288MOL0     H37978  -0.707   0.603   1.897  1.6248 -0.7348  1.0285
  288MOL0     H37979  -0.901   0.545   1.756 -2.1543 -1.7292 -2.3311
  288MOL0     H37980  -1.149   0.627   1.449 -2.0319  0.3542  0.5785
  288MOL0     H37981  -1.352   0.599   1.344  1.3960  1.2301  4.9459
  288MOL0     H37982  -1.499   0.541   1.150  0.5172 -1.4225 -0.8010
  288MOL0     H37983  -1.568   0.545   1.316  2.8699  1.1399 -0.2526
  288MOL0     H37984  -1.644   0.351   1.103  1.0476 -2.0750  3.1393
  288MOL0     H37985  -1.721   0.519   1.098  0.9022  2.0672  1.3190
  288MOL0     H37986  -1.810   0.488   1.329  2.1859 -1.9795  1.0896
  288MOL0     H37987  -1.751   0.317   1.319  0.3864 -1.7447 -1.8749
  288MOL0     H37988  -1.914   0.309   1.113 -0.8664  0.8062  0.1538
  288MOL0     H37989  -1.985   0.312   1.277  0.3823 -3.0983 -2.4679
  288MOL0     H37990  -1.936   0.558   1.088 -1.0018 -1.2757 -2.2003
  288MOL0     H37991  -2.006   0.569   1.251 -1.5690  0.5936 -1.3818
  288MOL0     H37992  -2.172   0.382   1.134  0.2454 -1.6036 -4.1415
  288MOL0     H37993  -2.120   0.483   0.995  0.7091 -1.8841  0.2128
  288MOL0     H37994  -2.188   0.685   1.108 -0.2042  0.5922  0.3268
  288MOL0     H37995  -2.319   0.576   1.058  1.6090  1.5527 -2.4210
  288MOL0     H37996  -2.352   0.679   1.283  2.5541  1.9713 -1.2664
  288MOL0     H37997  -2.210   0.613   1.357 -0.5726  0.3681  1.0930
  288MOL0     H37998  -1.306   0.173   1.323 -0.7106 -0.0464  0.8746
  288MOL0     H37999  -1.099   0.204   1.464  0.5162  1.0517 -0.2537
  288MOL0     H38000  -0.645   0.315   1.503 -0.2243  1.3479 -0.5505
  288MOL0     H38001  -0.452   0.367   1.647 -0.4592 -1.7434 -1.4581
  288MOL0     H38002   0.753   1.098   2.637 -0.1631 -0.5916 -0.7167
  288MOL0     H38003   0.974   1.139   2.688 -1.3214 -2.4071 -1.5682
  288MOL0     H38004   1.320   1.447   2.953  2.2410  2.9688  2.2363
  288MOL0     H38005   1.521   1.463   3.095 -0.2836  0.2238 -1.7914
  288MOL0     H38006   1.612   1.109   3.386  0.4088 -0.4552  0.5872
  288MOL0     H38007   1.758   1.201   3.392  1.3035 -1.6004 -2.1822
  288MOL0     H38008   1.764   0.981   3.278  0.4690 -0.5020 -1.1570
  288MOL0     H38009   1.672   1.050   3.147  0.7511  1.4463  0.4205
  288MOL0     H38010   1.847   1.225   3.104 -1.1704 -0.2544 -0.0581
  288MOL0     H38011   1.920   1.065   3.093 -0.7797  1.6967 -0.0649
  288MOL0     H38012   1.959   1.255   3.325 -0.5677 -0.8991  0.1345
  288MOL0     H38013   2.032   1.099   3.319  2.1307 -0.9083 -2.4403
  288MOL0     H38014   2.225   1.353   3.027  1.0749 -0.5148  1.1080
  288MOL0     H38015   1.450   1.056   3.218  0.3074  2.1608  1.7512
  288MOL0     H38016   1.273   1.036   3.067  0.9101 -0.3015 -1.4440
  289MOL0     O38017   1.507   7.924   9.729 -0.0563 -0.2468  0.1501
  289MOL0     C38018   1.522   7.815   9.669 -0.0235 -0.4333 -1.1732
  289MOL0     O38019   1.415   7.723   9.649  0.3445  0.6217 -0.2044
  289MOL0     C38020   1.300   7.747   9.717 -0.5211 -0.9215 -0.1086
  289MOL0     C38021   1.255   7.651   9.805  0.8287  0.4659 -0.3779
  289MOL0     C38022   1.137   7.678   9.888 -0.8574  0.4063  0.9241
  289MOL0     C38023   1.060   7.796   9.866 -0.4942  0.7977 -0.4984
  289MOL0     O38024   0.948   7.812   9.955 -0.2536  0.3993 -0.1143
  289MOL0     C38025   0.915   7.947   9.977  0.2862  0.2455 -0.2180
  289MOL0     C38026   0.807   7.958  10.087  0.2260 -0.8113  1.2857
  289MOL0     C38027   0.757   8.103  10.109 -1.0123  0.3245  0.2556
  289MOL0     C38028   0.639   8.125  10.203 -0.4866  0.1563 -0.3255
  289MOL0     C38029   0.602   8.274  10.207  0.6262 -0.2821 -0.3997
  289MOL0     C38030   0.465   8.307  10.269  0.3332  0.1083 -0.1553
  289MOL0     C38031   0.418   8.456  10.260  0.1297  0.4322  0.3993
  289MOL0     C38032   0.276   8.481  10.326  0.2351  0.5313  0.5678
  289MOL0     N38033   0.268   8.622  10.376 -0.2551  0.4694  0.1800
  289MOL0     C38034   0.252   8.732  10.296 -0.4330  0.0922  0.4153
  289MOL0     C38035   0.246   8.838  10.369  0.3268 -0.5892  0.1499
  289MOL0     C38036   0.201   8.981  10.326  0.2458  0.3377 -0.1338
  289MOL0     C38037   0.050   8.998  10.316 -0.1950 -0.2286 -0.0203
  289MOL0     C38038   0.021   9.129  10.262 -0.0392  0.1435  0.5248
  289MOL0     C38039  -0.130   9.149  10.240  0.7815 -0.2282 -0.0367
  289MOL0     O38040  -0.190   9.154  10.370 -0.0848 -0.3410 -0.2285
  289MOL0     C38041  -0.325   9.190  10.374  0.2200 -0.0663 -0.1526
  289MOL0     C38042  -0.401   9.185  10.496 -1.2142 -0.0329 -0.0580
  289MOL0     C38043  -0.535   9.237  10.503  0.7418 -0.4913  0.3951
  289MOL0     C38044  -0.607   9.270  10.387  0.5122 -0.0051 -0.2551
  289MOL0     C38045  -0.755   9.303  10.396 -0.2410  0.0769  1.1248
  289MOL0     O38046  -0.819   9.338  10.282  0.6062  0.4454  0.4267
  289MOL0     C38047  -0.960   9.326  10.282 -0.6086  0.3056  0.1580
  289MOL0     C38048  -1.030   9.211  10.327 -0.6221  0.5139  0.8331
  289MOL0     C38049  -1.167   9.205  10.306  0.2066  0.5684  0.4198
  289MOL0     C38050  -1.238   9.317  10.254  0.6711  0.0172 -0.0043
  289MOL0     O38051  -1.378   9.319  10.241  0.0784  0.6073 -0.5938
  289MOL0     C38052  -1.443   9.186  10.238 -0.5413 -0.6578  0.3101
  289MOL0     C38053  -1.587   9.230  10.214 -0.1960  0.5689 -0.6829
  289MOL0     C38054  -1.695   9.121  10.216  0.5925 -0.3777  0.1491
  289MOL0     C38055  -1.832   9.184  10.218 -0.5182  0.5229 -0.1959
  289MOL0     C38056  -1.867   9.225  10.076  0.0945 -0.0180 -0.2243
  289MOL0     C38057  -2.004   9.281  10.069  0.6589 -0.4458 -0.1103
  289MOL0     C38058  -2.049   9.323   9.933 -0.1620 -0.2730  0.3847
  289MOL0     C38059  -2.174   9.407   9.937  0.2254 -0.7530  0.4058
  289MOL0    Cl38060  -2.300   9.301   9.990  0.7303 -0.0328 -0.0477
  289MOL0     C38061  -1.177   9.425  10.200  0.4326 -0.4729  1.0855
  289MOL0     C38062  -1.035   9.429  10.214 -1.3105 -0.2573  0.1433
  289MOL0     O38063  -0.806   9.291  10.507  0.6210  0.0167 -0.2092
  289MOL0     C38064  -0.542   9.275  10.271  0.4314  0.2535  0.0522
  289MOL0     C38065  -0.403   9.231  10.262 -0.1543 -0.4727  1.2556
  289MOL0     N38066   0.261   8.792  10.505  0.7216 -0.7837 -0.0048
  289MOL0     N38067   0.276   8.658  10.505 -0.5214 -0.0288  0.5585
  289MOL0     C38068   1.095   7.886   9.769  0.3201 -0.0739 -0.0964
  289MOL0     C38069   1.229   7.869   9.706  0.4690 -0.0293  0.1698
  289MOL0     C38070   1.653   7.788   9.607 -1.2529 -0.5904 -0.6191
  289MOL0     C38071   1.677   7.664   9.546 -0.8280  0.0924  0.5655
  289MOL0     C38072   1.795   7.643   9.479 -0.7254 -0.2081 -0.1109
  289MOL0     C38073   1.900   7.736   9.488  0.0049  0.0047  0.0217
  289MOL0     O38074   2.008   7.700   9.414  0.2457  0.3549 -0.1335
  289MOL0     C38075   2.107   7.799   9.379  0.2175 -0.5652 -0.6758
  289MOL0     C38076   2.229   7.800   9.479 -0.6791  0.5731  0.8013
  289MOL0     C38077   2.305   7.664   9.475  0.4906 -0.1194 -0.4139
  289MOL0     C38078   2.436   7.665   9.551 -0.8232  0.6943 -0.0202
  289MOL0     C38079   2.488   7.527   9.549 -0.3542  1.1865 -0.3604
  289MOL0     C38080   2.552   7.425   9.526  0.3491  0.8775  0.1444
  289MOL0     C38081   1.876   7.861   9.548  1.0465  0.4739  0.2424
  289MOL0     C38082   1.757   7.879   9.621 -0.3892  0.2608  0.2223
  289MOL0     H38083   1.310   7.558   9.797 -0.1790 -0.0846 -1.1479
  289MOL0     H38084   1.101   7.599   9.954 -0.6005 -0.1754  0.3832
  289MOL0     H38085   0.871   8.006   9.896 -3.1214  1.1590  2.0506
  289MOL0     H38086   1.004   7.995  10.018  3.0878 -3.7433 -1.0737
  289MOL0     H38087   0.838   7.920  10.185 -2.3082 -1.8983  1.7549
  289MOL0     H38088   0.720   7.899  10.054  0.2707 -0.6094  0.7933
  289MOL0     H38089   0.726   8.141  10.011 -1.3577  1.5236  0.8111
  289MOL0     H38090   0.848   8.150  10.145 -0.8384  0.3755 -0.2427
  289MOL0     H38091   0.551   8.063  10.184 -1.8833  1.6831  0.8612
  289MOL0     H38092   0.671   8.090  10.302 -2.2778 -0.3779  0.0906
  289MOL0     H38093   0.609   8.325  10.110 -1.6749  3.4064  1.1870
  289MOL0     H38094   0.681   8.320  10.268  1.3973 -1.9133 -0.0997
  289MOL0     H38095   0.464   8.270  10.372 -2.5357  1.9042  0.5846
  289MOL0     H38096   0.385   8.247  10.225  0.7073  0.3809 -1.2223
  289MOL0     H38097   0.496   8.515  10.310  0.5912 -2.1997  3.0631
  289MOL0     H38098   0.419   8.490  10.156  1.1542  1.1208  0.6176
  289MOL0     H38099   0.265   8.401  10.400 -1.6539 -1.3036 -1.5275
  289MOL0     H38100   0.193   8.456  10.260  0.3700  0.0666  0.5687
  289MOL0     H38101   0.233   8.730  10.189  0.8337  1.6300  0.1279
  289MOL0     H38102   0.247   8.998  10.229  0.9149  2.7958  0.5574
  289MOL0     H38103   0.244   9.062  10.386 -0.6338 -0.1124  1.1570
  289MOL0     H38104   0.009   8.992  10.417  0.9445 -1.8678  0.3760
  289MOL0     H38105   0.006   8.929  10.243  0.6841 -0.8563  0.0376
  289MOL0     H38106   0.058   9.196  10.340  1.2784  0.2573 -0.1691
  289MOL0     H38107   0.070   9.145  10.165  1.3753 -0.0138  1.1946
  289MOL0     H38108  -0.176   9.080  10.169 -1.5069  1.7654 -0.6095
  289MOL0     H38109  -0.129   9.242  10.183 -0.9821 -1.7250 -2.7736
  289MOL0     H38110  -0.355   9.169  10.593 -0.0677 -0.5427 -0.6690
  289MOL0     H38111  -0.593   9.241  10.595  0.1703 -0.8348  0.0529
  289MOL0     H38112  -0.991   9.124  10.379 -2.3946 -1.5564 -1.0592
  289MOL0     H38113  -1.209   9.111  10.338 -5.0402  0.4496 -4.8612
  289MOL0     H38114  -1.434   9.127  10.330 -4.8655 -2.3511 -0.1140
  289MOL0     H38115  -1.403   9.125  10.157  4.0007 -0.3554  2.0155
  289MOL0     H38116  -1.597   9.273  10.114 -1.3963  0.7125 -0.5147
  289MOL0     H38117  -1.610   9.306  10.289 -0.3143  0.9289 -1.0821
  289MOL0     H38118  -1.688   9.057  10.305  1.9352 -0.7201 -0.1786
  289MOL0     H38119  -1.688   9.052  10.131 -0.7097 -1.1455  0.6460
  289MOL0     H38120  -1.906   9.113  10.255  0.9457 -0.3171  1.2067
  289MOL0     H38121  -1.829   9.272  10.283  0.5473 -0.4441  1.1182
  289MOL0     H38122  -1.856   9.144  10.004 -0.7091  3.1016 -4.1935
  289MOL0     H38123  -1.790   9.290  10.034  2.4745 -2.5036  0.0037
  289MOL0     H38124  -2.011   9.358  10.146  0.6151 -0.9987  0.4575
  289MOL0     H38125  -2.062   9.202  10.118  3.0077 -0.5560  2.8835
  289MOL0     H38126  -1.976   9.389   9.886  0.2570  0.3270  1.8181
  289MOL0     H38127  -2.066   9.232   9.876 -3.3937  0.4573 -0.0138
  289MOL0     H38128  -2.195   9.449   9.838 -0.2676 -0.6749  0.5423
  289MOL0     H38129  -2.162   9.491  10.006  3.6177  1.0020 -2.0035
  289MOL0     H38130  -1.241   9.499  10.153  0.8374  0.6612  2.2496
  289MOL0     H38131  -0.973   9.496  10.154 -0.1258  0.3311  1.9161
  289MOL0     H38132  -0.591   9.305  10.179 -3.8899 -1.8299  1.3673
  289MOL0     H38133  -0.363   9.241  10.161  2.1991 -0.7737  2.1025
  289MOL0     H38134   1.037   7.973   9.740  0.5486  0.7207  1.7232
  289MOL0     H38135   1.275   7.948   9.649  0.6127  0.8169  1.4171
  289MOL0     H38136   1.608   7.581   9.541 -0.2089 -0.3579 -1.0159
  289MOL0     H38137   1.830   7.550   9.434 -0.8506 -0.5652  0.5171
  289MOL0     H38138   2.061   7.899   9.384  1.4123 -0.0159 -0.3256
  289MOL0     H38139   2.140   7.770   9.279  1.4887 -2.4765  0.2473
  289MOL0     H38140   2.299   7.880   9.453 -1.8666  1.8682  1.4536
  289MOL0     H38141   2.200   7.803   9.585  1.1733  0.5444  1.3566
  289MOL0     H38142   2.323   7.633   9.372  1.6597 -4.3597  0.8779
  289MOL0     H38143   2.243   7.590   9.526  0.1948 -0.4174 -1.1958
  289MOL0     H38144   2.508   7.745   9.531  3.7069 -2.6694  1.1526
  289MOL0     H38145   2.412   7.685   9.656 -2.8185  0.5504 -0.4080
  289MOL0     H38146   2.623   7.345   9.517  1.1933  1.7452 -1.1108
  289MOL0     H38147   1.952   7.939   9.553 -2.3939  4.3613 -2.0881
  289MOL0     H38148   1.748   7.963   9.690 -0.3606 -0.4494  1.0985
  290MOL0     O38149   1.606   8.328   1.596 -0.6314 -0.0987  0.6428
  290MOL0     C38150   1.640   8.388   1.495  0.2461 -0.0910 -0.2812
  290MOL0     O38151   1.660   8.330   1.372 -0.1991 -0.4804 -0.5878
  290MOL0     C38152   1.635   8.188   1.378  0.4152  0.7605  0.7005
  290MOL0     C38153   1.745   8.099   1.362 -0.3743  0.5738 -0.1454
  290MOL0     C38154   1.732   7.960   1.379 -0.1153 -0.1778 -0.3761
  290MOL0     C38155   1.603   7.905   1.404  0.0283  0.7129 -1.0457
  290MOL0     O38156   1.583   7.776   1.443 -0.2537  0.4018 -0.2756
  290MOL0     C38157   1.507   7.682   1.361  0.5991 -0.0869  0.8142
  290MOL0     C38158   1.473   7.746   1.225  0.5034 -0.2348 -0.2259
  290MOL0     C38159   1.433   7.643   1.122  0.4077 -0.0815 -0.2038
  290MOL0     C38160   1.306   7.568   1.164  0.1237 -0.1936 -0.9222
  290MOL0     C38161   1.175   7.647   1.152  0.3037 -0.3620  0.1928
  290MOL0     C38162   1.057   7.576   1.214 -0.0903  0.1342  0.3566
  290MOL0     C38163   0.950   7.669   1.253 -0.2809 -0.7050  0.3014
  290MOL0     C38164   0.822   7.597   1.280 -0.1237  0.6428  0.0729
  290MOL0     N38165   0.708   7.684   1.288  0.2136 -1.0237 -0.7720
  290MOL0     C38166   0.601   7.688   1.213  0.8305  0.1986 -0.1996
  290MOL0     C38167   0.513   7.758   1.289  0.6340  0.0674 -0.1363
  290MOL0     C38168   0.381   7.818   1.244 -0.3954  0.2975  0.9391
  290MOL0     C38169   0.267   7.725   1.276  0.6700 -0.6418 -0.1245
  290MOL0     C38170   0.239   7.720   1.427 -0.1107  0.6395  0.4632
  290MOL0     C38171   0.191   7.853   1.494  0.4287 -0.5476  0.9321
  290MOL0     O38172   0.082   7.929   1.437 -0.4990  0.1289 -0.3685
  290MOL0     C38173  -0.043   7.872   1.436 -0.2447  0.6971  0.6398
  290MOL0     C38174  -0.074   7.746   1.496  0.0644  0.2668  0.2773
  290MOL0     C38175  -0.198   7.696   1.474 -0.2173  0.0299 -1.2959
  290MOL0     C38176  -0.304   7.756   1.402  0.2031 -0.5031  0.2043
  290MOL0     C38177  -0.433   7.684   1.396  0.2327 -0.4432  0.1733
  290MOL0     O38178  -0.431   7.558   1.444  0.0750  0.0974 -0.4318
  290MOL0     C38179  -0.541   7.476   1.455 -0.3889  0.5773  0.1192
  290MOL0     C38180  -0.541   7.348   1.400 -0.1869  0.5906 -0.5241
  290MOL0     C38181  -0.650   7.253   1.410 -1.0013 -0.1083 -0.0455
  290MOL0     C38182  -0.766   7.286   1.479 -0.1678 -0.4916 -0.4127
  290MOL0     O38183  -0.866   7.197   1.502  0.5111 -0.1125 -0.7208
  290MOL0     C38184  -0.967   7.193   1.396  0.4438 -0.5888 -0.5308
  290MOL0     C38185  -1.105   7.155   1.460  0.1988 -0.0677  0.3505
  290MOL0     C38186  -1.118   7.009   1.528 -0.6623 -0.0523  0.4306
  290MOL0     C38187  -1.111   6.910   1.413 -0.7593  0.1525 -0.0369
  290MOL0     C38188  -1.116   6.760   1.447 -0.5727 -0.1730  0.7693
  290MOL0     C38189  -1.092   6.673   1.314  0.7930  0.7763  0.8192
  290MOL0     C38190  -1.069   6.514   1.349  0.5256 -0.5272  0.0752
  290MOL0     C38191  -1.082   6.430   1.223  0.1972 -0.3631  0.6539
  290MOL0    Cl38192  -0.958   6.489   1.098 -0.1486 -0.0196 -0.4210
  290MOL0     C38193  -0.772   7.417   1.530  0.6425  0.1446 -0.8058
  290MOL0     C38194  -0.661   7.505   1.525  0.2623  0.2420 -0.3699
  290MOL0     O38195  -0.532   7.741   1.353 -0.5829  0.4178  0.0951
  290MOL0     C38196  -0.277   7.878   1.347  0.1033  0.1598 -0.9376
  290MOL0     C38197  -0.150   7.931   1.363 -0.0584 -0.4154  1.1359
  290MOL0     N38198   0.577   7.808   1.402  0.6808  0.6040 -0.3184
  290MOL0     N38199   0.691   7.758   1.397  0.8561  0.1412 -0.4575
  290MOL0     C38200   1.489   7.993   1.415 -0.7496 -0.6498  0.7229
  290MOL0     C38201   1.508   8.133   1.403  0.7085  0.0814 -0.4872
  290MOL0     C38202   1.679   8.540   1.507 -1.1511  0.3212  0.1979
  290MOL0     C38203   1.746   8.596   1.397  0.0124  0.9148  0.0962
  290MOL0     C38204   1.796   8.726   1.408 -0.6770 -0.4871  0.7960
  290MOL0     C38205   1.770   8.797   1.524 -0.0477  0.0158  0.2931
  290MOL0     O38206   1.793   8.935   1.543 -0.0326 -1.0305 -0.2303
  290MOL0     C38207   1.832   9.012   1.421  0.2255 -0.3814  0.4061
  290MOL0     C38208   1.981   9.046   1.410  0.7897  0.3360  0.5417
  290MOL0     C38209   2.014   9.112   1.273  0.5673  0.5510  0.4187
  290MOL0     C38210   2.158   9.129   1.231 -0.4523  0.6683 -0.0654
  290MOL0     C38211   2.181   9.241   1.140 -0.3233 -0.0343 -0.0204
  290MOL0     C38212   2.213   9.321   1.054 -0.0022  0.2398 -0.1888
  290MOL0     C38213   1.696   8.742   1.629 -0.6404  0.9844 -0.3116
  290MOL0     C38214   1.663   8.609   1.626  0.6606  0.8161  0.1595
  290MOL0     H38215   1.845   8.141   1.354 -1.2186  2.3309 -3.8497
  290MOL0     H38216   1.818   7.895   1.367 -0.5295 -0.3628 -2.7678
  290MOL0     H38217   1.413   7.653   1.408 -0.1193 -0.5757 -0.8865
  290MOL0     H38218   1.565   7.590   1.351 -1.9738 -1.5467 -2.7462
  290MOL0     H38219   1.564   7.791   1.183  0.3507 -0.2330 -0.5520
  290MOL0     H38220   1.401   7.828   1.233 -2.0112 -2.5526  3.1916
  290MOL0     H38221   1.524   7.583   1.120  1.8097  1.8570  0.9044
  290MOL0     H38222   1.407   7.692   1.028 -1.5009  2.1465  1.3555
  290MOL0     H38223   1.295   7.472   1.113 -3.6369 -1.1576  1.3683
  290MOL0     H38224   1.322   7.531   1.265  1.3716  1.9881 -0.2483
  290MOL0     H38225   1.160   7.665   1.045 -1.2691 -0.1857  0.4279
  290MOL0     H38226   1.186   7.745   1.200 -4.1170  0.1983  0.4381
  290MOL0     H38227   1.086   7.526   1.307 -0.2541  0.2917  0.4933
  290MOL0     H38228   1.016   7.501   1.146 -0.1192  2.9462 -2.9744
  290MOL0     H38229   0.986   7.723   1.341 -1.3976  1.0473 -0.2773
  290MOL0     H38230   0.936   7.743   1.174 -0.4886 -0.5030  0.5298
  290MOL0     H38231   0.829   7.534   1.369 -1.5179 -0.8962 -0.8649
  290MOL0     H38232   0.802   7.529   1.198  1.1733  0.6565 -0.2721
  290MOL0     H38233   0.578   7.645   1.116 -2.0738  3.9487 -1.4617
  290MOL0     H38234   0.398   7.833   1.137 -2.1670 -0.6476  0.4815
  290MOL0     H38235   0.367   7.921   1.278  0.3332  0.2060  1.5238
  290MOL0     H38236   0.298   7.626   1.241  1.5214 -0.7489  0.8593
  290MOL0     H38237   0.171   7.746   1.227 -0.5985 -0.6139  2.2064
  290MOL0     H38238   0.170   7.636   1.443  1.4991 -0.9718 -0.6139
  290MOL0     H38239   0.330   7.696   1.484 -0.9645  1.8990  2.4504
  290MOL0     H38240   0.268   7.931   1.492  1.6186 -1.4635 -4.4794
  290MOL0     H38241   0.169   7.832   1.599 -0.1445  0.4386  1.0233
  290MOL0     H38242   0.001   7.685   1.546 -0.1316 -0.1969  0.0067
  290MOL0     H38243  -0.210   7.600   1.523  2.2121  0.5563  0.5008
  290MOL0     H38244  -0.450   7.308   1.356 -1.2744 -1.0228 -1.4214
  290MOL0     H38245  -0.647   7.151   1.375 -1.6566 -1.2395  2.8999
  290MOL0     H38246  -0.938   7.121   1.319 -1.5980 -3.8973  1.5666
  290MOL0     H38247  -0.980   7.278   1.327 -4.3157 -2.9598 -3.0858
  290MOL0     H38248  -1.183   7.168   1.385  1.4567 -1.0050 -1.1899
  290MOL0     H38249  -1.125   7.225   1.541  1.0254 -0.0834  0.5825
  290MOL0     H38250  -1.212   6.991   1.580 -0.4015 -1.6057  0.3989
  290MOL0     H38251  -1.031   7.007   1.595 -1.4768  0.3243  1.5231
  290MOL0     H38252  -1.206   6.933   1.362 -0.8895  0.6187  0.4105
  290MOL0     H38253  -1.023   6.929   1.351  0.9656 -1.5073  1.7843
  290MOL0     H38254  -1.209   6.721   1.490 -0.0548 -4.6765 -1.6896
  290MOL0     H38255  -1.027   6.738   1.507 -0.9893 -0.0497  1.4536
  290MOL0     H38256  -1.004   6.704   1.258  1.8662 -0.0286  2.0147
  290MOL0     H38257  -1.172   6.688   1.241  0.7867  2.9480  1.2096
  290MOL0     H38258  -0.968   6.500   1.388  0.5848 -3.4949 -0.9018
  290MOL0     H38259  -1.146   6.485   1.420 -2.4398  3.6238 -1.0751
  290MOL0     H38260  -1.185   6.441   1.187  0.6243  1.7371 -0.1012
  290MOL0     H38261  -1.065   6.325   1.248 -2.0339 -0.9578 -0.0454
  290MOL0     H38262  -0.860   7.443   1.588  1.6237  0.0077  0.8166
  290MOL0     H38263  -0.659   7.598   1.581  3.1765  0.6485 -1.0002
  290MOL0     H38264  -0.347   7.947   1.299 -0.3949  0.8091  0.6766
  290MOL0     H38265  -0.117   8.022   1.312  0.1888 -0.7516  0.6810
  290MOL0     H38266   1.389   7.951   1.416 -1.4823  0.8944 -1.1729
  290MOL0     H38267   1.424   8.196   1.425  0.1543 -0.7256 -0.2453
  290MOL0     H38268   1.762   8.540   1.306  1.8853  2.0650 -0.3266
  290MOL0     H38269   1.851   8.768   1.324 -2.2029 -0.1209 -0.0667
  290MOL0     H38270   1.780   9.107   1.428  2.5998  0.9575  1.0002
  290MOL0     H38271   1.805   8.968   1.324  1.0608  4.3779 -2.2903
  290MOL0     H38272   2.009   9.100   1.501  0.3554  0.1307  0.8029
  290MOL0     H38273   2.037   8.951   1.414 -1.4062 -1.1868 -1.9538
  290MOL0     H38274   1.966   9.211   1.273 -2.7715 -0.9295  1.6893
  290MOL0     H38275   1.966   9.062   1.188 -1.2892  1.7331  0.7020
  290MOL0     H38276   2.225   9.136   1.317  2.2714 -2.7484 -1.6511
  290MOL0     H38277   2.193   9.036   1.185 -2.7128 -1.2409  1.8299
  290MOL0     H38278   2.267   9.373   0.977  2.6373 -0.1350  1.2923
  290MOL0     H38279   1.666   8.785   1.724  1.0220 -1.2769  1.3339
  290MOL0     H38280   1.604   8.548   1.694  0.3601  1.2694  0.3120
  291MOL0     O38281   0.382   1.034   6.852 -0.0414 -0.7098  0.1852
  291MOL0     C38282   0.388   1.130   6.921  0.9333 -0.6961 -0.2816
  291MOL0     O38283   0.280   1.213   6.942  0.5856 -0.0187  0.8678
  291MOL0     C38284   0.159   1.204   6.873 -0.0069 -0.3137 -0.5015
  291MOL0     C38285   0.151   1.229   6.738 -0.2903  0.2997 -0.3583
  291MOL0     C38286   0.025   1.239   6.676 -0.2721 -0.1323  0.2610
  291MOL0     C38287  -0.096   1.233   6.748  0.2098  0.1154 -0.3509
  291MOL0     O38288  -0.216   1.254   6.688  0.0592 -0.1166  0.0847
  291MOL0     C38289  -0.334   1.289   6.761 -1.3112  0.2028 -0.4870
  291MOL0     C38290  -0.393   1.160   6.817 -0.2950  0.3526  0.2790
  291MOL0     C38291  -0.476   1.102   6.706 -0.3087  0.0474 -0.8010
  291MOL0     C38292  -0.574   0.990   6.763 -0.0085  0.6582  0.0017
  291MOL0     C38293  -0.669   0.908   6.661  0.4165  0.2872 -0.1927
  291MOL0     C38294  -0.822   0.879   6.708 -1.4359  0.2491  0.7939
  291MOL0     C38295  -0.896   0.815   6.588  0.2591  0.0825 -0.3365
  291MOL0     C38296  -0.905   0.892   6.460  0.3110  0.0291 -0.4945
  291MOL0     N38297  -0.942   1.037   6.473  0.9044  0.6563 -0.3874
  291MOL0     C38298  -0.868   1.144   6.431  0.7512 -0.1962  0.2514
  291MOL0     C38299  -0.913   1.247   6.506 -0.6630 -0.3666 -0.2797
  291MOL0     C38300  -0.841   1.380   6.516  0.4688  0.4636 -0.5551
  291MOL0     C38301  -0.941   1.495   6.504 -0.9391  0.1886  0.1997
  291MOL0     C38302  -1.017   1.508   6.368  0.0012  0.0618  0.6055
  291MOL0     C38303  -1.160   1.469   6.377  0.5961 -0.1563 -0.8194
  291MOL0     O38304  -1.202   1.434   6.250 -0.4587 -0.0144  0.3245
  291MOL0     C38305  -1.336   1.434   6.234  0.5299 -0.0039 -0.8499
  291MOL0     C38306  -1.377   1.453   6.109  0.3233  0.7705  0.8186
  291MOL0     C38307  -1.514   1.461   6.082 -0.1293  0.2119 -0.1210
  291MOL0     C38308  -1.605   1.456   6.189  0.2696 -0.4485  0.0900
  291MOL0     C38309  -1.747   1.457   6.165 -0.1633 -0.2766 -0.2425
  291MOL0     O38310  -1.832   1.446   6.274  0.5272  0.4514  0.0737
  291MOL0     C38311  -1.964   1.474   6.254 -0.3725 -0.0171 -0.2282
  291MOL0     C38312  -1.999   1.608   6.236  0.5611 -0.4094 -0.2087
  291MOL0     C38313  -2.132   1.655   6.247  0.6128 -0.0586  0.7655
  291MOL0     C38314  -2.231   1.561   6.270 -0.3449  0.7452  0.3837
  291MOL0     O38315  -2.363   1.586   6.274  0.1109 -0.5660  0.7201
  291MOL0     C38316  -2.410   1.716   6.304  0.4060  0.0772 -0.4067
  291MOL0     C38317  -2.565   1.718   6.310  0.1533  0.2240  0.0133
  291MOL0     C38318  -2.615   1.673   6.449 -0.2473 -0.0856 -0.0708
  291MOL0     C38319  -2.769   1.658   6.429 -0.5185  0.9376 -0.0560
  291MOL0     C38320  -2.839   1.644   6.561 -0.6421 -0.8377 -0.2858
  291MOL0     C38321  -2.984   1.628   6.557  0.3884 -0.7748  0.9025
  291MOL0     C38322  -3.040   1.687   6.680  0.2271  0.1571  0.1257
  291MOL0     C38323  -3.193   1.695   6.662  0.2527 -0.6470  0.4033
  291MOL0    Cl38324  -3.297   1.712   6.811  0.0297  0.1058  0.2910
  291MOL0     C38325  -2.197   1.424   6.288  0.1002  0.0345  0.6986
  291MOL0     C38326  -2.068   1.376   6.274  0.2327 -0.0035  0.3610
  291MOL0     O38327  -1.786   1.485   6.055 -0.1149  0.2531  0.0587
  291MOL0     C38328  -1.561   1.447   6.327  0.8089  0.0331  0.9095
  291MOL0     C38329  -1.429   1.425   6.342 -0.3443  0.2552 -0.1650
  291MOL0     N38330  -1.008   1.199   6.594  0.7012 -0.7052  0.9351
  291MOL0     N38331  -1.030   1.078   6.577  0.2819  0.2617  0.3422
  291MOL0     C38332  -0.082   1.212   6.889 -0.8805  0.3844  0.2232
  291MOL0     C38333   0.047   1.207   6.943 -0.1316 -0.5298 -0.3806
  291MOL0     C38334   0.505   1.158   7.020 -0.3918 -0.2440  0.9726
  291MOL0     C38335   0.523   1.291   7.072  0.5170  0.3039  0.1019
  291MOL0     C38336   0.632   1.311   7.163 -0.5890 -0.4917  0.1722
  291MOL0     C38337   0.723   1.215   7.188 -0.3199  0.8586 -0.3361
  291MOL0     O38338   0.835   1.245   7.265  0.5785 -0.0629  0.3263
  291MOL0     C38339   0.911   1.137   7.333 -0.0783 -0.6472 -0.4082
  291MOL0     C38340   0.984   1.217   7.442 -0.5472 -0.0285  0.2657
  291MOL0     C38341   1.067   1.120   7.530 -0.5883  0.0091 -0.0847
  291MOL0     C38342   1.143   1.211   7.624 -0.0726 -0.8983 -0.7334
  291MOL0     C38343   1.221   1.129   7.715 -0.9076 -0.7852  0.2862
  291MOL0     C38344   1.286   1.052   7.782  0.1430  0.5711  0.5067
  291MOL0     C38345   0.708   1.083   7.140  0.3523 -0.6070 -0.2904
  291MOL0     C38346   0.597   1.056   7.060 -1.1377 -0.3594 -0.5316
  291MOL0     H38347   0.242   1.240   6.680  0.6820  1.2523  1.2966
  291MOL0     H38348   0.030   1.253   6.568 -1.7307  2.8507  0.4897
  291MOL0     H38349  -0.410   1.345   6.705 -0.0829  0.2734 -2.1517
  291MOL0     H38350  -0.311   1.339   6.856  0.2410  0.0933 -0.7906
  291MOL0     H38351  -0.458   1.187   6.901  0.3971 -0.4880  1.1173
  291MOL0     H38352  -0.313   1.093   6.850  0.9281  2.1293  1.0987
  291MOL0     H38353  -0.407   1.062   6.631 -1.5858  0.6577 -2.3775
  291MOL0     H38354  -0.545   1.161   6.643 -2.6292 -2.9695 -1.3106
  291MOL0     H38355  -0.513   0.919   6.820 -1.0027  0.9147  1.4361
  291MOL0     H38356  -0.638   1.029   6.842  0.3881 -2.1587  1.8651
  291MOL0     H38357  -0.623   0.811   6.642  1.3681  0.7426 -0.2699
  291MOL0     H38358  -0.669   0.960   6.565 -0.4403  1.0762  0.2105
  291MOL0     H38359  -0.872   0.972   6.734 -0.4509  1.2166 -0.6172
  291MOL0     H38360  -0.835   0.808   6.790 -1.3050 -0.1218  0.4976
  291MOL0     H38361  -0.855   0.716   6.564  0.1157 -0.0687  0.0210
  291MOL0     H38362  -0.997   0.801   6.628  1.5896 -1.1484  2.9409
  291MOL0     H38363  -0.978   0.852   6.388 -1.6461  0.8085  0.9509
  291MOL0     H38364  -0.805   0.894   6.417  0.7416  0.9432  0.4990
  291MOL0     H38365  -0.793   1.145   6.352 -0.4817 -2.9024 -1.0924
  291MOL0     H38366  -0.754   1.400   6.453  2.2882  1.1547  2.0314
  291MOL0     H38367  -0.789   1.380   6.612  1.7805 -2.3490 -1.1436
  291MOL0     H38368  -0.890   1.591   6.519  2.8105 -1.8643  2.1606
  291MOL0     H38369  -1.013   1.494   6.586  1.8493  0.4488  2.8746
  291MOL0     H38370  -1.017   1.616   6.356  1.8831  0.6943  4.7129
  291MOL0     H38371  -0.964   1.457   6.286 -0.6792  2.0220 -1.1394
  291MOL0     H38372  -1.206   1.556   6.425  1.9353 -0.6390  1.5332
  291MOL0     H38373  -1.166   1.392   6.455  2.1572  1.5194  1.0751
  291MOL0     H38374  -1.300   1.473   6.035  0.7085  0.1558  1.0453
  291MOL0     H38375  -1.536   1.473   5.976  1.4454 -2.9645 -0.9320
  291MOL0     H38376  -1.916   1.675   6.216  2.7226 -3.1652 -1.1058
  291MOL0     H38377  -2.165   1.758   6.237  1.5030  0.0334 -2.2005
  291MOL0     H38378  -2.379   1.795   6.235  1.1780 -0.7781 -1.0634
  291MOL0     H38379  -2.375   1.740   6.405  0.3682 -0.9695 -0.1337
  291MOL0     H38380  -2.599   1.641   6.241 -0.4108  1.1444 -0.7681
  291MOL0     H38381  -2.608   1.817   6.289  0.4289  0.9520  2.5816
  291MOL0     H38382  -2.583   1.746   6.524 -0.9846 -0.4485  0.6090
  291MOL0     H38383  -2.568   1.580   6.481 -2.0923 -1.4046 -1.0063
  291MOL0     H38384  -2.809   1.746   6.377 -2.4409  1.0484  1.4999
  291MOL0     H38385  -2.789   1.567   6.371 -0.1432  0.2414  0.8884
  291MOL0     H38386  -2.810   1.726   6.628 -2.0004  0.4419 -1.1800
  291MOL0     H38387  -2.809   1.555   6.617  0.6604 -0.2950 -0.0929
  291MOL0     H38388  -3.020   1.526   6.540 -1.4409 -0.6552  3.5359
  291MOL0     H38389  -3.016   1.692   6.474 -0.2173 -1.8679  0.2681
  291MOL0     H38390  -3.004   1.620   6.759  0.5113  0.7942  0.5407
  291MOL0     H38391  -2.999   1.785   6.704  0.4908 -0.0510  0.5505
  291MOL0     H38392  -3.240   1.607   6.617 -1.9958  1.8570 -2.5304
  291MOL0     H38393  -3.212   1.772   6.587  2.1116 -1.0349 -0.5222
  291MOL0     H38394  -2.272   1.353   6.320  0.4149 -0.3069  0.6808
  291MOL0     H38395  -2.049   1.273   6.301 -4.0751 -1.5193 -1.6107
  291MOL0     H38396  -1.621   1.442   6.418 -0.4253  1.3662  0.2135
  291MOL0     H38397  -1.390   1.420   6.443  1.0202  2.8442 -0.4788
  291MOL0     H38398  -0.157   1.198   6.966  0.1801 -2.0999  0.8985
  291MOL0     H38399   0.063   1.185   7.048  1.6529 -0.4775 -0.6237
  291MOL0     H38400   0.461   1.371   7.033 -0.2547 -1.3634 -2.3928
  291MOL0     H38401   0.651   1.415   7.188  1.1184 -0.6541 -0.3643
  291MOL0     H38402   0.971   1.084   7.258  0.5106 -2.1966  1.0849
  291MOL0     H38403   0.857   1.058   7.387  1.0718 -1.2859 -0.1583
  291MOL0     H38404   1.062   1.283   7.401  0.0970 -1.4297 -0.8108
  291MOL0     H38405   0.910   1.273   7.500 -0.2027  2.8144 -1.7965
  291MOL0     H38406   1.142   1.068   7.469 -1.3974 -0.6539 -0.5316
  291MOL0     H38407   1.007   1.048   7.586 -1.7031 -0.3564 -1.6649
  291MOL0     H38408   1.202   1.285   7.569  0.5575 -1.7435 -1.2272
  291MOL0     H38409   1.073   1.269   7.685  0.6569  0.9224 -1.5484
  291MOL0     H38410   1.348   0.980   7.831  2.0442 -0.8608 -3.5489
  291MOL0     H38411   0.780   1.002   7.152  0.3199 -0.1387  5.5979
  291MOL0     H38412   0.592   0.959   7.011 -1.4558  0.4745 -2.1913
  292MOL0     O38413   7.364   1.610   8.882 -0.2279 -0.0489  0.1919
  292MOL0     C38414   7.423   1.625   8.990  0.5264 -1.6273  0.0107
  292MOL0     O38415   7.358   1.644   9.117 -0.5863 -0.6370 -0.2987
  292MOL0     C38416   7.222   1.633   9.133 -0.0071  0.3910 -1.1524
  292MOL0     C38417   7.141   1.530   9.071 -0.5412 -0.4234 -0.8807
  292MOL0     C38418   7.005   1.526   9.099  0.1196 -0.8018  0.0960
  292MOL0     C38419   6.940   1.635   9.169 -0.0535  0.8819  0.0334
  292MOL0     O38420   6.807   1.629   9.203 -0.5093  0.7786  0.0089
  292MOL0     C38421   6.729   1.515   9.180  0.0973  0.1261  0.1535
  292MOL0     C38422   6.584   1.553   9.199 -0.5335 -0.4104 -0.2849
  292MOL0     C38423   6.488   1.438   9.221 -0.0831 -0.4941 -0.2726
  292MOL0     C38424   6.338   1.488   9.233 -0.9061 -0.3925  0.0005
  292MOL0     C38425   6.249   1.379   9.290 -0.5021 -0.7582 -0.7462
  292MOL0     C38426   6.188   1.290   9.186  0.3335  0.4653 -0.2846
  292MOL0     C38427   6.090   1.196   9.252 -0.1893  0.3427 -0.2027
  292MOL0     C38428   5.949   1.236   9.227 -0.0324  0.6220 -0.9008
  292MOL0     N38429   5.883   1.204   9.105  0.2649 -0.2240  1.3170
  292MOL0     C38430   5.873   1.300   9.006 -0.6924  0.9095  0.3287
  292MOL0     C38431   5.803   1.237   8.905 -0.1653 -0.9739  0.7476
  292MOL0     C38432   5.757   1.315   8.787 -1.0503 -0.1071  0.2528
  292MOL0     C38433   5.618   1.363   8.782  0.0173  0.5089 -0.1991
  292MOL0     C38434   5.524   1.242   8.789 -0.5230  0.7757  0.6811
  292MOL0     C38435   5.377   1.293   8.797 -0.2989  0.9409 -0.2938
  292MOL0     O38436   5.308   1.175   8.839  0.2342 -0.2615 -0.1072
  292MOL0     C38437   5.166   1.188   8.827 -0.3334  0.0056  0.0564
  292MOL0     C38438   5.083   1.302   8.816 -0.1017  0.7058  0.6131
  292MOL0     C38439   4.945   1.288   8.784 -0.1255 -0.4090 -0.5040
  292MOL0     C38440   4.879   1.174   8.802 -0.3341 -0.0402  0.0443
  292MOL0     C38441   4.735   1.174   8.782  0.6010 -0.4933  0.1809
  292MOL0     O38442   4.674   1.056   8.784 -0.6325  0.2248  0.0129
  292MOL0     C38443   4.536   1.044   8.797  0.8392 -0.0847  0.6028
  292MOL0     C38444   4.469   0.935   8.731  0.1744 -0.5134 -0.2359
  292MOL0     C38445   4.331   0.922   8.752 -0.9205  0.8683  0.1419
  292MOL0     C38446   4.265   0.996   8.846 -0.1865 -0.1572  0.2568
  292MOL0     O38447   4.129   0.986   8.868 -0.1550  0.5439  0.3031
  292MOL0     C38448   4.043   0.887   8.808 -0.3745  0.2498  0.0972
  292MOL0     C38449   3.889   0.924   8.822  0.1136  0.3602 -0.2563
  292MOL0     C38450   3.831   1.035   8.730  0.6910  0.2722 -0.3651
  292MOL0     C38451   3.682   1.027   8.712 -0.1196 -0.2684 -0.6930
  292MOL0     C38452   3.616   1.132   8.622 -0.6268 -0.1492 -0.4234
  292MOL0     C38453   3.633   1.262   8.698  0.4287  0.5368 -0.8117
  292MOL0     C38454   3.560   1.370   8.623  0.9167  0.1603 -0.0560
  292MOL0     C38455   3.619   1.505   8.672 -1.1697 -0.7471 -0.2252
  292MOL0    Cl38456   3.514   1.627   8.598 -0.3457 -0.2316  0.6271
  292MOL0     C38457   4.332   1.099   8.922 -0.1926  0.1329  0.3727
  292MOL0     C38458   4.465   1.124   8.894 -1.0391 -0.1780  0.4420
  292MOL0     O38459   4.682   1.277   8.739 -0.0935  0.4025 -0.2525
  292MOL0     C38460   4.958   1.061   8.831  1.1146  0.3405  0.6409
  292MOL0     C38461   5.092   1.074   8.849 -0.1196  0.4066 -0.3137
  292MOL0     N38462   5.780   1.107   8.943  0.4175 -0.0245  0.4775
  292MOL0     N38463   5.820   1.086   9.061 -0.3982  0.2334 -0.8060
  292MOL0     C38464   7.019   1.743   9.209  0.4154  0.3440 -0.7907
  292MOL0     C38465   7.156   1.736   9.201 -0.6923  0.5073  0.5876
  292MOL0     C38466   7.564   1.616   8.998 -1.0783  0.3894  1.0861
  292MOL0     C38467   7.656   1.600   8.891 -0.0237 -0.4484 -0.6252
  292MOL0     C38468   7.797   1.594   8.919 -0.1061 -0.4810 -0.3952
  292MOL0     C38469   7.849   1.592   9.053 -0.1211 -0.4417  0.8377
  292MOL0     O38470   7.986   1.603   9.084  0.2306  0.0901 -0.3879
  292MOL0     C38471   8.084   1.647   8.992  0.6748 -0.5345  1.2119
  292MOL0     C38472   8.208   1.685   9.071 -0.1878 -0.6805 -0.4931
  292MOL0     C38473   8.174   1.761   9.202 -0.2180 -0.1610 -0.1082
  292MOL0     C38474   8.132   1.906   9.188  0.8105  0.1180  0.2392
  292MOL0     C38475   8.115   1.976   9.306 -0.2470 -0.3803 -0.4408
  292MOL0     C38476   8.097   2.049   9.397 -0.1619 -0.1758 -0.2404
  292MOL0     C38477   7.763   1.610   9.164 -0.0430  0.1733 -1.2396
  292MOL0     C38478   7.626   1.625   9.132  0.6014  0.4551  0.7995
  292MOL0     H38479   7.185   1.452   9.010 -2.3870  0.4549 -3.4724
  292MOL0     H38480   6.950   1.442   9.058  0.0016 -0.0596 -1.3395
  292MOL0     H38481   6.766   1.433   9.242 -0.5658 -1.4954 -1.4802
  292MOL0     H38482   6.723   1.480   9.076 -3.4963 -3.1145  1.1892
  292MOL0     H38483   6.552   1.605   9.108  1.5481 -2.6516 -2.4638
  292MOL0     H38484   6.592   1.613   9.290  3.4580 -2.2195  0.7873
  292MOL0     H38485   6.522   1.385   9.311 -2.1144  0.6892  1.2802
  292MOL0     H38486   6.492   1.367   9.139 -0.9113 -1.7957  0.7642
  292MOL0     H38487   6.339   1.577   9.297 -1.3793 -1.7965  2.0457
  292MOL0     H38488   6.312   1.508   9.128 -0.4946 -2.7894 -0.6205
  292MOL0     H38489   6.167   1.416   9.352 -1.4747 -1.8008 -1.3729
  292MOL0     H38490   6.312   1.323   9.360 -1.6202  0.6642  1.4917
  292MOL0     H38491   6.267   1.229   9.143 -1.5972 -1.1613 -1.6804
  292MOL0     H38492   6.134   1.339   9.104  0.3421  0.2730 -0.4029
  292MOL0     H38493   6.098   1.097   9.206 -0.4635  0.3354 -0.2355
  292MOL0     H38494   6.098   1.190   9.361 -2.8408  0.5706  0.0562
  292MOL0     H38495   5.936   1.341   9.252  0.7710  0.5951 -0.3133
  292MOL0     H38496   5.884   1.196   9.305  1.6734 -1.2724 -0.3457
  292MOL0     H38497   5.923   1.396   8.993  1.6149 -0.5125 -2.3520
  292MOL0     H38498   5.773   1.257   8.695 -1.2596 -0.7108  0.5943
  292MOL0     H38499   5.817   1.404   8.767 -0.7010 -0.8328 -2.2910
  292MOL0     H38500   5.603   1.428   8.696  0.9691  0.8995 -0.0758
  292MOL0     H38501   5.595   1.416   8.875 -0.4822  2.7621 -1.5356
  292MOL0     H38502   5.534   1.176   8.702  0.1364 -0.5139  1.6947
  292MOL0     H38503   5.529   1.185   8.882 -1.0441  1.0146  0.8598
  292MOL0     H38504   5.335   1.321   8.700 -1.0346  0.4691 -0.1220
  292MOL0     H38505   5.362   1.379   8.863 -0.9734 -1.0410  2.3153
  292MOL0     H38506   5.141   1.394   8.815  0.3794  0.4225  1.1865
  292MOL0     H38507   4.901   1.379   8.745  1.4917  0.3074 -0.7465
  292MOL0     H38508   4.531   0.868   8.674 -2.5575 -1.5064 -2.2779
  292MOL0     H38509   4.290   0.827   8.718  2.4339 -1.1246  1.2609
  292MOL0     H38510   4.063   0.787   8.848 -0.9450 -0.1102 -0.4879
  292MOL0     H38511   4.058   0.876   8.700 -1.2845  1.2457 -0.1456
  292MOL0     H38512   3.868   0.961   8.923 -0.4179 -2.2020  0.6367
  292MOL0     H38513   3.839   0.828   8.804  0.5796 -0.3143  1.8397
  292MOL0     H38514   3.886   1.046   8.636  2.6455 -3.4514  0.1578
  292MOL0     H38515   3.867   1.119   8.790  0.4907 -0.6118  1.0344
  292MOL0     H38516   3.669   0.925   8.676  2.5221 -0.5318 -1.0799
  292MOL0     H38517   3.633   1.033   8.810  0.8946 -2.6085  0.0273
  292MOL0     H38518   3.510   1.115   8.599 -0.8038  0.9772 -0.4846
  292MOL0     H38519   3.672   1.127   8.528 -3.1477 -0.0370 -2.0268
  292MOL0     H38520   3.739   1.289   8.710 -0.2895  2.3711  3.5638
  292MOL0     H38521   3.584   1.255   8.796  1.7068 -2.3940 -0.2877
  292MOL0     H38522   3.570   1.353   8.516 -1.2209 -2.1517  0.0267
  292MOL0     H38523   3.455   1.365   8.651  1.5798  0.7303  2.8713
  292MOL0     H38524   3.723   1.513   8.642 -0.0795  0.2871  3.3697
  292MOL0     H38525   3.617   1.520   8.780 -0.0116  2.4844 -0.5529
  292MOL0     H38526   4.286   1.156   9.002  2.5096  0.3587  1.9165
  292MOL0     H38527   4.516   1.187   8.965 -1.9532  1.6590 -0.4597
  292MOL0     H38528   4.908   0.965   8.827 -1.5253  1.6308 -3.6730
  292MOL0     H38529   5.161   0.993   8.872 -1.4375 -0.4941  0.6346
  292MOL0     H38530   6.970   1.824   9.262  1.1005 -0.6088  1.3902
  292MOL0     H38531   7.221   1.812   9.244 -0.7383  0.5621  0.5604
  292MOL0     H38532   7.624   1.586   8.788 -3.9181  1.0593  0.2460
  292MOL0     H38533   7.874   1.593   8.843  0.2428  2.0751 -0.1780
  292MOL0     H38534   8.048   1.740   8.947  1.7689 -0.6951 -0.0729
  292MOL0     H38535   8.104   1.578   8.909 -1.9899  0.5674 -0.4759
  292MOL0     H38536   8.259   1.590   9.087 -0.1063 -0.6580 -0.6149
  292MOL0     H38537   8.272   1.748   9.009  2.3081 -1.6158  1.0084
  292MOL0     H38538   8.268   1.762   9.259 -1.4947  0.2112  2.1000
  292MOL0     H38539   8.106   1.696   9.258 -0.6608  0.0136 -0.4389
  292MOL0     H38540   8.213   1.958   9.135 -0.5987 -0.6040 -2.8353
  292MOL0     H38541   8.038   1.914   9.132  0.3845 -1.4493  0.6699
  292MOL0     H38542   8.079   2.112   9.482 -1.1040  0.3933 -0.8472
  292MOL0     H38543   7.812   1.604   9.261 -2.6391  1.3856  0.2466
  292MOL0     H38544   7.567   1.648   9.221 -1.0344  2.2971 -0.6579
  293MOL0     O38545   4.029   6.821   7.949 -0.5671  0.1816 -0.1111
  293MOL0     C38546   4.041   6.707   7.891  0.2399  0.2902 -0.5889
  293MOL0     O38547   4.160   6.644   7.857  0.4488  0.2428  0.6726
  293MOL0     C38548   4.271   6.689   7.919  0.2317  0.8345  0.1748
  293MOL0     C38549   4.293   6.698   8.055 -0.8924  0.2677  0.6968
  293MOL0     C38550   4.410   6.743   8.116  0.0727 -0.2213 -0.7522
  293MOL0     C38551   4.503   6.800   8.032  0.2026 -0.3677  0.4826
  293MOL0     O38552   4.616   6.848   8.096  0.3233  0.2080  0.1289
  293MOL0     C38553   4.667   6.979   8.054 -0.4704 -0.0168 -0.5466
  293MOL0     C38554   4.591   7.087   8.126 -0.3744 -1.1320  0.5005
  293MOL0     C38555   4.434   7.088   8.119 -0.3734 -0.1838 -0.1938
  293MOL0     C38556   4.373   7.209   8.188 -0.4180 -0.8021 -0.3904
  293MOL0     C38557   4.219   7.227   8.186  0.1954  0.5198 -0.0916
  293MOL0     C38558   4.154   7.203   8.039 -0.7208 -0.0927 -0.4601
  293MOL0     C38559   4.009   7.244   8.028 -0.1925  0.6308  0.2490
  293MOL0     C38560   3.915   7.154   8.121 -0.2313  0.1525 -0.5821
  293MOL0     N38561   3.773   7.187   8.120  0.4738 -0.4840 -0.1508
  293MOL0     C38562   3.687   7.175   8.022  0.1127 -0.9929 -0.3402
  293MOL0     C38563   3.569   7.217   8.079  0.5708 -0.4472 -0.8129
  293MOL0     C38564   3.433   7.200   8.011 -0.4814 -0.1342 -0.7031
  293MOL0     C38565   3.373   7.064   8.043 -0.1748 -0.0256 -0.1282
  293MOL0     C38566   3.314   7.046   8.190  0.0218 -0.6308  0.8002
  293MOL0     C38567   3.229   6.927   8.201  0.2003  0.2538  0.6426
  293MOL0     O38568   3.288   6.803   8.147  0.8721  0.5070 -0.7911
  293MOL0     C38569   3.194   6.704   8.128 -0.7913  0.0282 -0.1284
  293MOL0     C38570   3.244   6.590   8.062 -1.5967  0.1626  0.5659
  293MOL0     C38571   3.158   6.479   8.044  0.7389  0.6584  0.0125
  293MOL0     C38572   3.015   6.498   8.082 -0.4019  0.7113  0.6082
  293MOL0     C38573   2.926   6.387   8.059 -0.4258  1.0356 -0.2821
  293MOL0     O38574   2.980   6.278   7.999  0.0499  0.6363 -0.3478
  293MOL0     C38575   2.904   6.164   7.985 -0.4367  0.3113  1.1442
  293MOL0     C38576   2.873   6.085   8.091  0.5115  0.0672 -0.6487
  293MOL0     C38577   2.809   5.966   8.077 -0.3730  0.2650  0.3248
  293MOL0     C38578   2.770   5.917   7.950 -0.4378 -0.5761 -0.4895
  293MOL0     O38579   2.711   5.798   7.947 -0.4264  0.2173 -0.0366
  293MOL0     C38580   2.656   5.739   7.826 -0.1028  0.7824 -1.1218
  293MOL0     C38581   2.571   5.617   7.865 -0.2613  0.6495  0.7308
  293MOL0     C38582   2.471   5.576   7.742 -0.6653 -0.0285  0.6586
  293MOL0     C38583   2.366   5.464   7.783 -0.2199 -0.0708 -0.5647
  293MOL0     C38584   2.305   5.405   7.657 -1.2071 -0.0744 -1.1939
  293MOL0     C38585   2.155   5.385   7.664  0.4302  0.5989 -0.4782
  293MOL0     C38586   2.088   5.518   7.647  0.0908 -0.4091  0.1732
  293MOL0     C38587   1.973   5.517   7.745 -0.1525  0.3574 -0.5132
  293MOL0    Cl38588   1.898   5.673   7.702 -0.0227 -0.1860  0.0874
  293MOL0     C38589   2.804   5.996   7.838 -0.4349  0.2546 -0.2759
  293MOL0     C38590   2.878   6.111   7.855  1.4631 -0.3270  0.5506
  293MOL0     O38591   2.807   6.405   8.078 -0.3320  0.0135  0.0485
  293MOL0     C38592   2.967   6.611   8.141 -0.3762  1.0321 -0.8280
  293MOL0     C38593   3.060   6.712   8.163 -0.3008 -0.6153 -0.0933
  293MOL0     N38594   3.589   7.256   8.209 -0.0434  0.3550  0.8355
  293MOL0     N38595   3.716   7.250   8.231 -0.0861  0.0373 -0.2628
  293MOL0     C38596   4.495   6.793   7.891 -0.3148  0.3182  0.0829
  293MOL0     C38597   4.385   6.729   7.841  0.3594 -0.3113  0.3123
  293MOL0     C38598   3.910   6.655   7.833 -0.0846  0.3284 -0.0911
  293MOL0     C38599   3.904   6.584   7.714 -0.2073 -0.5622  0.3179
  293MOL0     C38600   3.777   6.524   7.678 -0.0360 -0.6248  0.1387
  293MOL0     C38601   3.656   6.559   7.740  1.5229 -0.8515 -0.6905
  293MOL0     O38602   3.527   6.516   7.699 -0.0638  0.1549 -0.0807
  293MOL0     C38603   3.490   6.521   7.562 -0.1389  0.4870 -0.5546
  293MOL0     C38604   3.336   6.502   7.553 -0.4221 -0.1861  0.3450
  293MOL0     C38605   3.303   6.372   7.618  0.7948  0.0940 -0.2577
  293MOL0     C38606   3.151   6.347   7.597 -0.1304  0.1644  0.6429
  293MOL0     C38607   3.052   6.446   7.649  0.4134  0.3943  0.3407
  293MOL0     C38608   2.982   6.530   7.692  0.0920 -0.2713 -0.3104
  293MOL0     C38609   3.668   6.625   7.859 -0.3456 -0.0142 -0.0798
  293MOL0     C38610   3.790   6.669   7.912  0.4369  0.2379  0.7841
  293MOL0     H38611   4.218   6.654   8.120 -1.1284 -2.7721 -1.4528
  293MOL0     H38612   4.420   6.749   8.224  2.3679  2.2885 -1.0026
  293MOL0     H38613   4.664   6.995   7.946  1.5277  1.5634 -0.4358
  293MOL0     H38614   4.773   6.975   8.082 -0.6240 -1.5037 -0.0836
  293MOL0     H38615   4.630   7.185   8.095 -0.8428 -1.3276 -0.7608
  293MOL0     H38616   4.622   7.076   8.231  2.5084 -2.0563 -0.3383
  293MOL0     H38617   4.390   7.001   8.168  2.0786  0.0612  2.7710
  293MOL0     H38618   4.400   7.090   8.015 -0.2582 -0.4634 -0.2395
  293MOL0     H38619   4.408   7.209   8.292 -0.1426 -0.4628 -0.4823
  293MOL0     H38620   4.410   7.297   8.135 -0.8683  0.2741  1.0234
  293MOL0     H38621   4.191   7.324   8.228  2.7060  1.7913 -1.1189
  293MOL0     H38622   4.179   7.143   8.243 -0.6975 -0.5618 -2.1750
  293MOL0     H38623   4.172   7.098   8.014  3.4677  0.7424 -1.6174
  293MOL0     H38624   4.209   7.256   7.961 -3.3442  0.9322 -1.7506
  293MOL0     H38625   3.991   7.348   8.056 -1.7120  0.5369 -0.2842
  293MOL0     H38626   3.986   7.229   7.922  0.2607  0.2003  0.2100
  293MOL0     H38627   3.948   7.160   8.226  0.6335 -1.8285 -0.6968
  293MOL0     H38628   3.931   7.050   8.090 -0.5375 -0.3938  0.9653
  293MOL0     H38629   3.697   7.135   7.922  2.0989  0.6394 -0.8749
  293MOL0     H38630   3.448   7.197   7.902 -0.3100  1.0435 -0.7250
  293MOL0     H38631   3.364   7.280   8.039  0.8124  0.5563  0.6298
  293MOL0     H38632   3.452   6.989   8.033 -1.2785 -0.9926 -2.1872
  293MOL0     H38633   3.293   7.040   7.973  1.5167  0.5689 -2.3602
  293MOL0     H38634   3.400   7.033   8.257  0.7941  0.5856  0.0843
  293MOL0     H38635   3.254   7.131   8.223  1.6945  1.6062 -1.5027
  293MOL0     H38636   3.140   6.964   8.150  0.8390  1.8300  0.6043
  293MOL0     H38637   3.198   6.921   8.305 -2.3419  0.5433 -0.0365
  293MOL0     H38638   3.347   6.577   8.032 -1.2240  1.4824  1.2455
  293MOL0     H38639   3.202   6.387   8.008 -1.8175 -1.6521  2.2970
  293MOL0     H38640   2.910   6.115   8.189  2.1421 -0.2026 -1.1470
  293MOL0     H38641   2.790   5.899   8.160 -0.9432 -0.6517 -0.5370
  293MOL0     H38642   2.732   5.716   7.751 -0.4327 -3.1784 -0.4453
  293MOL0     H38643   2.584   5.814   7.792 -3.3060 -0.7479  1.7165
  293MOL0     H38644   2.520   5.639   7.959 -3.0130  0.4492 -0.6279
  293MOL0     H38645   2.633   5.529   7.887 -1.0744 -0.4732 -1.2098
  293MOL0     H38646   2.540   5.549   7.662  3.7966  2.0394  3.4528
  293MOL0     H38647   2.421   5.669   7.715 -0.8592  0.2887  2.0593
  293MOL0     H38648   2.422   5.395   7.846 -1.5270 -0.9193 -0.2943
  293MOL0     H38649   2.291   5.513   7.846 -0.7131 -0.4300 -0.8717
  293MOL0     H38650   2.361   5.312   7.644 -1.8896 -0.6954  0.2074
  293MOL0     H38651   2.342   5.465   7.573  0.0338 -1.0619 -1.3848
  293MOL0     H38652   2.131   5.326   7.753 -1.3530 -0.8805 -1.8713
  293MOL0     H38653   2.130   5.316   7.583  0.5599  0.5004 -0.4354
  293MOL0     H38654   2.162   5.599   7.653  0.8439 -1.1028  0.4113
  293MOL0     H38655   2.044   5.520   7.547 -3.5105 -3.1147  1.4798
  293MOL0     H38656   2.007   5.522   7.849 -0.8728 -0.7174 -0.2186
  293MOL0     H38657   1.907   5.432   7.723 -0.5712  0.7246 -0.6954
  293MOL0     H38658   2.782   5.967   7.736 -0.4829  1.9598 -0.7808
  293MOL0     H38659   2.906   6.171   7.769  1.8944 -2.6442 -1.0210
  293MOL0     H38660   2.861   6.622   8.159 -1.0001 -0.7470 -3.0427
  293MOL0     H38661   3.009   6.805   8.187 -0.5915 -0.3445 -1.6664
  293MOL0     H38662   4.578   6.821   7.827 -1.9222 -1.5224 -3.0311
  293MOL0     H38663   4.383   6.732   7.732 -1.1000  1.4330  0.3438
  293MOL0     H38664   3.996   6.557   7.664  1.4874 -1.3708  3.5933
  293MOL0     H38665   3.777   6.450   7.599  2.3875 -2.5075  1.7481
  293MOL0     H38666   3.552   6.452   7.504  0.2488 -0.9857  1.4919
  293MOL0     H38667   3.504   6.624   7.528 -2.8538  1.0047 -0.3085
  293MOL0     H38668   3.285   6.582   7.608 -0.3069  0.8336 -0.9840
  293MOL0     H38669   3.302   6.509   7.450  0.7181  2.6214  0.0772
  293MOL0     H38670   3.321   6.369   7.725  1.6542 -1.9935 -0.4201
  293MOL0     H38671   3.353   6.288   7.569 -0.0584 -0.0075 -0.9888
  293MOL0     H38672   3.132   6.355   7.489 -1.3176 -2.7397  0.5314
  293MOL0     H38673   3.134   6.246   7.634  2.2298 -1.2419 -1.7748
  293MOL0     H38674   2.915   6.600   7.738 -0.3097  0.7881 -2.3731
  293MOL0     H38675   3.582   6.662   7.913 -1.1873  2.4558 -2.8426
  293MOL0     H38676   3.803   6.719   8.007  2.7910  2.2654 -0.5105
  294MOL0     O38677   3.639   7.189   6.441 -0.8868  0.1074  0.1630
  294MOL0     C38678   3.633   7.064   6.420  0.3269  0.0846 -0.4752
  294MOL0     O38679   3.689   6.975   6.502 -0.2234 -0.3247 -1.1071
  294MOL0     C38680   3.741   7.016   6.627  0.0247  0.6397  0.5699
  294MOL0     C38681   3.844   7.111   6.643 -0.3780 -0.6141  0.7092
  294MOL0     C38682   3.898   7.145   6.765 -0.4361 -0.2822  0.0908
  294MOL0     C38683   3.847   7.093   6.879  0.3194 -0.0753 -0.1099
  294MOL0     O38684   3.874   7.125   7.007  0.8142 -1.0901  0.1054
  294MOL0     C38685   3.988   7.209   7.034  0.3717  0.4433 -0.3791
  294MOL0     C38686   4.016   7.177   7.182 -0.0780  0.0625  1.1851
  294MOL0     C38687   4.102   7.272   7.256 -0.9922 -0.2724 -0.4186
  294MOL0     C38688   4.258   7.272   7.216  0.2910 -0.0031  0.1748
  294MOL0     C38689   4.316   7.392   7.297  0.4054  1.1953  0.5970
  294MOL0     C38690   4.470   7.421   7.265  0.1120  0.2355 -0.1512
  294MOL0     C38691   4.543   7.292   7.225 -0.4881 -0.0484 -0.2130
  294MOL0     C38692   4.698   7.320   7.224 -0.6733 -0.0563 -0.1551
  294MOL0     N38693   4.785   7.222   7.152  0.2710  0.1048 -0.1536
  294MOL0     C38694   4.808   7.096   7.185  0.1185  0.5479 -0.3696
  294MOL0     C38695   4.902   7.041   7.100  0.5990  0.5845 -0.2907
  294MOL0     C38696   4.965   6.917   7.097 -0.7132 -0.4136  0.0208
  294MOL0     C38697   4.868   6.800   7.066 -1.3765 -0.4462  0.8606
  294MOL0     C38698   4.947   6.671   7.044  0.1355 -0.7411  0.5564
  294MOL0     C38699   4.854   6.557   7.050  0.2990  0.1566 -0.0799
  294MOL0     O38700   4.761   6.558   6.939 -0.4513 -0.1080 -0.5073
  294MOL0     C38701   4.633   6.522   6.982 -1.4764  0.0523 -0.4589
  294MOL0     C38702   4.526   6.617   6.997 -0.7254  0.6985 -0.2330
  294MOL0     C38703   4.394   6.568   7.009  1.0722  0.8422 -0.0747
  294MOL0     C38704   4.367   6.430   7.004  0.2587 -0.2241 -0.3282
  294MOL0     C38705   4.232   6.386   6.998 -1.1350  0.1455 -0.2029
  294MOL0     O38706   4.218   6.246   6.979  0.0640  0.6066 -0.5095
  294MOL0     C38707   4.101   6.175   6.973 -0.2032  0.9436  0.4002
  294MOL0     C38708   4.119   6.039   6.950 -0.3790 -0.9055  0.5258
  294MOL0     C38709   4.006   5.957   6.925 -0.5299  0.5168  0.4263
  294MOL0     C38710   3.873   6.008   6.937 -0.1900  0.5988 -0.5900
  294MOL0     O38711   3.766   5.921   6.918  0.3219 -0.7704  0.1019
  294MOL0     C38712   3.637   5.951   6.990 -1.0327 -0.6494  0.2087
  294MOL0     C38713   3.551   5.832   6.984 -0.6630 -0.6189  0.3148
  294MOL0     C38714   3.465   5.808   6.859 -0.2142  0.2351  0.4180
  294MOL0     C38715   3.395   5.669   6.895 -0.3885 -0.4897  0.5308
  294MOL0     C38716   3.253   5.702   6.957  0.5248 -0.5434 -0.1422
  294MOL0     C38717   3.163   5.577   6.980 -0.3726 -1.4357 -0.1587
  294MOL0     C38718   3.032   5.618   7.043  0.5934  0.3778  0.4973
  294MOL0     C38719   2.926   5.504   7.027 -0.7654  0.0085  1.0695
  294MOL0    Cl38720   2.978   5.365   7.132  0.1362 -0.3593  0.1937
  294MOL0     C38721   3.866   6.141   6.979  1.2393  0.4137 -0.5747
  294MOL0     C38722   3.977   6.225   6.990 -0.3508  0.3328  0.6517
  294MOL0     O38723   4.145   6.468   7.022 -0.0548  0.1772 -0.0189
  294MOL0     C38724   4.476   6.340   6.993 -0.3592  0.2771  0.2133
  294MOL0     C38725   4.608   6.389   6.992  0.2164 -0.6108  0.2377
  294MOL0     N38726   4.939   7.150   7.013 -0.4448 -0.3933 -1.1320
  294MOL0     N38727   4.873   7.253   7.054 -0.3669 -0.4239 -0.2540
  294MOL0     C38728   3.736   6.998   6.869 -0.5170  0.2309  0.1094
  294MOL0     C38729   3.686   6.967   6.742 -0.4868  0.5572 -0.2116
  294MOL0     C38730   3.545   7.013   6.310  0.2903 -0.4442  0.8659
  294MOL0     C38731   3.579   6.902   6.226  0.3111 -0.6801 -0.7005
  294MOL0     C38732   3.492   6.859   6.126  0.5409  0.3043 -0.0104
  294MOL0     C38733   3.361   6.919   6.115  0.3499  0.3777  0.3493
  294MOL0     O38734   3.280   6.871   6.015  0.4772 -0.4475 -0.3509
  294MOL0     C38735   3.145   6.838   6.062  0.5244 -0.7994  0.7233
  294MOL0     C38736   3.094   6.717   5.980  0.4601 -0.0401  0.0503
  294MOL0     C38737   2.944   6.690   5.987 -0.8351 -0.4601 -0.2045
  294MOL0     C38738   2.906   6.544   5.944 -0.5844 -0.2291  0.0714
  294MOL0     C38739   2.765   6.521   5.932 -0.3464 -0.1741 -0.6298
  294MOL0     C38740   2.654   6.477   5.902 -0.2870  0.6655 -0.3887
  294MOL0     C38741   3.327   7.031   6.195 -0.6053  0.2846 -0.2709
  294MOL0     C38742   3.421   7.080   6.288 -0.1186  0.4316  0.2093
  294MOL0     H38743   3.895   7.154   6.557  3.2775 -1.6317  2.1957
  294MOL0     H38744   3.972   7.225   6.765  0.3989 -1.0327  0.9802
  294MOL0     H38745   3.973   7.317   7.021  0.7044  0.4822 -0.4693
  294MOL0     H38746   4.079   7.183   6.978  0.8330  0.6720  0.2550
  294MOL0     H38747   4.059   7.076   7.180  1.5956  0.7476 -1.5659
  294MOL0     H38748   3.915   7.185   7.223 -1.5897  0.5480 -2.3014
  294MOL0     H38749   4.104   7.255   7.365  0.4442  0.8446 -0.2463
  294MOL0     H38750   4.068   7.376   7.257 -2.1551 -0.6199  1.3458
  294MOL0     H38751   4.304   7.175   7.234 -2.4269 -1.4539 -0.2676
  294MOL0     H38752   4.263   7.303   7.111  0.7815  1.6411  0.6471
  294MOL0     H38753   4.297   7.382   7.405 -1.3905  1.9242  0.3821
  294MOL0     H38754   4.264   7.486   7.277  0.8465  1.3174  0.0233
  294MOL0     H38755   4.524   7.470   7.346  2.2908  0.2908 -1.5351
  294MOL0     H38756   4.469   7.485   7.176 -3.2421 -0.1066 -0.4923
  294MOL0     H38757   4.514   7.214   7.296 -1.5615 -1.3003 -1.9598
  294MOL0     H38758   4.509   7.255   7.128 -0.5964 -1.7693  0.4512
  294MOL0     H38759   4.741   7.329   7.325 -1.0682 -1.6025  0.1735
  294MOL0     H38760   4.710   7.417   7.175  2.2434 -0.5526 -0.5991
  294MOL0     H38761   4.767   7.032   7.263  0.5030 -1.8857 -2.0293
  294MOL0     H38762   5.005   6.902   7.198 -1.5653 -1.8236  0.1758
  294MOL0     H38763   5.049   6.926   7.027 -2.4583  3.6432 -1.8872
  294MOL0     H38764   4.808   6.821   6.977 -1.5508  0.4077  1.1686
  294MOL0     H38765   4.805   6.795   7.156 -2.1178  0.2695  0.4023
  294MOL0     H38766   5.006   6.673   6.952 -1.1993  0.2721 -0.3268
  294MOL0     H38767   5.017   6.660   7.127  1.4307  1.2803 -0.1834
  294MOL0     H38768   4.808   6.556   7.149  2.0699 -1.3046  0.7868
  294MOL0     H38769   4.914   6.466   7.037 -1.4646 -0.6952 -3.1883
  294MOL0     H38770   4.550   6.723   6.994  2.5817  0.0714  0.0666
  294MOL0     H38771   4.308   6.632   7.024  1.6586  1.5539  0.2921
  294MOL0     H38772   4.213   5.985   6.951 -1.5054 -2.9640 -0.4155
  294MOL0     H38773   4.032   5.855   6.900  1.3882  1.4823 -1.9156
  294MOL0     H38774   3.582   6.037   6.950  0.7918 -0.0014 -1.0494
  294MOL0     H38775   3.660   5.973   7.094  2.1817  0.5282 -0.6265
  294MOL0     H38776   3.483   5.841   7.069 -1.9732 -2.3770 -0.4910
  294MOL0     H38777   3.617   5.747   7.002 -1.2231 -1.0546  0.2963
  294MOL0     H38778   3.527   5.792   6.769 -2.5510 -1.4874 -0.9928
  294MOL0     H38779   3.400   5.892   6.834 -1.5514 -1.4551 -2.3275
  294MOL0     H38780   3.389   5.627   6.794  1.8117 -0.3733  0.3042
  294MOL0     H38781   3.454   5.613   6.967  2.2809 -1.0132 -1.8781
  294MOL0     H38782   3.202   5.764   6.883  1.7523 -3.4267 -3.7232
  294MOL0     H38783   3.263   5.759   7.049  2.0395 -1.0776  0.0690
  294MOL0     H38784   3.211   5.514   7.055  0.0136  1.3718  2.1510
  294MOL0     H38785   3.143   5.535   6.881 -2.3925 -0.8209 -0.0588
  294MOL0     H38786   3.039   5.648   7.148  2.2475 -1.3825  0.9501
  294MOL0     H38787   2.987   5.702   6.989 -2.2054 -1.5610 -0.4239
  294MOL0     H38788   2.910   5.462   6.928  0.3595 -0.1505  0.9420
  294MOL0     H38789   2.829   5.537   7.064 -1.3574 -2.7234  2.1781
  294MOL0     H38790   3.768   6.175   7.011 -0.1698 -2.3596 -1.6451
  294MOL0     H38791   3.964   6.331   7.009  0.0039  0.5540 -0.2935
  294MOL0     H38792   4.460   6.232   6.991 -2.8808  0.6010 -0.7754
  294MOL0     H38793   4.686   6.315   6.991  1.8200  1.0196 -0.4088
  294MOL0     H38794   3.677   6.966   6.954  1.4596 -2.9582  0.4292
  294MOL0     H38795   3.610   6.891   6.728 -1.0251  1.4909 -3.3221
  294MOL0     H38796   3.657   6.830   6.251 -2.1559 -2.7185  1.8030
  294MOL0     H38797   3.510   6.772   6.062  0.7681  1.2594 -1.2871
  294MOL0     H38798   3.082   6.927   6.049  1.2238 -0.1893  1.4340
  294MOL0     H38799   3.139   6.812   6.168 -2.0037 -1.3895  0.5048
  294MOL0     H38800   3.122   6.735   5.876 -0.1517  0.4379 -0.0380
  294MOL0     H38801   3.147   6.624   6.003  0.8478 -0.0527 -0.8587
  294MOL0     H38802   2.889   6.758   5.922 -4.2293 -1.3795  1.4990
  294MOL0     H38803   2.914   6.713   6.089 -1.5254 -0.6250 -0.3714
  294MOL0     H38804   2.946   6.508   5.848  0.5153 -2.8601  1.4067
  294MOL0     H38805   2.955   6.483   6.021  1.8377  0.3523 -0.9196
  294MOL0     H38806   2.565   6.428   5.868 -0.9615  2.9252 -2.0862
  294MOL0     H38807   3.234   7.082   6.174  0.0072  2.6161  2.2068
  294MOL0     H38808   3.384   7.164   6.345 -3.6868  0.2191 -1.4659
  295MOL0     O38809   9.367  10.923   6.680  0.1529 -0.7024 -0.5579
  295MOL0     C38810   9.406  11.013   6.756 -0.0461  0.2785 -0.1846
  295MOL0     O38811   9.350  11.060   6.868 -0.1524  0.1823  0.2122
  295MOL0     C38812   9.242  10.995   6.919 -0.8171  0.3144 -0.6338
  295MOL0     C38813   9.253  10.863   6.967 -0.2292  0.3991  0.2203
  295MOL0     C38814   9.147  10.804   7.036 -0.1965 -0.1141  0.0271
  295MOL0     C38815   9.034  10.878   7.058  0.0786 -0.1692  0.4894
  295MOL0     O38816   8.950  10.815   7.147  0.0135 -0.0836 -0.7710
  295MOL0     C38817   8.839  10.888   7.208  0.3918 -0.0354 -0.2906
  295MOL0     C38818   8.739  10.805   7.292  0.3177 -0.1299 -0.4395
  295MOL0     C38819   8.639  10.891   7.367 -0.6457  0.0583 -0.0587
  295MOL0     C38820   8.533  10.803   7.445  0.1112  0.3640  0.2926
  295MOL0     C38821   8.461  10.878   7.553  0.6541  0.6135 -0.4536
  295MOL0     C38822   8.356  10.800   7.631 -0.3192  0.6081 -0.4841
  295MOL0     C38823   8.248  10.888   7.713  0.0703  0.2387 -0.3925
  295MOL0     C38824   8.110  10.870   7.652  0.2932  0.0856 -0.1948
  295MOL0     N38825   8.024  10.796   7.746  0.4821 -0.4632  0.4089
  295MOL0     C38826   7.945  10.866   7.830  0.2318  0.9158 -0.0438
  295MOL0     C38827   7.845  10.780   7.866 -0.2618  0.3040  0.0375
  295MOL0     C38828   7.731  10.813   7.955  0.9289 -0.3751  0.2228
  295MOL0     C38829   7.598  10.846   7.876 -0.0725 -0.0217 -0.2398
  295MOL0     C38830   7.480  10.746   7.900 -0.0959 -0.1457 -0.0906
  295MOL0     C38831   7.435  10.764   8.052 -0.0147 -0.3896  0.2288
  295MOL0     O38832   7.340  10.660   8.071 -0.0532 -0.7187 -0.2977
  295MOL0     C38833   7.217  10.711   8.092 -0.0678 -0.3078 -0.0225
  295MOL0     C38834   7.156  10.733   8.217 -0.3132  1.0597 -0.0620
  295MOL0     C38835   7.024  10.784   8.233  0.1315 -0.0109 -0.7239
  295MOL0     C38836   6.953  10.835   8.118  1.4030 -0.0161  1.5891
  295MOL0     C38837   6.817  10.887   8.107  1.1636  0.2047 -0.8719
  295MOL0     O38838   6.744  10.852   8.218 -0.1865 -1.1452  1.1882
  295MOL0     C38839   6.611  10.892   8.233  0.5859 -0.3715  0.0672
  295MOL0     C38840   6.508  10.799   8.259  0.9294  0.0241  0.8595
  295MOL0     C38841   6.373  10.826   8.283 -0.0976 -0.7123 -0.6800
  295MOL0     C38842   6.346  10.967   8.283 -0.7146  0.8099  1.2758
  295MOL0     O38843   6.218  11.000   8.315 -0.1085 -0.4533  0.2691
  295MOL0     C38844   6.152  11.096   8.242 -0.2493 -0.0104  1.1057
  295MOL0     C38845   6.013  11.128   8.296  0.2439 -0.4606 -0.1830
  295MOL0     C38846   6.019  11.185   8.438 -0.4647  0.2579  0.1701
  295MOL0     C38847   5.880  11.239   8.485  0.4231  0.1284  0.3451
  295MOL0     C38848   5.787  11.115   8.518 -0.9096 -0.4490 -0.6887
  295MOL0     C38849   5.649  11.158   8.587 -0.2666  0.0191 -0.2690
  295MOL0     C38850   5.569  11.023   8.591 -0.2318  0.1650 -0.2399
  295MOL0     C38851   5.438  11.041   8.668  0.2989 -0.0928  0.2428
  295MOL0    Cl38852   5.384  10.876   8.728 -0.1211  0.0911 -0.8104
  295MOL0     C38853   6.445  11.062   8.267  0.3063 -0.4289 -0.5132
  295MOL0     C38854   6.577  11.028   8.247 -1.1663 -0.2396 -0.3426
  295MOL0     O38855   6.772  10.952   8.012  0.9800  0.8198 -0.0260
  295MOL0     C38856   7.017  10.819   7.997  0.0548  0.0237  0.2324
  295MOL0     C38857   7.145  10.756   7.986  0.5643  0.7673 -1.0265
  295MOL0     N38858   7.874  10.655   7.805 -0.5284  0.0827  0.6143
  295MOL0     N38859   7.986  10.669   7.737  0.0426  0.0441  0.2776
  295MOL0     C38860   9.015  11.000   6.997 -0.1388 -0.4900 -1.2224
  295MOL0     C38861   9.121  11.059   6.936 -0.6584  0.0635 -0.8498
  295MOL0     C38862   9.540  11.073   6.712  1.2608 -0.5122  0.1960
  295MOL0     C38863   9.610  11.031   6.601 -0.0592 -0.3055 -0.5241
  295MOL0     C38864   9.740  11.075   6.587  0.1170 -0.7825 -0.2768
  295MOL0     C38865   9.801  11.167   6.669 -0.4139  0.2034 -0.7879
  295MOL0     O38866   9.935  11.200   6.651  0.9652 -0.7808  0.8769
  295MOL0     C38867   9.956  11.330   6.598 -0.3153 -0.3627 -1.1368
  295MOL0     C38868  10.052  11.314   6.480 -0.9778 -0.2850  0.0476
  295MOL0     C38869  10.057  11.456   6.397  0.0668 -0.4703  0.1119
  295MOL0     C38870  10.187  11.456   6.316  0.3223 -0.4073 -0.8234
  295MOL0     C38871  10.154  11.454   6.181  0.8585 -0.2955  0.3928
  295MOL0     C38872  10.107  11.446   6.074 -0.9691 -0.7481  0.1845
  295MOL0     C38873   9.735  11.219   6.780 -0.2376 -0.4912 -0.3971
  295MOL0     C38874   9.602  11.174   6.798  0.1789 -0.5808 -0.4059
  295MOL0     H38875   9.347  10.808   6.965  1.0586  2.4748 -2.5700
  295MOL0     H38876   9.161  10.704   7.077 -0.6426 -1.0048 -1.8992
  295MOL0     H38877   8.784  10.934   7.125  2.2646  1.0261 -0.9897
  295MOL0     H38878   8.884  10.966   7.269  0.8163  2.1424 -3.2093
  295MOL0     H38879   8.795  10.755   7.372  1.2373  1.2581 -0.1678
  295MOL0     H38880   8.683  10.734   7.231  0.3255 -1.8833  1.4684
  295MOL0     H38881   8.581  10.963   7.308 -0.5530  2.0785  2.1228
  295MOL0     H38882   8.698  10.949   7.438  0.9444  0.3860 -1.6005
  295MOL0     H38883   8.459  10.759   7.378  2.7789 -2.0183 -1.2821
  295MOL0     H38884   8.582  10.721   7.497 -0.3839 -2.3367 -3.1407
  295MOL0     H38885   8.408  10.962   7.506 -1.0134  0.6415  1.3383
  295MOL0     H38886   8.539  10.917   7.619  1.9164  0.0424 -1.5763
  295MOL0     H38887   8.409  10.739   7.705  1.4096  2.3364 -0.2145
  295MOL0     H38888   8.304  10.741   7.554 -0.4454 -0.0540  0.1011
  295MOL0     H38889   8.253  10.864   7.820  0.0759  2.6706  0.2158
  295MOL0     H38890   8.283  10.991   7.719 -1.7593  0.8282  1.1222
  295MOL0     H38891   8.108  10.816   7.557 -1.5235  0.4354 -0.3925
  295MOL0     H38892   8.064  10.966   7.627 -1.7741 -1.3013 -2.1547
  295MOL0     H38893   7.950  10.972   7.853  0.3077  0.6605  1.1936
  295MOL0     H38894   7.757  10.906   8.006  1.7271 -0.3322 -0.2473
  295MOL0     H38895   7.701  10.742   8.033 -0.7534 -1.0668 -0.9845
  295MOL0     H38896   7.621  10.854   7.769 -0.3856  2.4890 -0.1777
  295MOL0     H38897   7.567  10.945   7.910  0.7392 -0.1681  0.9939
  295MOL0     H38898   7.391  10.768   7.840  1.6250  1.2868 -2.3124
  295MOL0     H38899   7.516  10.644   7.883  1.5805 -0.0950  2.5439
  295MOL0     H38900   7.397  10.865   8.073 -0.1271 -1.0226  3.6772
  295MOL0     H38901   7.516  10.738   8.120  0.4010 -0.9256 -0.4609
  295MOL0     H38902   7.204  10.705   8.310 -0.6826 -0.0418 -0.1947
  295MOL0     H38903   6.987  10.791   8.335  0.8738  1.3970 -0.5180
  295MOL0     H38904   6.542  10.698   8.282  0.4842 -0.3088  0.0815
  295MOL0     H38905   6.299  10.747   8.295  0.7035 -1.9908 -3.3648
  295MOL0     H38906   6.140  11.071   8.136  5.2639  0.0228  0.1945
  295MOL0     H38907   6.217  11.184   8.239 -1.7961  1.1341 -0.5284
  295MOL0     H38908   5.953  11.040   8.274  0.6147 -0.2743 -2.1862
  295MOL0     H38909   5.970  11.216   8.246  1.5110  0.2663 -0.0416
  295MOL0     H38910   6.099  11.259   8.428 -0.8855  0.6747 -0.1526
  295MOL0     H38911   6.049  11.109   8.511  1.5603  3.5147  3.0734
  295MOL0     H38912   5.882  11.300   8.575  0.3715 -2.4096  2.1580
  295MOL0     H38913   5.822  11.291   8.408 -0.9557 -0.6847  0.7959
  295MOL0     H38914   5.858  11.051   8.572  2.5022  0.6213 -3.4873
  295MOL0     H38915   5.765  11.070   8.421 -0.8762 -0.4406 -0.7003
  295MOL0     H38916   5.608  11.226   8.511  0.6864  1.2836  0.3141
  295MOL0     H38917   5.644  11.206   8.685 -3.2393 -0.7150  0.0543
  295MOL0     H38918   5.562  10.993   8.486 -0.7168  0.1970 -0.2185
  295MOL0     H38919   5.614  10.943   8.652 -1.0334  0.5336  0.8580
  295MOL0     H38920   5.367  11.100   8.610  2.8198  5.3377  2.0082
  295MOL0     H38921   5.458  11.112   8.748  1.6636 -0.1360 -0.0230
  295MOL0     H38922   6.412  11.165   8.265 -0.8792 -0.7974 -1.7625
  295MOL0     H38923   6.656  11.102   8.241  1.1373 -2.3214  1.4852
  295MOL0     H38924   6.960  10.852   7.911 -1.6267  0.0013  1.3015
  295MOL0     H38925   7.179  10.744   7.884 -2.8475 -1.6049 -2.0798
  295MOL0     H38926   8.926  11.059   7.015  1.1033  0.4223  3.0065
  295MOL0     H38927   9.110  11.160   6.898  0.2900  0.8346  0.8070
  295MOL0     H38928   9.560  10.965   6.530 -1.8017 -0.8875  1.1632
  295MOL0     H38929   9.803  11.034   6.508 -0.8738 -1.9923 -0.4795
  295MOL0     H38930   9.999  11.400   6.670  0.3913 -0.9583 -0.9511
  295MOL0     H38931   9.862  11.380   6.575 -1.3305 -1.6819  0.0052
  295MOL0     H38932  10.153  11.292   6.517  0.6587  1.6084 -2.9357
  295MOL0     H38933  10.009  11.234   6.420 -1.5476 -0.5151  0.7430
  295MOL0     H38934  10.070  11.533   6.474  1.4044 -0.8320  0.2812
  295MOL0     H38935   9.962  11.477   6.348 -0.5737  0.0758  1.5345
  295MOL0     H38936  10.236  11.552   6.335  1.3731 -1.0022 -0.4257
  295MOL0     H38937  10.257  11.375   6.342 -0.0118 -0.1420  1.0035
  295MOL0     H38938  10.070  11.430   5.975  0.0510  1.4842 -0.6387
  295MOL0     H38939   9.778  11.301   6.836 -0.4079 -1.6181  1.4983
  295MOL0     H38940   9.545  11.203   6.886 -0.9588 -0.7234 -1.0808
  296MOL0     O38941   5.721   5.451  10.199  0.2627  1.0480  0.1208
  296MOL0     C38942   5.760   5.565  10.187 -1.0072 -0.2494 -0.4336
  296MOL0     O38943   5.886   5.607  10.155 -0.9414 -0.2712  0.5515
  296MOL0     C38944   5.979   5.506  10.149  0.3716  0.8668 -0.0167
  296MOL0     C38945   6.047   5.468  10.266 -0.2550 -0.7952  0.4023
  296MOL0     C38946   6.139   5.367  10.260 -0.0510  0.9304 -0.4230
  296MOL0     C38947   6.148   5.288  10.150  0.3086  0.1217 -0.0794
  296MOL0     O38948   6.236   5.186  10.153 -0.0559  0.4530 -0.9342
  296MOL0     C38949   6.353   5.206  10.073  0.4052  0.6036 -0.1783
  296MOL0     C38950   6.411   5.069  10.026  0.3964  0.9130 -0.0782
  296MOL0     C38951   6.453   4.985  10.147 -0.3325  0.4777  0.9594
  296MOL0     C38952   6.514   4.846  10.101 -0.9045 -0.0804  0.3177
  296MOL0     C38953   6.659   4.831  10.163  0.6199  0.5770  0.6609
  296MOL0     C38954   6.734   4.702  10.111 -0.7382  0.7167 -0.0589
  296MOL0     C38955   6.864   4.684  10.184 -0.7757  0.5891  0.0697
  296MOL0     C38956   6.943   4.564  10.142  0.5183  0.1069 -0.6143
  296MOL0     N38957   7.037   4.579  10.026 -0.2791  0.1439 -0.6986
  296MOL0     C38958   7.160   4.647  10.022  0.8062  0.1411  0.7053
  296MOL0     C38959   7.194   4.652   9.891 -0.6419 -0.1019 -0.0506
  296MOL0     C38960   7.327   4.716   9.841  0.5839  0.5816 -0.2941
  296MOL0     C38961   7.445   4.645   9.907  0.2139  0.4488 -0.5148
  296MOL0     C38962   7.585   4.691   9.854 -0.0508 -0.6227 -0.2210
  296MOL0     C38963   7.637   4.827   9.920  0.0888  0.2108 -0.6025
  296MOL0     O38964   7.647   4.811  10.061  0.0463 -0.8205  0.5219
  296MOL0     C38965   7.595   4.919  10.127  0.6825 -0.3494  0.1091
  296MOL0     C38966   7.651   5.047  10.129  0.4550  0.1859 -0.5774
  296MOL0     C38967   7.597   5.147  10.216 -0.1232  0.4627  0.2062
  296MOL0     C38968   7.478   5.121  10.286 -0.3163 -0.9744 -0.9024
  296MOL0     C38969   7.421   5.231  10.367 -0.5475  0.4034 -0.3587
  296MOL0     O38970   7.292   5.220  10.404  0.5911 -1.0268 -0.0729
  296MOL0     C38971   7.232   5.332  10.452  0.9369  0.6252 -0.5732
  296MOL0     C38972   7.200   5.432  10.368  0.1344  0.3354  0.9771
  296MOL0     C38973   7.108   5.528  10.407 -0.0546 -0.0242  0.2402
  296MOL0     C38974   7.060   5.527  10.538  1.4662 -0.6972  0.2179
  296MOL0     O38975   6.986   5.621  10.596 -0.0499 -0.7997  0.4733
  296MOL0     C38976   7.000   5.755  10.545  0.8386 -1.1853 -1.1879
  296MOL0     C38977   6.886   5.783  10.441  0.4643 -0.7282  0.3240
  296MOL0     C38978   6.744   5.737  10.484 -0.2847 -0.2107 -0.2346
  296MOL0     C38979   6.641   5.773  10.381  0.7661  0.1049  0.3557
  296MOL0     C38980   6.491   5.741  10.427  0.7615 -0.4188  0.4016
  296MOL0     C38981   6.392   5.804  10.332 -0.4244  0.6231  0.4572
  296MOL0     C38982   6.250   5.744  10.347 -0.0601  0.3194  1.0248
  296MOL0     C38983   6.153   5.829  10.263  0.2958 -0.2567 -1.0799
  296MOL0    Cl38984   6.082   5.967  10.359  0.0732  0.3849  0.0278
  296MOL0     C38985   7.098   5.428  10.628  0.2468 -0.1264 -1.1926
  296MOL0     C38986   7.177   5.331  10.581  0.1323  0.0974  0.0911
  296MOL0     O38987   7.489   5.330  10.383  0.3070  0.2590 -0.0920
  296MOL0     C38988   7.422   4.986  10.284 -0.0011 -0.7551 -0.3483
  296MOL0     C38989   7.491   4.893  10.212 -0.0331 -0.6452  0.0833
  296MOL0     N38990   7.101   4.580   9.822  0.0658 -0.4386 -0.0266
  296MOL0     N38991   7.001   4.553   9.906  0.2811 -0.7817  0.0207
  296MOL0     C38992   6.075   5.319  10.029 -0.6493 -0.0914 -0.1708
  296MOL0     C38993   6.001   5.432  10.030  0.5913  0.0819 -1.1933
  296MOL0     C38994   5.669   5.679  10.199 -0.1770  0.7140 -0.4822
  296MOL0     C38995   5.717   5.810  10.214 -0.2827  0.0327 -0.2383
  296MOL0     C38996   5.624   5.915  10.245  0.0954  0.6446  1.0697
  296MOL0     C38997   5.489   5.893  10.247 -0.0512 -0.2303  0.7589
  296MOL0     O38998   5.411   6.000  10.281 -0.0912  0.6947  0.1715
  296MOL0     C38999   5.269   5.965  10.259 -0.1228  1.2480  0.3887
  296MOL0     C39000   5.198   6.101  10.266  0.3882 -0.5871 -0.3289
  296MOL0     C39001   5.049   6.106  10.213  0.0435  0.6465  0.0010
  296MOL0     C39002   5.037   6.130  10.061 -1.0246 -0.1958 -0.1972
  296MOL0     C39003   5.093   6.260  10.017  0.8577  0.1121  0.2089
  296MOL0     C39004   5.154   6.354   9.968 -0.1834  0.0484 -0.5917
  296MOL0     C39005   5.442   5.759  10.239  0.2729  0.3043  0.4536
  296MOL0     C39006   5.535   5.652  10.217  0.9990 -0.9170 -0.2518
  296MOL0     H39007   6.023   5.520  10.358  0.6828 -0.0828  0.2526
  296MOL0     H39008   6.196   5.345  10.349  0.2458 -1.6918 -1.1781
  296MOL0     H39009   6.430   5.262  10.126  0.6575  2.3250 -2.2267
  296MOL0     H39010   6.334   5.265   9.984 -2.1840  3.0805  1.8390
  296MOL0     H39011   6.506   5.088   9.975  1.7505 -1.4917  1.3305
  296MOL0     H39012   6.340   5.018   9.961  2.7281 -2.9411  0.0940
  296MOL0     H39013   6.374   4.959  10.218 -2.2092  1.9836 -0.4592
  296MOL0     H39014   6.533   5.035  10.201  0.9582 -0.3282 -0.1505
  296MOL0     H39015   6.440   4.769  10.123 -2.7113  1.3164 -0.5767
  296MOL0     H39016   6.541   4.854   9.995  0.6637 -2.7677  0.4325
  296MOL0     H39017   6.656   4.826  10.273  0.0984  1.5779  0.7054
  296MOL0     H39018   6.726   4.914  10.140  1.2542 -0.5470 -1.9227
  296MOL0     H39019   6.755   4.713  10.004  2.8711  2.1081  0.6306
  296MOL0     H39020   6.674   4.612  10.127  0.0351 -0.2266 -2.1149
  296MOL0     H39021   6.922   4.777  10.182  0.2663 -0.0555 -1.6814
  296MOL0     H39022   6.832   4.667  10.287 -1.5020  2.9191  0.2866
  296MOL0     H39023   6.882   4.475  10.124 -2.0288  1.6123  0.0137
  296MOL0     H39024   7.007   4.535  10.226 -4.1247 -3.6709  2.1405
  296MOL0     H39025   7.214   4.693  10.105  3.3259 -1.7706  0.2607
  296MOL0     H39026   7.319   4.822   9.863 -1.9496 -0.0399  2.5523
  296MOL0     H39027   7.339   4.704   9.733  1.1891 -0.5712 -0.1162
  296MOL0     H39028   7.434   4.541   9.875 -1.5604  0.7576 -0.9902
  296MOL0     H39029   7.440   4.649  10.016 -0.5902  2.0724 -0.5923
  296MOL0     H39030   7.660   4.615   9.878 -0.6156 -1.3841 -0.8037
  296MOL0     H39031   7.591   4.711   9.746  3.3900 -0.7247 -0.1473
  296MOL0     H39032   7.567   4.902   9.881 -2.3172 -0.9595  1.1365
  296MOL0     H39033   7.739   4.847   9.887  0.9235 -3.2999 -0.5549
  296MOL0     H39034   7.739   5.069  10.070  0.9973  1.0279  0.5081
  296MOL0     H39035   7.648   5.243  10.216 -1.7476  1.4134 -2.1922
  296MOL0     H39036   7.245   5.436  10.269  2.4155  2.8660  2.0168
  296MOL0     H39037   7.076   5.612  10.346 -1.5264 -0.6269  0.1374
  296MOL0     H39038   7.096   5.777  10.496  0.9330  1.0348 -0.1355
  296MOL0     H39039   6.998   5.821  10.632  2.5985 -1.0150 -1.2380
  296MOL0     H39040   6.918   5.753  10.341  1.0889 -0.8615  0.5590
  296MOL0     H39041   6.888   5.891  10.424  1.3291 -0.2871  2.8656
  296MOL0     H39042   6.720   5.796  10.573  1.6110 -0.2892  0.3680
  296MOL0     H39043   6.734   5.629  10.503  0.8776  0.0543  2.2538
  296MOL0     H39044   6.655   5.881  10.368 -0.9574  0.4179  0.7816
  296MOL0     H39045   6.670   5.733  10.283 -2.6550 -0.3115 -0.6307
  296MOL0     H39046   6.469   5.778  10.527  0.1923  0.0272  0.1154
  296MOL0     H39047   6.479   5.633  10.440  2.1956 -0.4261  2.1036
  296MOL0     H39048   6.422   5.776  10.230  1.0637 -1.4093  1.3786
  296MOL0     H39049   6.398   5.913  10.337  3.4235  0.5417  1.3136
  296MOL0     H39050   6.251   5.644  10.302  0.0515  0.9676 -0.4734
  296MOL0     H39051   6.226   5.742  10.454  2.7869 -1.4862  1.7196
  296MOL0     H39052   6.064   5.769  10.243  0.5762 -0.9540 -0.2768
  296MOL0     H39053   6.210   5.867  10.177  0.7264  0.7311 -0.3776
  296MOL0     H39054   7.040   5.423  10.720 -2.1095 -1.5180 -2.6596
  296MOL0     H39055   7.192   5.250  10.652 -1.5526  0.6871  1.1963
  296MOL0     H39056   7.338   4.975  10.351 -1.1567  1.2250 -1.3909
  296MOL0     H39057   7.486   4.785  10.225  4.0628 -1.2449 -1.7405
  296MOL0     H39058   6.091   5.259   9.940 -0.0412 -1.2582  0.6966
  296MOL0     H39059   5.946   5.472   9.946  1.1147  1.5708 -0.8509
  296MOL0     H39060   5.824   5.820  10.228  0.0496  0.2247 -2.4856
  296MOL0     H39061   5.672   6.007  10.278  2.5369  0.2562 -1.1217
  296MOL0     H39062   5.220   5.900  10.332 -3.0015  3.6508  0.8107
  296MOL0     H39063   5.258   5.914  10.163 -1.2349 -1.6747  1.9432
  296MOL0     H39064   5.191   6.124  10.372 -0.0030  0.3502 -0.5486
  296MOL0     H39065   5.259   6.181  10.222 -0.6918  1.2417  1.3402
  296MOL0     H39066   5.007   6.189  10.271 -1.4506  0.4991 -0.8173
  296MOL0     H39067   4.997   6.011  10.225 -1.0373  1.5273  3.8050
  296MOL0     H39068   5.088   6.048  10.010 -1.0059  0.2023 -0.8241
  296MOL0     H39069   4.932   6.134  10.031 -1.5762 -0.7780  1.5263
  296MOL0     H39070   5.211   6.431   9.920  2.7565 -1.2387  0.5927
  296MOL0     H39071   5.336   5.735  10.246  0.8057 -1.8241  3.3969
  296MOL0     H39072   5.497   5.550  10.220  1.0372 -0.9686 -1.1794
  297MOL0     O39073   1.710   0.158   7.188 -0.1799 -0.4294  0.4324
  297MOL0     C39074   1.665   0.204   7.291  0.2060 -1.2096  0.7199
  297MOL0     O39075   1.533   0.244   7.320  0.2357  0.8284 -0.0236
  297MOL0     C39076   1.428   0.212   7.225 -0.3979 -0.6592  0.8152
  297MOL0     C39077   1.304   0.275   7.226  0.2413  0.0197 -0.5730
  297MOL0     C39078   1.203   0.268   7.130 -0.1743  0.3895 -0.0173
  297MOL0     C39079   1.222   0.182   7.023 -0.3541 -0.3049 -0.0648
  297MOL0     O39080   1.138   0.175   6.914 -0.5017 -0.0676  0.5810
  297MOL0     C39081   1.002   0.224   6.924 -0.2224 -0.3169 -0.2470
  297MOL0     C39082   0.925   0.135   6.818  1.6421  0.3757 -0.5669
  297MOL0     C39083   0.769   0.158   6.800  0.0915  0.8410  0.3525
  297MOL0     C39084   0.728   0.310   6.802  0.6132 -0.7513 -0.3778
  297MOL0     C39085   0.568   0.315   6.763 -0.0573 -0.1594  0.4377
  297MOL0     C39086   0.516   0.457   6.798  0.3923  0.2646 -0.1374
  297MOL0     C39087   0.506   0.493   6.944 -0.2288 -0.3676  0.3476
  297MOL0     C39088   0.505   0.648   6.966  0.6809  0.3620 -0.3153
  297MOL0     N39089   0.545   0.687   7.103  0.4896 -0.0354  0.6075
  297MOL0     C39090   0.467   0.672   7.217  0.6915  0.3287  0.3098
  297MOL0     C39091   0.538   0.736   7.311  0.8920  0.6232  0.1578
  297MOL0     C39092   0.487   0.753   7.450  0.9238  0.5408 -0.6027
  297MOL0     C39093   0.501   0.886   7.511 -0.4317  0.2928 -0.5451
  297MOL0     C39094   0.453   1.011   7.423  0.2089  0.1108 -0.6575
  297MOL0     C39095   0.302   0.998   7.400 -0.6490  0.2526 -0.1200
  297MOL0     O39096   0.230   0.994   7.525 -0.3449  1.0138  0.2639
  297MOL0     C39097   0.112   0.915   7.534 -0.6308  0.0884 -0.3068
  297MOL0     C39098   0.015   0.909   7.438  0.3782  0.1939  0.6111
  297MOL0     C39099  -0.109   0.842   7.462 -0.7313 -0.2910  1.0007
  297MOL0     C39100  -0.137   0.786   7.587  0.6707 -1.1882 -0.3450
  297MOL0     C39101  -0.278   0.741   7.618  0.2998  0.4669  0.0268
  297MOL0     O39102  -0.359   0.716   7.507  0.3709 -0.2361  0.0766
  297MOL0     C39103  -0.493   0.680   7.521  0.5018  0.1680  0.5584
  297MOL0     C39104  -0.533   0.577   7.604  0.6770 -0.3175 -0.1128
  297MOL0     C39105  -0.670   0.549   7.628 -0.8930 -0.4244 -0.4178
  297MOL0     C39106  -0.769   0.620   7.559 -0.0600 -0.6720  0.5403
  297MOL0     O39107  -0.905   0.595   7.567  0.0522  0.9307 -0.1899
  297MOL0     C39108  -0.949   0.461   7.595 -0.0742  0.3671  0.3524
  297MOL0     C39109  -1.101   0.474   7.621 -0.0522 -0.6726  0.6300
  297MOL0     C39110  -1.166   0.335   7.604 -0.5230 -0.9995  0.8404
  297MOL0     C39111  -1.313   0.342   7.622  0.2919  0.6077  0.2882
  297MOL0     C39112  -1.363   0.197   7.613 -0.3291  0.7247 -0.0852
  297MOL0     C39113  -1.508   0.182   7.581  0.1219 -0.0769 -0.0767
  297MOL0     C39114  -1.532   0.045   7.531 -1.1761 -0.6360 -0.8285
  297MOL0     C39115  -1.677   0.029   7.504 -0.2623 -0.6223 -0.1051
  297MOL0    Cl39116  -1.714   0.123   7.354 -0.4434 -0.1046  0.2660
  297MOL0     C39117  -0.726   0.721   7.476  0.5934  0.0785  0.7646
  297MOL0     C39118  -0.591   0.746   7.445 -0.5650 -0.1016  0.4853
  297MOL0     O39119  -0.309   0.728   7.736  0.0552 -0.4157 -0.5014
  297MOL0     C39120  -0.031   0.774   7.679  0.3741  0.1481  0.8331
  297MOL0     C39121   0.093   0.833   7.650 -0.9118  0.6097  0.1766
  297MOL0     N39122   0.658   0.769   7.262  0.5939  0.1064  0.3058
  297MOL0     N39123   0.663   0.741   7.139 -0.0217  0.1781  0.7193
  297MOL0     C39124   1.339   0.111   7.011 -0.0650  0.8579 -0.9261
  297MOL0     C39125   1.442   0.117   7.117 -0.1662 -0.4784  0.2395
  297MOL0     C39126   1.751   0.217   7.403  0.0487  0.4531 -0.3996
  297MOL0     C39127   1.865   0.140   7.416 -0.2220 -0.9289 -1.3415
  297MOL0     C39128   1.935   0.132   7.534  0.7216  0.4948 -0.7748
  297MOL0     C39129   1.908   0.228   7.637  0.1792  0.3259 -0.4449
  297MOL0     O39130   1.983   0.214   7.746 -0.5973 -0.2698  0.1881
  297MOL0     C39131   1.949   0.299   7.859  0.8561  0.4683  0.7006
  297MOL0     C39132   2.056   0.279   7.971 -0.0356 -0.0747 -0.2768
  297MOL0     C39133   2.195   0.331   7.923 -0.1379 -0.3587 -0.0158
  297MOL0     C39134   2.315   0.262   7.993  0.4114  0.5384  0.2152
  297MOL0     C39135   2.329   0.333   8.130  0.5531  0.5174  0.3448
  297MOL0     C39136   2.357   0.390   8.227 -0.6445  0.4198  0.1681
  297MOL0     C39137   1.793   0.307   7.624 -0.6268 -0.1561  0.5153
  297MOL0     C39138   1.724   0.307   7.505  0.3218  0.0410  0.4582
  297MOL0     H39139   1.289   0.337   7.314 -1.0064  1.4441 -1.7284
  297MOL0     H39140   1.113   0.327   7.144 -1.6240 -1.2507 -1.7130
  297MOL0     H39141   0.989   0.331   6.908 -2.8046 -0.5350  0.0022
  297MOL0     H39142   0.965   0.206   7.025 -0.7144 -2.2623 -0.7411
  297MOL0     H39143   0.937   0.030   6.846 -4.3499 -1.7433 -4.0179
  297MOL0     H39144   0.969   0.150   6.719 -0.5779 -0.8848 -1.8170
  297MOL0     H39145   0.718   0.106   6.881 -0.6106 -0.6267 -0.9716
  297MOL0     H39146   0.741   0.119   6.702 -1.1778 -0.9679  1.3764
  297MOL0     H39147   0.735   0.360   6.899 -0.7769 -0.9321 -0.1650
  297MOL0     H39148   0.773   0.380   6.730 -0.8644  1.9272  1.1571
  297MOL0     H39149   0.516   0.230   6.807 -2.7283 -0.3794 -2.7312
  297MOL0     H39150   0.575   0.296   6.656  1.0283 -1.0051  0.6419
  297MOL0     H39151   0.414   0.454   6.758  1.5958  3.2499 -4.0587
  297MOL0     H39152   0.564   0.538   6.742  1.1037  0.3006  0.5027
  297MOL0     H39153   0.419   0.453   6.997 -1.2370  2.7265  1.2446
  297MOL0     H39154   0.595   0.456   6.997 -0.1100 -1.6553 -0.6955
  297MOL0     H39155   0.405   0.691   6.952  1.9295  4.6829  2.0887
  297MOL0     H39156   0.567   0.697   6.891 -0.0930 -1.4173 -2.2204
  297MOL0     H39157   0.362   0.648   7.218  0.5405  0.9172 -0.2995
  297MOL0     H39158   0.547   0.681   7.507  1.1603 -0.0202 -1.5447
  297MOL0     H39159   0.381   0.727   7.459  1.6023 -1.7255  2.1353
  297MOL0     H39160   0.604   0.904   7.540 -0.9602  0.7805  1.1931
  297MOL0     H39161   0.454   0.877   7.610 -0.9359  0.0433 -0.8013
  297MOL0     H39162   0.476   1.096   7.489 -3.8634 -0.0164  1.2231
  297MOL0     H39163   0.512   1.010   7.331  1.1160 -1.7093 -0.1058
  297MOL0     H39164   0.287   0.908   7.341  0.4509 -1.9675  2.7450
  297MOL0     H39165   0.267   1.083   7.340 -3.6619  0.8745  2.2193
  297MOL0     H39166   0.019   0.978   7.354  1.8901  4.7875  4.0682
  297MOL0     H39167  -0.179   0.854   7.380  2.2965  2.2762 -1.4954
  297MOL0     H39168  -0.459   0.517   7.656  1.2340 -0.1021 -0.6469
  297MOL0     H39169  -0.700   0.473   7.700  0.9191  0.0665  0.9116
  297MOL0     H39170  -0.903   0.404   7.677 -4.0406 -5.2937 -0.7636
  297MOL0     H39171  -0.939   0.403   7.503 -2.4415  0.2444  0.0970
  297MOL0     H39172  -1.149   0.536   7.544  0.5222  0.6292  1.2895
  297MOL0     H39173  -1.118   0.522   7.717 -1.9279 -0.2495  0.1222
  297MOL0     H39174  -1.123   0.254   7.665 -1.3347 -2.9513 -1.0485
  297MOL0     H39175  -1.149   0.310   7.499 -2.4777 -3.2518  0.9729
  297MOL0     H39176  -1.357   0.377   7.715  0.6694 -2.8809  1.9118
  297MOL0     H39177  -1.364   0.399   7.543 -0.2196  0.4546  0.5078
  297MOL0     H39178  -1.344   0.146   7.708 -1.4201  0.7179  0.1493
  297MOL0     H39179  -1.296   0.159   7.535 -0.0450  2.3019 -0.6527
  297MOL0     H39180  -1.524   0.256   7.502 -3.9145  0.7278  1.2897
  297MOL0     H39181  -1.583   0.206   7.657 -0.9449  3.3184 -1.9982
  297MOL0     H39182  -1.476   0.024   7.440 -3.9226  0.8537 -3.0055
  297MOL0     H39183  -1.502  -0.026   7.609 -2.9407 -0.6923 -0.1450
  297MOL0     H39184  -1.738   0.076   7.582 -0.2072 -0.3385 -0.2306
  297MOL0     H39185  -1.706  -0.074   7.478  1.1930 -0.7534 -1.3307
  297MOL0     H39186  -0.794   0.787   7.422  2.6109  0.6821 -1.1607
  297MOL0     H39187  -0.569   0.827   7.376  1.5864 -1.6445 -0.7277
  297MOL0     H39188  -0.050   0.731   7.776 -0.8077  1.7338  1.3381
  297MOL0     H39189   0.175   0.825   7.720  0.7814 -0.7972 -1.8451
  297MOL0     H39190   1.344   0.051   6.921  0.5376 -0.3328 -0.1325
  297MOL0     H39191   1.531   0.057   7.101  1.3907  1.5033  1.0448
  297MOL0     H39192   1.899   0.070   7.339  2.9772 -1.5955  0.4945
  297MOL0     H39193   2.020   0.065   7.537 -0.5131 -1.2780 -2.5371
  297MOL0     H39194   1.850   0.268   7.896  0.0858  1.3727 -0.5408
  297MOL0     H39195   1.944   0.406   7.837  1.1228 -0.0352 -2.2947
  297MOL0     H39196   2.028   0.328   8.064 -1.3759  0.1928 -0.7920
  297MOL0     H39197   2.059   0.179   8.015  3.6511 -0.2158 -0.5326
  297MOL0     H39198   2.198   0.438   7.948 -3.6934 -0.7306  2.6244
  297MOL0     H39199   2.200   0.305   7.817  1.8579  2.9967 -0.9181
  297MOL0     H39200   2.307   0.153   7.997 -1.9558  0.5382 -1.9114
  297MOL0     H39201   2.395   0.269   7.919  1.3285 -0.2116  1.1067
  297MOL0     H39202   2.381   0.458   8.306  2.0841  4.5362 -3.7281
  297MOL0     H39203   1.771   0.377   7.705 -1.9702 -1.7084  1.5540
  297MOL0     H39204   1.641   0.377   7.494  0.8045  0.5455  0.0270
  298MOL0     O39205   0.265   8.295   4.688  0.7309  0.4973  0.0701
  298MOL0     C39206   0.240   8.311   4.566 -0.3844 -0.1935  0.9008
  298MOL0     O39207   0.148   8.248   4.493 -0.1989  0.1020 -0.1253
  298MOL0     C39208   0.088   8.136   4.542  0.7639  0.0533 -0.3002
  298MOL0     C39209  -0.048   8.142   4.575  0.2219 -0.0399 -0.0646
  298MOL0     C39210  -0.105   8.028   4.623  0.7794  0.2688 -0.5149
  298MOL0     C39211  -0.030   7.910   4.646  0.3151  0.0501 -0.2228
  298MOL0     O39212  -0.071   7.794   4.711 -0.1474  0.0177  0.6029
  298MOL0     C39213  -0.211   7.772   4.731 -0.2563  0.5880 -0.0334
  298MOL0     C39214  -0.271   7.724   4.596 -0.6589  0.8923 -0.9614
  298MOL0     C39215  -0.422   7.733   4.597 -0.0925 -0.1566  0.3243
  298MOL0     C39216  -0.499   7.659   4.709  0.4670 -0.7713  0.1431
  298MOL0     C39217  -0.651   7.649   4.665  0.0871 -0.4023  0.3886
  298MOL0     C39218  -0.726   7.566   4.766 -0.9076  0.1853 -0.5259
  298MOL0     C39219  -0.794   7.451   4.692  0.4146 -1.1428  0.1653
  298MOL0     C39220  -0.862   7.375   4.808 -0.2435  0.6478 -0.0832
  298MOL0     N39221  -0.957   7.271   4.773  0.5337 -0.6334  0.1390
  298MOL0     C39222  -0.934   7.134   4.762 -0.0914 -0.3127  0.5427
  298MOL0     C39223  -1.034   7.080   4.691  0.4811 -0.9793  0.8907
  298MOL0     C39224  -1.055   6.939   4.659  0.3000 -0.0647  0.5296
  298MOL0     C39225  -1.084   6.872   4.795  0.3497  0.2886 -1.1310
  298MOL0     C39226  -1.081   6.719   4.783 -0.4037  0.5604  0.3357
  298MOL0     C39227  -1.097   6.663   4.921  0.4201 -0.0629  0.7024
  298MOL0     O39228  -1.227   6.695   4.970  0.4636  0.9977  0.0705
  298MOL0     C39229  -1.338   6.627   4.951 -0.2683  0.1314 -0.6425
  298MOL0     C39230  -1.441   6.658   5.039 -0.4952  1.2861 -0.5718
  298MOL0     C39231  -1.566   6.594   5.027 -0.7804  0.4956 -0.1293
  298MOL0     C39232  -1.584   6.498   4.922 -0.2680 -0.0154  0.1739
  298MOL0     C39233  -1.716   6.448   4.893  0.3289  0.2268  0.1753
  298MOL0     O39234  -1.813   6.502   4.969 -0.0353 -0.8163  1.0490
  298MOL0     C39235  -1.933   6.427   4.972  0.4053 -0.6297 -0.1730
  298MOL0     C39236  -1.953   6.291   4.952  0.1502  0.3002 -0.0648
  298MOL0     C39237  -2.082   6.234   4.947 -1.0425 -0.2763 -1.0266
  298MOL0     C39238  -2.191   6.322   4.969  0.8206  0.3802  0.2157
  298MOL0     O39239  -2.316   6.267   4.965  0.8422 -0.6627 -0.4381
  298MOL0     C39240  -2.440   6.345   4.934  0.4224  0.7721 -0.8007
  298MOL0     C39241  -2.543   6.230   4.944  0.0890  0.4579 -0.1372
  298MOL0     C39242  -2.683   6.290   4.934  0.0261  0.3490 -0.8916
  298MOL0     C39243  -2.786   6.188   4.921  0.7628 -0.2303 -0.5511
  298MOL0     C39244  -2.932   6.227   4.966  0.4217  0.1238  0.2161
  298MOL0     C39245  -3.012   6.228   4.833 -0.2247  0.2263 -0.0722
  298MOL0     C39246  -3.161   6.261   4.873 -0.8105 -0.2693 -0.9626
  298MOL0     C39247  -3.223   6.152   4.941 -0.7347 -0.3983 -0.5996
  298MOL0    Cl39248  -3.398   6.177   4.942  0.4854  0.3698  0.3926
  298MOL0     C39249  -2.174   6.459   4.992  0.2921  0.0539  0.0804
  298MOL0     C39250  -2.044   6.511   4.986 -0.0320  0.1991 -0.1823
  298MOL0     O39251  -1.730   6.373   4.799  0.6839  0.4431 -0.0078
  298MOL0     C39252  -1.477   6.460   4.837 -0.4131 -0.3008 -1.0486
  298MOL0     C39253  -1.356   6.534   4.850  0.9366 -0.0603 -0.1669
  298MOL0     N39254  -1.121   7.191   4.659  0.0401  0.2418  0.6793
  298MOL0     N39255  -1.072   7.297   4.704  0.3002 -0.8778  0.7172
  298MOL0     C39256   0.099   7.913   4.611  0.0771 -0.5388 -0.9282
  298MOL0     C39257   0.163   8.027   4.567  0.0840 -0.2407 -0.0459
  298MOL0     C39258   0.318   8.415   4.494  0.1983 -0.3719 -0.0338
  298MOL0     C39259   0.422   8.484   4.559 -0.2555 -0.7804  1.5112
  298MOL0     C39260   0.503   8.576   4.492  0.6105  0.3262  0.8894
  298MOL0     C39261   0.486   8.608   4.356  0.7025  0.1043 -0.8112
  298MOL0     O39262   0.579   8.688   4.298 -0.3719 -0.5260  0.2432
  298MOL0     C39263   0.548   8.765   4.181  0.6427  0.8899  0.4627
  298MOL0     C39264   0.650   8.872   4.168 -1.0605  0.2238  0.2109
  298MOL0     C39265   0.741   8.845   4.038 -0.5215  0.3399 -0.1763
  298MOL0     C39266   0.881   8.896   4.045  0.5456 -0.5655 -0.5106
  298MOL0     C39267   0.954   8.831   4.145 -0.1666 -0.6192 -0.2730
  298MOL0     C39268   1.024   8.774   4.224  1.2518  0.1914  0.3646
  298MOL0     C39269   0.377   8.534   4.291  0.3202  0.4111 -0.1656
  298MOL0     C39270   0.296   8.440   4.355  0.2417 -0.0654 -0.1014
  298MOL0     H39271  -0.106   8.233   4.566  0.5503 -0.0641 -4.3525
  298MOL0     H39272  -0.213   8.035   4.635  1.0356  2.8548  1.0123
  298MOL0     H39273  -0.276   7.851   4.770 -0.4261 -0.1779  1.2759
  298MOL0     H39274  -0.211   7.695   4.808  1.1908 -0.3578 -0.9264
  298MOL0     H39275  -0.254   7.616   4.595  0.6933  1.0486  0.9175
  298MOL0     H39276  -0.229   7.765   4.503 -1.1604 -0.9729 -2.0635
  298MOL0     H39277  -0.473   7.691   4.510 -1.1662 -0.0789  0.8967
  298MOL0     H39278  -0.445   7.839   4.611 -0.2273 -0.0181 -0.8052
  298MOL0     H39279  -0.457   7.559   4.722  0.9312 -0.7770 -1.2468
  298MOL0     H39280  -0.482   7.722   4.797 -0.9156 -0.3175  0.1092
  298MOL0     H39281  -0.672   7.615   4.564  0.0113 -0.3567  0.3889
  298MOL0     H39282  -0.690   7.751   4.674 -0.3690 -0.4741 -0.6533
  298MOL0     H39283  -0.801   7.623   4.822 -1.9443 -1.4933 -0.1210
  298MOL0     H39284  -0.645   7.529   4.829  1.3918  2.6913 -1.8224
  298MOL0     H39285  -0.846   7.500   4.609  2.0522  2.6241  1.1589
  298MOL0     H39286  -0.716   7.392   4.642 -0.6551 -2.3271 -0.1524
  298MOL0     H39287  -0.902   7.443   4.884  0.4622  1.2971 -0.2828
  298MOL0     H39288  -0.774   7.326   4.850 -0.4263 -1.2059 -1.6937
  298MOL0     H39289  -0.840   7.093   4.798  1.0794  2.0611  0.4122
  298MOL0     H39290  -0.968   6.897   4.608  0.7028  1.2578  0.0738
  298MOL0     H39291  -1.141   6.923   4.592  0.6971  0.6694 -0.1841
  298MOL0     H39292  -1.178   6.911   4.835  1.2340  2.6924 -1.2319
  298MOL0     H39293  -1.001   6.898   4.863  1.0050  2.3523 -2.6278
  298MOL0     H39294  -1.161   6.686   4.717 -1.3238  0.9371  1.2350
  298MOL0     H39295  -0.988   6.676   4.745 -0.2947 -0.8491  2.0882
  298MOL0     H39296  -1.026   6.711   4.989 -0.8284  0.2730  1.8220
  298MOL0     H39297  -1.077   6.555   4.914  0.2200  0.0257 -3.6267
  298MOL0     H39298  -1.438   6.723   5.126 -1.6539  2.2418 -1.2102
  298MOL0     H39299  -1.632   6.624   5.108 -2.4639 -0.6053 -1.0394
  298MOL0     H39300  -1.870   6.228   4.922  0.2277 -0.7807  2.2337
  298MOL0     H39301  -2.097   6.130   4.921 -0.8731  0.0245 -2.4040
  298MOL0     H39302  -2.447   6.375   4.829 -1.8314  0.4045 -0.8158
  298MOL0     H39303  -2.446   6.433   4.998  0.9998  1.1378 -1.2397
  298MOL0     H39304  -2.525   6.184   5.042  3.1600 -1.3623 -1.3935
  298MOL0     H39305  -2.531   6.149   4.871  3.4465  0.0373  0.7104
  298MOL0     H39306  -2.681   6.356   4.846  5.2422 -0.5803 -1.8319
  298MOL0     H39307  -2.693   6.344   5.028  1.1744 -0.6213 -0.1835
  298MOL0     H39308  -2.786   6.143   4.821 -2.8891 -2.2363  0.1800
  298MOL0     H39309  -2.748   6.110   4.987  0.4478 -0.4282 -0.6017
  298MOL0     H39310  -2.946   6.320   5.022 -1.1838 -0.6334  1.1259
  298MOL0     H39311  -2.982   6.160   5.036 -0.1465 -3.5397 -3.3333
  298MOL0     H39312  -3.006   6.137   4.772 -0.7672  0.6479 -0.7706
  298MOL0     H39313  -2.971   6.311   4.775  2.2414 -0.1358  1.0013
  298MOL0     H39314  -3.172   6.356   4.926  1.0371 -0.8662  0.6167
  298MOL0     H39315  -3.189   6.294   4.772  1.5465 -0.1012 -1.6152
  298MOL0     H39316  -3.182   6.145   5.042  2.1145 -0.4376 -1.6656
  298MOL0     H39317  -3.199   6.062   4.885  0.9902  0.3087 -1.0698
  298MOL0     H39318  -2.239   6.539   5.026  0.5377  0.3679 -0.1927
  298MOL0     H39319  -2.019   6.615   5.005  0.9199 -0.0880  0.1675
  298MOL0     H39320  -1.495   6.387   4.759 -1.2839 -2.9470  1.4805
  298MOL0     H39321  -1.270   6.506   4.790  0.2869  0.2413 -1.2592
  298MOL0     H39322   0.158   7.824   4.629  0.2784  0.0548  1.8486
  298MOL0     H39323   0.270   8.029   4.546 -0.3831  2.2546 -2.8396
  298MOL0     H39324   0.446   8.458   4.662 -0.1504 -2.8373  1.0250
  298MOL0     H39325   0.583   8.630   4.541 -0.4070  2.2477  0.5615
  298MOL0     H39326   0.447   8.806   4.181  0.4038  0.3235 -0.2931
  298MOL0     H39327   0.545   8.694   4.097 -0.5504 -2.3169  3.0023
  298MOL0     H39328   0.610   8.973   4.155  0.7704  0.9011 -0.4339
  298MOL0     H39329   0.701   8.862   4.264 -3.0375 -1.7867  1.1514
  298MOL0     H39330   0.690   8.911   3.967 -1.8565 -0.2948  0.1530
  298MOL0     H39331   0.745   8.740   4.010 -2.6943 -0.6477  2.7182
  298MOL0     H39332   0.935   8.872   3.952 -0.7561  1.1252 -1.7481
  298MOL0     H39333   0.888   9.004   4.053 -4.1500 -0.0853 -0.5268
  298MOL0     H39334   1.089   8.734   4.299  1.5609 -0.5986 -0.3078
  298MOL0     H39335   0.378   8.534   4.182  2.8885 -2.3790 -0.2673
  298MOL0     H39336   0.217   8.393   4.296 -1.7224 -0.3221  2.5517
  299MOL0     O39337   5.337   4.638   6.668 -0.3236  0.5388  0.3872
  299MOL0     C39338   5.415   4.554   6.624  0.2497  0.3990  0.5048
  299MOL0     O39339   5.420   4.513   6.491 -0.2163  0.5215  0.1615
  299MOL0     C39340   5.334   4.575   6.402 -0.4840  0.9798  0.8264
  299MOL0     C39341   5.202   4.556   6.431  0.4559  0.2806  0.9250
  299MOL0     C39342   5.103   4.592   6.336  0.2698  0.2519 -0.3128
  299MOL0     C39343   5.139   4.665   6.222  0.6443  0.0559 -0.3455
  299MOL0     O39344   5.061   4.699   6.114  0.6422 -0.6309 -0.5089
  299MOL0     C39345   4.921   4.687   6.140  0.2533 -0.2101 -0.2328
  299MOL0     C39346   4.852   4.754   6.015 -0.1791  0.5782 -0.5093
  299MOL0     C39347   4.702   4.746   6.032 -0.0461 -0.3069 -0.2153
  299MOL0     C39348   4.624   4.778   5.907 -0.0065  0.4211 -0.6245
  299MOL0     C39349   4.487   4.812   5.941  1.1921 -0.2812  0.2896
  299MOL0     C39350   4.405   4.709   6.029 -0.5600  0.0066 -1.0000
  299MOL0     C39351   4.402   4.566   5.972 -0.1700 -0.0422 -0.8418
  299MOL0     C39352   4.346   4.556   5.830 -0.7876 -0.3386 -0.5510
  299MOL0     N39353   4.201   4.592   5.834  0.3674 -0.2043 -0.1461
  299MOL0     C39354   4.097   4.544   5.908 -0.4162 -0.2873  0.1049
  299MOL0     C39355   3.995   4.613   5.862  0.2594  0.2582 -0.1361
  299MOL0     C39356   3.849   4.598   5.892 -0.8278 -0.9908  0.2213
  299MOL0     C39357   3.813   4.450   5.864  0.6216 -0.3022  0.3134
  299MOL0     C39358   3.663   4.443   5.884 -0.5830  0.5303 -0.6642
  299MOL0     C39359   3.636   4.295   5.869  0.2894  0.8845 -0.8057
  299MOL0     O39360   3.523   4.261   5.937 -0.2224 -0.5907  0.0421
  299MOL0     C39361   3.397   4.283   5.876  0.0461  0.2333 -0.4035
  299MOL0     C39362   3.287   4.237   5.939  0.3697  0.2941 -0.4418
  299MOL0     C39363   3.154   4.238   5.883  0.2469 -0.1860  0.2058
  299MOL0     C39364   3.135   4.286   5.753  0.6241  0.1805 -0.0531
  299MOL0     C39365   3.008   4.282   5.682 -0.5328  0.2596  0.3705
  299MOL0     O39366   2.918   4.184   5.723 -0.4912 -0.3085  0.5018
  299MOL0     C39367   2.790   4.162   5.663 -0.8177  0.1282 -0.6271
  299MOL0     C39368   2.726   4.236   5.565  0.3611  0.5371  0.9830
  299MOL0     C39369   2.599   4.190   5.519 -0.0456 -0.5677 -0.7927
  299MOL0     C39370   2.543   4.073   5.564  0.0593 -0.0192 -0.8649
  299MOL0     O39371   2.419   4.041   5.523  0.1498  1.0739  0.6501
  299MOL0     C39372   2.314   4.054   5.626 -0.1155 -0.0846  0.3762
  299MOL0     C39373   2.166   4.071   5.576 -0.3781 -0.6704  0.2622
  299MOL0     C39374   2.091   3.947   5.560 -0.7308 -1.2429 -0.5858
  299MOL0     C39375   1.941   3.961   5.534  0.5952 -0.8148  0.6399
  299MOL0     C39376   1.858   3.830   5.561  0.8074 -0.4296  0.9981
  299MOL0     C39377   1.887   3.732   5.457  0.3705 -0.8324 -0.2019
  299MOL0     C39378   1.861   3.592   5.497  0.6261  0.0063 -0.9521
  299MOL0     C39379   1.976   3.534   5.586  0.9007 -0.4802  0.3381
  299MOL0    Cl39380   1.959   3.365   5.630 -0.5381 -0.1149 -0.4425
  299MOL0     C39381   2.607   4.004   5.670 -0.5800 -0.7926 -0.0954
  299MOL0     C39382   2.725   4.049   5.721 -0.6308 -0.8672 -1.0950
  299MOL0     O39383   2.992   4.368   5.596  0.6140  0.5893 -0.0810
  299MOL0     C39384   3.253   4.331   5.691 -0.4141 -0.2498  0.0893
  299MOL0     C39385   3.379   4.337   5.749 -0.1579 -0.5057 -0.2115
  299MOL0     N39386   4.025   4.702   5.764 -0.8589 -0.3046 -0.0942
  299MOL0     N39387   4.147   4.692   5.745 -0.4081 -0.3108 -0.6898
  299MOL0     C39388   5.271   4.695   6.207  0.2623  0.6561 -0.4943
  299MOL0     C39389   5.373   4.642   6.287  0.5578  0.4680  1.2249
  299MOL0     C39390   5.506   4.477   6.714 -0.8454 -0.6679 -0.2988
  299MOL0     C39391   5.540   4.531   6.834 -0.2440 -0.7093  0.5563
  299MOL0     C39392   5.620   4.465   6.926 -0.2547  0.1295 -0.0182
  299MOL0     C39393   5.667   4.334   6.887  0.5696 -0.9197  0.1264
  299MOL0     O39394   5.732   4.247   6.969 -0.1820  0.8772 -0.4299
  299MOL0     C39395   5.787   4.284   7.096  0.1726 -0.0657  0.1616
  299MOL0     C39396   5.876   4.180   7.157  0.1062 -0.8940 -0.8532
  299MOL0     C39397   5.814   4.048   7.170 -0.2351 -0.1921 -0.4580
  299MOL0     C39398   5.882   3.960   7.281  0.1995  0.1847  0.3716
  299MOL0     C39399   5.808   3.851   7.352  0.8362  0.0309  0.7020
  299MOL0     C39400   5.749   3.759   7.405  0.8359 -0.2781 -0.8765
  299MOL0     C39401   5.624   4.271   6.763  0.0677 -0.2255 -0.4641
  299MOL0     C39402   5.553   4.352   6.671 -0.4806  0.3149  0.2315
  299MOL0     H39403   5.166   4.498   6.516 -1.4895 -0.2535 -0.1896
  299MOL0     H39404   5.002   4.551   6.341  0.4214 -0.0460  0.3775
  299MOL0     H39405   4.900   4.744   6.231 -1.0737 -2.2414  0.8072
  299MOL0     H39406   4.888   4.584   6.157 -3.4237  1.1272  1.8212
  299MOL0     H39407   4.884   4.701   5.925 -0.8667 -0.8069  0.0266
  299MOL0     H39408   4.886   4.858   6.022 -0.5207  0.6022  1.3554
  299MOL0     H39409   4.677   4.817   6.111  5.0808  1.3995  0.2479
  299MOL0     H39410   4.672   4.646   6.066 -0.3600  0.5565  2.2087
  299MOL0     H39411   4.655   4.867   5.852 -2.1360  3.0063  2.0494
  299MOL0     H39412   4.631   4.686   5.849  2.5315  0.6655 -0.8160
  299MOL0     H39413   4.431   4.820   5.847  2.1125 -0.7665 -0.3180
  299MOL0     H39414   4.492   4.908   5.993 -2.2645  0.8511 -1.1634
  299MOL0     H39415   4.300   4.737   6.041 -0.2047  0.8875  0.1812
  299MOL0     H39416   4.444   4.715   6.131 -1.4983 -0.8009 -0.5761
  299MOL0     H39417   4.500   4.518   5.975  1.3225  2.8049  1.9926
  299MOL0     H39418   4.328   4.509   6.029 -0.9817  0.4837 -1.3331
  299MOL0     H39419   4.353   4.455   5.788 -0.6809 -0.0033 -1.3441
  299MOL0     H39420   4.402   4.622   5.764 -1.1749  0.1208 -0.4306
  299MOL0     H39421   4.093   4.456   5.970  0.7965  0.7648  1.7721
  299MOL0     H39422   3.802   4.661   5.816  1.2980  0.0177 -0.3351
  299MOL0     H39423   3.823   4.628   5.994  1.3294  0.7814  0.3293
  299MOL0     H39424   3.868   4.395   5.941  3.6705  0.8751 -0.8298
  299MOL0     H39425   3.849   4.409   5.770 -1.1471  0.8267 -0.9141
  299MOL0     H39426   3.632   4.474   5.984  1.2365 -3.0582  1.2118
  299MOL0     H39427   3.603   4.492   5.807 -0.6240  1.3438 -0.1200
  299MOL0     H39428   3.719   4.246   5.921 -1.2165  1.2403  2.1184
  299MOL0     H39429   3.639   4.275   5.761  1.4259 -1.6890 -0.3694
  299MOL0     H39430   3.294   4.202   6.042 -1.6398 -0.7772 -0.6245
  299MOL0     H39431   3.074   4.210   5.951 -1.0395  1.6136 -0.4733
  299MOL0     H39432   2.781   4.323   5.530 -0.8238  2.5274  3.7519
  299MOL0     H39433   2.560   4.229   5.426  0.6651  3.2054  0.3108
  299MOL0     H39434   2.345   4.144   5.681  0.5647  0.0501 -0.2120
  299MOL0     H39435   2.328   3.968   5.692  1.6253  1.0027  1.5299
  299MOL0     H39436   2.177   4.127   5.483  1.9372 -1.9006 -0.3027
  299MOL0     H39437   2.120   4.139   5.648  0.0953  2.0082 -1.8018
  299MOL0     H39438   2.102   3.888   5.651  0.7424 -1.7584 -1.0739
  299MOL0     H39439   2.132   3.878   5.485  2.7868 -3.7953  3.2860
  299MOL0     H39440   1.889   4.039   5.591 -0.0540 -0.2496 -0.6915
  299MOL0     H39441   1.933   3.988   5.428  0.8102  0.5443  0.9583
  299MOL0     H39442   1.753   3.856   5.545  0.2741 -2.9844 -0.1563
  299MOL0     H39443   1.867   3.792   5.663 -0.5802 -0.0424  1.2898
  299MOL0     H39444   1.991   3.739   5.425  0.2771 -0.8600 -0.5154
  299MOL0     H39445   1.830   3.755   5.366  1.2311 -0.4619 -0.6643
  299MOL0     H39446   1.772   3.589   5.560  0.1396  0.4992 -1.6089
  299MOL0     H39447   1.846   3.521   5.415  1.7654  1.7924 -2.8102
  299MOL0     H39448   1.982   3.594   5.678 -0.0557 -1.6898  1.2182
  299MOL0     H39449   2.065   3.551   5.525  0.7009 -2.3276 -0.5275
  299MOL0     H39450   2.567   3.918   5.724  0.3647  0.9373  3.6574
  299MOL0     H39451   2.764   3.988   5.802 -2.5910  1.7447  2.0454
  299MOL0     H39452   3.240   4.365   5.589  3.3829  1.4542  0.0245
  299MOL0     H39453   3.452   4.372   5.677 -1.4101 -0.1042 -1.3282
  299MOL0     H39454   5.310   4.764   6.132 -0.8623  2.2045  0.2771
  299MOL0     H39455   5.478   4.667   6.272  0.0332  2.1217  0.0032
  299MOL0     H39456   5.499   4.626   6.866  1.0286  0.2181 -0.4488
  299MOL0     H39457   5.643   4.508   7.023  0.4045 -2.7354  1.1940
  299MOL0     H39458   5.716   4.320   7.171  0.8448  1.5665  0.0568
  299MOL0     H39459   5.855   4.370   7.086  2.2961 -1.7782 -1.0514
  299MOL0     H39460   5.963   4.164   7.092 -0.2403 -1.5636 -1.1625
  299MOL0     H39461   5.907   4.221   7.253  2.0722  0.1441 -1.8645
  299MOL0     H39462   5.820   4.000   7.072  0.0106  3.0664 -2.1765
  299MOL0     H39463   5.707   4.058   7.195  0.3675  1.6286  1.7646
  299MOL0     H39464   5.975   3.909   7.254 -1.0744 -1.3940 -1.1781
  299MOL0     H39465   5.912   4.032   7.359  1.7149 -1.0936  1.0344
  299MOL0     H39466   5.696   3.682   7.458  1.7226 -0.2757  0.0388
  299MOL0     H39467   5.633   4.165   6.743  2.4812 -0.1616 -0.0044
  299MOL0     H39468   5.521   4.304   6.579  0.2011  0.2790  0.0113
  300MOL0     O39469   3.377   7.945   0.317  0.9147  0.3439  0.2901
  300MOL0     C39470   3.427   7.969   0.208 -0.1762  0.1874  0.8443
  300MOL0     O39471   3.370   8.035   0.106  0.4555  0.0884 -0.3764
  300MOL0     C39472   3.229   8.040   0.117  0.3692 -0.4788  0.1410
  300MOL0     C39473   3.156   7.917   0.110 -0.0400 -0.9318  0.1696
  300MOL0     C39474   3.018   7.921   0.117  0.3160  0.2520  0.0209
  300MOL0     C39475   2.944   8.037   0.139  0.5667  0.2733 -0.9764
  300MOL0     O39476   2.803   8.040   0.169 -0.2166 -0.4132  0.5163
  300MOL0     C39477   2.727   7.921   0.156  0.6523 -0.0890 -0.4689
  300MOL0     C39478   2.596   7.946   0.227  0.3776 -0.8350 -0.0242
  300MOL0     C39479   2.496   7.832   0.195 -0.3537 -0.2563  0.9221
  300MOL0     C39480   2.364   7.841   0.262 -0.2405  0.7818  0.9170
  300MOL0     C39481   2.277   7.716   0.232  0.1538  0.7885 -1.0495
  300MOL0     C39482   2.155   7.701   0.333 -0.3090  0.5696 -0.4848
  300MOL0     C39483   2.059   7.590   0.281 -0.1938 -0.3177 -0.0793
  300MOL0     C39484   1.951   7.568   0.394  0.3344  0.4433 -0.2717
  300MOL0     N39485   1.849   7.668   0.373  0.0867 -0.4240 -0.2813
  300MOL0     C39486   1.779   7.727   0.486 -0.1702  0.2348 -0.3206
  300MOL0     C39487   1.682   7.810   0.429 -0.1915  0.3746  0.3163
  300MOL0     C39488   1.589   7.904   0.484  0.1462 -0.0059 -0.2995
  300MOL0     C39489   1.442   7.871   0.470  0.0421 -0.3614 -1.1749
  300MOL0     C39490   1.352   7.970   0.543 -0.3878 -0.5200  0.3535
  300MOL0     C39491   1.209   7.928   0.529 -0.5543  0.4930  0.6881
  300MOL0     O39492   1.133   7.991   0.631  0.5287 -0.1776  0.1968
  300MOL0     C39493   0.997   7.998   0.604 -0.6229  0.0754  0.7246
  300MOL0     C39494   0.938   8.078   0.498  0.4800  0.5872 -0.0126
  300MOL0     C39495   0.796   8.069   0.483 -1.2353 -0.2567  0.9864
  300MOL0     C39496   0.718   7.988   0.567 -0.3877  0.0565 -0.0320
  300MOL0     C39497   0.577   7.992   0.539  1.2124  0.9285 -0.2239
  300MOL0     O39498   0.516   8.085   0.456  0.0869  1.0915  0.1161
  300MOL0     C39499   0.384   8.075   0.430 -0.5753  0.5072  0.0483
  300MOL0     C39500   0.315   8.200   0.414 -0.4446  0.3875  0.0036
  300MOL0     C39501   0.184   8.212   0.372 -0.1595 -0.7806 -0.0487
  300MOL0     C39502   0.103   8.093   0.347 -0.1874 -0.1063 -0.4109
  300MOL0     O39503  -0.027   8.106   0.306 -0.8022 -0.1684 -0.1084
  300MOL0     C39504  -0.106   7.997   0.252  0.9592  0.5303 -0.2080
  300MOL0     C39505  -0.191   7.935   0.364  0.1023  0.3860 -0.3409
  300MOL0     C39506  -0.283   8.031   0.440  0.8103 -1.2843  0.4802
  300MOL0     C39507  -0.395   8.077   0.348  0.2724  0.0330 -0.6550
  300MOL0     C39508  -0.510   8.128   0.437  0.2897 -0.0562 -0.8515
  300MOL0     C39509  -0.649   8.109   0.375  0.7550  0.0872  0.2274
  300MOL0     C39510  -0.759   8.141   0.485 -0.0316 -0.2454  0.4862
  300MOL0     C39511  -0.897   8.091   0.446  0.2857  0.3384  0.1825
  300MOL0    Cl39512  -0.968   8.190   0.313  0.4232 -0.2446 -0.0442
  300MOL0     C39513   0.174   7.966   0.368 -0.7473  0.0761  0.5933
  300MOL0     C39514   0.308   7.956   0.410 -0.0858  0.5278  0.3290
  300MOL0     O39515   0.513   7.900   0.594 -0.6117  0.3389 -0.3857
  300MOL0     C39516   0.769   7.924   0.675 -0.6628 -0.5682 -0.0820
  300MOL0     C39517   0.911   7.923   0.685 -0.0393 -0.2668 -0.2035
  300MOL0     N39518   1.702   7.799   0.290  0.1159  0.8744 -0.7780
  300MOL0     N39519   1.797   7.717   0.257 -0.0584 -0.6444  0.8267
  300MOL0     C39520   3.016   8.157   0.139  0.0748  0.3060  0.6187
  300MOL0     C39521   3.160   8.162   0.130 -0.0390 -0.4207  0.2204
  300MOL0     C39522   3.574   7.946   0.183  0.4935  0.1624  0.1329
  300MOL0     C39523   3.618   7.932   0.054 -0.4408  0.0485 -0.0730
  300MOL0     C39524   3.752   7.907   0.036 -0.3239  0.1106 -0.3221
  300MOL0     C39525   3.845   7.892   0.144  0.1209  0.0690 -0.2211
  300MOL0     O39526   3.980   7.894   0.111 -0.5307  0.5050  0.3104
  300MOL0     C39527   4.081   7.825   0.188  0.2259  0.7437  0.2708
  300MOL0     C39528   4.208   7.836   0.107  0.7180 -1.2262  0.5585
  300MOL0     C39529   4.327   7.775   0.172  0.4783  0.2121  0.3057
  300MOL0     C39530   4.461   7.764   0.081  0.1801  0.5381 -0.1673
  300MOL0     C39531   4.453   7.656  -0.025  0.4609 -0.3034  0.0386
  300MOL0     C39532   4.411   7.575  -0.099  0.9941 -0.0791 -0.1851
  300MOL0     C39533   3.791   7.907   0.271 -0.1622  0.0936  0.0968
  300MOL0     C39534   3.658   7.931   0.300  0.0097 -0.3748  0.0144
  300MOL0     H39535   3.212   7.824   0.116  1.1442 -0.3188 -0.9553
  300MOL0     H39536   2.970   7.824   0.103  0.9298 -0.1800  0.8355
  300MOL0     H39537   2.775   7.832   0.199 -0.8352 -0.4981  0.4131
  300MOL0     H39538   2.720   7.892   0.050 -1.0816 -2.0010  0.0983
  300MOL0     H39539   2.549   8.041   0.198  0.8932 -0.9496 -1.2854
  300MOL0     H39540   2.608   7.943   0.336 -1.8336  0.0987  0.3128
  300MOL0     H39541   2.547   7.736   0.209  1.9668  0.7658 -0.0685
  300MOL0     H39542   2.482   7.860   0.090  0.5835 -0.2056  0.8034
  300MOL0     H39543   2.380   7.852   0.370 -2.5042  0.4508  1.3406
  300MOL0     H39544   2.325   7.935   0.224  1.2514  0.1855 -2.3784
  300MOL0     H39545   2.351   7.636   0.231  1.5082  1.9214  0.9488
  300MOL0     H39546   2.226   7.726   0.136  1.8806  0.0746 -2.0713
  300MOL0     H39547   2.100   7.794   0.350 -1.5903 -0.2436 -0.0986
  300MOL0     H39548   2.195   7.671   0.430  0.7183  0.5999 -0.8781
  300MOL0     H39549   2.023   7.621   0.182  1.8637  2.9584  0.0792
  300MOL0     H39550   2.111   7.494   0.274 -0.4560 -0.5265  0.7267
  300MOL0     H39551   2.002   7.577   0.491  3.3894 -0.3626 -1.6682
  300MOL0     H39552   1.902   7.471   0.379  0.5467  0.5083 -1.4775
  300MOL0     H39553   1.790   7.717   0.593  1.3756 -0.8303 -0.5530
  300MOL0     H39554   1.591   7.997   0.427 -1.9684 -0.0626 -0.5322
  300MOL0     H39555   1.622   7.931   0.585  2.7895 -0.4415 -0.9718
  300MOL0     H39556   1.429   7.769   0.508 -1.1533  0.0025 -0.5536
  300MOL0     H39557   1.424   7.872   0.363 -0.6401 -0.7469 -1.0660
  300MOL0     H39558   1.388   7.978   0.646  1.9575 -0.0496 -0.4325
  300MOL0     H39559   1.353   8.068   0.493  0.9776 -1.2337 -1.1174
  300MOL0     H39560   1.196   7.819   0.532 -4.0102  0.7892  0.4514
  300MOL0     H39561   1.175   7.973   0.435 -2.4041  0.7029  1.4092
  300MOL0     H39562   1.003   8.143   0.439 -0.7294 -0.1238 -2.2597
  300MOL0     H39563   0.751   8.121   0.400 -1.2397  1.2044  1.8751
  300MOL0     H39564   0.367   8.295   0.422 -0.4500  0.7227 -2.7688
  300MOL0     H39565   0.132   8.307   0.377 -0.8271 -1.1899  1.5464
  300MOL0     H39566  -0.048   7.912   0.216 -0.1233 -0.0746 -0.5420
  300MOL0     H39567  -0.174   8.031   0.174  0.2808 -2.5499 -1.0912
  300MOL0     H39568  -0.122   7.889   0.435  0.0672 -0.6456 -0.9631
  300MOL0     H39569  -0.254   7.855   0.323  0.1268  0.6988 -1.0060
  300MOL0     H39570  -0.223   8.113   0.479 -0.1690 -0.4339  0.2313
  300MOL0     H39571  -0.312   7.969   0.525  0.1802 -1.1620  0.3582
  300MOL0     H39572  -0.353   8.141   0.270  0.6299 -2.7421 -2.8835
  300MOL0     H39573  -0.429   7.982   0.306  0.5596 -2.6512  4.4755
  300MOL0     H39574  -0.494   8.234   0.460  2.3876 -0.8138  1.6949
  300MOL0     H39575  -0.515   8.077   0.533  2.6207  0.3124 -0.4696
  300MOL0     H39576  -0.640   8.002   0.355 -0.5639  0.2058 -1.1524
  300MOL0     H39577  -0.656   8.162   0.280  1.5650  0.5420  0.4161
  300MOL0     H39578  -0.727   8.074   0.566  2.1928  0.0418 -0.0889
  300MOL0     H39579  -0.766   8.237   0.536 -0.0442 -0.4601  0.8950
  300MOL0     H39580  -0.960   8.092   0.536 -2.9601 -1.8331 -1.8742
  300MOL0     H39581  -0.885   7.994   0.398  1.4316  1.2343 -1.4441
  300MOL0     H39582   0.116   7.875   0.350  1.0371 -0.6648 -1.8483
  300MOL0     H39583   0.365   7.864   0.412 -1.0921 -0.3105 -3.0183
  300MOL0     H39584   0.708   7.879   0.752 -1.2261  0.5797  0.1589
  300MOL0     H39585   0.954   7.864   0.766 -0.1562  1.2939  1.0458
  300MOL0     H39586   2.974   8.256   0.155  0.2079  0.4680 -0.0367
  300MOL0     H39587   3.213   8.256   0.124  1.8477 -1.4592  0.0609
  300MOL0     H39588   3.559   7.940  -0.037  1.0952  0.6174 -1.0486
  300MOL0     H39589   3.790   7.905  -0.065  0.0191  4.3480 -0.4807
  300MOL0     H39590   4.059   7.721   0.213  1.9925  0.5039  0.9813
  300MOL0     H39591   4.099   7.876   0.283 -0.2956 -0.1230  0.8478
  300MOL0     H39592   4.202   7.778   0.014  0.9562 -0.3318 -0.0369
  300MOL0     H39593   4.225   7.939   0.073 -1.6619 -0.1925  2.2316
  300MOL0     H39594   4.291   7.677   0.204 -1.5661  1.2417  1.3999
  300MOL0     H39595   4.356   7.829   0.263  1.9556 -1.5909  0.9746
  300MOL0     H39596   4.490   7.858   0.034 -1.2732  0.2563 -1.7135
  300MOL0     H39597   4.540   7.740   0.153  0.5921  1.1621 -0.4013
  300MOL0     H39598   4.384   7.492  -0.160  0.1964  0.3452 -0.4206
  300MOL0     H39599   3.860   7.905   0.355 -1.4819  0.4469  1.2323
  300MOL0     H39600   3.637   7.951   0.405  1.2371  0.1352  0.1846
  301MOL0     O39601  10.147   9.470   5.042 -0.2105  0.3423 -0.9186
  301MOL0     C39602  10.153   9.406   4.943 -0.4619  0.2851 -1.0753
  301MOL0     O39603  10.041   9.361   4.874 -0.0325 -0.1764 -0.4850
  301MOL0     C39604   9.918   9.353   4.935 -0.6047 -0.2431  0.3817
  301MOL0     C39605   9.890   9.357   5.080  0.0615  0.4678  0.6297
  301MOL0     C39606   9.761   9.371   5.131  0.7226 -0.3979  0.3165
  301MOL0     C39607   9.647   9.360   5.047 -0.2160 -0.0666  0.4924
  301MOL0     O39608   9.526   9.371   5.102 -0.0647 -0.3571 -0.2765
  301MOL0     C39609   9.416   9.395   5.020 -0.0893 -0.4604  0.2894
  301MOL0     C39610   9.291   9.437   5.096 -0.0380 -0.9263  0.2504
  301MOL0     C39611   9.157   9.354   5.070 -0.8880 -1.0812 -0.7674
  301MOL0     C39612   9.131   9.297   4.929 -1.2435  0.1928  0.1572
  301MOL0     C39613   8.986   9.273   4.898 -0.7046  0.4118 -0.9142
  301MOL0     C39614   8.959   9.230   4.757  0.3006  0.7691 -0.4679
  301MOL0     C39615   8.798   9.229   4.735 -0.1690  0.0682  0.7265
  301MOL0     C39616   8.755   9.370   4.702 -0.3205 -0.1485  0.0788
  301MOL0     N39617   8.619   9.386   4.653 -0.7071 -0.3094  0.4427
  301MOL0     C39618   8.575   9.496   4.584 -0.4629  0.3143  0.9987
  301MOL0     C39619   8.443   9.478   4.576 -0.2745 -0.0869 -0.8835
  301MOL0     C39620   8.350   9.575   4.514  0.5434 -0.4212 -0.4447
  301MOL0     C39621   8.356   9.709   4.572  0.1721 -0.0330  0.0825
  301MOL0     C39622   8.276   9.813   4.497 -0.6848  0.0741  0.3701
  301MOL0     C39623   8.138   9.770   4.435 -0.1757 -0.2370 -0.9221
  301MOL0     O39624   8.088   9.890   4.368 -0.3406  0.2247  0.3677
  301MOL0     C39625   7.947   9.907   4.365  0.1611  0.6615 -0.8547
  301MOL0     C39626   7.850   9.838   4.432 -0.8592  0.6384  1.2453
  301MOL0     C39627   7.718   9.865   4.420 -0.1019 -0.0458 -0.0568
  301MOL0     C39628   7.678   9.977   4.345  1.2082 -0.4611 -0.4188
  301MOL0     C39629   7.535  10.018   4.336  0.1570  0.5643  0.1637
  301MOL0     O39630   7.517  10.144   4.274 -0.9542 -0.3618 -0.8368
  301MOL0     C39631   7.390  10.197   4.261 -0.8806 -0.1790  0.6199
  301MOL0     C39632   7.303  10.163   4.161 -0.1395 -0.5382  0.6026
  301MOL0     C39633   7.167  10.203   4.159 -0.2698 -0.0958  0.2778
  301MOL0     C39634   7.121  10.292   4.250 -0.2970  1.0212  0.1850
  301MOL0     O39635   6.992  10.336   4.235 -0.3465  0.2513  1.0699
  301MOL0     C39636   6.919  10.375   4.346 -0.9691  0.1447 -0.5317
  301MOL0     C39637   6.773  10.343   4.341 -0.3020 -0.5102  0.2018
  301MOL0     C39638   6.738  10.199   4.306 -0.4342 -0.0068 -0.4815
  301MOL0     C39639   6.593  10.184   4.273 -0.5975  0.4901  0.8340
  301MOL0     C39640   6.544  10.238   4.134 -1.6173  0.2188 -0.2687
  301MOL0     C39641   6.394  10.221   4.109 -0.1805 -0.6979  0.3652
  301MOL0     C39642   6.293  10.285   4.206 -0.3194 -0.5897  0.0976
  301MOL0     C39643   6.293  10.440   4.169 -0.8238  0.0568 -0.5157
  301MOL0    Cl39644   6.184  10.506   4.294  0.2226 -0.0760  0.0266
  301MOL0     C39645   7.198  10.328   4.358 -0.0328 -0.2152  0.4351
  301MOL0     C39646   7.334  10.280   4.361  0.3073  0.3239 -0.0817
  301MOL0     O39647   7.447   9.942   4.367  0.4411  0.1808 -0.1405
  301MOL0     C39648   7.782  10.043   4.272  1.1636  0.0291  0.2442
  301MOL0     C39649   7.916  10.010   4.282  0.0468  0.2424 -0.6169
  301MOL0     N39650   8.409   9.367   4.648 -0.2912 -0.4812 -0.5273
  301MOL0     N39651   8.512   9.308   4.679 -0.7292  0.4686  0.2073
  301MOL0     C39652   9.672   9.349   4.905 -0.0381 -0.1900  0.6046
  301MOL0     C39653   9.802   9.344   4.856 -0.1132  0.2725  0.8190
  301MOL0     C39654  10.283   9.366   4.897 -0.6881 -0.4184  0.5786
  301MOL0     C39655  10.390   9.375   4.979  0.5786  0.5960  0.4888
  301MOL0     C39656  10.511   9.324   4.933  0.4248  0.0751 -0.7251
  301MOL0     C39657  10.529   9.259   4.817 -0.3893  0.0474  0.0099
  301MOL0     O39658  10.661   9.227   4.782  0.3261 -0.3297  0.7188
  301MOL0     C39659  10.682   9.107   4.707 -0.4162 -0.2687  0.6400
  301MOL0     C39660  10.640   8.985   4.785 -0.4870 -1.0816  0.2438
  301MOL0     C39661  10.718   8.981   4.918  0.7745 -0.7211  0.7892
  301MOL0     C39662  10.728   8.831   4.975 -0.8671 -0.1509 -0.3810
  301MOL0     C39663  10.837   8.829   5.070 -0.4475 -0.1043  1.2484
  301MOL0     C39664  10.926   8.833   5.156  0.5947  0.2812  1.0864
  301MOL0     C39665  10.416   9.248   4.731 -0.1800 -0.3701  0.9303
  301MOL0     C39666  10.291   9.301   4.774  0.6707  0.3090  0.3863
  301MOL0     H39667   9.974   9.351   5.150  1.1441  0.3555 -0.6412
  301MOL0     H39668   9.759   9.387   5.238  1.3001 -1.2049  0.4498
  301MOL0     H39669   9.401   9.297   4.974  2.7066 -0.0514 -1.7828
  301MOL0     H39670   9.437   9.472   4.945 -0.7712  1.7676  2.2291
  301MOL0     H39671   9.263   9.542   5.083 -1.5436 -1.4067 -0.5452
  301MOL0     H39672   9.313   9.428   5.203  0.2765 -0.3102  0.2447
  301MOL0     H39673   9.077   9.420   5.107 -1.2851 -2.6188  1.2905
  301MOL0     H39674   9.165   9.268   5.137  0.9119 -1.8784 -1.9400
  301MOL0     H39675   9.173   9.372   4.860 -0.3684 -0.8570 -0.4872
  301MOL0     H39676   9.177   9.199   4.915 -4.5568 -1.2603 -1.5614
  301MOL0     H39677   8.933   9.365   4.926 -1.1020 -0.0093 -0.2677
  301MOL0     H39678   8.953   9.202   4.974  3.2850  1.3780  1.9894
  301MOL0     H39679   8.997   9.129   4.737  0.2519  0.4938  0.7941
  301MOL0     H39680   9.004   9.310   4.696  1.3266 -0.5573 -1.5178
  301MOL0     H39681   8.778   9.168   4.647  0.3731  0.3932  0.3652
  301MOL0     H39682   8.743   9.183   4.817 -0.6622 -0.1017  0.3012
  301MOL0     H39683   8.813   9.403   4.616  1.5383 -1.1802  0.8854
  301MOL0     H39684   8.765   9.433   4.791  1.2738  1.0351 -0.9034
  301MOL0     H39685   8.647   9.564   4.540 -2.2789  0.0323 -2.8461
  301MOL0     H39686   8.255   9.522   4.513  1.6841 -2.5905  0.4295
  301MOL0     H39687   8.369   9.587   4.407 -0.5063 -2.0009 -0.8417
  301MOL0     H39688   8.463   9.732   4.564  0.2227 -0.9438 -3.1646
  301MOL0     H39689   8.314   9.700   4.672 -1.2628 -0.5839 -0.5498
  301MOL0     H39690   8.255   9.893   4.568 -2.0881  1.0578 -1.0927
  301MOL0     H39691   8.335   9.854   4.415 -0.7122  0.0082  0.3171
  301MOL0     H39692   8.069   9.727   4.508  0.7284 -0.5040 -0.2235
  301MOL0     H39693   8.141   9.690   4.360  0.7386 -0.5503 -0.5601
  301MOL0     H39694   7.869   9.750   4.492 -2.8541 -0.0592  0.9274
  301MOL0     H39695   7.644   9.806   4.475 -1.9022  0.1425 -2.1182
  301MOL0     H39696   7.352  10.095   4.092  1.9345  0.5031  0.9859
  301MOL0     H39697   7.109  10.174   4.072  2.4562  0.0112 -1.6877
  301MOL0     H39698   6.917  10.482   4.364 -0.4976  0.6119 -3.0063
  301MOL0     H39699   6.951  10.325   4.439 -0.2902 -0.5195 -1.1022
  301MOL0     H39700   6.739  10.409   4.261 -0.1674  1.0755  1.3973
  301MOL0     H39701   6.725  10.376   4.434  3.5485  0.7164  1.9567
  301MOL0     H39702   6.758  10.147   4.400 -3.2555 -1.3179 -0.5166
  301MOL0     H39703   6.804  10.161   4.227 -0.5503 -0.5912 -0.3015
  301MOL0     H39704   6.569  10.077   4.271  1.5241 -0.0364 -0.4421
  301MOL0     H39705   6.529  10.229   4.349  0.4455  0.8166  1.5287
  301MOL0     H39706   6.605  10.190   4.058 -0.6667 -2.3279  1.9416
  301MOL0     H39707   6.564  10.345   4.138 -0.6495  0.0347  2.6152
  301MOL0     H39708   6.377  10.113   4.102 -1.4500 -0.3950 -2.3251
  301MOL0     H39709   6.378  10.261   4.009  3.9080 -0.4542 -0.3469
  301MOL0     H39710   6.197  10.239   4.182  0.1813 -1.4921 -0.2376
  301MOL0     H39711   6.318  10.261   4.310  0.1334  1.5000  0.5107
  301MOL0     H39712   6.250  10.465   4.072 -1.8780  1.7442  0.3531
  301MOL0     H39713   6.396  10.475   4.181 -0.5006 -0.6551 -1.1276
  301MOL0     H39714   7.160  10.400   4.430  0.0090  0.7919 -0.5234
  301MOL0     H39715   7.397  10.302   4.447  1.0963 -2.0961  0.0347
  301MOL0     H39716   7.756  10.115   4.195  0.6921 -0.7756 -0.3570
  301MOL0     H39717   7.990  10.048   4.212  1.1612 -2.4371 -1.0280
  301MOL0     H39718   9.588   9.351   4.837 -0.2132 -1.6084  0.7415
  301MOL0     H39719   9.820   9.340   4.749 -0.6465 -0.4263  0.7512
  301MOL0     H39720  10.394   9.412   5.080  3.9280 -3.5992  2.2296
  301MOL0     H39721  10.590   9.339   5.006  1.9004 -1.3453 -1.9710
  301MOL0     H39722  10.784   9.103   4.667 -1.2711 -2.8364 -1.5506
  301MOL0     H39723  10.620   9.119   4.617 -1.2080  0.9003  1.3138
  301MOL0     H39724  10.538   8.977   4.824  0.2308  2.7845  3.7048
  301MOL0     H39725  10.656   8.894   4.728 -0.8598  0.2089 -2.0399
  301MOL0     H39726  10.662   9.048   4.984  1.6272 -0.5026  1.2930
  301MOL0     H39727  10.817   9.023   4.902 -0.4110  1.7095 -0.8512
  301MOL0     H39728  10.636   8.812   5.031 -0.1403 -0.6022  0.7005
  301MOL0     H39729  10.743   8.766   4.888  3.9461 -0.8908  0.7220
  301MOL0     H39730  10.997   8.852   5.235 -0.1161  0.4740  1.6888
  301MOL0     H39731  10.419   9.213   4.629 -3.7340  2.5097 -0.3935
  301MOL0     H39732  10.209   9.286   4.704  1.2266  1.4501 -0.5619
  302MOL0     O39733   6.455   6.600   8.506 -0.5514 -0.2799  0.1422
  302MOL0     C39734   6.532   6.659   8.584  0.5432  1.0566 -0.2038
  302MOL0     O39735   6.501   6.739   8.690 -0.1002  0.0522  0.4104
  302MOL0     C39736   6.384   6.710   8.752  0.8519 -0.1189 -0.3181
  302MOL0     C39737   6.350   6.576   8.790  0.2181 -0.1663  0.5236
  302MOL0     C39738   6.230   6.546   8.865 -0.2827 -0.5599 -0.1204
  302MOL0     C39739   6.143   6.650   8.897 -0.1447  0.6345  0.1072
  302MOL0     O39740   6.020   6.629   8.962  0.2539  0.3442  0.2380
  302MOL0     C39741   5.946   6.513   8.933  0.1442  0.8117 -0.3117
  302MOL0     C39742   5.825   6.502   9.024  0.1812 -0.4594 -0.4607
  302MOL0     C39743   5.753   6.362   9.012 -0.5643  1.1909 -0.8105
  302MOL0     C39744   5.809   6.267   9.106 -0.6273 -0.8139 -0.2208
  302MOL0     C39745   5.756   6.127   9.085 -0.1367  0.2802 -0.6026
  302MOL0     C39746   5.607   6.111   9.120 -0.1149  0.5079  0.7179
  302MOL0     C39747   5.587   6.110   9.271  0.1860 -0.1907 -0.5372
  302MOL0     C39748   5.437   6.067   9.297  0.8329 -0.2192  0.2550
  302MOL0     N39749   5.393   6.114   9.432 -0.3504  0.4921  0.4551
  302MOL0     C39750   5.419   6.051   9.550 -0.6851  0.2645 -0.4809
  302MOL0     C39751   5.366   6.130   9.645  0.3755 -0.2093  1.2735
  302MOL0     C39752   5.373   6.122   9.793  0.0542  0.2918 -0.2213
  302MOL0     C39753   5.515   6.145   9.842 -0.3247 -0.0745 -0.3742
  302MOL0     C39754   5.526   6.216   9.977  0.1904  0.8320 -0.3947
  302MOL0     C39755   5.668   6.247  10.020 -0.3833  0.2010  0.0165
  302MOL0     O39756   5.763   6.149   9.976 -0.3420 -0.1081  0.5218
  302MOL0     C39757   5.897   6.161  10.001  0.0914 -0.2255 -0.2515
  302MOL0     C39758   5.983   6.062   9.936  0.3080  0.2587 -0.7824
  302MOL0     C39759   6.119   6.068   9.964  0.2838  0.3333 -0.7321
  302MOL0     C39760   6.174   6.179  10.040 -0.5376  0.2590 -0.3918
  302MOL0     C39761   6.327   6.185  10.058  0.2286  0.3745 -0.6923
  302MOL0     O39762   6.389   6.281  10.129 -0.3280 -1.0851 -0.0943
  302MOL0     C39763   6.526   6.268  10.141 -0.4879  0.6607 -0.7806
  302MOL0     C39764   6.602   6.381  10.131 -0.6005 -0.3010  0.2978
  302MOL0     C39765   6.733   6.387  10.158 -0.1717  0.5979 -0.0478
  302MOL0     C39766   6.798   6.279  10.197 -0.1642  0.8531 -0.5460
  302MOL0     O39767   6.931   6.298  10.233 -0.4074  0.3881  0.1390
  302MOL0     C39768   7.034   6.209  10.175  0.2123 -0.7015 -0.5111
  302MOL0     C39769   7.156   6.301  10.148 -0.0005 -0.2903  0.3475
  302MOL0     C39770   7.131   6.435  10.077 -0.2461  0.1423 -1.0179
  302MOL0     C39771   7.261   6.527  10.052  0.2033  0.2494  0.4493
  302MOL0     C39772   7.235   6.675  10.011  0.4786  0.6227 -0.2308
  302MOL0     C39773   7.164   6.746  10.135  0.3735 -0.4819  0.6339
  302MOL0     C39774   7.130   6.896  10.097  0.3689 -0.1617 -1.2278
  302MOL0     C39775   7.050   6.956  10.217 -0.4113  0.3288 -0.6225
  302MOL0    Cl39776   7.155   6.990  10.353  0.2291  0.3667 -0.0592
  302MOL0     C39777   6.734   6.150  10.196 -0.3907 -0.3994 -0.0565
  302MOL0     C39778   6.593   6.145  10.172 -0.0588 -0.1650 -0.0587
  302MOL0     O39779   6.382   6.099   9.987  0.0744  0.1637 -0.3827
  302MOL0     C39780   6.093   6.274  10.094  0.6171 -0.3814 -0.6315
  302MOL0     C39781   5.951   6.263  10.072 -0.2011  0.6325 -0.7057
  302MOL0     N39782   5.320   6.243   9.588  0.3553 -0.0176 -0.2872
  302MOL0     N39783   5.333   6.230   9.462 -0.5649 -0.0930  1.2362
  302MOL0     C39784   6.175   6.781   8.865  0.7483 -0.4048 -0.5598
  302MOL0     C39785   6.290   6.807   8.795 -1.6151 -0.9319  0.2776
  302MOL0     C39786   6.673   6.632   8.560  0.1391  0.5104  0.3948
  302MOL0     C39787   6.774   6.647   8.659 -1.2190 -0.4366 -0.0742
  302MOL0     C39788   6.915   6.629   8.628  0.0329  0.0848  0.5541
  302MOL0     C39789   6.942   6.566   8.505 -0.2248 -0.2942 -0.4187
  302MOL0     O39790   7.072   6.535   8.475 -0.5128 -0.3934  0.7699
  302MOL0     C39791   7.168   6.480   8.564 -0.3875 -0.4854 -0.7948
  302MOL0     C39792   7.229   6.364   8.486  0.2330  0.1820 -0.2221
  302MOL0     C39793   7.332   6.279   8.578  0.5726 -0.6571  0.4359
  302MOL0     C39794   7.381   6.158   8.502  0.8103 -0.1646  0.2711
  302MOL0     C39795   7.474   6.080   8.582 -0.4625  0.4270 -0.1285
  302MOL0     C39796   7.545   6.019   8.656  0.0714  0.4632  0.0020
  302MOL0     C39797   6.843   6.552   8.402  0.3993  0.0967 -0.0503
  302MOL0     C39798   6.704   6.575   8.439 -1.1629  0.0498  0.7189
  302MOL0     H39799   6.421   6.496   8.773  2.0891  1.9025 -2.3837
  302MOL0     H39800   6.219   6.444   8.899  1.8230  0.0544  2.7679
  302MOL0     H39801   6.012   6.428   8.955 -0.5155  0.5631  0.7872
  302MOL0     H39802   5.924   6.509   8.826 -0.6915  2.3338 -0.2178
  302MOL0     H39803   5.749   6.572   8.989 -0.1081  0.9023  2.5928
  302MOL0     H39804   5.853   6.525   9.127  2.5562  3.3987 -1.7313
  302MOL0     H39805   5.761   6.318   8.912 -1.5882 -2.5136  0.5692
  302MOL0     H39806   5.648   6.376   9.039 -0.2031 -2.1815  3.5407
  302MOL0     H39807   5.918   6.261   9.107 -0.6974 -3.0869 -0.7723
  302MOL0     H39808   5.785   6.303   9.207 -1.1358  1.6430 -1.1484
  302MOL0     H39809   5.817   6.053   9.138 -0.3599  1.5044  1.4751
  302MOL0     H39810   5.779   6.094   8.983  2.5039  0.0060  0.0223
  302MOL0     H39811   5.581   6.012   9.080  1.7191  0.4348 -0.4171
  302MOL0     H39812   5.546   6.182   9.064  0.0064  0.0052 -0.0678
  302MOL0     H39813   5.655   6.037   9.316  1.1927  2.0614  1.9127
  302MOL0     H39814   5.594   6.211   9.314 -2.3367 -0.7215  1.3228
  302MOL0     H39815   5.422   5.959   9.290  0.7112 -0.1954  0.1386
  302MOL0     H39816   5.364   6.112   9.229 -0.5778 -1.3130  0.9880
  302MOL0     H39817   5.478   5.962   9.571  0.8621  2.0448  3.7998
  302MOL0     H39818   5.350   6.022   9.830  0.1175  0.7780  1.1936
  302MOL0     H39819   5.298   6.189   9.836 -0.8988 -2.3600  2.5931
  302MOL0     H39820   5.580   6.204   9.776  1.9271 -1.5104  0.4423
  302MOL0     H39821   5.561   6.046   9.845  3.9698  1.5735 -2.6260
  302MOL0     H39822   5.476   6.312   9.961 -0.8438  0.4545  0.4844
  302MOL0     H39823   5.492   6.152  10.059  0.9486 -0.5227 -1.1100
  302MOL0     H39824   5.676   6.254  10.129  1.1212 -0.6227 -0.0180
  302MOL0     H39825   5.677   6.348   9.981 -0.5000 -0.4576 -1.8110
  302MOL0     H39826   5.956   5.989   9.861  1.7199 -1.0459 -0.0935
  302MOL0     H39827   6.167   5.981   9.920 -0.6819 -1.0748  0.8681
  302MOL0     H39828   6.558   6.480  10.123 -1.1699 -0.6765 -2.7157
  302MOL0     H39829   6.777   6.486  10.172 -0.6109  0.8333 -0.3184
  302MOL0     H39830   7.006   6.152  10.086  2.4610 -2.2140 -0.3435
  302MOL0     H39831   7.067   6.142  10.255  0.4962 -0.8260 -0.7314
  302MOL0     H39832   7.231   6.250  10.086 -0.5253  0.6341 -1.0966
  302MOL0     H39833   7.208   6.314  10.243  0.5496 -2.0600  0.3318
  302MOL0     H39834   7.078   6.489  10.156  4.3310 -0.2092  2.7606
  302MOL0     H39835   7.080   6.419   9.982  0.0714 -1.6920 -0.9062
  302MOL0     H39836   7.316   6.538  10.146 -0.5783 -0.1458  0.9589
  302MOL0     H39837   7.330   6.483   9.979  2.4199  0.5935  2.2273
  302MOL0     H39838   7.185   6.676   9.914  2.0288  0.8462 -1.0504
  302MOL0     H39839   7.338   6.710   9.998  0.0313  1.1503 -2.7838
  302MOL0     H39840   7.233   6.737  10.220  0.0540  1.0849  1.1100
  302MOL0     H39841   7.068   6.698  10.159  1.1187 -2.9941 -1.1183
  302MOL0     H39842   7.218   6.959  10.079  0.1537  0.7532  0.7406
  302MOL0     H39843   7.086   6.898   9.997 -1.2546 -1.5050 -0.5924
  302MOL0     H39844   6.966   6.894  10.250 -1.4654  1.8961 -0.2481
  302MOL0     H39845   7.008   7.057  10.210 -0.1141  0.7815  2.5737
  302MOL0     H39846   6.795   6.063  10.215 -1.2214 -1.2372 -1.0736
  302MOL0     H39847   6.535   6.054  10.179 -0.9614  0.4631  0.9733
  302MOL0     H39848   6.139   6.360  10.142  0.3969  0.5135 -1.9627
  302MOL0     H39849   5.887   6.343  10.108 -3.0533 -0.6584 -2.5479
  302MOL0     H39850   6.098   6.853   8.891  0.4850 -1.0994  0.6571
  302MOL0     H39851   6.317   6.911   8.780 -0.3000 -1.3787 -0.6051
  302MOL0     H39852   6.739   6.678   8.757 -1.3111  1.2118 -0.6031
  302MOL0     H39853   6.995   6.653   8.697  1.2602  1.0183 -1.1277
  302MOL0     H39854   7.114   6.440   8.651 -0.5119 -1.1806 -1.1784
  302MOL0     H39855   7.240   6.551   8.605  1.1053 -2.9029  1.0572
  302MOL0     H39856   7.155   6.287   8.463 -1.0414  0.4534  2.6650
  302MOL0     H39857   7.276   6.413   8.400 -2.4323  1.4082 -1.0717
  302MOL0     H39858   7.296   6.246   8.676  0.4884  1.3427  1.1360
  302MOL0     H39859   7.416   6.346   8.595  0.0554  0.6679 -1.8568
  302MOL0     H39860   7.295   6.096   8.477 -1.1645  1.4197  2.6615
  302MOL0     H39861   7.432   6.190   8.410  0.1413 -2.8390 -1.1089
  302MOL0     H39862   7.604   5.958   8.723 -1.5632 -0.1214  0.9768
  302MOL0     H39863   6.877   6.530   8.302  0.7112 -1.0140  0.2786
  302MOL0     H39864   6.632   6.560   8.359 -0.3466 -0.9880  0.1433
  303MOL0     O39865   3.462   6.368   3.905  0.1723  0.1265  0.1753
  303MOL0     C39866   3.510   6.306   3.805 -0.1793 -1.2070  0.2078
  303MOL0     O39867   3.432   6.264   3.694  0.3935  0.1989  0.7395
  303MOL0     C39868   3.296   6.297   3.696 -0.2583  0.1488 -1.1871
  303MOL0     C39869   3.251   6.429   3.717 -0.0125 -0.1761  0.4374
  303MOL0     C39870   3.113   6.462   3.705 -0.7987  0.0358 -0.2161
  303MOL0     C39871   3.027   6.360   3.670 -0.2660  0.8522  0.2276
  303MOL0     O39872   2.890   6.377   3.685 -0.0482 -0.4026  0.2884
  303MOL0     C39873   2.826   6.332   3.565 -0.7796  0.0149  0.1964
  303MOL0     C39874   2.691   6.376   3.538  0.1618 -0.1332  0.3396
  303MOL0     C39875   2.685   6.530   3.548 -0.4318  0.2647  0.2521
  303MOL0     C39876   2.535   6.573   3.541  0.4784  0.1391 -0.2387
  303MOL0     C39877   2.514   6.724   3.574  0.0938  0.2778  0.6982
  303MOL0     C39878   2.388   6.782   3.497 -0.5955 -0.3833  0.1013
  303MOL0     C39879   2.407   6.935   3.499  0.3743 -0.7375  0.2221
  303MOL0     C39880   2.291   7.005   3.419  0.7291 -0.0388  0.6685
  303MOL0     N39881   2.157   6.965   3.455  0.4138  0.2507 -0.0890
  303MOL0     C39882   2.078   7.026   3.550  0.1272  0.4067  0.2564
  303MOL0     C39883   1.951   6.978   3.537 -0.1873 -0.1778  0.2684
  303MOL0     C39884   1.833   6.968   3.630 -0.2472 -0.4424  0.2005
  303MOL0     C39885   1.786   7.110   3.681 -0.1708 -0.8220 -0.2206
  303MOL0     C39886   1.656   7.114   3.751 -0.2615  0.2063  0.4910
  303MOL0     C39887   1.656   7.024   3.869  0.7074 -0.2340  0.5208
  303MOL0     O39888   1.623   6.892   3.830  0.0162  0.1325 -0.4378
  303MOL0     C39889   1.494   6.859   3.807  0.3731  0.3867  0.9220
  303MOL0     C39890   1.378   6.929   3.787 -0.4140 -0.1395 -0.0832
  303MOL0     C39891   1.251   6.865   3.766  1.2999 -0.0322 -0.1302
  303MOL0     C39892   1.230   6.734   3.795 -0.1730  0.6520  0.7960
  303MOL0     C39893   1.101   6.669   3.812  0.9795 -0.6238 -0.7275
  303MOL0     O39894   1.090   6.541   3.855  0.4343 -0.5090  0.6788
  303MOL0     C39895   0.974   6.479   3.892  0.2642  0.5187  0.5059
  303MOL0     C39896   0.937   6.474   4.024  0.2192  0.9849 -0.3090
  303MOL0     C39897   0.813   6.436   4.071 -0.2472  0.2886 -0.1911
  303MOL0     C39898   0.716   6.398   3.981 -0.7833 -0.6777  0.6094
  303MOL0     O39899   0.596   6.359   4.034  0.3247 -0.0702  0.0164
  303MOL0     C39900   0.490   6.324   3.949 -0.0643  0.2602  0.0621
  303MOL0     C39901   0.383   6.247   4.033  0.8749 -0.3419 -0.0061
  303MOL0     C39902   0.258   6.229   3.948  0.4456  0.1767 -0.4984
  303MOL0     C39903   0.149   6.138   4.022 -0.5568 -0.0936  0.7723
  303MOL0     C39904   0.050   6.061   3.923  0.4387 -0.7482 -0.9155
  303MOL0     C39905  -0.066   6.008   4.007  0.5725 -0.6306  0.3346
  303MOL0     C39906  -0.127   5.889   3.930  0.5050  0.0467 -0.4942
  303MOL0     C39907  -0.280   5.890   3.933  1.1105  0.2443 -0.9913
  303MOL0    Cl39908  -0.338   5.866   4.105  0.1408 -0.0788 -0.3460
  303MOL0     C39909   0.754   6.398   3.848  0.1704 -0.7663  0.3020
  303MOL0     C39910   0.880   6.426   3.799  0.4351 -0.5431  0.5172
  303MOL0     O39911   1.009   6.740   3.781 -0.1495  0.0149  0.2284
  303MOL0     C39912   1.348   6.661   3.814  0.0449 -0.4618  0.3973
  303MOL0     C39913   1.480   6.720   3.809  0.1526  0.5791  0.0172
  303MOL0     N39914   1.955   6.901   3.415  0.4677 -1.1075  0.0847
  303MOL0     N39915   2.076   6.891   3.377  1.1971 -0.3615  0.0105
  303MOL0     C39916   3.077   6.222   3.659 -0.3824  0.4552 -0.3500
  303MOL0     C39917   3.211   6.188   3.673  0.3323  0.6417  0.5646
  303MOL0     C39918   3.654   6.273   3.801  0.3443 -0.8669 -0.0131
  303MOL0     C39919   3.704   6.194   3.694  0.1246 -0.4879  0.4647
  303MOL0     C39920   3.842   6.184   3.672 -0.1607 -0.3852 -0.9650
  303MOL0     C39921   3.935   6.240   3.762  0.7171  0.5057 -0.4453
  303MOL0     O39922   4.069   6.226   3.768 -0.1821  0.4119 -0.1478
  303MOL0     C39923   4.141   6.177   3.653  0.4115 -0.7949 -0.8331
  303MOL0     C39924   4.257   6.096   3.702  0.2201 -0.0690  0.1771
  303MOL0     C39925   4.347   6.166   3.802 -0.1678 -0.2965  0.3941
  303MOL0     C39926   4.477   6.093   3.853  0.2844 -0.8675  0.5822
  303MOL0     C39927   4.591   6.101   3.763 -0.7292 -0.6564 -0.1307
  303MOL0     C39928   4.677   6.104   3.677 -1.5289  1.0538 -0.3713
  303MOL0     C39929   3.880   6.318   3.867  0.3535 -0.5177 -0.2995
  303MOL0     C39930   3.743   6.340   3.889  0.2805 -0.0811 -0.1341
  303MOL0     H39931   3.317   6.514   3.735 -1.9851  1.7077 -0.6712
  303MOL0     H39932   3.079   6.559   3.738 -3.8371 -1.2288  0.6819
  303MOL0     H39933   2.828   6.222   3.566 -0.2957 -0.0792 -2.5746
  303MOL0     H39934   2.898   6.364   3.489  1.2983  1.6169  2.6471
  303MOL0     H39935   2.623   6.329   3.610 -0.5044  0.4910  0.1312
  303MOL0     H39936   2.670   6.357   3.432  0.7417 -0.4687  0.2829
  303MOL0     H39937   2.739   6.586   3.471 -1.5152 -0.9578 -1.4664
  303MOL0     H39938   2.731   6.550   3.646 -1.6310 -4.4494  2.0532
  303MOL0     H39939   2.497   6.543   3.443  0.7660 -1.5476  0.1364
  303MOL0     H39940   2.491   6.523   3.628 -1.5389  0.9028 -0.7710
  303MOL0     H39941   2.599   6.777   3.531 -1.2794  1.5914 -0.4971
  303MOL0     H39942   2.499   6.748   3.680  0.3590  3.0480  0.1609
  303MOL0     H39943   2.295   6.758   3.551 -1.0772  1.5937  0.2178
  303MOL0     H39944   2.380   6.741   3.396 -2.8916 -0.2305  0.1496
  303MOL0     H39945   2.381   6.970   3.600 -1.8562  2.2942 -1.2363
  303MOL0     H39946   2.508   6.969   3.474  1.2467 -2.2120  1.5747
  303MOL0     H39947   2.306   6.999   3.311 -0.0414  1.5760  0.4401
  303MOL0     H39948   2.291   7.113   3.436  0.0093  0.2723 -1.0940
  303MOL0     H39949   2.119   7.090   3.628  1.9691  0.0540 -0.3782
  303MOL0     H39950   1.862   6.909   3.717  0.6541 -0.1507  0.1090
  303MOL0     H39951   1.750   6.919   3.580 -1.2765 -0.3341  1.7159
  303MOL0     H39952   1.785   7.178   3.596  2.8645  0.7562  0.8243
  303MOL0     H39953   1.864   7.147   3.749  1.0897 -3.0385 -0.3460
  303MOL0     H39954   1.641   7.214   3.792  0.6252 -0.0559  1.4855
  303MOL0     H39955   1.588   7.084   3.671  1.0311 -2.9174  0.4161
  303MOL0     H39956   1.592   7.076   3.942 -1.1157  1.9700 -2.4385
  303MOL0     H39957   1.757   7.025   3.910  1.6550 -0.4697 -1.7002
  303MOL0     H39958   1.371   7.037   3.793  1.5858  0.2235 -2.4837
  303MOL0     H39959   1.160   6.922   3.745 -1.8790 -4.4155  0.2915
  303MOL0     H39960   1.006   6.514   4.097  2.3860 -1.5677 -0.8366
  303MOL0     H39961   0.781   6.459   4.173  0.8458  2.3469 -0.2631
  303MOL0     H39962   0.512   6.266   3.859 -0.5037 -2.4567  1.5745
  303MOL0     H39963   0.446   6.410   3.897  0.7112 -0.6771 -2.2667
  303MOL0     H39964   0.356   6.299   4.126 -1.0346 -0.8967 -0.2105
  303MOL0     H39965   0.415   6.147   4.063  0.1980 -0.9972 -1.3567
  303MOL0     H39966   0.269   6.191   3.846 -4.6097 -0.8178 -0.9310
  303MOL0     H39967   0.227   6.332   3.934  2.0476  1.0092  1.4823
  303MOL0     H39968   0.199   6.078   4.099 -0.2995  0.8421  1.3686
  303MOL0     H39969   0.085   6.210   4.074 -0.9041  1.2950 -1.4673
  303MOL0     H39970   0.107   5.982   3.872  1.5827 -0.4937 -0.0801
  303MOL0     H39971   0.003   6.131   3.854  3.2109  0.7989 -1.3747
  303MOL0     H39972  -0.143   6.086   4.014  2.3557  1.3266 -0.5359
  303MOL0     H39973  -0.045   5.990   4.113 -1.1351  3.4849  1.6014
  303MOL0     H39974  -0.101   5.882   3.824 -0.9935 -0.1506 -0.8870
  303MOL0     H39975  -0.102   5.794   3.977 -2.2953 -0.6869 -0.2633
  303MOL0     H39976  -0.311   5.806   3.870  0.5333  0.8789 -1.5637
  303MOL0     H39977  -0.326   5.983   3.899 -1.1588 -0.1942  0.6660
  303MOL0     H39978   0.695   6.352   3.770 -0.3400 -0.2418  0.3667
  303MOL0     H39979   0.914   6.408   3.697 -0.2293  0.5783  0.0682
  303MOL0     H39980   1.340   6.553   3.826 -0.1864 -0.6027 -0.8753
  303MOL0     H39981   1.570   6.662   3.827  0.7999  1.8700  1.1398
  303MOL0     H39982   3.002   6.146   3.642 -2.7347  2.5602  0.0032
  303MOL0     H39983   3.249   6.086   3.681  2.0562  1.3633  2.1203
  303MOL0     H39984   3.639   6.152   3.619  0.4267 -2.1331  1.0928
  303MOL0     H39985   3.864   6.134   3.579 -1.0711  0.4979 -1.6655
  303MOL0     H39986   4.151   6.268   3.593 -1.4275  1.4218  1.9530
  303MOL0     H39987   4.077   6.111   3.593  0.5403 -0.6878 -1.0904
  303MOL0     H39988   4.206   6.008   3.744 -1.8272  0.0194 -1.8847
  303MOL0     H39989   4.310   6.056   3.615  0.2190 -2.2190  1.1088
  303MOL0     H39990   4.291   6.188   3.894 -3.8804 -1.7495 -1.3169
  303MOL0     H39991   4.378   6.264   3.766 -2.8151  0.3953 -0.2149
  303MOL0     H39992   4.507   6.156   3.938  0.0055  0.7878 -0.4953
  303MOL0     H39993   4.461   5.989   3.883  2.6465 -2.0348 -1.8010
  303MOL0     H39994   4.757   6.112   3.607 -2.9825  1.9563 -1.9973
  303MOL0     H39995   3.947   6.362   3.940  1.3650 -2.3268 -0.0767
  303MOL0     H39996   3.704   6.408   3.965 -0.7390  2.2395 -2.5662
  304MOL0     O39997   6.342   2.702   0.499 -0.8937 -0.0142  0.0835
  304MOL0     C39998   6.350   2.582   0.531 -1.1758  0.9643  0.8587
  304MOL0     O39999   6.241   2.504   0.553 -0.0988  0.4679  0.5664
  304MOL0     C40000   6.108   2.545   0.549  0.2958 -0.0361  0.4629
  304MOL0     C40001   6.011   2.519   0.638 -0.6294 -0.2310  0.3532
  304MOL0     C40002   5.875   2.558   0.630 -0.3595 -0.1365  0.4037
  304MOL0     C40003   5.845   2.650   0.527 -0.9052 -1.0646  0.7790
  304MOL0     O40004   5.713   2.698   0.516 -0.3062  0.2093  0.0607
  304MOL0     C40005   5.610   2.699   0.616  0.0569 -0.2616  0.1576
  304MOL0     C40006   5.634   2.791   0.728  0.7112  0.5628  0.5359
  304MOL0     C40007   5.514   2.801   0.826  1.2425  0.0677  0.3513
  304MOL0     C40008   5.472   2.676   0.909  0.6803  0.3350  0.1050
  304MOL0     C40009   5.574   2.616   1.015  0.2314 -0.0733  0.6927
  304MOL0     C40010   5.536   2.592   1.164  0.3670 -0.0828  0.4861
  304MOL0     C40011   5.548   2.713   1.256  0.6875  0.9664  0.3366
  304MOL0     C40012   5.426   2.801   1.235  0.3219 -0.0605  0.8627
  304MOL0     N40013   5.404   2.903   1.332 -0.1667 -0.3055 -0.0322
  304MOL0     C40014   5.276   2.945   1.383 -0.1114 -1.0638  0.0598
  304MOL0     C40015   5.302   3.011   1.500 -0.1671 -0.8548  0.3855
  304MOL0     C40016   5.205   3.067   1.608 -0.0429 -0.6813 -0.1341
  304MOL0     C40017   5.200   2.968   1.725 -0.2936  0.2545 -0.0947
  304MOL0     C40018   5.125   3.008   1.856 -0.1419 -0.1728  0.4598
  304MOL0     C40019   5.120   3.155   1.897  0.8120  0.2457  0.7426
  304MOL0     O40020   5.029   3.227   1.804  0.1788  0.3344  0.2420
  304MOL0     C40021   4.898   3.212   1.815  0.4136 -0.3909 -0.1638
  304MOL0     C40022   4.836   3.235   1.937 -0.0625 -0.8293  0.1273
  304MOL0     C40023   4.695   3.203   1.957  0.1130  0.2225  0.0519
  304MOL0     C40024   4.615   3.157   1.855  0.3166  0.3953 -0.5472
  304MOL0     C40025   4.467   3.124   1.865 -0.8788 -0.4406  0.8806
  304MOL0     O40026   4.420   3.117   1.990  0.7346  0.0355 -0.6235
  304MOL0     C40027   4.280   3.126   2.012 -0.1453  0.3126  0.1552
  304MOL0     C40028   4.210   3.239   1.978  0.7178 -0.7126  0.4664
  304MOL0     C40029   4.082   3.260   2.037 -0.3784 -0.0525  0.1606
  304MOL0     C40030   4.017   3.169   2.119  0.3530 -0.0326 -0.6171
  304MOL0     O40031   3.898   3.206   2.174 -0.2609  0.6737 -0.6676
  304MOL0     C40032   3.796   3.117   2.218  0.9178 -0.1878  0.4556
  304MOL0     C40033   3.786   3.123   2.372  1.0202 -0.1464 -0.7000
  304MOL0     C40034   3.916   3.064   2.445 -0.2321 -0.6071 -0.2073
  304MOL0     C40035   3.930   3.114   2.581  1.0544 -0.5356 -0.5531
  304MOL0     C40036   3.803   3.078   2.664 -0.4983 -0.5741 -0.2452
  304MOL0     C40037   3.802   3.107   2.819  0.9107  0.3513  1.2504
  304MOL0     C40038   3.656   3.130   2.871  0.1804  0.5353  0.0625
  304MOL0     C40039   3.656   3.221   2.988 -0.2654 -0.2052 -0.1904
  304MOL0    Cl40040   3.492   3.227   3.063  0.0896  0.0409 -0.0835
  304MOL0     C40041   4.089   3.041   2.126  0.6802  0.2834  0.6675
  304MOL0     C40042   4.215   3.026   2.077 -0.2054  0.3213 -0.3874
  304MOL0     O40043   4.405   3.120   1.760 -0.1003 -0.5063  0.0185
  304MOL0     C40044   4.679   3.135   1.729  0.0720 -0.5954  0.4473
  304MOL0     C40045   4.819   3.159   1.711  0.5651  0.1316  0.3753
  304MOL0     N40046   5.437   3.038   1.506 -0.8887 -0.2909  0.3620
  304MOL0     N40047   5.498   2.969   1.408 -0.3489 -0.3725  0.2386
  304MOL0     C40048   5.947   2.689   0.437  0.1761  0.6825  0.2381
  304MOL0     C40049   6.077   2.631   0.443 -0.1136 -0.0767  0.6954
  304MOL0     C40050   6.492   2.515   0.546  0.8082 -0.8611 -0.2037
  304MOL0     C40051   6.498   2.378   0.539  0.1663  0.4351 -0.5531
  304MOL0     C40052   6.624   2.314   0.525  1.0440 -0.8101 -0.4682
  304MOL0     C40053   6.732   2.394   0.515 -0.2934 -0.1364  0.6580
  304MOL0     O40054   6.855   2.330   0.503 -0.1500 -0.8018  0.1622
  304MOL0     C40055   6.878   2.191   0.477  1.3684  0.3698  0.1799
  304MOL0     C40056   7.025   2.173   0.482 -0.0070 -0.2952 -0.1274
  304MOL0     C40057   7.050   2.023   0.443 -0.1842 -0.2898 -1.2387
  304MOL0     C40058   7.198   2.005   0.452  0.2563  0.7979 -0.5446
  304MOL0     C40059   7.229   1.866   0.468  0.1353  0.7020  0.5318
  304MOL0     C40060   7.260   1.750   0.481  0.0718  0.8516 -0.0776
  304MOL0     C40061   6.729   2.531   0.521 -0.2037  0.3064  0.5699
  304MOL0     C40062   6.604   2.597   0.542 -0.5465 -0.7610  0.1271
  304MOL0     H40063   6.038   2.464   0.728 -0.6122 -0.3410  0.2808
  304MOL0     H40064   5.805   2.528   0.707 -1.0207  1.4748  0.4661
  304MOL0     H40065   5.584   2.599   0.651  0.8521 -0.2544  0.7840
  304MOL0     H40066   5.532   2.742   0.552  2.8072  1.6069 -2.2298
  304MOL0     H40067   5.667   2.883   0.679 -2.5279  1.1318 -0.8532
  304MOL0     H40068   5.719   2.753   0.783  2.4445 -0.3476 -2.5123
  304MOL0     H40069   5.422   2.822   0.770 -0.6629 -1.5460  2.7001
  304MOL0     H40070   5.524   2.884   0.897  4.6178 -0.8122  1.0790
  304MOL0     H40071   5.380   2.706   0.960  0.5287 -1.1357  0.7763
  304MOL0     H40072   5.440   2.594   0.844  0.4471  1.4815 -1.2456
  304MOL0     H40073   5.662   2.680   1.018  0.7444 -0.5714 -1.7863
  304MOL0     H40074   5.609   2.521   0.973 -1.0368  0.1205 -0.8909
  304MOL0     H40075   5.612   2.522   1.201  0.6825  0.8471  1.6677
  304MOL0     H40076   5.439   2.542   1.174 -0.0362  0.6552  0.3333
  304MOL0     H40077   5.567   2.684   1.360  2.3580 -1.0502 -0.4606
  304MOL0     H40078   5.633   2.776   1.228 -0.9854  3.2310  0.0870
  304MOL0     H40079   5.332   2.745   1.242  1.3038 -2.1770 -1.3107
  304MOL0     H40080   5.438   2.850   1.138  3.3745  2.3674  2.2816
  304MOL0     H40081   5.176   2.928   1.346  0.2949  1.7217 -2.7571
  304MOL0     H40082   5.109   3.087   1.559  1.8310  0.6980 -3.5729
  304MOL0     H40083   5.245   3.161   1.646 -2.0926 -0.0244  0.5439
  304MOL0     H40084   5.301   2.935   1.748 -1.1956 -2.3982  0.4078
  304MOL0     H40085   5.152   2.880   1.680 -0.5159  1.9015 -3.4396
  304MOL0     H40086   5.023   2.969   1.860 -0.7087  1.0196 -1.1475
  304MOL0     H40087   5.181   2.953   1.933 -2.2941  1.0923  3.0706
  304MOL0     H40088   5.223   3.188   1.884  0.8905 -0.3296 -0.1736
  304MOL0     H40089   5.088   3.160   2.002 -1.4633 -0.6953  0.1581
  304MOL0     H40090   4.904   3.284   2.006 -0.2912  2.0746 -1.5372
  304MOL0     H40091   4.648   3.236   2.049  1.4430 -0.2387  0.9301
  304MOL0     H40092   4.261   3.319   1.925 -4.3106  4.5838  2.5074
  304MOL0     H40093   4.037   3.356   2.014  4.7715  2.6380 -0.3535
  304MOL0     H40094   3.809   3.014   2.185  0.6331  0.1010 -0.5666
  304MOL0     H40095   3.705   3.153   2.171  1.5308 -0.0891 -0.6764
  304MOL0     H40096   3.704   3.057   2.404  1.0716  0.8944  1.7513
  304MOL0     H40097   3.760   3.228   2.387  0.3436 -0.3416 -0.4689
  304MOL0     H40098   4.004   3.086   2.384 -0.0091 -1.2081 -0.1167
  304MOL0     H40099   3.916   2.955   2.451 -0.5393 -0.5656  0.9122
  304MOL0     H40100   4.012   3.062   2.632  0.8953  1.5810  2.0895
  304MOL0     H40101   3.943   3.223   2.571  0.3558 -0.1038  2.1999
  304MOL0     H40102   3.792   2.969   2.654 -1.8587 -0.2728 -2.7327
  304MOL0     H40103   3.723   3.133   2.614  1.1109  1.6352 -0.4946
  304MOL0     H40104   3.864   3.197   2.826 -0.3770  1.4189 -0.5323
  304MOL0     H40105   3.841   3.019   2.871 -1.6211 -1.3730  0.3974
  304MOL0     H40106   3.580   3.159   2.798 -3.1099 -1.8563  2.2008
  304MOL0     H40107   3.621   3.030   2.900 -0.3930  0.4561 -0.8667
  304MOL0     H40108   3.672   3.318   2.941 -1.6620 -0.7105 -1.7923
  304MOL0     H40109   3.735   3.198   3.061 -0.6788 -0.2196  0.2580
  304MOL0     H40110   4.059   2.954   2.185 -0.1505 -0.0235 -0.1686
  304MOL0     H40111   4.275   2.942   2.113  0.3906  0.5905 -0.7336
  304MOL0     H40112   4.617   3.100   1.647  0.8689 -0.5244 -0.2050
  304MOL0     H40113   4.865   3.129   1.618 -0.3614  0.1140 -0.0939
  304MOL0     H40114   5.931   2.757   0.354 -0.7849  1.1025  0.7532
  304MOL0     H40115   6.141   2.668   0.364 -0.9338 -0.6127 -0.2419
  304MOL0     H40116   6.401   2.329   0.537 -0.1982  1.1049  0.0741
  304MOL0     H40117   6.625   2.207   0.506 -2.0259 -1.0542  0.2407
  304MOL0     H40118   6.844   2.156   0.379  0.2105  0.5654  0.4985
  304MOL0     H40119   6.830   2.136   0.559  0.0610 -0.5860 -1.1701
  304MOL0     H40120   7.078   2.240   0.414 -1.5724  0.4584 -0.6368
  304MOL0     H40121   7.070   2.203   0.577 -0.4768  0.1246 -0.0350
  304MOL0     H40122   7.025   2.009   0.337  2.6278 -0.6513 -1.9448
  304MOL0     H40123   6.988   1.965   0.512  0.3623  0.9892  0.3817
  304MOL0     H40124   7.246   2.053   0.366 -0.5177  1.2513 -0.7348
  304MOL0     H40125   7.235   2.050   0.544  0.6284 -1.3556  0.4095
  304MOL0     H40126   7.266   1.643   0.490  0.8583  0.4183 -3.9948
  304MOL0     H40127   6.817   2.594   0.514 -0.1819  0.2696  0.5105
  304MOL0     H40128   6.588   2.704   0.553 -1.7342 -0.7209 -1.6779
  305MOL0     O40129   1.443   1.505  10.651 -0.8212  0.1300  0.2547
  305MOL0     C40130   1.438   1.410  10.575 -0.5378  0.1314 -0.2050
  305MOL0     O40131   1.329   1.347  10.531  0.1028 -0.0731  0.2623
  305MOL0     C40132   1.206   1.387  10.551  1.8598 -0.5083  0.1683
  305MOL0     C40133   1.160   1.484  10.644  0.3502 -0.3509  0.0439
  305MOL0     C40134   1.024   1.509  10.652 -0.0733  0.3512  0.7726
  305MOL0     C40135   0.927   1.436  10.579 -0.6911 -1.0847  0.6142
  305MOL0     O40136   0.804   1.474  10.613 -0.0130 -0.9825  0.2510
  305MOL0     C40137   0.702   1.457  10.513  1.1456  0.0739 -0.2259
  305MOL0     C40138   0.727   1.543  10.387  0.2089  0.3909 -0.0498
  305MOL0     C40139   0.618   1.534  10.280 -0.2394  0.4434  0.5274
  305MOL0     C40140   0.660   1.622  10.163  0.1143 -0.9914  0.1819
  305MOL0     C40141   0.550   1.618  10.052 -0.1071 -0.4787 -0.0742
  305MOL0     C40142   0.585   1.697   9.924  1.0062  0.4016  0.0870
  305MOL0     C40143   0.599   1.848   9.949  0.5893  0.0469  0.1716
  305MOL0     C40144   0.623   1.929   9.818 -0.1067  0.2650  0.6736
  305MOL0     N40145   0.702   2.047   9.841 -0.4346  0.3163  0.0933
  305MOL0     C40146   0.824   2.080   9.789 -0.4984  1.9092  0.6208
  305MOL0     C40147   0.858   2.197   9.849 -0.2922 -0.2768  0.6494
  305MOL0     C40148   0.977   2.280   9.824  0.6489 -0.0480 -0.5825
  305MOL0     C40149   1.108   2.231   9.873  0.0548 -0.7091 -0.4404
  305MOL0     C40150   1.164   2.099   9.797  0.3133  0.0695 -0.8366
  305MOL0     C40151   1.262   2.019   9.884  0.1617 -0.0920  1.0403
  305MOL0     O40152   1.287   1.904   9.792 -0.1598 -0.3010 -0.2753
  305MOL0     C40153   1.382   1.810   9.820  0.0025  0.2019  0.0786
  305MOL0     C40154   1.412   1.717   9.721  0.3732 -0.1422 -0.2243
  305MOL0     C40155   1.499   1.612   9.758 -0.4685 -0.5638  0.2598
  305MOL0     C40156   1.557   1.598   9.882  0.2525 -0.0950 -0.3661
  305MOL0     C40157   1.655   1.485   9.900  0.1280  0.9600 -0.5055
  305MOL0     O40158   1.693   1.447  10.018  0.2128 -0.2581  0.0097
  305MOL0     C40159   1.795   1.353  10.028  0.4130  1.1501 -1.2040
  305MOL0     C40160   1.931   1.390  10.003 -0.1152 -1.3143  0.0450
  305MOL0     C40161   2.027   1.298  10.016 -0.2522 -0.5115  0.9855
  305MOL0     C40162   1.993   1.164  10.042 -0.4492  0.4429  0.9845
  305MOL0     O40163   2.084   1.060  10.040  1.0509  0.2699  0.0338
  305MOL0     C40164   2.199   1.075   9.964 -0.0355 -0.3386  0.2302
  305MOL0     C40165   2.287   0.945   9.975  0.3331 -0.3242  0.3076
  305MOL0     C40166   2.398   0.942   9.857 -0.2656 -0.3652  0.2224
  305MOL0     C40167   2.332   0.875   9.728  0.1317 -0.8610 -0.2685
  305MOL0     C40168   2.444   0.847   9.617  0.7247 -0.4127 -0.4337
  305MOL0     C40169   2.391   0.772   9.499  1.6255  0.1580 -0.7242
  305MOL0     C40170   2.477   0.747   9.376  0.2992  0.0293 -0.4554
  305MOL0     C40171   2.418   0.677   9.253  0.8003 -0.4162 -0.0237
  305MOL0    Cl40172   2.350   0.528   9.315  0.1789  0.3249  0.1726
  305MOL0     C40173   1.863   1.131  10.084  0.1768 -0.2053  0.3924
  305MOL0     C40174   1.761   1.225  10.078  0.2529 -0.3439 -0.6952
  305MOL0     O40175   1.701   1.442   9.793  0.1088 -0.3215 -1.0184
  305MOL0     C40176   1.527   1.694   9.977  0.1891  0.5447 -0.1725
  305MOL0     C40177   1.436   1.796   9.950 -0.2039  0.6493 -0.9915
  305MOL0     N40178   0.768   2.220   9.956 -0.1198  0.1977  0.3473
  305MOL0     N40179   0.672   2.143   9.939  0.9533  0.1141 -0.2766
  305MOL0     C40180   0.973   1.336  10.490  0.5959 -0.0314 -0.4066
  305MOL0     C40181   1.108   1.308  10.481 -0.4007 -0.2698  0.0315
  305MOL0     C40182   1.573   1.342  10.546 -0.6224 -0.4956 -0.8084
  305MOL0     C40183   1.687   1.421  10.536 -0.1100 -1.1504  0.6538
  305MOL0     C40184   1.807   1.348  10.515 -0.4200  0.6986  0.1619
  305MOL0     C40185   1.808   1.209  10.499  0.1423 -0.6588  0.0516
  305MOL0     O40186   1.923   1.129  10.482 -0.1272 -0.1873 -0.4869
  305MOL0     C40187   2.052   1.191  10.464 -0.3423 -0.0195 -0.0068
  305MOL0     C40188   2.146   1.083  10.423 -0.9175 -0.2433 -0.4255
  305MOL0     C40189   2.282   1.147  10.378  0.0620 -0.0180  0.4727
  305MOL0     C40190   2.371   1.186  10.499 -0.3133  0.2519  0.2648
  305MOL0     C40191   2.490   1.250  10.448  0.5087  0.2021 -0.0348
  305MOL0     C40192   2.587   1.307  10.418 -1.0668 -0.7450 -0.4783
  305MOL0     C40193   1.688   1.136  10.513  0.6231  0.0139 -0.7297
  305MOL0     C40194   1.574   1.207  10.532  0.6236  0.2274  0.7389
  305MOL0     H40195   1.228   1.531  10.714  1.2832  0.4046 -1.3385
  305MOL0     H40196   0.984   1.593  10.708 -3.1049 -1.4703  1.5881
  305MOL0     H40197   0.613   1.504  10.555  1.0329  0.1168 -0.5121
  305MOL0     H40198   0.680   1.353  10.488  2.2951 -0.7399  1.9124
  305MOL0     H40199   0.819   1.517  10.334 -1.5853 -2.7425 -1.9822
  305MOL0     H40200   0.725   1.645  10.425 -0.0315  0.1497  0.6024
  305MOL0     H40201   0.528   1.571  10.331 -0.0307  1.5108  0.1380
  305MOL0     H40202   0.597   1.432  10.247 -3.3132  0.6742  1.4418
  305MOL0     H40203   0.691   1.720  10.201  1.3724 -1.9625  1.7846
  305MOL0     H40204   0.753   1.579  10.126  0.8386 -1.4398  2.4226
  305MOL0     H40205   0.452   1.651  10.087  0.2640  0.3627  0.1920
  305MOL0     H40206   0.535   1.510  10.042  0.6691 -0.7369  1.3318
  305MOL0     H40207   0.511   1.692   9.843  4.3581  2.3457 -3.4062
  305MOL0     H40208   0.667   1.642   9.877 -2.4376 -1.6560 -4.3200
  305MOL0     H40209   0.506   1.888   9.991  0.0099 -1.2289  0.1601
  305MOL0     H40210   0.693   1.865  10.002  1.0659  1.3624 -1.0372
  305MOL0     H40211   0.529   1.968   9.777  1.0909  0.3986 -2.2475
  305MOL0     H40212   0.678   1.861   9.751  1.9691  0.2613  2.2827
  305MOL0     H40213   0.870   2.027   9.706  2.8695  2.3211  2.0677
  305MOL0     H40214   0.944   2.361   9.890  0.4459 -0.5448 -0.0588
  305MOL0     H40215   0.974   2.327   9.726 -0.0743  0.8820 -0.1328
  305MOL0     H40216   1.087   2.216   9.980 -0.1745  3.2300  0.2172
  305MOL0     H40217   1.186   2.307   9.878 -2.6088  2.1190  2.9272
  305MOL0     H40218   1.085   2.031   9.764  1.0117 -0.3582 -1.6699
  305MOL0     H40219   1.221   2.139   9.712 -1.6775  0.7012 -1.9455
  305MOL0     H40220   1.219   1.998   9.983 -0.5105 -0.9858  0.5729
  305MOL0     H40221   1.356   2.073   9.896  1.1673 -1.6807  0.4957
  305MOL0     H40222   1.366   1.730   9.624  2.2360 -1.7234 -1.3979
  305MOL0     H40223   1.513   1.533   9.684 -1.0627 -0.6574  0.2421
  305MOL0     H40224   1.962   1.492   9.984 -1.6880 -0.6445  0.8645
  305MOL0     H40225   2.130   1.326   9.997 -0.8835  0.0544 -1.9745
  305MOL0     H40226   2.254   1.165   9.993 -1.6525  0.5208  0.7875
  305MOL0     H40227   2.178   1.089   9.858 -0.5870  2.2891  0.6183
  305MOL0     H40228   2.215   0.863   9.968  0.1216 -0.1203  0.0513
  305MOL0     H40229   2.333   0.948  10.074  0.8929  0.9313  0.0343
  305MOL0     H40230   2.485   0.888   9.895  0.6104  1.0701  0.3038
  305MOL0     H40231   2.442   1.037   9.825  0.5118 -1.2886 -1.6356
  305MOL0     H40232   2.271   0.787   9.751  0.3733 -0.9257  0.1368
  305MOL0     H40233   2.272   0.949   9.674 -1.2848 -1.1833  0.8042
  305MOL0     H40234   2.530   0.786   9.648  1.3227  0.0059 -1.2431
  305MOL0     H40235   2.481   0.944   9.581  2.1448 -0.4167  0.8890
  305MOL0     H40236   2.293   0.812   9.472  0.1792 -2.3507  0.4984
  305MOL0     H40237   2.367   0.674   9.539  3.7461 -0.1855 -0.1492
  305MOL0     H40238   2.515   0.843   9.340  0.4739 -0.1373 -0.7244
  305MOL0     H40239   2.565   0.687   9.404 -0.5934 -1.4728 -0.7673
  305MOL0     H40240   2.489   0.661   9.171  1.0978  0.2754  0.0889
  305MOL0     H40241   2.330   0.733   9.221  0.3789 -0.3218  1.2254
  305MOL0     H40242   1.849   1.028  10.115  3.2568 -0.8469  0.0209
  305MOL0     H40243   1.661   1.191  10.102 -0.0040  0.7544 -0.1558
  305MOL0     H40244   1.571   1.679  10.075  1.5545 -0.2109 -0.8745
  305MOL0     H40245   1.416   1.864  10.033 -0.5966 -3.8826  3.0803
  305MOL0     H40246   0.894   1.276  10.445  1.1652 -2.1571  1.2063
  305MOL0     H40247   1.151   1.234  10.414  2.9525 -0.8602  2.5296
  305MOL0     H40248   1.687   1.530  10.532 -1.6487 -1.0842  1.5970
  305MOL0     H40249   1.901   1.399  10.495 -0.4923 -0.1926 -2.9856
  305MOL0     H40250   2.088   1.248  10.551  0.6302  2.4780 -1.9374
  305MOL0     H40251   2.051   1.272  10.392  2.3052  0.4467  0.3895
  305MOL0     H40252   2.157   1.007  10.501 -0.0350  1.2742  1.0140
  305MOL0     H40253   2.088   1.030  10.347 -0.9800 -1.5312  0.4925
  305MOL0     H40254   2.254   1.236  10.320 -1.0142 -2.3044 -2.8133
  305MOL0     H40255   2.328   1.077  10.308  1.0930  0.6826  0.4306
  305MOL0     H40256   2.314   1.260  10.556  1.5009  2.3931 -0.5393
  305MOL0     H40257   2.393   1.098  10.560  0.8011  0.8991  0.8263
  305MOL0     H40258   2.667   1.378  10.405 -1.0669 -0.3361  1.4621
  305MOL0     H40259   1.692   1.029  10.500  1.8094  0.0001 -0.4433
  305MOL0     H40260   1.484   1.147  10.526 -0.8005  2.2407  1.1300
  306MOL0     O40261   6.850   1.524   3.735  0.2024 -0.4563  0.5625
  306MOL0     C40262   6.864   1.490   3.853  0.0554  0.0111  0.5910
  306MOL0     O40263   6.781   1.404   3.923  0.4345 -0.2180  0.0164
  306MOL0     C40264   6.649   1.401   3.905 -0.6595  0.0169  0.4167
  306MOL0     C40265   6.582   1.305   3.981  0.3821 -0.3896 -0.6929
  306MOL0     C40266   6.447   1.286   3.983 -0.0311 -0.1147 -0.8730
  306MOL0     C40267   6.363   1.376   3.918  0.4519 -0.6876 -0.3082
  306MOL0     O40268   6.226   1.364   3.908 -0.0141  0.6106 -1.0553
  306MOL0     C40269   6.159   1.253   3.975 -0.5139  0.6875  0.1286
  306MOL0     C40270   6.019   1.223   3.913  0.7910 -1.1012 -1.5448
  306MOL0     C40271   5.927   1.350   3.924  0.3517  0.2107 -0.0732
  306MOL0     C40272   5.807   1.357   3.824  0.1879  0.6533 -0.1662
  306MOL0     C40273   5.688   1.284   3.876  0.0376  0.0681 -0.1403
  306MOL0     C40274   5.591   1.249   3.771  0.0638  0.4300  0.8941
  306MOL0     C40275   5.452   1.192   3.818 -0.3669 -0.9259 -0.6996
  306MOL0     C40276   5.359   1.151   3.699 -0.5211  0.1414  0.3300
  306MOL0     N40277   5.407   1.027   3.639 -0.0180  0.7740  0.0088
  306MOL0     C40278   5.348   0.904   3.643  0.4325  0.2774 -0.2553
  306MOL0     C40279   5.428   0.818   3.580 -0.4373 -0.5146  0.3712
  306MOL0     C40280   5.403   0.677   3.549 -0.0513 -0.1959  0.5333
  306MOL0     C40281   5.291   0.669   3.448 -0.1669  0.5121 -0.5571
  306MOL0     C40282   5.314   0.741   3.312 -0.4754  0.0014  0.0286
  306MOL0     C40283   5.217   0.680   3.219  0.0187 -0.9805 -0.0917
  306MOL0     O40284   5.077   0.707   3.254  0.1776  0.9791  0.4752
  306MOL0     C40285   5.003   0.771   3.168  0.3544 -0.2956 -0.9273
  306MOL0     C40286   5.005   0.910   3.178  0.5614  0.1629 -0.9280
  306MOL0     C40287   4.935   0.994   3.099  0.3428  0.9155  0.0239
  306MOL0     C40288   4.852   0.928   2.996 -0.3908  0.6394 -0.1929
  306MOL0     C40289   4.791   1.006   2.891 -0.2416 -0.9345 -0.0661
  306MOL0     O40290   4.720   0.931   2.796  0.1413  0.1095  0.6178
  306MOL0     C40291   4.624   0.989   2.716 -0.6371 -0.5948  0.1100
  306MOL0     C40292   4.666   1.077   2.610  0.8403  1.0156 -1.5412
  306MOL0     C40293   4.571   1.110   2.513 -0.6807  0.1374 -0.1181
  306MOL0     C40294   4.442   1.069   2.515 -0.0939 -0.5181  0.3695
  306MOL0     O40295   4.352   1.129   2.421 -0.2916 -0.0425 -0.8689
  306MOL0     C40296   4.221   1.067   2.404  0.1901 -0.6006  0.0063
  306MOL0     C40297   4.161   1.148   2.286 -0.1048  0.2166  0.1081
  306MOL0     C40298   4.004   1.138   2.284 -0.3147  0.0699 -0.2025
  306MOL0     C40299   3.935   1.255   2.212  0.6966 -0.0509 -0.1654
  306MOL0     C40300   3.781   1.228   2.213 -0.1101  0.0850  0.7772
  306MOL0     C40301   3.712   1.247   2.349  0.8456  0.2305  0.1856
  306MOL0     C40302   3.560   1.259   2.337 -0.5777  0.5643 -0.1913
  306MOL0     C40303   3.486   1.124   2.342  0.9046  0.0393 -0.0336
  306MOL0    Cl40304   3.484   1.047   2.514 -0.4373 -0.1322  0.4115
  306MOL0     C40305   4.401   0.987   2.618  0.2482  0.0414 -0.4970
  306MOL0     C40306   4.495   0.944   2.720 -0.0404  0.7146  0.0187
  306MOL0     O40307   4.786   1.133   2.894  0.3473 -0.9768 -0.2109
  306MOL0     C40308   4.847   0.786   2.996  0.2560 -0.0211  0.4791
  306MOL0     C40309   4.913   0.708   3.088 -0.2499 -0.1669  0.0605
  306MOL0     N40310   5.522   0.899   3.528  0.1651 -0.0735 -0.2486
  306MOL0     N40311   5.516   1.021   3.559  0.3491 -0.7087 -0.6693
  306MOL0     C40312   6.431   1.479   3.832 -1.0735 -0.3660 -0.6182
  306MOL0     C40313   6.567   1.491   3.824  0.3197  0.2489  0.7158
  306MOL0     C40314   6.994   1.520   3.910  0.5072  0.0382  0.2447
  306MOL0     C40315   7.104   1.580   3.837  0.7252 -0.4693 -0.0738
  306MOL0     C40316   7.226   1.619   3.897  0.4828 -0.3215 -0.8815
  306MOL0     C40317   7.234   1.611   4.034  0.1860 -0.1957 -0.0938
  306MOL0     O40318   7.342   1.662   4.105 -0.3607 -0.3231  0.5985
  306MOL0     C40319   7.396   1.791   4.050 -0.6106  0.6658  0.5697
  306MOL0     C40320   7.499   1.835   4.153 -0.5595 -0.6976  0.8350
  306MOL0     C40321   7.602   1.737   4.193 -0.2241  0.0664  0.3944
  306MOL0     C40322   7.697   1.804   4.293 -0.7740 -0.5903 -0.1397
  306MOL0     C40323   7.782   1.715   4.366 -0.4365 -0.6748  0.2669
  306MOL0     C40324   7.866   1.646   4.417  0.2719 -0.2048  0.0660
  306MOL0     C40325   7.128   1.550   4.106 -0.6500 -0.4220 -0.5605
  306MOL0     C40326   7.005   1.507   4.051  0.3610 -0.7970  0.5664
  306MOL0     H40327   6.649   1.242   4.039 -0.4277  0.3765  1.1666
  306MOL0     H40328   6.429   1.199   4.045 -1.1067 -0.0674 -1.1022
  306MOL0     H40329   6.166   1.269   4.083  2.7717  1.1873 -0.0817
  306MOL0     H40330   6.208   1.157   3.958 -1.8322  0.1215 -0.6845
  306MOL0     H40331   5.971   1.146   3.973  2.9952 -0.1694  1.6456
  306MOL0     H40332   6.025   1.194   3.807 -0.1777  1.1494 -2.2682
  306MOL0     H40333   5.991   1.432   3.889 -2.1752  1.6427 -1.6599
  306MOL0     H40334   5.886   1.367   4.024  1.9405 -1.1240  0.8561
  306MOL0     H40335   5.773   1.460   3.814  1.2075  1.0458  0.2985
  306MOL0     H40336   5.838   1.324   3.724 -1.9371 -0.9751 -0.3705
  306MOL0     H40337   5.636   1.349   3.947 -1.9927  0.9017 -2.2679
  306MOL0     H40338   5.722   1.190   3.921  1.7964  0.0618 -1.3968
  306MOL0     H40339   5.646   1.174   3.713 -0.5319 -0.0404  0.9184
  306MOL0     H40340   5.572   1.335   3.705 -1.1825 -0.0921  0.5221
  306MOL0     H40341   5.465   1.094   3.865  0.3872 -2.7338 -4.3099
  306MOL0     H40342   5.405   1.260   3.889  0.9199 -0.6281 -0.0877
  306MOL0     H40343   5.365   1.239   3.634  1.7871  0.6077  1.0699
  306MOL0     H40344   5.255   1.147   3.733 -1.0138  0.4571 -1.0781
  306MOL0     H40345   5.248   0.893   3.684  0.3435  1.5263 -0.0925
  306MOL0     H40346   5.376   0.628   3.643 -1.4375  0.0352  0.2767
  306MOL0     H40347   5.494   0.630   3.510  0.0055  0.6643 -0.3891
  306MOL0     H40348   5.196   0.713   3.480  1.7058  5.4407 -0.9143
  306MOL0     H40349   5.266   0.566   3.421  1.8694 -0.2367  0.2603
  306MOL0     H40350   5.295   0.847   3.327 -0.0186  0.6313 -3.2094
  306MOL0     H40351   5.417   0.723   3.282 -0.2822 -0.5134  0.9432
  306MOL0     H40352   5.216   0.571   3.223 -2.0841 -1.0677 -1.3594
  306MOL0     H40353   5.245   0.715   3.119 -0.4391  1.9850  0.7199
  306MOL0     H40354   5.068   0.951   3.256 -0.3056  0.0573 -0.1519
  306MOL0     H40355   4.924   1.102   3.100 -0.3919  0.8586 -0.6395
  306MOL0     H40356   4.761   1.127   2.595  3.0180 -1.3022  2.7351
  306MOL0     H40357   4.603   1.177   2.433  1.1430 -0.0123  0.4369
  306MOL0     H40358   4.162   1.075   2.496 -1.7721  3.5228 -1.3706
  306MOL0     H40359   4.220   0.961   2.374 -1.5976 -0.2076 -1.4971
  306MOL0     H40360   4.204   1.101   2.197  0.8434 -0.2105  0.7705
  306MOL0     H40361   4.179   1.255   2.298 -4.7197  1.2460 -0.3124
  306MOL0     H40362   3.979   1.135   2.390  1.7292 -0.0846  0.3261
  306MOL0     H40363   3.986   1.039   2.239  2.2584 -2.1044  3.1036
  306MOL0     H40364   3.962   1.353   2.254  0.7834  0.9014 -2.3411
  306MOL0     H40365   3.966   1.267   2.108  1.3507 -3.0374 -0.4070
  306MOL0     H40366   3.774   1.123   2.183  2.3999  0.4306 -1.3605
  306MOL0     H40367   3.728   1.281   2.134  0.2584  2.9456  2.3185
  306MOL0     H40368   3.749   1.335   2.402 -0.7182  0.1854  1.4261
  306MOL0     H40369   3.732   1.159   2.410  0.4755  1.0089  1.4712
  306MOL0     H40370   3.516   1.308   2.424  0.0704  0.8217 -0.0040
  306MOL0     H40371   3.540   1.323   2.251 -1.6278  1.3097  0.5902
  306MOL0     H40372   3.531   1.053   2.273  2.7146 -0.1786  1.2994
  306MOL0     H40373   3.381   1.134   2.311  1.1169 -1.3267 -1.3171
  306MOL0     H40374   4.298   0.957   2.635 -1.5828  4.1364 -2.8735
  306MOL0     H40375   4.458   0.884   2.801  2.4629 -0.8093  0.1446
  306MOL0     H40376   4.804   0.737   2.909  0.5240  1.3583 -0.4702
  306MOL0     H40377   4.910   0.600   3.075  0.9449  0.0582 -2.8573
  306MOL0     H40378   6.378   1.561   3.785 -0.3541  0.4254 -0.0898
  306MOL0     H40379   6.613   1.574   3.770 -1.1975 -0.5749 -2.0331
  306MOL0     H40380   7.099   1.595   3.730  3.0583 -1.4685 -0.3855
  306MOL0     H40381   7.302   1.668   3.837  0.8411 -0.5519 -0.6256
  306MOL0     H40382   7.319   1.867   4.037 -0.4174  0.9662  1.1755
  306MOL0     H40383   7.447   1.776   3.954  0.2772 -0.2366  1.1600
  306MOL0     H40384   7.544   1.923   4.107  2.9609 -2.0374  1.3877
  306MOL0     H40385   7.437   1.861   4.239  1.1709 -1.5903  2.4229
  306MOL0     H40386   7.662   1.699   4.109  2.2632  3.7104  0.3076
  306MOL0     H40387   7.552   1.648   4.234  3.3439 -2.7062 -0.7057
  306MOL0     H40388   7.764   1.877   4.246 -1.0027  2.1332  3.4080
  306MOL0     H40389   7.642   1.856   4.371 -0.6950 -1.3621  0.4482
  306MOL0     H40390   7.918   1.560   4.456 -1.3572 -0.3648  2.0182
  306MOL0     H40391   7.133   1.552   4.214 -1.2409  1.6283 -0.5340
  306MOL0     H40392   6.929   1.470   4.119  0.6613 -0.9655  0.8160
  307MOL0     O40393   4.141   3.550   2.701 -0.4663 -0.0709 -0.1032
  307MOL0     C40394   4.113   3.494   2.591  0.3704  0.0044 -0.4290
  307MOL0     O40395   3.991   3.478   2.548  0.0979 -0.0915 -0.1573
  307MOL0     C40396   3.905   3.570   2.605  0.8598  0.6071 -0.7517
  307MOL0     C40397   3.805   3.523   2.680 -1.1945  0.6334 -0.2929
  307MOL0     C40398   3.697   3.606   2.721 -0.4809 -0.1306 -0.2751
  307MOL0     C40399   3.699   3.742   2.699  0.3874 -0.0103 -0.8710
  307MOL0     O40400   3.596   3.835   2.721  0.1225  0.3540 -0.2763
  307MOL0     C40401   3.559   3.844   2.859 -0.3442  0.5396 -1.3362
  307MOL0     C40402   3.405   3.885   2.855  0.1340 -0.7239 -0.3516
  307MOL0     C40403   3.310   3.770   2.814  0.4747 -0.2029 -0.5475
  307MOL0     C40404   3.166   3.808   2.852 -0.1645  0.5687  0.9002
  307MOL0     C40405   3.081   3.702   2.772  0.7528  0.0875 -0.1354
  307MOL0     C40406   2.934   3.707   2.826 -0.1064  0.4341  0.2325
  307MOL0     C40407   2.867   3.849   2.818 -0.5904  0.9095 -0.1561
  307MOL0     C40408   2.861   3.926   2.947 -0.4341  0.4738  0.0331
  307MOL0     N40409   2.777   4.050   2.943 -0.4210 -0.0014 -0.4963
  307MOL0     C40410   2.765   4.148   2.843 -1.7740  0.0247  0.3027
  307MOL0     C40411   2.680   4.242   2.900 -0.5884  0.3626 -1.3164
  307MOL0     C40412   2.644   4.382   2.855  0.7299 -0.0827 -0.2337
  307MOL0     C40413   2.703   4.439   2.722 -0.0303  0.4274 -0.3019
  307MOL0     C40414   2.636   4.575   2.697  0.0032 -0.3069 -0.8802
  307MOL0     C40415   2.511   4.555   2.611  0.0733  0.5714 -0.5588
  307MOL0     O40416   2.549   4.502   2.476  0.6488  0.3324 -0.2569
  307MOL0     C40417   2.464   4.415   2.416 -0.1812 -0.7504 -0.3036
  307MOL0     C40418   2.326   4.396   2.447  0.2607 -0.6961  0.6129
  307MOL0     C40419   2.249   4.301   2.379 -0.4083  0.4911 -0.9512
  307MOL0     C40420   2.314   4.224   2.278  0.2926  0.2094 -0.9301
  307MOL0     C40421   2.236   4.109   2.219 -0.2679 -0.2044 -0.9909
  307MOL0     O40422   2.102   4.113   2.233 -0.3393 -0.5675  0.0711
  307MOL0     C40423   2.044   4.016   2.159 -0.3680  0.8378 -0.6226
  307MOL0     C40424   2.036   3.878   2.193 -0.2750  0.1300 -0.3890
  307MOL0     C40425   1.963   3.796   2.106  0.1260  0.4242 -0.0688
  307MOL0     C40426   1.900   3.846   1.986  0.9176 -0.1229 -0.2261
  307MOL0     O40427   1.824   3.781   1.887 -0.5129 -0.2385  0.1248
  307MOL0     C40428   1.834   3.636   1.902 -0.2291 -0.0952  0.3421
  307MOL0     C40429   1.777   3.580   1.780  0.5345  0.0583  0.0865
  307MOL0     C40430   1.624   3.550   1.752 -0.3288  0.1407 -0.1086
  307MOL0     C40431   1.612   3.476   1.616  0.2245  0.4992  0.3925
  307MOL0     C40432   1.483   3.404   1.603  0.4659  0.0773  0.0559
  307MOL0     C40433   1.443   3.371   1.461 -0.0382 -0.3207  0.6786
  307MOL0     C40434   1.329   3.269   1.455  0.2123  0.1331  0.3474
  307MOL0     C40435   1.232   3.273   1.337  0.3100  0.2121 -0.0383
  307MOL0    Cl40436   1.095   3.399   1.340 -0.2893  0.2981 -0.6681
  307MOL0     C40437   1.912   3.982   1.961  0.2020  0.6223  0.5882
  307MOL0     C40438   1.988   4.059   2.041 -0.0057  0.4780  0.2992
  307MOL0     O40439   2.298   4.015   2.172  0.2284 -0.3783 -0.4445
  307MOL0     C40440   2.448   4.250   2.252  0.0345  0.6695  0.5842
  307MOL0     C40441   2.519   4.346   2.317 -0.2041  0.4572  0.3586
  307MOL0     N40442   2.641   4.195   3.030 -0.0035  0.6297 -0.3831
  307MOL0     N40443   2.695   4.074   3.047 -0.1591 -0.4894  0.7528
  307MOL0     C40444   3.811   3.799   2.631 -0.2506 -0.0711  0.8644
  307MOL0     C40445   3.912   3.714   2.590  1.1887 -0.3801  0.0378
  307MOL0     C40446   4.224   3.425   2.515  0.2169 -0.7135 -0.2463
  307MOL0     C40447   4.355   3.441   2.563  0.1202  0.4341 -0.1065
  307MOL0     C40448   4.452   3.362   2.503 -0.5181  0.6175 -0.3606
  307MOL0     C40449   4.430   3.274   2.405  0.1449  0.6874 -0.3615
  307MOL0     O40450   4.526   3.197   2.345 -0.4018  0.2519  0.1211
  307MOL0     C40451   4.609   3.122   2.432 -1.0226 -0.5678  1.1600
  307MOL0     C40452   4.753   3.157   2.413 -0.0571 -0.8177  0.3097
  307MOL0     C40453   4.848   3.108   2.519  0.2712 -0.2637 -0.2869
  307MOL0     C40454   4.827   2.964   2.550 -0.1859 -0.3117 -1.2156
  307MOL0     C40455   4.942   2.911   2.615  0.4834 -0.5790  0.1553
  307MOL0     C40456   5.040   2.874   2.672  0.6239  0.0555  0.6512
  307MOL0     C40457   4.301   3.256   2.358  0.2464 -0.0629  0.6278
  307MOL0     C40458   4.198   3.335   2.409  0.6493 -0.0746  0.2398
  307MOL0     H40459   3.815   3.416   2.696  2.1690  1.1898  2.5782
  307MOL0     H40460   3.607   3.562   2.764 -1.0872 -0.2261 -1.5786
  307MOL0     H40461   3.622   3.920   2.907  0.1588 -0.9184  0.4279
  307MOL0     H40462   3.569   3.753   2.918  0.9649  1.4730 -0.0470
  307MOL0     H40463   3.393   3.978   2.799 -0.0860 -1.2887 -1.2722
  307MOL0     H40464   3.373   3.921   2.953 -0.6204  1.1054 -1.2425
  307MOL0     H40465   3.336   3.681   2.873 -0.1075 -2.0984 -2.9981
  307MOL0     H40466   3.323   3.749   2.708 -1.5210 -0.0239 -0.8585
  307MOL0     H40467   3.153   3.788   2.959  0.0825 -1.6144  0.5668
  307MOL0     H40468   3.134   3.907   2.817  1.3142  0.9679  0.6249
  307MOL0     H40469   3.112   3.602   2.803 -0.9623  0.4553  3.3226
  307MOL0     H40470   3.094   3.718   2.665  0.9753  0.8745  0.0039
  307MOL0     H40471   2.937   3.668   2.929  0.4173  0.2624  0.1551
  307MOL0     H40472   2.881   3.636   2.762  1.8310 -2.0236  1.1889
  307MOL0     H40473   2.916   3.903   2.737 -0.1515 -0.5162 -0.8741
  307MOL0     H40474   2.766   3.833   2.780  0.6279 -2.2518 -2.4874
  307MOL0     H40475   2.962   3.963   2.968 -0.5858  2.8630 -2.8752
  307MOL0     H40476   2.833   3.870   3.037  1.0168  2.5880  1.9382
  307MOL0     H40477   2.827   4.154   2.754  1.4446 -3.1613  2.1002
  307MOL0     H40478   2.677   4.450   2.934  1.2465 -0.2534 -0.2977
  307MOL0     H40479   2.534   4.383   2.853  0.6882 -0.0041  1.1886
  307MOL0     H40480   2.683   4.375   2.636 -2.2048 -2.1674  1.9452
  307MOL0     H40481   2.810   4.461   2.728  0.0151  0.2100 -0.3054
  307MOL0     H40482   2.605   4.628   2.787 -1.6228 -1.7089 -0.5450
  307MOL0     H40483   2.709   4.641   2.651  1.5038 -1.5349 -0.3308
  307MOL0     H40484   2.449   4.646   2.605  0.3671  0.9503  1.4300
  307MOL0     H40485   2.451   4.488   2.674  0.2112  1.1958  0.2644
  307MOL0     H40486   2.273   4.451   2.524 -0.3196  0.4166 -0.5398
  307MOL0     H40487   2.149   4.275   2.413  0.5455 -0.2926  1.4497
  307MOL0     H40488   2.083   3.838   2.282 -2.7773 -1.2957  0.3722
  307MOL0     H40489   1.949   3.692   2.132  3.2582 -0.2989 -0.7791
  307MOL0     H40490   1.779   3.610   1.993 -0.2615  0.5523  0.5140
  307MOL0     H40491   1.938   3.603   1.908 -0.0901  0.4488  1.1932
  307MOL0     H40492   1.823   3.483   1.757  0.1266  0.1423 -1.1414
  307MOL0     H40493   1.809   3.644   1.697 -2.0216  0.1990 -0.8586
  307MOL0     H40494   1.570   3.645   1.751  0.4327  0.5783 -0.0803
  307MOL0     H40495   1.594   3.498   1.843 -0.6789  0.4726 -0.0325
  307MOL0     H40496   1.597   3.552   1.539 -1.2029 -1.0417 -0.9379
  307MOL0     H40497   1.703   3.424   1.585 -1.4325 -1.3748 -1.6712
  307MOL0     H40498   1.402   3.454   1.656 -0.9298  0.2044 -2.0889
  307MOL0     H40499   1.500   3.308   1.654 -0.2633 -1.0910 -1.7824
  307MOL0     H40500   1.520   3.310   1.413 -2.4489 -1.9089 -1.4302
  307MOL0     H40501   1.423   3.462   1.404  1.6358  0.5259  1.3766
  307MOL0     H40502   1.383   3.174   1.448  2.7492  1.5493 -0.6984
  307MOL0     H40503   1.274   3.276   1.549 -2.2349  2.5025 -1.0882
  307MOL0     H40504   1.189   3.173   1.332 -0.5939  0.4888  1.4069
  307MOL0     H40505   1.288   3.282   1.244 -0.5371  0.4415 -0.5252
  307MOL0     H40506   1.868   4.032   1.875  2.4319  0.4363 -0.7600
  307MOL0     H40507   2.011   4.161   2.012 -0.0125  0.0367 -1.3834
  307MOL0     H40508   2.504   4.185   2.185 -0.5867 -0.9743  1.6146
  307MOL0     H40509   2.623   4.369   2.294  0.2114 -0.9621  0.6799
  307MOL0     H40510   3.814   3.906   2.610  0.9222 -0.6858 -2.8587
  307MOL0     H40511   3.995   3.761   2.537 -0.3952  0.9687 -1.3764
  307MOL0     H40512   4.378   3.508   2.645 -0.1929  0.9933 -0.4683
  307MOL0     H40513   4.552   3.372   2.543  1.2901 -0.8606 -4.0671
  307MOL0     H40514   4.594   3.014   2.418 -2.3427 -0.1337 -1.3035
  307MOL0     H40515   4.579   3.136   2.536  0.5281 -1.5697  1.7859
  307MOL0     H40516   4.795   3.121   2.319 -2.9782 -0.3557 -1.3012
  307MOL0     H40517   4.759   3.266   2.417 -0.0630 -0.6882 -2.0052
  307MOL0     H40518   4.834   3.167   2.610  0.1693 -3.5447  2.0229
  307MOL0     H40519   4.951   3.123   2.486 -0.1822 -0.0546 -1.6718
  307MOL0     H40520   4.731   2.960   2.601  0.8582  1.8652  1.1252
  307MOL0     H40521   4.811   2.905   2.459  0.5363 -0.6634 -1.1296
  307MOL0     H40522   5.132   2.859   2.726 -0.5922  2.0093  3.4951
  307MOL0     H40523   4.289   3.177   2.283 -0.4583 -0.2315  0.9081
  307MOL0     H40524   4.095   3.309   2.385  0.8462  0.0704 -0.8068
  308MOL0     O40525   7.537   4.104  11.269  0.1152 -0.3053  0.1007
  308MOL0     C40526   7.561   4.178  11.366 -0.6165 -0.1493  0.4313
  308MOL0     O40527   7.466   4.257  11.428  0.2483  0.2677 -0.1211
  308MOL0     C40528   7.325   4.247  11.426 -0.1624 -0.2791 -0.3750
  308MOL0     C40529   7.241   4.363  11.446 -0.7274 -0.7853  0.3598
  308MOL0     C40530   7.099   4.344  11.466  0.9679  0.5472 -0.3482
  308MOL0     C40531   7.046   4.220  11.435  1.4434 -0.0012  0.2165
  308MOL0     O40532   6.908   4.198  11.429  0.2879 -0.7237  0.0650
  308MOL0     C40533   6.816   4.305  11.457  0.1179  0.3968  0.0342
  308MOL0     C40534   6.684   4.234  11.445  0.0641  0.5262 -0.5807
  308MOL0     C40535   6.569   4.335  11.450  0.0857 -0.0227 -0.2987
  308MOL0     C40536   6.431   4.257  11.449  0.3021  1.0545 -0.0850
  308MOL0     C40537   6.318   4.353  11.431 -0.7015 -0.2854  0.2142
  308MOL0     C40538   6.181   4.278  11.417 -0.0949 -0.7902  0.4718
  308MOL0     C40539   6.176   4.188  11.288 -0.2510  0.0262  0.5777
  308MOL0     C40540   6.073   4.070  11.288  0.1299  0.1425 -0.4968
  308MOL0     N40541   5.927   4.121  11.293 -0.7677 -0.8938 -0.3940
  308MOL0     C40542   5.849   4.129  11.410 -0.2833  0.3968  0.1865
  308MOL0     C40543   5.734   4.186  11.360 -0.0655 -0.8417 -0.1335
  308MOL0     C40544   5.613   4.201  11.443 -0.1541 -0.3781 -0.3773
  308MOL0     C40545   5.536   4.075  11.405 -0.0588  0.1754  0.2859
  308MOL0     C40546   5.395   4.070  11.462  0.3162  0.2499  0.8518
  308MOL0     C40547   5.295   3.991  11.367  0.6925 -0.5459 -0.6365
  308MOL0     O40548   5.227   4.075  11.274 -0.0752 -0.2334  0.0749
  308MOL0     C40549   5.109   4.144  11.317 -0.8855 -0.3316  0.0696
  308MOL0     C40550   5.051   4.215  11.218  0.0202 -0.2543  0.6110
  308MOL0     C40551   4.922   4.277  11.234 -0.0088  0.8551  0.3083
  308MOL0     C40552   4.859   4.265  11.351  0.2926  0.1005  0.1055
  308MOL0     C40553   4.730   4.334  11.368 -0.4460 -0.3181 -0.8627
  308MOL0     O40554   4.660   4.308  11.484 -0.2922 -0.0638 -0.9941
  308MOL0     C40555   4.542   4.367  11.496  0.2682 -0.0647  0.3026
  308MOL0     C40556   4.529   4.453  11.604  0.0637 -0.9685 -0.3675
  308MOL0     C40557   4.413   4.531  11.624  0.7422  0.1855 -0.2547
  308MOL0     C40558   4.305   4.536  11.539 -0.3742  0.4145  0.1359
  308MOL0     O40559   4.200   4.611  11.582  0.2296 -0.4284 -0.3809
  308MOL0     C40560   4.095   4.658  11.496 -0.6374 -1.0177 -0.3026
  308MOL0     C40561   3.972   4.714  11.580 -0.5428  0.1240  0.6896
  308MOL0     C40562   4.011   4.827  11.674 -0.2790 -0.6579 -0.6144
  308MOL0     C40563   3.886   4.888  11.735  0.6111  0.5009  0.1305
  308MOL0     C40564   3.916   5.015  11.816 -0.7311 -0.1781  0.2010
  308MOL0     C40565   3.792   5.080  11.878 -0.3419  0.8112  0.5593
  308MOL0     C40566   3.694   5.180  11.803  0.4731  0.3269  1.6061
  308MOL0     C40567   3.682   5.324  11.867  0.0263 -0.5223 -0.2740
  308MOL0    Cl40568   3.615   5.319  12.033 -0.1811  0.4126 -0.3061
  308MOL0     C40569   4.324   4.451  11.418  0.2222  0.1093  0.2603
  308MOL0     C40570   4.435   4.364  11.402 -0.6586 -0.1773  0.3303
  308MOL0     O40571   4.698   4.413  11.283 -0.1746  0.0046  0.0175
  308MOL0     C40572   4.918   4.193  11.456  1.0950  0.2006 -0.3409
  308MOL0     C40573   5.046   4.139  11.446 -0.1975  0.8708  0.2423
  308MOL0     N40574   5.748   4.203  11.220 -0.1867  0.0781 -0.3685
  308MOL0     N40575   5.862   4.167  11.180  0.4170 -0.4785 -0.1723
  308MOL0     C40576   7.121   4.105  11.415 -0.2708 -0.1636  0.6805
  308MOL0     C40577   7.263   4.123  11.411  0.1819 -0.5697  0.2938
  308MOL0     C40578   7.697   4.175  11.416  0.6344  0.0723 -0.3235
  308MOL0     C40579   7.814   4.160  11.336 -0.3491  0.1514 -0.2757
  308MOL0     C40580   7.947   4.183  11.384  0.7905  1.3640 -0.4502
  308MOL0     C40581   7.971   4.223  11.515 -0.1811 -0.0211 -0.5002
  308MOL0     O40582   8.104   4.230  11.551 -0.1502 -0.1686 -0.2100
  308MOL0     C40583   8.152   4.291  11.669  0.3433  0.6765  0.5714
  308MOL0     C40584   8.147   4.181  11.780  0.1459  0.1132  0.2476
  308MOL0     C40585   8.174   4.253  11.918  0.2906  0.8573 -0.7215
  308MOL0     C40586   8.073   4.203  12.019  0.0161 -0.6383 -0.4203
  308MOL0     C40587   7.940   4.261  11.983  0.0427 -0.2461 -0.1743
  308MOL0     C40588   7.832   4.304  11.938 -0.5125  0.6194 -0.4372
  308MOL0     C40589   7.858   4.232  11.597  0.7166 -0.0196 -0.2871
  308MOL0     C40590   7.725   4.213  11.554  0.4383 -0.0554 -0.1932
  308MOL0     H40591   7.285   4.462  11.456 -0.6198 -0.8197  0.2264
  308MOL0     H40592   7.040   4.423  11.512  2.3266  1.0297  0.6442
  308MOL0     H40593   6.820   4.368  11.368 -0.6833 -1.0034 -1.0228
  308MOL0     H40594   6.842   4.355  11.551  0.0946 -1.8540  1.3072
  308MOL0     H40595   6.679   4.182  11.541  1.4770 -0.8083 -1.1894
  308MOL0     H40596   6.672   4.164  11.362  0.1139 -2.5131  1.8043
  308MOL0     H40597   6.564   4.394  11.357 -1.4987  0.1839 -0.1101
  308MOL0     H40598   6.581   4.391  11.543 -0.2743 -1.7312  0.8252
  308MOL0     H40599   6.439   4.182  11.370  0.5033 -1.0222  1.8041
  308MOL0     H40600   6.413   4.187  11.531  1.9326 -1.2289 -1.5499
  308MOL0     H40601   6.338   4.422  11.349  0.2269  1.8230  2.0874
  308MOL0     H40602   6.322   4.420  11.518  3.9133 -1.4450  1.1469
  308MOL0     H40603   6.109   4.361  11.412 -0.7023 -1.3361 -3.8467
  308MOL0     H40604   6.153   4.216  11.503  1.4085 -0.5668  1.1526
  308MOL0     H40605   6.148   4.253  11.204 -1.8118  0.2915  1.2696
  308MOL0     H40606   6.276   4.148  11.270  0.6524  1.8336  1.2628
  308MOL0     H40607   6.099   4.017  11.380  2.1290 -0.6299 -1.4552
  308MOL0     H40608   6.067   3.994  11.210 -1.1063 -1.2823  0.9181
  308MOL0     H40609   5.870   4.087  11.508 -1.1969  0.7846  0.5547
  308MOL0     H40610   5.563   4.292  11.408  1.0666 -0.4810 -2.5615
  308MOL0     H40611   5.620   4.196  11.552  1.3485  1.6242 -0.3229
  308MOL0     H40612   5.589   3.987  11.443 -2.2468 -0.9371  0.9416
  308MOL0     H40613   5.522   4.070  11.297 -2.3905  2.5115  0.3843
  308MOL0     H40614   5.398   4.026  11.562  0.4774 -1.7336  0.0136
  308MOL0     H40615   5.351   4.166  11.489  0.7495  0.0704  2.2651
  308MOL0     H40616   5.224   3.942  11.434  3.6412 -1.4529  2.0610
  308MOL0     H40617   5.354   3.912  11.319 -0.1412 -0.8400 -1.2157
  308MOL0     H40618   5.115   4.237  11.132 -0.3032  2.6091  0.9800
  308MOL0     H40619   4.868   4.320  11.149 -2.5628 -0.9956  0.8646
  308MOL0     H40620   4.617   4.463  11.666  1.3137  1.3179 -2.3441
  308MOL0     H40621   4.405   4.602  11.706  0.1647  0.4721 -0.5564
  308MOL0     H40622   4.063   4.585  11.421 -0.5898 -2.3857  0.9800
  308MOL0     H40623   4.123   4.754  11.449 -3.3001  0.2633  0.5456
  308MOL0     H40624   3.928   4.627  11.628  1.1738 -0.0504  2.0381
  308MOL0     H40625   3.901   4.758  11.510 -2.0315 -0.2983  1.8976
  308MOL0     H40626   4.072   4.901  11.622  1.0566 -1.1961  0.1315
  308MOL0     H40627   4.077   4.791  11.754  0.5772  1.0523 -0.4989
  308MOL0     H40628   3.821   4.909  11.650  0.5557 -0.3128 -0.0410
  308MOL0     H40629   3.843   4.805  11.794 -0.9835 -1.3649 -3.3155
  308MOL0     H40630   3.952   5.097  11.752 -1.9013 -1.5655 -2.3974
  308MOL0     H40631   3.988   5.002  11.897 -0.8839 -1.3775  0.1571
  308MOL0     H40632   3.832   5.133  11.965  1.0800  3.6275 -1.6182
  308MOL0     H40633   3.737   4.997  11.924 -1.0420  1.3819  0.7715
  308MOL0     H40634   3.733   5.192  11.701  0.8513  0.0113  1.7103
  308MOL0     H40635   3.593   5.139  11.795  0.5283  0.4996 -0.3848
  308MOL0     H40636   3.622   5.386  11.800  1.9674 -1.7803 -3.4176
  308MOL0     H40637   3.779   5.374  11.867  0.0300 -0.5295 -0.3025
  308MOL0     H40638   4.255   4.460  11.335  1.7066  1.1678 -0.9202
  308MOL0     H40639   4.448   4.303  11.313 -1.0992  0.0305  0.1182
  308MOL0     H40640   4.863   4.197  11.549  1.8917  0.6542  0.1237
  308MOL0     H40641   5.078   4.098  11.541  2.4242  4.2365  1.0312
  308MOL0     H40642   7.087   4.002  11.408  0.8880 -0.6231  1.5435
  308MOL0     H40643   7.323   4.032  11.402  0.5974 -0.2394 -0.3205
  308MOL0     H40644   7.813   4.153  11.228 -1.8888  3.5564 -0.6409
  308MOL0     H40645   8.028   4.168  11.313  0.9117 -0.8207  0.0775
  308MOL0     H40646   8.074   4.365  11.693 -1.6337 -1.5968  1.5490
  308MOL0     H40647   8.250   4.340  11.671 -1.1273  4.0143 -0.5885
  308MOL0     H40648   8.056   4.121  11.776 -0.8857  1.6604 -0.1203
  308MOL0     H40649   8.226   4.108  11.757 -1.1104 -1.7761  1.6007
  308MOL0     H40650   8.189   4.361  11.910  1.9542  0.8662  1.6401
  308MOL0     H40651   8.268   4.216  11.958  0.5217 -0.9012 -2.7239
  308MOL0     H40652   8.069   4.094  12.022  0.3774 -0.7181 -1.9788
  308MOL0     H40653   8.089   4.223  12.125 -1.7083 -0.0796 -0.2364
  308MOL0     H40654   7.746   4.355  11.899 -1.4829 -0.5689  0.0506
  308MOL0     H40655   7.880   4.246  11.703  1.5416  0.1872 -0.4803
  308MOL0     H40656   7.651   4.218  11.633  2.0504  2.0195  1.2733
  309MOL0     O40657   6.137   1.661   5.680 -0.1698  0.7679  0.3208
  309MOL0     C40658   6.124   1.766   5.736  0.4395 -0.5187  0.0384
  309MOL0     O40659   6.000   1.831   5.755 -0.2874 -0.2496  0.2014
  309MOL0     C40660   5.896   1.766   5.698  0.1790 -0.3367  0.2276
  309MOL0     C40661   5.854   1.784   5.561 -0.1622  0.2032 -0.4039
  309MOL0     C40662   5.733   1.720   5.519 -0.6123  0.1651  0.9527
  309MOL0     C40663   5.654   1.668   5.618 -0.3748  0.1485 -0.7958
  309MOL0     O40664   5.531   1.644   5.565  0.0810  0.3954  0.3363
  309MOL0     C40665   5.447   1.555   5.619  0.6547  0.4519  0.4395
  309MOL0     C40666   5.316   1.565   5.533 -0.5575 -0.1905 -0.0685
  309MOL0     C40667   5.200   1.483   5.597  0.2446 -0.0700 -0.1033
  309MOL0     C40668   5.067   1.480   5.505 -0.8621 -0.1103 -0.4283
  309MOL0     C40669   4.957   1.410   5.587  0.0821 -0.5227 -0.3623
  309MOL0     C40670   4.817   1.442   5.529 -0.4006  0.3196  0.0769
  309MOL0     C40671   4.801   1.411   5.379  0.1140 -0.2727  0.3122
  309MOL0     C40672   4.652   1.388   5.336 -0.5561 -0.2405 -0.2448
  309MOL0     N40673   4.586   1.268   5.391 -0.0197 -0.0120  0.3624
  309MOL0     C40674   4.491   1.280   5.481 -0.1252  0.2710 -1.3144
  309MOL0     C40675   4.451   1.148   5.502 -0.5589  0.1398  0.6160
  309MOL0     C40676   4.327   1.095   5.575 -0.4163  0.4239  0.0838
  309MOL0     C40677   4.192   1.139   5.510 -0.0616 -0.6241 -0.0139
  309MOL0     C40678   4.069   1.098   5.593 -1.0986  0.5295  0.4749
  309MOL0     C40679   3.938   1.122   5.520  0.0477  1.3915 -0.7131
  309MOL0     O40680   3.834   1.072   5.613  0.2791 -0.1032  0.3003
  309MOL0     C40681   3.722   1.021   5.554  0.0040 -1.2649  0.0391
  309MOL0     C40682   3.614   1.102   5.518  0.2337 -0.0347  0.5823
  309MOL0     C40683   3.495   1.044   5.463 -0.5725  0.4447  0.1414
  309MOL0     C40684   3.489   0.901   5.445  0.5642  0.1004  0.0629
  309MOL0     C40685   3.371   0.842   5.381  0.0411 -0.1238 -0.2271
  309MOL0     O40686   3.357   0.703   5.376 -0.2031 -0.0540 -0.0773
  309MOL0     C40687   3.253   0.641   5.301 -0.2285  0.8646  0.9075
  309MOL0     C40688   3.279   0.517   5.232  0.1885 -0.0756  0.3163
  309MOL0     C40689   3.181   0.443   5.158 -0.3255  0.4254 -0.1999
  309MOL0     C40690   3.052   0.495   5.149  0.6461  1.4799 -0.1282
  309MOL0     O40691   2.969   0.435   5.054  0.0400  0.3405  0.0323
  309MOL0     C40692   2.827   0.461   5.060 -0.0053  0.3578  0.2234
  309MOL0     C40693   2.737   0.404   4.948  0.2495  0.5630 -0.2326
  309MOL0     C40694   2.821   0.387   4.816 -0.2006 -0.2952  0.0138
  309MOL0     C40695   2.746   0.312   4.705  0.5153 -0.6415  0.5415
  309MOL0     C40696   2.660   0.416   4.621  0.1411  1.0641 -0.2291
  309MOL0     C40697   2.598   0.340   4.500 -0.0453  0.7125  0.2977
  309MOL0     C40698   2.567   0.435   4.383 -0.7533  0.6355 -0.2985
  309MOL0     C40699   2.438   0.515   4.418 -0.0213 -0.7999 -0.3314
  309MOL0    Cl40700   2.370   0.618   4.288  0.2957  0.1441  0.4611
  309MOL0     C40701   3.026   0.611   5.227 -0.6180  0.3023 -0.3161
  309MOL0     C40702   3.123   0.681   5.296 -0.1049 -0.1120  0.1237
  309MOL0     O40703   3.285   0.917   5.348  0.1385 -0.0918  0.1822
  309MOL0     C40704   3.598   0.829   5.496  0.0285  0.7233 -0.1431
  309MOL0     C40705   3.707   0.887   5.556  0.1531  0.1573  0.1078
  309MOL0     N40706   4.534   1.069   5.427 -0.0807 -0.4841 -1.0444
  309MOL0     N40707   4.603   1.141   5.350 -1.1258 -0.5765  0.5673
  309MOL0     C40708   5.709   1.626   5.741  0.6740  0.5086 -0.1038
  309MOL0     C40709   5.832   1.674   5.780  0.9804 -0.1573  0.4571
  309MOL0     C40710   6.253   1.832   5.775 -0.1956  0.9940 -0.4272
  309MOL0     C40711   6.374   1.758   5.770  0.5235  0.3171 -0.5836
  309MOL0     C40712   6.491   1.822   5.805  0.0166  0.1013  0.3141
  309MOL0     C40713   6.490   1.952   5.861  0.4940  1.2975 -0.2804
  309MOL0     O40714   6.599   2.026   5.908  0.7098 -0.3818 -0.1325
  309MOL0     C40715   6.735   1.979   5.881  0.0925  0.5892  0.2108
  309MOL0     C40716   6.829   2.095   5.904 -0.8697 -0.2024  0.2768
  309MOL0     C40717   6.974   2.057   5.877 -0.5139  0.2115  0.1227
  309MOL0     C40718   7.026   2.046   5.736 -0.5403  0.1712 -0.5056
  309MOL0     C40719   6.981   1.926   5.668  0.2906 -1.4597  0.6160
  309MOL0     C40720   6.957   1.819   5.615  0.8045 -0.0322  0.6693
  309MOL0     C40721   6.365   2.009   5.888  0.0582  0.8863  0.3262
  309MOL0     C40722   6.248   1.953   5.840 -0.0441 -0.6710 -0.5390
  309MOL0     H40723   5.905   1.852   5.493 -2.5938  0.5635 -2.0054
  309MOL0     H40724   5.706   1.743   5.416  1.9266  0.6810  0.3278
  309MOL0     H40725   5.423   1.589   5.721 -1.9389  1.5088 -0.4567
  309MOL0     H40726   5.493   1.456   5.618  0.2872  0.2778 -0.9197
  309MOL0     H40727   5.337   1.536   5.429  3.4203 -0.1040  0.5505
  309MOL0     H40728   5.280   1.668   5.526  0.5672  0.1751 -0.8076
  309MOL0     H40729   5.171   1.524   5.694  3.4219 -0.7797  1.2774
  309MOL0     H40730   5.227   1.379   5.617  1.3489  0.3276  0.5457
  309MOL0     H40731   5.034   1.582   5.490  1.5100  1.2245  2.2679
  309MOL0     H40732   5.093   1.430   5.411  0.7652  0.1308 -0.1503
  309MOL0     H40733   4.951   1.455   5.687  1.7095  1.4804 -1.0893
  309MOL0     H40734   4.994   1.307   5.594  2.7241  0.4193  0.7628
  309MOL0     H40735   4.792   1.548   5.542 -3.0105 -0.1259 -0.6767
  309MOL0     H40736   4.744   1.384   5.586  0.5613 -1.4124 -0.3881
  309MOL0     H40737   4.847   1.483   5.311 -2.2552  2.0624  1.0158
  309MOL0     H40738   4.860   1.321   5.356  2.7434  1.5155 -0.3793
  309MOL0     H40739   4.639   1.376   5.228 -0.8220 -1.3124 -0.1073
  309MOL0     H40740   4.593   1.478   5.352 -0.9785 -0.8992  2.3756
  309MOL0     H40741   4.452   1.367   5.531  1.1213 -0.5897  1.3824
  309MOL0     H40742   4.341   1.147   5.670 -1.3751 -0.0935  0.5186
  309MOL0     H40743   4.332   0.987   5.594  1.1497  0.5148  0.3916
  309MOL0     H40744   4.185   1.091   5.411 -2.5319  0.1488 -0.2811
  309MOL0     H40745   4.189   1.245   5.484 -0.2131 -0.7245 -0.4262
  309MOL0     H40746   4.067   0.991   5.613  1.3379 -0.0328 -1.7510
  309MOL0     H40747   4.075   1.151   5.689  1.4238  0.9663  0.1443
  309MOL0     H40748   3.927   1.060   5.430 -1.4291  2.4277 -1.2920
  309MOL0     H40749   3.912   1.223   5.489  0.4762  1.7859  0.1843
  309MOL0     H40750   3.636   1.207   5.532 -2.6232  1.2355 -2.9566
  309MOL0     H40751   3.417   1.108   5.424 -0.8615  0.9667  1.5207
  309MOL0     H40752   3.373   0.462   5.238 -0.1746 -0.7989 -0.3767
  309MOL0     H40753   3.222   0.353   5.113  2.3042  1.9164 -1.0343
  309MOL0     H40754   2.813   0.570   5.057 -2.2306  0.0711 -1.1958
  309MOL0     H40755   2.805   0.419   5.158  1.9210 -0.1520  0.4868
  309MOL0     H40756   2.640   0.452   4.938 -0.7236 -0.5446  2.7916
  309MOL0     H40757   2.695   0.309   4.982  1.4488  0.9867  2.8380
  309MOL0     H40758   2.917   0.338   4.836  0.7537  1.0971 -0.9943
  309MOL0     H40759   2.851   0.488   4.786  0.4290 -0.4455  0.1276
  309MOL0     H40760   2.819   0.265   4.638  0.7607 -0.9327  1.0038
  309MOL0     H40761   2.682   0.231   4.739  0.4472 -1.0477 -0.5131
  309MOL0     H40762   2.732   0.492   4.587  1.6350  0.7063  1.9000
  309MOL0     H40763   2.586   0.468   4.682 -2.3932 -2.5814  0.1046
  309MOL0     H40764   2.518   0.277   4.538  1.7221 -0.8717  1.5778
  309MOL0     H40765   2.674   0.271   4.462 -2.3109 -0.9858 -1.4729
  309MOL0     H40766   2.651   0.501   4.359 -0.0731 -0.0573  0.1163
  309MOL0     H40767   2.542   0.387   4.288 -2.0136  1.4201 -0.3911
  309MOL0     H40768   2.464   0.578   4.504 -1.3462  0.4399 -0.8087
  309MOL0     H40769   2.364   0.442   4.452 -0.4024 -0.3596 -0.2064
  309MOL0     H40770   2.927   0.654   5.216 -1.4142 -1.1349  0.8057
  309MOL0     H40771   3.104   0.766   5.361  2.1899 -0.2541  1.0964
  309MOL0     H40772   3.595   0.720   5.494  0.6066  0.6199  1.9985
  309MOL0     H40773   3.784   0.822   5.596 -0.6432 -0.1276  1.2146
  309MOL0     H40774   5.643   1.568   5.805  2.2002 -0.0930  0.9862
  309MOL0     H40775   5.872   1.668   5.881  1.4046  0.8477  0.3545
  309MOL0     H40776   6.371   1.653   5.745  4.4703 -0.7830  2.4605
  309MOL0     H40777   6.586   1.769   5.809  0.6069  1.1626  0.7364
  309MOL0     H40778   6.733   1.935   5.781  1.4394  1.2589 -0.1319
  309MOL0     H40779   6.754   1.905   5.959  0.8921  0.7376  0.1640
  309MOL0     H40780   6.813   2.185   5.843  0.1561 -1.0394 -1.2833
  309MOL0     H40781   6.828   2.116   6.012 -2.2970 -0.6201  0.3770
  309MOL0     H40782   7.007   1.978   5.946  0.4084  1.2666  0.9277
  309MOL0     H40783   7.034   2.147   5.894  1.4423 -0.8473 -0.6993
  309MOL0     H40784   6.986   2.139   5.694  1.7435  0.5506 -1.9981
  309MOL0     H40785   7.135   2.055   5.733 -0.3748 -1.8376 -2.7548
  309MOL0     H40786   6.928   1.732   5.559  1.5278  1.5501 -2.3202
  309MOL0     H40787   6.346   2.110   5.925 -1.7804  0.7288 -0.0808
  309MOL0     H40788   6.152   2.000   5.857  0.6439 -0.4976  4.1338
  310MOL0     O40789   2.234  11.092   8.816  0.0418 -0.7976  0.5950
  310MOL0     C40790   2.193  11.201   8.859  0.3303  0.2270 -0.0828
  310MOL0     O40791   2.078  11.265   8.824  0.1401 -0.0838  0.3107
  310MOL0     C40792   2.002  11.233   8.707 -0.0899  0.2447 -0.3283
  310MOL0     C40793   2.047  11.157   8.591  0.0406  0.2582 -0.8041
  310MOL0     C40794   1.961  11.138   8.484  0.6920  0.4609 -0.0613
  310MOL0     C40795   1.833  11.188   8.483 -0.7088 -0.8804 -0.2475
  310MOL0     O40796   1.758  11.177   8.365  0.3270  0.3549 -0.3294
  310MOL0     C40797   1.615  11.166   8.388  0.2313 -1.1108  0.6522
  310MOL0     C40798   1.549  11.150   8.249 -0.8977  0.3263  0.0612
  310MOL0     C40799   1.401  11.126   8.237  0.6831 -0.1082  0.3532
  310MOL0     C40800   1.351  11.118   8.093  0.1113  0.1558 -0.2091
  310MOL0     C40801   1.203  11.156   8.067 -0.9382  0.0643 -0.4700
  310MOL0     C40802   1.185  11.144   7.921  0.1932 -0.2332 -0.5618
  310MOL0     C40803   1.037  11.164   7.895  0.0483  0.2133 -0.0985
  310MOL0     C40804   0.996  11.218   7.762 -0.0392  0.2788  0.5741
  310MOL0     N40805   0.853  11.252   7.748 -0.1675 -1.2812 -0.1653
  310MOL0     C40806   0.792  11.292   7.633 -0.0006  0.7443 -0.8481
  310MOL0     C40807   0.655  11.264   7.657  0.0798 -0.3841  0.3562
  310MOL0     C40808   0.547  11.268   7.555  0.4430  0.1713 -0.5131
  310MOL0     C40809   0.427  11.187   7.610 -0.1038  0.3282  0.3746
  310MOL0     C40810   0.322  11.207   7.510  0.3241 -0.6137 -0.5252
  310MOL0     C40811   0.185  11.146   7.548  0.0294 -0.1125  0.8632
  310MOL0     O40812   0.101  11.233   7.625 -0.2062 -0.1151  0.1105
  310MOL0     C40813  -0.027  11.186   7.662 -0.7541  0.1459 -0.0849
  310MOL0     C40814  -0.108  11.266   7.743 -0.0101 -0.1739 -1.1004
  310MOL0     C40815  -0.225  11.218   7.801  0.1558 -0.3986 -0.3698
  310MOL0     C40816  -0.290  11.108   7.757 -0.0972 -0.3189  0.2123
  310MOL0     C40817  -0.412  11.061   7.821 -0.0832  0.4684  0.2357
  310MOL0     O40818  -0.470  10.951   7.759 -0.1596  0.4060 -0.2519
  310MOL0     C40819  -0.587  10.904   7.793 -0.8669  0.3462  0.4570
  310MOL0     C40820  -0.606  10.829   7.906  0.3648 -0.2416 -0.6074
  310MOL0     C40821  -0.730  10.782   7.936 -0.5730 -0.1235 -0.1954
  310MOL0     C40822  -0.843  10.802   7.856  0.7176  0.6524  0.4215
  310MOL0     O40823  -0.960  10.731   7.888 -0.2325 -0.4439 -0.4857
  310MOL0     C40824  -0.982  10.621   7.801  0.3768  0.2248  0.1639
  310MOL0     C40825  -1.127  10.572   7.828  0.1626  0.7881 -0.2255
  310MOL0     C40826  -1.236  10.672   7.796 -0.7471  0.9086 -0.3382
  310MOL0     C40827  -1.383  10.626   7.804  0.9802  0.7342  0.2694
  310MOL0     C40828  -1.483  10.743   7.786  0.1010 -0.9217  0.0859
  310MOL0     C40829  -1.630  10.690   7.785 -0.4293  0.1356 -1.0723
  310MOL0     C40830  -1.701  10.793   7.696 -0.0230 -0.2930  0.3729
  310MOL0     C40831  -1.849  10.762   7.703 -0.2392  0.0063  0.7970
  310MOL0    Cl40832  -1.934  10.827   7.840 -0.1600 -0.1658  0.2404
  310MOL0     C40833  -0.822  10.862   7.732 -0.5699  0.4649 -0.1058
  310MOL0     C40834  -0.692  10.910   7.702 -0.1214 -0.2957  1.3228
  310MOL0     O40835  -0.465  11.136   7.900 -0.4754  0.5645  0.2034
  310MOL0     C40836  -0.220  11.032   7.656  0.1347  0.1092  0.3522
  310MOL0     C40837  -0.091  11.074   7.606  0.3396  0.7848  0.2645
  310MOL0     N40838   0.643  11.210   7.778 -0.7309 -0.4162  0.1914
  310MOL0     N40839   0.763  11.194   7.835  0.4625  0.8034  0.0551
  310MOL0     C40840   1.788  11.250   8.595  0.1135 -0.3675 -1.2180
  310MOL0     C40841   1.864  11.279   8.706  0.0463  0.0901 -0.2193
  310MOL0     C40842   2.283  11.263   8.958 -0.5230  0.4227 -0.4052
  310MOL0     C40843   2.382  11.189   9.029 -0.0867  0.3012 -0.1987
  310MOL0     C40844   2.482  11.256   9.108  0.5355  0.4933  0.3089
  310MOL0     C40845   2.483  11.393   9.116 -0.6674 -0.2108  0.6103
  310MOL0     O40846   2.566  11.462   9.200 -0.1500  0.2611 -0.6940
  310MOL0     C40847   2.670  11.530   9.134 -0.1997 -0.2710  0.1707
  310MOL0     C40848   2.796  11.440   9.162 -0.6474 -0.5311 -1.0710
  310MOL0     C40849   2.913  11.473   9.068  0.2603  0.0590  0.1139
  310MOL0     C40850   3.037  11.386   9.086  0.0722  1.1677  0.7435
  310MOL0     C40851   3.026  11.264   8.996 -0.6132  0.3234 -0.0326
  310MOL0     C40852   3.039  11.184   8.904  1.0850  0.6208  0.0728
  310MOL0     C40853   2.372  11.464   9.056 -0.3677 -0.8166 -0.5574
  310MOL0     C40854   2.275  11.398   8.979 -0.1795 -0.8979  0.1646
  310MOL0     H40855   2.146  11.112   8.588  0.5776  1.4683 -1.8751
  310MOL0     H40856   2.008  11.092   8.398  3.4750  0.3799  1.4039
  310MOL0     H40857   1.570  11.256   8.429  0.3470  0.0367 -1.5577
  310MOL0     H40858   1.582  11.085   8.453  1.4189 -0.3158  2.3068
  310MOL0     H40859   1.597  11.064   8.201  0.0213  0.3306  0.9490
  310MOL0     H40860   1.573  11.242   8.195  0.0148 -0.0814 -0.2439
  310MOL0     H40861   1.344  11.210   8.280  0.6614 -0.1394  0.3852
  310MOL0     H40862   1.379  11.028   8.282  0.8488 -1.8830 -3.1040
  310MOL0     H40863   1.416  11.180   8.030 -0.0416  1.2548  0.6751
  310MOL0     H40864   1.368  11.017   8.055  0.4779 -0.0940  0.5793
  310MOL0     H40865   1.182  11.259   8.097 -1.4185 -0.1660  0.0041
  310MOL0     H40866   1.131  11.091   8.117 -0.6222  1.8129  2.5241
  310MOL0     H40867   1.209  11.046   7.879  1.3443 -0.1702 -0.0882
  310MOL0     H40868   1.236  11.229   7.875 -1.7227  1.6938  0.6812
  310MOL0     H40869   0.984  11.069   7.901 -3.7982  1.9121 -2.7188
  310MOL0     H40870   1.007  11.224   7.982  1.5559 -1.3248  1.5760
  310MOL0     H40871   1.008  11.134   7.694 -2.6260  0.6925 -0.5104
  310MOL0     H40872   1.063  11.293   7.718 -0.0437 -0.1996 -0.2633
  310MOL0     H40873   0.843  11.334   7.547  1.6753  0.7973  0.1482
  310MOL0     H40874   0.583  11.212   7.469 -1.2957 -0.7575 -0.6762
  310MOL0     H40875   0.517  11.369   7.526 -1.2236 -0.3742 -0.7793
  310MOL0     H40876   0.397  11.220   7.710 -1.4070 -0.1108  0.1543
  310MOL0     H40877   0.458  11.083   7.626 -2.1774 -0.3341  0.3293
  310MOL0     H40878   0.301  11.312   7.488  3.0254 -0.7972 -5.3349
  310MOL0     H40879   0.367  11.169   7.417  3.6421  1.6628 -0.0414
  310MOL0     H40880   0.195  11.044   7.586  0.8874 -1.6297 -3.0450
  310MOL0     H40881   0.133  11.139   7.453 -1.1242  0.1850  1.4554
  310MOL0     H40882  -0.063  11.358   7.778 -0.1549 -0.1318 -1.0248
  310MOL0     H40883  -0.283  11.271   7.876 -2.1892 -1.1662 -1.5380
  310MOL0     H40884  -0.522  10.805   7.971 -0.9911  0.0668  1.3357
  310MOL0     H40885  -0.743  10.717   8.022  1.0939 -3.3606 -2.1842
  310MOL0     H40886  -0.910  10.546   7.836 -0.9974 -0.3090  2.0645
  310MOL0     H40887  -0.958  10.632   7.695  0.3545  0.5913  0.1956
  310MOL0     H40888  -1.148  10.556   7.935 -1.8297  0.9523 -0.5627
  310MOL0     H40889  -1.141  10.476   7.778 -0.3652  1.4729 -1.4274
  310MOL0     H40890  -1.222  10.699   7.691 -4.4425 -0.5987 -1.3811
  310MOL0     H40891  -1.218  10.766   7.848 -0.5144  1.5407 -1.5303
  310MOL0     H40892  -1.406  10.555   7.725 -0.5989  0.0301  1.3213
  310MOL0     H40893  -1.399  10.573   7.898 -1.0028  0.3437 -0.2421
  310MOL0     H40894  -1.460  10.790   7.690 -0.5225 -0.8983 -0.0550
  310MOL0     H40895  -1.467  10.820   7.863  1.5920  0.2496 -1.3115
  310MOL0     H40896  -1.666  10.687   7.888  0.6739 -1.0336 -0.6939
  310MOL0     H40897  -1.641  10.588   7.746 -0.7057 -1.4342  2.6937
  310MOL0     H40898  -1.672  10.895   7.724 -0.7581  0.4687 -1.5206
  310MOL0     H40899  -1.670  10.786   7.591  0.3179  0.2116  0.4338
  310MOL0     H40900  -1.858  10.653   7.708 -1.3558  0.1276  2.1650
  310MOL0     H40901  -1.902  10.802   7.616  1.1579 -0.1109 -0.1366
  310MOL0     H40902  -0.899  10.890   7.661 -0.3611 -0.5586 -0.7504
  310MOL0     H40903  -0.685  10.963   7.608 -0.5169 -2.3173  0.0818
  310MOL0     H40904  -0.261  10.933   7.638 -2.7734  0.3076  4.4719
  310MOL0     H40905  -0.046  11.026   7.519  0.8727  1.3080  0.2496
  310MOL0     H40906   1.685  11.282   8.610  0.1120 -1.0919  0.5609
  310MOL0     H40907   1.830  11.332   8.795  1.2834  1.6713 -0.6509
  310MOL0     H40908   2.396  11.081   9.021 -0.6386  0.1862  0.3332
  310MOL0     H40909   2.555  11.200   9.165  0.1055 -0.2458  0.1478
  310MOL0     H40910   2.679  11.632   9.173 -0.6681 -0.8645  1.9197
  310MOL0     H40911   2.650  11.540   9.027 -0.0805  0.1730  0.1851
  310MOL0     H40912   2.827  11.455   9.266  2.2989  1.8078 -2.1319
  310MOL0     H40913   2.780  11.332   9.159  1.0530 -0.8103 -1.1398
  310MOL0     H40914   2.951  11.574   9.088 -3.1434  1.1824  1.6804
  310MOL0     H40915   2.879  11.474   8.964  1.9141 -0.4100 -0.4608
  310MOL0     H40916   3.123  11.449   9.062 -1.1633  2.6056 -0.0923
  310MOL0     H40917   3.045  11.358   9.192  0.2839 -0.5371  0.3154
  310MOL0     H40918   3.063  11.120   8.822  1.4963  2.3537 -1.2201
  310MOL0     H40919   2.364  11.571   9.073  1.3274 -0.9864  1.6411
  310MOL0     H40920   2.195  11.456   8.934 -1.2346 -0.9711  1.8434
  311MOL0     O40921  11.234   2.701   1.366 -0.0778  0.1552  0.4826
  311MOL0     C40922  11.303   2.700   1.468  0.0828  0.0459  0.3582
  311MOL0     O40923  11.266   2.658   1.589  0.3123 -0.6512  0.2718
  311MOL0     C40924  11.127   2.637   1.615  0.6156 -0.4252  0.8138
  311MOL0     C40925  11.020   2.726   1.578 -0.6407  0.1643 -0.7649
  311MOL0     C40926  10.889   2.705   1.628  0.7798 -0.7301 -0.0321
  311MOL0     C40927  10.861   2.585   1.697  0.3310 -0.6837 -0.7021
  311MOL0     O40928  10.732   2.549   1.743 -0.6201  0.5691 -0.7616
  311MOL0     C40929  10.617   2.629   1.724 -0.1296 -0.2025  0.4283
  311MOL0     C40930  10.498   2.556   1.782  0.9370  0.0940 -0.4418
  311MOL0     C40931  10.498   2.532   1.935  0.1068  0.2868  0.4442
  311MOL0     C40932  10.386   2.438   1.972  0.7682  0.4253  0.5590
  311MOL0     C40933  10.377   2.411   2.126 -0.0044  0.0683 -0.7743
  311MOL0     C40934  10.279   2.297   2.162  0.9596  0.5209 -0.0248
  311MOL0     C40935  10.243   2.299   2.310  0.2890 -0.0378  0.3793
  311MOL0     C40936  10.151   2.181   2.343  1.0036 -0.5518  0.5121
  311MOL0     N40937  10.193   2.042   2.318 -0.2696  0.3630  0.2342
  311MOL0     C40938  10.268   1.962   2.397 -0.8374  0.6219  0.1392
  311MOL0     C40939  10.300   1.851   2.333 -0.8839  0.1249  0.1816
  311MOL0     C40940  10.383   1.740   2.391 -0.0772  0.3459  0.8559
  311MOL0     C40941  10.476   1.682   2.279 -0.2072 -0.2245  0.2293
  311MOL0     C40942  10.594   1.583   2.311  0.3051  0.1860 -0.8528
  311MOL0     C40943  10.718   1.615   2.223 -0.6128  1.2233  0.1944
  311MOL0     O40944  10.686   1.637   2.086  1.1724 -0.0918 -0.1203
  311MOL0     C40945  10.630   1.533   2.016 -1.3751  0.2891  0.1849
  311MOL0     C40946  10.519   1.562   1.938 -0.2291 -0.5312  0.4890
  311MOL0     C40947  10.471   1.460   1.857  0.8272 -1.1203  1.1656
  311MOL0     C40948  10.517   1.328   1.869  0.4611  0.1516  0.3092
  311MOL0     C40949  10.446   1.225   1.788  0.0699 -0.2087  0.4073
  311MOL0     O40950  10.313   1.234   1.771 -0.3231  0.2719 -0.7376
  311MOL0     C40951  10.235   1.128   1.720 -0.9887 -0.1477  0.4315
  311MOL0     C40952  10.267   0.996   1.703 -0.0459  0.7471  1.1838
  311MOL0     C40953  10.167   0.914   1.638 -0.4625 -0.0505 -0.4376
  311MOL0     C40954  10.043   0.969   1.589  0.3431  0.6879 -1.2540
  311MOL0     O40955   9.960   0.901   1.515 -0.0465  0.0017 -0.0957
  311MOL0     C40956   9.839   0.864   1.587  0.1566 -0.1863  0.4260
  311MOL0     C40957   9.763   0.797   1.479  0.6993 -0.5900  0.3442
  311MOL0     C40958   9.618   0.764   1.517 -0.4309  0.2465  0.9165
  311MOL0     C40959   9.523   0.840   1.422  0.5888 -0.3740 -0.1789
  311MOL0     C40960   9.383   0.860   1.474 -0.4144 -0.3811 -0.6034
  311MOL0     C40961   9.329   1.000   1.429  0.4195 -0.3920  0.3346
  311MOL0     C40962   9.176   1.017   1.468 -0.1686 -0.6337 -0.7297
  311MOL0     C40963   9.148   1.075   1.605 -0.6777 -0.2502 -0.1227
  311MOL0    Cl40964   8.982   1.042   1.641 -0.1121 -0.0359  0.0021
  311MOL0     C40965  10.023   1.106   1.600  0.0208  0.5328  0.3991
  311MOL0     C40966  10.117   1.182   1.674  0.3698  0.4021  0.2512
  311MOL0     O40967  10.518   1.129   1.753  0.1960 -0.0227 -0.3004
  311MOL0     C40968  10.625   1.298   1.954  0.5148  0.2230  0.0392
  311MOL0     C40969  10.685   1.401   2.019  0.3358  0.1665 -0.8565
  311MOL0     N40970  10.232   1.868   2.203 -0.4198 -0.1261  0.2110
  311MOL0     N40971  10.183   1.982   2.194 -0.6236  0.4033  0.0407
  311MOL0     C40972  10.958   2.498   1.722 -0.0455 -0.2993 -0.7639
  311MOL0     C40973  11.096   2.519   1.692  0.1124 -0.0408  0.9127
  311MOL0     C40974  11.445   2.754   1.465 -0.1839  0.5121 -0.0789
  311MOL0     C40975  11.529   2.757   1.585  0.4344 -1.5286  0.8777
  311MOL0     C40976  11.659   2.817   1.565 -0.7890 -0.0955  0.5931
  311MOL0     C40977  11.708   2.874   1.446 -0.1582  0.2187  0.3293
  311MOL0     O40978  11.839   2.917   1.431 -0.3242 -0.0154  0.4408
  311MOL0     C40979  11.933   2.893   1.525  0.3394  1.2051  0.1060
  311MOL0     C40980  12.071   2.931   1.463  0.9371  0.3905  0.8391
  311MOL0     C40981  12.204   2.889   1.527 -0.9308  0.2279 -0.8547
  311MOL0     C40982  12.222   2.946   1.671  0.2841 -0.2652  0.0208
  311MOL0     C40983  12.210   3.088   1.676  0.4062 -0.6666 -0.2538
  311MOL0     C40984  12.218   3.208   1.669  0.5632 -0.5034 -0.2131
  311MOL0     C40985  11.621   2.883   1.341 -0.1756 -0.8540  0.4674
  311MOL0     C40986  11.497   2.810   1.340 -1.7261 -0.0241 -0.6348
  311MOL0     H40987  11.046   2.808   1.513  1.2154 -2.4107 -3.5410
  311MOL0     H40988  10.810   2.776   1.607  1.3956  0.3753  1.1987
  311MOL0     H40989  10.597   2.654   1.619  0.1327 -2.7353 -0.2970
  311MOL0     H40990  10.629   2.725   1.776  0.8148  1.1510 -2.1103
  311MOL0     H40991  10.492   2.457   1.735 -0.0020 -0.4942  0.8662
  311MOL0     H40992  10.403   2.602   1.751  0.3582 -1.2213 -0.7144
  311MOL0     H40993  10.490   2.626   1.991 -3.0875  0.7572 -0.5823
  311MOL0     H40994  10.593   2.482   1.956 -1.3540 -3.0070 -0.1347
  311MOL0     H40995  10.293   2.488   1.942  0.1031  0.4779  2.5682
  311MOL0     H40996  10.394   2.350   1.908  1.1161  0.8532 -0.0002
  311MOL0     H40997  10.357   2.505   2.178  3.6299  0.2815  0.5284
  311MOL0     H40998  10.476   2.380   2.161 -1.4216 -4.9188 -0.4964
  311MOL0     H40999  10.307   2.196   2.129 -1.1460  0.0028 -0.3924
  311MOL0     H41000  10.186   2.311   2.105  1.9138  0.8960 -1.5423
  311MOL0     H41001  10.329   2.279   2.374  0.6698 -1.1980 -0.4547
  311MOL0     H41002  10.198   2.397   2.330 -0.9137 -0.4462 -0.1901
  311MOL0     H41003  10.056   2.200   2.291  0.8669 -0.6728  0.7150
  311MOL0     H41004  10.128   2.197   2.449  0.4246  1.1671  0.1626
  311MOL0     H41005  10.301   1.975   2.500  4.2883 -0.5980 -1.0862
  311MOL0     H41006  10.314   1.660   2.420 -0.2325  0.3225  0.4285
  311MOL0     H41007  10.442   1.767   2.478 -1.8754  0.6625  2.0395
  311MOL0     H41008  10.532   1.770   2.248 -1.1866  0.0213 -0.9727
  311MOL0     H41009  10.407   1.642   2.203  1.5162  0.2009 -1.6380
  311MOL0     H41010  10.629   1.591   2.415  3.7907  0.3349 -1.9188
  311MOL0     H41011  10.565   1.480   2.291 -0.6084  0.3300 -0.3512
  311MOL0     H41012  10.790   1.533   2.235  1.0714  2.7876  1.3310
  311MOL0     H41013  10.763   1.705   2.265  0.0961  2.6350 -3.2756
  311MOL0     H41014  10.481   1.663   1.937  0.7585 -0.0413 -3.1693
  311MOL0     H41015  10.379   1.495   1.810  2.0720  2.8377  1.2795
  311MOL0     H41016  10.365   0.956   1.729 -0.8245  0.0909  3.3494
  311MOL0     H41017  10.192   0.810   1.623  0.2768  0.2237 -1.1921
  311MOL0     H41018   9.786   0.952   1.625 -1.1413 -1.6086  2.1013
  311MOL0     H41019   9.844   0.785   1.663 -0.4099 -2.4862 -1.7786
  311MOL0     H41020   9.819   0.705   1.459 -0.2922 -0.8998 -1.2371
  311MOL0     H41021   9.770   0.850   1.384  1.7469 -2.7263 -0.8570
  311MOL0     H41022   9.611   0.775   1.626 -2.1573 -1.8752  1.1000
  311MOL0     H41023   9.596   0.659   1.495  1.2954 -0.2914  1.6179
  311MOL0     H41024   9.569   0.939   1.414 -2.4394  1.6608  3.9323
  311MOL0     H41025   9.508   0.797   1.322  0.0387  1.2155 -0.8288
  311MOL0     H41026   9.387   0.868   1.582 -0.7626  2.1744 -0.7259
  311MOL0     H41027   9.318   0.775   1.450 -1.8941  1.1746 -2.4436
  311MOL0     H41028   9.333   0.992   1.320  0.3024 -0.3557  0.3279
  311MOL0     H41029   9.395   1.081   1.463 -0.2022  0.1180  0.3301
  311MOL0     H41030   9.130   1.082   1.392  1.4643  1.0083 -0.3849
  311MOL0     H41031   9.121   0.923   1.455 -3.6179  1.0177  0.6599
  311MOL0     H41032   9.182   1.178   1.610  0.2088 -0.4247 -1.8245
  311MOL0     H41033   9.210   1.030   1.684  1.5794  2.6475 -0.0904
  311MOL0     H41034   9.935   1.153   1.558  0.3823  1.0925  0.2664
  311MOL0     H41035  10.088   1.284   1.696 -1.7451  0.0885 -0.8595
  311MOL0     H41036  10.653   1.193   1.957 -3.6834 -1.2145 -2.7552
  311MOL0     H41037  10.776   1.380   2.074 -0.4121  2.8111  1.6751
  311MOL0     H41038  10.942   2.414   1.789 -0.6521  1.0603  0.8633
  311MOL0     H41039  11.180   2.457   1.722 -0.4001 -0.4079  1.6116
  311MOL0     H41040  11.498   2.715   1.680  0.4347 -2.1500  0.6090
  311MOL0     H41041  11.738   2.810   1.640 -0.7782  2.0648  0.8473
  311MOL0     H41042  11.935   2.789   1.560 -0.8324  0.5818 -1.5582
  311MOL0     H41043  11.918   2.964   1.607 -0.1102  1.2730 -0.0331
  311MOL0     H41044  12.077   2.881   1.365 -1.3192 -2.3852  1.9631
  311MOL0     H41045  12.074   3.038   1.439 -1.9132  0.0324 -1.8699
  311MOL0     H41046  12.293   2.915   1.468  1.1154 -0.4043  1.7692
  311MOL0     H41047  12.206   2.780   1.534  1.4850  0.0682 -2.5701
  311MOL0     H41048  12.140   2.917   1.737  1.0259  2.6364  2.4424
  311MOL0     H41049  12.311   2.904   1.720  0.1844  0.7386  1.0936
  311MOL0     H41050  12.229   3.314   1.656 -0.6043 -0.3928 -0.3727
  311MOL0     H41051  11.661   2.921   1.247  1.6290 -0.0706  1.4853
  311MOL0     H41052  11.438   2.805   1.248 -0.6681 -0.5096 -1.3086
  312MOL0     O41053   0.363  11.141   2.073 -0.2992 -0.3434 -0.3249
  312MOL0     C41054   0.372  11.112   2.195  0.5104  0.0061  0.3997
  312MOL0     O41055   0.486  11.121   2.266  0.0025  0.5477  0.0293
  312MOL0     C41056   0.600  11.177   2.209 -0.3875 -0.0440  0.4549
  312MOL0     C41057   0.619  11.297   2.138  0.0239 -0.0197  0.2683
  312MOL0     C41058   0.749  11.348   2.087  0.7438  0.2944  0.1012
  312MOL0     C41059   0.857  11.276   2.125  0.7076  0.1970 -0.3586
  312MOL0     O41060   0.980  11.327   2.088 -0.0182  0.1621  0.0900
  312MOL0     C41061   1.063  11.317   2.201 -0.7744  0.3457 -0.3397
  312MOL0     C41062   1.188  11.404   2.189 -0.6790 -0.3931  1.0627
  312MOL0     C41063   1.287  11.384   2.305  0.4818 -0.3099  0.2405
  312MOL0     C41064   1.407  11.470   2.291 -0.4695 -0.2648 -1.2945
  312MOL0     C41065   1.492  11.469   2.421 -0.2696  0.4137  0.3576
  312MOL0     C41066   1.637  11.528   2.404 -0.1544 -0.1897  0.5724
  312MOL0     C41067   1.733  11.508   2.533  0.3013 -0.2593 -0.7269
  312MOL0     C41068   1.679  11.542   2.680 -0.0721 -0.6774  0.2838
  312MOL0     N41069   1.778  11.505   2.780  0.9978 -0.6044 -0.5796
  312MOL0     C41070   1.750  11.430   2.893 -0.0918  0.0265 -1.4675
  312MOL0     C41071   1.877  11.431   2.958  0.2489 -0.0452 -0.2915
  312MOL0     C41072   1.909  11.354   3.086 -0.0955 -0.0856 -0.8209
  312MOL0     C41073   1.786  11.331   3.177  0.1548 -0.1751  0.0537
  312MOL0     C41074   1.822  11.249   3.308  0.1826 -0.5649  0.2263
  312MOL0     C41075   1.702  11.258   3.397 -0.3363  0.1656 -1.0552
  312MOL0     O41076   1.613  11.152   3.351  0.7379  0.3492  0.5820
  312MOL0     C41077   1.482  11.186   3.328 -0.6823 -0.1735  0.8687
  312MOL0     C41078   1.383  11.088   3.329 -0.9386  0.8492 -0.6467
  312MOL0     C41079   1.250  11.110   3.317 -0.8204 -0.5541 -0.8310
  312MOL0     C41080   1.194  11.233   3.284 -0.3781 -0.0513  0.1056
  312MOL0     C41081   1.054  11.265   3.283 -0.3220 -0.3204 -0.5345
  312MOL0     O41082   1.020  11.348   3.183 -0.3220  0.9996  0.0546
  312MOL0     C41083   0.890  11.379   3.158  0.4856  0.2581 -0.4283
  312MOL0     C41084   0.853  11.383   3.024 -0.4039 -0.9831  0.5694
  312MOL0     C41085   0.730  11.432   2.984  0.3383 -0.4012 -0.2028
  312MOL0     C41086   0.631  11.461   3.074 -0.1926  0.4381 -0.8548
  312MOL0     O41087   0.499  11.486   3.044 -0.0079 -0.5671 -0.1257
  312MOL0     C41088   0.454  11.521   2.913  0.1451  0.2549  0.7457
  312MOL0     C41089   0.305  11.562   2.925 -0.0486  0.0666 -0.6638
  312MOL0     C41090   0.218  11.459   2.993  0.2994  0.5602  0.6861
  312MOL0     C41091   0.069  11.503   3.018 -0.0695  0.3870 -0.5757
  312MOL0     C41092  -0.013  11.388   3.078  0.2688 -0.0352 -0.0657
  312MOL0     C41093  -0.159  11.434   3.079 -0.0134  0.0480  0.2434
  312MOL0     C41094  -0.258  11.322   3.131  0.0344  0.4208  0.7444
  312MOL0     C41095  -0.399  11.385   3.132 -0.2957 -0.5077  0.1824
  312MOL0    Cl41096  -0.526  11.263   3.176  0.1516  0.2302 -0.1076
  312MOL0     C41097   0.662  11.437   3.209  0.9029  0.1934 -0.2068
  312MOL0     C41098   0.794  11.412   3.256  0.2996 -0.6132  0.7669
  312MOL0     O41099   0.984  11.227   3.374 -1.5263  0.0051  0.6371
  312MOL0     C41100   1.289  11.335   3.256 -0.1998  0.1122  0.2909
  312MOL0     C41101   1.429  11.316   3.288 -0.0392  0.8223  0.0814
  312MOL0     N41102   1.977  11.488   2.885 -0.0206 -0.4859  0.5385
  312MOL0     N41103   1.914  11.534   2.780  1.2677  0.9948  0.2620
  312MOL0     C41104   0.838  11.143   2.190 -0.0785 -0.2271  0.5942
  312MOL0     C41105   0.712  11.105   2.234 -0.0692  0.0956  0.3882
  312MOL0     C41106   0.239  11.071   2.256 -0.0061 -0.5679 -1.0428
  312MOL0     C41107   0.126  11.075   2.180 -0.0330 -0.4898 -0.9245
  312MOL0     C41108   0.001  11.042   2.235 -0.3025  0.4356  0.3490
  312MOL0     C41109  -0.009  10.994   2.367  0.0491  0.1216  0.0029
  312MOL0     O41110  -0.118  10.947   2.437  0.0531  0.6144  0.1340
  312MOL0     C41111  -0.230  10.881   2.369  0.5382 -0.0524 -0.4846
  312MOL0     C41112  -0.215  10.732   2.361  0.0793  0.4056 -0.5132
  312MOL0     C41113  -0.294  10.676   2.245  0.0335 -1.4055 -0.7303
  312MOL0     C41114  -0.289  10.529   2.230  0.1520  0.3914  0.3375
  312MOL0     C41115  -0.166  10.488   2.161  0.5302  0.0854  0.0417
  312MOL0     C41116  -0.079  10.444   2.096  0.0067  0.1198  0.3742
  312MOL0     C41117   0.108  10.979   2.440 -0.1875  0.1163  0.1919
  312MOL0     C41118   0.227  11.022   2.388  0.2282 -0.5077 -0.6264
  312MOL0     H41119   0.526  11.349   2.120  0.3599  0.5172  0.0721
  312MOL0     H41120   0.750  11.438   2.026 -0.4343  3.0348  3.7405
  312MOL0     H41121   1.095  11.214   2.213 -0.5400  0.6944  2.6674
  312MOL0     H41122   1.023  11.356   2.295  4.8442  1.9386  1.7777
  312MOL0     H41123   1.150  11.506   2.186 -0.2872 -0.1627  2.9952
  312MOL0     H41124   1.237  11.376   2.095 -0.9960 -0.9465  1.0543
  312MOL0     H41125   1.328  11.282   2.308 -2.0650 -1.3864  2.1518
  312MOL0     H41126   1.234  11.412   2.396 -0.7822  0.0045 -0.5636
  312MOL0     H41127   1.457  11.442   2.197  0.3131 -0.7030 -0.7580
  312MOL0     H41128   1.379  11.572   2.263  0.0112 -0.2004 -1.5534
  312MOL0     H41129   1.511  11.363   2.444  0.8144 -0.1772 -2.8383
  312MOL0     H41130   1.428  11.509   2.501 -1.6936  0.8357 -0.9458
  312MOL0     H41131   1.632  11.636   2.389 -1.4154 -0.2708  0.2610
  312MOL0     H41132   1.684  11.490   2.313  2.6840  3.7962  0.1198
  312MOL0     H41133   1.768  11.405   2.532 -1.0427 -0.9099  2.8605
  312MOL0     H41134   1.830  11.554   2.511  1.1558 -1.7415 -0.1657
  312MOL0     H41135   1.580  11.505   2.708  0.2770  1.1104  4.7021
  312MOL0     H41136   1.656  11.646   2.705  1.7637 -0.6526  2.2566
  312MOL0     H41137   1.661  11.380   2.930  2.5254 -1.4271  4.0358
  312MOL0     H41138   1.982  11.413   3.142  1.9473 -1.8409 -1.4859
  312MOL0     H41139   1.944  11.255   3.053 -0.7499 -0.6429  0.1208
  312MOL0     H41140   1.699  11.290   3.125  0.8487  1.0184 -2.1869
  312MOL0     H41141   1.761  11.436   3.198  0.0040 -0.2459  0.2283
  312MOL0     H41142   1.830  11.143   3.281 -0.6889 -0.5888  0.0202
  312MOL0     H41143   1.908  11.295   3.357 -0.8585  1.1090  0.5631
  312MOL0     H41144   1.665  11.359   3.416  0.6481  0.0714  1.8234
  312MOL0     H41145   1.738  11.226   3.495 -0.3832  0.7576 -0.8459
  312MOL0     H41146   1.411  10.987   3.360  0.1912  0.8665 -1.5391
  312MOL0     H41147   1.178  11.036   3.352  0.5679 -2.3636 -1.6323
  312MOL0     H41148   0.923  11.338   2.955  0.9528  1.4684  0.2432
  312MOL0     H41149   0.702  11.444   2.880  0.5908  0.0070 -0.2244
  312MOL0     H41150   0.454  11.436   2.845  0.8400  1.3955 -0.7176
  312MOL0     H41151   0.508  11.599   2.860 -3.5515  3.2209  0.9222
  312MOL0     H41152   0.258  11.591   2.831  2.3272  0.6465 -1.7689
  312MOL0     H41153   0.306  11.654   2.984  1.3894 -0.0879 -0.4069
  312MOL0     H41154   0.245  11.426   3.094  0.6101 -1.2460  0.0511
  312MOL0     H41155   0.204  11.364   2.940 -4.1482  1.7773 -0.8122
  312MOL0     H41156   0.077  11.582   3.094  2.3055 -1.5384  1.3543
  312MOL0     H41157   0.020  11.528   2.924  0.9227 -2.3718 -1.9293
  312MOL0     H41158   0.024  11.381   3.180  1.8689  4.2925 -0.1363
  312MOL0     H41159  -0.002  11.290   3.031  3.7267 -0.7263  1.8687
  312MOL0     H41160  -0.190  11.470   2.981  0.1563  1.0426  0.5423
  312MOL0     H41161  -0.158  11.519   3.149 -1.1086  0.2734  0.0160
  312MOL0     H41162  -0.244  11.230   3.075  0.1983  0.6861  0.3443
  312MOL0     H41163  -0.219  11.312   3.233  0.1555  0.4160  0.6985
  312MOL0     H41164  -0.424  11.434   3.037  1.7838  0.0385 -0.1430
  312MOL0     H41165  -0.383  11.465   3.205 -2.1441 -0.9128  1.0893
  312MOL0     H41166   0.587  11.471   3.280 -0.5218 -2.2235 -0.4569
  312MOL0     H41167   0.807  11.406   3.363 -0.0020 -2.1960  0.7311
  312MOL0     H41168   1.254  11.435   3.233  1.5905  0.7640  0.2444
  312MOL0     H41169   1.494  11.402   3.293  1.2875  0.1187 -2.7407
  312MOL0     H41170   0.915  11.067   2.192 -1.6889 -1.9113  1.6710
  312MOL0     H41171   0.711  11.019   2.301  1.5355 -0.0687  0.2335
  312MOL0     H41172   0.126  11.122   2.082  1.1479 -0.2097 -0.7997
  312MOL0     H41173  -0.082  11.049   2.165  0.0573 -1.9267 -0.4037
  312MOL0     H41174  -0.254  10.917   2.269 -0.2528  0.3186 -0.1688
  312MOL0     H41175  -0.317  10.906   2.430  0.1971  2.0684 -1.7469
  312MOL0     H41176  -0.109  10.706   2.353  0.0260  0.5910 -2.2382
  312MOL0     H41177  -0.256  10.683   2.449 -1.1607 -0.2336 -1.4105
  312MOL0     H41178  -0.270  10.733   2.155 -0.7549  2.4810  1.2895
  312MOL0     H41179  -0.397  10.703   2.273  0.4129 -0.6234 -0.0547
  312MOL0     H41180  -0.308  10.472   2.321  2.4919 -3.2338 -1.2353
  312MOL0     H41181  -0.361  10.496   2.155  0.6293  0.9739 -0.3947
  312MOL0     H41182   0.002  10.385   2.058 -0.3212 -1.2868  1.7621
  312MOL0     H41183   0.101  10.932   2.537 -1.0396 -0.6508 -0.2291
  312MOL0     H41184   0.316  11.010   2.449 -0.3943 -0.0098  0.4076
  313MOL0     O41185   9.965   4.927   7.579 -0.3805 -0.3384 -0.4257
  313MOL0     C41186  10.054   4.992   7.629 -0.2032 -1.0050  0.7239
  313MOL0     O41187  10.033   5.116   7.689 -0.3334 -0.0601 -0.4490
  313MOL0     C41188   9.908   5.176   7.696 -0.0977  0.0357  0.3674
  313MOL0     C41189   9.809   5.107   7.760 -0.1432  0.0323 -1.0703
  313MOL0     C41190   9.683   5.155   7.775 -0.5156  0.4088 -0.4414
  313MOL0     C41191   9.642   5.277   7.716  0.7264 -0.4952  0.9004
  313MOL0     O41192   9.526   5.346   7.732  0.2279  0.2373  0.0444
  313MOL0     C41193   9.411   5.261   7.759 -0.0779  0.4374 -0.7839
  313MOL0     C41194   9.288   5.335   7.711 -0.7563  0.3413 -0.3614
  313MOL0     C41195   9.174   5.243   7.689  0.8944 -0.5023  0.1183
  313MOL0     C41196   9.106   5.202   7.820 -0.8332  0.4047  0.1663
  313MOL0     C41197   8.994   5.091   7.797 -0.2887  0.4942  0.7153
  313MOL0     C41198   8.868   5.147   7.740  1.4610 -0.8251  0.5675
  313MOL0     C41199   8.771   5.194   7.862  0.0743  0.2991  1.2481
  313MOL0     C41200   8.644   5.254   7.835  0.0270 -0.0544 -0.1757
  313MOL0     N41201   8.542   5.180   7.756 -0.7262  0.3707 -0.3025
  313MOL0     C41202   8.454   5.091   7.821 -1.0736  0.0132  0.0811
  313MOL0     C41203   8.391   5.023   7.723  0.6155 -0.2391  0.2600
  313MOL0     C41204   8.299   4.910   7.740  0.1850  0.1414 -0.5461
  313MOL0     C41205   8.187   4.924   7.839  0.1607  0.2143 -0.5225
  313MOL0     C41206   8.088   5.040   7.806 -0.6857 -0.2799 -0.4158
  313MOL0     C41207   7.962   5.020   7.874  0.3242 -0.0921 -0.4348
  313MOL0     O41208   7.883   5.134   7.846 -0.4551  0.7961 -0.3339
  313MOL0     C41209   7.751   5.127   7.842  0.1055  0.3023  0.0002
  313MOL0     C41210   7.677   5.047   7.930 -0.4011 -0.3912  0.6561
  313MOL0     C41211   7.548   5.028   7.900  0.5546  0.1295 -0.3241
  313MOL0     C41212   7.477   5.089   7.794  1.0894 -0.5232 -0.7034
  313MOL0     C41213   7.333   5.068   7.776  0.7836 -0.2028  0.0197
  313MOL0     O41214   7.277   5.154   7.692 -0.3898  0.5814  0.9904
  313MOL0     C41215   7.157   5.108   7.627 -0.8006  0.4814  0.0087
  313MOL0     C41216   7.142   4.975   7.591  0.1622  0.4890 -0.3865
  313MOL0     C41217   7.022   4.937   7.531  0.1851 -0.1656 -0.5685
  313MOL0     C41218   6.919   5.020   7.497 -0.1695  0.9036 -0.1784
  313MOL0     O41219   6.787   4.985   7.460  0.4464 -0.4330 -0.4551
  313MOL0     C41220   6.764   4.865   7.387  0.5013 -0.2692  0.6039
  313MOL0     C41221   6.807   4.880   7.241 -0.2061 -1.2774 -0.0110
  313MOL0     C41222   6.730   4.955   7.128  0.4478  0.0327  0.5445
  313MOL0     C41223   6.752   5.099   7.143 -0.5890 -0.4926  0.1573
  313MOL0     C41224   6.723   5.179   7.007  0.4273 -0.0468  0.8480
  313MOL0     C41225   6.580   5.177   6.955  0.1188  0.5870  0.0702
  313MOL0     C41226   6.570   5.209   6.800 -0.5904  0.7071  0.4055
  313MOL0     C41227   6.418   5.240   6.780  0.3870 -0.2067 -0.0737
  313MOL0    Cl41228   6.390   5.370   6.646  0.0815 -0.3765 -0.4353
  313MOL0     C41229   6.939   5.155   7.512 -0.8679  0.6268 -0.3082
  313MOL0     C41230   7.062   5.197   7.582  0.0609  0.8286 -0.4430
  313MOL0     O41231   7.273   5.013   7.868 -0.0779 -0.3196 -0.4257
  313MOL0     C41232   7.548   5.188   7.724  0.3110 -0.9106 -1.1191
  313MOL0     C41233   7.686   5.195   7.743  0.0549  0.0644 -0.4325
  313MOL0     N41234   8.449   5.068   7.603 -0.5229 -0.4240 -0.8199
  313MOL0     N41235   8.543   5.158   7.629 -0.4825  0.4778  0.5772
  313MOL0     C41236   9.731   5.340   7.629 -0.5470  0.2737 -0.0254
  313MOL0     C41237   9.870   5.293   7.624  0.0441 -0.8992 -0.0478
  313MOL0     C41238  10.186   4.937   7.638  0.3106  0.5332 -0.0945
  313MOL0     C41239  10.299   5.015   7.667 -0.7344  0.3281  1.0494
  313MOL0     C41240  10.427   4.950   7.679 -0.6126  0.9527 -0.2824
  313MOL0     C41241  10.437   4.808   7.663 -0.1073 -0.1093  0.1451
  313MOL0     O41242  10.554   4.744   7.680 -0.3132 -0.0260  0.1116
  313MOL0     C41243  10.593   4.726   7.819 -0.4155  0.4258  0.5456
  313MOL0     C41244  10.527   4.606   7.881  0.3832 -0.1685 -0.7960
  313MOL0     C41245  10.547   4.478   7.804 -0.1171  0.3775  0.2948
  313MOL0     C41246  10.438   4.372   7.841  0.3790  0.0866  0.1900
  313MOL0     C41247  10.304   4.394   7.775 -0.0469 -0.4320  0.3573
  313MOL0     C41248  10.196   4.397   7.720  0.5978 -0.5786  0.6603
  313MOL0     C41249  10.319   4.734   7.638  0.1433  0.3598 -0.1900
  313MOL0     C41250  10.195   4.793   7.615 -0.0971  0.7671 -0.1770
  313MOL0     H41251   9.847   5.024   7.819  1.8047  1.9413  0.5656
  313MOL0     H41252   9.614   5.091   7.829 -0.1429 -0.7929 -1.3620
  313MOL0     H41253   9.407   5.233   7.865  0.7314  1.6267 -0.4163
  313MOL0     H41254   9.411   5.164   7.708 -0.3968  0.2088 -0.3627
  313MOL0     H41255   9.310   5.385   7.616  2.9698 -3.8651 -2.1062
  313MOL0     H41256   9.270   5.412   7.786  0.7601  2.5436 -2.1186
  313MOL0     H41257   9.210   5.160   7.629  1.1070  1.7537 -3.1090
  313MOL0     H41258   9.097   5.284   7.623  0.6407 -0.4620  0.4329
  313MOL0     H41259   9.177   5.145   7.882 -1.3074 -1.7008 -1.1094
  313MOL0     H41260   9.055   5.283   7.872 -3.3475 -0.6762 -0.4968
  313MOL0     H41261   8.984   5.028   7.886  3.7708  1.3716  1.9881
  313MOL0     H41262   9.039   5.016   7.730 -0.8689  0.3566  0.4710
  313MOL0     H41263   8.815   5.072   7.681 -2.0863  0.8189  1.4291
  313MOL0     H41264   8.899   5.233   7.679 -0.1298  0.0656  0.9474
  313MOL0     H41265   8.736   5.100   7.906  4.1695 -1.8767  0.3926
  313MOL0     H41266   8.821   5.255   7.938 -1.9149  3.5103  0.1908
  313MOL0     H41267   8.671   5.346   7.782  0.8380 -1.4877 -2.4179
  313MOL0     H41268   8.586   5.276   7.925 -1.3735 -1.5359 -0.6697
  313MOL0     H41269   8.441   5.081   7.928 -0.2128 -0.5162  0.1455
  313MOL0     H41270   8.366   4.829   7.771 -0.5353 -1.0608 -2.0164
  313MOL0     H41271   8.255   4.870   7.649  1.9647 -3.5327  0.0459
  313MOL0     H41272   8.224   4.950   7.939 -0.8630 -2.7603  0.7628
  313MOL0     H41273   8.139   4.826   7.847 -0.1148  0.0965 -2.9845
  313MOL0     H41274   8.132   5.127   7.856 -5.3697  0.5809  2.8404
  313MOL0     H41275   8.077   5.064   7.700  2.8435  2.6418 -0.3194
  313MOL0     H41276   7.973   5.018   7.983 -0.1208  3.0905 -0.2465
  313MOL0     H41277   7.919   4.938   7.816 -0.7288  2.1103 -2.9877
  313MOL0     H41278   7.719   4.993   8.014 -1.7908  0.5416  1.9932
  313MOL0     H41279   7.478   4.978   7.966  0.0494  1.1768 -0.0531
  313MOL0     H41280   7.212   4.898   7.622  0.0530 -0.3293 -2.0448
  313MOL0     H41281   7.019   4.831   7.508 -0.8431  0.0082 -1.2697
  313MOL0     H41282   6.659   4.833   7.383  0.9309 -1.6950 -0.2250
  313MOL0     H41283   6.816   4.774   7.419  1.9808 -0.6200 -2.4341
  313MOL0     H41284   6.823   4.776   7.209  1.4365 -0.0166 -3.9409
  313MOL0     H41285   6.912   4.907   7.228 -0.3296 -0.5379  0.4722
  313MOL0     H41286   6.626   4.925   7.139 -0.4151  1.4176 -2.6172
  313MOL0     H41287   6.764   4.920   7.029 -1.9152 -2.5292  0.5092
  313MOL0     H41288   6.690   5.142   7.222  0.0817  4.1002 -1.5251
  313MOL0     H41289   6.854   5.128   7.172 -0.2159 -0.8128 -0.7798
  313MOL0     H41290   6.778   5.135   6.924  3.0310  1.8003  1.4668
  313MOL0     H41291   6.761   5.281   7.016 -0.9032  0.3804  2.0228
  313MOL0     H41292   6.545   5.261   7.016  0.9332  0.6184  0.5061
  313MOL0     H41293   6.531   5.082   6.981 -0.7120  0.9816 -0.0231
  313MOL0     H41294   6.620   5.303   6.772 -3.2832  2.7889  2.0646
  313MOL0     H41295   6.610   5.129   6.738  0.4045  0.3301  1.5200
  313MOL0     H41296   6.365   5.269   6.870 -1.1843  3.4408 -1.9626
  313MOL0     H41297   6.364   5.149   6.753  0.8741 -0.4503 -0.2555
  313MOL0     H41298   6.866   5.224   7.472 -1.0255  0.4653 -0.3019
  313MOL0     H41299   7.101   5.298   7.580  1.7742  0.2042  0.4564
  313MOL0     H41300   7.504   5.253   7.648 -0.6294 -1.1609 -0.7966
  313MOL0     H41301   7.740   5.233   7.657  1.0072 -3.8897 -1.8081
  313MOL0     H41302   9.690   5.430   7.585 -0.7776  0.1966  0.0296
  313MOL0     H41303   9.942   5.352   7.569 -1.5176 -1.3320 -2.7515
  313MOL0     H41304  10.302   5.123   7.669  0.5396  0.3855 -1.2839
  313MOL0     H41305  10.519   4.996   7.713  1.5109 -2.8699 -0.2936
  313MOL0     H41306  10.572   4.822   7.867  1.2698  2.8756 -3.1488
  313MOL0     H41307  10.702   4.720   7.829 -0.4684  1.1726  1.9167
  313MOL0     H41308  10.557   4.600   7.986  1.8503 -2.7459 -1.2969
  313MOL0     H41309  10.420   4.627   7.872  0.2453 -0.8146 -0.6968
  313MOL0     H41310  10.640   4.427   7.835 -0.0996 -0.8540 -1.6238
  313MOL0     H41311  10.548   4.486   7.695  0.6184 -3.0511 -0.0794
  313MOL0     H41312  10.478   4.273   7.817  0.9702  0.0322  1.3190
  313MOL0     H41313  10.440   4.378   7.950  0.7817  2.3232  0.1048
  313MOL0     H41314  10.102   4.393   7.670 -0.1702 -0.6927  2.0870
  313MOL0     H41315  10.316   4.628   7.619 -1.7128  0.6316 -1.7853
  313MOL0     H41316  10.110   4.734   7.583  0.9017 -0.0589 -1.4082
  314MOL0     O41317   0.881   3.010   7.569 -0.1981  0.4771 -0.3973
  314MOL0     C41318   0.880   3.084   7.470  0.3649  0.0822 -0.5816
  314MOL0     O41319   0.777   3.114   7.401 -0.1145  0.6600 -0.0579
  314MOL0     C41320   0.656   3.056   7.422 -0.2455 -0.3764 -0.9901
  314MOL0     C41321   0.539   3.145   7.431 -0.8843  0.7479  0.0888
  314MOL0     C41322   0.417   3.088   7.439 -0.8255  0.6919 -0.2705
  314MOL0     C41323   0.390   2.948   7.448 -0.3765 -0.6686  0.6515
  314MOL0     O41324   0.267   2.882   7.464  0.8776  0.9248  0.0104
  314MOL0     C41325   0.155   2.970   7.468  0.5362 -0.4390 -0.4728
  314MOL0     C41326   0.028   2.891   7.495  1.1288  0.3888 -0.0063
  314MOL0     C41327   0.014   2.804   7.620 -0.6596 -0.7448  0.0069
  314MOL0     C41328  -0.092   2.693   7.623 -0.2343 -0.1503 -0.4487
  314MOL0     C41329  -0.211   2.700   7.530 -0.3932 -0.2322 -0.4019
  314MOL0     C41330  -0.310   2.569   7.543  0.5907 -0.9418 -0.2063
  314MOL0     C41331  -0.367   2.571   7.681 -0.5094  0.4234 -0.8364
  314MOL0     C41332  -0.496   2.492   7.689 -0.1901  0.0243 -0.2165
  314MOL0     N41333  -0.612   2.545   7.614  0.6717  0.6455  0.8768
  314MOL0     C41334  -0.647   2.675   7.606  0.1701 -0.4634  0.2469
  314MOL0     C41335  -0.747   2.686   7.511  0.6894  0.6545 -0.2184
  314MOL0     C41336  -0.833   2.800   7.492  0.0226 -1.0213  0.2092
  314MOL0     C41337  -0.941   2.817   7.594 -0.1060  0.3310 -0.0623
  314MOL0     C41338  -0.882   2.857   7.722 -0.8600  0.8681  0.2213
  314MOL0     C41339  -0.992   2.865   7.834 -0.2314 -0.1732  0.5854
  314MOL0     O41340  -1.102   2.780   7.810  0.3910 -0.2229 -0.4407
  314MOL0     C41341  -1.228   2.809   7.784 -0.3106 -0.8961 -0.0843
  314MOL0     C41342  -1.320   2.708   7.747  0.3951 -0.1831  0.2259
  314MOL0     C41343  -1.451   2.730   7.712 -0.4285 -0.4821 -0.2501
  314MOL0     C41344  -1.496   2.862   7.700 -0.0155  0.2957  0.3726
  314MOL0     C41345  -1.639   2.871   7.684  0.7396  0.2590  0.5005
  314MOL0     O41346  -1.728   2.766   7.702 -0.3630  0.1705  0.1745
  314MOL0     C41347  -1.862   2.802   7.688  0.1952 -0.5947  0.8784
  314MOL0     C41348  -1.950   2.813   7.790 -0.1574  1.2474 -0.7879
  314MOL0     C41349  -2.083   2.833   7.771 -0.1903  0.4987  0.2625
  314MOL0     C41350  -2.135   2.834   7.645  0.8096 -0.1698 -0.4295
  314MOL0     O41351  -2.268   2.850   7.623  0.2263  0.5905 -0.3625
  314MOL0     C41352  -2.306   2.982   7.589 -0.2852  0.6218  0.6139
  314MOL0     C41353  -2.432   2.965   7.507 -0.5435 -0.3145  0.0158
  314MOL0     C41354  -2.559   2.925   7.585  0.4662 -0.5361  0.6042
  314MOL0     C41355  -2.687   2.957   7.506  0.4066 -0.4329 -0.1185
  314MOL0     C41356  -2.809   2.955   7.598 -0.0311  0.3853 -0.5732
  314MOL0     C41357  -2.943   2.952   7.530 -0.1516  0.2858  0.0292
  314MOL0     C41358  -2.971   2.818   7.453 -0.0173 -0.6391 -0.6267
  314MOL0     C41359  -3.088   2.837   7.365  0.3072 -0.7852  0.9749
  314MOL0    Cl41360  -3.047   2.951   7.236  0.2354  0.2250 -0.3708
  314MOL0     C41361  -2.042   2.825   7.534  0.1922  0.5935 -0.0733
  314MOL0     C41362  -1.908   2.804   7.555  0.6312  0.7225  0.8174
  314MOL0     O41363  -1.679   2.982   7.651 -0.2289 -0.5282 -0.2296
  314MOL0     C41364  -1.406   2.968   7.728 -0.1177 -0.3204  0.8595
  314MOL0     C41365  -1.271   2.943   7.768  0.7579  0.3698 -0.8617
  314MOL0     N41366  -0.770   2.560   7.464  0.5545  0.0948  0.4130
  314MOL0     N41367  -0.697   2.473   7.526 -0.6857  0.3482 -0.0395
  314MOL0     C41368   0.506   2.866   7.438  0.6277 -0.6127  0.4974
  314MOL0     C41369   0.634   2.919   7.426  0.3239 -0.2139  0.3011
  314MOL0     C41370   1.012   3.119   7.422 -0.4697 -0.4652 -0.6127
  314MOL0     C41371   1.026   3.226   7.332 -0.0888 -0.8368 -0.1389
  314MOL0     C41372   1.147   3.277   7.287 -0.2295 -0.7729  0.1494
  314MOL0     C41373   1.266   3.227   7.339 -0.5301 -0.3026 -0.3553
  314MOL0     O41374   1.385   3.286   7.306  0.0477  0.6708  0.1353
  314MOL0     C41375   1.520   3.244   7.352  0.3036  0.6455 -0.3301
  314MOL0     C41376   1.627   3.278   7.261  0.6306  1.0397  0.3739
  314MOL0     C41377   1.758   3.193   7.261 -0.5665 -0.7022 -0.1807
  314MOL0     C41378   1.839   3.214   7.129  0.0128 -0.2245  0.7739
  314MOL0     C41379   1.985   3.223   7.155  0.9879  0.0641  0.0996
  314MOL0     C41380   2.097   3.248   7.201  0.0640 -0.9095  0.3680
  314MOL0     C41381   1.254   3.127   7.440  0.0896 -0.0018 -0.3894
  314MOL0     C41382   1.131   3.079   7.479  0.9926  0.1142 -0.0196
  314MOL0     H41383   0.556   3.253   7.430 -2.1476  0.9567 -0.4080
  314MOL0     H41384   0.328   3.150   7.447 -2.7224 -2.0239  1.3408
  314MOL0     H41385   0.148   3.028   7.375  4.0722  0.1960 -0.4692
  314MOL0     H41386   0.156   3.029   7.560 -2.3965 -2.0620  0.7481
  314MOL0     H41387   0.036   2.814   7.418 -0.9359  0.0603  0.0527
  314MOL0     H41388  -0.062   2.952   7.479 -1.1290 -3.2479 -3.0762
  314MOL0     H41389  -0.019   2.865   7.705  0.4555 -2.4012  1.6950
  314MOL0     H41390   0.113   2.768   7.651  0.3260  0.8082 -1.1301
  314MOL0     H41391  -0.035   2.601   7.609 -1.1978 -0.7949 -0.2233
  314MOL0     H41392  -0.124   2.692   7.728  0.5772  1.0035 -0.1669
  314MOL0     H41393  -0.171   2.702   7.428  1.0583 -0.9727  0.1294
  314MOL0     H41394  -0.281   2.781   7.555 -1.0279 -1.1779  1.0045
  314MOL0     H41395  -0.248   2.484   7.512 -0.1160 -1.2174 -0.8777
  314MOL0     H41396  -0.382   2.580   7.462  0.1610 -0.5980  0.2161
  314MOL0     H41397  -0.304   2.528   7.760 -0.9047  0.5133 -0.4659
  314MOL0     H41398  -0.388   2.675   7.705 -0.5062  0.7215 -2.0918
  314MOL0     H41399  -0.523   2.486   7.795 -1.1333 -0.2078 -0.4550
  314MOL0     H41400  -0.477   2.392   7.648  0.2750  0.9504 -2.3887
  314MOL0     H41401  -0.597   2.757   7.657  1.7792  0.0576 -2.0054
  314MOL0     H41402  -0.895   2.790   7.402 -2.5709  0.8170  1.6436
  314MOL0     H41403  -0.770   2.888   7.485 -0.7433 -0.2662  2.2482
  314MOL0     H41404  -0.995   2.722   7.601  0.6069  0.0241  2.2095
  314MOL0     H41405  -1.006   2.899   7.565 -1.4833  0.5919  3.3161
  314MOL0     H41406  -0.797   2.800   7.761 -0.6984  0.7850 -0.2505
  314MOL0     H41407  -0.843   2.959   7.713 -0.7576  0.6762 -1.9155
  314MOL0     H41408  -1.026   2.968   7.848  0.6826  0.0907  0.9731
  314MOL0     H41409  -0.945   2.835   7.928  2.3629 -2.5314 -1.2992
  314MOL0     H41410  -1.297   2.602   7.754 -1.4798 -0.5497  1.5745
  314MOL0     H41411  -1.506   2.637   7.708  0.5000 -1.0643  0.1399
  314MOL0     H41412  -1.917   2.811   7.894  0.2974 -2.0109 -0.8906
  314MOL0     H41413  -2.156   2.834   7.851 -0.5124  0.4074 -0.0246
  314MOL0     H41414  -2.226   3.038   7.539  0.1774  0.3114  0.9905
  314MOL0     H41415  -2.331   3.036   7.681 -1.0733  0.8609  0.2609
  314MOL0     H41416  -2.411   2.889   7.432 -1.8179 -2.3603  1.6251
  314MOL0     H41417  -2.441   3.056   7.446  1.5819 -0.9193 -1.3071
  314MOL0     H41418  -2.555   3.001   7.664 -1.6190 -0.6305  0.8473
  314MOL0     H41419  -2.558   2.827   7.632 -1.9790 -1.7121 -1.5317
  314MOL0     H41420  -2.678   3.053   7.453  0.5246 -0.7497 -0.6828
  314MOL0     H41421  -2.692   2.884   7.425 -2.6732 -1.9262  1.2595
  314MOL0     H41422  -2.811   3.041   7.665 -1.4989 -0.9050  1.1127
  314MOL0     H41423  -2.810   2.868   7.664  0.6977  0.3876 -0.5486
  314MOL0     H41424  -2.948   3.038   7.462 -0.0790  0.0717 -0.2468
  314MOL0     H41425  -3.025   2.969   7.600  0.6645 -2.1176  1.6910
  314MOL0     H41426  -2.883   2.791   7.394  0.9180 -0.4547  0.6379
  314MOL0     H41427  -2.990   2.736   7.523  0.3295  0.1121  0.3718
  314MOL0     H41428  -3.176   2.861   7.426  0.6989 -0.1768  1.3043
  314MOL0     H41429  -3.111   2.743   7.314  0.6974  0.0401 -0.7876
  314MOL0     H41430  -2.076   2.841   7.433  2.1835  0.6988 -0.7596
  314MOL0     H41431  -1.839   2.785   7.473  0.8508  0.5827  1.0323
  314MOL0     H41432  -1.437   3.072   7.729  3.2364  0.8096 -0.5100
  314MOL0     H41433  -1.210   3.027   7.801  3.7827 -1.9727  0.0082
  314MOL0     H41434   0.488   2.760   7.423  0.5657 -0.2966 -2.1064
  314MOL0     H41435   0.724   2.859   7.429  2.4845  2.6882 -1.1285
  314MOL0     H41436   0.937   3.281   7.304  0.3904 -0.4548 -0.9421
  314MOL0     H41437   1.148   3.354   7.211  1.3888  0.4543  1.3573
  314MOL0     H41438   1.531   3.137   7.373 -0.8671  1.1150  3.4549
  314MOL0     H41439   1.530   3.284   7.453  0.0453 -1.0226  0.3886
  314MOL0     H41440   1.590   3.286   7.159 -0.1561  1.3404  0.6716
  314MOL0     H41441   1.647   3.382   7.290 -2.3851  1.9750 -0.5064
  314MOL0     H41442   1.746   3.087   7.287  2.7189 -1.0607  0.3404
  314MOL0     H41443   1.814   3.241   7.342 -1.3830  0.3947 -0.2511
  314MOL0     H41444   1.808   3.131   7.065  0.7684  0.7421 -0.9392
  314MOL0     H41445   1.824   3.309   7.076  2.8938 -1.3796 -2.4822
  314MOL0     H41446   2.199   3.262   7.229 -0.6622  1.8833  2.0845
  314MOL0     H41447   1.346   3.085   7.479  0.3370 -0.7707 -1.7336
  314MOL0     H41448   1.131   3.005   7.558 -1.8904  1.6238  1.5056
  315MOL0     O41449  10.503  11.000   3.563  0.2974  0.3835 -0.4502
  315MOL0     C41450  10.511  10.879   3.531  0.6076  0.2074  0.5714
  315MOL0     O41451  10.420  10.787   3.547 -0.2260  0.4183  0.1669
  315MOL0     C41452  10.292  10.818   3.563 -0.1856 -1.1614  0.0256
  315MOL0     C41453  10.215  10.780   3.677 -0.3116  1.1241  0.2102
  315MOL0     C41454  10.077  10.788   3.680 -0.1925 -0.3429 -0.2508
  315MOL0     C41455   9.999  10.853   3.579 -1.4256  0.1026 -0.7736
  315MOL0     O41456   9.863  10.854   3.585  0.4641 -0.0535  0.6952
  315MOL0     C41457   9.803  10.844   3.716  0.3103 -0.3568  0.9620
  315MOL0     C41458   9.658  10.894   3.703 -0.3393 -0.6255  0.0524
  315MOL0     C41459   9.558  10.808   3.624  0.4273 -0.8270  0.0480
  315MOL0     C41460   9.414  10.876   3.609 -0.5330 -0.4313  0.3306
  315MOL0     C41461   9.307  10.789   3.544 -0.1139 -0.2952  0.0093
  315MOL0     C41462   9.160  10.829   3.604 -0.3525  0.1347 -0.4036
  315MOL0     C41463   9.048  10.731   3.561 -0.5405  0.0391 -0.1283
  315MOL0     C41464   8.914  10.762   3.631  0.1649  0.3813  0.3269
  315MOL0     N41465   8.806  10.697   3.558 -1.2579  0.9612  0.0272
  315MOL0     C41466   8.691  10.761   3.528 -0.6556  0.3214 -0.2228
  315MOL0     C41467   8.603  10.659   3.498 -0.0638 -0.1856 -0.0528
  315MOL0     C41468   8.468  10.666   3.449  0.5783 -0.3594 -1.1938
  315MOL0     C41469   8.376  10.571   3.529 -0.2988 -0.2985 -0.5384
  315MOL0     C41470   8.240  10.631   3.548 -0.0166 -0.9790 -0.8785
  315MOL0     C41471   8.161  10.610   3.426  0.0576 -0.0695 -0.0542
  315MOL0     O41472   8.075  10.724   3.406 -0.0086 -0.0007 -0.1144
  315MOL0     C41473   7.948  10.721   3.354  0.2135  0.5866 -0.4503
  315MOL0     C41474   7.914  10.618   3.263 -0.2153 -0.0169  0.0119
  315MOL0     C41475   7.783  10.608   3.214  0.5166  0.2553 -0.3466
  315MOL0     C41476   7.679  10.691   3.260 -0.4446 -0.6103 -0.6393
  315MOL0     C41477   7.546  10.691   3.216  0.5303 -0.7755 -0.0937
  315MOL0     O41478   7.485  10.809   3.229 -0.2477  0.0401 -0.4607
  315MOL0     C41479   7.359  10.810   3.190 -0.6537  1.1013  0.5482
  315MOL0     C41480   7.258  10.795   3.283 -1.3243 -0.6465  0.1936
  315MOL0     C41481   7.125  10.797   3.251  0.1073  0.5907  0.0798
  315MOL0     C41482   7.090  10.817   3.114  0.5013  0.3376 -0.0920
  315MOL0     O41483   6.961  10.823   3.074 -0.2346 -0.1483  0.0928
  315MOL0     C41484   6.875  10.732   3.146  0.6787 -0.5614 -0.7183
  315MOL0     C41485   6.759  10.674   3.069  0.6371 -0.1923 -0.0893
  315MOL0     C41486   6.622  10.743   3.067  0.4752  0.3823 -0.9870
  315MOL0     C41487   6.624  10.867   2.972  0.3933  0.0202  1.1603
  315MOL0     C41488   6.495  10.950   2.974  0.0545 -1.0083  0.1701
  315MOL0     C41489   6.382  10.883   2.913  0.6077  0.3644 -0.3248
  315MOL0     C41490   6.253  10.957   2.931 -0.1222  0.1601  0.2603
  315MOL0     C41491   6.135  10.907   2.847  0.3145 -0.0704 -0.6688
  315MOL0    Cl41492   5.991  10.971   2.928 -0.1328 -0.2930  0.0793
  315MOL0     C41493   7.190  10.834   3.014  0.2053  0.1326 -0.0757
  315MOL0     C41494   7.322  10.824   3.049  0.0776  0.1930  0.2465
  315MOL0     O41495   7.498  10.587   3.179  1.0097 -0.2381  0.0998
  315MOL0     C41496   7.722  10.798   3.348  0.2184 -0.0799 -0.7797
  315MOL0     C41497   7.850  10.814   3.398 -0.2144  0.3216  0.0738
  315MOL0     N41498   8.665  10.532   3.516 -0.8226  0.1744 -0.1546
  315MOL0     N41499   8.791  10.554   3.556  0.3640  0.1497 -0.8519
  315MOL0     C41500  10.078  10.893   3.464  0.4904 -0.6691 -0.2552
  315MOL0     C41501  10.219  10.885   3.467 -0.5320 -0.2045 -0.2638
  315MOL0     C41502  10.620  10.848   3.441  0.7448 -0.8412 -0.2704
  315MOL0     C41503  10.650  10.718   3.421  0.2333  0.9492 -0.8327
  315MOL0     C41504  10.743  10.675   3.326  0.1449 -0.6864 -0.6527
  315MOL0     C41505  10.796  10.762   3.229 -0.5118 -0.2374  0.8063
  315MOL0     O41506  10.873  10.702   3.137 -0.4461 -0.0504  0.5505
  315MOL0     C41507  10.907  10.780   3.018  0.1596  0.7808 -0.7184
  315MOL0     C41508  11.032  10.717   2.941  0.4930 -0.3167  0.5998
  315MOL0     C41509  11.067  10.796   2.820  0.6437 -0.1782 -0.0988
  315MOL0     C41510  11.190  10.744   2.753  0.0327  0.3889  0.2407
  315MOL0     C41511  11.161  10.609   2.695  0.8195 -0.1209 -0.4807
  315MOL0     C41512  11.154  10.505   2.629  0.3160 -0.4808 -0.7052
  315MOL0     C41513  10.762  10.899   3.246 -0.0039 -0.1919  0.1894
  315MOL0     C41514  10.685  10.947   3.357 -0.4094  0.5025 -0.2391
  315MOL0     H41515  10.264  10.726   3.757  2.4660 -0.4491 -2.3353
  315MOL0     H41516  10.030  10.752   3.770 -0.1844  2.3337  0.9066
  315MOL0     H41517   9.863  10.894   3.792  1.0746  1.6497 -0.8754
  315MOL0     H41518   9.784  10.737   3.733  1.4727 -0.8481 -0.6330
  315MOL0     H41519   9.655  10.996   3.663  1.3070 -0.8555 -0.7436
  315MOL0     H41520   9.627  10.911   3.806 -0.1379 -1.4179  0.2508
  315MOL0     H41521   9.533  10.716   3.678 -1.7909 -0.9151 -1.0465
  315MOL0     H41522   9.594  10.790   3.522  0.4626 -1.3291  0.1464
  315MOL0     H41523   9.381  10.892   3.712 -4.1886  0.4181 -0.8394
  315MOL0     H41524   9.427  10.979   3.573 -0.0480  0.2231  2.2377
  315MOL0     H41525   9.327  10.683   3.560 -3.6630 -1.5797 -2.7398
  315MOL0     H41526   9.316  10.813   3.438 -0.5463  0.4526  0.1341
  315MOL0     H41527   9.144  10.929   3.564  0.2537  0.1301 -0.6737
  315MOL0     H41528   9.162  10.830   3.713 -0.2423  0.0616 -0.4050
  315MOL0     H41529   9.035  10.751   3.455 -1.9050  1.1063  0.2187
  315MOL0     H41530   9.083  10.629   3.584 -0.3728  0.9017  4.4869
  315MOL0     H41531   8.901  10.870   3.632 -4.0980  0.0957  3.3575
  315MOL0     H41532   8.912  10.723   3.733 -2.7120  3.1483  1.4779
  315MOL0     H41533   8.673  10.868   3.530  0.7774  0.5680  1.0390
  315MOL0     H41534   8.455  10.649   3.342  1.5542  1.9895 -1.7731
  315MOL0     H41535   8.417  10.762   3.465 -0.9595 -1.6559  2.6695
  315MOL0     H41536   8.405  10.550   3.632 -1.6791  0.5172  0.0395
  315MOL0     H41537   8.374  10.472   3.482 -1.9481 -0.3835 -0.3524
  315MOL0     H41538   8.194  10.574   3.629  0.0947 -0.8323 -0.7094
  315MOL0     H41539   8.250  10.733   3.587  1.9761 -0.1108 -3.3558
  315MOL0     H41540   8.097  10.524   3.443 -1.7415  1.4739  1.5104
  315MOL0     H41541   8.229  10.600   3.341  3.5659 -2.3685  2.7299
  315MOL0     H41542   7.990  10.550   3.225  1.1990  0.8119  1.2780
  315MOL0     H41543   7.754  10.528   3.146  1.3299  0.1354 -0.5668
  315MOL0     H41544   7.294  10.780   3.384 -2.4211  1.0524  0.8916
  315MOL0     H41545   7.051  10.780   3.329  0.8777 -1.4827  0.4308
  315MOL0     H41546   6.837  10.789   3.231  0.5347 -4.3196  1.9761
  315MOL0     H41547   6.933  10.648   3.184  2.0576  1.0541  0.9619
  315MOL0     H41548   6.732  10.584   3.125 -2.6367  1.2068  0.8071
  315MOL0     H41549   6.783  10.637   2.969  2.2555  4.1123 -1.5246
  315MOL0     H41550   6.569  10.768   3.160  2.2111 -0.4105  0.2725
  315MOL0     H41551   6.547  10.677   3.024 -1.2645  1.4946  0.2014
  315MOL0     H41552   6.708  10.937   2.987 -1.1452  2.8344 -1.9696
  315MOL0     H41553   6.648  10.827   2.873 -0.4905 -6.8493  3.2329
  315MOL0     H41554   6.515  11.028   2.899  0.0724 -1.3888 -0.2274
  315MOL0     H41555   6.474  10.993   3.072 -2.4833  1.0251 -1.1672
  315MOL0     H41556   6.342  10.794   2.962 -3.2375  1.8520 -0.4125
  315MOL0     H41557   6.398  10.859   2.808 -2.3387 -0.1762 -0.7169
  315MOL0     H41558   6.222  10.963   3.035  0.7787 -1.9142  0.6966
  315MOL0     H41559   6.266  11.063   2.904  1.2896 -0.2247 -0.7248
  315MOL0     H41560   6.139  10.797   2.847  0.7780 -0.0586 -0.1108
  315MOL0     H41561   6.154  10.936   2.743  0.7453  0.1567 -0.5268
  315MOL0     H41562   7.157  10.838   2.910 -1.4060  1.7571  0.4578
  315MOL0     H41563   7.398  10.832   2.972 -1.7510  0.0524 -1.6725
  315MOL0     H41564   7.661  10.881   3.383  2.2299  0.0781  2.8223
  315MOL0     H41565   7.872  10.891   3.471  2.9273 -2.3580  2.2718
  315MOL0     H41566  10.035  10.951   3.384  0.4800 -0.8350 -0.3696
  315MOL0     H41567  10.280  10.925   3.387  0.1935  0.1296  0.4501
  315MOL0     H41568  10.603  10.639   3.480 -1.2842  2.0547 -0.5064
  315MOL0     H41569  10.761  10.570   3.309 -2.0221 -1.1663 -0.2697
  315MOL0     H41570  10.934  10.880   3.051  1.1719 -0.8164  4.0408
  315MOL0     H41571  10.817  10.793   2.958 -0.2218 -0.8544 -0.5479
  315MOL0     H41572  11.115  10.700   3.011 -0.1025 -1.1555  1.1125
  315MOL0     H41573  10.995  10.621   2.905 -1.2226  1.1689 -1.8961
  315MOL0     H41574  11.070  10.903   2.842  1.9252 -0.2695  0.2649
  315MOL0     H41575  10.994  10.787   2.739  2.2177  0.8883 -1.7145
  315MOL0     H41576  11.215  10.821   2.678  2.9214  1.6160  2.2820
  315MOL0     H41577  11.266  10.733   2.831 -2.4778 -0.8943  2.6533
  315MOL0     H41578  11.133  10.411   2.582  6.1804 -1.2473 -2.5302
  315MOL0     H41579  10.797  10.974   3.176  0.5782  0.6492  1.3391
  315MOL0     H41580  10.665  11.054   3.352  0.5720  0.6379 -2.2757
  316MOL0     O41581   4.317   4.185   6.786 -0.6245  0.3223  0.4774
  316MOL0     C41582   4.339   4.197   6.909  0.5178  0.1598  0.9009
  316MOL0     O41583   4.250   4.238   7.004 -0.3238  0.2866  0.2080
  316MOL0     C41584   4.117   4.260   6.966 -0.9999  0.5703 -0.0707
  316MOL0     C41585   4.018   4.201   7.045 -0.3245 -0.4991 -0.0627
  316MOL0     C41586   3.882   4.208   7.017 -0.3305  0.1849  0.1819
  316MOL0     C41587   3.844   4.291   6.904 -0.1507  0.8486  0.4393
  316MOL0     O41588   3.709   4.316   6.871  0.3623  0.4577  0.5531
  316MOL0     C41589   3.656   4.200   6.813  0.2113  1.0131  0.4990
  316MOL0     C41590   3.509   4.214   6.792  0.2904  0.7306 -0.5287
  316MOL0     C41591   3.452   4.117   6.695  0.1029 -0.5555  0.3098
  316MOL0     C41592   3.304   4.156   6.668 -0.2202  0.3715  0.2440
  316MOL0     C41593   3.220   4.051   6.583  0.1616  0.2621  0.1345
  316MOL0     C41594   3.084   4.103   6.524 -0.5271 -0.0236  0.5393
  316MOL0     C41595   3.024   3.993   6.434  0.3359 -0.4580  0.8401
  316MOL0     C41596   2.883   4.027   6.374  0.9092  0.1786 -1.0586
  316MOL0     N41597   2.840   3.941   6.269 -0.2488  0.8192 -0.0188
  316MOL0     C41598   2.743   3.849   6.273  0.2703  0.5736 -0.1067
  316MOL0     C41599   2.720   3.808   6.147 -0.2632  0.0316  0.0746
  316MOL0     C41600   2.629   3.704   6.101  0.4398 -0.6982  0.6585
  316MOL0     C41601   2.480   3.725   6.138  0.5143  1.2584 -0.6186
  316MOL0     C41602   2.392   3.612   6.085 -0.2059 -0.2769  0.4353
  316MOL0     C41603   2.248   3.615   6.131  1.6538 -0.0249 -0.0877
  316MOL0     O41604   2.217   3.757   6.151  0.4452  1.0636 -0.2386
  316MOL0     C41605   2.117   3.795   6.073 -0.6268 -0.6240  0.1908
  316MOL0     C41606   2.148   3.921   6.003  0.8864  0.4772 -0.6404
  316MOL0     C41607   2.043   3.983   5.932  1.1451  0.4399  0.2114
  316MOL0     C41608   1.906   3.924   5.946  0.4964  0.1140  0.6181
  316MOL0     C41609   1.786   4.002   5.886 -1.0033  0.0210 -0.0862
  316MOL0     O41610   1.670   3.933   5.879  0.0894 -0.3383  0.2118
  316MOL0     C41611   1.560   3.983   5.818 -0.5686  0.0136 -0.3089
  316MOL0     C41612   1.502   4.101   5.861 -0.1912 -0.6929  0.2315
  316MOL0     C41613   1.378   4.143   5.804 -0.0423  0.0109 -0.0274
  316MOL0     C41614   1.305   4.060   5.720  0.0361 -0.2484  0.5841
  316MOL0     O41615   1.196   4.094   5.642 -0.4329  0.4435  1.0364
  316MOL0     C41616   1.160   4.229   5.644  0.2391  0.6612  0.3761
  316MOL0     C41617   1.038   4.245   5.549 -0.3705 -0.5185 -0.1300
  316MOL0     C41618   0.959   4.369   5.563 -0.1985 -0.2086 -0.3507
  316MOL0     C41619   0.818   4.358   5.489  0.2316 -0.9073 -0.0020
  316MOL0     C41620   0.832   4.391   5.336  0.1949 -0.2951  0.9400
  316MOL0     C41621   0.686   4.415   5.286  0.2705  0.3033  0.1571
  316MOL0     C41622   0.693   4.438   5.137 -0.1832 -0.4794 -0.6801
  316MOL0     C41623   0.569   4.486   5.065 -0.2065  0.7838 -0.1114
  316MOL0    Cl41624   0.440   4.357   5.065 -0.3336  0.1627 -0.0866
  316MOL0     C41625   1.363   3.936   5.687 -0.6030  0.4032  0.7660
  316MOL0     C41626   1.490   3.896   5.740 -0.4012 -0.1600  0.8945
  316MOL0     O41627   1.807   4.115   5.835 -0.4438 -0.7446  0.2420
  316MOL0     C41628   1.878   3.799   6.015 -0.3327 -0.5741  0.1220
  316MOL0     C41629   1.988   3.732   6.068 -0.1212  0.5247 -0.5812
  316MOL0     N41630   2.812   3.880   6.060  0.2801 -0.3710 -1.0907
  316MOL0     N41631   2.881   3.955   6.134 -0.3834  0.3048 -0.2955
  316MOL0     C41632   3.946   4.352   6.834  0.2143 -0.7661 -0.5422
  316MOL0     C41633   4.077   4.342   6.866  0.0905  0.2395  0.3889
  316MOL0     C41634   4.474   4.137   6.959  0.5881  0.7826  0.0023
  316MOL0     C41635   4.562   4.058   6.888  0.0951  0.0420 -0.0703
  316MOL0     C41636   4.683   4.005   6.936  0.0044  0.1715 -0.1527
  316MOL0     C41637   4.726   4.042   7.062  0.2539  1.0152 -0.2319
  316MOL0     O41638   4.842   3.987   7.095  0.1185 -0.0340  0.0559
  316MOL0     C41639   4.918   4.044   7.202  0.1694  0.4657 -0.9500
  316MOL0     C41640   5.069   4.014   7.190 -0.6595 -0.1258  0.3249
  316MOL0     C41641   5.153   4.009   7.321  0.6047  0.3120  0.5352
  316MOL0     C41642   5.290   3.956   7.303 -0.2185 -0.1581 -0.4602
  316MOL0     C41643   5.369   4.043   7.214  0.2870 -0.8108 -0.8195
  316MOL0     C41644   5.428   4.129   7.141  0.7840  0.8632  0.4026
  316MOL0     C41645   4.644   4.118   7.141 -0.1028  0.6568  0.4335
  316MOL0     C41646   4.518   4.172   7.088 -0.5157  0.3228 -0.2648
  316MOL0     H41647   4.057   4.145   7.129  0.1953 -3.8472 -2.3320
  316MOL0     H41648   3.801   4.163   7.074 -0.9928  2.9067  1.5974
  316MOL0     H41649   3.683   4.106   6.861 -2.0985 -0.1488 -0.3269
  316MOL0     H41650   3.698   4.200   6.712  0.8842 -2.2036  0.6869
  316MOL0     H41651   3.490   4.319   6.770 -2.8755  0.0549 -1.6019
  316MOL0     H41652   3.459   4.175   6.882  0.1727  0.0879 -0.8633
  316MOL0     H41653   3.466   4.013   6.727  0.5763  0.0327  2.1343
  316MOL0     H41654   3.509   4.124   6.602 -0.3165 -5.1468 -0.5166
  316MOL0     H41655   3.256   4.149   6.766  1.4541  3.5918  1.4440
  316MOL0     H41656   3.306   4.262   6.638  0.5536  0.1914 -0.3472
  316MOL0     H41657   3.210   3.954   6.633 -0.0210  1.2071  2.0338
  316MOL0     H41658   3.282   4.028   6.496 -1.3068  1.8453 -1.4065
  316MOL0     H41659   3.102   4.201   6.478  1.7563  0.8689  3.0569
  316MOL0     H41660   3.013   4.127   6.603 -0.2641  0.8009  0.5418
  316MOL0     H41661   3.095   3.959   6.358 -0.7360  0.4169 -0.6172
  316MOL0     H41662   3.002   3.907   6.499 -1.6521  0.6708  1.7416
  316MOL0     H41663   2.896   4.132   6.349 -1.5273  1.3220  1.8202
  316MOL0     H41664   2.803   4.034   6.448  0.5992  2.1039 -1.5334
  316MOL0     H41665   2.701   3.816   6.367 -1.2529  3.0466  0.1783
  316MOL0     H41666   2.668   3.609   6.138  2.8460  0.5635  1.5567
  316MOL0     H41667   2.654   3.704   5.995 -1.2603  2.3545  0.1439
  316MOL0     H41668   2.448   3.824   6.103  0.3025  0.9492 -1.3271
  316MOL0     H41669   2.473   3.710   6.246  0.7008  0.7140 -0.6844
  316MOL0     H41670   2.402   3.622   5.976 -1.4301  0.0553  0.3345
  316MOL0     H41671   2.448   3.526   6.122  3.2389  2.6108  2.5796
  316MOL0     H41672   2.225   3.559   6.222  5.6358  0.8902  1.6770
  316MOL0     H41673   2.202   3.571   6.042  3.7243  0.1477 -1.3131
  316MOL0     H41674   2.248   3.961   5.999  0.3874  1.6557 -2.5903
  316MOL0     H41675   2.061   4.077   5.881 -0.3855 -1.0632 -3.4734
  316MOL0     H41676   1.555   4.168   5.928  2.2521 -0.5220 -1.7452
  316MOL0     H41677   1.339   4.242   5.828  2.2031  1.5362 -2.1106
  316MOL0     H41678   1.227   4.300   5.594 -2.5485  1.6463 -2.2738
  316MOL0     H41679   1.140   4.267   5.745  0.6574 -0.0275  0.7294
  316MOL0     H41680   0.972   4.165   5.584 -2.2308  1.4930  1.2198
  316MOL0     H41681   1.061   4.225   5.444 -0.6567 -1.7266  0.0251
  316MOL0     H41682   1.008   4.460   5.526 -1.2726  1.2317  1.5788
  316MOL0     H41683   0.952   4.387   5.670  2.7021  0.7954 -0.2286
  316MOL0     H41684   0.772   4.258   5.491 -0.1639 -0.8127 -1.9502
  316MOL0     H41685   0.750   4.419   5.549 -0.2217 -1.0247 -0.3871
  316MOL0     H41686   0.878   4.310   5.279  1.5271  0.7341  0.5129
  316MOL0     H41687   0.903   4.474   5.329 -0.7425  1.0004  4.4836
  316MOL0     H41688   0.650   4.504   5.340  0.1921 -0.8498  2.1134
  316MOL0     H41689   0.620   4.333   5.314 -2.1261  1.5001 -1.5907
  316MOL0     H41690   0.774   4.509   5.115 -2.5829  2.3195 -1.1246
  316MOL0     H41691   0.714   4.348   5.079  2.5862 -0.6496  0.4571
  316MOL0     H41692   0.597   4.503   4.961  0.7622 -2.5525 -0.5097
  316MOL0     H41693   0.537   4.578   5.115  1.0223  0.1941  1.8937
  316MOL0     H41694   1.308   3.864   5.628 -0.0622  2.5364 -2.5684
  316MOL0     H41695   1.535   3.802   5.708 -0.0439  0.4279 -0.3982
  316MOL0     H41696   1.779   3.756   6.017  0.1438 -2.0731 -3.2205
  316MOL0     H41697   1.981   3.641   6.126 -2.1291  0.3683 -0.9869
  316MOL0     H41698   3.922   4.415   6.748 -1.0324 -1.8192 -0.9910
  316MOL0     H41699   4.153   4.389   6.804 -0.0653  0.0470  0.0504
  316MOL0     H41700   4.526   4.032   6.789 -0.2941 -1.2463  0.3885
  316MOL0     H41701   4.747   3.950   6.868  1.0081  0.1540  0.7787
  316MOL0     H41702   4.900   4.016   7.306  2.5058  0.3044 -0.5252
  316MOL0     H41703   4.894   4.150   7.194 -1.7879  0.2328  0.9008
  316MOL0     H41704   5.079   3.912   7.152 -1.3671 -0.4399  0.9784
  316MOL0     H41705   5.115   4.084   7.119  0.3735 -0.6411  0.4676
  316MOL0     H41706   5.106   3.934   7.385 -0.7205 -1.7491 -2.6234
  316MOL0     H41707   5.153   4.108   7.367 -1.7335  0.0665  1.1968
  316MOL0     H41708   5.332   3.962   7.404  1.3450 -1.3088 -0.9975
  316MOL0     H41709   5.294   3.851   7.273  3.8655  0.2503 -1.8701
  316MOL0     H41710   5.469   4.217   7.096  2.5795  2.2490  4.3194
  316MOL0     H41711   4.684   4.150   7.237 -0.7646  0.8751  0.6359
  316MOL0     H41712   4.456   4.227   7.158  0.1313  1.0154 -0.2169
  317MOL0     O41713   8.627  10.231   1.540 -0.7997  0.5120 -0.6140
  317MOL0     C41714   8.661  10.349   1.543 -0.3774 -0.5971  0.2046
  317MOL0     O41715   8.591  10.456   1.484 -0.1615  0.3484  0.5066
  317MOL0     C41716   8.471  10.427   1.434 -0.1163  0.4469  0.4270
  317MOL0     C41717   8.462  10.345   1.325 -0.3577 -1.4135 -0.2637
  317MOL0     C41718   8.333  10.325   1.275  1.4020  0.6062 -0.2020
  317MOL0     C41719   8.218  10.385   1.332 -1.0055  0.8436  0.5406
  317MOL0     O41720   8.099  10.377   1.263  0.2690  0.2487  0.5480
  317MOL0     C41721   7.992  10.345   1.346 -0.4349  0.6625 -0.0656
  317MOL0     C41722   7.857  10.356   1.285 -0.6614 -0.3512  0.9371
  317MOL0     C41723   7.835  10.227   1.198  0.1905 -0.1334  0.3608
  317MOL0     C41724   7.724  10.224   1.085 -0.3098 -0.0334  0.0699
  317MOL0     C41725   7.584  10.219   1.148 -0.5700  0.0984  0.6055
  317MOL0     C41726   7.468  10.229   1.046 -0.0089  0.3600  0.3611
  317MOL0     C41727   7.337  10.277   1.117  0.1035 -0.2656 -0.0517
  317MOL0     C41728   7.345  10.427   1.148 -0.2449 -0.6822 -0.4357
  317MOL0     N41729   7.219  10.474   1.197 -0.2755 -0.5683  0.1323
  317MOL0     C41730   7.162  10.441   1.318 -0.4732 -0.1937  1.2531
  317MOL0     C41731   7.044  10.507   1.320 -1.0111 -0.1306 -0.1908
  317MOL0     C41732   6.941  10.510   1.435  0.1188  0.2308  0.2874
  317MOL0     C41733   6.786  10.534   1.391  0.2330  0.4461  0.4219
  317MOL0     C41734   6.690  10.553   1.506 -0.0773 -0.2407  1.1694
  317MOL0     C41735   6.717  10.469   1.626  0.0391 -0.7706 -0.2723
  317MOL0     O41736   6.736  10.330   1.604  0.3499  0.2630 -1.0173
  317MOL0     C41737   6.630  10.248   1.564 -0.1574 -0.3180  0.0307
  317MOL0     C41738   6.498  10.279   1.582  0.2724 -0.9185 -0.1577
  317MOL0     C41739   6.389  10.184   1.559  0.0916 -0.4594 -0.0568
  317MOL0     C41740   6.417  10.053   1.509  0.6361  0.1353  0.3448
  317MOL0     C41741   6.312   9.953   1.479 -0.5660  0.1982  0.3546
  317MOL0     O41742   6.360   9.838   1.423  0.0039  0.3732  0.0279
  317MOL0     C41743   6.296   9.729   1.382  0.8411 -0.3070 -0.3274
  317MOL0     C41744   6.171   9.685   1.437  0.2093 -0.1858  0.1252
  317MOL0     C41745   6.107   9.564   1.372  0.0939 -0.9030 -0.2372
  317MOL0     C41746   6.171   9.506   1.271 -0.0064  0.2909  0.3189
  317MOL0     O41747   6.121   9.396   1.205  0.1442  0.5246  0.1991
  317MOL0     C41748   6.102   9.402   1.060  0.1148  0.3803 -0.1536
  317MOL0     C41749   5.987   9.318   1.027  0.0153  0.9701  0.4807
  317MOL0     C41750   5.954   9.312   0.885 -0.1796  0.4433 -0.5400
  317MOL0     C41751   6.029   9.206   0.799  0.3622  0.3663  0.2614
  317MOL0     C41752   6.024   9.238   0.652 -0.4077 -0.1135  0.3542
  317MOL0     C41753   5.899   9.184   0.578 -0.3184  0.2398  0.3117
  317MOL0     C41754   5.913   9.197   0.426  0.3751  0.6376  0.2323
  317MOL0     C41755   6.019   9.104   0.363  0.0073 -0.8551  0.6913
  317MOL0    Cl41756   5.999   8.941   0.407  0.4439 -0.2884 -0.3769
  317MOL0     C41757   6.299   9.543   1.230  0.4617 -0.5770 -0.7312
  317MOL0     C41758   6.357   9.652   1.283  0.0028  0.3476  0.1231
  317MOL0     O41759   6.196   9.977   1.486 -0.5566  0.2478  0.2441
  317MOL0     C41760   6.547  10.032   1.483 -0.1206  0.2098  0.1635
  317MOL0     C41761   6.653  10.119   1.517  0.8309 -0.4728 -0.1739
  317MOL0     N41762   7.036  10.573   1.199  0.4029  0.3187 -0.0778
  317MOL0     N41763   7.147  10.563   1.128  0.4569 -0.1568  0.3771
  317MOL0     C41764   8.229  10.474   1.441 -0.0920  0.5353 -0.7544
  317MOL0     C41765   8.356  10.488   1.497 -0.4740 -0.0205  0.6450
  317MOL0     C41766   8.765  10.380   1.632 -0.3608 -0.8899  0.1804
  317MOL0     C41767   8.755  10.502   1.700 -0.0893  0.8978  0.1869
  317MOL0     C41768   8.864  10.548   1.770  0.5830 -0.5059 -0.6896
  317MOL0     C41769   8.973  10.467   1.799 -0.1612 -0.2855  0.4661
  317MOL0     O41770   9.084  10.500   1.871 -0.2513  0.6225  0.2347
  317MOL0     C41771   9.129  10.640   1.856 -0.0867  0.0011  0.2333
  317MOL0     C41772   9.190  10.685   1.993 -1.1106 -0.3798  0.1508
  317MOL0     C41773   9.334  10.653   2.015 -0.4776 -0.3241 -0.4181
  317MOL0     C41774   9.368  10.502   2.016 -0.0067  0.8616  0.2320
  317MOL0     C41775   9.516  10.478   2.001  0.4713  0.6906  1.0322
  317MOL0     C41776   9.638  10.470   1.992  0.9606 -0.1899  0.2992
  317MOL0     C41777   8.979  10.339   1.741  0.2033  0.6314  0.3654
  317MOL0     C41778   8.872  10.296   1.658 -0.0828 -0.5628  0.7424
  317MOL0     H41779   8.551  10.302   1.279 -1.1307 -4.2056  0.7070
  317MOL0     H41780   8.316  10.255   1.194  0.0259  1.0502 -0.3327
  317MOL0     H41781   7.988  10.417   1.428 -0.5056  2.6167 -1.7045
  317MOL0     H41782   8.006  10.250   1.398  1.0866  2.4945  3.2037
  317MOL0     H41783   7.860  10.435   1.210  0.7730 -1.2733 -0.0251
  317MOL0     H41784   7.778  10.362   1.360 -3.3632  0.8575 -1.7795
  317MOL0     H41785   7.831  10.142   1.267  0.8351  0.6462  1.3951
  317MOL0     H41786   7.934  10.217   1.154  0.0511 -0.6843  0.1620
  317MOL0     H41787   7.737  10.312   1.022  0.2358  0.0274  0.2615
  317MOL0     H41788   7.741  10.132   1.028 -2.4676  0.8098 -2.1211
  317MOL0     H41789   7.587  10.302   1.220  1.3051 -0.3820  1.1450
  317MOL0     H41790   7.581  10.124   1.202 -3.4990 -0.9994 -1.2416
  317MOL0     H41791   7.445  10.129   1.007 -2.7286 -0.7087  4.1047
  317MOL0     H41792   7.495  10.293   0.962 -0.0125  0.0600  0.1304
  317MOL0     H41793   7.257  10.256   1.045  1.6879 -0.7095 -1.7739
  317MOL0     H41794   7.310  10.221   1.207 -0.2690 -0.4644 -0.2828
  317MOL0     H41795   7.385  10.469   1.055  0.0159 -1.4313 -0.6751
  317MOL0     H41796   7.426  10.432   1.221  0.1461 -2.8161 -0.6491
  317MOL0     H41797   7.203  10.376   1.394 -2.5994 -0.8540  1.8854
  317MOL0     H41798   6.974  10.599   1.490  3.7733 -1.9601  1.9510
  317MOL0     H41799   6.958  10.416   1.488 -0.1258  0.1351  0.1990
  317MOL0     H41800   6.760  10.440   1.343 -1.5875  2.5342 -3.0982
  317MOL0     H41801   6.778  10.615   1.317 -3.2726  2.0587  2.3175
  317MOL0     H41802   6.703  10.656   1.542  2.2993 -0.2313  0.4342
  317MOL0     H41803   6.584  10.537   1.485 -0.6901 -0.0956  3.8064
  317MOL0     H41804   6.649  10.484   1.710 -0.7648 -0.8427 -0.8981
  317MOL0     H41805   6.812  10.499   1.671 -0.4265  0.9754 -0.3694
  317MOL0     H41806   6.478  10.377   1.623  2.7817 -0.9726  1.4267
  317MOL0     H41807   6.290  10.215   1.589  1.4592  1.6014  2.8741
  317MOL0     H41808   6.111   9.739   1.510 -0.2217 -0.4574 -0.0226
  317MOL0     H41809   6.010   9.518   1.389 -0.1624 -0.5687 -0.7350
  317MOL0     H41810   6.198   9.384   1.012  2.3003  2.4034  3.0564
  317MOL0     H41811   6.080   9.504   1.028  0.3194  0.3028 -0.5372
  317MOL0     H41812   5.898   9.354   1.081 -0.0279  0.7645  0.5477
  317MOL0     H41813   6.004   9.214   1.057  0.2131  0.7833 -0.2491
  317MOL0     H41814   5.984   9.409   0.844 -0.2479  0.9397  0.5450
  317MOL0     H41815   5.845   9.312   0.877 -0.1747  1.8489 -0.8491
  317MOL0     H41816   6.128   9.196   0.845  0.0319  1.1673  1.1981
  317MOL0     H41817   5.984   9.108   0.817 -0.2262  0.0005 -2.8095
  317MOL0     H41818   6.102   9.182   0.599 -0.8929 -1.8536  1.4089
  317MOL0     H41819   6.038   9.346   0.639  0.6538 -0.2777 -0.0020
  317MOL0     H41820   5.817   9.246   0.615 -1.9239 -2.2144  1.1123
  317MOL0     H41821   5.870   9.081   0.601  0.6360 -1.0260 -3.3158
  317MOL0     H41822   5.817   9.178   0.377  2.3928  0.0133 -3.9864
  317MOL0     H41823   5.923   9.303   0.401  0.7533  0.2367 -1.4381
  317MOL0     H41824   6.114   9.150   0.389 -0.2865  1.0016 -1.2556
  317MOL0     H41825   6.008   9.110   0.254  1.5943  2.4302  0.5826
  317MOL0     H41826   6.351   9.483   1.156  1.9178  0.0127 -0.2276
  317MOL0     H41827   6.457   9.682   1.251  0.9725 -2.7258 -0.0545
  317MOL0     H41828   6.571   9.942   1.427  0.4559 -0.2589  1.1403
  317MOL0     H41829   6.751  10.081   1.489  0.5164 -1.1356 -0.3839
  317MOL0     H41830   8.147  10.535   1.477 -2.4543 -3.7451  2.0913
  317MOL0     H41831   8.380  10.543   1.587  2.4090 -0.9672  0.5583
  317MOL0     H41832   8.662  10.559   1.695 -2.0218 -2.1089 -1.6704
  317MOL0     H41833   8.857  10.648   1.810 -0.1278 -1.3814  1.5339
  317MOL0     H41834   9.047  10.704   1.821 -1.5365 -3.2434 -2.9704
  317MOL0     H41835   9.215  10.649   1.790 -0.0250  3.0130  0.5996
  317MOL0     H41836   9.172  10.793   1.999 -0.1888 -0.2117 -0.0031
  317MOL0     H41837   9.124  10.640   2.067 -1.7075  0.5266  0.1986
  317MOL0     H41838   9.371  10.693   2.110  0.2452  1.4150 -1.4053
  317MOL0     H41839   9.387  10.696   1.930  2.3193 -2.5080  0.0563
  317MOL0     H41840   9.328  10.459   2.107  2.1130  0.7003  1.1401
  317MOL0     H41841   9.329  10.455   1.925  0.6820  0.2666  0.2310
  317MOL0     H41842   9.741  10.442   1.986  0.4960 -2.4628  1.5026
  317MOL0     H41843   9.056  10.267   1.766 -1.7020 -1.6594  0.0070
  317MOL0     H41844   8.868  10.198   1.613 -2.3268 -0.5939  0.9058
  318MOL0     O41845   9.365   7.189   9.331 -0.4061 -0.5520  0.1302
  318MOL0     C41846   9.358   7.269   9.426 -0.2124  0.3055 -0.1156
  318MOL0     O41847   9.251   7.287   9.512 -0.1435 -0.2039 -0.3027
  318MOL0     C41848   9.128   7.235   9.484  0.0673 -0.6887 -0.5564
  318MOL0     C41849   9.025   7.315   9.445 -0.2926 -0.1632  0.2293
  318MOL0     C41850   8.894   7.280   9.433 -0.0659  0.6101 -0.5644
  318MOL0     C41851   8.853   7.152   9.475 -0.1311  0.6185  0.2253
  318MOL0     O41852   8.723   7.107   9.498  0.3941  0.6199  0.6599
  318MOL0     C41853   8.624   7.204   9.516  0.7752  0.7426  0.7618
  318MOL0     C41854   8.481   7.146   9.537  0.4412  0.9096 -0.9203
  318MOL0     C41855   8.369   7.256   9.528 -1.1741  0.5735 -0.6624
  318MOL0     C41856   8.242   7.214   9.601  0.2190  0.4324 -1.2072
  318MOL0     C41857   8.154   7.340   9.634 -0.1479  0.0230  0.2202
  318MOL0     C41858   8.036   7.300   9.722  0.0414  0.9835  0.2947
  318MOL0     C41859   7.960   7.422   9.758 -0.7534 -0.3354 -0.1831
  318MOL0     C41860   7.838   7.406   9.844  0.3248  0.2224 -0.4064
  318MOL0     N41861   7.788   7.538   9.888 -0.4383 -0.7057  0.4969
  318MOL0     C41862   7.737   7.634   9.796 -0.3756  0.1881 -1.1226
  318MOL0     C41863   7.711   7.741   9.879  0.2822  0.0192  0.6862
  318MOL0     C41864   7.646   7.869   9.838  0.0032 -0.2824  0.8730
  318MOL0     C41865   7.742   7.983   9.860 -0.6162  0.3884 -0.3396
  318MOL0     C41866   7.665   8.112   9.835 -0.3652  0.3496  0.4336
  318MOL0     C41867   7.769   8.225   9.815  0.5945  0.3548 -0.0908
  318MOL0     O41868   7.698   8.348   9.770  0.1640 -0.6688  0.5967
  318MOL0     C41869   7.600   8.393   9.857 -0.6140 -0.2632  0.1507
  318MOL0     C41870   7.621   8.411  10.000  0.1186 -0.1521 -0.0491
  318MOL0     C41871   7.523   8.481  10.075  0.2455 -0.2509 -0.2934
  318MOL0     C41872   7.403   8.540  10.020  0.3651  0.3709  0.5763
  318MOL0     C41873   7.320   8.616  10.108  0.3385  0.7518  0.7937
  318MOL0     O41874   7.315   8.564  10.237 -0.4284  0.5063 -0.3760
  318MOL0     C41875   7.265   8.640  10.344  0.4059 -0.2014  0.9714
  318MOL0     C41876   7.338   8.758  10.397 -0.7496 -0.7414 -0.8161
  318MOL0     C41877   7.277   8.838  10.501 -0.1540  0.6717  0.2205
  318MOL0     C41878   7.156   8.800  10.563 -0.4762 -0.1437 -0.3098
  318MOL0     O41879   7.105   8.871  10.667  0.3397  0.1248  0.0742
  318MOL0     C41880   7.136   9.004  10.704 -0.3215  0.4075 -0.3147
  318MOL0     C41881   7.028   9.048  10.805 -0.3976 -0.3176  0.8291
  318MOL0     C41882   7.061   9.180  10.874  0.0096  0.2096  0.3781
  318MOL0     C41883   6.945   9.222  10.960  0.1765 -0.2577 -0.2512
  318MOL0     C41884   6.951   9.376  11.000 -0.0615  0.5874 -0.0090
  318MOL0     C41885   6.822   9.408  11.073 -0.7391  0.3512 -0.7769
  318MOL0     C41886   6.836   9.366  11.229  0.2304 -0.0600  0.7541
  318MOL0     C41887   6.707   9.391  11.307 -0.2261 -0.1250 -0.3615
  318MOL0    Cl41888   6.644   9.559  11.309  0.3691  0.2669 -0.3420
  318MOL0     C41889   7.090   8.692  10.503 -0.3101  0.7540 -0.4884
  318MOL0     C41890   7.141   8.617  10.394 -0.6330  0.1285 -0.6012
  318MOL0     O41891   7.256   8.710  10.064  0.2092 -0.8335  0.0323
  318MOL0     C41892   7.390   8.527   9.884  0.5426 -0.0040  0.6167
  318MOL0     C41893   7.482   8.457   9.806  0.2849 -0.0414 -0.3998
  318MOL0     N41894   7.734   7.706  10.009  0.1251 -1.3516 -0.2299
  318MOL0     N41895   7.767   7.583  10.017  0.5948 -0.5809  0.0453
  318MOL0     C41896   8.955   7.075   9.532  0.1981 -0.1827  1.7337
  318MOL0     C41897   9.091   7.110   9.532 -0.8456  0.0740 -0.0231
  318MOL0     C41898   9.486   7.345   9.445  0.6894 -0.4781  0.8261
  318MOL0     C41899   9.502   7.442   9.549 -0.0879  0.1807 -0.0064
  318MOL0     C41900   9.613   7.521   9.544 -0.8538 -0.5676  0.0950
  318MOL0     C41901   9.727   7.490   9.473 -0.5382 -0.3202  0.6722
  318MOL0     O41902   9.840   7.572   9.490  0.1005  0.7872 -0.0541
  318MOL0     C41903   9.956   7.546   9.426 -0.3280  0.5988 -0.1504
  318MOL0     C41904  10.053   7.652   9.478 -0.0221  0.0409  0.2574
  318MOL0     C41905  10.038   7.783   9.404  0.0719 -0.1979 -0.2330
  318MOL0     C41906  10.136   7.885   9.457  0.6920  0.8767  0.3005
  318MOL0     C41907  10.103   7.929   9.595  0.4891  0.5134 -0.0101
  318MOL0     C41908  10.093   7.966   9.707  1.0977 -0.4856  0.4501
  318MOL0     C41909   9.716   7.387   9.379  0.3132  0.4593 -0.4281
  318MOL0     C41910   9.600   7.313   9.368 -0.3907 -1.0184  0.1637
  318MOL0     H41911   9.033   7.420   9.419 -0.2153 -0.3830 -0.6783
  318MOL0     H41912   8.817   7.353   9.413 -0.9714  0.1707  1.0555
  318MOL0     H41913   8.621   7.252   9.418 -0.5888 -2.1524 -0.7629
  318MOL0     H41914   8.654   7.274   9.595  0.6078  0.9751  0.6204
  318MOL0     H41915   8.476   7.076   9.621 -1.2645  0.6611 -1.1952
  318MOL0     H41916   8.466   7.077   9.453  0.0016 -2.2623  1.5517
  318MOL0     H41917   8.354   7.266   9.420  3.6465 -1.6148 -1.8048
  318MOL0     H41918   8.410   7.352   9.563  3.8933  0.2533 -4.5126
  318MOL0     H41919   8.194   7.139   9.537 -0.1352 -0.2104 -0.2160
  318MOL0     H41920   8.268   7.170   9.698 -3.9952 -1.3208 -0.6727
  318MOL0     H41921   8.119   7.376   9.536  2.9225 -0.0672 -1.0113
  318MOL0     H41922   8.225   7.413   9.673  2.8051  0.1368 -4.5605
  318MOL0     H41923   8.070   7.257   9.816  0.6371  3.0397  1.0858
  318MOL0     H41924   7.961   7.236   9.674 -0.3453 -0.0211  2.1529
  318MOL0     H41925   8.024   7.492   9.812 -1.5613 -1.1096  1.8715
  318MOL0     H41926   7.941   7.478   9.666  1.2152  1.3391  0.3761
  318MOL0     H41927   7.856   7.346   9.934  1.4165 -2.9672 -2.5473
  318MOL0     H41928   7.762   7.354   9.785  0.5010 -0.0104 -0.4302
  318MOL0     H41929   7.734   7.618   9.689  0.1445  1.6593 -1.3743
  318MOL0     H41930   7.555   7.891   9.895 -0.4452  0.7552 -0.2128
  318MOL0     H41931   7.608   7.867   9.736  0.4890 -1.3997  0.7089
  318MOL0     H41932   7.829   7.982   9.794  0.5371  0.0158  1.1363
  318MOL0     H41933   7.778   7.983   9.964 -0.4362  0.0376 -0.4008
  318MOL0     H41934   7.604   8.098   9.745  0.9472 -1.4961 -0.2419
  318MOL0     H41935   7.590   8.123   9.914 -1.2514 -4.0083  0.4533
  318MOL0     H41936   7.839   8.199   9.735  2.4097  1.8249  0.9442
  318MOL0     H41937   7.834   8.233   9.902  1.6144  0.2806 -0.8302
  318MOL0     H41938   7.712   8.372  10.045 -0.6702 -0.8148  1.0494
  318MOL0     H41939   7.552   8.506  10.177  1.2710 -0.5033 -0.5058
  318MOL0     H41940   7.437   8.789  10.364  0.6309 -0.5673  2.9448
  318MOL0     H41941   7.341   8.925  10.519  0.3773  0.4988 -0.7937
  318MOL0     H41942   7.122   9.061  10.611 -0.0198 -1.2673 -1.4276
  318MOL0     H41943   7.241   9.013  10.731 -0.4323 -2.9107  1.8697
  318MOL0     H41944   7.006   8.967  10.874  1.7668 -1.4708  0.2532
  318MOL0     H41945   6.933   9.055  10.751  1.6634  0.9159 -3.0170
  318MOL0     H41946   7.077   9.256  10.797  2.3496 -0.2526  0.3462
  318MOL0     H41947   7.157   9.181  10.926  1.6600 -0.3184 -2.4499
  318MOL0     H41948   6.852   9.191  10.911  0.1833 -5.0866  2.1919
  318MOL0     H41949   6.930   9.170  11.055 -1.2757  0.6402  0.0562
  318MOL0     H41950   6.968   9.433  10.908  1.7023 -1.7265 -1.2306
  318MOL0     H41951   7.045   9.392  11.054 -0.5428  1.5992  0.5507
  318MOL0     H41952   6.737   9.355  11.029 -2.3954  0.9937  1.4736
  318MOL0     H41953   6.803   9.515  11.078 -7.7538 -0.4919  1.7905
  318MOL0     H41954   6.856   9.259  11.227 -2.0270 -0.5286  0.9770
  318MOL0     H41955   6.917   9.427  11.273  0.9175  0.4144 -1.0645
  318MOL0     H41956   6.701   9.350  11.408 -1.0464  0.1846 -0.2790
  318MOL0     H41957   6.632   9.333  11.253  0.4505 -2.8200  1.3931
  318MOL0     H41958   6.984   8.683  10.524 -0.7991 -0.0452 -2.9604
  318MOL0     H41959   7.079   8.532  10.366  0.3612 -1.8556  2.6658
  318MOL0     H41960   7.314   8.583   9.830  0.1890 -0.0480  1.0580
  318MOL0     H41961   7.465   8.457   9.699 -2.9104 -0.2475  0.0085
  318MOL0     H41962   8.926   6.978   9.572 -0.0398 -0.9531 -0.1996
  318MOL0     H41963   9.176   7.055   9.571  0.0962 -0.1103 -2.1553
  318MOL0     H41964   9.413   7.466   9.606 -1.6787 -1.4490 -1.6700
  318MOL0     H41965   9.609   7.605   9.614 -3.3639 -1.3390  0.9779
  318MOL0     H41966   9.944   7.546   9.317  0.6611 -1.1886 -0.3015
  318MOL0     H41967   9.998   7.450   9.456  1.9007  1.4767 -0.2512
  318MOL0     H41968  10.029   7.663   9.584 -2.3889  0.6692 -0.2996
  318MOL0     H41969  10.156   7.618   9.461 -0.0867 -0.8488  1.5494
  318MOL0     H41970   9.938   7.826   9.412  0.7149  1.5497 -0.9664
  318MOL0     H41971  10.049   7.771   9.296 -0.5591  0.3236 -0.3614
  318MOL0     H41972  10.242   7.858   9.447  1.3219  2.1398  2.6937
  318MOL0     H41973  10.116   7.975   9.398 -1.5090 -0.3066 -0.8928
  318MOL0     H41974  10.098   8.006   9.806  3.7402 -2.4552  1.2399
  318MOL0     H41975   9.808   7.374   9.322 -0.5966  2.0117 -2.3928
  318MOL0     H41976   9.616   7.237   9.293  1.5025  0.3205 -0.8862
  319MOL0     O41977   9.692   1.161   9.305  0.2395 -0.4025 -0.2827
  319MOL0     C41978   9.601   1.126   9.378  1.1359  0.4885 -0.2057
  319MOL0     O41979   9.614   1.069   9.505 -0.0154  0.1280  0.2616
  319MOL0     C41980   9.733   1.074   9.577 -0.6483  0.8117  0.1775
  319MOL0     C41981   9.838   1.176   9.562 -0.2636 -0.8694 -0.7402
  319MOL0     C41982   9.960   1.170   9.631 -0.6918  0.1192 -0.5123
  319MOL0     C41983   9.981   1.059   9.720  0.7918 -1.0439  1.8878
  319MOL0     O41984  10.108   1.051   9.764  0.4408  0.5477 -0.9939
  319MOL0     C41985  10.144   1.000   9.889 -0.6508  0.2368  0.1942
  319MOL0     C41986  10.292   1.049   9.922  0.0062 -0.4511  0.0309
  319MOL0     C41987  10.333   0.962  10.047 -0.0798 -0.0400 -0.0467
  319MOL0     C41988  10.482   0.989  10.078  0.2558 -0.9762  0.4695
  319MOL0     C41989  10.517   0.945  10.215  0.2333  0.2675 -0.6195
  319MOL0     C41990  10.648   0.992  10.272  0.2102 -0.4943 -0.0721
  319MOL0     C41991  10.684   0.895  10.380 -0.3018  0.3222 -0.6580
  319MOL0     C41992  10.793   0.959  10.477  0.0484  0.0347  0.3866
  319MOL0     N41993  10.907   1.025  10.405  0.5048 -0.1304 -0.7246
  319MOL0     C41994  11.022   0.959  10.381  0.0845  0.9652  0.1360
  319MOL0     C41995  11.120   1.051  10.353 -0.8444 -0.0467 -0.5392
  319MOL0     C41996  11.268   1.037  10.360 -0.9213  0.2866 -0.2041
  319MOL0     C41997  11.341   1.128  10.257  0.9730  0.0541  0.9060
  319MOL0     C41998  11.491   1.140  10.297 -0.8103  0.3917 -0.3056
  319MOL0     C41999  11.580   1.016  10.247  0.6975  0.2384 -0.5052
  319MOL0     O42000  11.603   1.029  10.097  0.4991 -0.7997  0.2235
  319MOL0     C42001  11.710   1.099  10.053 -0.3306 -0.9766 -0.1167
  319MOL0     C42002  11.837   1.105  10.104  0.4549  0.3164  0.2050
  319MOL0     C42003  11.934   1.172  10.033 -0.5092  0.3118  0.3920
  319MOL0     C42004  11.930   1.209   9.894  0.7566  0.1400 -0.2443
  319MOL0     C42005  12.044   1.279   9.822  0.4784  0.6112  0.8862
  319MOL0     O42006  12.018   1.345   9.711  0.2747  0.4598 -0.0793
  319MOL0     C42007  12.102   1.450   9.677  0.8733 -0.4455  0.7408
  319MOL0     C42008  12.091   1.486   9.542 -0.4449  0.0042 -0.2247
  319MOL0     C42009  12.155   1.602   9.492 -0.8523  0.2719  0.6385
  319MOL0     C42010  12.242   1.676   9.573  0.0971 -0.7372  0.4541
  319MOL0     O42011  12.324   1.783   9.539 -0.8217 -0.3375 -1.0789
  319MOL0     C42012  12.293   1.862   9.434 -0.0485 -0.0956 -0.6693
  319MOL0     C42013  12.401   1.966   9.410  0.2792 -0.0850  0.1111
  319MOL0     C42014  12.533   1.905   9.370  0.0234 -0.0780  0.1808
  319MOL0     C42015  12.626   2.022   9.346  0.3377  0.5272 -0.7436
  319MOL0     C42016  12.766   1.956   9.317  0.6049  0.1874  0.5792
  319MOL0     C42017  12.861   2.073   9.275  0.5029 -0.3571  0.2180
  319MOL0     C42018  12.991   2.012   9.215 -0.5772  0.5209 -0.5614
  319MOL0     C42019  13.100   2.110   9.188  0.1190 -0.2404  0.5345
  319MOL0    Cl42020  13.052   2.202   9.034  0.5884  0.0063  0.2333
  319MOL0     C42021  12.254   1.641   9.708  0.0625 -0.7500  0.1515
  319MOL0     C42022  12.185   1.529   9.755  0.2642  0.4512 -0.5172
  319MOL0     O42023  12.158   1.256   9.860 -0.1051 -0.3151 -0.7617
  319MOL0     C42024  11.798   1.205   9.846 -0.0563 -1.1583 -0.1290
  319MOL0     C42025  11.689   1.153   9.926  0.0536 -0.7925  0.0016
  319MOL0     N42026  11.067   1.175  10.375  1.3251 -0.3213 -0.2708
  319MOL0     N42027  10.935   1.158  10.407 -0.2411 -0.6218 -0.2120
  319MOL0     C42028   9.876   0.972   9.746 -0.3362  0.7402 -0.3341
  319MOL0     C42029   9.754   0.974   9.681  0.0925 -1.1320  0.3141
  319MOL0     C42030   9.472   1.127   9.311  0.0204  0.3369  0.4850
  319MOL0     C42031   9.445   1.191   9.191  0.3973 -0.3940 -0.9736
  319MOL0     C42032   9.316   1.188   9.129  0.1236  0.3832  0.0654
  319MOL0     C42033   9.206   1.114   9.191  0.1290 -1.4239  0.7246
  319MOL0     O42034   9.080   1.132   9.135 -0.4570  0.6107 -0.0506
  319MOL0     C42035   8.997   1.012   9.126  0.4279 -0.3916 -0.2729
  319MOL0     C42036   8.883   1.026   9.233  0.0345  0.1593  0.0678
  319MOL0     C42037   8.775   1.132   9.184  0.4602  0.4794  0.9406
  319MOL0     C42038   8.688   1.169   9.308  0.4462  0.3761 -0.0951
  319MOL0     C42039   8.549   1.192   9.274 -0.3841  0.9926 -0.5023
  319MOL0     C42040   8.430   1.177   9.243  0.1547  0.1544 -1.0302
  319MOL0     C42041   9.228   1.047   9.310  0.0009 -0.5764  0.2743
  319MOL0     C42042   9.361   1.059   9.368 -0.1168  0.2456  0.5522
  319MOL0     H42043   9.826   1.258   9.491  0.8542  0.5557  0.6646
  319MOL0     H42044  10.043   1.238   9.616  1.5605 -2.5531 -0.9153
  319MOL0     H42045  10.137   0.891   9.880 -2.4108  0.0877  2.4578
  319MOL0     H42046  10.084   1.047   9.967 -1.4058 -2.3126  1.2368
  319MOL0     H42047  10.301   1.156   9.942  2.8046 -0.5970 -0.0638
  319MOL0     H42048  10.347   1.019   9.833  1.0046 -0.2391  0.5644
  319MOL0     H42049  10.321   0.855  10.029 -0.8543 -0.7558  3.9433
  319MOL0     H42050  10.268   0.990  10.130 -0.6191 -0.0724 -0.4470
  319MOL0     H42051  10.561   0.948  10.015  2.2650  2.5423  0.4532
  319MOL0     H42052  10.503   1.094  10.059 -0.1484 -1.1004 -0.7263
  319MOL0     H42053  10.508   0.836  10.202 -0.1667  0.3825 -1.4154
  319MOL0     H42054  10.438   0.957  10.290 -2.5154 -2.6993 -2.7323
  319MOL0     H42055  10.633   1.094  10.308  0.2216 -0.2975 -0.6100
  319MOL0     H42056  10.726   0.993  10.194  0.2643 -0.9987 -0.0320
  319MOL0     H42057  10.600   0.878  10.448 -0.1634 -0.2421 -0.6174
  319MOL0     H42058  10.709   0.791  10.355  3.3036  1.2919 -1.7096
  319MOL0     H42059  10.827   0.883  10.548 -0.1949  0.1197  0.5964
  319MOL0     H42060  10.737   1.035  10.532 -1.1316 -0.6497  0.1734
  319MOL0     H42061  11.027   0.851  10.371  0.0951  0.9325  0.4736
  319MOL0     H42062  11.306   0.936  10.337 -0.7496  0.0575  1.0100
  319MOL0     H42063  11.299   1.063  10.461 -0.1618  0.7202 -0.5439
  319MOL0     H42064  11.305   1.231  10.253  2.0686  0.4506  0.8850
  319MOL0     H42065  11.330   1.081  10.159  0.9937 -3.6498  2.5066
  319MOL0     H42066  11.526   1.232  10.250 -1.9293  1.6399  1.2156
  319MOL0     H42067  11.506   1.149  10.405  3.6015  3.0812 -0.9004
  319MOL0     H42068  11.522   0.927  10.273 -1.4223  0.5803 -3.4878
  319MOL0     H42069  11.675   1.013  10.301  0.8338 -0.0387 -0.7615
  319MOL0     H42070  11.862   1.059  10.198 -0.0498  0.3671  0.3692
  319MOL0     H42071  12.027   1.183  10.088 -0.5845  0.2474  0.5338
  319MOL0     H42072  12.011   1.439   9.486 -0.8737  2.9365 -2.3227
  319MOL0     H42073  12.144   1.624   9.386 -2.9520 -2.9338  0.0496
  319MOL0     H42074  12.194   1.906   9.449  0.9286  2.5978 -1.4097
  319MOL0     H42075  12.289   1.802   9.342 -3.9597 -2.1175  0.6086
  319MOL0     H42076  12.413   2.025   9.502  0.1049  2.1157 -1.1972
  319MOL0     H42077  12.368   2.036   9.332  4.9026  0.7142 -1.4303
  319MOL0     H42078  12.526   1.845   9.278 -1.0810 -1.0466  0.8783
  319MOL0     H42079  12.566   1.850   9.458  0.7166  0.4749  0.2792
  319MOL0     H42080  12.594   2.075   9.256  0.4931  1.9780  0.0221
  319MOL0     H42081  12.636   2.092   9.430  0.6642 -2.4292  1.8324
  319MOL0     H42082  12.752   1.880   9.239  0.5781  0.0432  0.7241
  319MOL0     H42083  12.809   1.914   9.408 -0.8367 -0.6459  0.9040
  319MOL0     H42084  12.896   2.133   9.360  1.2762  0.7914 -0.8705
  319MOL0     H42085  12.812   2.131   9.196 -0.0235  1.1725  1.5951
  319MOL0     H42086  13.025   1.944   9.294  1.0287  0.9431 -0.8693
  319MOL0     H42087  12.973   1.949   9.126  2.2432 -3.8107  1.5806
  319MOL0     H42088  13.193   2.058   9.162  0.4594 -0.4208  2.0285
  319MOL0     H42089  13.115   2.173   9.277 -2.2197 -1.6275  1.9943
  319MOL0     H42090  12.321   1.705   9.765  0.3906 -1.4683  0.5865
  319MOL0     H42091  12.195   1.515   9.862  0.8965  2.2202 -0.3060
  319MOL0     H42092  11.777   1.245   9.747 -0.2829 -0.8753  0.0324
  319MOL0     H42093  11.589   1.158   9.883  0.4407  1.2004 -0.7497
  319MOL0     H42094   9.899   0.891   9.815 -2.1022  1.4212  1.1085
  319MOL0     H42095   9.670   0.910   9.706 -0.9485  0.1854  0.3385
  319MOL0     H42096   9.525   1.249   9.146  0.2464  0.5685 -0.0383
  319MOL0     H42097   9.285   1.222   9.030 -0.7534  2.1466  0.8887
  319MOL0     H42098   9.061   0.926   9.145  2.2556  1.5848  3.6998
  319MOL0     H42099   8.951   0.996   9.028 -2.5893  2.7242  0.4013
  319MOL0     H42100   8.834   0.930   9.249 -0.2849  0.1601 -0.8409
  319MOL0     H42101   8.929   1.057   9.327 -0.5395 -2.7804  1.4220
  319MOL0     H42102   8.734   1.092   9.091 -0.1155 -0.4806  1.5923
  319MOL0     H42103   8.824   1.214   9.131  1.9365 -1.5953 -1.1555
  319MOL0     H42104   8.686   1.077   9.367  1.5056 -0.6610 -1.5958
  319MOL0     H42105   8.729   1.253   9.365  0.7959  1.1789 -1.4598
  319MOL0     H42106   8.325   1.158   9.228 -0.1334  0.2006  0.6748
  319MOL0     H42107   9.148   0.989   9.354 -2.1033  1.4534 -0.6827
  319MOL0     H42108   9.383   1.002   9.457  1.2923 -2.5958 -1.4519
  320MOL0     O42109   9.194   0.880   4.866 -0.4173 -0.8542  0.4166
  320MOL0     C42110   9.187   1.006   4.860 -0.1618 -1.3502 -0.8357
  320MOL0     O42111   9.073   1.075   4.881  0.0205 -0.6058  0.1216
  320MOL0     C42112   8.962   1.000   4.896  0.0512  0.2227  0.3517
  320MOL0     C42113   8.865   1.004   4.785  0.8115 -0.2425  0.6898
  320MOL0     C42114   8.732   0.954   4.798 -0.2807 -0.6221  0.3789
  320MOL0     C42115   8.693   0.888   4.917 -0.8502 -0.3444 -0.1129
  320MOL0     O42116   8.570   0.847   4.958 -0.4535 -0.6509  0.6626
  320MOL0     C42117   8.462   0.870   4.869 -0.2242  0.1423 -0.4214
  320MOL0     C42118   8.338   0.825   4.930 -0.4036 -0.4670 -0.8567
  320MOL0     C42119   8.219   0.847   4.845  0.2999 -0.4211  0.0801
  320MOL0     C42120   8.153   0.994   4.866  0.2070  0.5169  0.1222
  320MOL0     C42121   8.039   1.016   4.762 -0.4119 -0.9551  0.1333
  320MOL0     C42122   7.969   1.140   4.783  0.8415 -0.1391  0.0221
  320MOL0     C42123   7.842   1.163   4.691 -0.5262 -1.2260  0.1521
  320MOL0     C42124   7.730   1.086   4.746  1.0668  0.2028  0.0613
  320MOL0     N42125   7.610   1.112   4.658  0.6991 -0.0894  0.4536
  320MOL0     C42126   7.562   1.029   4.558  0.0709  0.0949  0.0193
  320MOL0     C42127   7.430   1.034   4.543  0.4424  0.3366  0.4785
  320MOL0     C42128   7.339   0.962   4.449 -0.6669 -0.1347 -0.0004
  320MOL0     C42129   7.189   1.009   4.441  0.4830  0.4513  0.2719
  320MOL0     C42130   7.118   1.001   4.571 -0.1862 -0.7218 -0.5434
  320MOL0     C42131   6.963   0.984   4.551  0.0403 -0.0846 -0.9651
  320MOL0     O42132   6.890   0.958   4.672 -0.8560  0.1882 -0.3228
  320MOL0     C42133   6.753   0.963   4.679 -1.0199 -0.7812  0.2513
  320MOL0     C42134   6.685   0.943   4.796 -0.1160  0.2936  0.0762
  320MOL0     C42135   6.549   0.931   4.811  0.5616 -0.6259 -0.0462
  320MOL0     C42136   6.471   0.943   4.692 -0.3316  0.4507  0.6099
  320MOL0     C42137   6.323   0.906   4.689 -0.6671 -0.1457 -0.0712
  320MOL0     O42138   6.286   0.839   4.572  0.1415  0.4403 -0.2695
  320MOL0     C42139   6.154   0.790   4.560  0.4254  0.3349 -0.5404
  320MOL0     C42140   6.081   0.826   4.447 -0.9381 -1.1296 -0.0263
  320MOL0     C42141   5.951   0.787   4.423 -0.1964  0.4222 -0.3551
  320MOL0     C42142   5.890   0.696   4.508  0.5074 -0.0147 -0.1615
  320MOL0     O42143   5.756   0.661   4.501 -0.5403 -0.2868 -0.3973
  320MOL0     C42144   5.678   0.716   4.394  0.5341  0.2657  0.7380
  320MOL0     C42145   5.537   0.665   4.389 -0.4304 -0.3142 -0.0171
  320MOL0     C42146   5.525   0.532   4.310 -0.1521  0.5708  0.1365
  320MOL0     C42147   5.384   0.466   4.320 -0.7799 -0.4933 -0.1945
  320MOL0     C42148   5.262   0.566   4.295  0.5280 -0.7920 -0.1449
  320MOL0     C42149   5.132   0.492   4.280  0.3222  0.2187  0.5849
  320MOL0     C42150   5.023   0.586   4.230 -0.0606  0.5024  0.0905
  320MOL0     C42151   4.894   0.512   4.206  0.7518 -0.8132  0.3723
  320MOL0    Cl42152   4.790   0.622   4.126 -0.1212 -0.0161 -0.1692
  320MOL0     C42153   5.972   0.646   4.616  0.2957 -0.6511  0.1683
  320MOL0     C42154   6.095   0.695   4.642  0.3770 -0.2394  0.2394
  320MOL0     O42155   6.258   0.927   4.787 -0.0552  0.9600  0.1957
  320MOL0     C42156   6.537   0.971   4.571  0.1169  0.4677  0.0783
  320MOL0     C42157   6.677   0.971   4.560 -0.4118 -0.2959 -0.6064
  320MOL0     N42158   7.392   1.127   4.644 -0.6507 -0.0464  0.5477
  320MOL0     N42159   7.493   1.168   4.709 -0.4345 -0.2407  0.3303
  320MOL0     C42160   8.791   0.888   5.027  1.0354  0.5985 -0.3463
  320MOL0     C42161   8.921   0.939   5.014  0.5608 -0.8474 -1.1958
  320MOL0     C42162   9.310   1.096   4.838 -0.1710  0.6619 -0.6757
  320MOL0     C42163   9.441   1.041   4.858 -0.0124 -0.1823  0.6759
  320MOL0     C42164   9.554   1.114   4.827 -0.2106 -0.8538 -0.6678
  320MOL0     C42165   9.547   1.246   4.782 -0.1696 -0.0381 -0.4090
  320MOL0     O42166   9.661   1.302   4.755  0.0942  0.2882 -0.4917
  320MOL0     C42167   9.658   1.426   4.685 -0.2394 -0.9106 -0.4056
  320MOL0     C42168   9.796   1.464   4.632 -0.1343 -0.1439 -0.5395
  320MOL0     C42169   9.897   1.455   4.745 -0.7575 -0.4717 -0.1713
  320MOL0     C42170  10.031   1.470   4.674 -0.6892  0.2698 -0.3963
  320MOL0     C42171  10.049   1.599   4.605 -1.0596  0.2648 -0.5981
  320MOL0     C42172  10.093   1.701   4.548 -0.3757  0.0682  0.3810
  320MOL0     C42173   9.427   1.303   4.780 -0.0568  0.3755 -0.4573
  320MOL0     C42174   9.309   1.236   4.809 -0.0629  0.0855  0.6240
  320MOL0     H42175   8.911   1.052   4.699  1.9961 -3.0365 -0.3474
  320MOL0     H42176   8.665   0.957   4.712 -2.4515 -0.3665  1.9850
  320MOL0     H42177   8.487   0.824   4.773  3.4283  1.9880 -0.5329
  320MOL0     H42178   8.459   0.979   4.862 -2.8425  0.1804  0.1986
  320MOL0     H42179   8.325   0.869   5.029  0.0001 -0.2812 -0.8845
  320MOL0     H42180   8.335   0.718   4.953  1.8983 -0.5516 -0.7056
  320MOL0     H42181   8.152   0.766   4.874  1.2371 -0.6264  1.8120
  320MOL0     H42182   8.250   0.839   4.740 -0.4805 -1.8253 -0.0635
  320MOL0     H42183   8.103   0.995   4.963 -0.9871 -1.8473 -0.3828
  320MOL0     H42184   8.226   1.075   4.860  1.5767 -0.7530 -1.1908
  320MOL0     H42185   7.967   0.933   4.766 -1.3431 -0.1622  0.1311
  320MOL0     H42186   8.079   1.022   4.661 -4.5167  1.6794 -1.5972
  320MOL0     H42187   8.041   1.223   4.775  1.3338 -0.5451  0.1614
  320MOL0     H42188   7.936   1.144   4.888 -1.2372 -0.1381 -0.5915
  320MOL0     H42189   7.816   1.265   4.720 -0.5789 -1.2198  0.0843
  320MOL0     H42190   7.865   1.145   4.585 -1.1938 -1.3078  0.0129
  320MOL0     H42191   7.704   1.107   4.850 -1.0262 -2.9860  0.3247
  320MOL0     H42192   7.759   0.980   4.750 -1.7376 -0.6270  1.7114
  320MOL0     H42193   7.624   0.957   4.504  3.1914  0.0630  3.2825
  320MOL0     H42194   7.332   0.861   4.491 -2.9313  0.2737  0.7322
  320MOL0     H42195   7.382   0.940   4.350 -0.6938 -4.1350  0.7190
  320MOL0     H42196   7.142   0.936   4.375  0.1659  0.1888  0.7838
  320MOL0     H42197   7.183   1.097   4.377  1.9901  0.7853  0.5391
  320MOL0     H42198   7.151   0.914   4.629  0.1773 -2.1720 -2.7890
  320MOL0     H42199   7.128   1.092   4.631 -3.0809  0.4469 -1.6862
  320MOL0     H42200   6.953   0.893   4.491 -1.1318 -1.1205  0.7097
  320MOL0     H42201   6.923   1.071   4.498  1.6688  0.5942 -1.1270
  320MOL0     H42202   6.742   0.943   4.888 -1.2632 -1.7522  0.8452
  320MOL0     H42203   6.501   0.916   4.908  0.2669 -2.7445 -0.4727
  320MOL0     H42204   6.141   0.883   4.376 -0.1418 -1.3599  0.4547
  320MOL0     H42205   5.901   0.812   4.330  0.0455 -2.9812 -1.5367
  320MOL0     H42206   5.718   0.700   4.293  0.4782 -0.0220  0.7590
  320MOL0     H42207   5.676   0.822   4.421 -2.6116 -0.0558  2.2074
  320MOL0     H42208   5.475   0.744   4.346 -0.0530 -0.3903 -0.7178
  320MOL0     H42209   5.503   0.648   4.491  1.6302  1.9682  1.1436
  320MOL0     H42210   5.595   0.454   4.342 -1.6723 -1.3083 -0.8958
  320MOL0     H42211   5.544   0.556   4.205  1.6681  2.1686  0.7797
  320MOL0     H42212   5.385   0.386   4.245  0.7304  0.0339 -0.7801
  320MOL0     H42213   5.370   0.423   4.419  1.2831 -0.8265 -0.0194
  320MOL0     H42214   5.291   0.624   4.207  1.0149  0.2582  0.6840
  320MOL0     H42215   5.249   0.638   4.376 -1.4300  0.0755 -1.1698
  320MOL0     H42216   5.106   0.452   4.379  0.5391  1.3188  1.1030
  320MOL0     H42217   5.153   0.424   4.197 -0.6916 -0.6239  1.0003
  320MOL0     H42218   4.994   0.673   4.291 -1.7286  1.7114 -2.2819
  320MOL0     H42219   5.060   0.627   4.136 -1.7423  1.3834 -0.2399
  320MOL0     H42220   4.857   0.485   4.305  0.8541 -2.0395  0.0963
  320MOL0     H42221   4.897   0.419   4.147  1.0697  0.4876 -1.7646
  320MOL0     H42222   5.941   0.567   4.683  0.9744 -3.0286 -2.1321
  320MOL0     H42223   6.147   0.659   4.730  2.9200  3.1510  0.3413
  320MOL0     H42224   6.483   0.989   4.479  2.1626 -0.6835 -1.4454
  320MOL0     H42225   6.727   0.998   4.467 -0.0801 -1.0680 -0.6610
  320MOL0     H42226   8.753   0.856   5.124 -1.2219  0.1498 -1.3091
  320MOL0     H42227   8.982   0.940   5.103  4.1939  2.8337 -3.3704
  320MOL0     H42228   9.465   0.942   4.894  0.4383 -0.0512  0.7408
  320MOL0     H42229   9.651   1.070   4.846 -0.2821 -1.2012 -1.0851
  320MOL0     H42230   9.630   1.513   4.744  1.3412 -0.6899  0.0530
  320MOL0     H42231   9.582   1.430   4.606 -1.9880  3.9387  1.1805
  320MOL0     H42232   9.823   1.395   4.551 -2.0726  0.8630 -2.1365
  320MOL0     H42233   9.785   1.562   4.585 -1.3180 -0.4929 -1.0373
  320MOL0     H42234   9.891   1.353   4.785  1.7684 -0.8522 -0.5851
  320MOL0     H42235   9.891   1.539   4.815  2.1075  0.6001 -1.0673
  320MOL0     H42236  10.104   1.457   4.755 -0.5887  0.0160 -0.5250
  320MOL0     H42237  10.053   1.387   4.606  1.1371  1.0421 -0.8250
  320MOL0     H42238  10.127   1.790   4.499  0.3567 -0.0208  0.7060
  320MOL0     H42239   9.413   1.406   4.746 -1.5494  0.9990  1.7868
  320MOL0     H42240   9.213   1.285   4.799  1.0987  2.6355  0.9409
  321MOL0     O42241   4.451   9.280   8.569 -0.4780  0.1265  0.2789
  321MOL0     C42242   4.527   9.361   8.508  0.8160 -0.0308  0.1546
  321MOL0     O42243   4.493   9.492   8.479  0.1891  0.2226  0.2508
  321MOL0     C42244   4.367   9.544   8.525 -0.1517  0.3483 -0.9083
  321MOL0     C42245   4.305   9.510   8.647  0.8494  0.8951  0.4345
  321MOL0     C42246   4.182   9.571   8.684  0.3515  0.0799  0.6776
  321MOL0     C42247   4.102   9.650   8.600 -1.0290  0.5582  0.3096
  321MOL0     O42248   3.976   9.671   8.637 -0.2872  0.5915 -0.0438
  321MOL0     C42249   3.956   9.811   8.666  1.0813 -0.4200  0.2886
  321MOL0     C42250   3.804   9.842   8.679 -0.4539 -0.2372  0.4241
  321MOL0     C42251   3.719   9.816   8.564 -0.0902  0.8343  0.7540
  321MOL0     C42252   3.575   9.855   8.602  0.1989 -0.1672 -0.3603
  321MOL0     C42253   3.486   9.825   8.495  0.6247  0.0063  0.7058
  321MOL0     C42254   3.343   9.854   8.532 -0.1716 -0.3965  0.2707
  321MOL0     C42255   3.248   9.825   8.416  0.2267 -0.5309 -0.0652
  321MOL0     C42256   3.104   9.884   8.436 -0.3098 -0.4890  0.6022
  321MOL0     N42257   3.040   9.803   8.545  0.5818  0.5580  0.7226
  321MOL0     C42258   2.992   9.672   8.533  0.0113  0.7413  0.6590
  321MOL0     C42259   2.946   9.641   8.656 -0.0835  0.0496 -0.3909
  321MOL0     C42260   2.855   9.519   8.671 -0.5871 -1.0149  0.6221
  321MOL0     C42261   2.716   9.564   8.632 -0.5315  0.4965  0.8196
  321MOL0     C42262   2.616   9.447   8.650 -0.2882 -0.2814  0.0441
  321MOL0     C42263   2.481   9.495   8.609 -0.0188  0.1154  0.1671
  321MOL0     O42264   2.381   9.392   8.621 -0.0960  0.2953 -1.3464
  321MOL0     C42265   2.253   9.423   8.579 -0.1624  0.4875 -0.0681
  321MOL0     C42266   2.152   9.333   8.613  0.0012  0.1904  0.4274
  321MOL0     C42267   2.020   9.353   8.580  0.6809  0.1412  0.0381
  321MOL0     C42268   1.984   9.466   8.503  0.5923 -0.1783 -0.4908
  321MOL0     C42269   1.849   9.475   8.435  0.0346  0.4083  0.1177
  321MOL0     O42270   1.827   9.587   8.351  0.1799 -0.4843 -0.7743
  321MOL0     C42271   1.705   9.580   8.285  0.5596  0.1604  0.4717
  321MOL0     C42272   1.583   9.565   8.348  0.3283  0.7308 -0.1251
  321MOL0     C42273   1.460   9.547   8.278 -0.0827 -0.3340 -0.5392
  321MOL0     C42274   1.446   9.542   8.141 -0.1616 -1.0113  0.7283
  321MOL0     O42275   1.329   9.520   8.073 -0.4859 -0.6685  0.1961
  321MOL0     C42276   1.219   9.607   8.105  0.8634  0.3415  0.6022
  321MOL0     C42277   1.112   9.550   8.199 -1.2447  0.7364 -0.7222
  321MOL0     C42278   1.030   9.450   8.117  0.5379 -0.1885 -0.4136
  321MOL0     C42279   0.911   9.387   8.198  0.0070  0.3306  0.4530
  321MOL0     C42280   0.856   9.278   8.113  0.5889 -0.1903 -0.1009
  321MOL0     C42281   0.748   9.337   8.013  0.2455 -0.1235  0.5455
  321MOL0     C42282   0.706   9.244   7.911 -0.2063 -0.5150 -0.5231
  321MOL0     C42283   0.808   9.224   7.798  0.4665  0.5984 -0.1805
  321MOL0    Cl42284   0.752   9.127   7.664  0.3993  0.1942  0.2130
  321MOL0     C42285   1.568   9.562   8.072 -0.1102  0.3528 -0.5898
  321MOL0     C42286   1.687   9.580   8.140 -0.0709  0.0613  0.4347
  321MOL0     O42287   1.772   9.381   8.458 -0.4674  0.2834 -0.0811
  321MOL0     C42288   2.082   9.565   8.470  0.5713 -0.0187 -0.8213
  321MOL0     C42289   2.213   9.536   8.509 -0.1147 -0.0573 -0.9459
  321MOL0     N42290   2.968   9.747   8.741 -0.0540  0.8693  0.5115
  321MOL0     N42291   3.015   9.846   8.672 -0.9355  0.1224 -0.0686
  321MOL0     C42292   4.161   9.692   8.485  0.6992  0.2011  0.5757
  321MOL0     C42293   4.290   9.636   8.443 -0.5691  0.3131  0.6268
  321MOL0     C42294   4.671   9.318   8.466  1.1480  0.1965  0.5176
  321MOL0     C42295   4.767   9.409   8.421 -0.4109 -1.1662 -0.3232
  321MOL0     C42296   4.902   9.365   8.397 -0.1962  0.0394  0.1525
  321MOL0     C42297   4.937   9.235   8.415 -0.6440  0.5946 -0.6392
  321MOL0     O42298   5.072   9.203   8.387  0.3482 -0.6178 -0.0153
  321MOL0     C42299   5.117   9.082   8.438  1.2239 -0.1065 -0.0396
  321MOL0     C42300   5.268   9.083   8.436 -0.1553  0.1634  0.3568
  321MOL0     C42301   5.315   9.106   8.291  0.5158 -1.0605  0.0272
  321MOL0     C42302   5.468   9.100   8.281 -0.5897  0.1440  0.3145
  321MOL0     C42303   5.528   9.209   8.368 -0.2421 -0.4120  0.1733
  321MOL0     C42304   5.570   9.307   8.424 -0.1810  0.3878 -0.0306
  321MOL0     C42305   4.839   9.149   8.464  0.0465  0.6254  0.0353
  321MOL0     C42306   4.705   9.190   8.475 -0.7544  0.5708  0.0681
  321MOL0     H42307   4.347   9.435   8.713 -0.8089  0.7126  1.3328
  321MOL0     H42308   4.137   9.561   8.782  0.7414  2.9623  1.2539
  321MOL0     H42309   3.987   9.874   8.583 -0.1619 -2.3008 -1.7274
  321MOL0     H42310   4.009   9.840   8.757 -1.0810  1.3559  1.0925
  321MOL0     H42311   3.791   9.947   8.708 -1.4090 -0.8606  2.3856
  321MOL0     H42312   3.784   9.782   8.768  0.9626 -0.9414  0.2996
  321MOL0     H42313   3.720   9.710   8.536  1.1865  0.9259  0.4329
  321MOL0     H42314   3.744   9.869   8.472 -0.9629 -1.5246 -0.9556
  321MOL0     H42315   3.548   9.807   8.696 -0.0075 -1.0328 -0.8524
  321MOL0     H42316   3.578   9.964   8.615 -0.4283 -0.0653 -0.9561
  321MOL0     H42317   3.489   9.721   8.460 -2.3224  0.0582  0.0338
  321MOL0     H42318   3.520   9.892   8.416 -0.7079  3.0500  2.5095
  321MOL0     H42319   3.350   9.962   8.544  0.4099 -0.3780 -0.1921
  321MOL0     H42320   3.316   9.802   8.625  0.6422  0.8592  1.2465
  321MOL0     H42321   3.287   9.866   8.323 -0.2982 -2.0707 -1.0102
  321MOL0     H42322   3.255   9.717   8.399  1.6286 -0.3391 -0.8558
  321MOL0     H42323   3.048   9.879   8.342 -0.6728  1.2271  0.6949
  321MOL0     H42324   3.102   9.991   8.458  1.4097  0.2555 -2.3040
  321MOL0     H42325   2.996   9.623   8.436 -1.1130  1.1441  0.3947
  321MOL0     H42326   2.866   9.480   8.773  1.1042 -0.2285  0.7721
  321MOL0     H42327   2.879   9.437   8.602 -0.4078 -1.6202  1.3807
  321MOL0     H42328   2.717   9.601   8.530  1.1611 -0.2519  0.5219
  321MOL0     H42329   2.700   9.649   8.699  1.0301  2.6478 -1.3684
  321MOL0     H42330   2.641   9.354   8.599 -0.6073  0.1089 -0.8412
  321MOL0     H42331   2.617   9.430   8.758 -0.5223  1.7555  0.4121
  321MOL0     H42332   2.486   9.532   8.506 -2.5285 -1.0001 -0.4457
  321MOL0     H42333   2.454   9.583   8.667  2.6604  0.3792  1.1641
  321MOL0     H42334   2.178   9.235   8.650  1.0561  0.0289 -0.6992
  321MOL0     H42335   1.940   9.282   8.595  1.8898 -1.0926  0.9324
  321MOL0     H42336   1.585   9.568   8.457 -0.6901  5.3914 -0.0130
  321MOL0     H42337   1.380   9.530   8.350  0.6339  0.3032  0.4381
  321MOL0     H42338   1.172   9.623   8.007 -2.1761  1.8203  2.1875
  321MOL0     H42339   1.245   9.709   8.136  0.0494 -0.4052  4.2128
  321MOL0     H42340   1.047   9.632   8.233  0.6119  0.9115  2.7540
  321MOL0     H42341   1.152   9.499   8.286  0.0434 -1.4684 -2.5024
  321MOL0     H42342   1.100   9.370   8.089  1.1644  0.8877 -2.0857
  321MOL0     H42343   0.992   9.493   8.025 -0.7729 -1.1581 -0.3585
  321MOL0     H42344   0.957   9.353   8.291  1.2966  0.3204 -0.1639
  321MOL0     H42345   0.831   9.459   8.216  0.1379  0.6388 -0.1651
  321MOL0     H42346   0.804   9.209   8.180 -0.2587 -2.5442 -2.9872
  321MOL0     H42347   0.936   9.223   8.063  0.5838  0.2872 -0.6331
  321MOL0     H42348   0.775   9.433   7.966 -1.7626 -0.9225 -2.5855
  321MOL0     H42349   0.659   9.359   8.073 -0.2818  0.6383 -0.4595
  321MOL0     H42350   0.663   9.155   7.957  1.7754 -1.5256 -0.5103
  321MOL0     H42351   0.619   9.297   7.873 -1.1650 -1.2495  0.5834
  321MOL0     H42352   0.890   9.167   7.842 -2.2675 -2.3155  1.5717
  321MOL0     H42353   0.851   9.318   7.761 -1.5204  1.1613 -1.1851
  321MOL0     H42354   1.569   9.560   7.964  3.0467 -1.2737 -0.6154
  321MOL0     H42355   1.780   9.578   8.085 -0.1098 -3.2715  0.2937
  321MOL0     H42356   2.063   9.663   8.427  0.3510  1.2962  1.9923
  321MOL0     H42357   2.280   9.619   8.489 -0.3220  0.6941  1.2342
  321MOL0     H42358   4.103   9.759   8.423  0.8000 -0.1511  0.0919
  321MOL0     H42359   4.340   9.673   8.354 -0.2842  0.8978  1.0239
  321MOL0     H42360   4.746   9.516   8.422  1.6481 -0.5513 -3.5951
  321MOL0     H42361   4.981   9.430   8.359  1.4723  0.2280  3.5965
  321MOL0     H42362   5.084   8.993   8.383  2.2540 -1.7072  1.7977
  321MOL0     H42363   5.080   9.072   8.541  0.4860  2.7769  0.0383
  321MOL0     H42364   5.293   9.169   8.498 -2.6082 -0.0641  1.7922
  321MOL0     H42365   5.307   8.992   8.483  0.4130  1.4748  2.5663
  321MOL0     H42366   5.281   9.202   8.251  3.1151 -0.6453 -1.3613
  321MOL0     H42367   5.264   9.022   8.244 -0.4256 -0.5541  0.1054
  321MOL0     H42368   5.497   9.002   8.322  0.4006 -0.1419 -1.0022
  321MOL0     H42369   5.493   9.110   8.175 -2.3025 -1.0401 -0.2434
  321MOL0     H42370   5.621   9.384   8.479 -0.9755 -0.1480  1.5168
  321MOL0     H42371   4.859   9.043   8.472  1.3627  0.7219 -1.5557
  321MOL0     H42372   4.640   9.115   8.519  1.2324 -0.4713  1.3905
  322MOL0     O42373   1.157   5.763   6.864 -0.1649  0.2511 -0.4225
  322MOL0     C42374   1.104   5.805   6.760 -0.1204  0.0783 -0.4228
  322MOL0     O42375   0.973   5.799   6.726  0.5901  0.0224  0.2470
  322MOL0     C42376   0.884   5.709   6.779  0.2530  0.6800 -0.3956
  322MOL0     C42377   0.913   5.593   6.863 -0.6226 -0.7820  0.5829
  322MOL0     C42378   0.810   5.515   6.915  0.2825 -1.0538 -0.4243
  322MOL0     C42379   0.673   5.539   6.882  0.0698 -0.5143  0.6730
  322MOL0     O42380   0.562   5.453   6.910 -0.3668 -0.1326  0.2328
  322MOL0     C42381   0.558   5.387   7.042  0.1955 -0.5926  0.4513
  322MOL0     C42382   0.412   5.371   7.088  0.1921 -0.7681 -0.3625
  322MOL0     C42383   0.338   5.300   6.984  0.3525 -0.2096 -0.1122
  322MOL0     C42384   0.214   5.221   7.026  0.7765 -0.0808 -0.2618
  322MOL0     C42385   0.173   5.128   6.915 -0.5165  1.1822 -0.4143
  322MOL0     C42386   0.056   5.039   6.945  0.0532 -0.1551  0.0903
  322MOL0     C42387   0.018   4.929   6.843  0.0311 -0.6439  0.0683
  322MOL0     C42388  -0.069   4.823   6.918  0.1619  0.3958 -0.6612
  322MOL0     N42389  -0.155   4.743   6.824  0.4901 -0.0471  0.5850
  322MOL0     C42390  -0.279   4.781   6.776  0.2498  0.7667  0.0505
  322MOL0     C42391  -0.329   4.661   6.726 -0.9095  0.0182  1.5075
  322MOL0     C42392  -0.449   4.636   6.648  0.5140  0.5617 -0.1915
  322MOL0     C42393  -0.554   4.538   6.708 -0.1646  1.2903 -0.0627
  322MOL0     C42394  -0.636   4.614   6.809 -0.3563  0.3867  1.0027
  322MOL0     C42395  -0.766   4.545   6.845  0.2190  0.3354 -0.7826
  322MOL0     O42396  -0.835   4.631   6.936  0.0643 -0.5560 -1.0587
  322MOL0     C42397  -0.967   4.664   6.930 -0.3502 -0.5408  0.8630
  322MOL0     C42398  -1.035   4.663   7.052 -0.2495 -0.0031  0.3569
  322MOL0     C42399  -1.173   4.641   7.053  0.4282  0.4173  0.3598
  322MOL0     C42400  -1.240   4.650   6.928 -0.1259  0.1293  0.1072
  322MOL0     C42401  -1.390   4.658   6.921 -0.8953 -1.0366 -0.6134
  322MOL0     O42402  -1.447   4.625   7.038  0.9368  0.6104  1.0548
  322MOL0     C42403  -1.580   4.639   7.053 -0.7407  0.7638  0.0144
  322MOL0     C42404  -1.632   4.714   7.157  0.6552 -0.9056  1.1714
  322MOL0     C42405  -1.767   4.727   7.168  0.2619 -0.6429 -0.1146
  322MOL0     C42406  -1.862   4.651   7.093 -0.0580 -0.5525  0.8538
  322MOL0     O42407  -1.991   4.661   7.121  0.2328  0.1311  0.5621
  322MOL0     C42408  -2.030   4.647   7.259 -0.2966  0.1542 -0.2757
  322MOL0     C42409  -2.151   4.558   7.271  0.4576  0.6216  0.2535
  322MOL0     C42410  -2.172   4.519   7.417 -1.6320 -0.6634  0.2652
  322MOL0     C42411  -2.323   4.485   7.437  0.1516 -0.3035 -0.3467
  322MOL0     C42412  -2.374   4.358   7.367 -0.4946 -0.4132 -0.0302
  322MOL0     C42413  -2.527   4.351   7.375 -0.1745 -0.2548  0.5357
  322MOL0     C42414  -2.591   4.227   7.297 -0.4487 -0.3166  0.2623
  322MOL0     C42415  -2.724   4.179   7.366 -0.2105 -0.3976  0.2233
  322MOL0    Cl42416  -2.847   4.196   7.241 -0.4411 -0.2140 -0.2324
  322MOL0     C42417  -1.809   4.576   6.988  0.4185 -0.4941  0.0480
  322MOL0     C42418  -1.676   4.569   6.969 -0.1145 -0.1455 -0.1940
  322MOL0     O42419  -1.446   4.690   6.811 -0.0212  0.1235  0.1218
  322MOL0     C42420  -1.176   4.666   6.804  0.0268  0.8369  0.5270
  322MOL0     C42421  -1.037   4.670   6.803  0.5301  0.0150 -0.2623
  322MOL0     N42422  -0.236   4.564   6.726  0.0451  0.0821 -0.4662
  322MOL0     N42423  -0.134   4.613   6.784 -0.2521  0.0845 -0.2395
  322MOL0     C42424   0.643   5.641   6.791 -0.0870 -0.5394 -0.3619
  322MOL0     C42425   0.749   5.726   6.743 -0.8273  0.2173 -0.5443
  322MOL0     C42426   1.199   5.845   6.653 -0.2795 -0.0451  0.3645
  322MOL0     C42427   1.342   5.852   6.669  0.8578 -0.4056  0.2252
  322MOL0     C42428   1.425   5.879   6.564 -0.4828 -0.8163  0.4238
  322MOL0     C42429   1.374   5.917   6.442 -0.0645  0.6576  0.5696
  322MOL0     O42430   1.448   5.972   6.336 -0.6607  0.4677 -0.4315
  322MOL0     C42431   1.587   6.008   6.350 -0.1132  0.7630  0.0133
  322MOL0     C42432   1.685   5.928   6.269 -0.2056 -0.3307  0.0639
  322MOL0     C42433   1.742   5.798   6.337  0.7165 -0.9713 -0.7582
  322MOL0     C42434   1.875   5.760   6.258 -0.0951  0.1104  0.9917
  322MOL0     C42435   1.853   5.671   6.144 -0.5209 -0.5244  0.1252
  322MOL0     C42436   1.834   5.584   6.060  0.0127 -0.2436 -0.2468
  322MOL0     C42437   1.239   5.912   6.421 -0.2318 -0.7955 -0.1191
  322MOL0     C42438   1.147   5.882   6.528  0.0773  0.5767  0.3731
  322MOL0     H42439   1.016   5.575   6.889 -0.8251  0.3216  2.2580
  322MOL0     H42440   0.838   5.438   6.987  4.2616  2.5227  2.3419
  322MOL0     H42441   0.607   5.444   7.121 -1.3279 -2.0939  2.5860
  322MOL0     H42442   0.612   5.294   7.023 -0.9992 -1.2828  0.2829
  322MOL0     H42443   0.365   5.468   7.109  0.0645 -0.9310  0.1126
  322MOL0     H42444   0.412   5.303   7.173  0.6798  1.0338  1.1421
  322MOL0     H42445   0.407   5.230   6.936  1.0716  0.8287 -0.6281
  322MOL0     H42446   0.316   5.374   6.906  1.7929 -0.7089 -1.0243
  322MOL0     H42447   0.238   5.154   7.109  0.9214  1.1374  0.7082
  322MOL0     H42448   0.131   5.286   7.055  1.4503  1.1569 -1.0103
  322MOL0     H42449   0.254   5.055   6.903  0.0151  1.3586  1.6453
  322MOL0     H42450   0.152   5.185   6.824  1.6446 -1.0438 -2.4788
  322MOL0     H42451  -0.031   5.104   6.952 -0.2034 -0.2151 -2.0266
  322MOL0     H42452   0.083   4.984   7.036  0.9446 -2.4018 -1.4397
  322MOL0     H42453  -0.034   4.972   6.756 -1.0832 -0.1218  0.9669
  322MOL0     H42454   0.106   4.887   6.793  0.6204  1.4210 -0.7237
  322MOL0     H42455  -0.130   4.862   7.000  1.5818  1.6872 -0.1797
  322MOL0     H42456   0.004   4.763   6.972 -2.7339 -1.0709  1.9656
  322MOL0     H42457  -0.314   4.884   6.772  4.5885  2.4171 -0.7566
  322MOL0     H42458  -0.418   4.585   6.556  0.2496  0.2699 -0.1221
  322MOL0     H42459  -0.494   4.726   6.607 -0.3586 -0.5002 -1.6473
  322MOL0     H42460  -0.504   4.449   6.749 -0.3869  1.1956  0.0057
  322MOL0     H42461  -0.620   4.496   6.632  1.2128 -2.3694  0.5450
  322MOL0     H42462  -0.583   4.626   6.904  0.5141 -0.1315  0.6075
  322MOL0     H42463  -0.669   4.705   6.758  0.3997  0.5282  0.7560
  322MOL0     H42464  -0.743   4.456   6.904  0.0605  1.7569  1.5288
  322MOL0     H42465  -0.823   4.511   6.758 -1.0620 -0.7966  0.4574
  322MOL0     H42466  -0.985   4.663   7.148 -2.0324  2.3903  1.3942
  322MOL0     H42467  -1.224   4.635   7.149  2.1454 -1.5736  1.2206
  322MOL0     H42468  -1.568   4.772   7.223  0.4196 -0.4327  0.9898
  322MOL0     H42469  -1.811   4.784   7.249  1.8530 -0.2443  0.4876
  322MOL0     H42470  -2.059   4.749   7.288  3.6044  2.0302 -2.1863
  322MOL0     H42471  -1.944   4.616   7.318 -2.3330 -4.0354  0.8700
  322MOL0     H42472  -2.134   4.471   7.207 -1.7254  0.0959  0.3059
  322MOL0     H42473  -2.236   4.606   7.221  1.7592  1.1889 -1.5080
  322MOL0     H42474  -2.135   4.594   7.486  1.3982 -1.7607 -0.0280
  322MOL0     H42475  -2.106   4.433   7.433  1.8310  1.6047 -0.6514
  322MOL0     H42476  -2.329   4.468   7.545 -0.0312  2.1805  0.0959
  322MOL0     H42477  -2.385   4.573   7.417 -1.3572 -1.1634  0.3895
  322MOL0     H42478  -2.318   4.276   7.414 -2.4301 -0.7462  1.8483
  322MOL0     H42479  -2.352   4.364   7.260  0.5267 -1.1055  0.1233
  322MOL0     H42480  -2.565   4.441   7.325  2.8583  0.5526 -0.5471
  322MOL0     H42481  -2.559   4.351   7.480  0.3713 -1.8153  0.7157
  322MOL0     H42482  -2.596   4.244   7.189  0.5697  0.9364  0.3889
  322MOL0     H42483  -2.523   4.142   7.294 -2.2630 -1.8998 -3.8372
  322MOL0     H42484  -2.749   4.230   7.460 -2.2414  0.5347 -0.7363
  322MOL0     H42485  -2.715   4.074   7.394 -1.3708 -0.1094  1.7875
  322MOL0     H42486  -1.879   4.520   6.926  0.1008  1.5551 -1.5504
  322MOL0     H42487  -1.644   4.501   6.891 -1.3596 -0.3609 -0.5305
  322MOL0     H42488  -1.221   4.676   6.706  4.2526 -0.6641 -1.8411
  322MOL0     H42489  -0.983   4.692   6.712  0.8413 -3.1838 -0.9720
  322MOL0     H42490   0.544   5.657   6.748  0.2133 -1.4015 -1.4159
  322MOL0     H42491   0.737   5.802   6.667  2.3239  0.0840 -1.3194
  322MOL0     H42492   1.381   5.822   6.766  1.7801  0.1260  0.0348
  322MOL0     H42493   1.530   5.880   6.594 -0.0729 -1.0690 -0.8997
  322MOL0     H42494   1.632   6.006   6.450  3.9746  0.1106 -1.6366
  322MOL0     H42495   1.597   6.106   6.302  2.8205 -0.5984 -2.4784
  322MOL0     H42496   1.655   5.895   6.169  2.6075  0.0237 -1.0019
  322MOL0     H42497   1.764   6.002   6.255 -0.9467  1.0179  2.5551
  322MOL0     H42498   1.669   5.717   6.347 -1.3356  1.0314  1.7789
  322MOL0     H42499   1.771   5.823   6.439 -0.1073 -1.0884 -0.4894
  322MOL0     H42500   1.912   5.855   6.220 -0.3583 -0.5329 -1.0339
  322MOL0     H42501   1.956   5.718   6.318 -1.7384 -0.3197  3.0215
  322MOL0     H42502   1.810   5.496   6.004 -2.4000  0.7397 -0.8631
  322MOL0     H42503   1.207   5.955   6.326  2.8762  0.3711 -0.7412
  322MOL0     H42504   1.040   5.872   6.510  0.1764 -0.1593  0.1667
  323MOL0     O42505  10.248  10.354   4.962  0.1236 -0.2862  0.0293
  323MOL0     C42506  10.221  10.452   4.891 -0.3611  0.4834 -0.8231
  323MOL0     O42507  10.093  10.495   4.871  0.0069 -0.0541  0.2205
  323MOL0     C42508   9.988  10.454   4.950  0.7642 -0.5258 -0.1121
  323MOL0     C42509  10.007  10.413   5.091  0.5664  0.2472  0.1500
  323MOL0     C42510   9.898  10.365   5.160  0.0914  0.1704  0.4866
  323MOL0     C42511   9.762  10.368   5.116  0.0943  0.4502  0.4952
  323MOL0     O42512   9.660  10.313   5.189 -0.0784  0.6477  0.1951
  323MOL0     C42513   9.525  10.338   5.165  0.5228 -0.6696 -0.2775
  323MOL0     C42514   9.447  10.299   5.290 -0.7900 -0.2852 -0.6093
  323MOL0     C42515   9.303  10.347   5.267 -1.1376  1.3774 -0.1265
  323MOL0     C42516   9.235  10.320   5.406  0.2086  0.1614 -0.1358
  323MOL0     C42517   9.078  10.334   5.396 -1.9904  0.4566  0.7175
  323MOL0     C42518   9.008  10.353   5.530 -0.1023  0.0759 -0.8887
  323MOL0     C42519   8.995  10.220   5.607  0.3881  0.6534  0.1764
  323MOL0     C42520   8.848  10.180   5.652  0.2197 -0.2526  0.3664
  323MOL0     N42521   8.840  10.053   5.725 -0.1837  0.4664  0.5455
  323MOL0     C42522   8.934   9.960   5.767 -0.4565  0.2091 -0.8256
  323MOL0     C42523   8.874   9.871   5.850  0.0836  1.3349 -0.3661
  323MOL0     C42524   8.929   9.752   5.917  0.5854  0.2877  0.6522
  323MOL0     C42525   9.029   9.658   5.837  0.5273 -0.3847 -0.7097
  323MOL0     C42526   8.963   9.603   5.720  0.1777 -0.7284  0.4792
  323MOL0     C42527   9.043   9.506   5.633  1.0119 -0.1428 -0.0068
  323MOL0     O42528   9.181   9.541   5.629 -0.0123  0.0060  0.1867
  323MOL0     C42529   9.267   9.447   5.571  0.3942  0.0168  0.3847
  323MOL0     C42530   9.235   9.360   5.469  0.2831  0.3888 -0.3785
  323MOL0     C42531   9.336   9.282   5.401  0.1217  0.1462  0.2991
  323MOL0     C42532   9.468   9.278   5.445  1.3249 -0.6367 -0.4257
  323MOL0     C42533   9.558   9.180   5.387  0.3545 -0.9196 -0.3669
  323MOL0     O42534   9.494   9.073   5.314  0.2028 -0.1888 -0.6067
  323MOL0     C42535   9.568   8.963   5.265 -0.3090  0.1436 -0.2321
  323MOL0     C42536   9.691   8.976   5.215  0.3060  0.5666  0.8264
  323MOL0     C42537   9.762   8.863   5.183  0.4178 -0.2295 -0.6085
  323MOL0     C42538   9.716   8.734   5.195 -0.5505  0.1046  0.7512
  323MOL0     O42539   9.783   8.621   5.154 -0.1187  0.3079 -0.1634
  323MOL0     C42540   9.909   8.643   5.090  0.4034  0.5580  0.4876
  323MOL0     C42541   9.995   8.513   5.085 -0.8882 -0.3429  0.3795
  323MOL0     C42542  10.027   8.465   5.223 -0.0439  0.7073 -0.6171
  323MOL0     C42543  10.126   8.356   5.236  0.6868  0.4183  0.2145
  323MOL0     C42544  10.138   8.323   5.388  0.8957  0.0335 -0.4411
  323MOL0     C42545  10.267   8.244   5.421 -0.2800  0.0096 -0.0957
  323MOL0     C42546  10.298   8.221   5.569 -0.1263 -0.1124 -0.0565
  323MOL0     C42547  10.378   8.342   5.618  0.5141  0.4803 -0.6776
  323MOL0    Cl42548  10.432   8.342   5.777  0.1668  0.0069  0.1460
  323MOL0     C42549   9.589   8.729   5.267 -0.4621 -0.3597 -0.7443
  323MOL0     C42550   9.518   8.842   5.307  0.4636  0.2712  0.7412
  323MOL0     O42551   9.674   9.193   5.408  0.2128 -0.1968 -0.2769
  323MOL0     C42552   9.495   9.359   5.559 -0.1123 -0.0799  0.4799
  323MOL0     C42553   9.401   9.446   5.613 -0.4977  0.6158  1.3174
  323MOL0     N42554   8.748   9.921   5.859  0.2521 -0.1201  0.1107
  323MOL0     N42555   8.721  10.019   5.785  0.3788 -0.7094 -0.2795
  323MOL0     C42556   9.740  10.428   4.989 -0.8397 -0.8558 -0.5305
  323MOL0     C42557   9.852  10.459   4.901 -1.1116 -0.4716 -0.1483
  323MOL0     C42558  10.337  10.512   4.824 -0.6121  0.4045 -0.1424
  323MOL0     C42559  10.460  10.448   4.838 -0.5111  0.2111  0.0998
  323MOL0     C42560  10.570  10.510   4.782  0.1549  0.8491 -0.8212
  323MOL0     C42561  10.564  10.633   4.706  0.3920  0.3302  0.0191
  323MOL0     O42562  10.683  10.685   4.652 -0.9715 -0.4523 -0.6497
  323MOL0     C42563  10.667  10.773   4.539 -1.0864  0.5154 -0.3731
  323MOL0     C42564  10.805  10.783   4.476 -0.7949  0.1380  0.0620
  323MOL0     C42565  10.856  10.658   4.394  0.6529  0.1161 -0.0641
  323MOL0     C42566  10.991  10.679   4.325 -0.0335 -0.2089  0.1644
  323MOL0     C42567  11.103  10.717   4.413  0.4216 -0.0424 -0.1686
  323MOL0     C42568  11.188  10.733   4.500 -0.5726  0.4730 -0.0309
  323MOL0     C42569  10.438  10.693   4.690  0.6637 -0.2733  0.9688
  323MOL0     C42570  10.325  10.631   4.751  0.1765 -0.0209  0.5827
  323MOL0     H42571  10.102  10.416   5.143  0.3429 -2.9272  0.9571
  323MOL0     H42572   9.921  10.324   5.258  2.1648  1.1886  0.4812
  323MOL0     H42573   9.488  10.297   5.071  2.3349 -0.7264 -1.0164
  323MOL0     H42574   9.518  10.447   5.158 -2.3096 -0.8336 -1.3451
  323MOL0     H42575   9.497  10.343   5.377 -1.8868  0.0631 -0.1331
  323MOL0     H42576   9.459  10.192   5.311 -0.1295 -0.3430 -1.2606
  323MOL0     H42577   9.263  10.297   5.178 -2.1320  1.6323  0.1693
  323MOL0     H42578   9.309  10.453   5.241  2.5319  1.3561 -0.0062
  323MOL0     H42579   9.252  10.215   5.428 -2.4271 -0.7539 -1.9103
  323MOL0     H42580   9.280  10.385   5.482 -1.4477  1.9151 -0.5697
  323MOL0     H42581   9.042  10.255   5.329  2.9821 -0.9598 -0.7455
  323MOL0     H42582   9.062  10.434   5.355  1.8906  1.2168  0.7007
  323MOL0     H42583   8.912  10.401   5.512 -0.5194 -1.1097 -2.0334
  323MOL0     H42584   9.058  10.429   5.590 -0.7240 -1.7940  2.2143
  323MOL0     H42585   9.039  10.133   5.558 -0.0155  0.6659 -0.2126
  323MOL0     H42586   9.050  10.252   5.696  1.2214  1.2679 -0.5400
  323MOL0     H42587   8.793  10.185   5.558  0.4323 -5.1504 -0.2676
  323MOL0     H42588   8.808  10.256   5.720  1.0910 -1.0873  1.8844
  323MOL0     H42589   9.038   9.964   5.735 -0.6925  0.4083 -1.5927
  323MOL0     H42590   8.851   9.696   5.971  2.6150 -1.6368  1.7862
  323MOL0     H42591   8.993   9.784   6.000  1.7837  0.6093 -0.3661
  323MOL0     H42592   9.056   9.575   5.903 -3.2016  0.5533  2.4486
  323MOL0     H42593   9.110   9.721   5.799  0.4246  0.9688  1.1525
  323MOL0     H42594   8.867   9.556   5.739 -0.4661  0.0649 -0.6577
  323MOL0     H42595   8.959   9.697   5.663  0.7608 -0.0068  1.5820
  323MOL0     H42596   8.999   9.505   5.533  1.6428 -1.2348 -0.2735
  323MOL0     H42597   9.028   9.404   5.670 -0.6401  0.4226  1.0316
  323MOL0     H42598   9.132   9.357   5.434 -0.4910 -2.1730  1.7802
  323MOL0     H42599   9.303   9.230   5.312  0.0242 -0.1469  0.5053
  323MOL0     H42600   9.740   9.070   5.190  0.5063 -0.1733 -1.8571
  323MOL0     H42601   9.858   8.878   5.135  1.8373 -2.0085  1.4673
  323MOL0     H42602   9.968   8.721   5.140 -1.4843  3.0048 -0.8930
  323MOL0     H42603   9.895   8.683   4.989 -1.0082 -0.0758  0.4092
  323MOL0     H42604  10.088   8.532   5.030 -0.1100 -1.6731  1.1760
  323MOL0     H42605   9.941   8.434   5.033  1.8816 -2.0949 -0.0457
  323MOL0     H42606   9.930   8.423   5.254  0.1618 -0.6227 -1.6683
  323MOL0     H42607  10.051   8.551   5.286 -2.3866 -0.5018  2.1463
  323MOL0     H42608  10.085   8.264   5.193  0.3516  0.3998  0.5666
  323MOL0     H42609  10.219   8.383   5.186  0.5307  1.6272  0.5284
  323MOL0     H42610  10.057   8.254   5.414  1.8306 -1.1271 -0.4851
  323MOL0     H42611  10.127   8.410   5.454 -0.8844  0.1781 -0.8834
  323MOL0     H42612  10.357   8.283   5.370  0.6954 -0.3211  1.3207
  323MOL0     H42613  10.241   8.148   5.377  1.9121 -1.4543  1.6005
  323MOL0     H42614  10.208   8.213   5.629  0.6674  1.9466  1.5188
  323MOL0     H42615  10.358   8.130   5.576 -1.4017 -0.9002  1.2227
  323MOL0     H42616  10.328   8.436   5.597  1.9877  1.6572  0.8002
  323MOL0     H42617  10.472   8.344   5.561  2.2462  2.4086  2.0019
  323MOL0     H42618   9.559   8.625   5.279  0.0780 -0.6973 -2.0877
  323MOL0     H42619   9.425   8.840   5.363 -0.5768  3.6835 -0.6144
  323MOL0     H42620   9.600   9.363   5.587 -0.2554  0.8011  0.9106
  323MOL0     H42621   9.420   9.507   5.701 -1.6941  0.4114  1.7246
  323MOL0     H42622   9.640  10.422   4.948 -1.7344  0.8437  1.2591
  323MOL0     H42623   9.829  10.471   4.796 -0.8643  0.3071 -0.1189
  323MOL0     H42624  10.480  10.355   4.890  2.7489 -1.0534 -3.0276
  323MOL0     H42625  10.669  10.476   4.808 -0.1904  1.3083  1.2537
  323MOL0     H42626  10.633  10.875   4.557  0.5337  1.4046 -1.9569
  323MOL0     H42627  10.595  10.726   4.471 -2.2888  0.5417  0.8423
  323MOL0     H42628  10.804  10.870   4.410 -1.3385 -1.2592 -1.8592
  323MOL0     H42629  10.881  10.799   4.553  1.1379 -0.1539 -1.7238
  323MOL0     H42630  10.780  10.629   4.321 -1.5801  0.9122  1.8216
  323MOL0     H42631  10.874  10.576   4.464  1.8374 -0.3150 -0.8387
  323MOL0     H42632  11.011  10.595   4.258  0.0252  0.7285 -1.0209
  323MOL0     H42633  10.977  10.767   4.262  0.1058 -1.5009 -1.7600
  323MOL0     H42634  11.277  10.748   4.558  0.1099  0.3369 -1.0228
  323MOL0     H42635  10.426  10.782   4.629 -2.7384  0.0592  1.8993
  323MOL0     H42636  10.227  10.678   4.751  0.4481  0.5755  1.8476
  324MOL0     O42637   6.677   3.776   4.254  0.1238  0.0310  0.0038
  324MOL0     C42638   6.684   3.773   4.136  0.0646  0.9087  0.0597
  324MOL0     O42639   6.589   3.814   4.047  0.5854 -0.4464  0.0058
  324MOL0     C42640   6.470   3.872   4.094  0.1308  0.1776 -0.7293
  324MOL0     C42641   6.423   3.983   4.030  0.7800  0.1919 -0.8827
  324MOL0     C42642   6.302   4.050   4.059  0.6938  0.4005  1.2381
  324MOL0     C42643   6.222   3.989   4.159  0.0481  0.8335  0.4248
  324MOL0     O42644   6.102   4.046   4.192  0.0669  0.1628 -0.5863
  324MOL0     C42645   6.013   3.981   4.281  0.0640  0.8783 -0.8948
  324MOL0     C42646   5.879   4.050   4.274 -0.2833  0.2426  0.2505
  324MOL0     C42647   5.807   4.041   4.142 -0.3579  0.5744  0.0796
  324MOL0     C42648   5.670   4.109   4.134  0.1465 -0.5605 -0.2425
  324MOL0     C42649   5.620   4.114   3.984  0.1408 -0.2531 -0.8000
  324MOL0     C42650   5.486   4.206   3.987  0.2494  0.0454 -0.1217
  324MOL0     C42651   5.451   4.221   3.832  0.4737 -0.0176 -0.5597
  324MOL0     C42652   5.374   4.104   3.767 -0.4728 -0.2349 -0.2594
  324MOL0     N42653   5.230   4.116   3.786  1.0695  0.0510 -0.3968
  324MOL0     C42654   5.163   4.189   3.880  0.4258  0.3519  1.3219
  324MOL0     C42655   5.036   4.184   3.838  0.2641  0.2863  0.6675
  324MOL0     C42656   4.924   4.254   3.909  0.3584  0.0529 -0.1709
  324MOL0     C42657   4.895   4.203   4.050 -0.9806  0.0006  0.3712
  324MOL0     C42658   4.801   4.291   4.126  0.4536  0.8241 -0.5729
  324MOL0     C42659   4.692   4.355   4.044 -0.2823 -0.1707  0.0785
  324MOL0     O42660   4.593   4.427   4.126  0.3915 -0.1716 -0.8201
  324MOL0     C42661   4.458   4.435   4.088 -0.3488 -0.7047  0.0399
  324MOL0     C42662   4.361   4.493   4.176  0.0321  0.8221 -0.4260
  324MOL0     C42663   4.223   4.492   4.139 -0.8624  0.1892 -0.5330
  324MOL0     C42664   4.179   4.448   4.018 -0.5665  0.8668  0.0111
  324MOL0     C42665   4.035   4.451   3.990 -0.5823 -0.3532 -0.5299
  324MOL0     O42666   3.951   4.467   4.097 -0.2091 -0.1791  0.5416
  324MOL0     C42667   3.817   4.481   4.078  0.0842 -0.5489  0.3379
  324MOL0     C42668   3.746   4.507   3.959  0.6275 -0.1720  0.0773
  324MOL0     C42669   3.605   4.507   3.954 -0.5111  0.4120  0.6887
  324MOL0     C42670   3.521   4.488   4.067  0.0065 -0.4564 -0.1500
  324MOL0     O42671   3.386   4.493   4.070  0.1710 -0.1143 -0.6388
  324MOL0     C42672   3.319   4.554   3.956  0.2856 -0.2119  0.7624
  324MOL0     C42673   3.168   4.563   3.997 -0.1288 -0.7605  1.2655
  324MOL0     C42674   3.076   4.605   3.881 -0.4428  0.2904  0.0767
  324MOL0     C42675   2.926   4.581   3.911  0.2233 -0.7999 -0.4704
  324MOL0     C42676   2.833   4.703   3.900  0.0205 -0.5750  0.7653
  324MOL0     C42677   2.693   4.653   3.869 -1.3231 -0.2198  0.1133
  324MOL0     C42678   2.597   4.782   3.860 -1.0848  0.2393  0.6328
  324MOL0     C42679   2.455   4.743   3.810  0.0907  0.1648  0.1325
  324MOL0    Cl42680   2.364   4.894   3.815  0.1473  0.2232  0.2712
  324MOL0     C42681   3.589   4.450   4.182  0.1218 -1.4959 -0.1717
  324MOL0     C42682   3.732   4.456   4.189 -0.1550 -0.4441  0.1736
  324MOL0     O42683   4.006   4.413   3.877  0.0878 -0.0775  0.8748
  324MOL0     C42684   4.273   4.390   3.926  0.4739 -0.7498  0.1377
  324MOL0     C42685   4.408   4.389   3.962  0.1234 -0.3750 -0.2618
  324MOL0     N42686   5.030   4.112   3.722  0.3261  0.6718  0.4053
  324MOL0     N42687   5.143   4.068   3.691 -0.3516 -0.2155  0.2285
  324MOL0     C42688   6.260   3.868   4.217  0.2703 -0.5737 -0.0942
  324MOL0     C42689   6.385   3.819   4.191 -0.6727  0.4239  0.7386
  324MOL0     C42690   6.806   3.722   4.076  0.0268  0.6805 -0.9827
  324MOL0     C42691   6.913   3.687   4.160 -0.1933 -0.2924  0.0300
  324MOL0     C42692   7.026   3.631   4.114 -0.4254  0.9251  0.2775
  324MOL0     C42693   7.064   3.625   3.972 -0.0257  0.1850 -0.5097
  324MOL0     O42694   7.184   3.578   3.917  0.1791  0.2746  0.4451
  324MOL0     C42695   7.287   3.524   3.997 -0.9387  0.3105  0.2504
  324MOL0     C42696   7.408   3.500   3.906  0.1743 -0.0842 -0.4228
  324MOL0     C42697   7.518   3.441   3.992  0.1176  1.0197  0.1835
  324MOL0     C42698   7.622   3.353   3.917 -0.2387  0.2637 -1.2457
  324MOL0     C42699   7.560   3.233   3.857 -0.2321  0.2568 -0.1464
  324MOL0     C42700   7.505   3.132   3.800  0.0212 -0.3688  0.4426
  324MOL0     C42701   6.961   3.655   3.887  0.2016 -1.0546 -0.3877
  324MOL0     C42702   6.831   3.709   3.940  0.2953 -0.3135  0.6585
  324MOL0     H42703   6.481   4.021   3.947  0.9521 -0.7866 -1.2176
  324MOL0     H42704   6.268   4.142   4.012 -0.7362  0.8219  2.9958
  324MOL0     H42705   6.054   3.970   4.382 -0.6821  1.2396 -0.5411
  324MOL0     H42706   6.001   3.881   4.238 -0.3439  1.1582 -1.4494
  324MOL0     H42707   5.901   4.154   4.300  1.2832 -0.2346  0.9694
  324MOL0     H42708   5.808   4.017   4.351  0.0652  2.4561  1.5912
  324MOL0     H42709   5.805   3.937   4.107  0.2342  0.8242 -0.7374
  324MOL0     H42710   5.872   4.089   4.069  0.9507 -1.5616 -0.2610
  324MOL0     H42711   5.605   4.048   4.197  0.1255 -1.2370 -0.9065
  324MOL0     H42712   5.676   4.213   4.167  0.3683 -0.5254 -0.3830
  324MOL0     H42713   5.609   4.011   3.948 -0.7414 -0.0547 -1.1196
  324MOL0     H42714   5.694   4.159   3.918  0.3140 -0.4216 -0.7236
  324MOL0     H42715   5.486   4.307   4.031 -0.0327 -0.5576  1.3035
  324MOL0     H42716   5.433   4.134   4.050  2.2387 -1.3623  0.0321
  324MOL0     H42717   5.386   4.308   3.835 -0.1490 -0.5021  0.4295
  324MOL0     H42718   5.539   4.253   3.775  1.7173  0.8854  1.7023
  324MOL0     H42719   5.414   4.007   3.799  1.2254 -0.0756 -1.7593
  324MOL0     H42720   5.406   4.111   3.663  2.5361  3.7802  0.6773
  324MOL0     H42721   5.198   4.231   3.973  0.9777  2.2663  0.3009
  324MOL0     H42722   4.837   4.243   3.844 -1.4853 -0.6002  2.2864
  324MOL0     H42723   4.957   4.358   3.921  4.3774 -1.0990  0.2841
  324MOL0     H42724   4.989   4.202   4.107  0.0423  2.1115 -1.1428
  324MOL0     H42725   4.850   4.103   4.056 -0.5654 -0.2640 -0.5908
  324MOL0     H42726   4.754   4.225   4.200  1.4605 -0.3239 -0.9150
  324MOL0     H42727   4.854   4.374   4.174 -0.0821  0.2392  1.0938
  324MOL0     H42728   4.644   4.270   3.994 -1.2835 -1.4212  2.9321
  324MOL0     H42729   4.743   4.425   3.977  1.0887  0.3199  1.5767
  324MOL0     H42730   4.391   4.529   4.274  1.6227 -0.8822 -0.2269
  324MOL0     H42731   4.159   4.527   4.219  1.2322 -3.4199  3.1338
  324MOL0     H42732   3.796   4.528   3.865 -2.0379  0.3263 -1.3106
  324MOL0     H42733   3.553   4.523   3.861 -3.8142 -1.6461  1.9829
  324MOL0     H42734   3.332   4.477   3.880 -1.7529 -0.9576  1.1164
  324MOL0     H42735   3.358   4.648   3.917 -0.2774 -0.6221 -0.8333
  324MOL0     H42736   3.150   4.640   4.072 -0.5404 -1.1075  1.5279
  324MOL0     H42737   3.131   4.473   4.048 -0.8780 -1.1414  0.1028
  324MOL0     H42738   3.099   4.540   3.796 -4.3366  0.7619 -1.5387
  324MOL0     H42739   3.097   4.708   3.852  1.2366  0.7468  2.5253
  324MOL0     H42740   2.895   4.506   3.837 -0.3190 -0.0321 -1.0482
  324MOL0     H42741   2.918   4.541   4.012  1.7128  1.4123  0.5915
  324MOL0     H42742   2.866   4.760   3.812 -1.2941  0.6827  1.0313
  324MOL0     H42743   2.837   4.771   3.986 -1.3745  1.2588 -0.5348
  324MOL0     H42744   2.659   4.579   3.941 -4.2700  1.5902  0.7525
  324MOL0     H42745   2.698   4.610   3.768  0.4343 -0.6576  0.3633
  324MOL0     H42746   2.603   4.841   3.952  1.9048  0.5968  0.3251
  324MOL0     H42747   2.650   4.843   3.785  1.8129 -1.3165  1.2425
  324MOL0     H42748   2.415   4.665   3.876  0.3393 -0.5187 -0.5167
  324MOL0     H42749   2.462   4.703   3.709  2.2420 -0.7867  0.5861
  324MOL0     H42750   3.520   4.431   4.264 -1.4813  0.5489 -0.9576
  324MOL0     H42751   3.784   4.425   4.279 -0.6982 -1.3689  0.1886
  324MOL0     H42752   4.238   4.357   3.828 -1.4486 -1.4129  0.9982
  324MOL0     H42753   4.479   4.357   3.886 -1.8435 -1.7933 -1.6301
  324MOL0     H42754   6.196   3.807   4.280  1.0017  1.3639  2.7524
  324MOL0     H42755   6.416   3.723   4.232 -0.2588  0.3033  0.1620
  324MOL0     H42756   6.902   3.702   4.267 -2.0574 -0.1693 -0.1541
  324MOL0     H42757   7.106   3.601   4.182  0.2488 -0.2952 -0.9976
  324MOL0     H42758   7.250   3.431   4.042  2.1532 -0.1684  2.0858
  324MOL0     H42759   7.307   3.601   4.072 -4.1720 -0.0447  1.6474
  324MOL0     H42760   7.391   3.434   3.821 -2.7062 -0.1378  0.1039
  324MOL0     H42761   7.451   3.593   3.866 -0.8658  0.7735  0.4061
  324MOL0     H42762   7.482   3.388   4.081 -2.2591  1.5224 -0.4144
  324MOL0     H42763   7.568   3.528   4.038  1.4402  0.1394  0.4557
  324MOL0     H42764   7.675   3.415   3.843  0.1586  2.8569  1.0648
  324MOL0     H42765   7.698   3.323   3.990 -4.1245 -2.4964  2.0904
  324MOL0     H42766   7.461   3.054   3.742 -2.8001  1.9017 -0.7351
  324MOL0     H42767   6.975   3.639   3.781 -0.4271  0.7153 -0.7827
  324MOL0     H42768   6.764   3.733   3.858  0.3641 -0.8255  0.4464
  325MOL0     O42769   0.309   7.878   6.452 -0.1890 -0.0835 -0.3379
  325MOL0     C42770   0.272   7.910   6.563  0.8646  0.1999  0.4966
  325MOL0     O42771   0.138   7.889   6.605 -0.4793 -0.1202 -0.4616
  325MOL0     C42772   0.047   7.826   6.526  0.2755 -0.4881  0.5690
  325MOL0     C42773  -0.079   7.827   6.579 -0.2513 -0.1716 -0.8467
  325MOL0     C42774  -0.191   7.770   6.527 -0.2948 -1.2860  0.5148
  325MOL0     C42775  -0.183   7.704   6.410 -0.5873 -0.1519 -0.6327
  325MOL0     O42776  -0.287   7.645   6.339 -0.6630  0.0390 -0.0324
  325MOL0     C42777  -0.410   7.633   6.401  1.3049  0.5655  0.4949
  325MOL0     C42778  -0.430   7.506   6.487  0.1767  0.2821  0.3387
  325MOL0     C42779  -0.430   7.376   6.402  0.1487 -0.1351  0.4495
  325MOL0     C42780  -0.570   7.338   6.335  0.2103  0.9523  0.4422
  325MOL0     C42781  -0.613   7.414   6.213 -0.3167  0.4401 -0.0585
  325MOL0     C42782  -0.670   7.336   6.091  0.9305  0.0856  0.2414
  325MOL0     C42783  -0.797   7.255   6.135 -0.0445  0.4319  0.1357
  325MOL0     C42784  -0.772   7.130   6.224  0.5326  0.0727  0.4922
  325MOL0     N42785  -0.885   7.029   6.223  0.3521 -0.5817 -0.1540
  325MOL0     C42786  -1.015   7.057   6.272 -0.9816 -0.1148 -0.4431
  325MOL0     C42787  -1.081   6.946   6.236 -0.2835  0.5119 -0.0799
  325MOL0     C42788  -1.228   6.928   6.274 -0.3045  0.4781  0.7364
  325MOL0     C42789  -1.295   6.799   6.218 -0.8464 -0.2197 -0.6054
  325MOL0     C42790  -1.358   6.824   6.082  0.7628  0.3676  0.1849
  325MOL0     C42791  -1.482   6.737   6.062  0.7770  0.3510  0.0853
  325MOL0     O42792  -1.578   6.779   5.965  0.1802 -0.0010 -0.5968
  325MOL0     C42793  -1.693   6.703   5.950 -0.6925  0.7870  0.5216
  325MOL0     C42794  -1.791   6.760   5.865  0.3463  1.4180  0.2765
  325MOL0     C42795  -1.926   6.705   5.863 -0.0827  0.3293 -0.2589
  325MOL0     C42796  -1.966   6.606   5.939 -0.2573  0.6178 -0.2598
  325MOL0     C42797  -2.109   6.570   5.937  0.5694 -0.2770  0.5103
  325MOL0     O42798  -2.203   6.651   5.869 -0.0922  0.3969 -0.2443
  325MOL0     C42799  -2.315   6.601   5.816 -0.7387  0.4038 -0.9272
  325MOL0     C42800  -2.335   6.472   5.772  0.0817  0.0531 -0.2411
  325MOL0     C42801  -2.452   6.421   5.724  0.0722 -0.3050 -0.4781
  325MOL0     C42802  -2.561   6.501   5.715 -0.5427  0.0311 -0.3950
  325MOL0     O42803  -2.676   6.429   5.691 -0.1606  1.2905  0.1380
  325MOL0     C42804  -2.797   6.497   5.721  0.5295 -0.7187  0.8295
  325MOL0     C42805  -2.905   6.391   5.717  0.1995  0.7884  0.4606
  325MOL0     C42806  -3.031   6.442   5.761  0.1048 -1.1160  0.2530
  325MOL0     C42807  -3.156   6.349   5.748 -0.1390 -0.3000 -0.4454
  325MOL0     C42808  -3.275   6.440   5.732  0.8076  0.1303  0.0806
  325MOL0     C42809  -3.409   6.369   5.748 -0.0660  0.5551 -0.4029
  325MOL0     C42810  -3.526   6.447   5.678  0.0148  0.9997 -0.6645
  325MOL0     C42811  -3.656   6.360   5.674 -0.4579  0.3582 -0.2731
  325MOL0    Cl42812  -3.701   6.303   5.838 -0.4938 -0.0943 -0.5192
  325MOL0     C42813  -2.550   6.638   5.753 -0.3757 -0.5797 -0.1714
  325MOL0     C42814  -2.430   6.687   5.811 -0.0795  0.4872  0.4124
  325MOL0     O42815  -2.130   6.468   6.001  0.4816  0.3701 -0.1955
  325MOL0     C42816  -1.865   6.548   6.020  0.0146 -1.3259  0.1202
  325MOL0     C42817  -1.728   6.594   6.027  0.0827 -0.0000 -0.1944
  325MOL0     N42818  -0.999   6.847   6.172  0.2924 -0.0482  0.2906
  325MOL0     N42819  -0.882   6.908   6.164  0.2696 -0.3064  0.5253
  325MOL0     C42820  -0.061   7.693   6.348  0.7895  0.3375  0.0621
  325MOL0     C42821   0.055   7.762   6.403 -0.9715  0.7525  0.0078
  325MOL0     C42822   0.361   7.970   6.661 -0.0288  0.4271  0.0253
  325MOL0     C42823   0.319   8.006   6.792  0.4521 -0.2808 -0.2938
  325MOL0     C42824   0.417   8.038   6.888  0.1305 -0.1751  0.0531
  325MOL0     C42825   0.550   8.042   6.861 -1.0231  1.2853  0.6704
  325MOL0     O42826   0.646   8.047   6.959  1.4145 -0.1222 -0.6517
  325MOL0     C42827   0.735   8.159   6.945  0.4761  0.0972  0.4923
  325MOL0     C42828   0.871   8.106   6.990 -0.4461  0.3729 -0.7453
  325MOL0     C42829   0.992   8.201   6.956  0.1038  0.4246  0.6096
  325MOL0     C42830   1.080   8.152   6.851  0.0238  1.0501  0.5693
  325MOL0     C42831   1.009   8.140   6.722  0.1244  0.8321 -0.4956
  325MOL0     C42832   0.953   8.130   6.615 -1.2134  0.3818  1.2608
  325MOL0     C42833   0.587   8.016   6.728  0.1080  0.3811 -0.3182
  325MOL0     C42834   0.492   7.981   6.627  0.0172 -0.6479 -0.2052
  325MOL0     H42835  -0.085   7.896   6.663 -1.3022  0.0031 -1.0540
  325MOL0     H42836  -0.279   7.780   6.590 -0.8215  1.9320 -0.5495
  325MOL0     H42837  -0.481   7.633   6.317  1.8952 -0.3620 -0.0203
  325MOL0     H42838  -0.440   7.727   6.449  1.5910  1.0279 -0.2157
  325MOL0     H42839  -0.525   7.508   6.542 -0.0711 -1.8882  0.0624
  325MOL0     H42840  -0.351   7.493   6.561 -0.2055  0.9609  0.8858
  325MOL0     H42841  -0.400   7.290   6.462  1.4748 -0.2247 -0.3089
  325MOL0     H42842  -0.353   7.377   6.324 -2.2356 -1.3758 -2.1052
  325MOL0     H42843  -0.557   7.238   6.294 -2.7144  0.3024  0.8849
  325MOL0     H42844  -0.659   7.337   6.400 -1.5410  1.9288 -1.8089
  325MOL0     H42845  -0.526   7.469   6.175  1.2412 -0.5204  1.9777
  325MOL0     H42846  -0.690   7.485   6.244 -0.5013  0.8553 -1.3882
  325MOL0     H42847  -0.591   7.278   6.042 -1.0607 -1.0123 -1.8705
  325MOL0     H42848  -0.706   7.405   6.015 -4.0571 -2.4470 -0.0760
  325MOL0     H42849  -0.885   7.313   6.165 -1.6966 -1.6505 -0.4548
  325MOL0     H42850  -0.821   7.205   6.042  1.2455 -2.1439  1.0977
  325MOL0     H42851  -0.782   7.174   6.324 -1.8643  3.1530 -0.9227
  325MOL0     H42852  -0.681   7.074   6.200  0.9221  1.1574 -0.7239
  325MOL0     H42853  -1.055   7.142   6.326  0.0568  0.5326 -0.6513
  325MOL0     H42854  -1.277   7.018   6.235  0.5176  0.1267 -1.2062
  325MOL0     H42855  -1.235   6.942   6.383  0.9377 -0.8967  1.0165
  325MOL0     H42856  -1.374   6.772   6.289 -1.7486  1.4426 -0.9223
  325MOL0     H42857  -1.221   6.719   6.207  0.7315  0.7570  1.8858
  325MOL0     H42858  -1.388   6.929   6.081 -3.9600 -0.7445  1.0098
  325MOL0     H42859  -1.280   6.818   6.006  0.1723 -0.2419 -0.3897
  325MOL0     H42860  -1.539   6.726   6.155 -0.1759 -2.8797 -0.7597
  325MOL0     H42861  -1.450   6.638   6.030 -2.3133 -0.1396 -1.9570
  325MOL0     H42862  -1.754   6.844   5.809 -1.0524  2.5721  1.0023
  325MOL0     H42863  -1.991   6.753   5.791 -2.7233 -1.9137  0.4848
  325MOL0     H42864  -2.245   6.412   5.761 -1.5532 -2.1332 -2.7514
  325MOL0     H42865  -2.462   6.313   5.717 -1.2851 -0.1215 -1.9956
  325MOL0     H42866  -2.820   6.575   5.648 -1.9575 -0.4623  1.8105
  325MOL0     H42867  -2.792   6.544   5.819  1.2599  0.3281  0.3137
  325MOL0     H42868  -2.875   6.305   5.777  2.5189  0.5911 -0.8708
  325MOL0     H42869  -2.926   6.357   5.616  0.4934  0.0601  0.6401
  325MOL0     H42870  -3.042   6.534   5.702  0.5099 -1.5174 -0.4697
  325MOL0     H42871  -3.017   6.479   5.863  1.4752  1.3625 -0.7290
  325MOL0     H42872  -3.136   6.281   5.665 -0.4739 -2.2704  1.0197
  325MOL0     H42873  -3.175   6.293   5.840  1.2368 -0.9677 -0.5511
  325MOL0     H42874  -3.269   6.490   5.635 -1.2459 -0.1149 -0.2061
  325MOL0     H42875  -3.273   6.517   5.809 -3.2853 -1.2623  1.8858
  325MOL0     H42876  -3.440   6.353   5.851 -2.6424 -0.8420 -1.3014
  325MOL0     H42877  -3.381   6.271   5.709  1.6644 -0.3973  2.8627
  325MOL0     H42878  -3.541   6.535   5.741  0.8253 -0.2158  1.3442
  325MOL0     H42879  -3.495   6.485   5.581 -2.0242 -0.8958 -2.1416
  325MOL0     H42880  -3.644   6.278   5.602 -0.6234  0.7006 -0.6988
  325MOL0     H42881  -3.746   6.414   5.644 -1.4518 -0.6609  0.8323
  325MOL0     H42882  -2.642   6.695   5.752 -1.2234 -1.9235 -0.6299
  325MOL0     H42883  -2.406   6.790   5.831 -0.1336  0.8902 -1.4250
  325MOL0     H42884  -1.889   6.484   6.104  0.5678  0.6644  1.8525
  325MOL0     H42885  -1.681   6.540   6.108  1.0793  1.3004  0.1395
  325MOL0     H42886  -0.065   7.631   6.259  1.5752 -1.2931  1.1009
  325MOL0     H42887   0.146   7.750   6.346 -0.2150  2.6180  0.7344
  325MOL0     H42888   0.213   7.998   6.817  0.3465  1.5940 -0.0413
  325MOL0     H42889   0.374   8.061   6.985  1.0869 -1.6465  0.8656
  325MOL0     H42890   0.695   8.236   7.013  0.1563  0.1015  0.3026
  325MOL0     H42891   0.752   8.207   6.848 -1.2161  0.4803  0.3458
  325MOL0     H42892   0.876   8.082   7.096 -3.8827 -0.3676 -0.6467
  325MOL0     H42893   0.903   8.014   6.941  2.8168  0.7491  0.4261
  325MOL0     H42894   1.057   8.239   7.035  2.3846 -0.7693 -0.6194
  325MOL0     H42895   0.960   8.298   6.916  2.2580  0.4164 -1.2627
  325MOL0     H42896   1.167   8.218   6.842  0.1087  0.6497 -3.5564
  325MOL0     H42897   1.117   8.054   6.880 -3.0171 -0.1397  0.8239
  325MOL0     H42898   0.912   8.102   6.520  2.8804 -0.0372 -0.5648
  325MOL0     H42899   0.690   7.997   6.700  0.6127 -1.7624  2.5412
  325MOL0     H42900   0.537   7.934   6.540  1.9053 -1.3306  1.0620
  326MOL0     O42901   4.881  10.649   1.560  0.4039  1.0766  0.0831
  326MOL0     C42902   4.824  10.581   1.644  0.5473  0.2868  0.6559
  326MOL0     O42903   4.700  10.515   1.620 -0.0622  0.0426 -0.3818
  326MOL0     C42904   4.636  10.523   1.500 -0.4906  0.5840  0.7418
  326MOL0     C42905   4.640  10.415   1.409 -0.9174 -0.3610 -0.9376
  326MOL0     C42906   4.568  10.428   1.291  0.6936  1.3631  0.4391
  326MOL0     C42907   4.487  10.539   1.276  0.6514 -0.4664 -0.3435
  326MOL0     O42908   4.403  10.553   1.167  0.4247 -0.0580 -0.4659
  326MOL0     C42909   4.424  10.484   1.046  0.3645  0.4298  0.0982
  326MOL0     C42910   4.334  10.530   0.930 -0.3196 -0.6528 -0.5304
  326MOL0     C42911   4.202  10.457   0.920 -0.0295 -0.0207 -0.8885
  326MOL0     C42912   4.098  10.507   0.822  0.6229  0.9707 -0.0870
  326MOL0     C42913   3.969  10.410   0.826 -0.1297 -1.0180  0.0609
  326MOL0     C42914   3.894  10.442   0.707 -0.3791 -0.0018  0.2893
  326MOL0     C42915   3.774  10.350   0.691  0.2823  0.7426  0.2109
  326MOL0     C42916   3.689  10.407   0.573 -0.0944 -0.2674  0.5948
  326MOL0     N42917   3.564  10.342   0.562  1.0699 -0.2644 -0.5401
  326MOL0     C42918   3.440  10.398   0.546 -0.6753 -0.1415 -0.1842
  326MOL0     C42919   3.345  10.291   0.525 -0.8117 -1.1963  0.5786
  326MOL0     C42920   3.187  10.299   0.524  0.1055 -0.6189  0.4746
  326MOL0     C42921   3.117  10.278   0.389  0.5788 -0.1715 -0.8584
  326MOL0     C42922   3.155  10.140   0.324  0.0357 -0.1974 -1.1053
  326MOL0     C42923   3.088  10.127   0.189 -1.2084 -0.9550  0.6105
  326MOL0     O42924   2.947  10.161   0.205  0.9601 -0.1037  0.6596
  326MOL0     C42925   2.859  10.056   0.227 -0.4681 -0.8414 -0.6393
  326MOL0     C42926   2.725  10.088   0.219 -0.9384  0.4364  0.2810
  326MOL0     C42927   2.623  10.002   0.236 -0.1089 -1.1281  0.2726
  326MOL0     C42928   2.652   9.873   0.269  0.4120  0.3142  0.8404
  326MOL0     C42929   2.542   9.772   0.282 -0.4391 -0.3370  0.4923
  326MOL0     O42930   2.428   9.819   0.231 -0.1431 -0.0520  0.5469
  326MOL0     C42931   2.312   9.744   0.247  0.1055 -0.4901  0.3036
  326MOL0     C42932   2.302   9.607   0.228 -1.1623 -0.2873  0.2744
  326MOL0     C42933   2.177   9.544   0.251  0.1637  0.0804 -0.5894
  326MOL0     C42934   2.068   9.611   0.305  0.1596 -0.5408  0.1976
  326MOL0     O42935   1.955   9.532   0.332  0.0862 -0.5746 -0.1908
  326MOL0     C42936   1.879   9.578   0.448 -0.4206 -0.1827 -0.2712
  326MOL0     C42937   1.842   9.450   0.528 -0.3839 -0.2846  0.4240
  326MOL0     C42938   1.760   9.360   0.445  0.6031  1.4091 -0.0055
  326MOL0     C42939   1.702   9.247   0.528 -0.8520  0.0669  0.8906
  326MOL0     C42940   1.666   9.134   0.442 -0.7473  0.5471 -0.4066
  326MOL0     C42941   1.620   9.021   0.522 -1.2454 -0.8213 -1.1097
  326MOL0     C42942   1.582   8.901   0.446 -0.2008  0.6708  0.3131
  326MOL0     C42943   1.650   8.780   0.513 -0.5089 -0.9164 -0.1825
  326MOL0    Cl42944   1.827   8.796   0.523 -0.1723 -0.3656  0.4397
  326MOL0     C42945   2.076   9.746   0.317 -0.5023 -0.3611  1.5775
  326MOL0     C42946   2.195   9.808   0.284 -0.4249  0.3434 -0.0065
  326MOL0     O42947   2.562   9.666   0.334  0.0887  0.3341  0.2996
  326MOL0     C42948   2.784   9.832   0.268  0.0807 -0.7028 -0.0881
  326MOL0     C42949   2.888   9.920   0.260  0.2565  0.1673  0.2513
  326MOL0     N42950   3.420  10.174   0.531  0.8124 -0.2187 -1.0911
  326MOL0     N42951   3.549  10.204   0.544 -0.0055  0.7796  0.1332
  326MOL0     C42952   4.475  10.638   1.364  0.5264  0.3415 -0.1971
  326MOL0     C42953   4.568  10.638   1.473 -0.3902  0.5992 -0.1918
  326MOL0     C42954   4.888  10.563   1.772 -0.3358  0.1725 -0.2507
  326MOL0     C42955   4.820  10.493   1.869 -0.5239  0.7561  0.7733
  326MOL0     C42956   4.867  10.475   1.997 -0.1897  0.4758  0.1390
  326MOL0     C42957   4.989  10.535   2.040 -0.7147  0.0039 -0.1268
  326MOL0     O42958   5.031  10.508   2.167 -0.5272 -0.7078  0.3957
  326MOL0     C42959   5.146  10.573   2.216  0.5784 -0.9737  0.7902
  326MOL0     C42960   5.122  10.710   2.272 -0.3490  0.4659 -0.5330
  326MOL0     C42961   5.000  10.693   2.364 -0.3931 -0.3919  0.0145
  326MOL0     C42962   4.991  10.799   2.476  0.7398 -0.6525  0.1203
  326MOL0     C42963   5.019  10.944   2.429  0.4626 -0.1641  0.3080
  326MOL0     C42964   5.039  11.055   2.384  0.7536  0.1797  0.9980
  326MOL0     C42965   5.067  10.607   1.937  0.4155  0.2448  0.3784
  326MOL0     C42966   5.012  10.625   1.804  0.5603  0.2029 -0.1586
  326MOL0     H42967   4.700  10.329   1.438 -0.3515  0.6202  0.9687
  326MOL0     H42968   4.571  10.348   1.219 -1.1431  1.1622  0.5361
  326MOL0     H42969   4.422  10.375   1.057  0.6897  0.1901 -1.8350
  326MOL0     H42970   4.529  10.504   1.025 -0.1515  1.5708 -1.6271
  326MOL0     H42971   4.378  10.517   0.831 -0.3538 -2.9258 -0.3131
  326MOL0     H42972   4.310  10.635   0.945  0.2239 -0.3039 -1.9135
  326MOL0     H42973   4.149  10.473   1.015 -1.4554 -0.1228 -1.6303
  326MOL0     H42974   4.236  10.356   0.894 -0.0296 -0.1569 -0.3737
  326MOL0     H42975   4.070  10.611   0.844 -1.2988  0.0938  1.8791
  326MOL0     H42976   4.135  10.503   0.719 -2.0148 -1.1488 -1.0663
  326MOL0     H42977   3.910  10.431   0.916  0.1309  0.8054 -0.1564
  326MOL0     H42978   4.003  10.306   0.820  1.5164 -0.5007 -0.0993
  326MOL0     H42979   3.961  10.438   0.620 -0.3094 -0.2277  0.3505
  326MOL0     H42980   3.858  10.544   0.722  1.1677  0.4017  1.5624
  326MOL0     H42981   3.808  10.248   0.671  0.2560  0.4207  1.7145
  326MOL0     H42982   3.721  10.345   0.786 -0.1778 -1.0814 -0.0958
  326MOL0     H42983   3.743  10.388   0.480  2.7832  3.2692  1.3201
  326MOL0     H42984   3.668  10.514   0.570 -1.4439 -0.5226 -1.7817
  326MOL0     H42985   3.427  10.506   0.554  0.7763  0.1763 -1.6674
  326MOL0     H42986   3.148  10.397   0.554 -2.1491 -0.0019 -3.7032
  326MOL0     H42987   3.155  10.225   0.597  2.5631 -1.9042  0.3538
  326MOL0     H42988   3.142  10.356   0.317 -0.2157  0.5511 -0.3702
  326MOL0     H42989   3.011  10.279   0.416  0.3264 -1.1306 -1.7451
  326MOL0     H42990   3.264  10.126   0.314  0.7454  2.7612  1.0745
  326MOL0     H42991   3.121  10.064   0.395  1.6622 -0.3090 -0.3948
  326MOL0     H42992   3.089  10.025   0.150  0.9433 -1.0988  0.9483
  326MOL0     H42993   3.146  10.179   0.112  1.5031 -1.7921  1.9691
  326MOL0     H42994   2.684  10.186   0.195 -0.5942  0.9494  1.6844
  326MOL0     H42995   2.520  10.034   0.230 -0.8242 -3.4597 -2.5240
  326MOL0     H42996   2.388   9.558   0.183 -0.8545  0.6256 -0.1580
  326MOL0     H42997   2.181   9.435   0.245  3.3383 -0.2978  3.5991
  326MOL0     H42998   1.794   9.629   0.404 -1.2031 -0.7955  0.4942
  326MOL0     H42999   1.932   9.645   0.516  0.8910 -0.9940 -0.4501
  326MOL0     H43000   1.778   9.479   0.612  0.1039  0.9587  0.3913
  326MOL0     H43001   1.930   9.403   0.572 -1.1772  0.9717  3.6661
  326MOL0     H43002   1.819   9.305   0.372 -2.9501 -1.7202 -0.8063
  326MOL0     H43003   1.682   9.424   0.402  0.2583  1.7057  1.0400
  326MOL0     H43004   1.778   9.221   0.602  1.3442  1.8838 -0.5818
  326MOL0     H43005   1.614   9.273   0.589 -0.6004  1.5945  0.6490
  326MOL0     H43006   1.754   9.094   0.391 -0.2450 -0.2728  1.0497
  326MOL0     H43007   1.584   9.152   0.372 -2.2094  0.8029  1.3112
  326MOL0     H43008   1.534   9.049   0.584 -0.1105  0.1593  0.0791
  326MOL0     H43009   1.690   8.998   0.603  1.0138  1.6180 -2.2429
  326MOL0     H43010   1.473   8.892   0.443 -0.1587  0.4453 -0.6990
  326MOL0     H43011   1.626   8.901   0.346  1.7783  0.0739  1.1295
  326MOL0     H43012   1.631   8.694   0.448  0.2498 -2.7982  1.9417
  326MOL0     H43013   1.615   8.761   0.614 -3.4862 -0.0826 -0.9700
  326MOL0     H43014   1.992   9.808   0.344  0.5828  2.0544 -0.1981
  326MOL0     H43015   2.201   9.913   0.310 -0.3893  0.2182  0.5056
  326MOL0     H43016   2.818   9.736   0.306 -0.6101 -0.2461  1.8124
  326MOL0     H43017   2.992   9.890   0.266  0.8905  2.4573  2.3295
  326MOL0     H43018   4.398  10.711   1.339 -0.9722 -1.9180 -2.7339
  326MOL0     H43019   4.568  10.707   1.557  3.6862  2.1908 -1.2539
  326MOL0     H43020   4.733  10.436   1.836  0.6266  0.7111 -2.5565
  326MOL0     H43021   4.798  10.428   2.066  1.0928 -1.4053  0.2200
  326MOL0     H43022   5.223  10.579   2.139 -0.0313  0.3900  0.2619
  326MOL0     H43023   5.176  10.512   2.302 -1.7074 -2.3088  0.7157
  326MOL0     H43024   5.213  10.735   2.327  1.2066 -0.9988 -2.3391
  326MOL0     H43025   5.100  10.784   2.194 -1.2962 -0.1804 -0.8973
  326MOL0     H43026   5.000  10.597   2.417 -1.0443 -1.6714 -2.1978
  326MOL0     H43027   4.912  10.702   2.300 -0.3318 -0.5332 -0.0896
  326MOL0     H43028   4.895  10.789   2.528  1.0062 -2.1027  0.3680
  326MOL0     H43029   5.067  10.777   2.552 -0.7727  0.3379  2.0134
  326MOL0     H43030   5.056  11.158   2.364 -2.9035  1.0125  1.5165
  326MOL0     H43031   5.161  10.654   1.964  1.8111 -1.1712 -1.6686
  326MOL0     H43032   5.074  10.665   1.724  0.3535 -1.1285 -1.0168
  327MOL0     O43033   3.799   2.795  10.716  0.5706  0.5833  0.5256
  327MOL0     C43034   3.824   2.718  10.801 -0.2118 -0.2513 -0.6258
  327MOL0     O43035   3.739   2.684  10.896  0.5323  0.0648  0.0946
  327MOL0     C43036   3.617   2.751  10.910 -0.3859 -0.7852  0.2185
  327MOL0     C43037   3.561   2.743  11.044 -1.0264  0.7835  0.1592
  327MOL0     C43038   3.433   2.778  11.078 -0.6174 -0.1297 -0.0863
  327MOL0     C43039   3.351   2.827  10.976 -0.2812  0.0016  0.4479
  327MOL0     O43040   3.220   2.859  11.003  0.3327  0.7331 -0.7253
  327MOL0     C43041   3.177   2.910  11.137 -0.3389 -0.0580  0.2082
  327MOL0     C43042   3.042   2.998  11.133 -0.6178 -0.4505  0.5754
  327MOL0     C43043   2.924   2.916  11.081  0.5132  0.5823  0.8496
  327MOL0     C43044   2.798   3.002  11.070  0.2189 -0.1040 -0.9659
  327MOL0     C43045   2.707   2.931  10.978 -1.0570  0.6053 -0.4154
  327MOL0     C43046   2.572   3.000  10.968  0.0156 -0.3260  0.5251
  327MOL0     C43047   2.584   3.152  10.932  0.0986  0.3114 -0.3863
  327MOL0     C43048   2.665   3.189  10.808  0.0814 -0.6306 -0.6410
  327MOL0     N43049   2.691   3.333  10.789  0.5067 -0.4036 -0.9713
  327MOL0     C43050   2.743   3.418  10.884  0.4727  0.1145 -0.9935
  327MOL0     C43051   2.761   3.539  10.833 -0.3815 -0.2865  0.3237
  327MOL0     C43052   2.823   3.660  10.892  0.5781 -0.1417  1.0632
  327MOL0     C43053   2.975   3.649  10.896 -0.3271  0.5768 -0.6963
  327MOL0     C43054   3.032   3.762  11.000  0.4518 -0.3881 -0.3263
  327MOL0     C43055   3.184   3.736  11.031  0.5537 -0.8562 -0.5312
  327MOL0     O43056   3.239   3.848  11.098 -0.5769  0.6714 -0.9086
  327MOL0     C43057   3.380   3.838  11.104  0.2404  0.1749 -0.2657
  327MOL0     C43058   3.470   3.723  11.096 -0.1074 -0.3840  0.3067
  327MOL0     C43059   3.608   3.731  11.099 -0.1707 -0.2945  0.1961
  327MOL0     C43060   3.672   3.861  11.111 -0.2548  0.8062  0.3978
  327MOL0     C43061   3.820   3.876  11.116  0.5172  0.4172  0.0333
  327MOL0     O43062   3.859   4.004  11.139 -0.5225 -0.0182 -0.0781
  327MOL0     C43063   3.990   4.015  11.159 -0.2040  0.1650  0.3560
  327MOL0     C43064   4.050   3.965  11.281  0.8864  0.1796  0.4144
  327MOL0     C43065   4.187   3.977  11.298  0.0981  1.0882  0.6307
  327MOL0     C43066   4.267   4.033  11.207  0.7512 -0.0983  0.0876
  327MOL0     O43067   4.401   4.032  11.232  0.5360  0.0095  0.1503
  327MOL0     C43068   4.486   3.998  11.120  0.3918 -0.5967 -0.9078
  327MOL0     C43069   4.628   3.989  11.173 -0.6611 -0.0312  0.5034
  327MOL0     C43070   4.627   3.869  11.259 -1.2218  0.3378  0.4789
  327MOL0     C43071   4.638   3.905  11.415 -0.9774  1.0242 -0.2290
  327MOL0     C43072   4.614   3.771  11.488  0.2763 -0.5215 -1.0243
  327MOL0     C43073   4.687   3.639  11.453  0.4094  0.1849 -0.6351
  327MOL0     C43074   4.838   3.650  11.476 -0.0145  0.2412 -0.0249
  327MOL0     C43075   4.891   3.525  11.399 -1.0197  0.9359  0.5955
  327MOL0    Cl43076   5.064   3.533  11.407 -0.2386  0.1219  0.3157
  327MOL0     C43077   4.213   4.098  11.097  0.6430  0.5636 -0.1916
  327MOL0     C43078   4.071   4.083  11.074 -0.6783 -0.2572  0.2327
  327MOL0     O43079   3.889   3.780  11.104  0.1139  0.1454 -0.1619
  327MOL0     C43080   3.593   3.969  11.113  0.0210 -0.0823 -0.0885
  327MOL0     C43081   3.449   3.959  11.117  0.0935  0.6701 -0.0698
  327MOL0     N43082   2.728   3.524  10.698  0.5338  0.0128  0.2522
  327MOL0     N43083   2.679   3.404  10.672 -0.5651 -0.1788 -0.3017
  327MOL0     C43084   3.403   2.851  10.845  0.1468 -0.3684 -0.3604
  327MOL0     C43085   3.537   2.819  10.813 -0.9441 -0.2980 -0.5583
  327MOL0     C43086   3.964   2.673  10.821  0.7993 -0.0582  0.2103
  327MOL0     C43087   4.068   2.713  10.734  0.5953 -0.5442  0.7949
  327MOL0     C43088   4.194   2.662  10.749  0.1343 -0.2358  0.0286
  327MOL0     C43089   4.227   2.569  10.854  0.2255  0.2261  0.3195
  327MOL0     O43090   4.348   2.507  10.856 -0.0954  0.2278 -0.1758
  327MOL0     C43091   4.356   2.368  10.894 -0.4812 -1.0573 -0.0723
  327MOL0     C43092   4.287   2.281  10.789 -0.3110 -0.2926  0.2965
  327MOL0     C43093   4.381   2.221  10.684 -0.2636  0.4838 -0.7111
  327MOL0     C43094   4.429   2.321  10.581 -0.7679 -0.4873 -0.5303
  327MOL0     C43095   4.508   2.263  10.476  0.3474  0.2971 -0.3703
  327MOL0     C43096   4.584   2.244  10.385 -0.6903 -0.1675  0.6835
  327MOL0     C43097   4.126   2.532  10.945  0.1084  0.2894  0.4337
  327MOL0     C43098   3.997   2.575  10.926 -0.4711 -0.2445 -0.2235
  327MOL0     H43099   3.619   2.695  11.123  0.3644  2.2095  0.0409
  327MOL0     H43100   3.392   2.765  11.177 -0.6373 -0.5398 -0.1487
  327MOL0     H43101   3.247   2.974  11.192 -1.1632  0.7449  0.3625
  327MOL0     H43102   3.154   2.824  11.200  2.9391 -0.4294  1.0849
  327MOL0     H43103   3.060   3.082  11.066  0.8671 -0.5241  0.8329
  327MOL0     H43104   3.025   3.053  11.226  0.8969 -0.6690  1.0136
  327MOL0     H43105   2.899   2.834  11.148 -2.6424  0.7695  0.0525
  327MOL0     H43106   2.948   2.880  10.980 -0.5089 -0.1331  0.8523
  327MOL0     H43107   2.765   3.015  11.174 -0.7286 -2.2563 -0.9434
  327MOL0     H43108   2.808   3.105  11.036 -3.5805  2.7032  4.8093
  327MOL0     H43109   2.702   2.828  11.015 -1.3319 -0.1184 -2.3787
  327MOL0     H43110   2.757   2.930  10.881  0.0536 -0.6904  0.1401
  327MOL0     H43111   2.534   2.993  11.071 -1.9367 -0.6073 -0.1604
  327MOL0     H43112   2.504   2.948  10.900  1.8470  1.0364 -2.5278
  327MOL0     H43113   2.481   3.185  10.912  0.3034  2.0257  1.1219
  327MOL0     H43114   2.611   3.220  11.013 -1.2457  0.7961 -0.3173
  327MOL0     H43115   2.613   3.162  10.716  0.9440  3.2161 -2.4418
  327MOL0     H43116   2.753   3.125  10.812 -0.3769 -1.2239  0.9606
  327MOL0     H43117   2.785   3.398  10.982  3.5471  2.0779 -1.7594
  327MOL0     H43118   2.786   3.677  10.994  0.3811 -0.9306  1.1286
  327MOL0     H43119   2.786   3.748  10.838  1.8341 -1.1202 -1.5874
  327MOL0     H43120   3.013   3.655  10.794 -4.0800  1.3584 -2.1822
  327MOL0     H43121   2.997   3.547  10.930  0.3745  0.5639 -1.1698
  327MOL0     H43122   3.022   3.862  10.957  0.3269  0.3377  1.2908
  327MOL0     H43123   2.975   3.751  11.093 -0.3400 -1.4458 -0.9124
  327MOL0     H43124   3.241   3.727  10.938  1.4411 -1.8942  0.0876
  327MOL0     H43125   3.193   3.638  11.079 -2.1723 -1.2872 -0.7269
  327MOL0     H43126   3.425   3.624  11.099  1.4217 -1.1027  0.6485
  327MOL0     H43127   3.660   3.637  11.114 -1.0972 -0.4536  2.9328
  327MOL0     H43128   3.992   3.922  11.363 -1.0456  1.9316  0.0296
  327MOL0     H43129   4.225   3.930  11.388 -0.6462 -1.3193 -0.2227
  327MOL0     H43130   4.489   4.082  11.049  0.6826  3.7195  3.6451
  327MOL0     H43131   4.444   3.911  11.069 -1.1957 -0.5149  0.1775
  327MOL0     H43132   4.670   4.075  11.226  0.8296 -0.6377  0.3321
  327MOL0     H43133   4.696   3.969  11.090 -1.6858  0.4734 -0.4830
  327MOL0     H43134   4.720   3.815  11.238 -1.1128  0.5342  0.4619
  327MOL0     H43135   4.542   3.804  11.236  0.5090 -2.0231  0.4106
  327MOL0     H43136   4.736   3.947  11.439  1.9231 -4.1064 -1.5477
  327MOL0     H43137   4.564   3.981  11.444  0.3952  1.6243  1.8740
  327MOL0     H43138   4.506   3.754  11.479 -0.4637  1.9226  1.6814
  327MOL0     H43139   4.626   3.789  11.595  1.9583  1.0343 -1.4209
  327MOL0     H43140   4.651   3.592  11.361  0.5262 -0.0694 -0.5518
  327MOL0     H43141   4.664   3.564  11.528  4.0509 -0.9300 -0.4112
  327MOL0     H43142   4.864   3.741  11.422 -4.1211  0.7471 -1.5309
  327MOL0     H43143   4.856   3.654  11.584  1.1623  1.1707 -0.2346
  327MOL0     H43144   4.860   3.529  11.294 -2.3754  0.9341  0.9697
  327MOL0     H43145   4.858   3.428  11.438  2.6385 -0.4862  0.5416
  327MOL0     H43146   4.281   4.149  11.029  2.4184 -1.2137  0.1785
  327MOL0     H43147   4.021   4.134  10.992 -2.4093  0.8304  1.8730
  327MOL0     H43148   3.635   4.066  11.136 -1.4089  0.2138  1.4799
  327MOL0     H43149   3.398   4.054  11.133  1.5619  1.3358  0.9577
  327MOL0     H43150   3.344   2.901  10.769  1.2224  2.2493  0.4189
  327MOL0     H43151   3.571   2.824  10.710  2.7768 -0.3775  0.4996
  327MOL0     H43152   4.047   2.783  10.654  1.2532  0.2691  1.3214
  327MOL0     H43153   4.278   2.704  10.694  0.1313 -1.2490 -0.7782
  327MOL0     H43154   4.300   2.346  10.986 -1.5555  1.6834  0.0368
  327MOL0     H43155   4.461   2.345  10.913  0.5854  3.5537  1.0461
  327MOL0     H43156   4.257   2.192  10.846  0.8713 -0.3148  0.9188
  327MOL0     H43157   4.201   2.328  10.739  0.8071  1.9362  0.3468
  327MOL0     H43158   4.340   2.134  10.630  0.5648  0.1818 -0.8682
  327MOL0     H43159   4.467   2.184  10.740  0.6634  2.1113 -0.9966
  327MOL0     H43160   4.351   2.378  10.529  0.1198  0.1135 -1.2346
  327MOL0     H43161   4.489   2.400  10.628  1.6420 -1.3676 -1.9696
  327MOL0     H43162   4.660   2.235  10.310 -0.5273 -0.5538  0.8949
  327MOL0     H43163   4.139   2.453  11.018 -0.6949 -0.2158  0.0452
  327MOL0     H43164   3.916   2.544  10.992 -1.3558  1.4583 -0.4536
  328MOL0     O43165   0.652   2.561   6.433  0.2545  0.0858 -0.1703
  328MOL0     C43166   0.674   2.639   6.519 -0.7649  0.5576 -0.2959
  328MOL0     O43167   0.595   2.749   6.541  0.5910 -0.5097  0.5143
  328MOL0     C43168   0.468   2.758   6.482  0.2727 -0.2283 -0.0672
  328MOL0     C43169   0.423   2.887   6.439 -0.2460  0.4868  0.9712
  328MOL0     C43170   0.303   2.893   6.370  0.0763 -0.2873 -0.6155
  328MOL0     C43171   0.214   2.786   6.362 -0.6569  0.8678  0.6008
  328MOL0     O43172   0.095   2.823   6.302 -0.2282  0.5593 -0.0230
  328MOL0     C43173   0.010   2.719   6.251 -0.1964  0.0793  0.1315
  328MOL0     C43174  -0.104   2.779   6.170  0.2950  0.1695  0.3842
  328MOL0     C43175  -0.195   2.858   6.261 -0.5786 -0.4446  1.0904
  328MOL0     C43176  -0.323   2.907   6.194  0.0350 -0.5102 -0.0410
  328MOL0     C43177  -0.308   3.021   6.093  0.2622 -0.1491  0.6230
  328MOL0     C43178  -0.442   3.070   6.046 -0.3056 -0.1684 -0.0139
  328MOL0     C43179  -0.431   3.173   5.935  0.7705 -0.3886  0.0218
  328MOL0     C43180  -0.568   3.188   5.859 -0.3939 -0.6629 -0.8292
  328MOL0     N43181  -0.658   3.249   5.958  0.0888 -0.7397  0.3060
  328MOL0     C43182  -0.694   3.379   5.979  0.1125 -0.2102 -0.6860
  328MOL0     C43183  -0.792   3.376   6.070 -0.4008  0.8480  0.1781
  328MOL0     C43184  -0.863   3.478   6.142 -0.3626 -0.5933 -0.6222
  328MOL0     C43185  -0.962   3.575   6.073 -0.7274 -0.4264 -0.5724
  328MOL0     C43186  -1.072   3.499   6.002  0.6297  0.4680 -0.0958
  328MOL0     C43187  -1.165   3.407   6.096  0.2719 -0.4807  0.7100
  328MOL0     O43188  -1.261   3.484   6.168 -0.8825 -0.3269 -0.5545
  328MOL0     C43189  -1.379   3.529   6.107 -0.1774 -0.1007  0.2497
  328MOL0     C43190  -1.404   3.529   5.971  0.7538  0.5283  0.2859
  328MOL0     C43191  -1.524   3.574   5.923  0.9768  0.8955 -0.1752
  328MOL0     C43192  -1.632   3.606   6.005 -0.4464 -0.1152 -0.3097
  328MOL0     C43193  -1.764   3.638   5.950 -0.0307  0.5418  0.0565
  328MOL0     O43194  -1.857   3.656   6.047 -0.8924  0.3132  0.9564
  328MOL0     C43195  -1.993   3.672   6.026  0.1905  0.6432  0.7123
  328MOL0     C43196  -2.062   3.678   5.902  0.6419 -0.1748 -0.8536
  328MOL0     C43197  -2.198   3.693   5.898  0.4440  0.4745 -0.2159
  328MOL0     C43198  -2.279   3.702   6.013 -0.0959 -0.2869  0.3841
  328MOL0     O43199  -2.414   3.733   6.009 -0.0149  0.1082  0.4786
  328MOL0     C43200  -2.484   3.649   5.908 -0.3826 -0.6166  0.9681
  328MOL0     C43201  -2.584   3.565   5.978 -0.6933  0.5701 -0.4969
  328MOL0     C43202  -2.670   3.481   5.879 -0.3553  0.2945 -0.0369
  328MOL0     C43203  -2.735   3.362   5.956  0.8618 -0.4627 -0.0230
  328MOL0     C43204  -2.839   3.305   5.859  0.7764  1.0219  0.5887
  328MOL0     C43205  -2.868   3.151   5.877 -0.0266  0.1197  0.0200
  328MOL0     C43206  -3.019   3.117   5.827 -0.6208  0.4997 -0.0754
  328MOL0     C43207  -3.040   2.975   5.802 -0.0918  0.1048 -0.5312
  328MOL0    Cl43208  -3.212   2.944   5.760 -0.6487  0.2566 -0.4139
  328MOL0     C43209  -2.218   3.704   6.138  0.1316  0.2785 -0.1194
  328MOL0     C43210  -2.076   3.693   6.140 -0.0473  0.5771 -0.4622
  328MOL0     O43211  -1.784   3.611   5.833 -1.1174 -0.3453  0.4535
  328MOL0     C43212  -1.606   3.600   6.143 -0.2725  0.1140  0.2686
  328MOL0     C43213  -1.480   3.560   6.199 -0.3981  0.7658  1.0669
  328MOL0     N43214  -0.807   3.248   6.117  0.0340  0.1607  0.1315
  328MOL0     N43215  -0.733   3.168   6.042  0.2325 -0.4444 -0.8339
  328MOL0     C43216   0.256   2.662   6.411  0.2347  0.1068 -0.5382
  328MOL0     C43217   0.383   2.654   6.473  0.2785  0.2768 -0.2522
  328MOL0     C43218   0.800   2.623   6.587 -0.3945  1.1317 -0.0599
  328MOL0     C43219   0.897   2.520   6.551 -0.1731  0.0341  0.8062
  328MOL0     C43220   1.023   2.519   6.616  0.8161 -0.1205  0.1439
  328MOL0     C43221   1.056   2.609   6.710 -0.0170  0.0143 -0.3094
  328MOL0     O43222   1.190   2.615   6.742  0.7183 -0.0451  0.7082
  328MOL0     C43223   1.208   2.637   6.881  0.0706 -0.5791  0.2898
  328MOL0     C43224   1.312   2.547   6.952  0.1825  0.1183 -0.0390
  328MOL0     C43225   1.456   2.585   6.902  0.1001 -0.3152 -0.1710
  328MOL0     C43226   1.509   2.551   6.768 -0.2405  0.0196  0.1593
  328MOL0     C43227   1.558   2.416   6.747  0.2130 -0.1892 -0.7190
  328MOL0     C43228   1.581   2.297   6.732 -0.6231 -0.5131  0.0198
  328MOL0     C43229   0.960   2.702   6.745  0.1182 -0.3232 -0.1632
  328MOL0     C43230   0.833   2.713   6.686  0.3328 -0.5798  0.1541
  328MOL0     H43231   0.486   2.975   6.450  1.2347 -0.1199 -1.7654
  328MOL0     H43232   0.291   2.994   6.332 -0.3397  0.8566  2.3132
  328MOL0     H43233  -0.040   2.666   6.333 -1.4355 -0.5141 -0.9779
  328MOL0     H43234   0.055   2.651   6.178  2.1674 -0.5720  2.0451
  328MOL0     H43235  -0.160   2.697   6.124 -0.3760  1.8355 -1.9510
  328MOL0     H43236  -0.081   2.848   6.088 -2.3859  1.0102  0.2594
  328MOL0     H43237  -0.141   2.945   6.298  2.8575 -1.5125 -0.9457
  328MOL0     H43238  -0.232   2.789   6.337 -0.9176  0.6349  1.9202
  328MOL0     H43239  -0.389   2.833   6.148 -3.0033  2.3637 -0.6916
  328MOL0     H43240  -0.391   2.945   6.272 -1.1848 -0.7731 -0.9413
  328MOL0     H43241  -0.276   2.975   5.999  1.6531  0.0574  0.9699
  328MOL0     H43242  -0.244   3.101   6.129 -0.6099  0.0577  1.7577
  328MOL0     H43243  -0.503   3.102   6.132 -0.6949 -2.3687  0.5862
  328MOL0     H43244  -0.496   2.989   5.996 -0.7681  0.3266 -0.3334
  328MOL0     H43245  -0.396   3.264   5.983  2.0737 -1.4522  1.1577
  328MOL0     H43246  -0.354   3.139   5.865  1.1691 -0.2892  0.4154
  328MOL0     H43247  -0.605   3.089   5.831 -0.1001 -1.3705  1.1622
  328MOL0     H43248  -0.556   3.254   5.772 -1.9373  0.5608 -0.1693
  328MOL0     H43249  -0.654   3.469   5.933  0.4082 -0.4061 -0.8171
  328MOL0     H43250  -0.784   3.536   6.191 -1.2893 -0.1805  0.4257
  328MOL0     H43251  -0.927   3.428   6.215 -3.6338 -2.2886 -4.3144
  328MOL0     H43252  -0.905   3.635   6.002  1.3751 -2.8497 -1.1095
  328MOL0     H43253  -1.001   3.647   6.146  3.1172  1.3262 -0.0052
  328MOL0     H43254  -1.136   3.567   5.945  0.5252 -0.1113 -0.6795
  328MOL0     H43255  -1.024   3.433   5.929 -1.5850 -0.1717 -1.0581
  328MOL0     H43256  -1.092   3.355   6.159 -0.9501 -1.0117  1.7392
  328MOL0     H43257  -1.216   3.325   6.046  0.5168 -0.6528  0.7414
  328MOL0     H43258  -1.337   3.500   5.891  0.1616  1.1870 -0.4689
  328MOL0     H43259  -1.541   3.561   5.816 -1.4912  1.9667  0.0127
  328MOL0     H43260  -2.015   3.658   5.806 -0.7039  0.4526 -1.6574
  328MOL0     H43261  -2.244   3.696   5.800 -2.4282  1.5018  1.0670
  328MOL0     H43262  -2.424   3.582   5.846 -0.3669 -1.5763  1.9868
  328MOL0     H43263  -2.532   3.725   5.845 -0.4350  0.1163  1.8625
  328MOL0     H43264  -2.655   3.628   6.033  0.3586 -0.2340  1.8773
  328MOL0     H43265  -2.527   3.500   6.044 -2.6106 -0.8496 -0.1439
  328MOL0     H43266  -2.614   3.445   5.792  1.2928  1.4818  0.4640
  328MOL0     H43267  -2.746   3.552   5.846  0.6423  2.9345  2.8029
  328MOL0     H43268  -2.650   3.293   5.962  0.8621 -0.4837 -0.2636
  328MOL0     H43269  -2.777   3.391   6.053  3.3302 -0.1962  1.0597
  328MOL0     H43270  -2.813   3.318   5.753 -0.5287  0.6555  0.2106
  328MOL0     H43271  -2.934   3.359   5.864 -0.0852  0.7001 -5.3536
  328MOL0     H43272  -2.847   3.117   5.979 -0.6310 -0.8624 -0.1655
  328MOL0     H43273  -2.810   3.089   5.808  2.4874  0.0261  2.0963
  328MOL0     H43274  -3.098   3.148   5.896 -2.2777  1.1449 -2.1643
  328MOL0     H43275  -3.036   3.173   5.734 -0.8993  2.3733  1.0466
  328MOL0     H43276  -3.002   2.916   5.886  0.4424  0.3552 -0.5896
  328MOL0     H43277  -2.979   2.938   5.719  1.6206 -0.1848  0.7904
  328MOL0     H43278  -2.277   3.713   6.228 -2.2260 -0.8304 -1.4440
  328MOL0     H43279  -2.022   3.681   6.233  0.3417  3.4568 -0.2127
  328MOL0     H43280  -1.678   3.624   6.221  0.3672 -2.7641  1.8959
  328MOL0     H43281  -1.479   3.533   6.304  2.1897 -3.0616  0.2406
  328MOL0     H43282   0.195   2.573   6.408  2.7991 -1.7324 -2.0625
  328MOL0     H43283   0.407   2.564   6.529  1.8477  2.1292  2.2964
  328MOL0     H43284   0.872   2.456   6.468  2.3512 -0.7166  0.5355
  328MOL0     H43285   1.100   2.458   6.569  1.1297  1.3032 -1.2911
  328MOL0     H43286   1.117   2.609   6.935 -0.4392  2.9406  1.5418
  328MOL0     H43287   1.235   2.743   6.894 -3.6801  0.3392  1.8568
  328MOL0     H43288   1.305   2.568   7.059 -0.0898  0.0993 -0.0528
  328MOL0     H43289   1.294   2.440   6.936 -0.0685  0.4714 -2.5605
  328MOL0     H43290   1.520   2.537   6.977 -1.5265 -0.2876  1.3124
  328MOL0     H43291   1.461   2.693   6.923  0.7496 -0.0908 -1.4132
  328MOL0     H43292   1.434   2.570   6.692 -2.9235 -1.4342  2.2592
  328MOL0     H43293   1.605   2.600   6.748  1.1916 -2.7945 -0.5441
  328MOL0     H43294   1.609   2.194   6.725 -0.6938 -0.4691 -0.9132
  328MOL0     H43295   0.992   2.770   6.824  1.0658 -2.7835  1.7189
  328MOL0     H43296   0.761   2.790   6.711 -1.7985 -1.5744 -2.4140
  329MOL0     O43297   4.679   5.626   2.958 -0.4179 -0.4185 -0.3295
  329MOL0     C43298   4.800   5.598   2.986  0.8877 -0.0518  0.2738
  329MOL0     O43299   4.879   5.676   3.066 -0.6864 -0.3170 -0.4744
  329MOL0     C43300   4.827   5.789   3.121 -0.5970 -0.0080  0.1145
  329MOL0     C43301   4.857   5.910   3.067 -0.1783 -0.6414  0.1534
  329MOL0     C43302   4.809   6.025   3.125  0.1920  0.5328  0.0385
  329MOL0     C43303   4.717   6.026   3.235 -0.2499 -0.5397  0.5191
  329MOL0     O43304   4.692   6.139   3.307  0.4102  0.9341 -0.5135
  329MOL0     C43305   4.620   6.238   3.237 -0.2709 -0.3554  1.0588
  329MOL0     C43306   4.575   6.356   3.318  0.2366 -0.1726  0.0000
  329MOL0     C43307   4.465   6.435   3.253  0.0778 -0.2019 -0.7798
  329MOL0     C43308   4.407   6.543   3.341 -0.0159  0.2072 -0.1533
  329MOL0     C43309   4.253   6.551   3.314  0.2510  0.9242 -0.0649
  329MOL0     C43310   4.174   6.666   3.379 -0.1926  0.0639  0.5514
  329MOL0     C43311   4.219   6.800   3.331 -0.2041  0.4252 -0.6927
  329MOL0     C43312   4.136   6.910   3.379 -0.1107 -0.1337 -0.0703
  329MOL0     N43313   4.011   6.929   3.309  0.3345 -0.0777  0.0818
  329MOL0     C43314   3.958   7.045   3.253  0.3659  0.5951  0.3864
  329MOL0     C43315   3.841   7.001   3.193 -0.4251 -0.4063  0.0542
  329MOL0     C43316   3.750   7.082   3.109 -0.3226  0.1035 -0.0429
  329MOL0     C43317   3.710   7.012   2.984  0.0078 -0.1448  0.5243
  329MOL0     C43318   3.645   7.105   2.879 -0.4738  0.1539  0.2710
  329MOL0     C43319   3.605   7.007   2.754 -0.4660  0.5556 -0.3697
  329MOL0     O43320   3.521   6.895   2.790 -0.1180  0.2544 -0.3324
  329MOL0     C43321   3.386   6.907   2.767  0.2781 -0.6464 -0.6382
  329MOL0     C43322   3.318   7.022   2.731  0.1013  0.2202 -0.1864
  329MOL0     C43323   3.182   7.018   2.712  0.2443  0.0540  0.3966
  329MOL0     C43324   3.104   6.905   2.754 -0.3300 -0.1047  0.7586
  329MOL0     C43325   2.960   6.907   2.754 -0.3440 -0.5079 -0.9572
  329MOL0     O43326   2.898   7.030   2.742  0.1770 -0.1419  0.3625
  329MOL0     C43327   2.760   7.053   2.744  0.3189  0.1994 -1.0139
  329MOL0     C43328   2.651   6.963   2.765 -0.7979 -0.2482  0.6275
  329MOL0     C43329   2.520   7.010   2.771  0.2280 -0.1680  0.0219
  329MOL0     C43330   2.492   7.147   2.770  0.4001  0.4729 -0.1085
  329MOL0     O43331   2.369   7.194   2.796  0.4267 -0.1977  0.5062
  329MOL0     C43332   2.347   7.335   2.773 -0.3641 -1.0870  0.1658
  329MOL0     C43333   2.342   7.356   2.618 -0.0850  0.0643 -0.1873
  329MOL0     C43334   2.276   7.483   2.566  0.5638 -0.2024 -0.0750
  329MOL0     C43335   2.277   7.489   2.411  0.0022  0.7941  0.1892
  329MOL0     C43336   2.257   7.628   2.347  0.2460  0.0198  0.0595
  329MOL0     C43337   2.117   7.684   2.390 -0.9002 -0.1764  1.0445
  329MOL0     C43338   2.087   7.802   2.288  0.3407  0.5613  0.1410
  329MOL0     C43339   1.956   7.861   2.331  0.1837 -0.4638 -0.4000
  329MOL0    Cl43340   1.884   7.922   2.172 -0.4186  0.4020 -0.3665
  329MOL0     C43341   2.600   7.235   2.752  0.5209  0.5626  0.4429
  329MOL0     C43342   2.733   7.192   2.750 -0.4634  1.0662  0.7335
  329MOL0     O43343   2.904   6.800   2.751  0.6736  0.0989 -0.2040
  329MOL0     C43344   3.182   6.797   2.777  0.8475  0.7513 -0.2998
  329MOL0     C43345   3.319   6.791   2.775  0.6187 -0.3812  0.3129
  329MOL0     N43346   3.817   6.871   3.233  0.6424  0.3078  0.7678
  329MOL0     N43347   3.908   6.837   3.305  0.1022  0.6793  0.1277
  329MOL0     C43348   4.692   5.898   3.286 -0.6953 -0.9276  0.7549
  329MOL0     C43349   4.739   5.777   3.231 -1.3431  0.2445  0.1762
  329MOL0     C43350   4.854   5.479   2.932  0.1219 -0.2753 -0.1265
  329MOL0     C43351   4.778   5.409   2.836 -0.3178 -1.0105  0.4372
  329MOL0     C43352   4.823   5.288   2.782  0.0505  0.2173 -0.3108
  329MOL0     C43353   4.944   5.231   2.831  0.3598 -0.3474 -0.3971
  329MOL0     O43354   4.997   5.113   2.789  0.5277 -0.9158  0.5476
  329MOL0     C43355   4.939   5.051   2.674  0.8096 -0.4199  0.0741
  329MOL0     C43356   5.026   4.933   2.614  0.2738  0.0691 -0.1370
  329MOL0     C43357   5.008   4.908   2.462 -0.3950  0.1211  0.2325
  329MOL0     C43358   4.909   4.797   2.431  0.0212  0.6881 -0.4449
  329MOL0     C43359   4.913   4.752   2.300 -1.1599 -0.1767  0.8326
  329MOL0     C43360   4.919   4.702   2.186  0.4505  0.2288  0.2368
  329MOL0     C43361   5.008   5.294   2.940  0.1502 -0.3782  0.7915
  329MOL0     C43362   4.962   5.417   2.986 -0.4352  0.6924 -0.4683
  329MOL0     H43363   4.924   5.919   2.982 -1.1223  0.8381 -0.4817
  329MOL0     H43364   4.847   6.114   3.076  3.0121  1.0008  2.7746
  329MOL0     H43365   4.530   6.204   3.185  0.2962  0.4166 -0.5076
  329MOL0     H43366   4.689   6.275   3.160 -1.1317  2.2585  1.4437
  329MOL0     H43367   4.666   6.418   3.321 -0.2350  0.6131  4.2415
  329MOL0     H43368   4.553   6.317   3.418 -0.1215  1.5236  0.6207
  329MOL0     H43369   4.379   6.368   3.254 -1.6893  1.8801  2.2024
  329MOL0     H43370   4.488   6.464   3.150  0.3724 -0.4522 -0.7852
  329MOL0     H43371   4.414   6.515   3.446  1.4624 -0.3875 -0.3950
  329MOL0     H43372   4.456   6.637   3.312  2.3227 -0.5528  1.0982
  329MOL0     H43373   4.205   6.458   3.345  1.2273  0.5130  0.2715
  329MOL0     H43374   4.237   6.548   3.206 -0.3269 -0.3496  0.0369
  329MOL0     H43375   4.185   6.675   3.487 -2.0551 -1.0835  0.8816
  329MOL0     H43376   4.068   6.643   3.366  0.1065 -1.8959  1.2999
  329MOL0     H43377   4.321   6.809   3.370 -0.9248 -0.4346  1.6035
  329MOL0     H43378   4.227   6.809   3.223  1.2732  0.7189 -0.5684
  329MOL0     H43379   4.201   6.994   3.408  2.0699 -0.1918 -4.0666
  329MOL0     H43380   4.101   6.889   3.480  2.0424 -2.7104  0.2393
  329MOL0     H43381   4.008   7.141   3.246 -0.1862  1.0097  1.7387
  329MOL0     H43382   3.807   7.172   3.083 -2.4123  0.9258 -2.2016
  329MOL0     H43383   3.670   7.110   3.178 -0.5750 -2.3770  0.7618
  329MOL0     H43384   3.627   6.952   3.022 -2.7001  2.9481 -0.0334
  329MOL0     H43385   3.798   6.970   2.936 -0.2110  0.8408 -0.7754
  329MOL0     H43386   3.561   7.170   2.906 -0.8831  0.5956 -1.8943
  329MOL0     H43387   3.727   7.169   2.847  1.1273  0.2562  4.1419
  329MOL0     H43388   3.701   6.964   2.725  0.6285  0.9611  2.3395
  329MOL0     H43389   3.563   7.073   2.677  0.2687  0.3035 -1.0005
  329MOL0     H43390   3.359   7.123   2.727 -5.6398  3.0927  1.9504
  329MOL0     H43391   3.126   7.105   2.676  2.2417  0.7345 -1.2731
  329MOL0     H43392   2.684   6.861   2.786  2.1695  0.6513  0.9008
  329MOL0     H43393   2.445   6.935   2.793  0.6170 -0.5175  0.1770
  329MOL0     H43394   2.419   7.406   2.815 -0.6832 -0.2617 -0.6359
  329MOL0     H43395   2.250   7.361   2.818 -1.2513 -2.6069 -0.7658
  329MOL0     H43396   2.289   7.272   2.573 -1.2409  0.2752  0.7653
  329MOL0     H43397   2.439   7.354   2.566 -1.6252 -3.2716 -3.3292
  329MOL0     H43398   2.318   7.576   2.607 -1.2055  1.2249 -1.3249
  329MOL0     H43399   2.172   7.482   2.601  0.7465  0.4147  0.5058
  329MOL0     H43400   2.376   7.460   2.375 -0.5037  0.7915 -1.3042
  329MOL0     H43401   2.203   7.418   2.371  0.3483  1.1089 -1.0689
  329MOL0     H43402   2.244   7.613   2.239  1.9102  1.1513 -0.3434
  329MOL0     H43403   2.349   7.687   2.357 -1.1308  2.4731 -0.7452
  329MOL0     H43404   2.117   7.721   2.493  0.1297 -0.3552  1.1209
  329MOL0     H43405   2.043   7.603   2.387 -3.4395  2.0493 -1.4871
  329MOL0     H43406   2.166   7.877   2.281 -1.2337  2.4267  1.2123
  329MOL0     H43407   2.071   7.753   2.192 -0.3663 -2.2964  1.6046
  329MOL0     H43408   1.971   7.939   2.406 -0.2847 -1.5631  0.8714
  329MOL0     H43409   1.893   7.788   2.382  0.4046 -1.3465 -1.3595
  329MOL0     H43410   2.593   7.343   2.745  2.6368  0.6638 -0.9909
  329MOL0     H43411   2.817   7.260   2.746 -0.5300  1.1698  1.0544
  329MOL0     H43412   3.135   6.700   2.793  1.6200  0.3420 -0.4227
  329MOL0     H43413   3.366   6.697   2.802 -2.1476 -1.7514  0.6880
  329MOL0     H43414   4.640   5.907   3.381  0.1858  0.4351  1.1485
  329MOL0     H43415   4.710   5.683   3.277  3.0342 -0.8434  1.2502
  329MOL0     H43416   4.696   5.468   2.795 -1.6192 -1.5347  2.1462
  329MOL0     H43417   4.765   5.233   2.708  0.2023  0.3138 -0.5033
  329MOL0     H43418   4.921   5.126   2.596 -3.3092  0.4142  1.5716
  329MOL0     H43419   4.839   5.009   2.695  0.4794  0.2684 -0.0946
  329MOL0     H43420   5.127   4.972   2.629 -0.5244  3.7933 -2.9978
  329MOL0     H43421   5.025   4.838   2.668  1.0339 -0.4668 -1.0545
  329MOL0     H43422   5.109   4.885   2.427  0.8912  2.0564  2.4159
  329MOL0     H43423   4.979   5.002   2.415  4.3867  1.9035  0.3676
  329MOL0     H43424   4.940   4.714   2.495 -1.3417  0.3812 -0.1420
  329MOL0     H43425   4.803   4.821   2.449 -0.4080 -2.1469  1.4933
  329MOL0     H43426   4.935   4.666   2.086 -1.8181  1.8699 -0.8276
  329MOL0     H43427   5.088   5.241   2.990 -1.1920  2.1618  6.3549
  329MOL0     H43428   5.026   5.470   3.056  1.2330 -1.4315 -0.2689
  330MOL0     O43429   0.539   5.185   1.491 -0.2170 -0.0133 -0.8571
  330MOL0     C43430   0.521   5.064   1.505  0.2147 -0.4970 -0.1626
  330MOL0     O43431   0.411   4.987   1.451 -1.0555 -0.2531 -0.4226
  330MOL0     C43432   0.331   5.041   1.354 -0.6911  0.2318  0.4480
  330MOL0     C43433   0.205   4.984   1.354 -0.2420 -0.7825  0.3071
  330MOL0     C43434   0.108   5.023   1.257  0.2922 -0.8355 -0.4315
  330MOL0     C43435   0.135   5.120   1.158 -0.2970 -0.1828 -0.3561
  330MOL0     O43436   0.036   5.158   1.063 -0.0378  0.1677 -0.3908
  330MOL0     C43437   0.055   5.259   0.963 -0.6853  0.2927 -0.0074
  330MOL0     C43438  -0.082   5.306   0.913  0.1686  1.2148  0.7137
  330MOL0     C43439  -0.132   5.191   0.824 -1.0042  0.4792  0.4311
  330MOL0     C43440  -0.271   5.223   0.767 -0.9491  0.9286 -1.0056
  330MOL0     C43441  -0.294   5.137   0.640 -0.4946  0.9496  0.0438
  330MOL0     C43442  -0.438   5.159   0.592 -1.0810  0.4787 -0.6559
  330MOL0     C43443  -0.466   5.094   0.457 -0.2574 -0.2288 -0.4010
  330MOL0     C43444  -0.620   5.073   0.432 -0.2219  0.4683  0.8880
  330MOL0     N43445  -0.708   5.190   0.427  0.5326 -0.8293  0.0465
  330MOL0     C43446  -0.836   5.171   0.383 -0.0541  0.0262 -0.8892
  330MOL0     C43447  -0.876   5.294   0.345  1.1731 -0.2411  0.2632
  330MOL0     C43448  -1.014   5.324   0.278 -0.8108 -0.1247 -0.1855
  330MOL0     C43449  -1.076   5.194   0.197 -0.2292  0.7034 -0.2728
  330MOL0     C43450  -1.201   5.225   0.114  0.9491 -0.0684 -0.0855
  330MOL0     C43451  -1.232   5.128   0.003  0.8173 -0.2299 -0.2836
  330MOL0     O43452  -1.277   4.999   0.063  0.5168 -0.0770  0.0233
  330MOL0     C43453  -1.407   4.975   0.098 -0.1197 -0.0914 -0.2454
  330MOL0     C43454  -1.447   4.918   0.216 -0.0748 -0.0306 -0.4862
  330MOL0     C43455  -1.581   4.892   0.245  0.1486 -0.5748  0.6916
  330MOL0     C43456  -1.691   4.934   0.159 -1.1821  1.2417 -0.1240
  330MOL0     C43457  -1.822   4.899   0.181  0.7195 -0.4469 -0.6354
  330MOL0     O43458  -1.847   4.833   0.296 -0.3977 -0.3550  0.3676
  330MOL0     C43459  -1.960   4.848   0.368  0.5262  0.2325  0.4583
  330MOL0     C43460  -1.990   4.746   0.463  0.2922 -0.4098 -0.0423
  330MOL0     C43461  -2.106   4.753   0.536 -0.3062 -0.0426  0.6344
  330MOL0     C43462  -2.202   4.861   0.515  0.0037  0.1897 -0.2064
  330MOL0     O43463  -2.317   4.869   0.584 -0.2326  0.4699 -0.4219
  330MOL0     C43464  -2.354   4.993   0.643  0.6479 -0.0420 -0.5054
  330MOL0     C43465  -2.464   4.975   0.753 -0.3877 -0.3901  0.5657
  330MOL0     C43466  -2.605   4.966   0.683 -0.1378  0.7760 -0.2808
  330MOL0     C43467  -2.704   4.903   0.771  0.4657  0.2185  0.1719
  330MOL0     C43468  -2.829   4.843   0.702  0.6394  0.4292  0.2204
  330MOL0     C43469  -2.790   4.709   0.634  0.0371 -0.4605 -0.1478
  330MOL0     C43470  -2.907   4.636   0.584 -1.4262 -0.0423 -0.0049
  330MOL0     C43471  -2.853   4.493   0.539  0.2029 -0.3201  0.4044
  330MOL0    Cl43472  -2.769   4.416   0.658  0.1353  0.4179  0.0029
  330MOL0     C43473  -2.175   4.962   0.425  0.3647  0.0318 -0.4910
  330MOL0     C43474  -2.057   4.955   0.346 -0.0308 -0.3623  0.4167
  330MOL0     O43475  -1.904   4.918   0.088  0.1210  0.4989 -1.0086
  330MOL0     C43476  -1.646   5.004   0.042  0.6026  1.5054 -0.2389
  330MOL0     C43477  -1.506   5.015   0.009  0.1051  0.3270  0.6472
  330MOL0     N43478  -0.769   5.382   0.376 -0.2860 -0.3267  0.7747
  330MOL0     N43479  -0.672   5.323   0.432  0.3624  0.6910  0.6555
  330MOL0     C43480   0.267   5.166   1.154  1.3587  0.1338  0.6211
  330MOL0     C43481   0.361   5.121   1.251  0.2525 -0.3718 -0.1158
  330MOL0     C43482   0.611   4.994   1.598 -0.1990 -0.2651  0.0640
  330MOL0     C43483   0.615   4.852   1.594 -0.6637 -0.8293 -0.4203
  330MOL0     C43484   0.700   4.780   1.680 -0.0452 -0.1894 -0.5257
  330MOL0     C43485   0.782   4.847   1.776 -0.3499  0.6389 -0.2815
  330MOL0     O43486   0.860   4.771   1.862  0.2720 -0.0218  0.9798
  330MOL0     C43487   0.912   4.828   1.981  0.3607  0.8420 -0.1955
  330MOL0     C43488   0.983   4.708   2.052 -0.1278 -0.9173  0.0772
  330MOL0     C43489   1.030   4.722   2.198  0.4877  0.7237  0.0153
  330MOL0     C43490   0.905   4.740   2.298  0.1853 -0.2188 -0.0929
  330MOL0     C43491   0.824   4.621   2.288  1.0635  0.0295 -0.5233
  330MOL0     C43492   0.772   4.508   2.286 -0.0245 -0.1542 -0.2606
  330MOL0     C43493   0.789   4.979   1.763 -0.6753 -0.3482  0.4939
  330MOL0     C43494   0.712   5.056   1.675 -0.0611 -0.2151  1.3884
  330MOL0     H43495   0.170   4.908   1.424  1.5149 -3.0579 -1.1208
  330MOL0     H43496   0.006   4.985   1.264 -0.1872  0.4411 -0.1710
  330MOL0     H43497   0.110   5.213   0.880  1.1029  0.6855  0.9099
  330MOL0     H43498   0.118   5.343   0.994 -0.3413 -0.4667  1.4633
  330MOL0     H43499  -0.083   5.402   0.860 -0.4656  0.5234 -0.5815
  330MOL0     H43500  -0.147   5.319   1.000 -0.3008 -0.8090  0.7080
  330MOL0     H43501  -0.130   5.106   0.893  1.1777 -1.6930 -2.1160
  330MOL0     H43502  -0.059   5.175   0.744 -0.1023 -2.3039  1.6962
  330MOL0     H43503  -0.348   5.213   0.844  0.2226  1.9175  0.3500
  330MOL0     H43504  -0.270   5.330   0.747  1.5548  0.5256 -3.7458
  330MOL0     H43505  -0.279   5.030   0.659 -1.1664  1.0970  1.5507
  330MOL0     H43506  -0.218   5.159   0.564  0.1511 -1.7490 -0.1880
  330MOL0     H43507  -0.455   5.266   0.580  1.7104  0.9478 -1.1435
  330MOL0     H43508  -0.515   5.128   0.663 -3.1782 -0.1595 -3.0728
  330MOL0     H43509  -0.425   5.161   0.380  1.0228 -1.0661 -0.4824
  330MOL0     H43510  -0.412   5.000   0.443 -1.6244 -1.0666 -0.1576
  330MOL0     H43511  -0.657   5.000   0.505  2.1862 -2.4922 -0.6752
  330MOL0     H43512  -0.632   5.031   0.332 -0.0368 -0.1442  1.1223
  330MOL0     H43513  -0.898   5.081   0.382 -0.1863  0.1178 -0.8994
  330MOL0     H43514  -1.021   5.411   0.211  0.8834 -0.9416 -1.5015
  330MOL0     H43515  -1.087   5.331   0.359  1.4579  4.2015  1.8424
  330MOL0     H43516  -1.099   5.113   0.267 -2.1982 -2.0985 -3.7691
  330MOL0     H43517  -1.010   5.155   0.118 -1.4933 -2.2838  0.0034
  330MOL0     H43518  -1.284   5.247   0.182 -0.7392 -3.0533 -0.9983
  330MOL0     H43519  -1.183   5.318   0.061  2.2416 -0.6180 -0.6493
  330MOL0     H43520  -1.134   5.106  -0.042  1.0453  1.3461 -0.5976
  330MOL0     H43521  -1.306   5.173  -0.063 -0.9251  2.1696  3.0612
  330MOL0     H43522  -1.365   4.888   0.282 -0.9233 -2.8187 -0.5384
  330MOL0     H43523  -1.606   4.844   0.339 -2.4456  2.0790  1.5000
  330MOL0     H43524  -1.922   4.661   0.464 -1.8813 -2.3302 -2.0139
  330MOL0     H43525  -2.137   4.673   0.602 -0.8557 -0.1194  0.2899
  330MOL0     H43526  -2.376   5.066   0.564 -0.6762  0.4620  0.3043
  330MOL0     H43527  -2.268   5.035   0.696 -0.7223  0.0177  1.8019
  330MOL0     H43528  -2.447   5.064   0.814  3.1303 -0.2799 -0.3188
  330MOL0     H43529  -2.452   4.884   0.814  3.5788 -0.9191 -0.6793
  330MOL0     H43530  -2.590   4.910   0.590  1.1000  1.3086 -0.4257
  330MOL0     H43531  -2.647   5.064   0.659  0.0613  0.6905 -1.0270
  330MOL0     H43532  -2.660   4.819   0.826 -0.3941  0.8808  1.9540
  330MOL0     H43533  -2.740   4.984   0.835  1.4599  2.6251 -2.1328
  330MOL0     H43534  -2.889   4.912   0.643 -2.6395  1.6210  4.4221
  330MOL0     H43535  -2.900   4.818   0.782 -1.2796 -0.0815 -1.5635
  330MOL0     H43536  -2.748   4.652   0.717 -1.5454 -0.8951  0.4044
  330MOL0     H43537  -2.723   4.733   0.551 -0.9659  0.3040 -0.7693
  330MOL0     H43538  -2.980   4.621   0.664  0.0689 -2.2861  1.0525
  330MOL0     H43539  -2.932   4.676   0.486  1.2318 -0.1576 -0.8008
  330MOL0     H43540  -2.785   4.502   0.454  0.1533 -2.3251  0.1149
  330MOL0     H43541  -2.940   4.432   0.514  0.9363 -1.8845  1.4898
  330MOL0     H43542  -2.243   5.045   0.408 -1.5704 -1.9928 -3.6191
  330MOL0     H43543  -2.032   5.035   0.277  0.7497  0.9696  2.1447
  330MOL0     H43544  -1.716   5.056  -0.023  0.6844 -1.4261 -2.8856
  330MOL0     H43545  -1.475   5.065  -0.083  0.5657 -2.3213 -0.7567
  330MOL0     H43546   0.292   5.238   1.077  1.9716 -1.4921 -0.7587
  330MOL0     H43547   0.462   5.159   1.237  0.1508  0.1603  0.5694
  330MOL0     H43548   0.541   4.789   1.546 -1.1758 -1.7231  1.4256
  330MOL0     H43549   0.685   4.673   1.675 -0.8761 -0.0564 -1.3064
  330MOL0     H43550   0.847   4.874   2.056  2.5190  1.5535  1.3401
  330MOL0     H43551   0.987   4.902   1.951  2.9025 -1.2502  0.6314
  330MOL0     H43552   0.923   4.617   2.047  1.1484 -1.7145 -1.3776
  330MOL0     H43553   1.081   4.697   2.005 -1.1463  1.5927 -2.9468
  330MOL0     H43554   1.105   4.801   2.205  1.4514 -0.2984  2.0021
  330MOL0     H43555   1.085   4.631   2.222  2.7311  1.9312 -0.2934
  330MOL0     H43556   0.922   4.764   2.403  0.1954 -1.3251  0.1699
  330MOL0     H43557   0.845   4.821   2.256  0.0361  0.3575  1.1848
  330MOL0     H43558   0.728   4.411   2.277  2.0200 -1.0949 -0.6620
  330MOL0     H43559   0.852   5.032   1.833 -2.1700  0.2754  1.4264
  330MOL0     H43560   0.718   5.164   1.680 -0.6169 -0.1597  0.9000
  331MOL0     O43561   3.388   7.868   1.513  0.7259  0.1454 -0.1126
  331MOL0     C43562   3.425   7.816   1.619 -0.0996  0.1070 -0.0275
  331MOL0     O43563   3.340   7.786   1.715  0.9966 -0.1792  0.2377
  331MOL0     C43564   3.219   7.736   1.693  0.2126  0.3065 -0.2278
  331MOL0     C43565   3.141   7.729   1.805 -0.5932 -0.2051 -0.7685
  331MOL0     C43566   3.010   7.689   1.789 -0.1264 -0.6021 -0.4461
  331MOL0     C43567   2.954   7.633   1.668  0.0469  0.0112 -0.1816
  331MOL0     O43568   2.827   7.582   1.659 -0.3137  0.8813 -0.0071
  331MOL0     C43569   2.748   7.589   1.537 -0.4811  0.2144 -0.0344
  331MOL0     C43570   2.604   7.597   1.590  0.5872  0.3756  0.1213
  331MOL0     C43571   2.504   7.552   1.470  0.3476  0.5544 -0.2275
  331MOL0     C43572   2.354   7.544   1.520 -0.3896  0.4683  0.2506
  331MOL0     C43573   2.315   7.413   1.587 -0.5065 -0.3564  0.2588
  331MOL0     C43574   2.291   7.310   1.484 -0.1600  0.4501  0.0876
  331MOL0     C43575   2.259   7.171   1.538  0.7017 -1.7352  0.7943
  331MOL0     C43576   2.229   7.078   1.421  0.8667  0.1710 -0.2932
  331MOL0     N43577   2.217   6.953   1.490 -0.1250  0.1143 -0.4964
  331MOL0     C43578   2.096   6.899   1.539  0.5368  0.2754 -0.9064
  331MOL0     C43579   2.128   6.764   1.561  0.0845 -0.0073 -0.8236
  331MOL0     C43580   2.035   6.653   1.627 -0.7285 -0.0882 -0.1180
  331MOL0     C43581   1.877   6.684   1.613  0.3088  0.2867  0.3586
  331MOL0     C43582   1.825   6.696   1.474 -0.6556 -0.6541  0.0310
  331MOL0     C43583   1.875   6.581   1.381  0.1564  0.4422 -0.1352
  331MOL0     O43584   1.843   6.452   1.430 -0.5076  0.5571 -0.5530
  331MOL0     C43585   1.707   6.405   1.407  0.3698 -0.2556 -0.1839
  331MOL0     C43586   1.680   6.278   1.459  0.1686  0.0072 -0.1664
  331MOL0     C43587   1.554   6.228   1.455 -0.2354  0.8951 -0.1341
  331MOL0     C43588   1.453   6.293   1.379  0.3060  0.4966 -0.5517
  331MOL0     C43589   1.319   6.235   1.369  0.4943  0.3362  0.2990
  331MOL0     O43590   1.290   6.144   1.468 -0.4598 -0.0940 -0.4933
  331MOL0     C43591   1.171   6.081   1.457  0.0207 -0.0449 -0.5997
  331MOL0     C43592   1.088   6.101   1.572  0.5661  1.0048  0.4168
  331MOL0     C43593   0.976   6.024   1.587 -0.2293  1.2729  0.6009
  331MOL0     C43594   0.932   5.945   1.480  0.8552 -0.0108 -0.3928
  331MOL0     O43595   0.820   5.872   1.487 -0.4686  0.5168  0.5235
  331MOL0     C43596   0.762   5.848   1.361 -0.8783 -0.1471  0.1207
  331MOL0     C43597   0.621   5.811   1.400 -0.6856  0.4524  0.0230
  331MOL0     C43598   0.529   5.874   1.298  0.4770 -0.8498 -0.4796
  331MOL0     C43599   0.383   5.852   1.346 -0.4879  0.6315  0.8861
  331MOL0     C43600   0.291   5.910   1.243  0.1142  0.3936  0.6831
  331MOL0     C43601   0.138   5.870   1.256  0.1498  0.2143 -0.1402
  331MOL0     C43602   0.067   5.890   1.386  0.1433  0.4564 -0.2436
  331MOL0     C43603  -0.085   5.856   1.368 -0.2859 -0.1888 -0.2206
  331MOL0    Cl43604  -0.150   6.016   1.328  0.3026  0.4636  0.1141
  331MOL0     C43605   1.016   5.934   1.365 -0.6982 -0.3827  0.2462
  331MOL0     C43606   1.142   5.994   1.357  0.5467  0.1423 -0.0703
  331MOL0     O43607   1.250   6.267   1.274 -0.1265 -1.1486 -0.4827
  331MOL0     C43608   1.476   6.413   1.307  0.6370  0.9873 -0.0558
  331MOL0     C43609   1.602   6.471   1.335 -0.7571  0.5359  0.6620
  331MOL0     N43610   2.255   6.739   1.518 -0.3147 -0.9271  0.0108
  331MOL0     N43611   2.313   6.851   1.478 -0.3828  0.3830 -0.7234
  331MOL0     C43612   3.038   7.641   1.563 -0.0414  1.1066  0.0246
  331MOL0     C43613   3.165   7.687   1.571 -0.2498  0.3226  0.6908
  331MOL0     C43614   3.573   7.806   1.631 -0.2185  0.0197  0.4681
  331MOL0     C43615   3.661   7.833   1.521  0.3381 -1.0844  0.3353
  331MOL0     C43616   3.797   7.838   1.520 -1.2056 -0.3315  0.0336
  331MOL0     C43617   3.858   7.828   1.648 -0.2508  0.4088  0.0806
  331MOL0     O43618   3.995   7.825   1.667  0.2023 -0.6033 -0.2805
  331MOL0     C43619   4.073   7.867   1.551  0.7662  0.2610  0.1463
  331MOL0     C43620   4.216   7.893   1.597 -0.7331 -0.7750 -0.1992
  331MOL0     C43621   4.313   7.911   1.487 -0.0870 -0.0117  0.1685
  331MOL0     C43622   4.451   7.850   1.503  1.0103  0.2070  0.1032
  331MOL0     C43623   4.550   7.878   1.399  0.4490 -0.2369  0.5419
  331MOL0     C43624   4.625   7.906   1.306 -0.5409  0.0779 -0.3065
  331MOL0     C43625   3.776   7.789   1.762  0.5105 -0.6510 -0.1399
  331MOL0     C43626   3.634   7.774   1.748  0.7735 -0.4302  0.5199
  331MOL0     H43627   3.172   7.770   1.900 -0.4911 -0.9818 -0.4609
  331MOL0     H43628   2.960   7.705   1.884  1.0696  1.2768 -0.0952
  331MOL0     H43629   2.770   7.497   1.482 -0.1585  0.6704 -0.6762
  331MOL0     H43630   2.780   7.679   1.484  2.1496  0.3117  1.5140
  331MOL0     H43631   2.591   7.694   1.638 -1.0530 -0.5228  1.6416
  331MOL0     H43632   2.574   7.523   1.666 -3.2851  2.7042  1.1568
  331MOL0     H43633   2.537   7.454   1.435  0.4591 -0.6645  2.9475
  331MOL0     H43634   2.515   7.616   1.382 -1.1300 -0.6316 -1.3146
  331MOL0     H43635   2.348   7.625   1.593  0.2547 -0.0227  0.8708
  331MOL0     H43636   2.285   7.570   1.440  0.6652  0.9473 -0.5265
  331MOL0     H43637   2.221   7.432   1.641 -1.2108 -0.4508 -0.8937
  331MOL0     H43638   2.386   7.383   1.665 -1.4970 -0.5116  1.1386
  331MOL0     H43639   2.383   7.294   1.426  0.0804  1.1260  0.2711
  331MOL0     H43640   2.209   7.336   1.417 -2.1506 -1.1000  1.8219
  331MOL0     H43641   2.343   7.135   1.597  3.3630 -0.2032 -1.8044
  331MOL0     H43642   2.162   7.181   1.587  0.4307 -4.6924  1.0159
  331MOL0     H43643   2.311   7.066   1.350  1.0610  2.5963 -0.5766
  331MOL0     H43644   2.137   7.104   1.367  0.7784 -1.0320 -0.7613
  331MOL0     H43645   2.006   6.948   1.574  0.4715 -1.5301  1.7021
  331MOL0     H43646   2.054   6.645   1.735 -0.1012  2.0825 -0.0227
  331MOL0     H43647   2.050   6.557   1.578  1.5093  1.0297 -1.7841
  331MOL0     H43648   1.866   6.775   1.673  2.7944  2.4383 -2.1310
  331MOL0     H43649   1.823   6.604   1.664 -1.0107  1.2746  0.5711
  331MOL0     H43650   1.717   6.703   1.483 -0.7867 -1.5314 -0.7194
  331MOL0     H43651   1.866   6.784   1.423  2.8828 -0.5408  2.6324
  331MOL0     H43652   1.980   6.597   1.357 -0.1440  1.3594 -0.8916
  331MOL0     H43653   1.833   6.592   1.280 -2.5650  0.5574  0.9158
  331MOL0     H43654   1.758   6.220   1.507 -1.2709 -1.7537  0.1575
  331MOL0     H43655   1.528   6.132   1.501 -1.1801 -0.0211 -2.4485
  331MOL0     H43656   1.119   6.183   1.636  2.9757  0.7593 -0.3335
  331MOL0     H43657   0.913   6.040   1.673  1.1298  4.6072  1.1204
  331MOL0     H43658   0.814   5.762   1.316 -1.0998 -0.7779  1.0335
  331MOL0     H43659   0.770   5.937   1.297 -0.1277 -0.0055  0.4017
  331MOL0     H43660   0.605   5.847   1.502 -0.8873  0.1036  0.1169
  331MOL0     H43661   0.618   5.702   1.398 -3.0744  0.3949  2.1243
  331MOL0     H43662   0.547   5.830   1.199  2.1226 -1.7391  0.1790
  331MOL0     H43663   0.543   5.983   1.296 -1.7319 -0.5301 -1.1101
  331MOL0     H43664   0.381   5.743   1.343  2.2533  0.4606 -3.6657
  331MOL0     H43665   0.377   5.893   1.448  2.6279  1.4781  0.8457
  331MOL0     H43666   0.320   5.880   1.142  1.4640  1.8258  0.6016
  331MOL0     H43667   0.309   6.018   1.251 -0.0875  0.4080  0.9350
  331MOL0     H43668   0.121   5.766   1.226  3.3268 -0.4408  0.0032
  331MOL0     H43669   0.087   5.931   1.182 -0.0498  0.8153  0.4790
  331MOL0     H43670   0.104   5.818   1.460  1.5231  0.7915 -0.5873
  331MOL0     H43671   0.079   5.990   1.428  0.6655 -0.4661  1.9477
  331MOL0     H43672  -0.125   5.817   1.462  4.2294 -0.9519  1.6592
  331MOL0     H43673  -0.109   5.785   1.288  0.0231 -3.4530  2.3719
  331MOL0     H43674   0.999   5.879   1.273  0.5278  1.0716 -0.8868
  331MOL0     H43675   1.206   5.988   1.269 -0.5626  0.6135 -0.9415
  331MOL0     H43676   1.396   6.457   1.250 -0.8921  0.3494  1.5199
  331MOL0     H43677   1.624   6.575   1.310  3.0730 -0.0551  0.9745
  331MOL0     H43678   2.998   7.593   1.474  1.4718  0.9845 -0.6217
  331MOL0     H43679   3.233   7.681   1.487  1.4099 -0.0258  2.0050
  331MOL0     H43680   3.604   7.848   1.429 -2.7560  2.7835  2.5773
  331MOL0     H43681   3.851   7.858   1.428  0.3991 -0.1189  0.9866
  331MOL0     H43682   4.033   7.958   1.504  2.3549  1.1602  0.4598
  331MOL0     H43683   4.064   7.793   1.471  0.6884  2.6793 -2.2314
  331MOL0     H43684   4.207   7.985   1.656 -0.5987 -0.0138 -1.3383
  331MOL0     H43685   4.251   7.814   1.664  2.7078  0.6121 -0.1532
  331MOL0     H43686   4.334   8.014   1.458  4.5406 -0.2022  1.9259
  331MOL0     H43687   4.270   7.864   1.398  2.0565 -0.5694 -0.6495
  331MOL0     H43688   4.498   7.881   1.597 -1.9898 -1.3607  2.2891
  331MOL0     H43689   4.448   7.741   1.506 -1.8186  0.1905 -0.0319
  331MOL0     H43690   4.697   7.922   1.228  0.6644  0.3551  0.8130
  331MOL0     H43691   3.821   7.777   1.860  1.9998  1.7117 -0.4783
  331MOL0     H43692   3.570   7.751   1.832  1.5706 -0.7839  1.0381
  332MOL0     O43693  10.237   1.953   5.485  0.1369  1.1227 -0.2294
  332MOL0     C43694  10.267   2.069   5.486  0.3745  0.3158  0.4121
  332MOL0     O43695  10.203   2.170   5.422  0.3834  0.4344 -0.4428
  332MOL0     C43696  10.068   2.149   5.405  0.1171  0.7397  0.4386
  332MOL0     C43697   9.974   2.087   5.496 -0.4456  0.3097  0.4170
  332MOL0     C43698   9.831   2.092   5.473  0.1416  0.0108 -0.3069
  332MOL0     C43699   9.787   2.137   5.346 -0.9741 -0.8118  0.7895
  332MOL0     O43700   9.658   2.131   5.299 -0.0985  0.1290  0.1313
  332MOL0     C43701   9.572   2.036   5.363  0.0115 -0.0633 -0.2468
  332MOL0     C43702   9.438   2.043   5.283 -0.6711  0.2011 -0.6089
  332MOL0     C43703   9.332   1.983   5.375 -0.8524  0.1831  0.0277
  332MOL0     C43704   9.193   1.983   5.316  0.5690 -0.7484  0.5880
  332MOL0     C43705   9.090   1.948   5.425  0.0154 -0.2863 -0.4912
  332MOL0     C43706   8.951   1.955   5.368 -0.2611  0.0832  0.3385
  332MOL0     C43707   8.843   1.927   5.472  0.0637  0.0287 -0.0911
  332MOL0     C43708   8.707   1.972   5.411  0.8136 -0.4226  0.0477
  332MOL0     N43709   8.585   1.911   5.477 -0.2499  0.2811  0.6536
  332MOL0     C43710   8.548   1.917   5.606  0.2272 -0.9455  0.3102
  332MOL0     C43711   8.433   1.844   5.604  0.1749 -0.4959 -0.4177
  332MOL0     C43712   8.335   1.806   5.711  0.3046  0.2468 -0.0577
  332MOL0     C43713   8.363   1.664   5.765  0.1797 -0.2715 -0.6896
  332MOL0     C43714   8.479   1.659   5.872  0.9348  0.7558 -0.2581
  332MOL0     C43715   8.615   1.640   5.820  0.0233 -0.2743  0.0222
  332MOL0     O43716   8.686   1.768   5.840 -0.0394 -0.2616 -0.1250
  332MOL0     C43717   8.824   1.782   5.828 -0.1843  0.0361  0.1134
  332MOL0     C43718   8.881   1.912   5.843  0.5419 -0.1648  0.5682
  332MOL0     C43719   9.010   1.927   5.818  0.8750 -1.0993 -0.9224
  332MOL0     C43720   9.087   1.816   5.773 -0.3820 -0.9381 -0.1543
  332MOL0     C43721   9.230   1.835   5.750  0.3813 -0.3740  0.4350
  332MOL0     O43722   9.293   1.927   5.840 -0.5853 -0.4049 -0.3387
  332MOL0     C43723   9.430   1.926   5.859 -0.3044  0.0639  0.7516
  332MOL0     C43724   9.495   1.819   5.909  0.0209  0.5194  0.5844
  332MOL0     C43725   9.634   1.819   5.931 -0.0765 -0.1180 -0.0030
  332MOL0     C43726   9.713   1.931   5.908  0.4901  0.4561 -0.8085
  332MOL0     O43727   9.844   1.945   5.939 -0.5938  0.0368  1.4859
  332MOL0     C43728   9.925   1.837   5.879 -0.1437 -0.6710  0.0183
  332MOL0     C43729  10.013   1.774   5.983  0.3247  0.2899 -0.0929
  332MOL0     C43730  10.120   1.875   6.049  0.0902 -0.1575  0.1002
  332MOL0     C43731  10.250   1.802   6.090 -0.2510  0.3714 -0.0835
  332MOL0     C43732  10.342   1.803   5.968 -0.4933 -0.1093  0.1671
  332MOL0     C43733  10.491   1.765   5.983  0.2412  0.1054 -0.4844
  332MOL0     C43734  10.519   1.640   6.068  1.0395 -0.8261 -0.5805
  332MOL0     C43735  10.664   1.586   6.059 -0.3329  0.1370  0.3495
  332MOL0    Cl43736  10.777   1.723   6.091 -0.6534 -0.0904 -0.1413
  332MOL0     C43737   9.643   2.044   5.861 -0.6392 -0.0119  0.0129
  332MOL0     C43738   9.510   2.039   5.830 -0.0851 -0.6676  0.0197
  332MOL0     O43739   9.283   1.752   5.675 -0.3298  0.0672 -0.2808
  332MOL0     C43740   9.029   1.692   5.742 -0.0392 -0.4675 -0.0804
  332MOL0     C43741   8.895   1.672   5.769 -0.5837  0.4160 -0.5072
  332MOL0     N43742   8.407   1.800   5.481  0.6156 -0.3595  0.3641
  332MOL0     N43743   8.500   1.832   5.400 -0.4726 -0.5686 -0.4113
  332MOL0     C43744   9.880   2.189   5.258  0.3275  0.6161  0.2000
  332MOL0     C43745  10.011   2.192   5.285 -0.4713 -0.2381  0.3767
  332MOL0     C43746  10.374   2.112   5.574  0.1392 -0.7108 -0.0994
  332MOL0     C43747  10.396   2.253   5.603 -0.5141  0.7368  0.8371
  332MOL0     C43748  10.499   2.283   5.698 -0.4962  0.1501  0.1925
  332MOL0     C43749  10.585   2.189   5.757 -0.6855 -0.4679  1.2026
  332MOL0     O43750  10.686   2.240   5.825 -0.0192 -0.4869  0.8377
  332MOL0     C43751  10.813   2.186   5.806 -0.2429  0.5857  0.5247
  332MOL0     C43752  10.863   2.195   5.663  0.1537 -0.2748 -0.0089
  332MOL0     C43753  10.911   2.340   5.627  0.3531  0.6231  0.0348
  332MOL0     C43754  10.951   2.373   5.487  0.5395 -0.0274 -0.2975
  332MOL0     C43755  10.868   2.324   5.383 -0.6636 -1.0153 -0.1591
  332MOL0     C43756  10.798   2.269   5.307 -0.1681 -0.0943 -0.4933
  332MOL0     C43757  10.555   2.059   5.725 -0.0376  0.5737  0.5719
  332MOL0     C43758  10.458   2.011   5.638 -0.1126 -0.6992  0.7245
  332MOL0     H43759   9.997   2.039   5.590 -1.1309  0.6879  0.7839
  332MOL0     H43760   9.760   2.074   5.553 -0.7013  3.6051 -0.0491
  332MOL0     H43761   9.555   2.078   5.463  0.1769 -1.1294  0.2360
  332MOL0     H43762   9.613   1.936   5.352  2.8431  1.1309 -1.6483
  332MOL0     H43763   9.456   1.991   5.189  2.0342 -0.7635  0.3271
  332MOL0     H43764   9.404   2.146   5.272  2.3108  1.5489  1.2619
  332MOL0     H43765   9.332   2.040   5.468 -2.2233 -2.3674  1.6947
  332MOL0     H43766   9.372   1.883   5.392  0.6278  0.4657 -1.4249
  332MOL0     H43767   9.171   2.080   5.271 -1.3210 -1.3125  0.2110
  332MOL0     H43768   9.188   1.903   5.242  0.9970 -1.3214  1.1693
  332MOL0     H43769   9.100   2.019   5.508  0.7428 -1.0481  0.1018
  332MOL0     H43770   9.098   1.847   5.466 -0.0083  0.3817  1.2665
  332MOL0     H43771   8.935   1.890   5.281 -0.4819 -2.0161  1.8592
  332MOL0     H43772   8.937   2.050   5.317 -1.7887  1.8072  3.6884
  332MOL0     H43773   8.859   1.829   5.519  1.0928  1.4916  2.9266
  332MOL0     H43774   8.866   1.987   5.561  4.5721 -0.8633 -0.4228
  332MOL0     H43775   8.713   1.941   5.306  3.5735  1.7476 -0.5425
  332MOL0     H43776   8.696   2.080   5.410  0.8230 -0.4234 -0.3284
  332MOL0     H43777   8.575   1.982   5.688  3.4643  0.2914 -1.5529
  332MOL0     H43778   8.237   1.800   5.663  1.3776 -0.7262 -2.2709
  332MOL0     H43779   8.343   1.881   5.790 -0.7082 -0.0678  0.3545
  332MOL0     H43780   8.390   1.596   5.684  0.1153  0.3313 -1.2175
  332MOL0     H43781   8.269   1.622   5.802 -1.8561  2.1224 -2.7856
  332MOL0     H43782   8.470   1.746   5.936 -0.1311  0.1304  0.4808
  332MOL0     H43783   8.457   1.566   5.926  0.5092  1.8592  1.5265
  332MOL0     H43784   8.621   1.626   5.711  3.2953 -3.7545  0.4262
  332MOL0     H43785   8.654   1.550   5.869  2.8659  0.8885  0.0690
  332MOL0     H43786   8.820   1.998   5.866  2.2362  1.5084 -0.9318
  332MOL0     H43787   9.043   2.029   5.835 -2.2343 -0.5443  3.6669
  332MOL0     H43788   9.440   1.725   5.911 -1.2303  1.1725 -0.8570
  332MOL0     H43789   9.671   1.723   5.967  2.5369 -1.0231 -4.3147
  332MOL0     H43790   9.979   1.877   5.793 -2.6999  1.1587 -0.8693
  332MOL0     H43791   9.860   1.756   5.846 -1.3877  0.7804 -1.2979
  332MOL0     H43792  10.069   1.688   5.943 -0.0833 -1.1836  2.2727
  332MOL0     H43793   9.947   1.736   6.062  0.1939  0.8245  0.0614
  332MOL0     H43794  10.068   1.914   6.137  1.5718 -0.0277  0.9362
  332MOL0     H43795  10.138   1.957   5.979  1.0133 -1.4426 -1.2317
  332MOL0     H43796  10.288   1.858   6.175 -1.2638  0.3826  0.3811
  332MOL0     H43797  10.233   1.701   6.129 -0.5450 -0.0056 -1.1378
  332MOL0     H43798  10.341   1.904   5.926  0.0034  0.7406  2.0594
  332MOL0     H43799  10.288   1.731   5.906 -1.0202 -0.9019  1.4980
  332MOL0     H43800  10.544   1.849   6.028  1.6802  0.3450 -2.4759
  332MOL0     H43801  10.543   1.757   5.887 -0.7250 -0.1886 -0.9957
  332MOL0     H43802  10.492   1.658   6.173 -1.5536 -1.7361 -1.0414
  332MOL0     H43803  10.447   1.561   6.045 -2.1933  1.5367  0.6064
  332MOL0     H43804  10.687   1.545   5.960  1.4292  3.3655 -0.7149
  332MOL0     H43805  10.690   1.516   6.139 -0.3931  2.1171  2.1905
  332MOL0     H43806   9.704   2.130   5.836  0.7070 -1.0589 -0.4687
  332MOL0     H43807   9.456   2.127   5.795  0.1559 -1.2546 -1.9251
  332MOL0     H43808   9.088   1.614   5.695  1.7043 -1.0900  2.8857
  332MOL0     H43809   8.860   1.577   5.730  2.9336  0.3539 -4.1198
  332MOL0     H43810   9.858   2.213   5.154  0.5500  1.8448  0.4227
  332MOL0     H43811  10.081   2.227   5.210 -0.1669 -0.4061  0.5805
  332MOL0     H43812  10.332   2.332   5.566 -2.4938  0.7233  3.9064
  332MOL0     H43813  10.521   2.386   5.723 -3.1699  0.7778  0.2106
  332MOL0     H43814  10.816   2.078   5.821  0.6198  0.0900 -2.6511
  332MOL0     H43815  10.884   2.223   5.881 -0.7675  1.9553  0.3819
  332MOL0     H43816  10.955   2.137   5.651  0.9240  0.1502  3.0752
  332MOL0     H43817  10.788   2.146   5.600 -0.7059 -1.6546  1.9906
  332MOL0     H43818  10.999   2.355   5.691  0.5634  0.0782 -0.1246
  332MOL0     H43819  10.826   2.406   5.648  0.6089  0.7398  0.7372
  332MOL0     H43820  10.943   2.481   5.477  2.1909 -0.0056 -1.9909
  332MOL0     H43821  11.055   2.341   5.470  1.3167  2.5996 -0.8898
  332MOL0     H43822  10.735   2.208   5.245 -0.9989  0.9571 -0.7244
  332MOL0     H43823  10.623   1.987   5.769 -1.7690 -1.3835  0.1907
  332MOL0     H43824  10.471   1.911   5.597  0.0267  0.4602 -2.3425
  333MOL0     O43825   0.255   2.743   9.662  0.4590 -0.2717  0.2606
  333MOL0     C43826   0.171   2.835   9.660 -0.7495  0.0684  0.2339
  333MOL0     O43827   0.192   2.967   9.686 -0.7569  0.0427 -0.2363
  333MOL0     C43828   0.319   3.008   9.709  0.7913 -0.3690 -0.7830
  333MOL0     C43829   0.422   2.934   9.764 -0.4370 -0.0399 -0.5401
  333MOL0     C43830   0.554   2.991   9.785 -0.0761 -0.6101 -0.0244
  333MOL0     C43831   0.579   3.120   9.748  0.1637  0.3188 -1.2326
  333MOL0     O43832   0.709   3.172   9.760  0.2753  0.0747  0.0717
  333MOL0     C43833   0.707   3.307   9.801 -1.0639 -0.1126  0.1883
  333MOL0     C43834   0.849   3.342   9.864 -0.1318 -0.1138  0.1669
  333MOL0     C43835   0.974   3.315   9.782  0.0872 -1.3910 -0.0243
  333MOL0     C43836   1.098   3.372   9.854 -0.4487 -0.6014 -0.0737
  333MOL0     C43837   1.229   3.333   9.791 -0.0914 -0.0766  0.8334
  333MOL0     C43838   1.287   3.455   9.719 -0.7176 -0.0747  0.1871
  333MOL0     C43839   1.436   3.430   9.696 -0.9389 -1.0178 -0.2315
  333MOL0     C43840   1.520   3.558   9.645 -0.0661 -0.1071 -0.5597
  333MOL0     N43841   1.654   3.540   9.684  0.2723  0.0509 -0.1680
  333MOL0     C43842   1.744   3.454   9.610  0.7205 -0.0438 -0.7872
  333MOL0     C43843   1.867   3.501   9.651 -0.0089 -0.0107 -0.1855
  333MOL0     C43844   1.990   3.430   9.630 -0.6503  0.5392 -0.5409
  333MOL0     C43845   2.107   3.465   9.734  1.1346 -0.1147  0.0545
  333MOL0     C43846   2.240   3.456   9.670  0.3304 -0.0674 -0.8597
  333MOL0     C43847   2.349   3.514   9.771  0.8269 -0.4049  0.8688
  333MOL0     O43848   2.472   3.456   9.717  1.1430  0.7568 -0.2507
  333MOL0     C43849   2.600   3.479   9.767  0.1424 -0.4135  0.4404
  333MOL0     C43850   2.631   3.548   9.883  0.1733 -0.3572 -0.4521
  333MOL0     C43851   2.768   3.573   9.913  0.5249  0.0331  0.0932
  333MOL0     C43852   2.869   3.514   9.833  0.4184  0.5413 -0.4006
  333MOL0     C43853   3.010   3.525   9.872 -0.0846 -0.3249  0.1464
  333MOL0     O43854   3.027   3.568  10.003 -0.0476  0.8369 -0.1123
  333MOL0     C43855   3.161   3.580  10.030  0.7680 -0.0489  0.3359
  333MOL0     C43856   3.219   3.512  10.135 -0.5410  0.7005 -0.7811
  333MOL0     C43857   3.349   3.533  10.182  1.1544 -0.0581 -0.2452
  333MOL0     C43858   3.432   3.633  10.125 -0.0719  0.4270 -0.5230
  333MOL0     O43859   3.555   3.665  10.179  0.4007  0.1780  0.2639
  333MOL0     C43860   3.653   3.569  10.199 -0.4624 -0.0659 -0.2670
  333MOL0     C43861   3.677   3.457  10.090 -0.2620 -0.3332 -0.1097
  333MOL0     C43862   3.713   3.511   9.962 -0.5189 -0.0705 -0.3083
  333MOL0     C43863   3.642   3.424   9.859 -0.9383  0.1329  0.0564
  333MOL0     C43864   3.692   3.436   9.708 -0.1805  1.0421 -0.7369
  333MOL0     C43865   3.688   3.569   9.649 -0.4680 -0.5952  0.5552
  333MOL0     C43866   3.673   3.581   9.495  0.8415 -0.1868 -0.3481
  333MOL0     C43867   3.759   3.676   9.416 -0.3357 -0.1824  0.1035
  333MOL0    Cl43868   3.696   3.656   9.248 -0.1153 -0.2657  0.2656
  333MOL0     C43869   3.378   3.708  10.028  0.7161 -0.2944  0.1069
  333MOL0     C43870   3.246   3.688   9.976  0.1391  0.1162 -0.2253
  333MOL0     O43871   3.101   3.489   9.793 -0.1847 -0.3122 -0.5330
  333MOL0     C43872   2.835   3.433   9.728 -0.2351  0.5292  0.3528
  333MOL0     C43873   2.702   3.416   9.692  0.4650 -0.2626  0.6170
  333MOL0     N43874   1.857   3.608   9.731 -0.2712  0.7699 -0.0551
  333MOL0     N43875   1.734   3.638   9.750 -0.4882  1.2531 -0.3504
  333MOL0     C43876   0.471   3.196   9.704 -0.3193 -0.2382  0.1606
  333MOL0     C43877   0.344   3.141   9.688 -0.5987 -0.6679 -0.5911
  333MOL0     C43878   0.032   2.787   9.668  0.3858 -0.2296 -1.0695
  333MOL0     C43879  -0.062   2.872   9.740 -0.2095 -0.3489  0.6912
  333MOL0     C43880  -0.198   2.832   9.738 -0.4707 -0.7726 -0.8234
  333MOL0     C43881  -0.233   2.715   9.670 -0.2560 -0.5641 -1.3274
  333MOL0     O43882  -0.361   2.667   9.672 -0.0760 -0.6004 -0.7182
  333MOL0     C43883  -0.423   2.698   9.552 -0.3100 -0.6855  0.0223
  333MOL0     C43884  -0.564   2.640   9.551 -1.3046 -0.9110  0.4591
  333MOL0     C43885  -0.541   2.497   9.509  0.1737  1.2861 -0.5901
  333MOL0     C43886  -0.664   2.404   9.538 -0.3688 -0.9469 -0.4881
  333MOL0     C43887  -0.741   2.399   9.414 -1.1632  1.0197  0.9029
  333MOL0     C43888  -0.807   2.387   9.315  0.6494 -0.2462  0.3104
  333MOL0     C43889  -0.142   2.633   9.605  0.2205 -0.1508  0.9537
  333MOL0     C43890  -0.005   2.666   9.612  0.6608 -0.0248  0.3384
  333MOL0     H43891   0.422   2.831   9.799  0.1987 -0.3287 -1.3613
  333MOL0     H43892   0.636   2.932   9.825  0.2713 -0.2260 -0.1673
  333MOL0     H43893   0.628   3.334   9.872 -3.2834  3.5685 -3.2504
  333MOL0     H43894   0.690   3.372   9.715 -2.0289  2.6615  2.3595
  333MOL0     H43895   0.865   3.289   9.958  1.5643  1.1772  0.6683
  333MOL0     H43896   0.846   3.449   9.888  2.6193 -0.2722  1.6825
  333MOL0     H43897   0.972   3.368   9.686  0.7148  2.1084  1.7378
  333MOL0     H43898   1.001   3.209   9.774  2.8144 -0.8178  0.6953
  333MOL0     H43899   1.085   3.480   9.861  2.9948 -0.0245 -0.9525
  333MOL0     H43900   1.101   3.348   9.960  1.9072  4.1232  1.1822
  333MOL0     H43901   1.232   3.240   9.732  3.3907  0.9790 -0.9907
  333MOL0     H43902   1.294   3.310   9.876  0.6590  2.1945  0.9247
  333MOL0     H43903   1.280   3.539   9.789  0.4677 -0.8493  1.2714
  333MOL0     H43904   1.228   3.481   9.631  0.6031 -0.1205 -0.7472
  333MOL0     H43905   1.482   3.396   9.790  2.0124  1.7621 -0.4785
  333MOL0     H43906   1.446   3.354   9.619 -1.9624 -0.3550 -1.0406
  333MOL0     H43907   1.475   3.646   9.692 -0.2684 -0.5116  0.0066
  333MOL0     H43908   1.508   3.570   9.537  0.1640 -0.4583 -0.6272
  333MOL0     H43909   1.707   3.371   9.550 -0.3078 -1.3845  1.5569
  333MOL0     H43910   2.023   3.457   9.530  1.0324 -0.0650 -0.1892
  333MOL0     H43911   1.971   3.322   9.634  5.3358 -0.8524 -0.0560
  333MOL0     H43912   2.110   3.391   9.815  0.9475 -0.5497 -0.3334
  333MOL0     H43913   2.093   3.570   9.762  1.3585  0.8509 -3.0231
  333MOL0     H43914   2.264   3.351   9.653  0.6965 -1.3535  5.2083
  333MOL0     H43915   2.249   3.521   9.582 -0.1136  0.6607 -0.3786
  333MOL0     H43916   2.329   3.484   9.874 -1.6135  2.6867  1.4234
  333MOL0     H43917   2.341   3.623   9.764 -0.7401 -0.3400  3.0068
  333MOL0     H43918   2.556   3.596   9.945  1.9461 -0.9121  2.3065
  333MOL0     H43919   2.793   3.621  10.007  1.6996 -2.0092  0.9044
  333MOL0     H43920   3.160   3.443  10.194 -0.8595  0.0616 -1.8197
  333MOL0     H43921   3.390   3.477  10.264 -0.2683  1.8413  1.8875
  333MOL0     H43922   3.630   3.521  10.295 -1.4513  0.0343 -0.4509
  333MOL0     H43923   3.742   3.622  10.235  0.1953 -1.4212  0.1869
  333MOL0     H43924   3.585   3.399  10.088 -0.4969  0.0368 -2.0841
  333MOL0     H43925   3.751   3.401  10.147 -0.7000 -0.0819  0.7407
  333MOL0     H43926   3.821   3.510   9.940 -0.9084 -1.3999 -2.4677
  333MOL0     H43927   3.674   3.613   9.952 -1.0916 -0.3641 -1.1213
  333MOL0     H43928   3.651   3.319   9.889  0.2051 -0.3883 -1.8880
  333MOL0     H43929   3.536   3.450   9.863 -2.1300 -3.1017 -3.9742
  333MOL0     H43930   3.625   3.373   9.649  1.7272 -1.5437 -0.3609
  333MOL0     H43931   3.796   3.403   9.719 -0.5425 -0.3027 -1.1010
  333MOL0     H43932   3.788   3.600   9.682  1.0465 -4.1405 -0.2302
  333MOL0     H43933   3.613   3.629   9.701 -0.2259 -1.6283  2.1556
  333MOL0     H43934   3.690   3.479   9.459 -0.8486 -0.4873 -0.3952
  333MOL0     H43935   3.566   3.597   9.476  0.8672  1.2922  0.6671
  333MOL0     H43936   3.867   3.664   9.429  0.4054  4.1539 -0.3946
  333MOL0     H43937   3.736   3.778   9.448  1.4524  0.7378 -1.2834
  333MOL0     H43938   3.439   3.790   9.991 -1.6258  1.2628 -0.5455
  333MOL0     H43939   3.211   3.755   9.898  0.7228 -0.5796 -1.1034
  333MOL0     H43940   2.907   3.381   9.666 -1.7026 -1.3562  0.1352
  333MOL0     H43941   2.675   3.350   9.610  1.2127 -2.8268  2.2846
  333MOL0     H43942   0.486   3.303   9.689  1.5429 -0.6701 -1.4802
  333MOL0     H43943   0.265   3.211   9.663 -1.3609 -0.2139  2.6615
  333MOL0     H43944  -0.032   2.963   9.791 -1.5979  0.6309 -0.1731
  333MOL0     H43945  -0.265   2.893   9.798  3.2010 -0.0119  3.0181
  333MOL0     H43946  -0.358   2.674   9.468  0.7301  0.5915  0.4237
  333MOL0     H43947  -0.438   2.806   9.545 -0.4388 -0.5378  2.0129
  333MOL0     H43948  -0.603   2.650   9.653 -1.7018  1.9678  0.0885
  333MOL0     H43949  -0.642   2.690   9.494 -0.7145  0.9168  1.1966
  333MOL0     H43950  -0.453   2.448   9.551  1.1663  2.2290 -1.5136
  333MOL0     H43951  -0.531   2.500   9.400  0.2965  2.1368 -0.5589
  333MOL0     H43952  -0.633   2.308   9.578 -1.2579 -0.0354  2.6552
  333MOL0     H43953  -0.732   2.445   9.613  0.1311 -2.4538  0.8377
  333MOL0     H43954  -0.881   2.359   9.243  0.0638  1.2620  0.2837
  333MOL0     H43955  -0.171   2.537   9.563  3.5500 -0.7466 -0.2699
  333MOL0     H43956   0.064   2.608   9.552 -1.0669  0.0458 -1.8452
  334MOL0     O43957   5.258  10.949   7.509  0.0810 -0.2232 -0.3233
  334MOL0     C43958   5.323  10.854   7.556  0.1491  0.2530 -0.8622
  334MOL0     O43959   5.312  10.720   7.514  0.1402  0.0481 -0.6951
  334MOL0     C43960   5.194  10.689   7.448  0.0687  0.9991  0.2583
  334MOL0     C43961   5.200  10.652   7.308 -0.6263 -0.5892 -0.6380
  334MOL0     C43962   5.083  10.633   7.240  0.6051 -0.0212  0.7070
  334MOL0     C43963   4.961  10.643   7.305  0.0948  0.2301 -0.0909
  334MOL0     O43964   4.836  10.634   7.253 -0.0477  0.0252  0.2918
  334MOL0     C43965   4.816  10.619   7.116 -0.1301  0.0643  1.5680
  334MOL0     C43966   4.679  10.673   7.067  0.2973  0.2757  0.3442
  334MOL0     C43967   4.577  10.615   7.164 -1.3261  0.2841 -0.0383
  334MOL0     C43968   4.438  10.656   7.123  0.4144  0.5310  0.5046
  334MOL0     C43969   4.333  10.578   7.189 -0.3665  0.3647 -0.8232
  334MOL0     C43970   4.196  10.593   7.127 -0.0449 -0.0103  0.0670
  334MOL0     C43971   4.076  10.548   7.215  0.9573  0.5944  0.0596
  334MOL0     C43972   4.090  10.392   7.236 -0.9615  0.0811 -0.0096
  334MOL0     N43973   3.973  10.340   7.298 -0.5499  0.6473 -0.3751
  334MOL0     C43974   3.903  10.381   7.411  0.4793 -0.7759  0.2796
  334MOL0     C43975   3.790  10.298   7.413  0.0459 -0.1907 -0.8504
  334MOL0     C43976   3.670  10.329   7.504  0.5184  0.2167 -0.0424
  334MOL0     C43977   3.578  10.204   7.553 -0.0748 -0.4321 -0.0548
  334MOL0     C43978   3.660  10.099   7.619 -0.0873 -0.5860  0.2458
  334MOL0     C43979   3.564   9.989   7.655 -0.1953 -0.3169 -0.5512
  334MOL0     O43980   3.514  10.019   7.790 -0.4813 -0.6121  0.1577
  334MOL0     C43981   3.425   9.927   7.849  0.1592  0.2972 -0.5368
  334MOL0     C43982   3.347   9.966   7.959  0.1574  0.3518  0.2817
  334MOL0     C43983   3.254   9.870   8.011  0.6585 -0.6808  0.6927
  334MOL0     C43984   3.238   9.732   7.964 -0.2655  0.3032 -0.2491
  334MOL0     C43985   3.149   9.626   8.017  1.1808 -0.3111  0.6726
  334MOL0     O43986   3.128   9.616   8.148  0.3758  0.3490  0.2194
  334MOL0     C43987   3.014   9.553   8.180 -0.7531 -0.7937  0.5259
  334MOL0     C43988   3.017   9.431   8.240 -0.0550  0.0971 -0.1506
  334MOL0     C43989   2.895   9.372   8.277  0.3407  0.5898  0.0696
  334MOL0     C43990   2.776   9.431   8.248 -0.7396  0.6911  0.3147
  334MOL0     O43991   2.654   9.373   8.272  0.0671 -0.0920  0.0356
  334MOL0     C43992   2.639   9.228   8.263 -0.7112  1.3091 -0.0472
  334MOL0     C43993   2.507   9.184   8.325 -0.0799 -0.2000 -0.7968
  334MOL0     C43994   2.387   9.224   8.233  0.0948 -0.1258 -0.3114
  334MOL0     C43995   2.257   9.171   8.280 -0.1950 -0.0128 -0.1197
  334MOL0     C43996   2.144   9.184   8.167 -0.2945  0.3737 -0.6989
  334MOL0     C43997   2.007   9.146   8.218 -0.4597  0.1834 -0.0103
  334MOL0     C43998   1.906   9.160   8.101  0.6185  0.4883 -1.0596
  334MOL0     C43999   1.768   9.143   8.159 -0.4979 -0.9711  0.8825
  334MOL0    Cl44000   1.637   9.116   8.042  0.1602  0.1745  0.2051
  334MOL0     C44001   2.785   9.560   8.199  0.1565  0.5873  0.4175
  334MOL0     C44002   2.901   9.623   8.155 -0.3342  0.8127  0.1868
  334MOL0     O44003   3.110   9.550   7.928 -0.0701  0.1284 -0.1245
  334MOL0     C44004   3.319   9.705   7.851 -0.0864 -0.5629  0.0782
  334MOL0     C44005   3.404   9.798   7.794  0.1739  0.4610  0.4891
  334MOL0     N44006   3.797  10.212   7.309 -0.2605  0.0799 -0.1617
  334MOL0     N44007   3.902  10.245   7.235  0.4038 -0.2925  0.2455
  334MOL0     C44008   4.957  10.680   7.441  0.5938 -0.1201 -0.4343
  334MOL0     C44009   5.073  10.695   7.515 -0.0683 -0.2570  0.4873
  334MOL0     C44010   5.429  10.889   7.657 -0.2452  1.2274 -1.0381
  334MOL0     C44011   5.513  10.779   7.715 -0.0084  0.5958 -0.4068
  334MOL0     C44012   5.621  10.809   7.795  0.1095  0.1846 -0.0592
  334MOL0     C44013   5.635  10.935   7.853  0.4653  0.1620  0.8578
  334MOL0     O44014   5.728  10.968   7.948 -0.0241 -0.8439  0.1123
  334MOL0     C44015   5.818  10.876   8.020  0.2138  0.0681  0.0990
  334MOL0     C44016   5.940  10.843   7.919  0.7524 -0.1778 -0.1297
  334MOL0     C44017   6.067  10.779   7.995 -0.2249  0.0524 -0.2969
  334MOL0     C44018   6.036  10.645   8.054  0.3619  0.7923  0.1859
  334MOL0     C44019   6.152  10.563   8.084  0.4638  0.2421 -0.3949
  334MOL0     C44020   6.247  10.498   8.116 -0.9283  0.7707  1.0567
  334MOL0     C44021   5.554  11.041   7.808 -0.2571  0.4842  0.8477
  334MOL0     C44022   5.460  11.018   7.705  0.3490  0.5441  0.4937
  334MOL0     H44023   5.298  10.637   7.264 -0.0113 -3.2910  1.3664
  334MOL0     H44024   5.093  10.611   7.134 -2.7834  0.1522  0.2509
  334MOL0     H44025   4.807  10.512   7.097 -2.2995  0.7286 -2.2249
  334MOL0     H44026   4.892  10.670   7.057 -2.7816 -0.2594 -2.5051
  334MOL0     H44027   4.675  10.643   6.962  2.8723 -0.7649  0.4710
  334MOL0     H44028   4.673  10.782   7.075 -0.4170  0.3567 -1.0106
  334MOL0     H44029   4.593  10.635   7.270 -1.4612  0.9166 -0.1308
  334MOL0     H44030   4.567  10.506   7.159 -5.0290  0.5630 -2.2652
  334MOL0     H44031   4.434  10.762   7.149  3.2691  1.1178 -1.0051
  334MOL0     H44032   4.429  10.642   7.015  1.6752  0.8070  0.3433
  334MOL0     H44033   4.336  10.613   7.292  0.3025 -2.2445  0.1296
  334MOL0     H44034   4.364  10.474   7.205  0.6536  1.0263  2.0566
  334MOL0     H44035   4.188  10.533   7.036  1.4804 -1.2046  0.6604
  334MOL0     H44036   4.174  10.699   7.111  0.9405  0.5307  1.9258
  334MOL0     H44037   4.078  10.595   7.314 -1.6599 -1.5349  1.2581
  334MOL0     H44038   3.982  10.564   7.161  0.2692 -1.1367  0.6699
  334MOL0     H44039   4.178  10.384   7.301 -0.9708  1.2462  0.1646
  334MOL0     H44040   4.099  10.329   7.147 -0.7289  0.9740 -0.6357
  334MOL0     H44041   3.923  10.463   7.479 -0.0466 -0.4763  0.0758
  334MOL0     H44042   3.602  10.393   7.447  0.4891 -0.0087 -0.2630
  334MOL0     H44043   3.699  10.389   7.590  0.1321  0.8859 -0.3780
  334MOL0     H44044   3.538  10.157   7.463  0.8875 -0.7641 -0.3186
  334MOL0     H44045   3.500  10.236   7.622 -3.8933 -2.0947 -3.2285
  334MOL0     H44046   3.738  10.060   7.552 -0.9868  1.6675 -2.3240
  334MOL0     H44047   3.715  10.139   7.705 -0.1595 -0.4311  0.2202
  334MOL0     H44048   3.615   9.892   7.652  3.9442  1.6249 -4.0182
  334MOL0     H44049   3.475   9.982   7.593 -0.5356  1.8502 -0.4086
  334MOL0     H44050   3.349  10.066   8.000 -0.0016 -0.0058  1.2146
  334MOL0     H44051   3.191   9.912   8.089 -1.5403 -0.7268 -0.9499
  334MOL0     H44052   3.116   9.388   8.253 -0.0077  0.1827 -0.2282
  334MOL0     H44053   2.899   9.284   8.340  0.7773  1.0310  0.6632
  334MOL0     H44054   2.707   9.178   8.332 -2.2638  0.2966  0.7878
  334MOL0     H44055   2.645   9.194   8.160 -3.9011 -2.0236  0.6795
  334MOL0     H44056   2.498   9.228   8.425 -1.0663 -0.6586 -0.6783
  334MOL0     H44057   2.512   9.075   8.334 -2.6643 -0.3958 -0.9035
  334MOL0     H44058   2.395   9.189   8.129 -0.7007 -2.2879  0.3090
  334MOL0     H44059   2.392   9.333   8.224  1.7278 -0.3431 -5.1791
  334MOL0     H44060   2.265   9.067   8.313  2.2515  0.5366  1.2103
  334MOL0     H44061   2.226   9.231   8.366  1.2285 -0.4761  0.7456
  334MOL0     H44062   2.166   9.122   8.079  3.1053 -0.9054  0.8692
  334MOL0     H44063   2.140   9.290   8.141  3.0330  1.1499  1.3203
  334MOL0     H44064   1.987   9.219   8.297  2.3043  1.4247 -0.3620
  334MOL0     H44065   2.019   9.045   8.260 -0.1309 -1.1040 -2.9277
  334MOL0     H44066   1.915   9.256   8.048 -1.5814  1.0143 -0.5962
  334MOL0     H44067   1.920   9.071   8.039  2.9250  0.0386 -0.0009
  334MOL0     H44068   1.758   9.230   8.224  0.8618  1.5807 -2.0897
  334MOL0     H44069   1.774   9.051   8.217  0.9022 -1.3495  0.1689
  334MOL0     H44070   2.689   9.610   8.194 -1.5296 -2.5798 -2.6318
  334MOL0     H44071   2.892   9.721   8.109 -1.3290  0.4695 -0.4021
  334MOL0     H44072   3.316   9.613   7.794  0.2075 -0.3760 -0.2441
  334MOL0     H44073   3.455   9.764   7.704 -1.4529 -1.6666  0.2843
  334MOL0     H44074   4.856  10.691   7.479  0.9034  2.2382 -0.0948
  334MOL0     H44075   5.060  10.730   7.617 -3.2065 -0.0277  0.0987
  334MOL0     H44076   5.495  10.674   7.694 -1.4628  0.1932  2.3527
  334MOL0     H44077   5.683  10.726   7.827 -1.2382 -1.7246 -2.1308
  334MOL0     H44078   5.774  10.782   8.057 -0.3325  1.0678  2.0851
  334MOL0     H44079   5.843  10.933   8.109  2.6275  3.7386 -2.6744
  334MOL0     H44080   5.908  10.779   7.836  1.3390 -4.7210  2.7574
  334MOL0     H44081   5.972  10.940   7.879  0.7186  0.5364  1.4797
  334MOL0     H44082   6.090  10.844   8.080  3.0614 -1.5870  0.2527
  334MOL0     H44083   6.160  10.778   7.937  0.5686 -0.5907  0.9410
  334MOL0     H44084   5.971  10.650   8.142  1.3100  2.1146  0.8390
  334MOL0     H44085   5.988  10.586   7.975  0.0503 -1.5502  2.0230
  334MOL0     H44086   6.335  10.444   8.144  0.2880  3.2253  2.2804
  334MOL0     H44087   5.552  11.133   7.865  0.8966  0.1026  1.5423
  334MOL0     H44088   5.406  11.107   7.676 -0.1004  0.5645  1.3570
  335MOL0     O44089   2.484   9.221  10.839  0.4763  0.2627 -0.0273
  335MOL0     C44090   2.453   9.304  10.758 -0.0013  0.2611 -0.3449
  335MOL0     O44091   2.532   9.357  10.666 -0.2586 -0.4588 -0.1413
  335MOL0     C44092   2.667   9.340  10.672  0.2002 -0.5315  0.1948
  335MOL0     C44093   2.742   9.426  10.594 -0.2411  0.1050  0.2598
  335MOL0     C44094   2.880   9.418  10.570  1.1855 -0.5463 -0.9837
  335MOL0     C44095   2.951   9.333  10.648 -0.7259 -0.0634  0.6052
  335MOL0     O44096   3.088   9.337  10.624  0.1511 -0.5518  0.0940
  335MOL0     C44097   3.181   9.259  10.701 -0.4862 -0.3800 -0.3439
  335MOL0     C44098   3.332   9.297  10.695  0.1408 -0.7346  0.0353
  335MOL0     C44099   3.428   9.190  10.728  1.3816  0.7859  0.2353
  335MOL0     C44100   3.570   9.241  10.745 -0.2475  0.5691  1.0932
  335MOL0     C44101   3.669   9.155  10.811  1.0479 -0.7641 -0.9927
  335MOL0     C44102   3.811   9.209  10.824 -0.1563  0.2333 -0.7558
  335MOL0     C44103   3.904   9.105  10.901  0.1621  0.4508  0.2843
  335MOL0     C44104   3.957   9.150  11.035  0.5404 -0.1721  0.6057
  335MOL0     N44105   4.072   9.241  11.017  0.8603  0.2192  0.2025
  335MOL0     C44106   4.167   9.235  10.914 -0.5602 -0.2303  0.2540
  335MOL0     C44107   4.223   9.365  10.928  0.4018  0.4399  0.8519
  335MOL0     C44108   4.328   9.426  10.847 -0.3867  1.3262 -0.1490
  335MOL0     C44109   4.459   9.350  10.853 -0.1694  0.5579 -0.7890
  335MOL0     C44110   4.486   9.295  11.000  0.7233  0.4314  0.5830
  335MOL0     C44111   4.629   9.254  11.029 -0.6629  0.3236  0.1140
  335MOL0     O44112   4.726   9.360  11.050 -0.0316 -0.0748 -0.1344
  335MOL0     C44113   4.854   9.343  11.092  0.0270 -0.0024  0.4140
  335MOL0     C44114   4.923   9.458  11.124 -0.0099 -0.3179 -0.2155
  335MOL0     C44115   5.059   9.459  11.158 -0.3766 -0.2275 -0.5722
  335MOL0     C44116   5.125   9.333  11.168  0.4748  0.5290  0.6660
  335MOL0     C44117   5.270   9.322  11.186  1.5729  0.5715 -0.9805
  335MOL0     O44118   5.337   9.198  11.206  0.2804 -0.6786 -0.0551
  335MOL0     C44119   5.471   9.213  11.211  0.8319  0.1049 -0.5839
  335MOL0     C44120   5.551   9.216  11.098  0.0789 -0.3543 -0.1001
  335MOL0     C44121   5.688   9.195  11.104  0.3428  0.1999 -0.4087
  335MOL0     C44122   5.754   9.187  11.222  0.2370  0.3990 -0.9394
  335MOL0     O44123   5.890   9.186  11.233  0.4419 -0.8141  0.3622
  335MOL0     C44124   5.974   9.198  11.119 -0.4519 -0.0328  0.0450
  335MOL0     C44125   6.113   9.211  11.163  0.4495 -0.1490 -0.0479
  335MOL0     C44126   6.153   9.096  11.258 -0.3334 -0.5935 -0.3691
  335MOL0     C44127   6.289   9.135  11.309  0.0529  0.0589  0.0389
  335MOL0     C44128   6.359   9.057  11.415 -0.6614  0.0198 -0.7420
  335MOL0     C44129   6.490   9.113  11.454 -0.2103  0.6290 -0.2538
  335MOL0     C44130   6.577   9.002  11.521 -0.0771 -0.2393 -0.5519
  335MOL0     C44131   6.520   8.945  11.653 -0.1200 -0.5870  0.7170
  335MOL0    Cl44132   6.659   8.870  11.740 -0.5370  0.0251 -0.2514
  335MOL0     C44133   5.678   9.194  11.344  0.6379  0.4191  0.4470
  335MOL0     C44134   5.534   9.200  11.337  0.4516  0.6500  0.5271
  335MOL0     O44135   5.333   9.432  11.192  0.0645  0.4976 -0.0578
  335MOL0     C44136   5.055   9.219  11.127 -0.1364  0.2626  0.0280
  335MOL0     C44137   4.914   9.224  11.099 -0.9043  0.0774 -0.4203
  335MOL0     N44138   4.175   9.432  11.034  0.9336  0.9522 -1.2455
  335MOL0     N44139   4.087   9.356  11.090  1.1992 -0.9602  0.1303
  335MOL0     C44140   2.881   9.246  10.734 -0.8352  0.1228  0.7938
  335MOL0     C44141   2.737   9.238  10.746 -0.3193 -0.2621  0.7743
  335MOL0     C44142   2.309   9.296  10.716 -0.0546 -0.0992 -0.0384
  335MOL0     C44143   2.228   9.188  10.756 -1.0258 -0.3630 -0.6641
  335MOL0     C44144   2.098   9.183  10.721 -0.1059  0.2710  0.2065
  335MOL0     C44145   2.040   9.285  10.652 -0.1600  0.0536  0.0757
  335MOL0     O44146   1.911   9.286  10.623  0.1769  0.2783 -0.3840
  335MOL0     C44147   1.848   9.343  10.511 -0.5067 -0.3693  0.9536
  335MOL0     C44148   1.780   9.239  10.426  0.7504 -1.5118  0.1116
  335MOL0     C44149   1.704   9.303  10.314  0.2650  0.4440  0.1129
  335MOL0     C44150   1.650   9.201  10.209  0.5971  1.0217 -0.4752
  335MOL0     C44151   1.622   9.068  10.269  0.3254 -0.0666 -0.1568
  335MOL0     C44152   1.628   8.966  10.328  0.8971  0.1936  0.1832
  335MOL0     C44153   2.116   9.399  10.617 -0.8692  0.0926  0.1253
  335MOL0     C44154   2.249   9.403  10.650  0.3570 -0.2823  0.0519
  335MOL0     H44155   2.690   9.506  10.543  0.7002  0.7457  0.2759
  335MOL0     H44156   2.926   9.494  10.507 -1.5381  2.9676  0.9062
  335MOL0     H44157   3.178   9.153  10.675 -3.2538 -0.0154 -1.9315
  335MOL0     H44158   3.156   9.272  10.807  2.0812 -1.0113  0.4191
  335MOL0     H44159   3.358   9.384  10.757 -0.0088 -0.1105 -0.7539
  335MOL0     H44160   3.341   9.314  10.588 -2.0980 -2.8198 -0.5669
  335MOL0     H44161   3.418   9.114  10.650 -2.2674  2.1691 -0.8429
  335MOL0     H44162   3.389   9.162  10.827 -0.3229  1.8102 -0.1020
  335MOL0     H44163   3.618   9.268  10.650 -0.9006 -1.2640  0.1907
  335MOL0     H44164   3.564   9.330  10.808  0.8946  0.2790  1.6409
  335MOL0     H44165   3.665   9.068  10.745 -4.2436 -0.0723 -2.0446
  335MOL0     H44166   3.626   9.140  10.910  1.3512  0.1059 -0.7157
  335MOL0     H44167   3.812   9.304  10.879  0.5121 -0.9901  1.4595
  335MOL0     H44168   3.855   9.222  10.724  3.7660 -0.9105  0.6340
  335MOL0     H44169   3.847   9.012  10.909  0.0406  0.2858 -1.8480
  335MOL0     H44170   3.991   9.066  10.848 -0.2441  2.4146 -2.0102
  335MOL0     H44171   3.983   9.061  11.094 -0.8723  2.1515  5.2206
  335MOL0     H44172   3.878   9.201  11.091 -1.0206 -1.6095 -0.1972
  335MOL0     H44173   4.181   9.159  10.837 -2.4121 -0.6170  0.2653
  335MOL0     H44174   4.339   9.529  10.883 -1.9153  2.0951 -1.7032
  335MOL0     H44175   4.302   9.444  10.742  0.5933 -2.2322 -1.1138
  335MOL0     H44176   4.545   9.412  10.826 -0.6119  2.4754  1.7801
  335MOL0     H44177   4.449   9.269  10.780  2.4838 -0.8408  0.2983
  335MOL0     H44178   4.468   9.369  11.078  0.8480  1.1712 -0.0720
  335MOL0     H44179   4.418   9.211  11.014  0.4834  0.2158 -1.5586
  335MOL0     H44180   4.668   9.189  10.951  0.3355 -0.2103  1.0229
  335MOL0     H44181   4.633   9.194  11.121  2.5325  2.4909  1.5572
  335MOL0     H44182   4.864   9.549  11.117 -1.6246 -1.3776 -1.1470
  335MOL0     H44183   5.113   9.552  11.173 -0.0669 -0.1191 -2.2164
  335MOL0     H44184   5.505   9.220  11.000  0.5523  0.1721 -0.3062
  335MOL0     H44185   5.748   9.201  11.013  2.8816  0.7453  1.1954
  335MOL0     H44186   5.951   9.284  11.057  2.5229  0.5373 -0.4364
  335MOL0     H44187   5.971   9.103  11.065 -0.2565 -0.8453  1.3886
  335MOL0     H44188   6.133   9.305  11.215  2.2443 -1.8068  2.5538
  335MOL0     H44189   6.163   9.208  11.066 -0.9534  1.4132 -0.8650
  335MOL0     H44190   6.145   8.992  11.224 -1.4189 -0.8077  0.4757
  335MOL0     H44191   6.085   9.094  11.344  1.0426 -1.4258  0.7468
  335MOL0     H44192   6.357   9.141  11.224 -0.4996  1.6857 -0.3204
  335MOL0     H44193   6.281   9.236  11.350  1.2758  0.0792  0.2762
  335MOL0     H44194   6.382   8.956  11.379 -0.2675  0.2547 -1.1569
  335MOL0     H44195   6.293   9.052  11.502 -0.6748  0.3469 -0.7318
  335MOL0     H44196   6.483   9.199  11.521  0.4943  1.0507 -0.7134
  335MOL0     H44197   6.534   9.146  11.360  2.1508  0.1074  0.5751
  335MOL0     H44198   6.593   8.920  11.451 -1.1524 -0.8150 -0.1511
  335MOL0     H44199   6.679   9.036  11.542  0.0871 -0.3166 -1.2211
  335MOL0     H44200   6.442   8.868  11.650  1.4269 -2.2408  0.7268
  335MOL0     H44201   6.478   9.036  11.696  1.3859  1.2722 -1.4931
  335MOL0     H44202   5.734   9.203  11.437  1.1819  1.1685  0.0591
  335MOL0     H44203   5.475   9.183  11.426 -0.2877  0.2439 -0.0274
  335MOL0     H44204   5.101   9.122  11.112 -1.0824 -0.1945 -0.0168
  335MOL0     H44205   4.870   9.127  11.077 -3.0561  0.8003  0.4032
  335MOL0     H44206   2.938   9.164  10.777  1.7704  1.0362 -0.7079
  335MOL0     H44207   2.691   9.165  10.812  0.2637 -1.0796  0.3090
  335MOL0     H44208   2.262   9.113  10.828  1.2823  2.8934  1.9557
  335MOL0     H44209   2.027   9.120  10.773  0.4782 -0.4973  0.0879
  335MOL0     H44210   1.925   9.389  10.448  0.4013  0.3966  2.5800
  335MOL0     H44211   1.772   9.418  10.533 -1.4658 -0.5937 -1.2405
  335MOL0     H44212   1.865   9.180  10.389  1.4114 -0.9693  0.7175
  335MOL0     H44213   1.718   9.179  10.493 -2.5857  0.2787 -1.1426
  335MOL0     H44214   1.769   9.375  10.264 -1.3280  0.4454 -2.0859
  335MOL0     H44215   1.615   9.358  10.346 -1.3004 -0.9280 -1.7024
  335MOL0     H44216   1.553   9.240  10.176 -0.2520  0.0738  0.8228
  335MOL0     H44217   1.711   9.198  10.119  1.0547 -0.4363 -0.1353
  335MOL0     H44218   1.643   8.873  10.379 -0.8217  0.3737  1.0779
  335MOL0     H44219   2.074   9.494  10.582  3.3739  1.4411 -2.0383
  335MOL0     H44220   2.313   9.486  10.623 -2.0713  1.2450 -1.4033
  336MOL0     O44221   0.503   1.161   5.268  0.0348  0.3451 -0.2769
  336MOL0     C44222   0.583   1.080   5.225 -0.5376 -0.3546  0.4159
  336MOL0     O44223   0.613   0.956   5.282  0.4649  0.6446 -0.1846
  336MOL0     C44224   0.574   0.930   5.417  0.4304  0.4244 -0.2229
  336MOL0     C44225   0.576   1.027   5.522  0.4239  1.1777 -0.5764
  336MOL0     C44226   0.521   1.001   5.647 -0.1189  0.2934 -0.3852
  336MOL0     C44227   0.461   0.873   5.667  0.4949 -0.3297  0.1489
  336MOL0     O44228   0.398   0.839   5.786  0.0220 -0.5948 -0.3907
  336MOL0     C44229   0.446   0.907   5.903 -0.7977  0.3306  0.2972
  336MOL0     C44230   0.354   0.884   6.026 -0.0928  0.8981  0.7646
  336MOL0     C44231   0.359   0.740   6.067 -0.4072  0.5989  0.2484
  336MOL0     C44232   0.260   0.698   6.180 -0.5248 -0.6468 -0.1933
  336MOL0     C44233   0.326   0.718   6.317 -0.3903 -0.3454 -1.3313
  336MOL0     C44234   0.246   0.649   6.429  1.0939  0.3194 -0.3093
  336MOL0     C44235   0.283   0.668   6.570 -0.0722  0.2728 -0.4671
  336MOL0     C44236   0.185   0.623   6.677  1.2233  0.3236  0.4135
  336MOL0     N44237   0.049   0.668   6.665  0.1080 -0.3202 -0.1382
  336MOL0     C44238   0.007   0.798   6.641 -0.2661 -0.8198 -0.1185
  336MOL0     C44239  -0.121   0.793   6.605  0.1420  0.6469 -0.1614
  336MOL0     C44240  -0.193   0.900   6.528 -1.0138  0.1590  0.7030
  336MOL0     C44241  -0.135   0.907   6.387  0.1420 -0.0496  0.7689
  336MOL0     C44242  -0.137   1.057   6.334 -0.4411  0.0579  0.5518
  336MOL0     C44243  -0.036   1.089   6.221  0.7626 -0.4859  0.2189
  336MOL0     O44244  -0.016   1.236   6.237 -1.0340  1.0403 -0.5062
  336MOL0     C44245   0.105   1.271   6.174  0.7087 -0.3756 -0.5491
  336MOL0     C44246   0.119   1.289   6.040 -0.4881  0.5388 -0.0906
  336MOL0     C44247   0.247   1.316   5.990 -0.1518 -0.0122  0.1427
  336MOL0     C44248   0.356   1.340   6.082 -0.4262  0.6404  0.8292
  336MOL0     C44249   0.492   1.389   6.021  0.0834 -0.1760 -0.3731
  336MOL0     O44250   0.499   1.374   5.881 -0.0456 -0.4363 -0.7531
  336MOL0     C44251   0.608   1.430   5.816  0.2945  0.2750  0.9509
  336MOL0     C44252   0.643   1.564   5.814 -0.0252 -0.1228 -0.0415
  336MOL0     C44253   0.742   1.626   5.731 -0.4933  0.5827  0.0774
  336MOL0     C44254   0.816   1.532   5.651 -0.5684  1.0812 -0.0511
  336MOL0     O44255   0.917   1.589   5.582  0.4121 -1.3009 -0.3135
  336MOL0     C44256   1.031   1.525   5.531  0.0515 -0.0649  0.1539
  336MOL0     C44257   1.152   1.616   5.552 -1.2026  0.6083  0.5410
  336MOL0     C44258   1.278   1.543   5.500  0.5908  0.1632  0.2932
  336MOL0     C44259   1.398   1.635   5.508  0.6025  0.7394  0.1731
  336MOL0     C44260   1.518   1.586   5.421 -0.0644  0.0862 -0.5605
  336MOL0     C44261   1.626   1.690   5.416 -0.0311  0.9039 -0.2839
  336MOL0     C44262   1.741   1.637   5.326  0.4319  0.0971  0.2209
  336MOL0     C44263   1.830   1.738   5.279  0.6306 -0.3742 -0.4498
  336MOL0    Cl44264   1.888   1.834   5.429  0.5331  0.4587  0.2561
  336MOL0     C44265   0.786   1.398   5.643 -0.2829 -1.1369 -0.3648
  336MOL0     C44266   0.684   1.354   5.729  0.5107 -0.8173 -0.2051
  336MOL0     O44267   0.575   1.432   6.093  0.5735  0.2482  0.1096
  336MOL0     C44268   0.332   1.326   6.224 -0.0877  0.0936  0.1575
  336MOL0     C44269   0.209   1.286   6.263 -0.4670  0.4804  0.7475
  336MOL0     N44270  -0.164   0.661   6.609  0.1528  0.3453  0.1472
  336MOL0     N44271  -0.063   0.596   6.656  0.0161 -0.4808  0.2810
  336MOL0     C44272   0.464   0.772   5.569  0.4917 -0.3210 -0.8770
  336MOL0     C44273   0.517   0.803   5.442  0.2464 -0.3174  0.0259
  336MOL0     C44274   0.657   1.117   5.097  0.3296 -0.3828 -0.1751
  336MOL0     C44275   0.658   1.248   5.035  0.7717 -0.1009 -0.5893
  336MOL0     C44276   0.721   1.275   4.920  0.8530 -1.2079  0.1807
  336MOL0     C44277   0.773   1.176   4.834 -0.1056  0.0405 -0.9614
  336MOL0     O44278   0.839   1.198   4.712  0.1156 -0.1583 -0.1593
  336MOL0     C44279   0.852   1.334   4.665  0.1182  0.4685  0.1765
  336MOL0     C44280   0.873   1.354   4.513 -0.3817  0.0527  0.0720
  336MOL0     C44281   1.015   1.300   4.480 -0.2031  0.0651 -0.0738
  336MOL0     C44282   1.046   1.304   4.320 -1.2085 -0.4947  0.5749
  336MOL0     C44283   1.104   1.432   4.283 -0.1624 -1.2877 -0.2723
  336MOL0     C44284   1.139   1.548   4.263 -1.1195  0.1901 -0.3353
  336MOL0     C44285   0.770   1.049   4.882  0.1545 -0.1102 -0.4726
  336MOL0     C44286   0.719   1.019   5.015 -0.8730 -0.1732  0.3975
  336MOL0     H44287   0.608   1.127   5.494 -0.1300  1.2241 -1.0534
  336MOL0     H44288   0.522   1.084   5.717 -0.8634  0.2669 -0.3413
  336MOL0     H44289   0.451   1.015   5.888  0.4966  0.1396 -0.8094
  336MOL0     H44290   0.542   0.858   5.916 -0.5647  0.1451 -1.7949
  336MOL0     H44291   0.251   0.912   6.002 -0.7874 -1.9271  0.1086
  336MOL0     H44292   0.392   0.947   6.108  2.8079 -0.0291  0.2366
  336MOL0     H44293   0.462   0.713   6.091 -1.6201 -1.2225  4.2855
  336MOL0     H44294   0.320   0.688   5.980 -1.8067  2.1968 -0.1346
  336MOL0     H44295   0.160   0.739   6.167 -1.7752 -3.9036 -1.8657
  336MOL0     H44296   0.248   0.590   6.170  0.2001 -0.8042  0.4872
  336MOL0     H44297   0.326   0.825   6.340 -3.4050 -0.4537 -0.4568
  336MOL0     H44298   0.424   0.669   6.323 -1.4495 -2.4495  2.6440
  336MOL0     H44299   0.250   0.542   6.406  0.9506 -0.1510  1.6424
  336MOL0     H44300   0.141   0.679   6.416  0.4162 -1.3928  0.7456
  336MOL0     H44301   0.377   0.613   6.576 -0.2100  0.0692 -0.0810
  336MOL0     H44302   0.306   0.772   6.595  1.5936 -0.0175 -0.7214
  336MOL0     H44303   0.216   0.662   6.774 -3.2408  1.1239  1.7286
  336MOL0     H44304   0.182   0.513   6.680  0.6713  0.1547 -2.6879
  336MOL0     H44305   0.076   0.882   6.638 -0.6463 -0.4872  0.2287
  336MOL0     H44306  -0.180   0.993   6.584  0.4413  0.9712 -0.9027
  336MOL0     H44307  -0.298   0.872   6.521 -1.3554  1.6103 -0.6641
  336MOL0     H44308  -0.211   0.853   6.330 -0.3467 -0.3238  1.6514
  336MOL0     H44309  -0.036   0.862   6.383 -0.4807 -1.8235  3.2279
  336MOL0     H44310  -0.237   1.086   6.299 -1.2466 -0.1002  2.5687
  336MOL0     H44311  -0.116   1.116   6.423 -0.3782 -0.7989  1.1187
  336MOL0     H44312  -0.071   1.045   6.127 -1.8827 -0.3955  1.0830
  336MOL0     H44313   0.059   1.039   6.244  0.2905 -0.3015  2.7497
  336MOL0     H44314   0.039   1.267   5.970  0.9881 -1.4712 -1.2293
  336MOL0     H44315   0.267   1.318   5.883 -0.7489  0.3928  0.0385
  336MOL0     H44316   0.570   1.632   5.859  0.4554 -0.3088  1.0606
  336MOL0     H44317   0.752   1.731   5.704 -3.8451  0.5913 -1.7251
  336MOL0     H44318   1.012   1.500   5.426 -1.4735 -4.5694  1.2766
  336MOL0     H44319   1.051   1.429   5.580 -0.1741 -0.3039 -0.2205
  336MOL0     H44320   1.179   1.616   5.658  4.2276  0.8735 -0.5568
  336MOL0     H44321   1.144   1.719   5.515  0.2459  1.0866  1.4764
  336MOL0     H44322   1.265   1.519   5.394  1.6791  0.2029  0.1459
  336MOL0     H44323   1.294   1.453   5.559 -1.4911  0.9336  2.2207
  336MOL0     H44324   1.376   1.739   5.482 -0.0722  1.3917  2.9949
  336MOL0     H44325   1.433   1.639   5.612 -2.3731  0.1189  1.3027
  336MOL0     H44326   1.488   1.564   5.318  0.7881 -0.3651 -0.7220
  336MOL0     H44327   1.557   1.495   5.468 -1.1566 -0.5555 -0.8498
  336MOL0     H44328   1.666   1.699   5.518 -0.4594 -0.6799  0.0566
  336MOL0     H44329   1.598   1.791   5.386 -1.0770  0.8378  0.4311
  336MOL0     H44330   1.799   1.557   5.373  0.9157 -1.4013 -2.6824
  336MOL0     H44331   1.703   1.587   5.236  3.1391  0.8352 -1.4576
  336MOL0     H44332   1.781   1.808   5.210  1.4282  0.7984  0.1390
  336MOL0     H44333   1.908   1.688   5.220  1.5101  0.0435  0.3342
  336MOL0     H44334   0.844   1.343   5.569  2.6023 -2.1968  2.4451
  336MOL0     H44335   0.652   1.250   5.734 -0.1496 -0.5652  3.5180
  336MOL0     H44336   0.392   1.353   6.310 -1.9503  1.9409  0.9570
  336MOL0     H44337   0.196   1.265   6.369  2.1772 -1.3643  0.8042
  336MOL0     H44338   0.420   0.677   5.595 -1.3915  0.1580 -2.0844
  336MOL0     H44339   0.524   0.724   5.368  0.4868 -0.6193  0.3687
  336MOL0     H44340   0.612   1.333   5.085 -0.1502 -0.2471 -1.1472
  336MOL0     H44341   0.713   1.376   4.881 -0.1253 -2.2317 -2.5355
  336MOL0     H44342   0.933   1.387   4.716  2.3986 -0.8422 -1.8936
  336MOL0     H44343   0.757   1.387   4.680  0.9859  1.8340  1.0574
  336MOL0     H44344   0.797   1.298   4.458 -1.5451  1.6531 -0.0142
  336MOL0     H44345   0.868   1.460   4.485 -0.2081 -0.3660 -1.6887
  336MOL0     H44346   1.026   1.197   4.516 -1.0218  0.1672  0.4931
  336MOL0     H44347   1.094   1.355   4.532 -1.1870  0.9195  0.5439
  336MOL0     H44348   1.126   1.232   4.302 -0.3953  0.5094  0.0329
  336MOL0     H44349   0.958   1.277   4.261 -2.3912 -1.5876  2.7363
  336MOL0     H44350   1.169   1.643   4.224 -0.7591 -0.5371 -1.9101
  336MOL0     H44351   0.821   0.964   4.838 -0.1290 -0.7558  0.4210
  336MOL0     H44352   0.733   0.919   5.053 -3.5336 -0.0056  2.0254
  337MOL0     O44353  10.195   6.921   9.644 -0.6323 -0.1939  0.2701
  337MOL0     C44354  10.294   6.867   9.587 -0.4471 -0.1656  0.7203
  337MOL0     O44355  10.283   6.770   9.488  0.0479  0.0217  0.2808
  337MOL0     C44356  10.164   6.708   9.458 -0.5570  0.1551  0.4727
  337MOL0     C44357  10.076   6.674   9.559  0.4879  0.1736  0.0568
  337MOL0     C44358   9.949   6.618   9.524 -1.0134  0.2593 -0.8729
  337MOL0     C44359   9.917   6.575   9.396  0.0674  0.2134  0.6705
  337MOL0     O44360   9.797   6.522   9.362 -0.0479 -0.1686  0.9132
  337MOL0     C44361   9.673   6.566   9.430 -0.8542 -0.3193 -0.1574
  337MOL0     C44362   9.648   6.475   9.550 -0.0562  0.3958  0.0237
  337MOL0     C44363   9.501   6.419   9.541  0.9379 -0.7683 -0.1272
  337MOL0     C44364   9.496   6.304   9.438 -0.4832 -1.0092 -1.5048
  337MOL0     C44365   9.372   6.220   9.440 -1.0380 -0.6488 -0.0984
  337MOL0     C44366   9.354   6.120   9.322 -0.0095  0.2450 -0.1149
  337MOL0     C44367   9.233   6.023   9.334 -0.2277  0.0163 -0.7073
  337MOL0     C44368   9.103   6.096   9.302  0.0833  0.1472 -0.0045
  337MOL0     N44369   8.986   6.004   9.302 -0.9924  0.0357 -0.1718
  337MOL0     C44370   8.966   5.897   9.227  0.2333 -0.0139  0.9031
  337MOL0     C44371   8.835   5.866   9.237  0.2847  0.1789 -0.2854
  337MOL0     C44372   8.765   5.751   9.169  0.3997 -0.5826 -0.4284
  337MOL0     C44373   8.668   5.791   9.061 -0.1475 -0.6537  0.3435
  337MOL0     C44374   8.527   5.839   9.103  0.3426  0.2839 -0.0427
  337MOL0     C44375   8.451   5.729   9.182  0.7132 -0.4896 -0.3350
  337MOL0     O44376   8.321   5.779   9.208  0.4471  0.1762 -0.2487
  337MOL0     C44377   8.237   5.704   9.286  1.0746 -0.3870 -0.1818
  337MOL0     C44378   8.277   5.601   9.364 -0.6568 -1.0480 -0.2434
  337MOL0     C44379   8.186   5.508   9.408  0.7881  0.2319  0.2447
  337MOL0     C44380   8.050   5.522   9.392 -0.4403 -0.2607 -0.5560
  337MOL0     C44381   7.964   5.430   9.467  0.3884  0.3484 -0.1251
  337MOL0     O44382   7.837   5.466   9.490 -0.0073  0.0695 -0.2100
  337MOL0     C44383   7.743   5.396   9.567 -0.9190  0.1644 -0.5280
  337MOL0     C44384   7.617   5.442   9.561  0.4655  0.7782  0.4476
  337MOL0     C44385   7.515   5.376   9.633 -0.1359 -0.2109  0.4904
  337MOL0     C44386   7.541   5.258   9.708  0.6300  0.3272 -0.0198
  337MOL0     O44387   7.454   5.193   9.787  0.7135  0.8737  0.8571
  337MOL0     C44388   7.322   5.240   9.802 -0.0509  0.0026 -0.0053
  337MOL0     C44389   7.272   5.177   9.933 -0.4726 -0.4742 -0.1185
  337MOL0     C44390   7.138   5.237   9.991 -0.4897  0.4400 -0.3595
  337MOL0     C44391   7.090   5.162  10.111  0.1970 -0.6548  0.0066
  337MOL0     C44392   6.964   5.231  10.174 -0.4908  0.0591  0.0849
  337MOL0     C44393   6.928   5.145  10.299 -0.1419  0.1256  0.4103
  337MOL0     C44394   6.831   5.230  10.375  0.5213 -1.0057 -0.2996
  337MOL0     C44395   6.768   5.166  10.501  0.0852  0.1151  0.2736
  337MOL0    Cl44396   6.633   5.262  10.566 -0.2668  0.6074 -0.2621
  337MOL0     C44397   7.671   5.209   9.707 -0.9791  0.1377 -0.4780
  337MOL0     C44398   7.777   5.288   9.648  0.4899  0.3873 -0.2940
  337MOL0     O44399   8.007   5.315   9.476 -0.7224  0.2608  0.0972
  337MOL0     C44400   8.008   5.616   9.300 -0.0742 -1.0777 -0.0252
  337MOL0     C44401   8.099   5.710   9.245  0.1692  0.3036  0.7401
  337MOL0     N44402   8.774   5.968   9.312  0.4884 -0.0795  1.2956
  337MOL0     N44403   8.864   6.048   9.355  0.1994  0.4231 -0.6346
  337MOL0     C44404  10.017   6.593   9.294 -0.2311  0.0712  0.0846
  337MOL0     C44405  10.136   6.667   9.329 -0.7051  0.8520  0.1464
  337MOL0     C44406  10.434   6.926   9.599  0.3608 -0.1475  0.8291
  337MOL0     C44407  10.523   6.909   9.493  0.5829  0.2625  0.0010
  337MOL0     C44408  10.649   6.949   9.513 -0.3744  0.2988  0.2265
  337MOL0     C44409  10.697   7.018   9.622  0.3501  0.4716  0.7124
  337MOL0     O44410  10.831   7.060   9.619  0.3331  0.3033  0.7482
  337MOL0     C44411  10.867   7.154   9.719  0.0346 -0.0901 -0.0387
  337MOL0     C44412  11.020   7.180   9.698 -0.7476 -0.2427  0.4589
  337MOL0     C44413  11.067   7.205   9.552 -0.1300  0.2213 -0.1745
  337MOL0     C44414  11.228   7.209   9.559 -0.1022  0.0022 -0.0280
  337MOL0     C44415  11.262   7.222   9.415 -0.0273  0.1706 -0.7614
  337MOL0     C44416  11.290   7.214   9.301 -0.1228  0.3477 -0.1277
  337MOL0     C44417  10.603   7.052   9.715 -0.2678 -0.6970 -0.2255
  337MOL0     C44418  10.475   7.005   9.704  0.0128 -0.0005  0.3190
  337MOL0     H44419  10.093   6.694   9.665  0.4341 -0.1170  0.1221
  337MOL0     H44420   9.889   6.588   9.609 -0.7693 -2.9642 -1.7229
  337MOL0     H44421   9.603   6.557   9.347 -0.8326 -0.5864 -0.1503
  337MOL0     H44422   9.675   6.673   9.450  0.4654 -0.1034 -1.3334
  337MOL0     H44423   9.668   6.533   9.640  1.7625 -0.6115  0.3056
  337MOL0     H44424   9.719   6.392   9.554  0.3713  0.8163  1.8985
  337MOL0     H44425   9.434   6.501   9.513  0.8739 -1.1133 -1.0221
  337MOL0     H44426   9.483   6.397   9.647 -1.8771  3.7998  0.6491
  337MOL0     H44427   9.511   6.346   9.339 -0.7037 -1.4142 -1.7140
  337MOL0     H44428   9.580   6.233   9.448  1.3544  1.3329  2.0279
  337MOL0     H44429   9.287   6.286   9.420 -1.4202 -1.4736 -1.3347
  337MOL0     H44430   9.365   6.165   9.535 -0.9804 -0.1428  0.2039
  337MOL0     H44431   9.438   6.051   9.322 -0.8452 -0.8120  0.7039
  337MOL0     H44432   9.340   6.170   9.226 -1.0005 -0.7378 -0.5004
  337MOL0     H44433   9.259   5.938   9.271 -1.3503 -0.5739 -0.3837
  337MOL0     H44434   9.215   5.987   9.435  0.0904 -1.5638 -1.1939
  337MOL0     H44435   9.109   6.153   9.209  2.2398  1.1362  0.6643
  337MOL0     H44436   9.096   6.175   9.378 -0.0101 -0.3078  0.4688
  337MOL0     H44437   9.022   5.827   9.165 -2.2985 -1.1075 -0.3240
  337MOL0     H44438   8.715   5.681   9.236 -0.1327 -0.7339 -0.9759
  337MOL0     H44439   8.843   5.686   9.127  0.7672 -0.8198  0.6026
  337MOL0     H44440   8.661   5.711   8.987  0.5777  0.0420 -0.4973
  337MOL0     H44441   8.719   5.868   9.003  1.0615 -1.7043 -0.0318
  337MOL0     H44442   8.532   5.929   9.164  3.3404 -0.2597  0.6357
  337MOL0     H44443   8.471   5.854   9.010 -0.3332  0.6908  0.4208
  337MOL0     H44444   8.502   5.703   9.275 -0.8457 -2.8885 -0.0822
  337MOL0     H44445   8.446   5.636   9.125  0.2838  0.3771 -1.7955
  337MOL0     H44446   8.382   5.578   9.382 -0.3826 -0.1168 -0.6128
  337MOL0     H44447   8.222   5.434   9.479  2.6975  0.4174 -0.4727
  337MOL0     H44448   7.601   5.523   9.489  3.5378  1.4838  0.3953
  337MOL0     H44449   7.416   5.420   9.630 -0.9936 -2.0559 -2.7337
  337MOL0     H44450   7.261   5.204   9.718  1.1291 -1.3200 -0.3243
  337MOL0     H44451   7.305   5.348   9.813 -3.6927 -0.5936  2.0269
  337MOL0     H44452   7.342   5.183  10.017 -0.3465 -0.7924 -0.1967
  337MOL0     H44453   7.261   5.069   9.918  0.4906 -1.0388  2.6150
  337MOL0     H44454   7.058   5.233   9.915 -2.4140  1.1381  1.5279
  337MOL0     H44455   7.159   5.341  10.013 -2.3723  1.0892 -1.3859
  337MOL0     H44456   7.083   5.055  10.092  2.9641 -1.2289  1.6237
  337MOL0     H44457   7.173   5.168  10.182  1.6774 -1.9951 -1.5278
  337MOL0     H44458   6.878   5.235  10.107 -1.2585 -1.9563  0.8560
  337MOL0     H44459   6.993   5.334  10.195  0.2678  0.0166 -0.7076
  337MOL0     H44460   7.019   5.119  10.355 -1.0697 -0.8766  1.5215
  337MOL0     H44461   6.875   5.054  10.269 -2.4197  0.5874  2.7137
  337MOL0     H44462   6.886   5.318  10.407 -1.4041 -0.0258  0.4889
  337MOL0     H44463   6.740   5.251  10.318 -1.3648  0.2327  2.9032
  337MOL0     H44464   6.836   5.146  10.584 -0.6693  0.6222  1.0395
  337MOL0     H44465   6.728   5.068  10.475  0.1138  1.0355 -3.7953
  337MOL0     H44466   7.685   5.124   9.772 -5.2034 -0.9555 -0.6787
  337MOL0     H44467   7.879   5.254   9.667 -0.2738 -0.9306  1.9023
  337MOL0     H44468   7.901   5.627   9.292 -0.0495  0.5918  1.3748
  337MOL0     H44469   8.059   5.791   9.185 -2.4987 -2.0073 -0.8531
  337MOL0     H44470  10.005   6.557   9.192 -3.0953  2.9615 -0.7734
  337MOL0     H44471  10.218   6.695   9.263  0.8178  0.1112  1.6348
  337MOL0     H44472  10.496   6.855   9.404 -2.3159  1.6087 -0.0472
  337MOL0     H44473  10.718   6.919   9.435  1.2993 -0.2914  1.8552
  337MOL0     H44474  10.833   7.116   9.815 -4.7104 -0.7774 -1.7143
  337MOL0     H44475  10.805   7.243   9.704 -0.8120 -0.8366 -1.1491
  337MOL0     H44476  11.054   7.256   9.770  3.5374 -3.5942  2.4089
  337MOL0     H44477  11.084   7.097   9.729 -0.8135  0.8884  4.1163
  337MOL0     H44478  11.010   7.292   9.519  0.3408  0.1383 -1.2271
  337MOL0     H44479  11.028   7.125   9.488 -2.4027  0.9565  0.2208
  337MOL0     H44480  11.266   7.285   9.628  3.4955 -1.8187  0.2305
  337MOL0     H44481  11.270   7.116   9.600 -0.4600  1.1556  3.1808
  337MOL0     H44482  11.314   7.220   9.196  2.2602 -0.7626  0.2757
  337MOL0     H44483  10.631   7.108   9.804  4.5098 -1.6765 -0.8304
  337MOL0     H44484  10.405   7.048   9.776  0.9577  2.7891 -0.2990
  338MOL0     O44485   3.191   3.808  10.588 -0.6911  0.1669  1.0789
  338MOL0     C44486   3.275   3.785  10.494 -0.1557  0.8475 -0.5866
  338MOL0     O44487   3.253   3.799  10.357 -0.1384  0.2268  0.1093
  338MOL0     C44488   3.127   3.808  10.304  0.2260  0.3346  0.3354
  338MOL0     C44489   3.018   3.749  10.372  1.3367 -0.7166  0.7930
  338MOL0     C44490   2.890   3.765  10.322 -0.5937 -0.6440 -0.7042
  338MOL0     C44491   2.863   3.836  10.200  0.0982  1.3193  0.2555
  338MOL0     O44492   2.735   3.857  10.144 -0.4709  0.3794  0.1399
  338MOL0     C44493   2.628   3.793  10.209  0.6108  0.2021  0.7887
  338MOL0     C44494   2.507   3.848  10.145 -0.0059  0.1291 -0.0907
  338MOL0     C44495   2.372   3.790  10.200 -0.4448  0.8173 -1.7185
  338MOL0     C44496   2.252   3.828  10.113  0.5193 -0.0123 -0.2307
  338MOL0     C44497   2.147   3.717  10.143  0.7132 -0.5514 -0.1834
  338MOL0     C44498   2.016   3.743  10.073 -0.0943  0.3554  0.0368
  338MOL0     C44499   1.906   3.637  10.070 -0.6897  0.7253  0.2426
  338MOL0     C44500   1.767   3.698  10.089 -0.7096 -0.1340  0.3403
  338MOL0     N44501   1.656   3.607  10.077  0.9473 -1.5226  0.1197
  338MOL0     C44502   1.650   3.488  10.127 -0.4387 -0.5094 -0.4029
  338MOL0     C44503   1.518   3.447  10.133  0.3225 -0.2727 -0.5829
  338MOL0     C44504   1.458   3.331  10.203 -0.3597  0.2886 -0.9815
  338MOL0     C44505   1.471   3.324  10.356  0.3096 -0.4061 -0.1743
  338MOL0     C44506   1.420   3.450  10.431  0.5511 -0.1537  0.6706
  338MOL0     C44507   1.431   3.432  10.580 -0.0157  0.5739  0.1769
  338MOL0     O44508   1.325   3.342  10.639  0.0136  1.0293  0.3818
  338MOL0     C44509   1.202   3.395  10.671 -1.2574 -0.8757  0.4525
  338MOL0     C44510   1.113   3.301  10.715 -0.5559 -0.3260  0.6267
  338MOL0     C44511   0.976   3.329  10.711 -0.6309 -0.2200  0.7557
  338MOL0     C44512   0.936   3.454  10.668 -0.6500  0.3281  0.5069
  338MOL0     C44513   0.787   3.482  10.643 -1.0241 -0.2423  0.0189
  338MOL0     O44514   0.750   3.614  10.609 -0.2960 -0.1906 -0.1364
  338MOL0     C44515   0.630   3.624  10.547  0.4550  0.7202 -0.3558
  338MOL0     C44516   0.595   3.589  10.410 -0.7468  0.5368  0.2233
  338MOL0     C44517   0.465   3.594  10.353  0.5509 -0.3710 -0.3186
  338MOL0     C44518   0.360   3.655  10.436 -0.2964  0.7162 -0.6826
  338MOL0     O44519   0.226   3.668  10.402 -0.4834  0.0917  0.2509
  338MOL0     C44520   0.166   3.592  10.293 -0.2164  0.8867 -0.5770
  338MOL0     C44521   0.017   3.621  10.299  0.1346 -0.6045 -0.0432
  338MOL0     C44522  -0.010   3.767  10.267 -0.5170 -0.8246 -0.6679
  338MOL0     C44523  -0.160   3.798  10.272 -0.5843  0.2132 -0.5172
  338MOL0     C44524  -0.223   3.837  10.137  0.4582 -0.3503 -0.0684
  338MOL0     C44525  -0.345   3.945  10.159  0.0229  0.4368  0.2127
  338MOL0     C44526  -0.429   3.934  10.025  0.0900  0.4143 -0.7255
  338MOL0     C44527  -0.512   4.057  10.001  0.4406 -0.6369  0.0166
  338MOL0    Cl44528  -0.534   4.068   9.829  0.1935 -0.5017 -0.0916
  338MOL0     C44529   0.398   3.680  10.572 -0.1341  0.5413  0.1789
  338MOL0     C44530   0.526   3.672  10.625 -0.1469 -0.9622  0.7231
  338MOL0     O44531   0.712   3.388  10.647  0.2923  0.4317 -0.4620
  338MOL0     C44532   1.033   3.557  10.648 -0.2213  0.1433  0.1944
  338MOL0     C44533   1.164   3.525  10.643 -0.1329  1.2069  0.1477
  338MOL0     N44534   1.449   3.542  10.062  0.6915  0.1244  0.3654
  338MOL0     N44535   1.523   3.647  10.050 -0.5228  0.1474 -0.3104
  338MOL0     C44536   2.969   3.888  10.134 -0.3094 -0.0371  0.1817
  338MOL0     C44537   3.097   3.884  10.188 -0.0549  0.2020 -0.0289
  338MOL0     C44538   3.410   3.761  10.549  0.1447  1.4565  0.2412
  338MOL0     C44539   3.522   3.776  10.462 -0.5041  0.0002 -0.0456
  338MOL0     C44540   3.655   3.737  10.505 -0.5346  0.1963  0.5313
  338MOL0     C44541   3.678   3.678  10.633 -0.2113 -0.3035  0.0831
  338MOL0     O44542   3.807   3.654  10.665  0.1089  0.1535  0.0471
  338MOL0     C44543   3.821   3.577  10.788 -0.2004  0.2208  0.1386
  338MOL0     C44544   3.954   3.509  10.809 -0.1553  0.8712 -0.1835
  338MOL0     C44545   3.938   3.409  10.920  0.8407 -0.7536 -0.5913
  338MOL0     C44546   4.067   3.383  11.001 -0.0612 -0.4649 -0.0094
  338MOL0     C44547   4.181   3.347  10.919  0.6189  0.0676 -0.3005
  338MOL0     C44548   4.252   3.305  10.835  0.2719  0.4034  0.7448
  338MOL0     C44549   3.566   3.660  10.716 -0.2089  0.7849 -0.0713
  338MOL0     C44550   3.443   3.699  10.668  0.3603  0.5921 -0.5359
  338MOL0     H44551   3.037   3.683  10.456 -0.7351 -3.1108 -0.4996
  338MOL0     H44552   2.810   3.714  10.374  0.2983 -1.3910 -0.0089
  338MOL0     H44553   2.621   3.817  10.315 -2.6155  2.3704  0.2176
  338MOL0     H44554   2.616   3.684  10.199 -0.2067  0.2708  0.9217
  338MOL0     H44555   2.513   3.829  10.037 -1.1402  0.5673 -0.2372
  338MOL0     H44556   2.500   3.953  10.175 -0.9831 -0.3541  1.4656
  338MOL0     H44557   2.358   3.820  10.304 -0.6448 -0.1597 -1.4556
  338MOL0     H44558   2.377   3.681  10.196 -0.5902  0.8211 -1.9629
  338MOL0     H44559   2.224   3.933  10.126 -0.0204  0.1575 -2.3234
  338MOL0     H44560   2.288   3.806  10.012 -0.5963  0.3509 -0.7350
  338MOL0     H44561   2.120   3.720  10.249  3.1160  0.4295  0.4486
  338MOL0     H44562   2.185   3.617  10.119 -2.7450 -1.5874 -2.0303
  338MOL0     H44563   2.040   3.764   9.968 -0.5176 -1.4996 -0.4758
  338MOL0     H44564   1.976   3.828  10.127 -0.8032  0.0113  0.0605
  338MOL0     H44565   1.927   3.574   9.983  1.5148  0.2399  1.0587
  338MOL0     H44566   1.931   3.575  10.156  0.9383  0.5657 -0.3145
  338MOL0     H44567   1.753   3.774  10.013  2.1488  1.3583  1.1396
  338MOL0     H44568   1.759   3.753  10.183 -1.7919  1.7216 -0.7973
  338MOL0     H44569   1.735   3.438  10.172  0.2618  1.2514  0.3261
  338MOL0     H44570   1.521   3.248  10.169  0.4853  0.2579  0.5382
  338MOL0     H44571   1.354   3.314  10.175 -0.7636  0.0638  0.5933
  338MOL0     H44572   1.576   3.304  10.377  0.3748  1.7034  1.8251
  338MOL0     H44573   1.409   3.241  10.391  0.3002 -0.0844  0.5819
  338MOL0     H44574   1.483   3.534  10.401  0.7804 -0.5262  0.0912
  338MOL0     H44575   1.316   3.476  10.406  1.2013  0.4041 -1.7141
  338MOL0     H44576   1.421   3.530  10.627 -0.2335  0.6152  0.0463
  338MOL0     H44577   1.529   3.387  10.598 -0.4227 -0.4936 -0.1798
  338MOL0     H44578   1.142   3.200  10.741  1.0609 -0.0018  0.1846
  338MOL0     H44579   0.894   3.265  10.744 -1.2125  1.1582  2.0959
  338MOL0     H44580   0.682   3.566  10.349 -0.7803 -0.7156  0.6207
  338MOL0     H44581   0.449   3.552  10.254  3.0349 -2.6517  0.1150
  338MOL0     H44582   0.181   3.485  10.304 -0.5506  1.0063  1.3654
  338MOL0     H44583   0.203   3.633  10.198 -1.0960  2.2341 -0.3735
  338MOL0     H44584  -0.020   3.597  10.399 -0.0958  1.2512  0.3452
  338MOL0     H44585  -0.030   3.558  10.222  1.5043  0.6405 -1.9838
  338MOL0     H44586   0.033   3.786  10.168 -0.0519  1.5734 -0.0587
  338MOL0     H44587   0.039   3.836  10.336  0.8015 -1.5377 -0.8613
  338MOL0     H44588  -0.228   3.726  10.320 -1.6338  2.0259  0.8407
  338MOL0     H44589  -0.178   3.883  10.338 -3.1933 -2.2610  2.2615
  338MOL0     H44590  -0.250   3.747  10.082  0.4691  0.6469 -1.7735
  338MOL0     H44591  -0.151   3.890  10.074  0.6378 -1.6178 -0.9730
  338MOL0     H44592  -0.305   4.044  10.180 -0.0040  1.2288 -3.0359
  338MOL0     H44593  -0.408   3.915  10.243 -1.7545  3.2173 -0.0279
  338MOL0     H44594  -0.363   3.916   9.940 -2.4994 -1.5187 -2.5113
  338MOL0     H44595  -0.495   3.846  10.021  0.7144 -0.0107 -2.9160
  338MOL0     H44596  -0.449   4.140  10.031 -1.5672  0.2775  1.9884
  338MOL0     H44597  -0.612   4.055  10.046  0.5605  0.9034  0.3864
  338MOL0     H44598   0.317   3.718  10.634  0.8210  2.2896  0.4134
  338MOL0     H44599   0.553   3.681  10.729  2.3700 -1.5927  0.2036
  338MOL0     H44600   1.016   3.663  10.633  0.6663  0.1886 -0.6331
  338MOL0     H44601   1.233   3.601  10.607 -0.6265  2.5127  1.8450
  338MOL0     H44602   2.944   3.944  10.045 -0.7512  0.7334  0.7772
  338MOL0     H44603   3.184   3.929  10.142 -0.2734  1.0065  0.3187
  338MOL0     H44604   3.510   3.826  10.366 -0.0232 -2.2085 -1.3207
  338MOL0     H44605   3.734   3.757  10.434 -0.1823  2.6654  1.5356
  338MOL0     H44606   3.746   3.498  10.787  1.3220 -1.2678 -0.5565
  338MOL0     H44607   3.788   3.635  10.875 -1.8166  0.0802 -0.3369
  338MOL0     H44608   3.982   3.456  10.718  0.0758  1.4541 -0.4542
  338MOL0     H44609   4.018   3.594  10.833 -3.6278  3.2123  1.8301
  338MOL0     H44610   3.910   3.310  10.883  3.6337 -1.7885 -0.1690
  338MOL0     H44611   3.865   3.457  10.986  2.6211  0.6770  0.4381
  338MOL0     H44612   4.105   3.464  11.064  0.6653 -1.0370  0.3103
  338MOL0     H44613   4.040   3.302  11.069  1.7990 -0.3921  0.8849
  338MOL0     H44614   4.312   3.261  10.757 -0.0134  1.9576 -0.3959
  338MOL0     H44615   3.579   3.616  10.814  1.7755 -0.0382 -0.6629
  338MOL0     H44616   3.357   3.683  10.731  1.9503  1.0604  1.9048
  339MOL0     O44617   5.973   3.398   1.431  0.5234 -0.2656 -0.2797
  339MOL0     C44618   5.933   3.293   1.480 -0.7816 -0.4257  0.1949
  339MOL0     O44619   5.827   3.278   1.566 -0.7025  0.4951  0.4340
  339MOL0     C44620   5.733   3.377   1.579 -0.6851 -0.3578 -0.7748
  339MOL0     C44621   5.597   3.341   1.551  1.0673  0.6116 -0.9125
  339MOL0     C44622   5.497   3.441   1.543  0.7891  0.4148  0.0335
  339MOL0     C44623   5.528   3.574   1.573  0.3609 -0.0567 -0.1459
  339MOL0     O44624   5.421   3.660   1.579  0.6934 -0.4740 -0.1405
  339MOL0     C44625   5.358   3.691   1.449 -0.7120 -0.8286 -0.3629
  339MOL0     C44626   5.203   3.736   1.478 -0.4898  0.2172 -0.3503
  339MOL0     C44627   5.126   3.772   1.358  0.4359 -0.1079  1.1622
  339MOL0     C44628   4.987   3.828   1.390 -0.1233  0.4877 -0.8867
  339MOL0     C44629   4.905   3.885   1.262  0.3035  0.6955 -0.3056
  339MOL0     C44630   4.814   3.774   1.211 -0.2456 -0.1309  0.0920
  339MOL0     C44631   4.721   3.826   1.104  0.6959 -0.3269  0.4403
  339MOL0     C44632   4.621   3.720   1.060 -0.4298  0.5907 -0.1599
  339MOL0     N44633   4.492   3.776   1.010  0.4688 -0.0712  0.7757
  339MOL0     C44634   4.425   3.878   1.063  0.2198  0.1319 -1.6951
  339MOL0     C44635   4.307   3.892   0.991  0.4264 -0.8848 -0.1369
  339MOL0     C44636   4.200   3.989   1.038  0.4287  0.9435  0.1733
  339MOL0     C44637   4.101   4.033   0.933  0.0557 -0.3591  0.1779
  339MOL0     C44638   3.992   4.129   0.987  0.5454 -0.1090  0.1763
  339MOL0     C44639   3.873   4.061   1.061 -0.5350  0.3307  0.0074
  339MOL0     O44640   3.775   4.162   1.076  0.2746 -0.4887 -0.1965
  339MOL0     C44641   3.642   4.113   1.107 -0.3804  0.4238  0.3710
  339MOL0     C44642   3.548   4.211   1.106 -1.2639 -0.4247 -0.0473
  339MOL0     C44643   3.410   4.182   1.120  0.0115  0.4044 -0.3595
  339MOL0     C44644   3.374   4.048   1.140  0.3304 -0.3531 -0.1988
  339MOL0     C44645   3.228   4.014   1.154  0.2668  0.0566 -0.7104
  339MOL0     O44646   3.147   4.124   1.146  0.0653 -0.3797 -0.4081
  339MOL0     C44647   3.013   4.127   1.159  0.0120  0.1924  0.0610
  339MOL0     C44648   2.919   4.136   1.054 -0.6166 -0.3190  0.1169
  339MOL0     C44649   2.784   4.158   1.081  0.6885 -0.2266 -0.3159
  339MOL0     C44650   2.731   4.162   1.212  0.9154  0.6373  0.5758
  339MOL0     O44651   2.601   4.196   1.243 -0.0257 -0.3665 -0.4845
  339MOL0     C44652   2.500   4.109   1.185  0.8662 -0.0941  0.0306
  339MOL0     C44653   2.375   4.108   1.263 -0.0624  0.0491 -0.6060
  339MOL0     C44654   2.268   4.014   1.196 -0.0103  0.4221 -0.3356
  339MOL0     C44655   2.294   3.863   1.241  0.3170 -0.1040  0.0497
  339MOL0     C44656   2.177   3.764   1.199  0.3743  0.2029  0.0596
  339MOL0     C44657   2.184   3.698   1.061  0.2492  0.1630 -0.4824
  339MOL0     C44658   2.303   3.604   1.032 -0.5563  0.3612 -0.2426
  339MOL0     C44659   2.300   3.483   1.129  0.1387  0.3080  0.5287
  339MOL0    Cl44660   2.139   3.410   1.168 -0.2001 -0.1507  0.2718
  339MOL0     C44661   2.827   4.145   1.313 -0.1664 -0.6556 -0.8556
  339MOL0     C44662   2.963   4.132   1.290 -0.1795  0.6506  0.3299
  339MOL0     O44663   3.194   3.903   1.179  0.1850  0.5253 -0.4760
  339MOL0     C44664   3.473   3.946   1.147 -0.6456 -0.2543 -0.4315
  339MOL0     C44665   3.611   3.981   1.130  0.2491  0.4322 -0.0087
  339MOL0     N44666   4.319   3.807   0.887  0.3675  0.5031  0.5506
  339MOL0     N44667   4.429   3.734   0.899  0.3001 -0.3914 -0.2473
  339MOL0     C44668   5.656   3.611   1.603  0.1126  1.2595  0.8405
  339MOL0     C44669   5.761   3.510   1.608  0.3103 -0.9399  0.1578
  339MOL0     C44670   6.020   3.177   1.445  0.2908 -0.1368 -0.9865
  339MOL0     C44671   5.983   3.046   1.495  0.3368 -0.9927 -0.2407
  339MOL0     C44672   6.062   2.936   1.467 -0.1796  0.8593  0.9712
  339MOL0     C44673   6.176   2.954   1.378  0.7287 -1.0802  0.5269
  339MOL0     O44674   6.250   2.849   1.337 -0.3345  0.6622 -0.4767
  339MOL0     C44675   6.356   2.809   1.428  0.6860 -0.4455 -0.4909
  339MOL0     C44676   6.423   2.696   1.353  0.3666 -0.3249  0.1418
  339MOL0     C44677   6.540   2.652   1.430 -0.5615 -0.6275 -0.0563
  339MOL0     C44678   6.606   2.537   1.360 -0.3808  0.3292 -0.1411
  339MOL0     C44679   6.738   2.505   1.412 -0.7104 -0.2858  0.4057
  339MOL0     C44680   6.859   2.477   1.446 -1.1998  0.4005 -0.6243
  339MOL0     C44681   6.209   3.081   1.329  0.2253  0.3013 -0.4903
  339MOL0     C44682   6.134   3.191   1.368  0.1069 -0.1253 -0.5011
  339MOL0     H44683   5.562   3.239   1.538  0.3463  1.0830 -3.1099
  339MOL0     H44684   5.394   3.412   1.526  0.0612  2.7015  0.1884
  339MOL0     H44685   5.346   3.605   1.383 -2.3031 -2.1220  1.4829
  339MOL0     H44686   5.418   3.766   1.398 -0.2377 -1.3803 -0.6306
  339MOL0     H44687   5.208   3.821   1.547 -1.7690  1.9713 -2.2996
  339MOL0     H44688   5.161   3.646   1.523  0.3419  0.1331  0.2761
  339MOL0     H44689   5.122   3.694   1.281 -1.6312  0.9030  0.1646
  339MOL0     H44690   5.178   3.853   1.305  0.9895 -0.8769  0.4955
  339MOL0     H44691   4.932   3.741   1.427  0.1602  0.6246 -0.1257
  339MOL0     H44692   4.991   3.898   1.474 -0.4388  0.2936 -0.7093
  339MOL0     H44693   4.972   3.928   1.188 -0.6805  1.1021 -0.9893
  339MOL0     H44694   4.846   3.962   1.313 -1.0852 -1.0847  0.9210
  339MOL0     H44695   4.745   3.732   1.284 -1.1112 -2.4583 -1.9355
  339MOL0     H44696   4.880   3.701   1.164  1.5396  2.0845 -1.0593
  339MOL0     H44697   4.667   3.908   1.152 -1.7641 -0.9174 -1.1101
  339MOL0     H44698   4.772   3.853   1.011 -1.3287 -0.8604 -0.9070
  339MOL0     H44699   4.613   3.643   1.137 -0.3413 -1.0122 -1.6992
  339MOL0     H44700   4.670   3.671   0.976  2.8789  2.0564  0.7777
  339MOL0     H44701   4.453   3.933   1.152 -0.7547  0.8229 -1.7960
  339MOL0     H44702   4.246   4.080   1.076 -0.2648  0.7509  1.5407
  339MOL0     H44703   4.140   3.933   1.110 -0.0631  1.6920  0.3596
  339MOL0     H44704   4.054   3.951   0.877  2.7071 -0.7018 -1.7179
  339MOL0     H44705   4.162   4.081   0.855  2.8045 -3.3295  0.3227
  339MOL0     H44706   4.040   4.201   1.054 -0.5291  0.6603  0.1552
  339MOL0     H44707   3.951   4.178   0.898  0.6930 -1.4672 -0.6756
  339MOL0     H44708   3.913   4.029   1.158 -0.8562  0.6588  0.2468
  339MOL0     H44709   3.843   3.977   0.997  1.6408  1.0059 -2.0641
  339MOL0     H44710   3.567   4.317   1.092  1.1056 -0.3999  2.4442
  339MOL0     H44711   3.328   4.252   1.109 -1.6523 -1.4341 -0.1805
  339MOL0     H44712   2.955   4.143   0.952 -1.3910  3.9134 -0.0146
  339MOL0     H44713   2.717   4.170   0.997  1.1658  0.7208 -0.5747
  339MOL0     H44714   2.547   4.016   1.152  4.4716  1.6797 -0.3696
  339MOL0     H44715   2.478   4.167   1.095  1.6254  3.2364  1.8555
  339MOL0     H44716   2.329   4.207   1.270 -0.3309 -0.1366  0.4527
  339MOL0     H44717   2.411   4.084   1.364 -1.2033  1.3432  0.1550
  339MOL0     H44718   2.267   4.019   1.087 -2.5390 -0.8992 -0.4437
  339MOL0     H44719   2.168   4.035   1.234 -0.8668  0.2103 -2.3469
  339MOL0     H44720   2.389   3.821   1.205  0.0387 -1.0589  0.4112
  339MOL0     H44721   2.296   3.867   1.351 -0.0832  1.2646  0.0223
  339MOL0     H44722   2.084   3.822   1.204 -0.3395 -1.0191  1.7606
  339MOL0     H44723   2.170   3.677   1.265 -0.7198  1.3439  1.5156
  339MOL0     H44724   2.207   3.777   0.988 -1.7626  1.2518 -0.0339
  339MOL0     H44725   2.086   3.651   1.045 -0.3346  1.4107 -0.7291
  339MOL0     H44726   2.290   3.578   0.927  0.0021  0.7546 -0.4148
  339MOL0     H44727   2.394   3.665   1.038  0.0273 -0.3796 -1.2820
  339MOL0     H44728   2.351   3.516   1.219  3.0768  1.2428 -1.3508
  339MOL0     H44729   2.367   3.407   1.089  0.8272  1.5682 -0.7979
  339MOL0     H44730   2.788   4.141   1.414 -1.8486  0.1459 -1.4376
  339MOL0     H44731   3.036   4.113   1.368  0.9760  1.1564 -0.5928
  339MOL0     H44732   3.451   3.841   1.165  4.0596 -1.3012  0.7545
  339MOL0     H44733   3.683   3.899   1.135  0.5076  0.7108  1.6613
  339MOL0     H44734   5.677   3.714   1.629  2.8237  0.9839  0.1352
  339MOL0     H44735   5.863   3.548   1.610 -0.9872  2.8389  1.0393
  339MOL0     H44736   5.895   3.035   1.557 -1.6535  1.7839 -2.3143
  339MOL0     H44737   6.031   2.834   1.490  0.3988  0.4889  0.1648
  339MOL0     H44738   6.312   2.779   1.524  1.1585 -1.9717 -0.7138
  339MOL0     H44739   6.429   2.890   1.436 -0.8612  1.2831 -2.7356
  339MOL0     H44740   6.346   2.622   1.328 -2.1919  2.3689 -0.6006
  339MOL0     H44741   6.459   2.720   1.252  0.2759  0.6200  0.3300
  339MOL0     H44742   6.520   2.630   1.536 -0.4797  0.3865  0.1832
  339MOL0     H44743   6.612   2.735   1.426 -1.8292  0.5215  0.0791
  339MOL0     H44744   6.543   2.448   1.369  1.2973 -0.8992 -0.1196
  339MOL0     H44745   6.617   2.566   1.255 -1.3184  1.2710  0.0021
  339MOL0     H44746   6.962   2.471   1.473 -1.2656 -1.2646 -0.5925
  339MOL0     H44747   6.301   3.087   1.271  1.8000  1.6161  1.9522
  339MOL0     H44748   6.164   3.291   1.340 -1.9313  0.6030 -0.2539
  340MOL0     O44749   0.247  11.048   2.731  0.4102 -0.2959  0.6617
  340MOL0     C44750   0.293  11.040   2.844  0.9771 -0.2140 -0.4353
  340MOL0     O44751   0.425  11.045   2.877 -0.2146 -0.8153 -0.9520
  340MOL0     C44752   0.523  11.046   2.788 -0.2801 -0.6557  0.4402
  340MOL0     C44753   0.531  10.960   2.686 -0.0597  0.0302  0.6652
  340MOL0     C44754   0.639  10.955   2.598 -0.8170 -1.0265 -0.0133
  340MOL0     C44755   0.752  11.038   2.606  0.1414 -0.4010  0.1554
  340MOL0     O44756   0.847  11.009   2.525  0.0223 -0.0579 -0.6127
  340MOL0     C44757   0.986  11.051   2.555  0.2478 -0.8009 -0.4671
  340MOL0     C44758   1.089  10.967   2.465 -0.0301 -0.7270  0.3182
  340MOL0     C44759   1.220  11.038   2.483 -0.1273 -0.4860  0.2114
  340MOL0     C44760   1.331  10.958   2.433 -0.3993 -0.8511  0.0918
  340MOL0     C44761   1.335  10.961   2.272 -0.5380  0.7320 -0.4063
  340MOL0     C44762   1.437  10.867   2.214  0.6640 -0.8136  0.7189
  340MOL0     C44763   1.581  10.910   2.228  0.3126  0.0207  0.5123
  340MOL0     C44764   1.600  11.046   2.157  0.3695 -0.3134  0.0611
  340MOL0     N44765   1.737  11.070   2.113  0.4427 -0.1043 -0.3951
  340MOL0     C44766   1.810  10.990   2.028 -0.2459  0.1354  0.2344
  340MOL0     C44767   1.923  11.057   2.004  0.0672  0.3424  1.0118
  340MOL0     C44768   2.045  10.992   1.936 -0.0870 -1.0551  0.0070
  340MOL0     C44769   2.062  11.001   1.793  0.2084 -1.1110  1.3286
  340MOL0     C44770   2.143  10.886   1.742  0.8437  0.1285  0.0378
  340MOL0     C44771   2.289  10.914   1.786 -0.3834 -0.1474  0.2506
  340MOL0     O44772   2.379  10.858   1.693  0.0639  0.1299 -0.5374
  340MOL0     C44773   2.497  10.815   1.745  0.3804 -0.1476 -0.1658
  340MOL0     C44774   2.578  10.746   1.659 -0.8153  0.5699 -1.1144
  340MOL0     C44775   2.699  10.687   1.690  0.1444 -0.1965 -0.2484
  340MOL0     C44776   2.753  10.708   1.818 -1.5070  0.3127  0.3760
  340MOL0     C44777   2.897  10.654   1.859 -0.4189  0.6681 -0.8588
  340MOL0     O44778   2.946  10.692   1.970 -0.4773 -0.4429 -0.2114
  340MOL0     C44779   3.052  10.636   2.031 -0.5873 -0.4580 -0.9005
  340MOL0     C44780   3.140  10.724   2.103  0.6234 -0.0667 -0.5121
  340MOL0     C44781   3.240  10.683   2.196  0.5853 -0.4402  0.1225
  340MOL0     C44782   3.276  10.549   2.196 -0.1116 -0.1358 -0.0760
  340MOL0     O44783   3.384  10.510   2.278 -0.0863  0.4436  0.9287
  340MOL0     C44784   3.431  10.377   2.295  0.6324 -0.2864 -0.0028
  340MOL0     C44785   3.543  10.370   2.395 -0.3118 -0.0307  0.3253
  340MOL0     C44786   3.665  10.448   2.376 -0.6581 -0.0286  0.1467
  340MOL0     C44787   3.757  10.411   2.495 -0.4549  0.6008 -0.7949
  340MOL0     C44788   3.836  10.286   2.464  0.0361 -0.4141 -0.5423
  340MOL0     C44789   3.975  10.281   2.519 -0.0699 -0.8527 -0.1936
  340MOL0     C44790   4.055  10.153   2.483 -0.6666 -0.6420 -0.2680
  340MOL0     C44791   4.000  10.031   2.558 -0.6031 -0.5399 -0.5287
  340MOL0    Cl44792   4.012  10.048   2.738  0.1664  0.4874 -0.3909
  340MOL0     C44793   3.199  10.459   2.120 -0.1735  0.1195 -0.2934
  340MOL0     C44794   3.088  10.495   2.040 -0.4794  0.1141 -0.0532
  340MOL0     O44795   2.959  10.578   1.778  0.6283 -0.4070  1.0221
  340MOL0     C44796   2.680  10.793   1.903  0.7573  0.9753  0.5038
  340MOL0     C44797   2.554  10.843   1.874 -0.4992 -0.0928  0.3052
  340MOL0     N44798   1.913  11.178   2.066 -0.5843 -0.7240  0.4309
  340MOL0     N44799   1.796  11.189   2.117 -0.7252 -1.0471 -0.7736
  340MOL0     C44800   0.755  11.123   2.721 -0.3441  0.1776  1.0144
  340MOL0     C44801   0.643  11.129   2.804  0.1832  0.2746  0.4248
  340MOL0     C44802   0.198  11.026   2.953  0.2265  0.0799  0.6419
  340MOL0     C44803   0.066  10.981   2.930  0.0141  0.1308 -0.8969
  340MOL0     C44804  -0.022  10.968   3.033 -0.2391 -0.2135  0.3718
  340MOL0     C44805   0.014  11.007   3.166 -0.3582 -0.2246 -0.6675
  340MOL0     O44806  -0.064  10.989   3.285  0.5546 -0.6817  0.1063
  340MOL0     C44807  -0.179  10.898   3.273  0.3498 -0.0400 -0.3499
  340MOL0     C44808  -0.240  10.862   3.406  0.0133  0.1845 -0.5685
  340MOL0     C44809  -0.137  10.809   3.502  0.2904  0.4054 -0.2765
  340MOL0     C44810  -0.207  10.800   3.637  0.3635  0.8429 -0.2046
  340MOL0     C44811  -0.322  10.696   3.648 -0.1842  0.8193 -0.0010
  340MOL0     C44812  -0.413  10.612   3.650 -0.2083 -0.7354 -0.3820
  340MOL0     C44813   0.150  11.047   3.188  0.7135  0.2723 -0.4991
  340MOL0     C44814   0.240  11.047   3.086 -0.2781 -0.6044 -0.6537
  340MOL0     H44815   0.448  10.892   2.670  0.0592 -0.5738  2.4199
  340MOL0     H44816   0.638  10.875   2.525  3.1965 -1.7762  0.5093
  340MOL0     H44817   1.001  11.032   2.662  1.7743 -1.9387 -0.8491
  340MOL0     H44818   1.014  11.155   2.541  1.2468 -0.5850  2.4005
  340MOL0     H44819   1.055  10.973   2.361  1.3166  0.1459 -0.0958
  340MOL0     H44820   1.088  10.862   2.497  0.4573 -1.2534 -1.3272
  340MOL0     H44821   1.243  11.065   2.586 -1.5479  3.0124 -0.2376
  340MOL0     H44822   1.208  11.134   2.432 -2.8792 -0.9418 -0.1703
  340MOL0     H44823   1.427  10.994   2.471 -0.0673 -0.2119 -1.2808
  340MOL0     H44824   1.325  10.851   2.453 -3.6212 -0.9683 -0.9490
  340MOL0     H44825   1.355  11.060   2.230 -1.3514  0.2450 -2.0034
  340MOL0     H44826   1.247  10.907   2.236  1.2526 -1.1729 -2.2227
  340MOL0     H44827   1.413  10.850   2.108 -0.8024 -2.8687  1.3079
  340MOL0     H44828   1.425  10.764   2.250  0.6199 -1.1936 -0.3375
  340MOL0     H44829   1.622  10.933   2.327 -1.0622 -2.1127  1.6533
  340MOL0     H44830   1.639  10.835   2.173 -5.8488 -3.7299 -1.8250
  340MOL0     H44831   1.565  11.133   2.214 -0.0736  0.2760 -1.0890
  340MOL0     H44832   1.532  11.044   2.072 -0.5635  3.6816  0.5355
  340MOL0     H44833   1.799  10.888   1.994  4.2529 -0.3486 -0.4303
  340MOL0     H44834   2.053  10.888   1.969  0.5399 -1.3642 -1.0672
  340MOL0     H44835   2.139  11.040   1.965  1.0479  0.3258 -4.9234
  340MOL0     H44836   2.105  11.097   1.763 -2.1187 -0.4538 -0.2538
  340MOL0     H44837   1.963  10.997   1.746  1.0529 -1.9293 -0.4641
  340MOL0     H44838   2.099  10.790   1.771 -1.5220  1.7607  2.3405
  340MOL0     H44839   2.133  10.896   1.634  1.4474  0.0389 -0.0294
  340MOL0     H44840   2.294  10.873   1.887 -0.1473  0.0717  0.3298
  340MOL0     H44841   2.303  11.022   1.787 -0.8101 -0.0953  0.9969
  340MOL0     H44842   2.536  10.751   1.559  0.8911 -0.9691 -1.9525
  340MOL0     H44843   2.756  10.632   1.617  0.3839 -0.6751  0.2999
  340MOL0     H44844   3.124  10.830   2.091  0.0951  0.2515  2.2884
  340MOL0     H44845   3.298  10.752   2.257  1.1552 -0.5171 -0.3264
  340MOL0     H44846   3.450  10.339   2.194 -1.2258 -0.0129 -0.5021
  340MOL0     H44847   3.350  10.309   2.323 -0.9337  1.2165 -0.6590
  340MOL0     H44848   3.566  10.263   2.398 -0.8102 -0.1329  0.9282
  340MOL0     H44849   3.493  10.394   2.490  1.3520  0.7004  1.0666
  340MOL0     H44850   3.638  10.554   2.372 -0.4853  0.0306  0.4963
  340MOL0     H44851   3.708  10.424   2.278 -2.7512 -1.8468 -0.3906
  340MOL0     H44852   3.825  10.496   2.499  0.5996 -0.2368 -0.2149
  340MOL0     H44853   3.698  10.418   2.587  1.5319 -0.6633  0.6728
  340MOL0     H44854   3.855  10.273   2.357  1.6181 -2.2427 -0.0874
  340MOL0     H44855   3.782  10.194   2.490  0.2484 -0.9078 -1.7604
  340MOL0     H44856   3.968  10.297   2.627 -0.6001 -1.8825 -0.0601
  340MOL0     H44857   4.025  10.368   2.477 -0.9244 -1.5102 -2.7255
  340MOL0     H44858   4.062  10.147   2.374  0.7469  4.2093 -0.6929
  340MOL0     H44859   4.159  10.149   2.515 -0.8342 -1.5550  0.1888
  340MOL0     H44860   4.054   9.944   2.519 -1.8312 -1.4513 -0.2548
  340MOL0     H44861   3.897  10.006   2.530 -2.1763  1.4198  2.9276
  340MOL0     H44862   3.215  10.351   2.125 -1.1342  0.0159  3.0127
  340MOL0     H44863   3.036  10.421   1.980  1.2118 -1.2475  0.1026
  340MOL0     H44864   2.723  10.826   1.997 -1.0589 -0.6817  2.0127
  340MOL0     H44865   2.505  10.906   1.948 -0.0231  0.5061  0.1196
  340MOL0     H44866   0.850  11.176   2.729 -1.6307  2.9293 -0.6142
  340MOL0     H44867   0.660  11.195   2.889  1.9373 -0.3562  0.5930
  340MOL0     H44868   0.023  10.977   2.830 -3.1040  1.2821  0.2577
  340MOL0     H44869  -0.129  10.960   3.017 -0.2020  1.8535 -1.2830
  340MOL0     H44870  -0.146  10.802   3.234 -0.2147 -0.5331  0.3684
  340MOL0     H44871  -0.258  10.943   3.211  0.9387  1.7337  0.1091
  340MOL0     H44872  -0.300  10.943   3.449  0.5203  0.6982 -0.8147
  340MOL0     H44873  -0.314  10.781   3.400 -1.0188  1.1533 -1.2689
  340MOL0     H44874  -0.052  10.877   3.502  0.6771 -0.0684  0.6960
  340MOL0     H44875  -0.109  10.710   3.465  2.1619 -1.0407  4.2916
  340MOL0     H44876  -0.144  10.765   3.719 -0.5493  0.9463  0.5678
  340MOL0     H44877  -0.251  10.896   3.667  1.1533  1.1936 -0.1512
  340MOL0     H44878  -0.505  10.559   3.645 -1.2463  0.8913  0.4875
  340MOL0     H44879   0.188  11.077   3.285  0.1029  0.2877 -0.2554
  340MOL0     H44880   0.343  11.079   3.099 -0.5980  0.0224  0.5310
  341MOL0     O44881   4.265   0.827   7.843 -0.0211 -0.2488 -0.3389
  341MOL0     C44882   4.318   0.735   7.902 -0.0227  0.4324  0.2264
  341MOL0     O44883   4.256   0.619   7.957  0.4755 -0.3828  0.1513
  341MOL0     C44884   4.133   0.589   7.897  0.0630  0.1954 -0.4150
  341MOL0     C44885   4.120   0.560   7.757 -0.0039 -0.0710  0.7478
  341MOL0     C44886   3.993   0.513   7.712  0.5306 -0.3338 -0.8765
  341MOL0     C44887   3.888   0.477   7.802 -0.8137 -0.1231  0.3178
  341MOL0     O44888   3.766   0.440   7.759  0.4075  0.8246 -0.0217
  341MOL0     C44889   3.714   0.502   7.642  0.3435  0.3734  0.0498
  341MOL0     C44890   3.566   0.468   7.640 -0.6539 -0.2060  0.1801
  341MOL0     C44891   3.500   0.555   7.531  0.9205 -0.2033  0.7156
  341MOL0     C44892   3.372   0.620   7.576  0.0294  0.0096 -0.3806
  341MOL0     C44893   3.290   0.681   7.462 -0.2501  0.2747 -0.2381
  341MOL0     C44894   3.227   0.573   7.376 -0.1274 -0.4611 -0.3463
  341MOL0     C44895   3.136   0.625   7.267  0.1404  0.0889  0.5190
  341MOL0     C44896   3.213   0.695   7.154  0.2251 -0.7336  0.2995
  341MOL0     N44897   3.153   0.694   7.019  0.4027  0.4649  0.2246
  341MOL0     C44898   3.048   0.618   6.969 -0.2459  0.5936 -0.4494
  341MOL0     C44899   3.020   0.654   6.845 -0.2675 -0.0699  0.8580
  341MOL0     C44900   2.905   0.595   6.755  0.0537  0.2437 -0.3292
  341MOL0     C44901   2.945   0.585   6.604  0.2010  0.2120 -0.4153
  341MOL0     C44902   2.853   0.487   6.522 -0.1837  0.4622 -0.4925
  341MOL0     C44903   2.708   0.537   6.498 -0.5869 -0.8115  0.0070
  341MOL0     O44904   2.654   0.458   6.387 -0.3572  0.2529  0.1294
  341MOL0     C44905   2.541   0.505   6.322 -0.9526  0.1305 -0.0644
  341MOL0     C44906   2.486   0.627   6.354 -0.1867  0.2481 -0.4583
  341MOL0     C44907   2.370   0.652   6.280  0.4805 -0.1936 -1.0209
  341MOL0     C44908   2.327   0.568   6.174 -0.2766 -0.5222  0.6411
  341MOL0     C44909   2.200   0.600   6.114 -1.3781  0.0072  0.6684
  341MOL0     O44910   2.131   0.500   6.054  0.8127 -0.4054  0.6469
  341MOL0     C44911   2.026   0.524   5.974  1.1451 -1.0328 -0.1617
  341MOL0     C44912   2.036   0.462   5.852  0.6809 -0.0736 -0.7057
  341MOL0     C44913   1.941   0.474   5.750  0.6264  1.0353 -0.5031
  341MOL0     C44914   1.835   0.561   5.777 -0.0337  0.7177  0.0229
  341MOL0     O44915   1.734   0.582   5.690  0.6740  0.3026 -0.2155
  341MOL0     C44916   1.713   0.497   5.569  0.5009 -0.8914  0.1626
  341MOL0     C44917   1.573   0.516   5.509  0.8605 -0.2356 -0.2492
  341MOL0     C44918   1.462   0.502   5.612  1.2599  0.0493 -0.2662
  341MOL0     C44919   1.320   0.517   5.535 -0.4302  0.1216 -0.3491
  341MOL0     C44920   1.200   0.512   5.645  0.2518  0.8730 -0.7839
  341MOL0     C44921   1.073   0.549   5.575 -0.7444 -0.3842 -0.0339
  341MOL0     C44922   1.020   0.438   5.484  0.2288 -0.2851 -0.3073
  341MOL0     C44923   0.871   0.435   5.439  0.4829 -0.6649  0.3684
  341MOL0    Cl44924   0.821   0.593   5.368  0.2000  0.0609  0.0168
  341MOL0     C44925   1.832   0.631   5.899 -0.1061  0.5078  0.0455
  341MOL0     C44926   1.923   0.616   6.004  0.1722 -0.2931 -0.0522
  341MOL0     O44927   2.179   0.716   6.103 -0.0150 -1.4379 -0.5338
  341MOL0     C44928   2.385   0.445   6.147 -0.1240 -0.5541  0.2287
  341MOL0     C44929   2.499   0.417   6.216  0.1535  0.4453 -0.0104
  341MOL0     N44930   3.107   0.758   6.811  0.2671  0.2625 -0.0072
  341MOL0     N44931   3.189   0.780   6.918 -0.3117  0.6441 -0.1934
  341MOL0     C44932   3.905   0.506   7.940 -0.4053  1.2785 -0.2389
  341MOL0     C44933   4.027   0.559   7.982  0.4670 -0.2159 -0.2236
  341MOL0     C44934   4.464   0.745   7.932 -0.1731 -0.1139  0.2796
  341MOL0     C44935   4.538   0.847   7.858  0.2318  0.4744  0.1197
  341MOL0     C44936   4.678   0.862   7.894  0.0618  0.2459  0.1551
  341MOL0     C44937   4.738   0.780   7.989 -0.2442  0.8097  0.2552
  341MOL0     O44938   4.865   0.790   8.035 -0.1874  0.7082  0.0961
  341MOL0     C44939   4.951   0.734   7.934  0.0071  0.6765 -0.4888
  341MOL0     C44940   5.087   0.713   7.994 -0.4259  0.0871 -0.6233
  341MOL0     C44941   5.154   0.841   8.053 -0.4566 -0.5557 -0.2512
  341MOL0     C44942   5.255   0.907   7.963 -0.1969  0.1729  0.1829
  341MOL0     C44943   5.197   0.967   7.848  0.1649 -1.1851 -0.3837
  341MOL0     C44944   5.153   1.027   7.749  0.3311 -0.2225  0.9579
  341MOL0     C44945   4.666   0.684   8.051 -0.5149  0.1324 -0.1269
  341MOL0     C44946   4.533   0.669   8.029 -0.1673 -0.3969  1.3191
  341MOL0     H44947   4.192   0.587   7.681 -1.9795  0.4480 -1.0144
  341MOL0     H44948   3.994   0.504   7.604 -0.1977  2.2226 -1.1572
  341MOL0     H44949   3.765   0.453   7.558  0.6838  0.8347 -0.0161
  341MOL0     H44950   3.726   0.611   7.642 -0.6579  0.6666 -3.9715
  341MOL0     H44951   3.528   0.501   7.737 -1.5433  1.3769 -0.6618
  341MOL0     H44952   3.543   0.363   7.622  0.4711 -0.4095 -0.1598
  341MOL0     H44953   3.477   0.488   7.447 -1.3613  1.9168 -0.4668
  341MOL0     H44954   3.569   0.629   7.490  1.2306 -1.1350 -0.5205
  341MOL0     H44955   3.312   0.545   7.627  1.4567  0.8705  2.7750
  341MOL0     H44956   3.393   0.696   7.652 -2.2056 -0.9761  1.3297
  341MOL0     H44957   3.338   0.754   7.397 -0.2510 -0.9590 -1.6832
  341MOL0     H44958   3.220   0.740   7.522 -0.3390  1.0330 -1.0633
  341MOL0     H44959   3.175   0.500   7.439  0.0196 -0.4904 -0.2579
  341MOL0     H44960   3.309   0.521   7.326  0.4994  0.6849 -0.5530
  341MOL0     H44961   3.087   0.532   7.237 -1.4299 -0.2967  3.7650
  341MOL0     H44962   3.056   0.685   7.312  0.1385  0.1511  0.4303
  341MOL0     H44963   3.310   0.643   7.154  0.1065 -1.1668  3.6962
  341MOL0     H44964   3.233   0.801   7.169  0.3988 -0.4459 -1.6616
  341MOL0     H44965   2.996   0.546   7.032  1.6842 -1.0168 -0.5693
  341MOL0     H44966   2.816   0.657   6.763 -0.6048 -0.4679 -1.8976
  341MOL0     H44967   2.877   0.494   6.787 -1.6836  1.3278  1.8613
  341MOL0     H44968   3.049   0.554   6.593  0.0666  0.0591 -1.3289
  341MOL0     H44969   2.940   0.684   6.556  0.7730  0.3890 -0.1300
  341MOL0     H44970   2.909   0.484   6.428 -1.6789  3.3705 -1.6007
  341MOL0     H44971   2.842   0.390   6.571  0.3903  0.4649 -0.3564
  341MOL0     H44972   2.712   0.642   6.467 -0.8106 -0.6136  0.6400
  341MOL0     H44973   2.657   0.530   6.594  0.3275 -0.5335  0.5227
  341MOL0     H44974   2.510   0.690   6.439 -0.2003 -2.5353  1.7202
  341MOL0     H44975   2.298   0.729   6.307  1.5277  0.7393 -0.8555
  341MOL0     H44976   2.122   0.400   5.832  1.5718  1.2111 -0.9945
  341MOL0     H44977   1.951   0.425   5.654  1.7600  0.9563 -0.3631
  341MOL0     H44978   1.731   0.393   5.597  1.9979 -0.0350  2.6545
  341MOL0     H44979   1.781   0.534   5.492  1.4446 -2.0686  0.3946
  341MOL0     H44980   1.549   0.438   5.436 -2.5803 -0.7031  1.1673
  341MOL0     H44981   1.579   0.617   5.466  1.4384  1.2005  2.9485
  341MOL0     H44982   1.464   0.574   5.693  1.8930  0.1866 -0.3958
  341MOL0     H44983   1.468   0.402   5.655 -2.9057 -0.1673  0.2242
  341MOL0     H44984   1.327   0.609   5.476 -0.4787  0.7295  0.5824
  341MOL0     H44985   1.310   0.441   5.457  1.0661 -0.2816 -0.1749
  341MOL0     H44986   1.220   0.589   5.719  0.6537 -1.7853  2.0553
  341MOL0     H44987   1.188   0.413   5.689  0.2514  1.3015  0.2093
  341MOL0     H44988   1.106   0.631   5.511 -0.7794  0.1064  0.5715
  341MOL0     H44989   0.992   0.578   5.642 -2.2466  1.8008 -2.6065
  341MOL0     H44990   1.082   0.447   5.394  0.6211 -0.0091 -0.0147
  341MOL0     H44991   1.048   0.349   5.541 -0.5820 -1.1176 -1.1757
  341MOL0     H44992   0.802   0.409   5.520  2.3505  0.6073  2.4816
  341MOL0     H44993   0.868   0.351   5.369  2.6507 -1.0877  0.7179
  341MOL0     H44994   1.745   0.694   5.912 -2.0587 -1.8789 -0.7672
  341MOL0     H44995   1.918   0.660   6.103  0.8148 -0.9304  0.2760
  341MOL0     H44996   2.345   0.367   6.084 -0.9974 -1.8488  2.2931
  341MOL0     H44997   2.544   0.318   6.214 -1.6204 -0.5601  3.0409
  341MOL0     H44998   3.818   0.484   8.001 -0.2479 -1.1626 -0.7720
  341MOL0     H44999   4.035   0.596   8.084  0.9642  1.1842 -0.7440
  341MOL0     H45000   4.508   0.917   7.781  4.2739  0.3916 -1.7995
  341MOL0     H45001   4.737   0.941   7.849  1.0380  0.7926  2.2434
  341MOL0     H45002   4.950   0.798   7.845 -0.7108 -0.5351 -1.3755
  341MOL0     H45003   4.926   0.630   7.913  0.7846  1.0942 -4.2101
  341MOL0     H45004   5.090   0.630   8.064 -0.4551  1.3480  0.9449
  341MOL0     H45005   5.153   0.677   7.915  0.3702 -3.3910  1.4078
  341MOL0     H45006   5.213   0.823   8.144  0.6536 -0.2205 -0.8832
  341MOL0     H45007   5.080   0.915   8.086  0.2845 -0.6272  1.7264
  341MOL0     H45008   5.311   0.984   8.017  2.4699  0.3192 -2.5258
  341MOL0     H45009   5.335   0.837   7.936  1.8860  1.4446  2.6191
  341MOL0     H45010   5.115   1.056   7.653  2.2704  2.2729  0.8127
  341MOL0     H45011   4.716   0.606   8.107 -1.1719 -0.8986 -0.9600
  341MOL0     H45012   4.482   0.588   8.079 -2.1962 -1.3734 -1.9646
  342MOL0     O45013   9.434   2.390  10.602  0.8790 -0.7226 -1.0668
  342MOL0     C45014   9.420   2.507  10.651  1.2106 -0.6908 -1.1373
  342MOL0     O45015   9.321   2.588  10.625  0.4834 -0.0131  0.0827
  342MOL0     C45016   9.228   2.548  10.528 -0.2654 -0.6464  0.3467
  342MOL0     C45017   9.152   2.432  10.537  0.2104  0.0437 -0.4564
  342MOL0     C45018   9.071   2.383  10.430 -0.8824  0.6731 -0.4882
  342MOL0     C45019   9.047   2.464  10.317 -1.0138 -0.2662 -0.2677
  342MOL0     O45020   8.982   2.427  10.203  0.0661  0.5050 -0.9644
  342MOL0     C45021   8.897   2.313  10.196 -0.1537  0.7291 -0.1995
  342MOL0     C45022   8.791   2.314  10.304  0.5277  0.4238  0.1020
  342MOL0     C45023   8.654   2.279  10.255 -0.5040  0.3978  0.5628
  342MOL0     C45024   8.551   2.269  10.364 -0.2431 -0.3797 -1.2939
  342MOL0     C45025   8.418   2.212  10.320 -0.6178 -0.4021  0.7177
  342MOL0     C45026   8.311   2.228  10.426 -0.5098 -0.0379  0.1848
  342MOL0     C45027   8.176   2.205  10.364 -0.6413 -0.2965 -0.0532
  342MOL0     C45028   8.115   2.338  10.332 -0.3532 -0.2436 -0.2948
  342MOL0     N45029   7.974   2.340  10.299 -0.1830 -0.1156  0.1298
  342MOL0     C45030   7.906   2.242  10.221 -0.3712  1.0734  0.4533
  342MOL0     C45031   7.776   2.265  10.219 -0.5315  0.0469 -0.0323
  342MOL0     C45032   7.666   2.178  10.162 -0.4448  0.8116  0.4559
  342MOL0     C45033   7.664   2.036  10.215  0.1474  0.1491  0.1994
  342MOL0     C45034   7.587   1.942  10.115 -0.8011 -0.4897  0.0003
  342MOL0     C45035   7.441   1.988  10.090 -0.8166 -0.4885  0.4605
  342MOL0     O45036   7.451   2.076   9.972  1.2666 -0.0542 -0.8933
  342MOL0     C45037   7.329   2.129   9.932 -0.1445  0.4682  0.4337
  342MOL0     C45038   7.329   2.233   9.838 -0.9114  0.4523  0.1552
  342MOL0     C45039   7.215   2.283   9.781 -0.5154  0.2135 -0.3503
  342MOL0     C45040   7.093   2.240   9.825  0.3210 -0.1006 -0.6278
  342MOL0     C45041   6.966   2.312   9.778  0.3649  0.2755  0.6029
  342MOL0     O45042   6.846   2.284   9.824  0.2570 -0.1473 -0.3214
  342MOL0     C45043   6.745   2.375   9.784 -0.2398 -0.3965  0.1430
  342MOL0     C45044   6.619   2.318   9.756  0.4312 -0.0719  0.1025
  342MOL0     C45045   6.515   2.398   9.712  0.5671 -0.4734 -1.0764
  342MOL0     C45046   6.523   2.539   9.698 -0.4315  1.2131 -0.1678
  342MOL0     O45047   6.414   2.614   9.656  0.4658 -0.0550 -0.3119
  342MOL0     C45048   6.438   2.752   9.623  0.2640  0.5538  0.8111
  342MOL0     C45049   6.310   2.812   9.578  0.9786 -0.3731  0.2208
  342MOL0     C45050   6.181   2.767   9.651 -0.0068 -1.2509 -0.3713
  342MOL0     C45051   6.063   2.837   9.601  0.1445 -0.4852  0.4055
  342MOL0     C45052   5.931   2.780   9.660 -0.6409  0.4505  0.1339
  342MOL0     C45053   5.821   2.887   9.631 -0.1249 -0.5127 -0.3930
  342MOL0     C45054   5.688   2.806   9.639  0.8722 -0.4881  1.0798
  342MOL0     C45055   5.563   2.902   9.667 -0.6761 -0.1529  0.0559
  342MOL0    Cl45056   5.582   3.046   9.556 -0.1329  0.0270 -0.5128
  342MOL0     C45057   6.658   2.592   9.719 -0.1373  0.3561  0.0075
  342MOL0     C45058   6.761   2.510   9.766  0.8548  0.6277 -0.3521
  342MOL0     O45059   6.981   2.369   9.671 -0.5425 -0.4162  0.1769
  342MOL0     C45060   7.083   2.131   9.917 -0.4317  0.6336 -0.1765
  342MOL0     C45061   7.201   2.078   9.971 -0.6123  1.2644  0.7283
  342MOL0     N45062   7.769   2.389  10.293  0.4067 -0.7033  0.4354
  342MOL0     N45063   7.890   2.434  10.337 -0.0900  0.5715 -0.2872
  342MOL0     C45064   9.118   2.585  10.311  0.0630 -0.2665 -0.1739
  342MOL0     C45065   9.207   2.623  10.414  0.1384  0.7603 -1.1862
  342MOL0     C45066   9.533   2.560  10.729  0.0702  0.1322  0.6579
  342MOL0     C45067   9.509   2.671  10.813 -0.4426  0.4739 -0.0595
  342MOL0     C45068   9.610   2.718  10.889  0.1237  0.1977  0.0195
  342MOL0     C45069   9.744   2.675  10.877  0.2000 -0.4041  0.7012
  342MOL0     O45070   9.837   2.749  10.940  0.7060  0.4997 -0.2814
  342MOL0     C45071   9.967   2.734  10.904 -0.3362 -0.0949  0.2771
  342MOL0     C45072  10.047   2.852  10.941 -0.3015 -0.3014 -0.1193
  342MOL0     C45073  10.067   2.876  11.097  0.8523  0.0474 -0.1068
  342MOL0     C45074  10.141   3.001  11.131 -0.2567 -0.2468  0.1242
  342MOL0     C45075  10.286   2.984  11.104 -0.0215 -0.4323  0.2522
  342MOL0     C45076  10.399   2.975  11.076  0.4267 -0.3107  0.4143
  342MOL0     C45077   9.758   2.566  10.802 -0.0482 -0.0138  0.9430
  342MOL0     C45078   9.659   2.500  10.738  0.5553  0.4228 -0.6204
  342MOL0     H45079   9.146   2.373  10.628  3.0858 -0.7448 -0.6550
  342MOL0     H45080   9.024   2.288  10.455  0.1668  0.2827  0.0357
  342MOL0     H45081   8.959   2.226  10.219  0.3173  1.1313  0.0763
  342MOL0     H45082   8.848   2.303  10.099 -0.3747 -1.1600  0.0765
  342MOL0     H45083   8.788   2.413  10.351 -1.4122  1.3456 -1.8246
  342MOL0     H45084   8.819   2.247  10.386 -4.2539 -0.2505  1.4413
  342MOL0     H45085   8.662   2.180  10.211 -0.3754 -1.0805  3.6611
  342MOL0     H45086   8.620   2.355  10.184 -0.1341  1.1174  1.1380
  342MOL0     H45087   8.583   2.209  10.449 -0.7463 -0.0461 -0.8612
  342MOL0     H45088   8.526   2.367  10.407 -0.5190 -1.4493  1.1321
  342MOL0     H45089   8.437   2.108  10.293  2.5365  1.1095 -4.2262
  342MOL0     H45090   8.392   2.273  10.233  1.6270 -0.0966  0.2021
  342MOL0     H45091   8.319   2.329  10.469  0.0564  0.1347 -0.3149
  342MOL0     H45092   8.319   2.153  10.505  0.0685 -1.7498 -1.4369
  342MOL0     H45093   8.179   2.140  10.277 -1.0536  0.3556 -0.5641
  342MOL0     H45094   8.109   2.153  10.433 -1.1892 -1.3428 -1.3326
  342MOL0     H45095   8.164   2.371  10.240 -2.3177 -3.9434 -2.9499
  342MOL0     H45096   8.131   2.414  10.408  3.9562 -1.7603  0.5742
  342MOL0     H45097   7.956   2.152  10.185 -0.9917  0.9162 -0.0247
  342MOL0     H45098   7.686   2.181  10.055 -1.3114  1.4430  0.2946
  342MOL0     H45099   7.569   2.229  10.175 -0.0022  1.8271 -0.0950
  342MOL0     H45100   7.620   2.040  10.315 -0.3664  1.2296 -0.0528
  342MOL0     H45101   7.761   2.003  10.251  0.3425  0.3089 -0.1770
  342MOL0     H45102   7.638   1.934  10.019 -0.9671  0.7097 -0.2075
  342MOL0     H45103   7.580   1.848  10.171 -1.4674  0.4949  1.6439
  342MOL0     H45104   7.405   2.038  10.181  1.4365  2.6939 -0.2037
  342MOL0     H45105   7.378   1.912  10.044 -1.0961  0.6492 -1.1445
  342MOL0     H45106   7.427   2.251   9.795 -1.0112 -1.4201 -0.9719
  342MOL0     H45107   7.220   2.357   9.702 -3.2274 -1.1073 -1.9164
  342MOL0     H45108   6.602   2.211   9.765  0.8846 -0.1018  0.6326
  342MOL0     H45109   6.423   2.341   9.701  1.2697 -1.2847 -3.1153
  342MOL0     H45110   6.504   2.741   9.536  1.0130  2.5348  1.0798
  342MOL0     H45111   6.491   2.804   9.703  1.2015  1.7956 -0.5609
  342MOL0     H45112   6.286   2.801   9.472 -0.4974 -0.5172  0.5538
  342MOL0     H45113   6.324   2.920   9.591 -0.8337 -0.4806  5.5639
  342MOL0     H45114   6.194   2.764   9.759 -3.0589  0.4238  0.1340
  342MOL0     H45115   6.157   2.666   9.617 -1.8339 -0.7413 -0.6876
  342MOL0     H45116   6.067   2.943   9.628  1.3859 -0.5509  0.5329
  342MOL0     H45117   6.061   2.827   9.492  1.0011  2.5871  0.0141
  342MOL0     H45118   5.942   2.764   9.767  0.4369  1.7460  0.2519
  342MOL0     H45119   5.902   2.687   9.610  0.9099 -1.1003  2.0374
  342MOL0     H45120   5.836   2.934   9.533  1.5068  1.0890  0.5546
  342MOL0     H45121   5.819   2.969   9.703 -0.8308  0.8601 -1.8838
  342MOL0     H45122   5.667   2.749   9.548 -0.0490  3.2759 -1.2835
  342MOL0     H45123   5.688   2.738   9.724  0.3130  1.5106  2.7729
  342MOL0     H45124   5.569   2.949   9.766  2.4133  2.4096 -1.1336
  342MOL0     H45125   5.467   2.852   9.653 -0.3928 -0.9985  1.0821
  342MOL0     H45126   6.687   2.696   9.712  1.1076  0.2357  2.4892
  342MOL0     H45127   6.858   2.556   9.780 -0.1214  2.2159  1.8686
  342MOL0     H45128   6.986   2.100   9.954  0.0422 -0.7901 -0.0854
  342MOL0     H45129   7.196   2.001  10.048  1.3827  0.4963  0.1544
  342MOL0     H45130   9.113   2.648  10.223  0.8173 -0.5510 -0.4304
  342MOL0     H45131   9.278   2.705  10.411  1.7598 -0.4817  0.7096
  342MOL0     H45132   9.417   2.727  10.821  0.8750  2.6559  0.9064
  342MOL0     H45133   9.579   2.810  10.937 -2.2366  0.3903 -1.7364
  342MOL0     H45134   9.969   2.711  10.797 -0.0197 -1.4023  0.5511
  342MOL0     H45135  10.005   2.647  10.958 -0.8086  1.6940  3.8049
  342MOL0     H45136  10.146   2.847  10.894 -0.2247  0.5431 -0.0579
  342MOL0     H45137  10.001   2.946  10.911  0.6326  1.2449  2.8921
  342MOL0     H45138  10.122   2.795  11.145 -0.2326  0.7543  2.5021
  342MOL0     H45139   9.973   2.877  11.153 -0.2289 -0.3845 -1.8570
  342MOL0     H45140  10.110   3.086  11.070  1.9793  1.4202  1.1803
  342MOL0     H45141  10.139   3.023  11.237  1.8652  0.3544  0.0962
  342MOL0     H45142  10.504   2.980  11.055 -0.1291 -0.5380 -2.9668
  342MOL0     H45143   9.856   2.520  10.798  0.2928  0.5596  2.1858
  342MOL0     H45144   9.677   2.406  10.687 -3.2519 -2.2425  2.4449
  343MOL0     O45145   3.997   4.033   9.123 -0.9047  0.0972 -0.4865
  343MOL0     C45146   4.012   4.076   9.238  0.1541  0.3534 -0.3906
  343MOL0     O45147   3.914   4.126   9.321  0.2877  0.1317  0.8308
  343MOL0     C45148   3.781   4.114   9.303 -0.2904  0.1122  0.5244
  343MOL0     C45149   3.719   3.998   9.248  0.2640 -0.0134  0.7503
  343MOL0     C45150   3.580   3.985   9.243  0.3882 -0.2204 -0.7376
  343MOL0     C45151   3.499   4.090   9.293 -0.0922 -0.3129 -0.4894
  343MOL0     O45152   3.374   4.045   9.288  0.8800  0.1887 -0.5397
  343MOL0     C45153   3.278   4.129   9.352  0.8256 -0.1676  0.6187
  343MOL0     C45154   3.140   4.063   9.340  0.0131  0.3470 -1.0114
  343MOL0     C45155   3.032   4.162   9.368 -0.2918  0.0736 -0.4685
  343MOL0     C45156   2.896   4.101   9.331  0.9823 -0.5379 -0.7468
  343MOL0     C45157   2.785   4.182   9.386  0.2648  0.2796 -0.0974
  343MOL0     C45158   2.653   4.154   9.306  0.1527  0.7774 -0.0469
  343MOL0     C45159   2.538   4.200   9.388  0.3412 -0.2571  0.0062
  343MOL0     C45160   2.416   4.176   9.294  0.7344 -0.8824 -0.0061
  343MOL0     N45161   2.296   4.244   9.334 -0.4287 -0.5328 -0.1903
  343MOL0     C45162   2.235   4.237   9.459  0.6490  0.1208 -0.2387
  343MOL0     C45163   2.116   4.306   9.444  0.0590  0.3295 -0.2656
  343MOL0     C45164   2.001   4.316   9.541 -0.8673 -0.3361 -0.3662
  343MOL0     C45165   2.039   4.416   9.655  0.0288 -0.3871  0.1992
  343MOL0     C45166   1.916   4.438   9.742  0.6093  0.2053 -0.6467
  343MOL0     C45167   1.862   4.580   9.721  0.0622  0.2512 -0.5897
  343MOL0     O45168   1.744   4.569   9.628 -0.5207  0.0770 -0.3815
  343MOL0     C45169   1.613   4.540   9.670 -0.7870  0.9317  0.3286
  343MOL0     C45170   1.502   4.552   9.583  0.1291  0.2733  0.3028
  343MOL0     C45171   1.374   4.514   9.629 -0.0325  0.6286 -0.2505
  343MOL0     C45172   1.357   4.456   9.754 -0.1336  0.1112 -0.0103
  343MOL0     C45173   1.227   4.418   9.799  0.0379  0.5328  0.2267
  343MOL0     O45174   1.223   4.320   9.898 -0.9818  0.1291  0.0975
  343MOL0     C45175   1.100   4.293   9.965 -0.9005 -0.6169 -0.4430
  343MOL0     C45176   1.104   4.282  10.102  0.3610 -0.0987 -0.9267
  343MOL0     C45177   0.986   4.229  10.173 -0.3443  0.8164  0.2260
  343MOL0     C45178   0.865   4.210  10.095  0.0353 -0.1974 -0.4973
  343MOL0     O45179   0.749   4.158  10.154 -0.5900  0.4937  0.4933
  343MOL0     C45180   0.746   4.086  10.280 -0.3489  0.2372  0.2755
  343MOL0     C45181   0.657   3.957  10.265 -0.7697  0.4308 -0.5283
  343MOL0     C45182   0.506   3.983  10.249 -0.7576 -0.0608 -0.8768
  343MOL0     C45183   0.466   3.996  10.103  0.5834  0.9123 -0.4763
  343MOL0     C45184   0.313   4.010  10.102 -0.2209  0.2426 -0.9579
  343MOL0     C45185   0.261   4.070   9.978  0.2104  0.5498  0.3536
  343MOL0     C45186   0.109   4.052   9.953  1.1639 -1.3088  0.4697
  343MOL0     C45187   0.056   4.167   9.860 -0.1747 -0.6690  0.4493
  343MOL0    Cl45188   0.127   4.156   9.697  0.0313 -0.0711  0.1474
  343MOL0     C45189   0.864   4.234   9.948  0.1196  0.3408 -0.5230
  343MOL0     C45190   0.980   4.277   9.891 -0.3166  0.1278 -0.4113
  343MOL0     O45191   1.127   4.473   9.749  0.0339  0.8727  0.3272
  343MOL0     C45192   1.470   4.443   9.840  0.3803  0.1103 -0.2548
  343MOL0     C45193   1.588   4.494   9.799 -0.6265  0.9508 -0.5433
  343MOL0     N45194   2.119   4.362   9.322  0.7960 -0.0069 -0.7811
  343MOL0     N45195   2.214   4.309   9.259 -0.5950  0.3188  0.4168
  343MOL0     C45196   3.558   4.209   9.351 -0.8414  0.1701 -0.1836
  343MOL0     C45197   3.703   4.220   9.349  0.6033  0.0399 -0.2048
  343MOL0     C45198   4.149   4.057   9.292  0.5087  0.3619 -0.0068
  343MOL0     C45199   4.232   3.963   9.224  0.1073  0.1413  0.1355
  343MOL0     C45200   4.365   3.936   9.272  0.6127 -0.7717  0.2361
  343MOL0     C45201   4.410   3.999   9.394  0.1222 -0.8785  0.2643
  343MOL0     O45202   4.535   3.983   9.447 -0.1378  0.2636 -0.1668
  343MOL0     C45203   4.609   3.868   9.405  0.4042 -0.3153  0.2481
  343MOL0     C45204   4.648   3.769   9.526 -0.0521 -0.5197  0.9405
  343MOL0     C45205   4.734   3.854   9.621 -0.5363 -0.2936  0.6334
  343MOL0     C45206   4.812   3.769   9.716 -1.1653 -0.6443 -0.1588
  343MOL0     C45207   4.948   3.719   9.673  1.4764  0.4244  1.1834
  343MOL0     C45208   5.055   3.678   9.638  0.0210 -0.9575 -0.4967
  343MOL0     C45209   4.327   4.093   9.447 -0.2726 -0.1452  0.2699
  343MOL0     C45210   4.197   4.133   9.400  0.0440 -0.2400  0.5529
  343MOL0     H45211   3.781   3.922   9.201  1.3156  1.5482 -0.5361
  343MOL0     H45212   3.546   3.886   9.214 -0.1907 -1.0538  2.4400
  343MOL0     H45213   3.262   4.221   9.295 -2.0700 -0.5124  0.6942
  343MOL0     H45214   3.295   4.152   9.457  4.0198  0.8323  0.0060
  343MOL0     H45215   3.130   3.976   9.406  2.4629  0.5973 -0.2084
  343MOL0     H45216   3.131   4.029   9.236  2.0770  2.8139 -2.1103
  343MOL0     H45217   3.041   4.256   9.313 -1.8891  1.3488  1.3034
  343MOL0     H45218   3.035   4.187   9.475 -2.0449 -0.5325 -0.2409
  343MOL0     H45219   2.891   4.099   9.222 -1.3202  0.4842 -0.7088
  343MOL0     H45220   2.878   3.999   9.367  1.0846  0.0303  1.0069
  343MOL0     H45221   2.806   4.289   9.383  0.2912  0.3705  1.8541
  343MOL0     H45222   2.780   4.156   9.493  4.0457 -0.1655  0.0995
  343MOL0     H45223   2.634   4.050   9.275 -1.4240  1.7340 -2.6317
  343MOL0     H45224   2.661   4.204   9.209 -0.5324  0.4635 -0.2728
  343MOL0     H45225   2.517   4.149   9.483 -0.2031  0.7597  0.4497
  343MOL0     H45226   2.550   4.309   9.396  1.3616 -0.3549 -0.0577
  343MOL0     H45227   2.391   4.069   9.288 -0.2101 -0.7414  1.0780
  343MOL0     H45228   2.433   4.217   9.194 -1.5202  2.5912  0.8786
  343MOL0     H45229   2.272   4.184   9.547  0.1703 -1.1343 -0.7749
  343MOL0     H45230   1.957   4.228   9.590 -2.6983  1.2741  1.0463
  343MOL0     H45231   1.911   4.354   9.491 -0.2120  0.0347 -1.2753
  343MOL0     H45232   2.081   4.504   9.607  0.5787 -1.4846 -1.4170
  343MOL0     H45233   2.112   4.374   9.725 -0.9859 -2.8909 -0.1185
  343MOL0     H45234   1.837   4.367   9.715  1.6469 -1.5563  0.7751
  343MOL0     H45235   1.937   4.411   9.846  2.1193 -0.7970 -1.1908
  343MOL0     H45236   1.932   4.655   9.683  0.2794 -0.3933 -1.5088
  343MOL0     H45237   1.818   4.612   9.815 -2.5524 -4.4376  0.0658
  343MOL0     H45238   1.514   4.593   9.483  1.0612 -0.1627  0.2185
  343MOL0     H45239   1.294   4.524   9.557 -0.6891  2.3927  0.6525
  343MOL0     H45240   1.196   4.298  10.158  1.0226 -0.2787 -1.9496
  343MOL0     H45241   0.988   4.221  10.282  0.9839 -0.5145  0.1273
  343MOL0     H45242   0.703   4.159  10.349  1.2034  1.2483  0.2289
  343MOL0     H45243   0.843   4.065  10.326 -1.2064  0.0494  2.0980
  343MOL0     H45244   0.673   3.899  10.356  2.2919 -0.0167 -1.2346
  343MOL0     H45245   0.688   3.887  10.186  1.3228 -1.8340  2.1104
  343MOL0     H45246   0.482   4.074  10.305 -1.6455 -0.2060 -1.0057
  343MOL0     H45247   0.458   3.890  10.282 -0.7685 -0.4623 -1.9544
  343MOL0     H45248   0.513   4.084  10.058  1.4350  0.5343 -0.3333
  343MOL0     H45249   0.494   3.907  10.046 -1.8785 -0.0784 -0.2604
  343MOL0     H45250   0.285   4.080  10.181 -0.4463 -0.7550 -0.1241
  343MOL0     H45251   0.270   3.912  10.125  0.2687  0.7930  3.1098
  343MOL0     H45252   0.320   4.032   9.894 -1.1945 -1.6262  0.2812
  343MOL0     H45253   0.272   4.178   9.989  1.1694  0.6910 -1.5911
  343MOL0     H45254   0.081   3.958   9.906  0.7934 -1.4145  0.8943
  343MOL0     H45255   0.054   4.069  10.046 -0.2716  0.7420 -0.6592
  343MOL0     H45256   0.064   4.272   9.888 -0.2949 -0.6880  0.5558
  343MOL0     H45257  -0.053   4.154   9.855  0.1532 -3.7380 -1.1856
  343MOL0     H45258   0.779   4.215   9.884  0.3845  0.5841 -0.9472
  343MOL0     H45259   0.962   4.284   9.784  1.6075  0.5502 -0.7331
  343MOL0     H45260   1.456   4.418   9.944 -1.1867 -2.2982 -0.9374
  343MOL0     H45261   1.673   4.472   9.863 -1.3899 -3.9689 -0.8371
  343MOL0     H45262   3.492   4.280   9.397 -3.7224 -1.2558 -1.8081
  343MOL0     H45263   3.750   4.308   9.392  0.8930 -0.2407  0.0602
  343MOL0     H45264   4.202   3.911   9.133 -1.7318  1.0765  0.1621
  343MOL0     H45265   4.419   3.867   9.207 -0.1586 -1.1262 -0.0386
  343MOL0     H45266   4.702   3.907   9.363 -0.7681  2.5547  0.1341
  343MOL0     H45267   4.563   3.795   9.337  1.2841 -0.3822 -0.2934
  343MOL0     H45268   4.551   3.737   9.566 -1.2976 -2.4845 -3.0841
  343MOL0     H45269   4.709   3.684   9.492 -0.1372 -0.0173 -0.5236
  343MOL0     H45270   4.667   3.915   9.682 -0.1416  1.2096 -0.3618
  343MOL0     H45271   4.794   3.923   9.559 -0.9278 -1.9494 -1.7179
  343MOL0     H45272   4.826   3.830   9.806  2.8686  0.7791 -1.5299
  343MOL0     H45273   4.762   3.683   9.760  0.2408 -0.5761  1.7140
  343MOL0     H45274   5.145   3.638   9.596 -0.0046 -2.9652  1.1672
  343MOL0     H45275   4.374   4.126   9.540  1.5860 -1.7306 -0.0469
  343MOL0     H45276   4.134   4.201   9.456  0.1510 -0.4618  0.9508
  344MOL0     O45277  10.107   0.627   4.957  0.7485  0.4261 -0.7183
  344MOL0     C45278  10.181   0.534   4.944 -0.1738 -0.5531 -1.0173
  344MOL0     O45279  10.146   0.399   4.952  0.1027  0.7994 -0.2018
  344MOL0     C45280  10.026   0.359   5.007  0.0704 -0.0793  0.1128
  344MOL0     C45281  10.010   0.285   5.127  0.4462 -1.0237  0.9227
  344MOL0     C45282   9.881   0.246   5.177  0.2752  0.4030  0.4293
  344MOL0     C45283   9.767   0.279   5.108  0.4884 -0.2030  0.6434
  344MOL0     O45284   9.633   0.232   5.135 -0.7491  0.9183  1.1089
  344MOL0     C45285   9.607   0.182   5.264 -0.5777 -0.7749 -0.6803
  344MOL0     C45286   9.608   0.309   5.353 -0.1486  0.6289  0.0886
  344MOL0     C45287   9.594   0.274   5.500 -0.6663 -0.1081 -0.0351
  344MOL0     C45288   9.721   0.227   5.571 -0.1041  0.4596  0.2214
  344MOL0     C45289   9.714   0.211   5.716 -0.1544  0.5724 -0.5804
  344MOL0     C45290   9.637   0.077   5.744 -0.2363  0.4136 -0.3053
  344MOL0     C45291   9.605   0.071   5.895 -0.2829  0.6419  0.2199
  344MOL0     C45292   9.475  -0.007   5.919  0.2447 -0.0817  0.0889
  344MOL0     N45293   9.471  -0.027   6.067  0.4146  0.2375 -0.3379
  344MOL0     C45294   9.451   0.062   6.166  0.1068 -0.4733 -0.2063
  344MOL0     C45295   9.429  -0.018   6.276 -0.1319 -0.2435 -0.3009
  344MOL0     C45296   9.389   0.014   6.420 -0.0141 -0.6896 -0.6211
  344MOL0     C45297   9.244  -0.034   6.435  0.2719 -0.4756 -0.4401
  344MOL0     C45298   9.202   0.003   6.579  0.0944 -0.9529  0.1613
  344MOL0     C45299   9.063  -0.045   6.600 -0.1341  0.4348  0.4784
  344MOL0     O45300   9.007  -0.015   6.725  0.1458 -0.6297 -1.1631
  344MOL0     C45301   8.885  -0.067   6.758  0.8385 -0.1293 -0.5275
  344MOL0     C45302   8.798  -0.157   6.686 -0.5870 -0.4786  0.3994
  344MOL0     C45303   8.672  -0.178   6.738 -0.2734  0.5825  0.4493
  344MOL0     C45304   8.628  -0.129   6.867  0.7746 -0.4463  0.7787
  344MOL0     C45305   8.490  -0.155   6.921  0.5623 -0.0984  0.1503
  344MOL0     O45306   8.479  -0.160   7.054  0.5119  0.6602  0.3751
  344MOL0     C45307   8.369  -0.220   7.107 -0.3714 -0.3333  0.5667
  344MOL0     C45308   8.326  -0.353   7.073  0.5307  0.1791  0.0328
  344MOL0     C45309   8.214  -0.406   7.134  0.4380  1.1454  0.7278
  344MOL0     C45310   8.144  -0.339   7.235 -0.0974 -0.1346 -0.1399
  344MOL0     O45311   8.038  -0.405   7.296 -0.0192 -0.5468 -0.0527
  344MOL0     C45312   7.922  -0.321   7.325 -0.2245  0.0174 -0.9076
  344MOL0     C45313   7.792  -0.400   7.316  0.1251 -0.9208 -0.3301
  344MOL0     C45314   7.698  -0.335   7.428  0.1116  0.3408  0.5018
  344MOL0     C45315   7.554  -0.380   7.428 -1.2410  1.0757  1.0169
  344MOL0     C45316   7.471  -0.313   7.537  0.6227  0.0562  0.1322
  344MOL0     C45317   7.326  -0.358   7.529 -0.3478 -0.3292  0.2395
  344MOL0     C45318   7.252  -0.276   7.639  0.6575 -0.7460  0.1633
  344MOL0     C45319   7.098  -0.297   7.632  0.6648 -0.4115 -0.7194
  344MOL0    Cl45320   7.030  -0.193   7.759  0.3101  0.2186  0.2806
  344MOL0     C45321   8.197  -0.215   7.279 -0.4056 -0.6572  1.0094
  344MOL0     C45322   8.304  -0.153   7.216 -0.0489 -0.1134 -0.1681
  344MOL0     O45323   8.415  -0.210   6.838 -0.3515 -0.1725 -1.3337
  344MOL0     C45324   8.711  -0.044   6.938 -0.1976  0.3277  0.2023
  344MOL0     C45325   8.835  -0.017   6.881 -0.3959  0.0444  0.7484
  344MOL0     N45326   9.444  -0.152   6.251  0.3499  0.1296 -0.2961
  344MOL0     N45327   9.476  -0.156   6.123  1.0219 -0.0994  0.5121
  344MOL0     C45328   9.781   0.348   4.989 -0.3605  0.0876 -0.5618
  344MOL0     C45329   9.907   0.383   4.934 -0.4626  0.6483  0.4590
  344MOL0     C45330  10.324   0.562   4.906 -0.3139 -0.8253  0.0125
  344MOL0     C45331  10.361   0.686   4.848  0.2983  0.7112 -0.8930
  344MOL0     C45332  10.493   0.708   4.820 -0.3837 -0.0625 -0.2708
  344MOL0     C45333  10.596   0.621   4.870  1.3348  0.0886  0.2254
  344MOL0     O45334  10.725   0.657   4.856 -0.8166 -0.6720 -0.5498
  344MOL0     C45335  10.821   0.619   4.956 -0.4786 -0.4369  0.3249
  344MOL0     C45336  10.934   0.726   4.971  0.1826 -0.0587  0.6596
  344MOL0     C45337  11.066   0.697   4.886  0.5011 -0.7111 -0.4468
  344MOL0     C45338  11.168   0.812   4.922 -0.3520 -0.3245  0.6751
  344MOL0     C45339  11.282   0.794   4.821  0.0520 -0.6390  0.0194
  344MOL0     C45340  11.367   0.773   4.744  0.6924  0.2551  0.1884
  344MOL0     C45341  10.560   0.500   4.919 -0.3379  0.9751  0.9280
  344MOL0     C45342  10.424   0.466   4.934 -0.1899 -0.2256  0.2234
  344MOL0     H45343  10.093   0.268   5.195  1.1774  1.3057  0.7196
  344MOL0     H45344   9.886   0.207   5.278  0.7976  1.9918  1.0521
  344MOL0     H45345   9.683   0.110   5.297  0.0217  0.7761  1.5863
  344MOL0     H45346   9.509   0.134   5.263 -1.4418  0.9442 -1.4511
  344MOL0     H45347   9.528   0.381   5.333 -0.8032 -0.3200 -0.8171
  344MOL0     H45348   9.698   0.369   5.336  0.8011 -1.0581 -1.2907
  344MOL0     H45349   9.513   0.200   5.495 -0.9352 -0.0197  2.0004
  344MOL0     H45350   9.550   0.359   5.553  0.5727  0.2600  0.4295
  344MOL0     H45351   9.748   0.138   5.513 -1.1106  2.0975 -3.0031
  344MOL0     H45352   9.799   0.303   5.561  1.3011 -0.9949 -0.3743
  344MOL0     H45353   9.670   0.304   5.752  0.4028  1.1551 -1.3765
  344MOL0     H45354   9.812   0.186   5.758 -0.7684  1.6438  1.6055
  344MOL0     H45355   9.698  -0.010   5.719  0.6477  0.7817  0.5017
  344MOL0     H45356   9.543   0.071   5.689 -0.8850 -2.3388  0.9611
  344MOL0     H45357   9.690   0.021   5.943  1.1392  1.3286 -1.4535
  344MOL0     H45358   9.585   0.167   5.943 -0.2736 -0.2269  2.0397
  344MOL0     H45359   9.473  -0.100   5.862  1.0007 -0.7451  1.1160
  344MOL0     H45360   9.395   0.057   5.879 -0.8626 -1.4721 -0.0076
  344MOL0     H45361   9.443   0.170   6.163 -0.1442 -0.4499  0.8533
  344MOL0     H45362   9.407   0.121   6.431  1.7607 -1.1399  1.4382
  344MOL0     H45363   9.457  -0.032   6.492  1.2697  0.4899 -1.0342
  344MOL0     H45364   9.219  -0.140   6.428  3.5718 -1.3419 -0.8186
  344MOL0     H45365   9.185   0.023   6.363 -0.1329  2.4344  2.0059
  344MOL0     H45366   9.268  -0.045   6.652  3.1632  0.2827 -1.5962
  344MOL0     H45367   9.214   0.111   6.585  0.3150 -0.9098 -0.7847
  344MOL0     H45368   9.058  -0.153   6.587  0.8641  0.5382 -1.0294
  344MOL0     H45369   9.003  -0.002   6.519 -1.4933 -1.5949  0.3607
  344MOL0     H45370   8.828  -0.210   6.596 -0.3090  0.0514  0.1735
  344MOL0     H45371   8.615  -0.252   6.683 -1.1830  1.3348  0.3529
  344MOL0     H45372   8.385  -0.418   7.009  1.6423 -1.8494  2.9239
  344MOL0     H45373   8.188  -0.511   7.120 -1.0116  1.1591  2.8153
  344MOL0     H45374   7.922  -0.238   7.254  0.2550  1.4850  0.7519
  344MOL0     H45375   7.944  -0.284   7.426  3.1419 -1.2206 -1.0482
  344MOL0     H45376   7.802  -0.507   7.334  2.8379 -1.2108 -2.8086
  344MOL0     H45377   7.758  -0.384   7.214  0.5592 -2.6215 -0.7661
  344MOL0     H45378   7.699  -0.226   7.424  4.1428  0.5199  1.4892
  344MOL0     H45379   7.741  -0.352   7.527  1.1822  1.4539  0.2561
  344MOL0     H45380   7.514  -0.347   7.331  0.4066 -0.3257 -0.2110
  344MOL0     H45381   7.549  -0.488   7.443  1.8300  0.7775  0.5424
  344MOL0     H45382   7.479  -0.205   7.518  2.7721 -0.2311 -0.8622
  344MOL0     H45383   7.498  -0.319   7.643 -0.9657  1.8953  0.7106
  344MOL0     H45384   7.306  -0.465   7.538 -1.9924 -0.3310 -2.4037
  344MOL0     H45385   7.283  -0.337   7.431  0.8398  0.7131 -0.0828
  344MOL0     H45386   7.289  -0.291   7.741  0.4254  2.6281  0.8913
  344MOL0     H45387   7.271  -0.171   7.614 -2.4108  0.5818  2.6247
  344MOL0     H45388   7.071  -0.401   7.653  0.1440  0.3566  2.9679
  344MOL0     H45389   7.059  -0.270   7.533 -2.7039 -1.4059  0.2106
  344MOL0     H45390   8.158  -0.159   7.364 -0.4957  1.6322 -0.4710
  344MOL0     H45391   8.341  -0.063   7.263  2.8909 -2.1068  1.6957
  344MOL0     H45392   8.689   0.003   7.033 -2.2415  1.0579 -0.5807
  344MOL0     H45393   8.907   0.043   6.936  1.0447 -1.0294  0.0875
  344MOL0     H45394   9.684   0.364   4.943 -0.9331  0.5432  0.7620
  344MOL0     H45395   9.899   0.428   4.836 -1.6750 -3.5901 -1.6275
  344MOL0     H45396  10.279   0.756   4.833 -0.2937  0.2965  0.3135
  344MOL0     H45397  10.514   0.802   4.771  0.5463 -1.2078 -2.1813
  344MOL0     H45398  10.865   0.524   4.927 -0.5884 -0.0055 -1.3410
  344MOL0     H45399  10.784   0.611   5.059 -0.1654  0.6631  0.5405
  344MOL0     H45400  10.891   0.826   4.960  3.6785  1.6673  1.2889
  344MOL0     H45401  10.969   0.726   5.075  1.1473 -2.2605  0.3928
  344MOL0     H45402  11.033   0.719   4.784 -0.8920  1.9760  0.4811
  344MOL0     H45403  11.097   0.594   4.907  0.6948 -1.4615 -3.7803
  344MOL0     H45404  11.137   0.915   4.903  2.7305  0.9472  1.8469
  344MOL0     H45405  11.195   0.795   5.027 -1.4616 -2.7877  0.6480
  344MOL0     H45406  11.443   0.744   4.674  2.9439 -2.1333  3.3300
  344MOL0     H45407  10.635   0.427   4.947 -3.8682 -3.3380  0.1802
  344MOL0     H45408  10.401   0.366   4.970  0.9547 -0.0596  1.5194
  345MOL0     O45409   7.836   9.025   5.905 -0.5299  0.7203 -0.0101
  345MOL0     C45410   7.909   8.938   5.851 -1.0219 -0.2603 -0.0147
  345MOL0     O45411   7.869   8.816   5.816  0.5366 -0.6436 -0.1439
  345MOL0     C45412   7.744   8.764   5.826 -0.1165  0.1082  0.0023
  345MOL0     C45413   7.741   8.629   5.853 -0.5471  0.5240 -0.1283
  345MOL0     C45414   7.623   8.563   5.866 -0.5821 -0.2493 -0.8934
  345MOL0     C45415   7.506   8.637   5.879  0.6424  1.1707 -0.8119
  345MOL0     O45416   7.381   8.578   5.899 -0.3195 -0.1707  0.0259
  345MOL0     C45417   7.372   8.440   5.927  0.4312  0.3207  0.6145
  345MOL0     C45418   7.239   8.421   6.008 -0.4351 -0.1644 -0.0617
  345MOL0     C45419   7.112   8.438   5.915  0.2865  0.2982 -0.2460
  345MOL0     C45420   6.989   8.437   6.006  0.0038  0.3629  0.5263
  345MOL0     C45421   6.863   8.394   5.924  0.0434 -1.3192  0.1901
  345MOL0     C45422   6.732   8.413   6.001  0.0328 -1.0277 -0.0708
  345MOL0     C45423   6.722   8.307   6.124  0.4985 -0.2380  0.8887
  345MOL0     C45424   6.586   8.303   6.176  0.2943 -0.3064  0.1197
  345MOL0     N45425   6.574   8.188   6.275 -0.4760  0.0113 -0.4703
  345MOL0     C45426   6.558   8.196   6.411  0.1238 -0.4602  0.3100
  345MOL0     C45427   6.545   8.069   6.447  0.2706  0.0422 -0.6986
  345MOL0     C45428   6.522   8.001   6.576 -0.1998 -0.4716  0.4905
  345MOL0     C45429   6.383   8.014   6.628 -1.0259  0.0278 -0.4331
  345MOL0     C45430   6.277   7.969   6.526 -0.1167 -0.6681 -0.3704
  345MOL0     C45431   6.137   7.965   6.581  0.2835 -0.3460  0.8745
  345MOL0     O45432   6.134   7.861   6.681  0.2922  0.8384 -0.2372
  345MOL0     C45433   6.004   7.811   6.697 -1.1407  0.5778  0.6459
  345MOL0     C45434   5.880   7.862   6.638  0.1882 -0.1724  0.1761
  345MOL0     C45435   5.760   7.810   6.680  1.2449 -0.2433  1.0054
  345MOL0     C45436   5.752   7.696   6.758 -0.9134 -0.0822 -0.4200
  345MOL0     C45437   5.616   7.640   6.782  0.3788 -1.0063 -0.2747
  345MOL0     O45438   5.518   7.713   6.723 -0.8256  0.0890 -0.1723
  345MOL0     C45439   5.379   7.691   6.723 -0.3836 -0.3841  0.0900
  345MOL0     C45440   5.294   7.726   6.609 -0.6586 -0.5578  0.4206
  345MOL0     C45441   5.157   7.703   6.607  0.5670  0.6482 -0.2002
  345MOL0     C45442   5.094   7.657   6.721  0.0329  0.2425  0.3714
  345MOL0     O45443   4.955   7.636   6.733  0.0120 -0.1186 -0.2548
  345MOL0     C45444   4.903   7.525   6.803 -0.4036 -0.1181  0.6252
  345MOL0     C45445   4.757   7.498   6.773  0.4208  0.1004 -0.4554
  345MOL0     C45446   4.665   7.599   6.834 -0.1554  0.1331 -0.1953
  345MOL0     C45447   4.519   7.561   6.820 -0.7873  0.2958 -0.7780
  345MOL0     C45448   4.472   7.572   6.671  0.8943  0.1668  0.6726
  345MOL0     C45449   4.318   7.536   6.672  0.1354 -0.5221  0.8388
  345MOL0     C45450   4.278   7.486   6.535 -0.5773  0.4505 -0.2684
  345MOL0     C45451   4.126   7.441   6.537  0.3301 -0.0951 -0.6296
  345MOL0    Cl45452   4.072   7.365   6.388 -0.8571 -0.1596 -0.3403
  345MOL0     C45453   5.176   7.609   6.828 -0.1722  0.6377 -0.5226
  345MOL0     C45454   5.322   7.623   6.832 -0.4669  0.3666 -0.2712
  345MOL0     O45455   5.592   7.542   6.853 -0.0661  1.2290 -0.1547
  345MOL0     C45456   5.868   7.637   6.802 -1.0023 -0.0264 -0.2133
  345MOL0     C45457   5.993   7.702   6.779 -0.1483 -0.3294  0.2925
  345MOL0     N45458   6.563   7.988   6.339 -0.0654 -0.0646 -1.3410
  345MOL0     N45459   6.599   8.065   6.242  0.0892  0.2647  0.2934
  345MOL0     C45460   7.502   8.769   5.838 -0.0291 -0.1815 -0.7358
  345MOL0     C45461   7.622   8.829   5.823  0.1622  0.5376 -0.2861
  345MOL0     C45462   8.045   8.965   5.802 -0.0574  0.0581 -0.5318
  345MOL0     C45463   8.107   9.086   5.819 -0.4799 -0.1896 -0.4734
  345MOL0     C45464   8.240   9.118   5.791 -0.0927 -0.0213 -0.0426
  345MOL0     C45465   8.319   9.019   5.752 -0.3362 -0.1265 -0.4296
  345MOL0     O45466   8.454   9.049   5.746  0.0119  0.3879 -0.2308
  345MOL0     C45467   8.539   8.955   5.677  0.0626 -1.1295  0.3861
  345MOL0     C45468   8.604   8.868   5.781 -0.0639 -0.0661 -0.1686
  345MOL0     C45469   8.710   8.775   5.731 -0.2832  0.2287  1.3673
  345MOL0     C45470   8.849   8.831   5.720  0.3569  0.2513 -0.4483
  345MOL0     C45471   8.956   8.745   5.647  0.0520 -0.4973  0.3047
  345MOL0     C45472   9.031   8.687   5.583 -0.5045 -0.2831  0.0309
  345MOL0     C45473   8.263   8.887   5.730  0.0516  0.8594  0.1820
  345MOL0     C45474   8.129   8.868   5.756 -0.1553  0.0822  0.2453
  345MOL0     H45475   7.833   8.571   5.854  0.7914  2.5166 -1.0087
  345MOL0     H45476   7.629   8.456   5.886  2.6756 -0.4080 -2.1068
  345MOL0     H45477   7.455   8.399   5.985  0.4150 -0.6348 -0.0120
  345MOL0     H45478   7.367   8.374   5.839 -3.9348 -0.3692  1.1406
  345MOL0     H45479   7.228   8.503   6.080  1.7925  0.3321 -0.2022
  345MOL0     H45480   7.244   8.329   6.067  4.3667 -1.0108 -1.3952
  345MOL0     H45481   7.114   8.353   5.846  1.4760 -0.4348  0.6433
  345MOL0     H45482   7.119   8.535   5.864  0.5180 -0.0466 -0.8865
  345MOL0     H45483   6.996   8.355   6.079 -0.1427 -1.9909 -1.9315
  345MOL0     H45484   6.973   8.540   6.039 -1.9292 -0.8948  4.0323
  345MOL0     H45485   6.874   8.295   5.879 -4.8969 -1.9007 -0.3022
  345MOL0     H45486   6.856   8.457   5.834 -0.1229 -2.4161 -0.5833
  345MOL0     H45487   6.652   8.414   5.927  1.0026 -1.2396 -1.1352
  345MOL0     H45488   6.728   8.512   6.048 -0.7038 -0.2001 -1.8110
  345MOL0     H45489   6.748   8.208   6.087 -0.8877  0.6649 -2.9534
  345MOL0     H45490   6.798   8.337   6.197  0.2608 -0.8092  1.3776
  345MOL0     H45491   6.506   8.296   6.102  0.4797  1.0054 -0.2220
  345MOL0     H45492   6.575   8.398   6.230  1.8464  0.0799 -0.2035
  345MOL0     H45493   6.541   8.285   6.471 -3.2418 -0.4904 -0.4180
  345MOL0     H45494   6.593   8.044   6.647  0.5458  0.5999 -0.8525
  345MOL0     H45495   6.540   7.893   6.570 -1.8098 -0.6850 -2.6397
  345MOL0     H45496   6.364   8.121   6.644  1.0527  1.4957 -5.4916
  345MOL0     H45497   6.378   7.956   6.720  1.7776  1.7843  0.9591
  345MOL0     H45498   6.282   8.047   6.450  0.9926 -0.9155 -0.5719
  345MOL0     H45499   6.295   7.871   6.482 -2.4836 -0.5554 -1.7219
  345MOL0     H45500   6.060   7.944   6.505  1.5871 -3.9273  0.3276
  345MOL0     H45501   6.100   8.051   6.637 -0.9214  1.2401 -2.1292
  345MOL0     H45502   5.875   7.950   6.575 -0.0266 -1.6010 -1.9229
  345MOL0     H45503   5.672   7.861   6.642  2.1632  0.2876 -0.5196
  345MOL0     H45504   5.330   7.787   6.527  2.0075  0.0289  1.9266
  345MOL0     H45505   5.112   7.735   6.513 -0.3089 -4.5836 -1.8766
  345MOL0     H45506   4.912   7.538   6.912  0.2233  0.8985  0.4601
  345MOL0     H45507   4.970   7.442   6.779 -2.2203 -2.3297  2.6509
  345MOL0     H45508   4.734   7.402   6.822  0.3334 -1.2422 -2.9566
  345MOL0     H45509   4.728   7.487   6.668  1.4956  1.1810 -0.8814
  345MOL0     H45510   4.680   7.696   6.785 -0.9898  0.0810 -0.5787
  345MOL0     H45511   4.679   7.599   6.942 -2.1071  0.4432  0.0891
  345MOL0     H45512   4.516   7.460   6.862  1.0662  0.2003 -0.7705
  345MOL0     H45513   4.464   7.618   6.895 -0.0600 -2.2992  1.9145
  345MOL0     H45514   4.510   7.499   6.598 -1.9332  2.6388 -3.6864
  345MOL0     H45515   4.494   7.667   6.622  0.9076 -0.7480 -1.1786
  345MOL0     H45516   4.275   7.628   6.712 -0.0083 -1.3337  2.7066
  345MOL0     H45517   4.287   7.458   6.743 -3.0808  0.5704  0.7739
  345MOL0     H45518   4.310   7.553   6.455  2.4439 -2.0796 -1.4065
  345MOL0     H45519   4.329   7.393   6.507  1.6392  1.6521 -0.4120
  345MOL0     H45520   4.059   7.521   6.571 -0.4576 -0.7588 -0.6036
  345MOL0     H45521   4.123   7.363   6.613 -0.8544  0.1995 -0.3523
  345MOL0     H45522   5.124   7.552   6.904  1.1568 -1.1477 -0.9019
  345MOL0     H45523   5.372   7.607   6.927 -0.3007  1.6978 -0.1145
  345MOL0     H45524   5.860   7.540   6.852 -0.7672 -1.1133 -2.1947
  345MOL0     H45525   6.079   7.670   6.836 -0.8304  0.3967  1.7777
  345MOL0     H45526   7.406   8.816   5.817 -0.9767 -2.2881 -1.3717
  345MOL0     H45527   7.620   8.937   5.808 -0.1763  0.4625 -0.7830
  345MOL0     H45528   8.061   9.175   5.861  3.3750  4.0627 -4.2874
  345MOL0     H45529   8.289   9.214   5.805  4.1698 -1.6016 -2.3333
  345MOL0     H45530   8.605   9.019   5.618 -1.4730 -1.1857 -1.4887
  345MOL0     H45531   8.488   8.897   5.599 -1.1315 -0.3037  0.5204
  345MOL0     H45532   8.633   8.942   5.856 -1.1248  2.9033 -2.4833
  345MOL0     H45533   8.529   8.804   5.829  2.0337 -1.3837  1.5648
  345MOL0     H45534   8.679   8.729   5.637 -1.5190  0.9422  1.3985
  345MOL0     H45535   8.705   8.690   5.799 -0.2797  0.8310  2.1372
  345MOL0     H45536   8.843   8.929   5.672 -3.9770 -0.2607 -1.3331
  345MOL0     H45537   8.889   8.855   5.819  0.7468 -0.7021 -0.3625
  345MOL0     H45538   9.099   8.638   5.517 -0.3293 -1.2311  0.8845
  345MOL0     H45539   8.331   8.809   5.696  3.0980  2.2650  2.4888
  345MOL0     H45540   8.084   8.770   5.741 -1.2656  0.5785  0.1942
  346MOL0     O45541   2.056   7.008   5.737 -0.0616  0.2174  0.4466
  346MOL0     C45542   2.080   7.046   5.625 -0.1945  0.9677  0.3711
  346MOL0     O45543   1.981   7.090   5.539 -1.0305  1.2578  0.2544
  346MOL0     C45544   1.849   7.079   5.576 -0.6855 -0.1500  0.1996
  346MOL0     C45545   1.779   6.959   5.603  0.7542  0.4420 -0.3310
  346MOL0     C45546   1.636   6.971   5.619 -0.1670  0.6824  0.6928
  346MOL0     C45547   1.572   7.093   5.624  1.2205  0.2341 -0.0406
  346MOL0     O45548   1.438   7.095   5.645  0.3606  0.7287 -0.2201
  346MOL0     C45549   1.401   7.144   5.777  0.7332 -0.7287 -0.5804
  346MOL0     C45550   1.283   7.072   5.831  0.4008 -0.3184 -0.4249
  346MOL0     C45551   1.155   7.088   5.750 -0.7086 -0.3341  0.0910
  346MOL0     C45552   1.053   7.009   5.836 -0.3541  0.8912 -0.0507
  346MOL0     C45553   0.954   6.939   5.757 -0.2261  0.8653  0.7199
  346MOL0     C45554   0.865   6.859   5.848  0.5382 -0.5236 -0.2702
  346MOL0     C45555   0.768   6.947   5.937  0.0605  0.3027  0.1770
  346MOL0     C45556   0.768   6.884   6.077  0.1631  0.1406 -0.4860
  346MOL0     N45557   0.701   6.748   6.080 -0.1871  0.6395  0.2664
  346MOL0     C45558   0.570   6.729   6.051 -0.0094  0.4688 -0.0039
  346MOL0     C45559   0.542   6.602   6.072  0.1911 -0.8817  0.3095
  346MOL0     C45560   0.412   6.555   6.041  0.2838 -0.5475 -0.2171
  346MOL0     C45561   0.408   6.488   5.907  0.4189 -0.5380 -0.9281
  346MOL0     C45562   0.390   6.586   5.790 -0.4896 -0.8480 -0.1725
  346MOL0     C45563   0.282   6.693   5.801  0.0378  0.1487 -0.4570
  346MOL0     O45564   0.252   6.741   5.665 -0.1243 -0.5404 -0.3021
  346MOL0     C45565   0.141   6.680   5.599  0.2689  0.1587 -0.1817
  346MOL0     C45566   0.079   6.559   5.644 -0.3350  0.5728  0.3037
  346MOL0     C45567  -0.034   6.521   5.582  0.6889 -0.3545 -0.2623
  346MOL0     C45568  -0.083   6.586   5.464 -0.4045 -0.3957  0.3146
  346MOL0     C45569  -0.213   6.553   5.398 -0.3383  0.1141  0.3571
  346MOL0     O45570  -0.271   6.429   5.432 -0.3356  0.2075  0.2251
  346MOL0     C45571  -0.392   6.395   5.365 -0.8599 -0.5779  0.5707
  346MOL0     C45572  -0.500   6.369   5.443  0.0894 -0.2914  0.2764
  346MOL0     C45573  -0.613   6.330   5.370  0.1715  0.6774 -1.0230
  346MOL0     C45574  -0.620   6.315   5.234 -0.0546 -0.8875  0.7188
  346MOL0     O45575  -0.736   6.264   5.188  0.3842 -0.6617 -1.0300
  346MOL0     C45576  -0.758   6.274   5.052  0.1709 -0.9016  1.0051
  346MOL0     C45577  -0.898   6.218   5.016  0.3595  0.5250  0.4240
  346MOL0     C45578  -1.021   6.272   5.097  0.0708 -0.7044 -0.2409
  346MOL0     C45579  -1.146   6.216   5.040 -0.0530  0.0294 -0.5622
  346MOL0     C45580  -1.273   6.248   5.121 -0.0848 -0.6479 -0.0854
  346MOL0     C45581  -1.405   6.189   5.057 -0.0545 -0.5087 -1.4356
  346MOL0     C45582  -1.514   6.195   5.169 -0.6688  0.4265  1.4737
  346MOL0     C45583  -1.660   6.161   5.123  0.7812 -0.0820 -0.0810
  346MOL0    Cl45584  -1.760   6.143   5.271 -0.4252 -0.6851  0.7040
  346MOL0     C45585  -0.504   6.339   5.155 -0.2569  0.1157 -1.4734
  346MOL0     C45586  -0.391   6.383   5.224  0.6539 -0.4877 -0.5074
  346MOL0     O45587  -0.253   6.625   5.311  0.9447 -0.3066  0.0495
  346MOL0     C45588  -0.014   6.700   5.412 -0.6311 -0.1066  0.7564
  346MOL0     C45589   0.097   6.744   5.487  0.4222 -0.2909  0.8836
  346MOL0     N45590   0.659   6.534   6.106  0.0201  0.0360  0.4558
  346MOL0     N45591   0.754   6.626   6.118  0.1222  1.2396  0.8802
  346MOL0     C45592   1.641   7.210   5.610 -0.3913 -0.3517  0.3146
  346MOL0     C45593   1.779   7.204   5.591 -0.7927 -0.2420 -0.0466
  346MOL0     C45594   2.223   7.041   5.566 -0.0261  0.4063 -0.7962
  346MOL0     C45595   2.266   7.101   5.441  0.3548  0.6462  0.4952
  346MOL0     C45596   2.395   7.082   5.395 -0.3931 -1.3489 -0.1660
  346MOL0     C45597   2.488   7.018   5.469 -0.4428  0.1714 -0.1758
  346MOL0     O45598   2.620   7.018   5.427 -0.6995 -0.5318  0.0522
  346MOL0     C45599   2.688   7.135   5.469 -0.3079  0.2134  0.4774
  346MOL0     C45600   2.817   7.146   5.385  0.1438  0.3591 -0.2275
  346MOL0     C45601   2.906   7.257   5.448  0.1098 -0.2623 -0.6004
  346MOL0     C45602   3.051   7.232   5.450  0.5445 -1.6844  0.2409
  346MOL0     C45603   3.099   7.187   5.323 -0.0477 -0.5074 -0.2676
  346MOL0     C45604   3.134   7.161   5.209  0.3818  0.5709 -0.5589
  346MOL0     C45605   2.450   6.966   5.599  0.5070 -0.2065 -0.4032
  346MOL0     C45606   2.320   6.982   5.646  1.3269  0.5759 -0.0555
  346MOL0     H45607   1.828   6.862   5.594 -2.2896 -1.3713  1.0178
  346MOL0     H45608   1.568   6.886   5.617 -1.8290  1.8386 -3.8960
  346MOL0     H45609   1.373   7.249   5.766  0.7191 -0.4491  1.6942
  346MOL0     H45610   1.487   7.134   5.843  0.9382  0.1890 -0.7008
  346MOL0     H45611   1.253   7.111   5.929 -0.9404 -2.0932 -0.0742
  346MOL0     H45612   1.310   6.967   5.842 -2.7636 -1.1181  0.9412
  346MOL0     H45613   1.169   7.051   5.648 -1.8689  0.1234 -0.2488
  346MOL0     H45614   1.124   7.192   5.748 -0.5154 -0.2900 -1.7658
  346MOL0     H45615   1.106   6.938   5.900 -1.9452  0.4361  0.8163
  346MOL0     H45616   1.001   7.063   5.916  0.8023 -1.2957  2.3208
  346MOL0     H45617   1.001   6.871   5.685 -0.0577 -0.4065  1.9762
  346MOL0     H45618   0.891   7.009   5.702  1.8007  1.8094 -0.5008
  346MOL0     H45619   0.931   6.800   5.913  1.8332  0.3534 -0.7489
  346MOL0     H45620   0.803   6.787   5.794 -1.5190 -0.0920  1.3839
  346MOL0     H45621   0.792   7.053   5.951 -1.9009  1.0835 -1.8812
  346MOL0     H45622   0.675   6.945   5.880  0.6375 -3.5097 -0.8828
  346MOL0     H45623   0.721   6.953   6.148 -2.7482 -2.2353  0.0834
  346MOL0     H45624   0.868   6.877   6.121 -0.8121 -1.7601  1.6576
  346MOL0     H45625   0.491   6.798   6.023  0.5570  0.3274 -2.1020
  346MOL0     H45626   0.342   6.639   6.044 -2.0956 -2.4383  0.4823
  346MOL0     H45627   0.366   6.489   6.115 -1.4275  0.6599 -0.1353
  346MOL0     H45628   0.316   6.429   5.911  0.6464 -0.8756 -0.5095
  346MOL0     H45629   0.493   6.421   5.888  0.7284  0.0398 -1.6229
  346MOL0     H45630   0.477   6.652   5.779 -2.1205  1.3456 -0.4663
  346MOL0     H45631   0.379   6.528   5.698 -1.8372  0.2314 -0.7237
  346MOL0     H45632   0.312   6.772   5.871  1.6826 -1.3745  0.6379
  346MOL0     H45633   0.195   6.643   5.846 -0.3930  2.8642  2.1188
  346MOL0     H45634   0.098   6.500   5.733  1.0916  1.6936  0.7718
  346MOL0     H45635  -0.093   6.437   5.617  1.4101  0.2407  2.5930
  346MOL0     H45636  -0.500   6.378   5.551 -1.3421 -0.2182  0.2933
  346MOL0     H45637  -0.706   6.317   5.424  0.1468  2.1067 -0.6866
  346MOL0     H45638  -0.688   6.202   5.007 -1.0870  0.0475 -2.9018
  346MOL0     H45639  -0.748   6.376   5.013 -0.6096 -1.6853 -1.4603
  346MOL0     H45640  -0.884   6.111   5.035  3.9074  0.9928  1.1235
  346MOL0     H45641  -0.902   6.232   4.908  0.0121  1.9176  0.6056
  346MOL0     H45642  -1.016   6.381   5.094  1.9670 -0.7637 -2.5607
  346MOL0     H45643  -1.023   6.234   5.199 -3.4716  1.1988  0.5503
  346MOL0     H45644  -1.162   6.250   4.937 -0.1785 -0.9801 -0.8872
  346MOL0     H45645  -1.126   6.109   5.043 -0.8745 -0.1282 -0.4924
  346MOL0     H45646  -1.280   6.357   5.116 -1.5615 -0.7822 -2.6283
  346MOL0     H45647  -1.255   6.204   5.220 -1.6661 -0.2193  0.4144
  346MOL0     H45648  -1.391   6.087   5.022  1.0854  0.1187 -2.9160
  346MOL0     H45649  -1.449   6.257   4.982  0.1993 -0.1350 -1.2457
  346MOL0     H45650  -1.479   6.125   5.246  3.8168  0.3825 -0.2787
  346MOL0     H45651  -1.517   6.295   5.214 -2.8573  2.5717 -2.9055
  346MOL0     H45652  -1.657   6.063   5.075 -1.4410 -0.3055  0.1161
  346MOL0     H45653  -1.703   6.240   5.060 -3.6176  0.4572  3.0977
  346MOL0     H45654  -0.512   6.331   5.047 -1.8331  0.1987 -1.3832
  346MOL0     H45655  -0.300   6.410   5.171  0.9315  1.5583  0.8973
  346MOL0     H45656  -0.040   6.767   5.330  0.2740  1.5113  1.7547
  346MOL0     H45657   0.150   6.831   5.449  0.1417 -0.9884 -1.2245
  346MOL0     H45658   1.589   7.304   5.600 -1.5862 -0.8690  1.3765
  346MOL0     H45659   1.842   7.291   5.571  0.4120 -1.5680 -2.5628
  346MOL0     H45660   2.200   7.153   5.373 -0.6125 -1.9394 -0.6832
  346MOL0     H45661   2.415   7.125   5.297 -2.2761  1.8172  0.6958
  346MOL0     H45662   2.717   7.120   5.574  1.7822 -1.4072 -0.2622
  346MOL0     H45663   2.626   7.222   5.446 -0.0427 -0.3360 -2.8038
  346MOL0     H45664   2.871   7.051   5.382  1.3368  0.8904  2.2246
  346MOL0     H45665   2.795   7.173   5.281  0.0418  0.0120 -0.2991
  346MOL0     H45666   2.878   7.287   5.550  4.2251  0.7076  0.4013
  346MOL0     H45667   2.911   7.341   5.379 -0.5040 -1.4007 -2.0884
  346MOL0     H45668   3.094   7.326   5.484  2.0480 -2.3822  0.3304
  346MOL0     H45669   3.064   7.145   5.515  2.3950 -0.7346  1.1819
  346MOL0     H45670   3.173   7.130   5.115  2.6207  1.8291 -0.1261
  346MOL0     H45671   2.516   6.908   5.663 -0.0741 -0.8871 -0.4092
  346MOL0     H45672   2.287   6.934   5.737 -1.3550  0.2400 -1.1195
  347MOL0     O45673   5.617   9.491   0.299  0.4630  0.2267 -0.1295
  347MOL0     C45674   5.609   9.546   0.191 -0.0235  1.3149 -0.5645
  347MOL0     O45675   5.501   9.580   0.123  1.0787 -0.5555  0.6222
  347MOL0     C45676   5.367   9.567   0.163 -0.8341 -0.1513 -0.0054
  347MOL0     C45677   5.282   9.671   0.128  0.0963  0.7645 -0.2136
  347MOL0     C45678   5.150   9.671   0.173 -0.4918  0.5839 -0.1431
  347MOL0     C45679   5.111   9.571   0.265 -0.7436  0.0014  0.5173
  347MOL0     O45680   4.979   9.569   0.304  0.8809  0.3348  0.3256
  347MOL0     C45681   4.889   9.516   0.208 -0.2406  0.8052 -0.2230
  347MOL0     C45682   4.744   9.559   0.228  0.6825 -0.7727 -0.3150
  347MOL0     C45683   4.643   9.485   0.150 -0.2678  0.2364  0.1702
  347MOL0     C45684   4.588   9.358   0.217  0.1733 -0.0227  0.3271
  347MOL0     C45685   4.475   9.303   0.123  0.8559 -0.2805 -0.3297
  347MOL0     C45686   4.404   9.198   0.192  0.0398  0.2962 -0.7773
  347MOL0     C45687   4.295   9.123   0.119  0.6028  0.0316  1.1387
  347MOL0     C45688   4.344   9.014   0.033  0.3978 -0.0603 -0.1608
  347MOL0     N45689   4.239   8.956  -0.057 -0.2450  0.0755 -0.6680
  347MOL0     C45690   4.136   8.870  -0.011 -1.0096 -0.0299  0.5262
  347MOL0     C45691   4.110   8.813  -0.134  0.5243  0.2106 -0.5058
  347MOL0     C45692   4.010   8.696  -0.160 -0.3548 -0.1139  0.1236
  347MOL0     C45693   3.864   8.745  -0.158 -0.3584  0.2089 -0.5870
  347MOL0     C45694   3.820   8.810  -0.020 -0.5230  0.3040  0.9742
  347MOL0     C45695   3.677   8.863  -0.031 -0.3486 -0.2134 -0.3350
  347MOL0     O45696   3.626   8.881  -0.165 -0.5283 -0.8228  0.0371
  347MOL0     C45697   3.501   8.857  -0.196  0.2579 -0.2467  0.6726
  347MOL0     C45698   3.470   8.863  -0.337 -0.4337  0.9954 -1.3425
  347MOL0     C45699   3.346   8.826  -0.380 -0.6929  0.7048  0.1897
  347MOL0     C45700   3.234   8.806  -0.296 -0.2574 -1.3741 -0.0462
  347MOL0     C45701   3.112   8.782  -0.358  1.2237 -0.1831 -0.1816
  347MOL0     O45702   2.993   8.771  -0.270  0.2707 -0.7293  0.9298
  347MOL0     C45703   2.865   8.763  -0.324 -0.9035  0.7718  0.4347
  347MOL0     C45704   2.782   8.661  -0.279 -0.2880 -1.2265  0.4415
  347MOL0     C45705   2.655   8.656  -0.341 -0.1427  0.4845  0.4264
  347MOL0     C45706   2.607   8.754  -0.423 -0.4939 -0.1962  0.1368
  347MOL0     O45707   2.480   8.735  -0.481 -0.1375  0.2279 -0.3916
  347MOL0     C45708   2.442   8.824  -0.584 -0.0579  0.2038 -0.1542
  347MOL0     C45709   2.319   8.772  -0.653 -0.0857  1.0028  1.1930
  347MOL0     C45710   2.291   8.851  -0.781  0.3546 -0.6205 -0.0326
  347MOL0     C45711   2.161   8.808  -0.852  0.8058 -0.1262  0.2031
  347MOL0     C45712   2.135   8.906  -0.972  0.0490  0.4067 -0.7662
  347MOL0     C45713   2.007   8.870  -1.048  0.0134  0.1056  0.4827
  347MOL0     C45714   1.990   8.956  -1.175  1.0405  0.2028 -0.1790
  347MOL0     C45715   1.883   8.897  -1.260 -0.8953 -0.3362  1.2249
  347MOL0    Cl45716   1.873   8.980  -1.424  0.1875  0.2391  0.5777
  347MOL0     C45717   2.696   8.862  -0.456  0.2430 -0.2667  0.7016
  347MOL0     C45718   2.821   8.864  -0.406 -0.6004 -0.5407 -0.3491
  347MOL0     O45719   3.104   8.776  -0.484  0.4426 -0.3845  0.1607
  347MOL0     C45720   3.259   8.811  -0.158 -0.0978 -0.8112 -0.5194
  347MOL0     C45721   3.389   8.849  -0.115 -0.5045 -0.8645  0.4721
  347MOL0     N45722   4.184   8.866  -0.236 -0.1957 -0.4576  0.4570
  347MOL0     N45723   4.259   8.955  -0.191 -0.4965 -0.0479  0.0686
  347MOL0     C45724   5.186   9.454   0.293 -0.2306 -1.0286  0.6553
  347MOL0     C45725   5.322   9.464   0.241  0.4486  0.0059  0.3975
  347MOL0     C45726   5.737   9.544   0.120  0.3233  0.1146 -0.2346
  347MOL0     C45727   5.839   9.462   0.146 -0.5507  0.3814 -0.4930
  347MOL0     C45728   5.958   9.468   0.078 -0.1674  0.2763  0.9357
  347MOL0     C45729   5.983   9.550  -0.030 -0.0153  0.1224  1.0130
  347MOL0     O45730   6.110   9.546  -0.081 -0.0886  0.7176  0.0630
  347MOL0     C45731   6.141   9.643  -0.186 -0.0984  0.5616 -0.2304
  347MOL0     C45732   6.298   9.655  -0.195 -0.3179 -0.9983  0.7980
  347MOL0     C45733   6.343   9.715  -0.331 -0.1705  0.7070 -0.1036
  347MOL0     C45734   6.497   9.705  -0.313  0.1801  0.5829 -0.9328
  347MOL0     C45735   6.550   9.778  -0.429 -0.2423 -0.5331 -0.3254
  347MOL0     C45736   6.602   9.825  -0.532 -0.5600 -0.1553  0.9188
  347MOL0     C45737   5.873   9.634  -0.062  0.4139 -0.4621  0.2826
  347MOL0     C45738   5.750   9.628   0.012 -0.5748  0.1500  0.5481
  347MOL0     H45739   5.312   9.747   0.056 -2.3041 -0.3475 -2.5820
  347MOL0     H45740   5.078   9.744   0.138 -1.0137 -0.2256 -0.7816
  347MOL0     H45741   4.891   9.407   0.217 -2.3144  0.7105 -0.4480
  347MOL0     H45742   4.920   9.544   0.107  1.0263  1.4254  0.3125
  347MOL0     H45743   4.737   9.665   0.203  0.2023 -0.5982  0.5291
  347MOL0     H45744   4.721   9.557   0.335  1.9699  3.3914  0.2298
  347MOL0     H45745   4.692   9.467   0.054  1.2150  1.5183  0.6306
  347MOL0     H45746   4.559   9.552   0.129 -0.9887 -1.3673 -2.4988
  347MOL0     H45747   4.667   9.284   0.202  0.0953  0.0431 -0.4001
  347MOL0     H45748   4.570   9.364   0.325 -2.7469 -3.4815  0.2424
  347MOL0     H45749   4.519   9.272   0.028 -2.0212 -0.4813 -1.6993
  347MOL0     H45750   4.413   9.390   0.099  2.2063  1.5291  2.1752
  347MOL0     H45751   4.357   9.233   0.285 -0.2978 -2.1910  0.0724
  347MOL0     H45752   4.489   9.137   0.227  0.3340  1.2459  0.2148
  347MOL0     H45753   4.231   9.076   0.193  0.7912  0.3460  1.5002
  347MOL0     H45754   4.234   9.183   0.050  1.5993 -0.7030 -0.4550
  347MOL0     H45755   4.372   8.934   0.102 -1.0873  0.4009  1.0277
  347MOL0     H45756   4.430   9.049  -0.025 -0.0637 -0.8903 -1.4078
  347MOL0     H45757   4.099   8.852   0.089  0.6115  1.4302  1.4422
  347MOL0     H45758   4.014   8.626  -0.076 -2.1415  2.0439  2.1636
  347MOL0     H45759   4.043   8.642  -0.249  2.1480  0.1919  0.8072
  347MOL0     H45760   3.802   8.658  -0.182  0.7642 -0.2177 -2.0322
  347MOL0     H45761   3.863   8.810  -0.246 -1.1108  0.8017 -0.1625
  347MOL0     H45762   3.833   8.734   0.058 -0.7429 -2.0177 -1.1187
  347MOL0     H45763   3.887   8.895  -0.005  1.2548 -1.3910  3.4099
  347MOL0     H45764   3.666   8.955   0.026 -0.4361 -1.4669  1.7678
  347MOL0     H45765   3.620   8.785   0.020  2.3212 -1.2621  1.2296
  347MOL0     H45766   3.548   8.870  -0.412 -2.2578  0.7989 -3.3162
  347MOL0     H45767   3.332   8.827  -0.487  2.8058  1.1399 -0.3690
  347MOL0     H45768   2.827   8.579  -0.224 -0.2725 -1.6797 -0.2326
  347MOL0     H45769   2.589   8.575  -0.311  1.6076 -0.8523  0.8122
  347MOL0     H45770   2.517   8.835  -0.663 -0.5661  0.9487 -0.5382
  347MOL0     H45771   2.418   8.919  -0.536  0.9157 -1.4287  4.0192
  347MOL0     H45772   2.238   8.787  -0.582 -1.3728  2.5489 -0.5221
  347MOL0     H45773   2.323   8.662  -0.658 -0.2721  0.8914  2.9050
  347MOL0     H45774   2.374   8.838  -0.850  0.4978  2.7704 -0.6978
  347MOL0     H45775   2.292   8.954  -0.745  0.1031 -1.1724  1.6436
  347MOL0     H45776   2.164   8.701  -0.874 -1.0452 -0.4925  1.5247
  347MOL0     H45777   2.081   8.832  -0.782  0.0993 -0.7234 -0.3919
  347MOL0     H45778   2.223   8.888  -1.034 -0.5789 -3.5328 -0.7621
  347MOL0     H45779   2.123   9.009  -0.937  0.8044  0.8703 -1.8553
  347MOL0     H45780   1.923   8.868  -0.979 -1.3377 -1.3952 -1.1198
  347MOL0     H45781   2.026   8.764  -1.068 -1.0135 -0.8038  3.6781
  347MOL0     H45782   1.949   9.051  -1.138 -2.7393 -1.0333 -0.7735
  347MOL0     H45783   2.088   8.964  -1.223  1.5018 -0.4315  0.6553
  347MOL0     H45784   1.788   8.882  -1.209 -0.7779  0.2558  1.6307
  347MOL0     H45785   1.919   8.796  -1.282 -1.7404 -0.6312  1.1626
  347MOL0     H45786   2.668   8.939  -0.527  1.4045  0.5959  1.1612
  347MOL0     H45787   2.895   8.935  -0.443 -0.2154 -1.1988 -0.8762
  347MOL0     H45788   3.183   8.812  -0.080 -0.2379 -2.0028 -0.6295
  347MOL0     H45789   3.396   8.869  -0.009 -2.1748  1.1474  0.2688
  347MOL0     H45790   5.159   9.361   0.342 -1.2501 -0.1252  1.8518
  347MOL0     H45791   5.393   9.387   0.270  1.6163  1.4022  1.3245
  347MOL0     H45792   5.846   9.402   0.237  0.4867  0.7195 -0.3284
  347MOL0     H45793   6.041   9.411   0.120  1.2816  1.1239 -0.6498
  347MOL0     H45794   6.096   9.742  -0.172 -0.9773  0.0824  0.4520
  347MOL0     H45795   6.106   9.601  -0.280 -1.5964  0.0314  0.5355
  347MOL0     H45796   6.327   9.718  -0.110 -3.0182 -1.7723  2.4437
  347MOL0     H45797   6.343   9.555  -0.196 -2.4372 -2.2113 -4.1997
  347MOL0     H45798   6.312   9.820  -0.341  0.5006  1.0609  1.3190
  347MOL0     H45799   6.313   9.652  -0.416 -0.5649  1.5063 -0.5733
  347MOL0     H45800   6.533   9.747  -0.218  0.9693 -2.6682  0.3112
  347MOL0     H45801   6.531   9.602  -0.307  0.2795  0.6938  1.2274
  347MOL0     H45802   6.638   9.862  -0.625  1.9668 -4.4794 -0.0400
  347MOL0     H45803   5.876   9.711  -0.139 -1.7909 -1.0396 -0.4562
  347MOL0     H45804   5.672   9.693  -0.027  0.2850  0.1549 -1.3023
  348MOL0     O45805   5.410   8.992   1.842  0.6800  0.2573  0.5079
  348MOL0     C45806   5.492   9.063   1.901 -0.1959 -0.7932 -0.2064
  348MOL0     O45807   5.498   9.200   1.902  0.3096 -0.0275 -0.3457
  348MOL0     C45808   5.425   9.268   1.810 -0.5517 -0.3432  0.4309
  348MOL0     C45809   5.482   9.292   1.683 -0.4710 -0.5416 -0.7557
  348MOL0     C45810   5.410   9.364   1.588  0.8432  0.1954 -0.8453
  348MOL0     C45811   5.274   9.401   1.614 -1.0732 -0.6605  0.0964
  348MOL0     O45812   5.198   9.459   1.521  0.7492  0.6797  0.6897
  348MOL0     C45813   5.096   9.556   1.555  0.0406 -1.1897 -0.9557
  348MOL0     C45814   5.053   9.631   1.435  0.6517 -0.0188  0.5578
  348MOL0     C45815   5.156   9.727   1.384  0.1369 -0.3564 -0.1721
  348MOL0     C45816   5.107   9.799   1.255  0.2672 -0.1104 -0.0999
  348MOL0     C45817   5.202   9.915   1.199  0.8852  0.4294 -0.3053
  348MOL0     C45818   5.148   9.936   1.058 -0.6818 -0.6003  0.5845
  348MOL0     C45819   5.007   9.995   1.043 -0.2734  0.4840 -0.4160
  348MOL0     C45820   4.961  10.047   0.903 -0.3104 -0.8339 -0.0394
  348MOL0     N45821   4.829  10.112   0.915  0.7525  1.4924 -0.0232
  348MOL0     C45822   4.740  10.120   0.801 -0.1028  0.5340 -0.2011
  348MOL0     C45823   4.646  10.211   0.834  1.0357  0.4062 -0.1645
  348MOL0     C45824   4.538  10.269   0.748 -0.5857 -0.8001 -0.1476
  348MOL0     C45825   4.428  10.157   0.722 -0.4135  0.0129 -0.1853
  348MOL0     C45826   4.319  10.201   0.630 -0.2623  0.1499  0.4704
  348MOL0     C45827   4.184  10.119   0.628  0.5241 -1.1364 -0.0745
  348MOL0     O45828   4.214   9.983   0.608  0.4712  0.2536 -0.3696
  348MOL0     C45829   4.105   9.906   0.575  0.4398 -0.3883  0.3406
  348MOL0     C45830   4.117   9.809   0.483 -0.0627 -0.2005  0.4396
  348MOL0     C45831   4.003   9.747   0.424 -0.5799  0.2835 -0.4771
  348MOL0     C45832   3.867   9.791   0.450  0.9028  0.7855  1.2949
  348MOL0     C45833   3.745   9.733   0.379 -0.5809  0.1087  0.3091
  348MOL0     O45834   3.623   9.784   0.409  0.6709  0.5342 -0.0916
  348MOL0     C45835   3.521   9.739   0.338 -0.2308 -0.4552 -0.4795
  348MOL0     C45836   3.494   9.612   0.278  0.1460  0.7873 -0.0305
  348MOL0     C45837   3.366   9.581   0.218 -0.2828 -0.1238  0.1889
  348MOL0     C45838   3.273   9.678   0.213  0.1958 -0.5630 -0.7164
  348MOL0     O45839   3.139   9.652   0.178 -0.9153 -0.1022 -0.3721
  348MOL0     C45840   3.124   9.580   0.050  0.4392  0.8809 -1.1554
  348MOL0     C45841   3.184   9.665  -0.064 -0.4828 -0.7946  0.1684
  348MOL0     C45842   3.122   9.808  -0.077 -0.1805  0.3005  0.2942
  348MOL0     C45843   2.962   9.807  -0.081  0.1782 -0.8714  0.0794
  348MOL0     C45844   2.913   9.937  -0.148  0.6758 -0.0776 -1.1666
  348MOL0     C45845   2.755   9.947  -0.158 -0.0991 -0.3904  0.7744
  348MOL0     C45846   2.714  10.082  -0.216 -0.3074 -0.0277 -0.0490
  348MOL0     C45847   2.570  10.086  -0.227  0.2759  0.6571 -0.6243
  348MOL0    Cl45848   2.487  10.057  -0.076  0.4327  0.4747  0.1992
  348MOL0     C45849   3.299   9.805   0.252  0.6016  0.2932  0.0031
  348MOL0     C45850   3.420   9.837   0.323 -1.0836 -0.6763  0.6444
  348MOL0     O45851   3.768   9.659   0.286  0.0009 -0.6155 -0.8833
  348MOL0     C45852   3.857   9.886   0.548 -0.6011  0.5107 -0.3952
  348MOL0     C45853   3.975   9.933   0.615 -0.8811  0.2065 -0.6041
  348MOL0     N45854   4.666  10.255   0.963  0.3361 -0.0593  0.4352
  348MOL0     N45855   4.773  10.191   1.012 -0.0394 -0.3713  0.8602
  348MOL0     C45856   5.221   9.364   1.738  0.2799  0.6568 -0.1867
  348MOL0     C45857   5.295   9.309   1.843 -0.3944  0.9428  0.2414
  348MOL0     C45858   5.574   8.983   1.998 -0.4005  1.1849 -0.1384
  348MOL0     C45859   5.630   8.853   1.979  0.0095 -0.9192  0.0828
  348MOL0     C45860   5.720   8.802   2.076 -0.1448 -0.2206 -0.8241
  348MOL0     C45861   5.762   8.874   2.188  0.8734 -0.0550 -0.2887
  348MOL0     O45862   5.856   8.821   2.271 -0.0447 -0.0281 -0.1908
  348MOL0     C45863   5.989   8.810   2.215  0.1645 -0.2018 -0.4593
  348MOL0     C45864   6.057   8.943   2.199  0.0287 -0.9513 -0.2175
  348MOL0     C45865   6.103   9.006   2.333 -0.3221  0.2882 -0.1135
  348MOL0     C45866   6.204   9.124   2.320  1.0101 -0.2039  0.5744
  348MOL0     C45867   6.131   9.230   2.250 -0.2610 -0.5786 -0.1997
  348MOL0     C45868   6.069   9.314   2.188  0.2977  0.1039 -0.9140
  348MOL0     C45869   5.713   9.002   2.194 -0.3631 -0.4197 -0.4382
  348MOL0     C45870   5.619   9.060   2.105 -0.4222  0.8598  0.0888
  348MOL0     H45871   5.584   9.259   1.667 -0.6455 -0.7956 -1.3534
  348MOL0     H45872   5.436   9.361   1.482  0.8853 -2.8219 -0.8404
  348MOL0     H45873   5.142   9.623   1.628 -0.4166 -1.0617 -0.7861
  348MOL0     H45874   5.012   9.504   1.600  1.3737 -0.3973  2.8001
  348MOL0     H45875   4.963   9.686   1.465  0.0774 -0.9304  0.5254
  348MOL0     H45876   5.019   9.555   1.364 -1.6616 -0.3428  1.9103
  348MOL0     H45877   5.242   9.666   1.356  1.4401  1.3269 -0.0134
  348MOL0     H45878   5.182   9.803   1.458 -1.4507  1.6007 -1.5187
  348MOL0     H45879   5.075   9.725   1.182 -2.5647 -0.2231  1.1104
  348MOL0     H45880   5.008   9.839   1.282 -1.0152 -1.6060 -2.2756
  348MOL0     H45881   5.305   9.880   1.186  1.0261  0.8871 -0.4341
  348MOL0     H45882   5.187  10.006   1.257  0.2986 -1.5243  2.8743
  348MOL0     H45883   5.155   9.841   1.004 -1.1943 -1.5327  2.1036
  348MOL0     H45884   5.214  10.012   1.015 -1.2995 -0.9932 -1.1184
  348MOL0     H45885   4.932   9.921   1.073  2.6369 -2.9541 -1.0294
  348MOL0     H45886   4.997  10.075   1.117 -1.1305 -0.0249  0.0333
  348MOL0     H45887   4.954   9.967   0.830 -1.8128 -1.6449  0.9530
  348MOL0     H45888   5.035  10.118   0.864  0.8068 -1.0981  1.4874
  348MOL0     H45889   4.750  10.067   0.707 -1.7426 -0.1395 -0.0186
  348MOL0     H45890   4.586  10.294   0.653 -2.1180  0.7798 -0.5670
  348MOL0     H45891   4.499  10.363   0.790  0.4049 -0.3514 -0.2108
  348MOL0     H45892   4.395  10.125   0.821 -0.9508 -0.8272 -0.6231
  348MOL0     H45893   4.475  10.071   0.671 -0.1895  0.6730 -1.1301
  348MOL0     H45894   4.285  10.303   0.650 -0.9178  0.5649 -2.4053
  348MOL0     H45895   4.359  10.189   0.529  0.7925 -0.4625  0.9404
  348MOL0     H45896   4.122  10.157   0.547  3.3103  0.2754 -1.6960
  348MOL0     H45897   4.130  10.139   0.721  0.5987  1.0464 -0.4661
  348MOL0     H45898   4.215   9.790   0.439 -1.9693 -2.7171 -3.3129
  348MOL0     H45899   4.015   9.683   0.337 -2.2874  0.6533 -1.0135
  348MOL0     H45900   3.565   9.532   0.296 -1.2227 -0.0405  2.1716
  348MOL0     H45901   3.345   9.476   0.197 -0.4212 -0.5890  2.4217
  348MOL0     H45902   3.015   9.575   0.043 -0.1523  1.2850  4.2388
  348MOL0     H45903   3.178   9.485   0.049  0.7410  1.0336  0.0524
  348MOL0     H45904   3.151   9.624  -0.159 -2.4963 -0.1071  0.5322
  348MOL0     H45905   3.292   9.678  -0.053 -0.4268 -0.2334 -0.9650
  348MOL0     H45906   3.166   9.850  -0.167 -0.5933 -0.1942 -0.1439
  348MOL0     H45907   3.160   9.869   0.005 -2.9991  0.4079  1.6651
  348MOL0     H45908   2.929   9.726  -0.147  1.6320  0.0402 -1.8846
  348MOL0     H45909   2.923   9.797   0.021  0.4813 -1.5237  0.1384
  348MOL0     H45910   2.967   9.942  -0.242  1.5779 -2.8272 -0.8738
  348MOL0     H45911   2.943  10.014  -0.076  1.8605 -1.7222  0.1775
  348MOL0     H45912   2.711   9.949  -0.058 -2.1271 -2.3194 -0.0097
  348MOL0     H45913   2.703   9.862  -0.202 -1.1259 -0.8187  2.7069
  348MOL0     H45914   2.755  10.155  -0.146  1.7595 -1.9238  0.8447
  348MOL0     H45915   2.761  10.086  -0.315 -1.7624 -2.6959 -0.9495
  348MOL0     H45916   2.543  10.018  -0.307  0.8850 -0.2918 -0.0442
  348MOL0     H45917   2.541  10.183  -0.269 -3.6409  0.8456  2.0306
  348MOL0     H45918   3.223   9.881   0.235  0.9932  0.6020 -0.3755
  348MOL0     H45919   3.447   9.937   0.353  2.3342 -0.6559 -1.8632
  348MOL0     H45920   3.758   9.911   0.584 -1.9486 -1.0015 -2.7684
  348MOL0     H45921   3.940  10.010   0.683  0.5038  2.0207 -1.8269
  348MOL0     H45922   5.120   9.397   1.758  0.6039  1.3253  0.4126
  348MOL0     H45923   5.262   9.291   1.945  0.5181  1.8161  0.7175
  348MOL0     H45924   5.604   8.793   1.892  0.5599 -0.9152 -0.0862
  348MOL0     H45925   5.761   8.708   2.043  1.1494  1.1591 -3.4120
  348MOL0     H45926   5.986   8.780   2.110 -0.1357 -2.4586  0.1549
  348MOL0     H45927   6.043   8.730   2.266  2.0261  1.0892 -0.3146
  348MOL0     H45928   6.143   8.938   2.131  1.9114  1.1879  1.8368
  348MOL0     H45929   5.989   9.013   2.151 -2.8260 -3.0400  0.5214
  348MOL0     H45930   6.153   8.927   2.389  0.6463  0.5496 -0.5949
  348MOL0     H45931   6.010   9.031   2.384 -0.3366 -0.1971  0.1073
  348MOL0     H45932   6.261   9.158   2.406  3.0686  4.5209 -2.2552
  348MOL0     H45933   6.285   9.090   2.256  1.9560  2.6492  0.1136
  348MOL0     H45934   6.017   9.386   2.129  1.5642  0.9442 -1.0597
  348MOL0     H45935   5.745   9.065   2.277 -0.0308  0.4330 -1.1953
  348MOL0     H45936   5.598   9.165   2.119  2.1159  1.2706  1.3742
  349MOL0     O45937   0.231   4.300   6.209  0.5399  0.0066 -0.1238
  349MOL0     C45938   0.147   4.367   6.268  0.0684  0.1725  0.3830
  349MOL0     O45939   0.018   4.357   6.255 -1.0210 -0.3985 -0.5414
  349MOL0     C45940  -0.015   4.292   6.138  0.0138 -0.3715  0.6005
  349MOL0     C45941   0.006   4.352   6.013  1.0175  0.7260  0.2551
  349MOL0     C45942  -0.036   4.295   5.895  0.1931 -0.4391  0.2349
  349MOL0     C45943  -0.116   4.176   5.909  0.4258  1.2697  0.2921
  349MOL0     O45944  -0.160   4.116   5.798  0.4157 -0.5716 -0.2974
  349MOL0     C45945  -0.303   4.100   5.805 -0.5039 -0.1528 -0.5334
  349MOL0     C45946  -0.362   4.108   5.660  0.0621  0.0242 -0.5530
  349MOL0     C45947  -0.495   4.034   5.638  0.8909 -0.2615 -0.2423
  349MOL0     C45948  -0.479   3.882   5.626  0.9846  0.4503 -0.2019
  349MOL0     C45949  -0.618   3.824   5.611  0.1629  0.7174  0.5680
  349MOL0     C45950  -0.613   3.667   5.601 -0.3362 -0.1375 -0.4176
  349MOL0     C45951  -0.530   3.584   5.502  0.2894  1.1837 -0.2195
  349MOL0     C45952  -0.540   3.626   5.352 -0.0351  0.5382 -0.5194
  349MOL0     N45953  -0.676   3.619   5.292  0.1573  0.6143 -0.1652
  349MOL0     C45954  -0.703   3.515   5.210  0.8589  0.1037  0.0058
  349MOL0     C45955  -0.831   3.544   5.181  0.4519  0.9394  0.2885
  349MOL0     C45956  -0.912   3.453   5.086 -0.3198 -0.5142 -0.2347
  349MOL0     C45957  -1.058   3.431   5.118  0.8844  0.4188 -0.9638
  349MOL0     C45958  -1.127   3.350   5.000 -0.1610 -0.7494 -0.7488
  349MOL0     C45959  -1.261   3.294   5.044  0.2747 -0.4437 -0.0879
  349MOL0     O45960  -1.246   3.195   5.144  0.0046  0.4177 -0.2591
  349MOL0     C45961  -1.352   3.118   5.177  0.6671 -0.2291 -0.4045
  349MOL0     C45962  -1.470   3.109   5.102 -0.0364  0.5213 -0.0422
  349MOL0     C45963  -1.570   3.015   5.145  0.0301 -0.1048 -0.1509
  349MOL0     C45964  -1.549   2.923   5.250  0.2187 -0.7115  0.0958
  349MOL0     C45965  -1.653   2.823   5.279  0.3907  0.4297  0.1474
  349MOL0     O45966  -1.767   2.813   5.201 -0.0883 -0.3461 -0.1740
  349MOL0     C45967  -1.867   2.719   5.234  0.6651  0.0281 -0.2539
  349MOL0     C45968  -1.886   2.613   5.149  0.1546 -0.8446  0.2451
  349MOL0     C45969  -1.992   2.522   5.157  0.1551 -0.1724 -1.3769
  349MOL0     C45970  -2.093   2.540   5.256  0.3634 -0.1381 -0.3085
  349MOL0     O45971  -2.188   2.447   5.278 -0.8272  0.4431  0.6898
  349MOL0     C45972  -2.325   2.495   5.291 -0.6343 -0.0740 -0.8040
  349MOL0     C45973  -2.426   2.401   5.234  0.0667  0.0777 -0.9648
  349MOL0     C45974  -2.562   2.459   5.245 -0.2593 -0.4239  0.0657
  349MOL0     C45975  -2.665   2.353   5.211  0.0952 -0.2552  0.2913
  349MOL0     C45976  -2.807   2.384   5.199  0.2309 -0.5611 -0.2991
  349MOL0     C45977  -2.839   2.502   5.112  0.9172 -0.2043  0.5683
  349MOL0     C45978  -2.988   2.525   5.090 -0.8983 -0.4026 -0.4192
  349MOL0     C45979  -3.055   2.411   5.011 -0.4432 -0.0398  0.1438
  349MOL0    Cl45980  -2.976   2.370   4.854 -0.8134  0.1333  0.4726
  349MOL0     C45981  -2.082   2.653   5.340  0.0368  0.1575 -0.7718
  349MOL0     C45982  -1.970   2.736   5.333 -0.0171 -0.2492 -0.9839
  349MOL0     O45983  -1.634   2.760   5.380  0.2667  0.0031 -0.0353
  349MOL0     C45984  -1.432   2.942   5.330  0.3306  0.1867  0.1774
  349MOL0     C45985  -1.333   3.043   5.295  0.2573  0.7940  0.0877
  349MOL0     N45986  -0.875   3.659   5.245  0.0746  0.3929  0.8208
  349MOL0     N45987  -0.779   3.705   5.301 -0.4460 -0.4831 -0.0048
  349MOL0     C45988  -0.155   4.127   6.035  0.1584 -0.4330 -0.3559
  349MOL0     C45989  -0.087   4.178   6.150  0.1085  0.9839 -0.0341
  349MOL0     C45990   0.196   4.453   6.372  0.1942  0.1303 -0.8015
  349MOL0     C45991   0.328   4.500   6.370  0.6193  0.0319  0.0536
  349MOL0     C45992   0.380   4.590   6.468 -0.5004 -0.7703  1.0916
  349MOL0     C45993   0.302   4.630   6.572  1.1000 -0.1359  0.2617
  349MOL0     O45994   0.341   4.709   6.680  0.0527  0.7886 -0.0403
  349MOL0     C45995   0.480   4.711   6.715  0.2216 -0.0826  0.0674
  349MOL0     C45996   0.512   4.839   6.798 -0.4942 -0.1457  0.1044
  349MOL0     C45997   0.656   4.845   6.838  0.3344  0.0128 -0.5327
  349MOL0     C45998   0.761   4.813   6.726 -0.1676  0.6791  0.8246
  349MOL0     C45999   0.788   4.671   6.720  0.3814  0.0266 -0.5761
  349MOL0     C46000   0.828   4.557   6.714 -0.3547 -0.6086  0.4451
  349MOL0     C46001   0.161   4.598   6.570 -0.0843 -0.0543  0.1253
  349MOL0     C46002   0.106   4.503   6.478  0.5552  0.3369 -1.9638
  349MOL0     H46003   0.058   4.447   6.022  2.7458 -0.2680  1.4956
  349MOL0     H46004  -0.007   4.325   5.795 -2.2540 -2.9598 -1.4042
  349MOL0     H46005  -0.365   4.165   5.867 -0.9263  1.2873 -2.3789
  349MOL0     H46006  -0.318   3.998   5.843 -2.3992 -0.5516 -2.1377
  349MOL0     H46007  -0.288   4.070   5.588  0.1984  0.6581 -0.7528
  349MOL0     H46008  -0.383   4.214   5.644  1.0676  0.3717  0.3320
  349MOL0     H46009  -0.540   4.060   5.541 -0.5776  0.2857  0.5508
  349MOL0     H46010  -0.558   4.068   5.720 -0.6969  0.8752 -1.8340
  349MOL0     H46011  -0.415   3.853   5.542 -0.7262 -3.7763 -0.2935
  349MOL0     H46012  -0.445   3.842   5.723  0.4134  0.7177  0.1134
  349MOL0     H46013  -0.663   3.868   5.521 -0.6830 -0.5377  0.3492
  349MOL0     H46014  -0.680   3.857   5.694 -0.4849  1.9767 -0.3723
  349MOL0     H46015  -0.718   3.635   5.598 -0.1973 -0.8680  1.1754
  349MOL0     H46016  -0.575   3.629   5.696  0.8530  2.8513  0.4250
  349MOL0     H46017  -0.425   3.576   5.529  0.1607 -2.6324 -0.3799
  349MOL0     H46018  -0.569   3.482   5.502  2.0847  0.4267 -1.9609
  349MOL0     H46019  -0.470   3.567   5.293  1.5331  1.4056  0.4148
  349MOL0     H46020  -0.500   3.728   5.355 -2.2731  1.4691  0.3965
  349MOL0     H46021  -0.639   3.437   5.170  0.6977  0.9707 -2.0615
  349MOL0     H46022  -0.873   3.351   5.084 -2.2991 -1.4162  2.2009
  349MOL0     H46023  -0.902   3.503   4.989  0.7085 -0.2803 -0.0183
  349MOL0     H46024  -1.117   3.522   5.129 -1.9179 -1.5206  1.8413
  349MOL0     H46025  -1.065   3.382   5.216 -2.3860  0.8119 -0.9119
  349MOL0     H46026  -1.124   3.411   4.909  1.3986  2.3828  1.2193
  349MOL0     H46027  -1.061   3.265   4.981  1.8880  1.0046 -1.9751
  349MOL0     H46028  -1.301   3.245   4.954  1.0187  1.2559 -1.4163
  349MOL0     H46029  -1.331   3.374   5.071  0.6246 -0.8117  2.0626
  349MOL0     H46030  -1.493   3.184   5.027 -1.9805  0.0640  0.0441
  349MOL0     H46031  -1.665   3.008   5.093  0.6566 -1.2954 -1.1808
  349MOL0     H46032  -1.820   2.611   5.063 -0.3101  1.6803 -0.2540
  349MOL0     H46033  -2.003   2.442   5.085 -2.3038  1.2836 -2.7972
  349MOL0     H46034  -2.339   2.589   5.236 -2.5014  2.5654  3.6670
  349MOL0     H46035  -2.349   2.507   5.397 -0.2055 -1.0725 -0.5804
  349MOL0     H46036  -2.421   2.305   5.287  1.7834  1.1023  0.8626
  349MOL0     H46037  -2.396   2.378   5.131  0.2173 -2.0540 -0.5001
  349MOL0     H46038  -2.567   2.549   5.182 -1.2176  0.7550  1.7364
  349MOL0     H46039  -2.589   2.492   5.345  0.5760  0.4207  0.0219
  349MOL0     H46040  -2.633   2.309   5.116 -0.8575 -0.1396 -0.0968
  349MOL0     H46041  -2.658   2.268   5.280 -1.2369 -0.1293  0.6033
  349MOL0     H46042  -2.844   2.412   5.298 -2.0004 -1.0744 -0.9282
  349MOL0     H46043  -2.857   2.293   5.165 -1.5721 -0.9626  3.0334
  349MOL0     H46044  -2.774   2.505   5.024  1.6687  2.1898  1.1205
  349MOL0     H46045  -2.802   2.593   5.160 -0.5288  2.2339 -2.5430
  349MOL0     H46046  -3.025   2.528   5.193  0.3565 -2.1814  0.1392
  349MOL0     H46047  -2.997   2.622   5.040  0.3169  1.2772  2.3831
  349MOL0     H46048  -3.161   2.429   4.990  0.1215  0.5517 -2.5335
  349MOL0     H46049  -3.054   2.329   5.083 -1.1064 -2.8684 -2.8553
  349MOL0     H46050  -2.142   2.676   5.428  1.0916  1.6773 -0.4024
  349MOL0     H46051  -1.970   2.812   5.411 -0.3568 -2.0510  0.8775
  349MOL0     H46052  -1.415   2.873   5.412  2.1310  1.3774  0.8516
  349MOL0     H46053  -1.245   3.071   5.351 -0.2311 -0.5299  1.5917
  349MOL0     H46054  -0.216   4.038   6.041 -0.6729  0.0807 -0.9512
  349MOL0     H46055  -0.098   4.152   6.255  1.9138  1.5527  0.3375
  349MOL0     H46056   0.400   4.468   6.296  0.9279 -0.8966  0.7350
  349MOL0     H46057   0.483   4.618   6.447 -1.3209  1.7775  0.0328
  349MOL0     H46058   0.537   4.705   6.622 -0.5304  0.1236 -0.4164
  349MOL0     H46059   0.501   4.620   6.773  1.6341  0.3915  0.3383
  349MOL0     H46060   0.482   4.928   6.742 -0.6710 -0.8217 -0.9244
  349MOL0     H46061   0.456   4.846   6.892  1.4865 -1.6662  1.4710
  349MOL0     H46062   0.678   4.789   6.929 -1.3704  0.4908  0.1919
  349MOL0     H46063   0.669   4.952   6.854  1.4891 -0.2936  0.8696
  349MOL0     H46064   0.747   4.855   6.626  1.1593  0.8171  0.6838
  349MOL0     H46065   0.860   4.852   6.749  1.4137 -1.7387 -1.3313
  349MOL0     H46066   0.870   4.458   6.711 -0.9036 -0.8338  0.0613
  349MOL0     H46067   0.107   4.635   6.656  2.8471  0.1716  2.0183
  349MOL0     H46068   0.004   4.468   6.491  1.4536 -2.1092 -0.9631
  350MOL0     O46069  10.778   4.746   2.468  0.5033 -0.6789 -0.1545
  350MOL0     C46070  10.823   4.734   2.353 -0.0647 -0.7062  0.6397
  350MOL0     O46071  10.748   4.724   2.239  0.1659 -0.3312  0.7560
  350MOL0     C46072  10.613   4.730   2.270 -0.7508  0.0661  0.4395
  350MOL0     C46073  10.541   4.849   2.299  0.1313 -0.5180 -0.2533
  350MOL0     C46074  10.398   4.859   2.323 -0.4275  0.0598 -0.9617
  350MOL0     C46075  10.323   4.741   2.314  0.0209  0.5845 -0.1862
  350MOL0     O46076  10.187   4.746   2.330 -0.2623 -0.5196  0.4128
  350MOL0     C46077  10.150   4.794   2.459  0.0675 -0.5497  0.6713
  350MOL0     C46078  10.006   4.815   2.459 -0.7888  0.1857 -0.4159
  350MOL0     C46079   9.948   4.862   2.588  0.2045 -0.6937 -0.3389
  350MOL0     C46080   9.832   4.958   2.560  0.1741  0.1398 -0.3437
  350MOL0     C46081   9.777   5.013   2.693  0.0725 -0.0690 -1.4979
  350MOL0     C46082   9.627   5.036   2.689  0.5150 -0.0064 -0.1127
  350MOL0     C46083   9.605   5.153   2.595  0.0787  0.2141 -0.3957
  350MOL0     C46084   9.453   5.186   2.587 -1.0284  0.1373 -0.1451
  350MOL0     N46085   9.398   5.269   2.697  0.0602  0.4537  0.0998
  350MOL0     C46086   9.319   5.226   2.806 -0.5807  0.3245  1.6880
  350MOL0     C46087   9.287   5.337   2.868 -0.5122 -0.0644  0.1030
  350MOL0     C46088   9.202   5.338   3.003 -0.7254 -0.4166  1.1658
  350MOL0     C46089   9.050   5.342   2.965 -0.4578  0.3646  0.4662
  350MOL0     C46090   9.016   5.442   2.853  0.2471 -0.1688 -0.8783
  350MOL0     C46091   8.865   5.478   2.839  0.0984 -0.1273 -0.0656
  350MOL0     O46092   8.771   5.376   2.867  0.0786  0.3309 -0.1663
  350MOL0     C46093   8.642   5.414   2.856  0.4812  0.2457 -0.5822
  350MOL0     C46094   8.546   5.313   2.886  0.3139 -0.2548  1.0639
  350MOL0     C46095   8.406   5.329   2.870 -0.3848  0.2450  0.4107
  350MOL0     C46096   8.355   5.454   2.839  0.3792  0.4478  0.6521
  350MOL0     C46097   8.208   5.474   2.856  0.2739 -0.3117 -1.2943
  350MOL0     O46098   8.132   5.366   2.892 -0.2118 -0.4575  0.2817
  350MOL0     C46099   8.005   5.373   2.933 -0.2180  0.0344 -0.7821
  350MOL0     C46100   7.929   5.481   2.989  0.1210  0.0567  0.0349
  350MOL0     C46101   7.803   5.457   3.041  0.4807 -0.4682 -0.6759
  350MOL0     C46102   7.750   5.326   3.044 -0.6632 -0.5591  0.6870
  350MOL0     O46103   7.624   5.301   3.091 -0.3030 -0.5102  0.0116
  350MOL0     C46104   7.551   5.402   3.163 -0.3747  0.0693  0.1636
  350MOL0     C46105   7.413   5.347   3.199  0.6502  0.8630 -1.1528
  350MOL0     C46106   7.343   5.465   3.283 -0.8125 -0.2171  0.5516
  350MOL0     C46107   7.199   5.427   3.317  0.1415  0.2465 -0.1169
  350MOL0     C46108   7.133   5.521   3.414  0.3445 -0.2535  0.4134
  350MOL0     C46109   7.004   5.464   3.472 -0.2590 -0.2131  0.2778
  350MOL0     C46110   6.934   5.560   3.577  0.1135 -0.1454  0.3893
  350MOL0     C46111   6.905   5.696   3.502 -0.0619 -0.4391  0.0809
  350MOL0    Cl46112   6.764   5.769   3.573 -0.4094 -0.1099  0.1972
  350MOL0     C46113   7.819   5.225   2.982  0.5166 -1.1841  0.9425
  350MOL0     C46114   7.946   5.246   2.921 -0.9054 -0.2881  0.0916
  350MOL0     O46115   8.167   5.587   2.837 -0.3881  0.6428 -0.9442
  350MOL0     C46116   8.452   5.557   2.812  0.3098 -0.1912  0.3258
  350MOL0     C46117   8.589   5.531   2.820  0.1277  0.1052 -0.3324
  350MOL0     N46118   9.349   5.445   2.815  0.0980 -0.3990  0.8248
  350MOL0     N46119   9.424   5.399   2.719  0.2427  0.7271  0.1549
  350MOL0     C46120  10.393   4.626   2.270 -0.4458  0.4900 -0.3441
  350MOL0     C46121  10.531   4.618   2.250 -0.3402  0.3608  0.0519
  350MOL0     C46122  10.969   4.734   2.342  0.8868  1.1289 -0.6487
  350MOL0     C46123  11.031   4.718   2.211 -0.2638  0.7680 -0.2113
  350MOL0     C46124  11.169   4.715   2.200  1.1558 -0.1302  0.0035
  350MOL0     C46125  11.247   4.740   2.307 -0.0014 -0.5469  0.4455
  350MOL0     O46126  11.386   4.754   2.305  0.3246  0.2086 -0.3583
  350MOL0     C46127  11.460   4.732   2.186  0.0823  0.1784 -0.5588
  350MOL0     C46128  11.594   4.819   2.190  1.0241  0.3607  0.6444
  350MOL0     C46129  11.699   4.789   2.303  0.3668  0.2940  0.4325
  350MOL0     C46130  11.762   4.651   2.294  0.3101  0.4013  0.3805
  350MOL0     C46131  11.679   4.529   2.318  0.3904 -0.5940 -0.0461
  350MOL0     C46132  11.624   4.422   2.324  0.0164  0.2076 -0.5411
  350MOL0     C46133  11.192   4.758   2.435  0.6498  0.4094  0.6544
  350MOL0     C46134  11.052   4.755   2.447 -0.0745  0.2255  0.3514
  350MOL0     H46135  10.593   4.943   2.308 -0.9182 -0.0406  1.0711
  350MOL0     H46136  10.353   4.958   2.326  0.3992  0.5557 -2.9438
  350MOL0     H46137  10.202   4.884   2.492  1.4851 -0.8173 -0.7219
  350MOL0     H46138  10.191   4.721   2.529  3.1111  1.0627  0.7119
  350MOL0     H46139   9.958   4.720   2.435 -2.4814  0.7930  0.4189
  350MOL0     H46140   9.994   4.894   2.385  2.7003  2.3046  1.0401
  350MOL0     H46141  10.025   4.922   2.636  1.9528 -1.5139 -1.9825
  350MOL0     H46142   9.909   4.774   2.640  2.5217 -1.3394  0.4084
  350MOL0     H46143   9.870   5.032   2.489 -0.0861 -1.9630 -2.8055
  350MOL0     H46144   9.751   4.900   2.514  1.0128  0.3869 -2.2017
  350MOL0     H46145   9.840   5.095   2.729  3.1196 -1.5326 -3.1038
  350MOL0     H46146   9.793   4.935   2.768 -0.4832  1.5078  0.3419
  350MOL0     H46147   9.589   5.056   2.789 -1.0793 -0.5442 -0.5770
  350MOL0     H46148   9.579   4.945   2.650 -1.6629  0.6847  0.8112
  350MOL0     H46149   9.654   5.244   2.630 -0.9618  1.2709 -1.6059
  350MOL0     H46150   9.639   5.132   2.493 -2.0062 -0.1087 -1.0753
  350MOL0     H46151   9.395   5.093   2.579  0.0429 -0.4961 -0.8336
  350MOL0     H46152   9.433   5.244   2.496 -2.9368  0.9094  0.7011
  350MOL0     H46153   9.270   5.131   2.826 -2.1417  0.8279  0.4426
  350MOL0     H46154   9.239   5.430   3.050 -0.5515 -0.4316  1.0586
  350MOL0     H46155   9.218   5.251   3.067 -1.2587  0.3239  2.3405
  350MOL0     H46156   8.999   5.354   3.061 -0.4812 -0.4284  0.5599
  350MOL0     H46157   9.027   5.239   2.934  0.4924  0.5123 -0.8405
  350MOL0     H46158   9.071   5.530   2.888 -1.5208  0.0769  1.5076
  350MOL0     H46159   9.063   5.405   2.761  1.7007 -2.4605  0.7050
  350MOL0     H46160   8.848   5.510   2.736 -2.6056  0.2664  0.4202
  350MOL0     H46161   8.849   5.574   2.890 -0.0744  0.6869 -1.5951
  350MOL0     H46162   8.575   5.216   2.925 -0.2289 -0.3049  1.3576
  350MOL0     H46163   8.340   5.243   2.876 -0.0941 -0.0002  0.1392
  350MOL0     H46164   7.967   5.583   2.992 -0.1548  0.1854 -0.7059
  350MOL0     H46165   7.742   5.535   3.085 -1.8957 -2.4030 -0.3515
  350MOL0     H46166   7.530   5.499   3.117 -1.5729 -0.5411 -0.6467
  350MOL0     H46167   7.606   5.420   3.256  0.7424 -1.0243 -0.2632
  350MOL0     H46168   7.434   5.269   3.273  1.3645  1.7727 -0.3754
  350MOL0     H46169   7.353   5.299   3.121 -0.4208 -1.7769  1.0828
  350MOL0     H46170   7.327   5.552   3.220  1.4980  1.9154  2.6928
  350MOL0     H46171   7.402   5.499   3.369  1.1077  1.6816 -1.4337
  350MOL0     H46172   7.135   5.412   3.230 -0.3936  2.3059 -0.1176
  350MOL0     H46173   7.211   5.330   3.365 -1.1367 -1.8547 -3.6319
  350MOL0     H46174   7.114   5.621   3.373 -1.6397  0.0826  2.0268
  350MOL0     H46175   7.194   5.548   3.501  1.0869  1.7397 -0.6555
  350MOL0     H46176   7.018   5.364   3.513 -1.1125 -2.0579 -3.4651
  350MOL0     H46177   6.929   5.428   3.401 -0.5441  0.4045  0.2548
  350MOL0     H46178   6.839   5.514   3.606  0.3677  0.3931  2.1924
  350MOL0     H46179   6.995   5.563   3.668  1.2381 -0.5507 -0.3305
  350MOL0     H46180   6.898   5.676   3.395 -1.4918  4.3027 -0.9517
  350MOL0     H46181   6.986   5.767   3.522  1.0856 -1.0754 -2.0262
  350MOL0     H46182   7.762   5.133   2.979 -0.1408 -0.7575  0.0891
  350MOL0     H46183   8.001   5.170   2.866 -0.8709  0.2269 -0.5970
  350MOL0     H46184   8.417   5.652   2.773 -2.3410 -2.0112 -2.1402
  350MOL0     H46185   8.660   5.607   2.785  0.3731 -0.7991 -1.9046
  350MOL0     H46186  10.346   4.530   2.255  1.5904 -1.1000  2.4427
  350MOL0     H46187  10.562   4.516   2.231 -1.2123 -0.5651  2.9983
  350MOL0     H46188  10.962   4.697   2.130  1.5732  1.7040 -2.1539
  350MOL0     H46189  11.206   4.701   2.099  0.0736  5.4835 -1.5448
  350MOL0     H46190  11.410   4.760   2.093 -3.4068 -5.7173 -0.9539
  350MOL0     H46191  11.492   4.628   2.174  1.2534  0.5264 -0.5849
  350MOL0     H46192  11.652   4.819   2.097  2.6904  3.6034  1.5011
  350MOL0     H46193  11.556   4.920   2.212  1.7739  0.1626  3.1444
  350MOL0     H46194  11.653   4.794   2.402 -0.6808  0.4548 -0.0602
  350MOL0     H46195  11.770   4.872   2.295 -0.3592  0.8013 -1.0271
  350MOL0     H46196  11.804   4.635   2.195  1.2426 -3.9416  1.2328
  350MOL0     H46197  11.837   4.653   2.374 -0.8989 -0.7950  1.6085
  350MOL0     H46198  11.564   4.333   2.322  0.6503 -0.2817  0.8466
  350MOL0     H46199  11.258   4.789   2.516  1.2400  0.5868  0.1117
  350MOL0     H46200  11.014   4.764   2.548 -0.0174 -1.4164  0.5518
  351MOL0     O46201   2.377   1.895   5.845 -1.2212  0.0264 -0.9552
  351MOL0     C46202   2.429   1.791   5.886 -0.7208  0.0098  0.4976
  351MOL0     O46203   2.372   1.664   5.888 -0.8880 -0.0476 -0.5697
  351MOL0     C46204   2.234   1.659   5.857  0.4366 -0.0319 -0.2826
  351MOL0     C46205   2.146   1.661   5.969  0.3024  0.0246 -0.8995
  351MOL0     C46206   2.010   1.640   5.944  0.6184  0.3001  0.2897
  351MOL0     C46207   1.959   1.646   5.807 -0.4496 -0.0974 -1.7112
  351MOL0     O46208   1.825   1.641   5.778 -0.3105 -0.0711  1.0933
  351MOL0     C46209   1.743   1.580   5.879 -1.2277  0.0265 -0.1650
  351MOL0     C46210   1.607   1.560   5.819 -0.2882  0.3095 -0.0892
  351MOL0     C46211   1.510   1.500   5.928  0.4470 -0.8461 -0.3938
  351MOL0     C46212   1.369   1.479   5.873 -1.3419 -0.5292 -0.5375
  351MOL0     C46213   1.272   1.427   5.972  0.4363 -0.0919  0.1798
  351MOL0     C46214   1.129   1.428   5.901 -1.1679  0.4448  0.2121
  351MOL0     C46215   1.028   1.378   5.988  0.4244 -0.1212  0.7041
  351MOL0     C46216   1.010   1.232   5.953  0.9762 -0.3049 -0.6643
  351MOL0     N46217   0.877   1.184   6.008 -0.4724 -0.3317  0.3978
  351MOL0     C46218   0.836   1.195   6.141  0.2036  0.2348 -0.7281
  351MOL0     C46219   0.707   1.149   6.142  0.0494 -0.0959 -0.1722
  351MOL0     C46220   0.623   1.143   6.270  0.2485  0.8152 -0.5011
  351MOL0     C46221   0.683   1.034   6.368 -0.6691 -1.0752  0.5602
  351MOL0     C46222   0.593   0.992   6.487 -0.6189 -0.3577  0.6253
  351MOL0     C46223   0.665   0.876   6.551 -0.1360  0.1149 -0.3049
  351MOL0     O46224   0.799   0.890   6.597  0.0132 -0.9042  0.3181
  351MOL0     C46225   0.852   0.828   6.705 -0.3277 -0.6905 -0.1931
  351MOL0     C46226   0.963   0.878   6.764 -0.0706  0.6216 -0.8996
  351MOL0     C46227   1.015   0.821   6.887  0.2860 -0.9828  0.8603
  351MOL0     C46228   0.961   0.701   6.947 -0.0894 -0.3679 -0.0101
  351MOL0     C46229   1.016   0.641   7.060 -0.1046  0.6156 -0.6551
  351MOL0     O46230   1.086   0.729   7.128 -0.7034  0.0567  0.2511
  351MOL0     C46231   1.160   0.689   7.236  0.7894 -0.3051  0.2196
  351MOL0     C46232   1.298   0.654   7.214  0.5001 -0.2910 -0.8467
  351MOL0     C46233   1.358   0.602   7.331  0.4007  0.0800  0.2337
  351MOL0     C46234   1.308   0.587   7.454 -0.4935 -1.0225 -0.9301
  351MOL0     O46235   1.386   0.535   7.558 -0.6368 -1.0223  0.8900
  351MOL0     C46236   1.486   0.635   7.596 -0.3333  0.3090 -0.4037
  351MOL0     C46237   1.535   0.609   7.744  0.8475 -0.3312  0.1525
  351MOL0     C46238   1.650   0.695   7.798  0.1276 -0.9682  0.9186
  351MOL0     C46239   1.706   0.639   7.925  0.0951  0.7963  0.1025
  351MOL0     C46240   1.831   0.704   7.981 -0.2879  0.0880  0.0439
  351MOL0     C46241   1.863   0.657   8.119  1.0135 -0.1789 -0.5188
  351MOL0     C46242   1.977   0.739   8.187  0.3714  1.2113 -0.6838
  351MOL0     C46243   2.034   0.659   8.315 -0.3641  0.3549  0.5426
  351MOL0    Cl46244   2.135   0.773   8.414 -0.3030 -0.3036 -0.3467
  351MOL0     C46245   1.180   0.637   7.475 -0.0222  0.4281  0.0595
  351MOL0     C46246   1.109   0.691   7.367  0.1353  0.3373  0.7329
  351MOL0     O46247   0.999   0.527   7.097 -0.7601  0.2870 -0.1206
  351MOL0     C46248   0.857   0.649   6.877  1.0505  0.1577 -0.4946
  351MOL0     C46249   0.806   0.710   6.759  0.3891  0.9602  0.0138
  351MOL0     N46250   0.672   1.113   6.012 -0.1272  0.6683 -0.6571
  351MOL0     N46251   0.773   1.139   5.939 -0.2083  0.6019  0.9691
  351MOL0     C46252   2.046   1.645   5.697  0.2616 -0.3862  0.2147
  351MOL0     C46253   2.187   1.650   5.730  0.8871 -0.1700  0.2892
  351MOL0     C46254   2.576   1.799   5.921  0.0600  0.6955  0.2504
  351MOL0     C46255   2.653   1.684   5.934 -0.3782 -0.1146  0.4581
  351MOL0     C46256   2.794   1.699   5.966  0.0607  0.3349  0.0554
  351MOL0     C46257   2.850   1.824   5.977 -0.6992  0.1109 -0.7647
  351MOL0     O46258   2.987   1.850   6.015  0.6301  0.4959 -0.7625
  351MOL0     C46259   3.069   1.738   6.047 -1.4805 -0.5115 -0.0736
  351MOL0     C46260   3.209   1.781   6.044 -0.8655 -0.2934  0.1545
  351MOL0     C46261   3.303   1.672   6.072  0.9368  0.0984 -0.6976
  351MOL0     C46262   3.450   1.719   6.061  0.1457  0.0566  0.9822
  351MOL0     C46263   3.548   1.611   6.099  0.8711  0.2700  0.3018
  351MOL0     C46264   3.628   1.526   6.110 -0.7813 -0.3549 -0.5115
  351MOL0     C46265   2.774   1.932   5.965  0.1620 -0.7968 -0.5033
  351MOL0     C46266   2.633   1.922   5.946 -0.1989  0.1069  0.2164
  351MOL0     H46267   2.190   1.659   6.068 -0.1391 -1.2372 -0.7070
  351MOL0     H46268   1.952   1.630   6.036  1.9388  4.8056  1.8987
  351MOL0     H46269   1.734   1.644   5.968 -0.5027 -0.5179  0.3094
  351MOL0     H46270   1.794   1.485   5.895 -2.2373 -0.5943 -0.5337
  351MOL0     H46271   1.622   1.487   5.738 -0.1513  0.4571 -0.1967
  351MOL0     H46272   1.570   1.652   5.774  1.7835  0.6847 -1.1409
  351MOL0     H46273   1.509   1.570   6.012 -0.2104  0.3306 -1.3495
  351MOL0     H46274   1.544   1.405   5.971  0.4034 -0.4171  0.6083
  351MOL0     H46275   1.330   1.576   5.841 -1.3821  0.3455  1.8852
  351MOL0     H46276   1.362   1.415   5.785  1.3713 -1.7715  0.0178
  351MOL0     H46277   1.275   1.488   6.063 -0.8594  0.1391  0.0904
  351MOL0     H46278   1.294   1.323   5.997 -0.9441  0.3574  3.7859
  351MOL0     H46279   1.137   1.378   5.804  0.3155  0.7362  0.1564
  351MOL0     H46280   1.094   1.529   5.879  1.8212  1.6093  0.3280
  351MOL0     H46281   1.057   1.367   6.093  1.5016  0.2531  0.4544
  351MOL0     H46282   0.941   1.444   5.988  3.2312  3.9011  0.7113
  351MOL0     H46283   1.083   1.160   5.990 -1.3083 -1.2643  2.3713
  351MOL0     H46284   0.991   1.214   5.847 -1.7142  0.0806 -0.3275
  351MOL0     H46285   0.885   1.237   6.228  0.5192  1.9260 -1.6607
  351MOL0     H46286   0.525   1.103   6.244  0.2029 -0.4581  1.4130
  351MOL0     H46287   0.620   1.236   6.326  0.9993  0.0639  0.8438
  351MOL0     H46288   0.781   1.077   6.392 -0.0467 -0.8251 -2.0476
  351MOL0     H46289   0.688   0.944   6.305 -1.2383  0.3448 -1.6639
  351MOL0     H46290   0.586   1.075   6.558  2.2659 -0.1006  0.7346
  351MOL0     H46291   0.497   0.967   6.440  0.3433 -1.3997 -0.8650
  351MOL0     H46292   0.667   0.789   6.484 -3.0272  0.4901 -1.0113
  351MOL0     H46293   0.608   0.852   6.641 -0.5883  0.1691 -0.5732
  351MOL0     H46294   1.001   0.964   6.710 -1.4708  0.8164 -1.5935
  351MOL0     H46295   1.102   0.869   6.928  1.4269 -0.4390 -1.9611
  351MOL0     H46296   1.335   0.665   7.112 -1.8355  0.6616 -1.6415
  351MOL0     H46297   1.452   0.549   7.318  1.4489  1.2609  2.4397
  351MOL0     H46298   1.439   0.733   7.605  1.9724  1.4667 -0.3235
  351MOL0     H46299   1.572   0.638   7.528  0.7361  2.5659  0.9751
  351MOL0     H46300   1.559   0.502   7.745  0.3590 -0.4519 -0.3265
  351MOL0     H46301   1.446   0.625   7.806  1.6722 -1.0605  1.5622
  351MOL0     H46302   1.608   0.795   7.811  0.8844 -0.4622 -0.3276
  351MOL0     H46303   1.725   0.714   7.721 -2.4285  0.5279 -1.3632
  351MOL0     H46304   1.621   0.642   7.994 -2.4282 -0.7106 -2.7280
  351MOL0     H46305   1.735   0.534   7.915  2.7474  1.4323  0.4645
  351MOL0     H46306   1.819   0.813   7.976  0.4314  0.1513 -0.4946
  351MOL0     H46307   1.919   0.687   7.917 -0.4211  0.8637 -0.3555
  351MOL0     H46308   1.870   0.550   8.141  3.8054 -0.1044 -0.6508
  351MOL0     H46309   1.770   0.679   8.172  0.5576  0.1199 -1.4194
  351MOL0     H46310   2.056   0.753   8.112  0.9643 -1.5078 -0.6411
  351MOL0     H46311   1.946   0.838   8.222  1.9443  1.3578  0.4195
  351MOL0     H46312   2.093   0.569   8.297 -1.8151 -0.5640  0.1921
  351MOL0     H46313   1.943   0.630   8.369 -0.2342  2.8669  2.2647
  351MOL0     H46314   1.150   0.620   7.578  1.4319  1.0489  0.6236
  351MOL0     H46315   1.010   0.731   7.388  0.0051  0.2604  0.2720
  351MOL0     H46316   0.810   0.565   6.928  0.7772  0.9539  0.6040
  351MOL0     H46317   0.730   0.651   6.708  1.5578  1.3709 -2.3370
  351MOL0     H46318   2.001   1.653   5.599 -2.2283  0.7276  1.3382
  351MOL0     H46319   2.259   1.657   5.649  3.6178 -0.7343  2.5166
  351MOL0     H46320   2.597   1.595   5.907 -0.5232 -0.4424  1.7881
  351MOL0     H46321   2.849   1.609   5.992 -1.1021  0.3232  2.9526
  351MOL0     H46322   3.057   1.662   5.970 -0.2338  1.7451 -2.6771
  351MOL0     H46323   3.038   1.696   6.143  0.8663  1.4386  1.6604
  351MOL0     H46324   3.248   1.822   5.950  1.6859 -1.1685  0.7451
  351MOL0     H46325   3.215   1.857   6.123  0.4803  0.5279 -0.6872
  351MOL0     H46326   3.274   1.589   6.006 -1.1332 -0.4750  0.8236
  351MOL0     H46327   3.285   1.628   6.171  4.3534  0.4348  0.1839
  351MOL0     H46328   3.479   1.750   5.960  1.9599 -2.7342  0.5293
  351MOL0     H46329   3.461   1.808   6.123 -3.5396  1.4634 -0.1074
  351MOL0     H46330   3.698   1.446   6.125  0.5201  1.0879  1.6840
  351MOL0     H46331   2.817   2.032   5.962  0.1426 -0.7773 -0.2326
  351MOL0     H46332   2.566   2.004   5.924  0.9985  0.7571 -1.1988
  352MOL0     O46333   0.412   7.041   5.996 -0.4965 -0.3099 -0.0703
  352MOL0     C46334   0.426   7.150   5.936  0.5007 -0.1888 -0.2095
  352MOL0     O46335   0.338   7.187   5.837  0.1025 -0.1301  0.3348
  352MOL0     C46336   0.223   7.117   5.796 -0.1607 -0.5291  0.3573
  352MOL0     C46337   0.169   7.160   5.664 -0.5241 -0.8817  0.5831
  352MOL0     C46338   0.049   7.097   5.625 -1.0497  0.0180  0.8579
  352MOL0     C46339  -0.016   7.004   5.708  0.2381  0.0524 -0.5499
  352MOL0     O46340  -0.146   6.968   5.669 -0.2411 -0.1462  0.1147
  352MOL0     C46341  -0.225   6.876   5.751 -0.6912 -0.0798 -0.5583
  352MOL0     C46342  -0.352   6.851   5.669 -0.4509 -0.0401 -0.0846
  352MOL0     C46343  -0.437   6.747   5.740  0.1462 -1.4959 -0.3435
  352MOL0     C46344  -0.565   6.722   5.654 -0.5913 -0.4601 -0.3737
  352MOL0     C46345  -0.667   6.634   5.725  0.1460 -0.6402 -1.2063
  352MOL0     C46346  -0.745   6.699   5.846 -0.6373  0.0099 -1.0319
  352MOL0     C46347  -0.803   6.603   5.959 -1.2098 -0.4372 -0.0835
  352MOL0     C46348  -0.827   6.454   5.926 -0.0713  0.4618  0.5088
  352MOL0     N46349  -0.914   6.383   6.024  0.9763  0.4014  0.1126
  352MOL0     C46350  -1.011   6.304   5.979  0.0970 -0.5078 -0.3845
  352MOL0     C46351  -1.060   6.239   6.088  0.0950  0.8405 -0.2097
  352MOL0     C46352  -1.168   6.126   6.090  0.6911  0.6889  0.1263
  352MOL0     C46353  -1.315   6.178   6.062  0.0379  0.0688  0.3435
  352MOL0     C46354  -1.410   6.095   6.141 -0.0375 -1.0025 -1.0005
  352MOL0     C46355  -1.563   6.132   6.137 -0.3020 -0.4626  0.1240
  352MOL0     O46356  -1.654   6.025   6.148 -0.8397 -1.2002  0.0354
  352MOL0     C46357  -1.791   6.041   6.154  0.4730 -0.0416 -0.0449
  352MOL0     C46358  -1.854   6.159   6.175  0.7938 -0.2875  0.1338
  352MOL0     C46359  -1.991   6.168   6.187 -0.3868 -0.5614 -0.0621
  352MOL0     C46360  -2.069   6.043   6.178  0.7587  0.2911  0.4241
  352MOL0     C46361  -2.215   6.051   6.178  0.2430  0.2400 -0.4047
  352MOL0     O46362  -2.277   6.174   6.207  0.4054 -0.0014  0.1168
  352MOL0     C46363  -2.408   6.166   6.174  0.1358 -0.3138  0.3720
  352MOL0     C46364  -2.517   6.124   6.255 -0.6024  0.2772 -0.3875
  352MOL0     C46365  -2.648   6.111   6.197 -0.6134 -0.2801 -0.4367
  352MOL0     C46366  -2.672   6.158   6.070  0.1050  0.4165  0.1667
  352MOL0     O46367  -2.798   6.157   6.009 -0.1222 -0.1573  1.1615
  352MOL0     C46368  -2.921   6.124   6.072 -0.1699 -0.1650  0.1917
  352MOL0     C46369  -2.927   5.973   6.073 -0.3004  0.3485  0.0922
  352MOL0     C46370  -2.962   5.905   5.938  0.5197  1.1985 -0.3506
  352MOL0     C46371  -3.095   5.951   5.883  0.0973  0.7156 -0.0542
  352MOL0     C46372  -3.211   5.943   5.972  0.2574 -0.6049 -0.3639
  352MOL0     C46373  -3.337   5.994   5.901 -0.5036  0.7468 -0.8025
  352MOL0     C46374  -3.406   5.909   5.787 -0.2540  0.6592 -0.0034
  352MOL0     C46375  -3.462   5.990   5.666 -0.0007 -0.7114 -0.3770
  352MOL0    Cl46376  -3.591   5.891   5.583 -0.4905 -0.1999 -0.7468
  352MOL0     C46377  -2.568   6.213   6.000 -0.6062 -0.8804 -0.2492
  352MOL0     C46378  -2.439   6.215   6.045 -0.3493 -0.5433  0.2812
  352MOL0     O46379  -2.269   5.948   6.134 -0.9364 -0.4207 -0.8966
  352MOL0     C46380  -1.993   5.928   6.155  0.4018  0.6758 -0.3851
  352MOL0     C46381  -1.858   5.927   6.151 -0.0507  0.6549  0.4159
  352MOL0     N46382  -1.007   6.287   6.199  0.0398 -0.3167  0.0233
  352MOL0     N46383  -0.912   6.372   6.161  1.6669 -0.0231  0.2335
  352MOL0     C46384   0.034   6.968   5.830 -0.4397 -0.0534  0.9878
  352MOL0     C46385   0.153   7.017   5.866 -0.8968  0.4856  0.3945
  352MOL0     C46386   0.525   7.245   5.967 -0.6047 -0.6700 -0.7691
  352MOL0     C46387   0.556   7.359   5.883 -0.5829  0.2911  0.0361
  352MOL0     C46388   0.657   7.458   5.908  0.6884 -0.1481  0.0272
  352MOL0     C46389   0.711   7.465   6.039  0.2953  0.2522 -0.5910
  352MOL0     O46390   0.799   7.555   6.091  0.2001 -0.6223  0.5813
  352MOL0     C46391   0.826   7.661   5.995 -0.7958 -0.2403  0.3139
  352MOL0     C46392   0.888   7.783   6.067  1.2156 -0.4136  0.4487
  352MOL0     C46393   0.780   7.869   6.135 -0.0968 -0.3781 -0.2151
  352MOL0     C46394   0.852   7.996   6.183  0.0555 -0.2688 -0.1139
  352MOL0     C46395   0.762   8.086   6.250  0.4179 -0.7827 -0.3437
  352MOL0     C46396   0.705   8.156   6.332 -0.3232 -0.2645 -0.7354
  352MOL0     C46397   0.675   7.364   6.129 -0.2664  0.2412 -0.7008
  352MOL0     C46398   0.590   7.252   6.097  0.1960 -0.6916  0.1956
  352MOL0     H46399   0.220   7.239   5.609 -2.1620 -0.0080  0.2564
  352MOL0     H46400  -0.002   7.127   5.534 -0.4931  1.6591  1.0501
  352MOL0     H46401  -0.248   6.905   5.854  0.2761 -2.7712  0.4846
  352MOL0     H46402  -0.162   6.787   5.753  1.6212  1.4551 -0.9834
  352MOL0     H46403  -0.318   6.817   5.570  0.1567  3.8757 -1.3957
  352MOL0     H46404  -0.411   6.942   5.653 -3.2101 -1.7160 -0.1128
  352MOL0     H46405  -0.459   6.780   5.842 -1.9281 -1.3566 -0.8004
  352MOL0     H46406  -0.377   6.656   5.751  0.4072 -1.0132  3.6351
  352MOL0     H46407  -0.613   6.819   5.637  1.6672  1.1769  1.9152
  352MOL0     H46408  -0.540   6.675   5.558  0.9256  2.9244 -1.8023
  352MOL0     H46409  -0.616   6.546   5.765 -0.7192 -0.2975  0.7372
  352MOL0     H46410  -0.740   6.607   5.647  0.9144 -0.0945 -2.1265
  352MOL0     H46411  -0.837   6.738   5.801 -2.7076 -2.7758  0.4645
  352MOL0     H46412  -0.695   6.778   5.902 -2.6005 -0.0538  0.9746
  352MOL0     H46413  -0.737   6.617   6.044 -1.0359 -2.3195  0.1340
  352MOL0     H46414  -0.901   6.647   5.980 -0.7036 -0.0083  1.5023
  352MOL0     H46415  -0.727   6.410   5.924 -0.3176 -0.0876  0.1548
  352MOL0     H46416  -0.864   6.444   5.823 -0.2650 -2.2552  0.7904
  352MOL0     H46417  -1.023   6.276   5.875 -0.1452 -2.3641  0.1018
  352MOL0     H46418  -1.165   6.084   6.191 -1.0388 -2.0770 -0.8733
  352MOL0     H46419  -1.155   6.043   6.021  1.6165  0.9525 -0.0342
  352MOL0     H46420  -1.344   6.174   5.956 -1.7637  0.9334  0.7633
  352MOL0     H46421  -1.333   6.285   6.073 -1.7584  0.3429 -3.4635
  352MOL0     H46422  -1.413   5.995   6.096 -1.8968 -1.2364 -0.4723
  352MOL0     H46423  -1.380   6.097   6.246  1.4492 -0.5379 -1.4124
  352MOL0     H46424  -1.584   6.185   6.044 -0.9883  0.6218  0.8626
  352MOL0     H46425  -1.582   6.209   6.213  0.1381 -1.6910  1.5374
  352MOL0     H46426  -1.799   6.251   6.195 -1.8846  1.2823  0.8478
  352MOL0     H46427  -2.036   6.262   6.217  3.8688  1.3883  0.9409
  352MOL0     H46428  -2.499   6.085   6.355 -1.5609 -2.1677 -1.0758
  352MOL0     H46429  -2.720   6.066   6.264  1.0554 -0.6402  1.1899
  352MOL0     H46430  -3.016   6.170   6.040 -0.5309  1.4145  3.1693
  352MOL0     H46431  -2.918   6.175   6.169 -0.3779 -1.7997  1.1041
  352MOL0     H46432  -3.011   5.950   6.139 -1.4076 -2.8609 -2.2133
  352MOL0     H46433  -2.833   5.933   6.112  1.0760  1.8767 -1.5229
  352MOL0     H46434  -2.971   5.796   5.947 -0.5277  1.2010 -1.1379
  352MOL0     H46435  -2.893   5.934   5.858  0.0895 -2.8039 -2.4113
  352MOL0     H46436  -3.084   6.056   5.852  4.0669  0.4558 -0.0650
  352MOL0     H46437  -3.113   5.886   5.797  3.0286 -3.9274  2.4299
  352MOL0     H46438  -3.195   6.003   6.062 -0.6147 -0.6366 -0.1724
  352MOL0     H46439  -3.232   5.841   6.005  0.1928  0.2092  2.3419
  352MOL0     H46440  -3.316   6.095   5.864 -0.6408  1.2997  0.5864
  352MOL0     H46441  -3.408   6.000   5.984  2.6863 -0.1315  2.2407
  352MOL0     H46442  -3.335   5.836   5.748  0.0813  1.3436 -0.7061
  352MOL0     H46443  -3.478   5.849   5.843  0.2544 -1.7450 -1.7784
  352MOL0     H46444  -3.385   6.016   5.593 -1.6417  1.1266 -1.5540
  352MOL0     H46445  -3.503   6.086   5.698  3.1346  1.9364 -3.4743
  352MOL0     H46446  -2.595   6.260   5.906 -0.5411 -1.4137 -0.5387
  352MOL0     H46447  -2.357   6.256   5.988 -0.9563 -1.4237 -1.3238
  352MOL0     H46448  -2.047   5.836   6.137 -0.9612  1.4176 -0.1651
  352MOL0     H46449  -1.806   5.833   6.137 -1.3302 -0.0136  0.0728
  352MOL0     H46450  -0.025   6.917   5.905 -1.2894 -0.4839  0.0557
  352MOL0     H46451   0.191   7.004   5.967 -3.9532 -0.7641  1.4895
  352MOL0     H46452   0.508   7.370   5.786 -1.8424 -0.7542  0.5177
  352MOL0     H46453   0.681   7.533   5.833  0.3210 -0.4503 -0.3943
  352MOL0     H46454   0.734   7.690   5.944 -2.1184 -2.0441  1.5652
  352MOL0     H46455   0.898   7.610   5.930 -2.7315 -1.9193 -0.6275
  352MOL0     H46456   0.975   7.763   6.131  1.1801  2.7414  1.6638
  352MOL0     H46457   0.927   7.842   5.984 -0.1946  0.2810  0.2489
  352MOL0     H46458   0.732   7.819   6.220 -0.2451  0.4207  0.1898
  352MOL0     H46459   0.700   7.900   6.068  1.0226 -2.4092 -2.6255
  352MOL0     H46460   0.930   7.966   6.254  0.1982 -1.0962 -0.6143
  352MOL0     H46461   0.889   8.049   6.095 -0.3778  1.5552  0.7565
  352MOL0     H46462   0.671   8.200   6.424 -0.9832 -2.7226  0.2918
  352MOL0     H46463   0.723   7.369   6.226 -1.3951  0.8060 -0.1507
  352MOL0     H46464   0.579   7.180   6.178  1.0677 -1.0988 -0.0357
  353MOL0     O46465   6.372   7.872   7.065 -0.6158  0.2160 -0.2453
  353MOL0     C46466   6.406   7.765   7.012  0.3683 -0.3323  0.0597
  353MOL0     O46467   6.328   7.653   7.009 -0.4261 -0.3976 -0.2815
  353MOL0     C46468   6.225   7.654   7.099 -0.1668 -0.3314  0.6695
  353MOL0     C46469   6.219   7.547   7.185  0.4436  0.0317  0.4572
  353MOL0     C46470   6.108   7.531   7.273  0.1265  1.0892 -0.1105
  353MOL0     C46471   6.001   7.618   7.268  0.8305  0.1008 -0.0118
  353MOL0     O46472   5.898   7.594   7.354 -0.8517  0.7077 -0.5062
  353MOL0     C46473   5.780   7.550   7.281 -0.0535  0.6343 -1.2449
  353MOL0     C46474   5.811   7.407   7.235 -0.4381  0.1498  0.9770
  353MOL0     C46475   5.694   7.340   7.161 -0.0112  0.1439  0.0454
  353MOL0     C46476   5.571   7.326   7.242 -0.3131  0.1763 -0.5306
  353MOL0     C46477   5.478   7.204   7.217  0.5740 -0.6202 -0.5767
  353MOL0     C46478   5.347   7.206   7.298  0.2771 -0.3315 -0.9583
  353MOL0     C46479   5.261   7.333   7.273  0.1707 -0.0688  0.4986
  353MOL0     C46480   5.108   7.302   7.273 -0.7412  0.5050 -0.5758
  353MOL0     N46481   5.060   7.285   7.407  0.3409  0.1912 -0.3528
  353MOL0     C46482   5.017   7.389   7.480 -0.0361  0.5495 -0.1714
  353MOL0     C46483   4.951   7.331   7.589  0.3388 -0.2790 -0.4600
  353MOL0     C46484   4.858   7.405   7.688 -0.1763  0.8078 -0.6301
  353MOL0     C46485   4.794   7.520   7.611  1.0402 -0.4832 -0.0015
  353MOL0     C46486   4.694   7.577   7.713  0.4796 -0.4772 -0.0848
  353MOL0     C46487   4.596   7.678   7.639 -1.3338 -0.4123  0.7873
  353MOL0     O46488   4.508   7.732   7.735 -0.0452  0.0096 -0.0840
  353MOL0     C46489   4.381   7.674   7.730  0.9586  0.4106 -1.0818
  353MOL0     C46490   4.339   7.550   7.664  0.6876 -1.0578 -0.9647
  353MOL0     C46491   4.202   7.512   7.672 -0.5331  0.3890 -0.3294
  353MOL0     C46492   4.106   7.603   7.726 -0.4577  0.5630  0.4116
  353MOL0     C46493   3.965   7.566   7.740 -0.3063 -0.3874 -0.2765
  353MOL0     O46494   3.884   7.657   7.803 -0.1012 -1.0954  0.2677
  353MOL0     C46495   3.747   7.631   7.804 -0.1453  0.5972 -1.4622
  353MOL0     C46496   3.656   7.612   7.700  0.6155 -0.8850 -0.7761
  353MOL0     C46497   3.527   7.564   7.725 -0.2389 -0.0365  0.4936
  353MOL0     C46498   3.479   7.541   7.852 -0.0035 -0.3647 -1.2142
  353MOL0     O46499   3.359   7.475   7.871  0.2398 -0.4813  0.5217
  353MOL0     C46500   3.282   7.430   7.756 -0.6030 -0.9101  0.2622
  353MOL0     C46501   3.176   7.328   7.788 -0.5540  0.5406 -0.3281
  353MOL0     C46502   3.099   7.376   7.915 -0.0530 -0.4399  0.1397
  353MOL0     C46503   2.959   7.328   7.929  0.2910 -0.8559 -0.4995
  353MOL0     C46504   2.940   7.178   7.958 -0.2399 -0.8490  0.1530
  353MOL0     C46505   2.822   7.159   8.052  0.5126 -0.4200 -0.1028
  353MOL0     C46506   2.785   7.010   8.070  0.5465  0.1301  0.2082
  353MOL0     C46507   2.646   6.998   8.146 -0.5019  0.3777  0.4123
  353MOL0    Cl46508   2.614   6.829   8.187  0.0120 -0.3601  0.1588
  353MOL0     C46509   3.560   7.559   7.959  0.2561 -0.4024 -0.4259
  353MOL0     C46510   3.697   7.598   7.937  0.6434  0.0259  0.4212
  353MOL0     O46511   3.929   7.456   7.705 -0.0765 -0.0962  0.1509
  353MOL0     C46512   4.147   7.723   7.775 -0.0893 -0.3904  0.8291
  353MOL0     C46513   4.281   7.750   7.794  0.3342  0.3000  0.6592
  353MOL0     N46514   4.958   7.197   7.582 -0.2942  1.6109 -0.6747
  353MOL0     N46515   5.023   7.169   7.467  0.7337  0.0345 -0.0970
  353MOL0     C46516   5.996   7.721   7.168 -0.7831  0.3859  0.0772
  353MOL0     C46517   6.116   7.741   7.088 -0.0626 -0.0282 -0.3654
  353MOL0     C46518   6.519   7.769   6.922 -0.4467 -0.1786  0.0071
  353MOL0     C46519   6.623   7.866   6.942 -0.2601 -0.2992  0.5724
  353MOL0     C46520   6.735   7.862   6.859  0.3334 -0.0672  0.5861
  353MOL0     C46521   6.746   7.779   6.749  0.4390 -0.2566  0.6131
  353MOL0     O46522   6.856   7.786   6.679 -0.4409 -0.3073  0.2135
  353MOL0     C46523   6.880   7.683   6.580  0.8635  0.2928  0.3871
  353MOL0     C46524   7.027   7.651   6.553 -0.1570  0.5355  0.4546
  353MOL0     C46525   7.033   7.577   6.419  0.3578  0.2318 -0.6563
  353MOL0     C46526   7.160   7.506   6.418 -0.4890  0.7008 -0.2009
  353MOL0     C46527   7.169   7.442   6.288 -0.4095  0.2511  0.5661
  353MOL0     C46528   7.183   7.375   6.184 -0.4077  0.4922  0.3597
  353MOL0     C46529   6.637   7.685   6.732 -1.1636  0.1502  0.1400
  353MOL0     C46530   6.530   7.684   6.815  0.5057  0.0033 -0.4927
  353MOL0     H46531   6.302   7.478   7.172 -1.4222 -1.7874 -3.3684
  353MOL0     H46532   6.125   7.451   7.345  1.0275 -1.8382 -3.3027
  353MOL0     H46533   5.767   7.616   7.195  2.2821  0.8617 -1.4928
  353MOL0     H46534   5.695   7.547   7.349 -2.7210  2.9330 -4.1948
  353MOL0     H46535   5.842   7.345   7.319  2.2215  0.1133  0.0728
  353MOL0     H46536   5.903   7.399   7.175 -1.0048 -2.6557  0.3405
  353MOL0     H46537   5.727   7.239   7.138 -0.1648  0.8086 -3.6918
  353MOL0     H46538   5.666   7.391   7.068 -0.1528  1.1978  0.6423
  353MOL0     H46539   5.587   7.327   7.350 -3.3511 -1.0901  0.0322
  353MOL0     H46540   5.516   7.417   7.217  2.4046  1.7800 -1.1281
  353MOL0     H46541   5.528   7.111   7.247 -3.0448 -3.0037 -1.2558
  353MOL0     H46542   5.446   7.190   7.114 -2.2086 -2.9906  0.4671
  353MOL0     H46543   5.358   7.208   7.407 -2.1526  0.1680 -0.6673
  353MOL0     H46544   5.286   7.120   7.271 -1.3782 -0.5053  2.6923
  353MOL0     H46545   5.287   7.408   7.349 -0.6622 -2.2594  3.1067
  353MOL0     H46546   5.295   7.372   7.177 -0.0126 -1.7774 -0.2851
  353MOL0     H46547   5.093   7.214   7.210  1.0878 -0.8236  0.7224
  353MOL0     H46548   5.067   7.390   7.225  3.3720  2.1936 -1.4200
  353MOL0     H46549   5.020   7.494   7.454 -1.0192  0.7264  0.3666
  353MOL0     H46550   4.922   7.437   7.771 -0.2944  1.7216 -0.8856
  353MOL0     H46551   4.792   7.329   7.733  3.3628 -2.3629 -0.3080
  353MOL0     H46552   4.733   7.475   7.532 -0.5259 -0.6684  1.2647
  353MOL0     H46553   4.866   7.598   7.585 -0.8150  0.4452 -2.9044
  353MOL0     H46554   4.635   7.495   7.755 -0.1854  0.6646  1.3064
  353MOL0     H46555   4.749   7.625   7.794  4.8650 -3.2869 -1.0348
  353MOL0     H46556   4.549   7.636   7.550  3.3119 -0.0477 -2.1975
  353MOL0     H46557   4.660   7.759   7.601 -2.4821  0.1863  0.0805
  353MOL0     H46558   4.411   7.483   7.618  0.8470 -1.0418 -0.7459
  353MOL0     H46559   4.170   7.415   7.635  0.9266 -0.2230 -0.0305
  353MOL0     H46560   3.688   7.620   7.597 -0.6268  1.7293 -1.0240
  353MOL0     H46561   3.469   7.555   7.634 -2.9061 -0.0992  2.0749
  353MOL0     H46562   3.343   7.382   7.679  0.5203  0.8288  0.0130
  353MOL0     H46563   3.233   7.521   7.723 -0.2078 -0.1893  1.5726
  353MOL0     H46564   3.203   7.223   7.793  0.5765  0.7713 -1.2624
  353MOL0     H46565   3.110   7.330   7.701 -0.5804  3.0810 -0.3285
  353MOL0     H46566   3.096   7.486   7.916  3.1125 -0.2570  0.6219
  353MOL0     H46567   3.142   7.334   8.006 -1.4724 -0.2582  0.9214
  353MOL0     H46568   2.916   7.379   8.016  0.8182  2.0119 -1.7770
  353MOL0     H46569   2.896   7.359   7.844  0.3866  1.4553  0.1955
  353MOL0     H46570   3.039   7.148   7.995  0.0449  1.2018  1.1892
  353MOL0     H46571   2.931   7.131   7.860  3.7980  0.8375 -1.2388
  353MOL0     H46572   2.739   7.212   8.003 -0.8133 -2.0675  0.2544
  353MOL0     H46573   2.832   7.199   8.153 -1.3381 -1.2290  0.4499
  353MOL0     H46574   2.777   6.954   7.977  0.6782  0.6063 -0.0899
  353MOL0     H46575   2.869   6.966   8.125  0.9940 -0.1533 -0.6995
  353MOL0     H46576   2.560   7.040   8.093 -1.1688 -0.4007  0.8694
  353MOL0     H46577   2.659   7.059   8.236  1.3826  2.0509 -0.9087
  353MOL0     H46578   3.528   7.533   8.060 -0.1966  0.2644 -0.3939
  353MOL0     H46579   3.766   7.585   8.019  0.5255 -1.8742  0.2548
  353MOL0     H46580   4.073   7.795   7.810 -0.6289  0.8002 -2.4097
  353MOL0     H46581   4.313   7.844   7.839  2.9084 -1.0181  1.7629
  353MOL0     H46582   5.910   7.787   7.162  1.2059  3.0487 -3.2727
  353MOL0     H46583   6.115   7.824   7.019 -1.5277  1.9343  1.8633
  353MOL0     H46584   6.612   7.935   7.025  0.8156 -1.9124  2.1434
  353MOL0     H46585   6.821   7.923   6.885 -2.9744  4.8351  1.2758
  353MOL0     H46586   6.835   7.721   6.487  1.2446  0.5023  0.2876
  353MOL0     H46587   6.840   7.587   6.615 -0.0195 -0.1254 -1.6289
  353MOL0     H46588   7.089   7.741   6.549 -0.9462  1.0810  0.3255
  353MOL0     H46589   7.085   7.600   6.631  0.8705  0.0827 -0.5780
  353MOL0     H46590   7.030   7.651   6.339  3.0030  2.2773  1.0104
  353MOL0     H46591   6.953   7.502   6.414  0.2324  0.4311 -2.2522
  353MOL0     H46592   7.250   7.568   6.420  1.3468 -1.8065  1.2516
  353MOL0     H46593   7.172   7.425   6.490  2.6016  0.9983 -0.2138
  353MOL0     H46594   7.215   7.321   6.097 -0.7735  0.4914  0.2250
  353MOL0     H46595   6.646   7.608   6.656  4.8000 -2.3780  2.7351
  353MOL0     H46596   6.454   7.607   6.805 -0.8730  1.3473 -0.7301
  354MOL0     O46597   8.785   6.692   4.931  0.4084 -0.2020 -0.2828
  354MOL0     C46598   8.728   6.745   4.836  0.1436  0.3735 -0.2365
  354MOL0     O46599   8.792   6.827   4.746  0.2880 -0.1149  0.2956
  354MOL0     C46600   8.925   6.838   4.734  0.4530 -0.7137 -0.1186
  354MOL0     C46601   8.997   6.723   4.731  0.0119 -0.0572 -1.0135
  354MOL0     C46602   9.131   6.722   4.716  0.4073  0.4866 -0.9417
  354MOL0     C46603   9.196   6.840   4.697 -0.0958 -0.2046  0.6697
  354MOL0     O46604   9.330   6.851   4.689 -0.3446 -0.1168 -0.1542
  354MOL0     C46605   9.416   6.730   4.691 -0.0648  0.3933  0.8178
  354MOL0     C46606   9.564   6.766   4.696 -0.2444 -0.2128  0.0099
  354MOL0     C46607   9.603   6.864   4.809  0.1621  0.5533  0.2010
  354MOL0     C46608   9.730   6.936   4.767  0.1719  0.7075 -0.6768
  354MOL0     C46609   9.775   7.051   4.862 -0.3713  0.5283 -0.1745
  354MOL0     C46610   9.872   7.149   4.801  0.8639  0.0283 -0.1950
  354MOL0     C46611   9.924   7.277   4.880  0.2305 -0.0322  0.1845
  354MOL0     C46612   9.812   7.355   4.936 -0.8423  0.0753  0.7155
  354MOL0     N46613   9.850   7.457   5.028 -0.1717 -0.1515 -0.1604
  354MOL0     C46614   9.753   7.520   5.111 -0.1044  0.6054  0.5674
  354MOL0     C46615   9.822   7.585   5.198 -0.6353 -0.6189 -0.5480
  354MOL0     C46616   9.769   7.663   5.318 -0.2112  0.5989  0.0191
  354MOL0     C46617   9.866   7.775   5.370  0.1071  0.1233  0.2224
  354MOL0     C46618   9.906   7.892   5.271  0.5251  0.0228 -0.7083
  354MOL0     C46619   9.788   7.964   5.205  0.3677  0.2498  0.2775
  354MOL0     O46620   9.674   8.001   5.288 -0.0199  0.4559 -0.6783
  354MOL0     C46621   9.550   7.969   5.242 -0.1398  0.0630 -0.4123
  354MOL0     C46622   9.447   7.926   5.335 -0.5280 -0.4088 -0.0753
  354MOL0     C46623   9.326   7.865   5.290  0.0941 -0.3627  0.0127
  354MOL0     C46624   9.294   7.869   5.154 -0.2852  0.5909  0.7872
  354MOL0     C46625   9.161   7.831   5.091 -0.4333  0.7613 -0.6991
  354MOL0     O46626   9.057   7.811   5.172 -0.1090 -0.2871  0.5139
  354MOL0     C46627   8.925   7.790   5.146 -0.9856  0.3637 -0.4004
  354MOL0     C46628   8.862   7.790   5.019  1.0070 -0.0888  0.2767
  354MOL0     C46629   8.721   7.771   5.020  0.3345  0.0137 -0.6833
  354MOL0     C46630   8.645   7.719   5.128  1.5578 -0.2694  1.0433
  354MOL0     O46631   8.508   7.696   5.105 -0.3038  0.5319 -0.3672
  354MOL0     C46632   8.422   7.697   5.224  0.1882  0.6000  0.4985
  354MOL0     C46633   8.272   7.686   5.190 -0.4823  0.5314 -0.3145
  354MOL0     C46634   8.232   7.563   5.101 -0.3228  0.1300 -0.2708
  354MOL0     C46635   8.093   7.574   5.051 -0.0234  0.6794 -0.2924
  354MOL0     C46636   8.063   7.465   4.956 -0.0614  0.9508 -0.1989
  354MOL0     C46637   8.060   7.510   4.811  0.4831 -0.2951  0.9684
  354MOL0     C46638   8.046   7.401   4.705  1.0809  0.2655 -0.7987
  354MOL0     C46639   7.899   7.362   4.670 -0.1569 -0.1081 -1.3473
  354MOL0    Cl46640   7.819   7.253   4.777 -0.3670 -0.4504  0.2668
  354MOL0     C46641   8.717   7.712   5.250  1.0054  0.2194  0.2014
  354MOL0     C46642   8.852   7.749   5.258 -0.0337 -0.1512  0.2837
  354MOL0     O46643   9.156   7.816   4.970  0.1871  0.0470  0.7112
  354MOL0     C46644   9.397   7.922   5.063  0.7355  0.5210 -0.4702
  354MOL0     C46645   9.517   7.960   5.108 -0.4273 -0.3093  0.3086
  354MOL0     N46646   9.958   7.569   5.174 -1.1791 -0.3944 -0.2479
  354MOL0     N46647   9.979   7.490   5.076  0.6627 -0.0960 -0.5327
  354MOL0     C46648   9.119   6.957   4.681 -0.2237  0.4419 -0.6303
  354MOL0     C46649   8.978   6.962   4.702 -0.0277 -0.1647 -0.5318
  354MOL0     C46650   8.581   6.719   4.825 -0.1797 -0.3873 -0.4264
  354MOL0     C46651   8.513   6.630   4.911  0.8980  0.0029  0.6681
  354MOL0     C46652   8.375   6.618   4.904 -0.1597  0.3666 -0.6718
  354MOL0     C46653   8.294   6.682   4.800  0.5192  0.1649  1.1038
  354MOL0     O46654   8.157   6.644   4.798  0.3200 -0.0616 -1.0995
  354MOL0     C46655   8.096   6.652   4.670  0.3266 -0.0356 -0.1098
  354MOL0     C46656   7.947   6.618   4.671 -0.9762  0.5123  0.9367
  354MOL0     C46657   7.918   6.478   4.732 -0.2279 -0.7104  0.1808
  354MOL0     C46658   7.766   6.455   4.738  0.1026 -1.0084 -0.3740
  354MOL0     C46659   7.689   6.471   4.610 -0.0869  0.0691  0.0528
  354MOL0     C46660   7.635   6.475   4.506  1.1976  0.1946  0.1698
  354MOL0     C46661   8.360   6.766   4.714 -0.2250  0.3988  0.9069
  354MOL0     C46662   8.509   6.776   4.720 -0.6155 -0.6309 -0.7008
  354MOL0     H46663   8.951   6.628   4.756  0.6582  0.5311  3.0327
  354MOL0     H46664   9.178   6.626   4.735  2.6440  1.9568  1.6114
  354MOL0     H46665   9.402   6.674   4.598 -1.2934 -1.1969  1.9116
  354MOL0     H46666   9.401   6.664   4.777  0.2557  0.3728  0.8603
  354MOL0     H46667   9.595   6.814   4.602 -1.8011  1.3926  0.2633
  354MOL0     H46668   9.617   6.671   4.706  0.5746  0.1982 -0.2689
  354MOL0     H46669   9.606   6.822   4.910  0.7078  1.0203  0.3832
  354MOL0     H46670   9.524   6.940   4.813 -1.1285 -0.5384 -2.3829
  354MOL0     H46671   9.817   6.870   4.764 -1.2882 -1.4950  1.3909
  354MOL0     H46672   9.713   6.979   4.668  0.5444  0.0258 -1.0441
  354MOL0     H46673   9.810   7.008   4.957 -1.6495  0.2655  0.1975
  354MOL0     H46674   9.686   7.109   4.890 -1.5833 -0.1934 -2.3599
  354MOL0     H46675   9.816   7.189   4.716 -2.2135 -2.2058  0.6104
  354MOL0     H46676   9.963   7.097   4.770  1.5676  0.5580  0.9386
  354MOL0     H46677   9.983   7.230   4.959  0.4103 -2.5055 -1.3138
  354MOL0     H46678   9.982   7.345   4.816  0.4746  1.8254  2.2406
  354MOL0     H46679   9.735   7.287   4.972 -0.4200 -0.3583  0.8178
  354MOL0     H46680   9.757   7.412   4.861  1.5102  0.9347 -0.4671
  354MOL0     H46681   9.646   7.506   5.103  0.2478 -1.8605 -0.6992
  354MOL0     H46682   9.738   7.595   5.398  0.0113  0.0042 -0.3868
  354MOL0     H46683   9.678   7.711   5.281 -0.7040  0.5141  1.0941
  354MOL0     H46684   9.964   7.734   5.397  1.3437  1.8866 -1.3280
  354MOL0     H46685   9.818   7.820   5.457  0.5954  0.8441  0.1270
  354MOL0     H46686   9.963   7.965   5.329  0.8344 -1.6306  1.1514
  354MOL0     H46687   9.977   7.860   5.193  0.5825  2.4534 -1.7521
  354MOL0     H46688   9.755   7.881   5.143 -0.3491 -0.5762  1.7112
  354MOL0     H46689   9.826   8.054   5.156  3.6579 -0.9257  0.4171
  354MOL0     H46690   9.474   7.931   5.440  1.4592  1.6139 -0.6006
  354MOL0     H46691   9.247   7.829   5.356 -0.5852  0.4926 -0.3174
  354MOL0     H46692   8.911   7.829   4.930 -1.6552  1.5643 -0.5939
  354MOL0     H46693   8.692   7.794   4.918 -1.6287 -2.2512 -0.7406
  354MOL0     H46694   8.429   7.785   5.289 -0.1138  0.4765  0.7050
  354MOL0     H46695   8.456   7.619   5.293  1.3128  0.6636  0.0357
  354MOL0     H46696   8.250   7.779   5.137 -0.1462  0.2751 -0.9089
  354MOL0     H46697   8.207   7.690   5.278  2.5395  1.4694  2.0647
  354MOL0     H46698   8.238   7.474   5.166  0.1709  0.7693  0.5854
  354MOL0     H46699   8.304   7.562   5.019  0.1715  1.5363  0.1108
  354MOL0     H46700   8.032   7.551   5.139 -2.2675 -0.0353 -1.9589
  354MOL0     H46701   8.068   7.669   5.004  1.0763  0.8344 -0.5775
  354MOL0     H46702   7.963   7.427   4.981  0.8111 -2.0875 -0.8847
  354MOL0     H46703   8.117   7.371   4.965 -4.5881 -1.7731  2.8220
  354MOL0     H46704   8.156   7.556   4.786 -0.9037  1.9640 -0.6221
  354MOL0     H46705   7.991   7.593   4.794 -1.4062 -1.8647  0.5063
  354MOL0     H46706   8.090   7.443   4.614  2.7549  0.4850  0.0672
  354MOL0     H46707   8.103   7.314   4.740 -0.5622  0.1665  1.9674
  354MOL0     H46708   7.897   7.294   4.584 -0.1457 -0.1544 -1.3109
  354MOL0     H46709   7.835   7.446   4.644 -3.7622 -3.0132 -2.7825
  354MOL0     H46710   8.665   7.667   5.334 -1.1357  3.6753  0.9183
  354MOL0     H46711   8.896   7.737   5.356 -1.1322 -2.9801  0.5405
  354MOL0     H46712   9.386   7.933   4.955  0.8382  0.3243 -0.5032
  354MOL0     H46713   9.585   8.016   5.045 -1.6739  0.0708 -0.7393
  354MOL0     H46714   9.168   7.049   4.650 -1.5265  1.5825  0.5816
  354MOL0     H46715   8.925   7.057   4.699 -1.2040 -0.7961 -0.3806
  354MOL0     H46716   8.569   6.583   4.992 -0.8717 -1.8917  0.8837
  354MOL0     H46717   8.323   6.565   4.983  1.4032 -0.0020  0.1292
  354MOL0     H46718   8.135   6.580   4.597 -2.6258 -2.4310  0.4805
  354MOL0     H46719   8.110   6.756   4.641  3.5387 -1.1859 -3.4322
  354MOL0     H46720   7.892   6.684   4.738  0.6838  1.7213  1.1704
  354MOL0     H46721   7.905   6.632   4.571  0.5765  2.9735  0.5333
  354MOL0     H46722   7.973   6.466   4.826 -1.3745 -1.9909  0.7277
  354MOL0     H46723   7.960   6.404   4.664 -0.4693 -1.2162  0.5749
  354MOL0     H46724   7.755   6.349   4.762  0.8978 -1.4854 -1.9368
  354MOL0     H46725   7.727   6.521   4.815  1.0383  1.7476 -2.1066
  354MOL0     H46726   7.566   6.481   4.424  0.5991 -0.2293  0.6353
  354MOL0     H46727   8.306   6.811   4.631  0.8110 -1.2327 -0.7436
  354MOL0     H46728   8.547   6.847   4.648  0.1942 -3.1812 -2.9404
  355MOL0     O46729   0.178   6.221  10.316 -0.2634  0.5333 -0.3990
  355MOL0     C46730   0.222   6.138  10.402  0.0116 -0.3096  0.7487
  355MOL0     O46731   0.141   6.072  10.488  0.2305 -0.8880 -0.6428
  355MOL0     C46732   0.005   6.073  10.466 -0.5275 -0.2025 -0.5522
  355MOL0     C46733  -0.073   6.169  10.532 -0.0502  0.0779  0.7443
  355MOL0     C46734  -0.213   6.172  10.527 -0.3555 -0.6075  0.6308
  355MOL0     C46735  -0.282   6.087  10.434 -0.3879  0.4351 -0.0811
  355MOL0     O46736  -0.419   6.107  10.426  0.3739 -0.0674 -0.0007
  355MOL0     C46737  -0.486   6.009  10.338  0.1487  0.5507 -0.2519
  355MOL0     C46738  -0.633   6.002  10.353 -0.7442 -0.3185 -0.0741
  355MOL0     C46739  -0.686   5.950  10.492  0.5745 -0.4945  0.1190
  355MOL0     C46740  -0.839   5.954  10.495 -0.9020  0.3703  0.6896
  355MOL0     C46741  -0.908   6.082  10.489  0.1778  0.1662 -0.3230
  355MOL0     C46742  -1.066   6.054  10.501  0.4996  0.0461  0.0144
  355MOL0     C46743  -1.152   6.168  10.443  0.2024  0.6987  0.3909
  355MOL0     C46744  -1.181   6.287  10.535  0.2506 -0.0002  1.8769
  355MOL0     N46745  -1.283   6.382  10.484  0.6666 -0.6695 -0.5226
  355MOL0     C46746  -1.420   6.363  10.465 -0.8491 -0.4763 -0.4149
  355MOL0     C46747  -1.463   6.476  10.409 -1.4798  0.5442  0.1739
  355MOL0     C46748  -1.605   6.494  10.387 -0.6422  0.7606 -0.2079
  355MOL0     C46749  -1.652   6.616  10.458 -0.6819  0.1972  0.0859
  355MOL0     C46750  -1.783   6.660  10.386 -0.3187  0.1908  0.3981
  355MOL0     C46751  -1.900   6.555  10.409  1.0162  0.8128  0.0947
  355MOL0     O46752  -2.028   6.597  10.350  0.8908 -0.6842 -0.1689
  355MOL0     C46753  -2.146   6.542  10.392 -0.1082 -0.7670 -0.6846
  355MOL0     C46754  -2.262   6.617  10.374 -0.9659  0.1277 -0.4488
  355MOL0     C46755  -2.380   6.559  10.399  0.4333  0.8423 -0.8590
  355MOL0     C46756  -2.398   6.426  10.452  0.0730 -0.7900 -0.6464
  355MOL0     C46757  -2.529   6.374  10.504  0.2329 -0.8250 -0.2965
  355MOL0     O46758  -2.549   6.236  10.531 -0.2201 -0.0929  0.7072
  355MOL0     C46759  -2.674   6.218  10.585  0.2568  0.0542 -0.5921
  355MOL0     C46760  -2.677   6.176  10.722 -0.6013 -0.0599 -0.1728
  355MOL0     C46761  -2.795   6.170  10.791  0.0369  0.4236 -0.8110
  355MOL0     C46762  -2.917   6.193  10.721  0.4964 -0.2854  0.0729
  355MOL0     O46763  -3.037   6.179  10.788  0.3430  0.0412 -1.1822
  355MOL0     C46764  -3.039   6.118  10.920 -0.6919 -0.4339  0.4728
  355MOL0     C46765  -3.183   6.078  10.953 -0.6654  0.2632  0.1823
  355MOL0     C46766  -3.255   5.995  10.845  0.0227 -0.4027  0.1722
  355MOL0     C46767  -3.408   5.995  10.844 -0.3956  0.4762  0.7796
  355MOL0     C46768  -3.460   5.975  10.701  0.0031  0.1430 -0.5421
  355MOL0     C46769  -3.426   5.836  10.657 -1.2954  0.3390 -0.5881
  355MOL0     C46770  -3.493   5.779  10.540 -0.6417 -0.5081  0.3466
  355MOL0     C46771  -3.454   5.638  10.526 -0.5470  0.3770  0.4162
  355MOL0    Cl46772  -3.279   5.624  10.472  0.3196 -0.1039  0.2556
  355MOL0     C46773  -2.915   6.231  10.582 -0.4100 -0.3295 -0.3605
  355MOL0     C46774  -2.791   6.234  10.518 -0.3739  0.3559  0.5370
  355MOL0     O46775  -2.613   6.462  10.518 -0.5319 -0.0977 -0.1220
  355MOL0     C46776  -2.276   6.348  10.466  0.2499 -0.4164 -0.6928
  355MOL0     C46777  -2.154   6.415  10.439  0.2827  0.7245  0.2729
  355MOL0     N46778  -1.357   6.555  10.376  0.0999 -0.2890  0.2015
  355MOL0     N46779  -1.249   6.499  10.418 -0.0175  0.5906  0.0997
  355MOL0     C46780  -0.207   5.994  10.359 -0.2399 -0.0524  0.0098
  355MOL0     C46781  -0.063   5.986  10.379 -0.5503  0.0774  0.1942
  355MOL0     C46782   0.365   6.113  10.414  0.0009 -0.0709  0.4298
  355MOL0     C46783   0.417   6.034  10.514 -0.0261 -0.2652 -1.0701
  355MOL0     C46784   0.559   6.020  10.515  0.2624 -0.2395  0.0572
  355MOL0     C46785   0.645   6.089  10.424  0.6743  0.7890  0.0720
  355MOL0     O46786   0.778   6.074  10.443  0.7749 -0.8087 -0.4971
  355MOL0     C46787   0.863   5.997  10.347  0.0618 -0.1795  0.1643
  355MOL0     C46788   0.933   6.067  10.238  0.6675  0.1666 -0.8420
  355MOL0     C46789   1.036   6.166  10.287  0.3020 -0.1739  0.0336
  355MOL0     C46790   1.185   6.123  10.296 -0.4018  1.4169 -0.0387
  355MOL0     C46791   1.217   5.999  10.379  0.1261 -0.6013  0.1082
  355MOL0     C46792   1.242   5.909  10.455 -0.3615  0.1301  0.2704
  355MOL0     C46793   0.583   6.167  10.326 -0.7462  0.6518 -0.0776
  355MOL0     C46794   0.449   6.186  10.327  0.0886  0.5257 -0.2525
  355MOL0     H46795  -0.032   6.241  10.603 -0.6010  0.4602  0.6764
  355MOL0     H46796  -0.263   6.251  10.582  1.4752 -0.5929  2.3837
  355MOL0     H46797  -0.449   5.907  10.348  0.6003  0.6201 -1.1166
  355MOL0     H46798  -0.477   6.041  10.234  1.0168  0.5983 -0.1727
  355MOL0     H46799  -0.678   5.927  10.288 -0.2848  0.8018 -1.7406
  355MOL0     H46800  -0.671   6.103  10.336  1.0476  0.5684  0.9289
  355MOL0     H46801  -0.638   6.014  10.566  1.1780 -0.1437 -0.5607
  355MOL0     H46802  -0.651   5.848  10.508  0.6191 -0.1735  2.4456
  355MOL0     H46803  -0.865   5.886  10.413 -0.7963 -0.5423  1.3935
  355MOL0     H46804  -0.889   5.896  10.573 -1.5646 -0.5238 -0.3586
  355MOL0     H46805  -0.887   6.137  10.396  2.5126  0.2912  0.2218
  355MOL0     H46806  -0.866   6.160  10.553  2.9050  1.5023 -3.4062
  355MOL0     H46807  -1.102   6.031  10.602 -1.5624 -0.8836 -0.8649
  355MOL0     H46808  -1.101   5.967  10.446 -2.1447 -0.8660  2.8403
  355MOL0     H46809  -1.105   6.188  10.346  0.6722 -2.8830 -0.2407
  355MOL0     H46810  -1.254   6.129  10.438  0.0029  1.1682 -4.5143
  355MOL0     H46811  -1.087   6.344  10.536  0.2229  0.0996  0.3641
  355MOL0     H46812  -1.209   6.250  10.634  0.5415 -1.2714  1.4976
  355MOL0     H46813  -1.480   6.283  10.507  0.8325 -2.3696 -1.4325
  355MOL0     H46814  -1.658   6.404  10.421  0.0208  1.1530  2.0063
  355MOL0     H46815  -1.621   6.507  10.279  0.7586 -2.1799 -0.8646
  355MOL0     H46816  -1.581   6.698  10.468 -0.9357  0.3386  0.7612
  355MOL0     H46817  -1.673   6.592  10.562  0.6339 -0.0072  0.3209
  355MOL0     H46818  -1.818   6.757  10.423 -0.5344  0.9132 -1.5755
  355MOL0     H46819  -1.759   6.676  10.280 -0.7214  3.2031  0.6654
  355MOL0     H46820  -1.907   6.545  10.518 -0.7647  0.2405 -0.0470
  355MOL0     H46821  -1.875   6.458  10.366  0.6072  0.1414  1.3118
  355MOL0     H46822  -2.241   6.707  10.317 -3.0941  1.1663  0.3210
  355MOL0     H46823  -2.469   6.615  10.373  0.8651  2.2098  0.3997
  355MOL0     H46824  -2.579   6.164  10.768  0.5557 -3.2979 -3.0786
  355MOL0     H46825  -2.781   6.125  10.889  0.6002 -3.0499 -2.3404
  355MOL0     H46826  -3.000   6.193  10.990  3.0030  0.5382 -2.3026
  355MOL0     H46827  -2.985   6.022  10.923 -3.4935 -2.1761 -0.6209
  355MOL0     H46828  -3.230   6.172  10.984  1.4798  0.3637  3.6881
  355MOL0     H46829  -3.183   6.017  11.044  1.2332  0.9974  0.7175
  355MOL0     H46830  -3.209   5.896  10.847 -1.8352 -1.3347  2.6919
  355MOL0     H46831  -3.232   6.045  10.751 -1.2707  0.9360  0.5064
  355MOL0     H46832  -3.455   5.932  10.920 -3.1140  0.5196 -0.7331
  355MOL0     H46833  -3.441   6.098  10.864  1.2662  1.1896  0.0285
  355MOL0     H46834  -3.424   6.049  10.629  3.1103  0.0364  0.7504
  355MOL0     H46835  -3.567   5.995  10.707  0.1895  1.0587 -0.1369
  355MOL0     H46836  -3.450   5.765  10.737 -0.4487 -0.9895 -1.4820
  355MOL0     H46837  -3.319   5.827  10.637 -1.3419 -0.1032 -0.6433
  355MOL0     H46838  -3.601   5.778  10.562 -0.7778 -1.5094 -0.3161
  355MOL0     H46839  -3.480   5.843  10.452  1.1846 -0.3385  0.6964
  355MOL0     H46840  -3.518   5.585  10.454  0.7127 -2.6707  1.3756
  355MOL0     H46841  -3.455   5.584  10.621 -1.5070 -0.3385  0.0163
  355MOL0     H46842  -3.007   6.247  10.527  0.2870 -0.7426 -1.7115
  355MOL0     H46843  -2.777   6.242  10.410 -1.3896 -1.2213  0.2639
  355MOL0     H46844  -2.290   6.245  10.497 -1.1942  0.3144  1.3827
  355MOL0     H46845  -2.067   6.350  10.438 -0.7825 -0.8455  1.9229
  355MOL0     H46846  -0.240   5.934  10.275  1.4260 -0.9914 -0.0171
  355MOL0     H46847   0.006   5.927  10.319  0.4546  0.3539  1.0553
  355MOL0     H46848   0.359   6.002  10.599  0.3332  4.4570  1.2455
  355MOL0     H46849   0.610   5.958  10.588  0.2786 -0.4401 -0.1239
  355MOL0     H46850   0.798   5.916  10.313  1.3683 -2.2682  2.3228
  355MOL0     H46851   0.937   5.943  10.407  2.4382  3.6606  1.0460
  355MOL0     H46852   0.982   5.990  10.177  2.2444 -1.6549  2.4529
  355MOL0     H46853   0.861   6.124  10.179  0.6218  0.1740 -0.7789
  355MOL0     H46854   1.012   6.197  10.389  1.7230  2.0641 -0.2541
  355MOL0     H46855   1.027   6.257  10.228  0.6988  1.2371  2.0614
  355MOL0     H46856   1.213   6.097  10.193  0.3867 -0.3022  0.5736
  355MOL0     H46857   1.251   6.198  10.338 -1.2277 -0.0152  4.3158
  355MOL0     H46858   1.260   5.820  10.511  1.3961 -0.5852 -1.3162
  355MOL0     H46859   0.646   6.213  10.250  0.2419 -3.0881 -1.7322
  355MOL0     H46860   0.407   6.249  10.250  1.4483  0.9120 -0.7177
  356MOL0     O46861   6.401   7.433  10.343  0.0922 -0.4903 -0.1846
  356MOL0     C46862   6.324   7.524  10.347 -0.8580  0.2208 -0.2008
  356MOL0     O46863   6.351   7.658  10.386 -0.2519 -0.3673 -0.3163
  356MOL0     C46864   6.481   7.677  10.421 -0.6834 -0.1740  0.1753
  356MOL0     C46865   6.511   7.623  10.544  0.9700  0.1902  0.1348
  356MOL0     C46866   6.645   7.612  10.588  0.2363 -0.1759 -0.1688
  356MOL0     C46867   6.746   7.678  10.515  0.0216 -0.2393  0.5487
  356MOL0     O46868   6.875   7.672  10.559  0.5378 -0.5033 -0.0444
  356MOL0     C46869   6.995   7.712  10.478 -0.0279 -0.7788  0.2609
  356MOL0     C46870   7.121   7.687  10.549  0.2619  0.1855  0.5803
  356MOL0     C46871   7.234   7.734  10.462  0.1659  0.5211  0.7680
  356MOL0     C46872   7.366   7.724  10.540  0.1493 -0.3940 -0.5134
  356MOL0     C46873   7.491   7.732  10.454  0.0548  0.5012  0.4254
  356MOL0     C46874   7.517   7.857  10.374 -0.4972  0.2464  0.0274
  356MOL0     C46875   7.669   7.862  10.351 -0.2368  0.2082  0.8302
  356MOL0     C46876   7.725   7.974  10.262  0.3208 -0.5364  0.0156
  356MOL0     N46877   7.655   8.098  10.298  1.3979 -0.3954 -0.2596
  356MOL0     C46878   7.662   8.177  10.403 -0.1175 -0.7860 -0.3488
  356MOL0     C46879   7.547   8.253  10.401 -0.2855  1.0383  0.4464
  356MOL0     C46880   7.518   8.363  10.495 -0.0207 -0.4225  0.3801
  356MOL0     C46881   7.444   8.316  10.622 -0.0455 -0.8165 -0.0382
  356MOL0     C46882   7.316   8.241  10.594  0.8276 -0.2184 -0.3028
  356MOL0     C46883   7.200   8.316  10.663 -0.3131  0.8474 -0.7653
  356MOL0     O46884   7.076   8.245  10.645 -0.8360  0.1302 -0.7271
  356MOL0     C46885   7.050   8.139  10.724 -0.2928  0.6488 -0.2729
  356MOL0     C46886   7.144   8.082  10.816 -0.5627  0.8708 -1.0098
  356MOL0     C46887   7.119   7.970  10.888  0.0312  0.6320  0.5520
  356MOL0     C46888   7.000   7.895  10.872  0.4414  0.3564  0.2686
  356MOL0     C46889   6.978   7.771  10.944  0.1644 -0.4028 -0.0700
  356MOL0     O46890   7.076   7.739  11.046  0.1309 -0.0065 -0.1112
  356MOL0     C46891   7.050   7.643  11.146  0.6430  0.4086  0.3493
  356MOL0     C46892   7.160   7.569  11.185 -0.0340  0.4970  0.1529
  356MOL0     C46893   7.148   7.459  11.272  0.4226  0.2837  0.9233
  356MOL0     C46894   7.022   7.430  11.320  0.1417 -0.8408 -0.0273
  356MOL0     O46895   7.025   7.312  11.386 -0.8871  0.0630  0.5673
  356MOL0     C46896   6.903   7.261  11.445  0.4917  0.4997  0.3627
  356MOL0     C46897   6.932   7.116  11.492 -0.4958  0.2356  1.4195
  356MOL0     C46898   6.803   7.046  11.537  0.6786  0.0448 -0.4364
  356MOL0     C46899   6.726   7.117  11.652  0.1041 -0.9885 -0.8332
  356MOL0     C46900   6.583   7.066  11.667  1.0335 -0.7784  0.2236
  356MOL0     C46901   6.557   6.935  11.753 -1.2029  0.1721 -0.4974
  356MOL0     C46902   6.413   6.901  11.765 -0.6649  0.7428  0.3811
  356MOL0     C46903   6.340   6.977  11.874 -0.4004  0.0781  0.5509
  356MOL0    Cl46904   6.170   6.918  11.910  0.3756 -0.2408  0.1593
  356MOL0     C46905   6.905   7.512  11.297  0.2174 -0.3118 -0.7063
  356MOL0     C46906   6.930   7.611  11.206 -0.3324 -0.3231 -0.9448
  356MOL0     O46907   6.868   7.708  10.922 -0.4270 -0.0882  0.9979
  356MOL0     C46908   6.904   7.956  10.776 -0.6442 -0.0646 -0.0229
  356MOL0     C46909   6.929   8.073  10.711  0.5774 -0.4512  0.7587
  356MOL0     N46910   7.477   8.227  10.280  0.1124 -0.4462 -1.6222
  356MOL0     N46911   7.544   8.144  10.216 -0.6275  0.5917 -0.3426
  356MOL0     C46912   6.708   7.740  10.396 -0.0806  0.0640  0.2718
  356MOL0     C46913   6.582   7.730  10.340  0.2792  0.2016 -0.4753
  356MOL0     C46914   6.190   7.497  10.309 -0.0653 -0.3566  0.5226
  356MOL0     C46915   6.084   7.554  10.385 -0.4913  0.0272 -0.6928
  356MOL0     C46916   5.956   7.523  10.349  0.4441  0.0400 -0.5641
  356MOL0     C46917   5.929   7.450  10.233  0.3035 -0.1981 -0.0939
  356MOL0     O46918   5.797   7.425  10.194  0.0922 -0.0067 -0.0800
  356MOL0     C46919   5.741   7.526  10.107 -0.2231  0.1881 -0.1555
  356MOL0     C46920   5.643   7.475  10.007  0.3601  0.3596 -0.3793
  356MOL0     C46921   5.517   7.424  10.084  0.3281  0.0950  0.0550
  356MOL0     C46922   5.446   7.528  10.176 -0.8221 -0.6636  1.2216
  356MOL0     C46923   5.400   7.638  10.086 -0.2666 -0.0180  0.8772
  356MOL0     C46924   5.360   7.716  10.001  0.2485  0.0490 -0.0102
  356MOL0     C46925   6.035   7.395  10.160  0.7197 -0.3270 -0.0520
  356MOL0     C46926   6.168   7.422  10.193  0.9134 -0.4702 -0.0600
  356MOL0     H46927   6.431   7.589  10.610  1.1848  1.0379  0.8480
  356MOL0     H46928   6.668   7.575  10.687  1.5178  0.1376 -0.3360
  356MOL0     H46929   6.982   7.820  10.464 -1.1802 -0.9051  0.1898
  356MOL0     H46930   7.005   7.665  10.380  0.3408 -0.3182  0.0691
  356MOL0     H46931   7.116   7.582  10.577 -0.6732  0.7828  2.8777
  356MOL0     H46932   7.133   7.747  10.640 -0.1687 -2.1972  2.3244
  356MOL0     H46933   7.213   7.834  10.423  0.3197 -0.5583 -2.3280
  356MOL0     H46934   7.238   7.661  10.381 -2.1249  0.1639  0.9126
  356MOL0     H46935   7.351   7.812  10.603  0.3290  1.5753 -3.0588
  356MOL0     H46936   7.376   7.635  10.603 -1.3409 -0.2219 -0.0141
  356MOL0     H46937   7.500   7.648  10.386  2.5927  1.0381  0.0089
  356MOL0     H46938   7.572   7.712  10.525  1.2195  0.7853 -0.7946
  356MOL0     H46939   7.497   7.944  10.437 -0.0733  0.5385 -0.2358
  356MOL0     H46940   7.466   7.846  10.278  0.5681 -1.2491 -0.3952
  356MOL0     H46941   7.715   7.872  10.450  0.4963  1.4582  0.3861
  356MOL0     H46942   7.691   7.770  10.296 -2.0114  0.4427 -0.3832
  356MOL0     H46943   7.703   7.946  10.159  0.7898 -0.5654 -0.0796
  356MOL0     H46944   7.833   7.988  10.270  0.0970  1.2250  0.4317
  356MOL0     H46945   7.732   8.173  10.486 -0.2308  3.8800  0.2520
  356MOL0     H46946   7.460   8.447  10.456 -0.4221 -0.3730  1.0717
  356MOL0     H46947   7.618   8.397  10.522  0.5426 -0.8732 -1.0297
  356MOL0     H46948   7.422   8.402  10.685  0.0366 -2.5826  2.5473
  356MOL0     H46949   7.510   8.254  10.684 -1.1983 -1.7957  0.2465
  356MOL0     H46950   7.278   8.227  10.493 -2.3521  1.4281  0.5286
  356MOL0     H46951   7.332   8.141  10.636  2.0881  0.7770  1.7841
  356MOL0     H46952   7.210   8.416  10.620  1.3736  1.6832  1.3615
  356MOL0     H46953   7.205   8.329  10.772 -1.8195  0.6414 -0.6510
  356MOL0     H46954   7.240   8.128  10.836 -0.0981 -0.4349 -0.0885
  356MOL0     H46955   7.189   7.939  10.965  1.2052  0.7100 -0.4562
  356MOL0     H46956   7.256   7.608  11.155  1.2333 -2.2710  0.2792
  356MOL0     H46957   7.234   7.399  11.300  0.0381  0.4233  2.5336
  356MOL0     H46958   6.824   7.258  11.369  0.9764  0.1728 -0.1343
  356MOL0     H46959   6.875   7.316  11.535 -0.6040 -0.9797  0.9809
  356MOL0     H46960   7.002   7.131  11.575 -0.2486  1.1022  1.0627
  356MOL0     H46961   6.987   7.048  11.426  0.9069 -0.8717  3.6160
  356MOL0     H46962   6.844   6.951  11.572 -2.0215 -1.1682 -0.3105
  356MOL0     H46963   6.729   7.034  11.457 -1.8802  2.7698  1.3446
  356MOL0     H46964   6.772   7.100  11.750 -3.3083 -0.0916  1.0949
  356MOL0     H46965   6.717   7.225  11.640  1.4630 -0.7314  0.1545
  356MOL0     H46966   6.534   7.055  11.570  1.1613 -1.4826  0.2350
  356MOL0     H46967   6.517   7.151  11.690 -0.7391 -1.3575 -2.2773
  356MOL0     H46968   6.617   6.943  11.844 -1.7341  1.9802 -0.2543
  356MOL0     H46969   6.595   6.846  11.703  3.7104  1.5249  0.1991
  356MOL0     H46970   6.354   6.922  11.675 -1.4099 -1.3661  0.3087
  356MOL0     H46971   6.406   6.795  11.791  2.2692  0.3191 -0.1911
  356MOL0     H46972   6.345   7.085  11.860  1.5252  0.0313  0.5758
  356MOL0     H46973   6.391   6.965  11.970  2.2221 -0.3529 -0.8125
  356MOL0     H46974   6.808   7.492  11.341  0.1601 -0.1057 -0.7386
  356MOL0     H46975   6.840   7.670  11.198 -2.2591 -3.2112 -2.4447
  356MOL0     H46976   6.804   7.913  10.774 -0.8819  0.4967 -1.3322
  356MOL0     H46977   6.856   8.105  10.637  0.7148  2.0498  1.5943
  356MOL0     H46978   6.787   7.789  10.340 -2.4372  3.3762 -0.4504
  356MOL0     H46979   6.565   7.740  10.233  0.2584 -3.3948 -0.9320
  356MOL0     H46980   6.094   7.596  10.484  0.1099 -1.8563  0.0760
  356MOL0     H46981   5.874   7.557  10.412 -1.9696 -2.6837 -1.9828
  356MOL0     H46982   5.821   7.574  10.050 -0.2586  0.8077  0.2987
  356MOL0     H46983   5.698   7.599  10.176  0.1024 -0.9563  1.3014
  356MOL0     H46984   5.597   7.546   9.937  1.0117 -1.7568 -3.1537
  356MOL0     H46985   5.686   7.390   9.954 -0.3871 -0.0463 -0.3517
  356MOL0     H46986   5.534   7.327  10.133 -0.0789 -1.2069 -2.2021
  356MOL0     H46987   5.452   7.406   9.998  0.9636  2.3549 -0.9743
  356MOL0     H46988   5.357   7.487  10.225 -0.0066 -2.8699  0.9546
  356MOL0     H46989   5.512   7.569  10.253 -0.9469  3.9376 -0.7981
  356MOL0     H46990   5.333   7.785   9.923 -2.1411 -0.3905  0.3595
  356MOL0     H46991   6.009   7.325  10.081 -1.2366  2.4927 -2.1155
  356MOL0     H46992   6.253   7.364  10.159  1.4800 -0.0146  0.5399
  357MOL0     O46993   6.226   4.815   0.338 -0.3225 -0.1341 -0.1614
  357MOL0     C46994   6.269   4.894   0.419  0.2193 -0.4904 -0.2163
  357MOL0     O46995   6.192   4.996   0.476 -0.6674  0.0702 -0.3192
  357MOL0     C46996   6.059   4.993   0.456 -0.7713 -0.2998 -0.1763
  357MOL0     C46997   5.995   5.106   0.400 -0.0680  0.1024  0.3782
  357MOL0     C46998   5.865   5.116   0.378 -0.1775  0.2547  1.0386
  357MOL0     C46999   5.777   5.026   0.429 -0.6954  0.3951 -0.0428
  357MOL0     O47000   5.643   5.052   0.421  0.4761 -0.1479 -0.3207
  357MOL0     C47001   5.549   5.038   0.535 -0.1327  0.6118  0.1959
  357MOL0     C47002   5.415   5.092   0.497 -0.1711 -0.0743 -0.2260
  357MOL0     C47003   5.294   5.069   0.595 -0.2673  1.0793 -0.4956
  357MOL0     C47004   5.164   5.100   0.521  0.0460 -0.8626 -0.1628
  357MOL0     C47005   5.135   5.245   0.523 -0.7457 -0.5027 -0.0163
  357MOL0     C47006   5.015   5.265   0.425 -0.3856  0.1755 -0.7154
  357MOL0     C47007   4.956   5.410   0.415  0.7857 -0.6019  0.3581
  357MOL0     C47008   4.821   5.412   0.339  0.6984 -0.3122  0.0600
  357MOL0     N47009   4.826   5.416   0.190  0.2958  0.6558  0.3196
  357MOL0     C47010   4.778   5.313   0.106 -0.1224  0.0235 -0.8068
  357MOL0     C47011   4.797   5.358  -0.019  0.0700  0.8604 -0.1600
  357MOL0     C47012   4.722   5.294  -0.130  0.3003 -0.2221  0.5844
  357MOL0     C47013   4.608   5.384  -0.168 -0.5607  0.2258  0.2361
  357MOL0     C47014   4.517   5.337  -0.290 -0.5819 -0.6590 -0.0464
  357MOL0     C47015   4.380   5.406  -0.274 -0.4468 -0.8941 -0.0247
  357MOL0     O47016   4.299   5.334  -0.373 -0.7221 -0.5338  0.1144
  357MOL0     C47017   4.165   5.364  -0.367 -0.2899 -0.5909 -0.1022
  357MOL0     C47018   4.115   5.455  -0.277 -0.3733 -0.9143 -0.1210
  357MOL0     C47019   3.978   5.468  -0.258  0.1337  0.9107  0.7275
  357MOL0     C47020   3.890   5.387  -0.334  0.0924  0.2280 -1.3363
  357MOL0     C47021   3.744   5.397  -0.310  0.9292 -0.0661 -0.1423
  357MOL0     O47022   3.666   5.359  -0.413 -0.2329  0.4614 -0.2111
  357MOL0     C47023   3.531   5.366  -0.402  0.6707  0.1535  0.1258
  357MOL0     C47024   3.453   5.449  -0.487  0.5052  0.3264 -0.5567
  357MOL0     C47025   3.316   5.433  -0.489  0.0886 -0.5060 -0.1924
  357MOL0     C47026   3.250   5.348  -0.406  0.1233  0.0011 -0.5338
  357MOL0     O47027   3.112   5.315  -0.411 -0.2939 -0.4513 -0.0965
  357MOL0     C47028   3.031   5.392  -0.495 -0.2829  0.1090  0.2572
  357MOL0     C47029   2.885   5.366  -0.466  0.0788  0.1041  0.4944
  357MOL0     C47030   2.800   5.452  -0.560  0.1272  0.7200  0.9393
  357MOL0     C47031   2.656   5.455  -0.506 -0.8968  0.4951  0.0650
  357MOL0     C47032   2.569   5.543  -0.602  0.5474  0.2557  0.5080
  357MOL0     C47033   2.537   5.458  -0.727 -0.0434 -0.5745  0.2406
  357MOL0     C47034   2.444   5.523  -0.825  0.6123 -0.0214  2.0932
  357MOL0     C47035   2.457   5.498  -0.986  0.5875 -0.6535 -0.8238
  357MOL0    Cl47036   2.450   5.327  -1.023  0.5067  0.5194  0.5108
  357MOL0     C47037   3.323   5.273  -0.323  0.9092 -0.1099 -0.4375
  357MOL0     C47038   3.462   5.277  -0.318  0.1169 -0.1473  0.5187
  357MOL0     O47039   3.703   5.449  -0.203 -0.4731  0.1565 -0.0503
  357MOL0     C47040   3.947   5.296  -0.418  0.3835  0.5589 -0.3402
  357MOL0     C47041   4.082   5.284  -0.440  0.2466 -0.1306  0.0911
  357MOL0     N47042   4.845   5.484  -0.013 -0.7583 -0.1421  0.7834
  357MOL0     N47043   4.859   5.519   0.108  1.0581  0.3335 -0.0816
  357MOL0     C47044   5.834   4.905   0.491  0.1973  0.2163  0.4983
  357MOL0     C47045   5.977   4.887   0.498 -0.0877  1.0289 -0.0754
  357MOL0     C47046   6.405   4.854   0.468  0.4876 -0.1551 -0.0951
  357MOL0     C47047   6.461   4.729   0.429  0.6568 -0.3799  0.8714
  357MOL0     C47048   6.588   4.698   0.479  0.1503  0.0377  0.2260
  357MOL0     C47049   6.652   4.773   0.582 -0.1837 -0.0493 -0.0477
  357MOL0     O47050   6.771   4.709   0.638  0.0883  0.4995  0.4227
  357MOL0     C47051   6.852   4.776   0.739 -0.4093  0.0245 -0.5098
  357MOL0     C47052   6.904   4.915   0.687  0.1665  0.1892 -0.2901
  357MOL0     C47053   6.890   5.030   0.790 -0.1839 -0.9181  0.2274
  357MOL0     C47054   6.918   5.162   0.728 -0.3881 -1.3591  0.7376
  357MOL0     C47055   7.052   5.178   0.677 -0.2383 -0.5567  0.3662
  357MOL0     C47056   7.163   5.215   0.633  0.0999 -0.1089  0.5377
  357MOL0     C47057   6.585   4.889   0.624  0.7015  0.5229  0.9698
  357MOL0     C47058   6.467   4.932   0.561 -0.1508  0.4304  0.2366
  357MOL0     H47059   6.054   5.184   0.355  1.4952 -1.6869 -0.8232
  357MOL0     H47060   5.825   5.208   0.338  2.2118  0.6110 -0.7589
  357MOL0     H47061   5.578   5.098   0.622 -3.8230 -0.9397  2.7492
  357MOL0     H47062   5.537   4.934   0.564  0.0415  0.6618  0.4537
  357MOL0     H47063   5.388   5.050   0.400  1.5780 -1.0671 -0.3275
  357MOL0     H47064   5.431   5.200   0.487  0.3676 -0.0584  0.6755
  357MOL0     H47065   5.314   5.135   0.680 -1.5825  0.6729  0.1594
  357MOL0     H47066   5.294   4.961   0.615  0.5548  1.0214 -0.7714
  357MOL0     H47067   5.167   5.068   0.417 -1.8116  1.0306 -0.8655
  357MOL0     H47068   5.091   5.039   0.575 -1.6168  0.7781 -0.4504
  357MOL0     H47069   5.219   5.301   0.481 -0.4744 -0.1792  0.9277
  357MOL0     H47070   5.105   5.284   0.620  0.9118 -0.8954  0.6933
  357MOL0     H47071   4.934   5.202   0.461 -0.2296 -0.7996 -2.0037
  357MOL0     H47072   5.038   5.237   0.322 -1.3752  3.0714 -1.8219
  357MOL0     H47073   4.934   5.448   0.515 -1.5096 -0.9159  0.0315
  357MOL0     H47074   5.031   5.479   0.375 -1.2613  0.4556 -1.9211
  357MOL0     H47075   4.768   5.500   0.375 -0.2904 -1.4889  1.6213
  357MOL0     H47076   4.754   5.334   0.376  0.0671  0.2657  0.1547
  357MOL0     H47077   4.726   5.226   0.147 -0.0840 -0.2260 -1.2823
  357MOL0     H47078   4.696   5.191  -0.105 -1.2090 -0.4436 -1.6869
  357MOL0     H47079   4.777   5.292  -0.225 -0.5744 -1.2530  0.0887
  357MOL0     H47080   4.658   5.478  -0.194 -0.8353  0.4892  0.6617
  357MOL0     H47081   4.549   5.405  -0.079  0.8153 -0.1199  1.2607
  357MOL0     H47082   4.577   5.356  -0.379  2.5159  1.2189  2.2197
  357MOL0     H47083   4.504   5.228  -0.284  0.3580 -0.8009 -0.5017
  357MOL0     H47084   4.392   5.513  -0.292 -0.0334 -0.8308  0.6245
  357MOL0     H47085   4.339   5.386  -0.175  3.1352 -0.6579  1.6469
  357MOL0     H47086   4.176   5.529  -0.225 -0.8139  0.1799 -1.1143
  357MOL0     H47087   3.942   5.539  -0.184 -0.5695  0.9809  0.3364
  357MOL0     H47088   3.502   5.516  -0.557 -3.2450  1.2486 -2.5429
  357MOL0     H47089   3.254   5.487  -0.560 -0.2920  1.0231  1.2467
  357MOL0     H47090   3.048   5.364  -0.599  0.6911  0.3916  0.3256
  357MOL0     H47091   3.055   5.499  -0.488 -0.6495  0.4824 -2.8720
  357MOL0     H47092   2.865   5.388  -0.360 -1.0512 -0.4592  0.4135
  357MOL0     H47093   2.860   5.260  -0.472  2.2851 -0.5009  1.0394
  357MOL0     H47094   2.810   5.412  -0.662  1.1196 -2.0121  2.0053
  357MOL0     H47095   2.843   5.552  -0.563  0.8675  0.4423  1.6618
  357MOL0     H47096   2.614   5.354  -0.499  0.7262 -0.0919  4.2572
  357MOL0     H47097   2.656   5.484  -0.401 -0.5615 -1.7170  0.7378
  357MOL0     H47098   2.624   5.635  -0.621  2.7481 -1.4225 -1.8323
  357MOL0     H47099   2.468   5.569  -0.567  0.0707  0.3477 -0.8677
  357MOL0     H47100   2.501   5.358  -0.702  2.3865 -1.8376 -0.9015
  357MOL0     H47101   2.629   5.437  -0.783  0.2945 -4.8068  2.0449
  357MOL0     H47102   2.340   5.508  -0.792  0.2930  2.5565  2.4950
  357MOL0     H47103   2.447   5.632  -0.824 -1.5073  0.0996  3.7685
  357MOL0     H47104   2.558   5.530  -1.013  0.3111 -1.8454 -3.5496
  357MOL0     H47105   2.389   5.559  -1.046 -1.1652 -1.5541  0.1394
  357MOL0     H47106   3.265   5.205  -0.263 -1.5078 -0.3626 -2.8561
  357MOL0     H47107   3.503   5.207  -0.246 -1.4470 -1.7007 -0.0266
  357MOL0     H47108   3.881   5.230  -0.475  0.3024  0.4911 -0.1696
  357MOL0     H47109   4.129   5.203  -0.494  0.8936 -0.4215  1.0659
  357MOL0     H47110   5.762   4.835   0.531 -0.7793  0.3574 -0.9215
  357MOL0     H47111   6.016   4.798   0.546 -1.2339  0.7619  0.4087
  357MOL0     H47112   6.418   4.656   0.361 -0.9896  1.0933  0.2551
  357MOL0     H47113   6.637   4.608   0.445 -0.0340 -0.3533  0.9795
  357MOL0     H47114   6.932   4.705   0.758  0.2756  0.8630 -0.2081
  357MOL0     H47115   6.795   4.778   0.833  1.9078 -2.6270  1.1106
  357MOL0     H47116   7.008   4.918   0.653  0.1740 -0.6728 -0.3677
  357MOL0     H47117   6.850   4.949   0.598  2.4704  1.0673 -1.4515
  357MOL0     H47118   6.966   5.018   0.868 -1.4258 -1.7216  1.3623
  357MOL0     H47119   6.791   5.039   0.837 -0.0576 -0.1113  0.3601
  357MOL0     H47120   6.844   5.184   0.650 -0.4746  3.1569  1.8497
  357MOL0     H47121   6.891   5.242   0.797  3.9433 -1.8331  3.3054
  357MOL0     H47122   7.264   5.233   0.600 -0.8202  0.7581 -2.0607
  357MOL0     H47123   6.627   4.949   0.704 -0.1479  1.4030  0.7765
  357MOL0     H47124   6.414   5.020   0.599 -0.7214 -0.6130  1.9829
  358MOL0     O47125   0.611   5.362   3.141  0.5063 -0.6431 -0.3568
  358MOL0     C47126   0.620   5.363   3.017 -0.3196  0.6208 -0.0101
  358MOL0     O47127   0.524   5.350   2.935 -0.0524  0.8445 -0.5850
  358MOL0     C47128   0.395   5.317   2.966 -1.0991  0.2751  0.0461
  358MOL0     C47129   0.317   5.332   2.855  0.3807 -0.3540  0.3053
  358MOL0     C47130   0.176   5.319   2.851 -0.2454 -0.4111 -0.7572
  358MOL0     C47131   0.111   5.276   2.971 -0.0396  0.4102 -0.6485
  358MOL0     O47132  -0.020   5.272   2.982  0.9087  0.0982 -0.8039
  358MOL0     C47133  -0.067   5.138   3.007  0.3076 -0.1076  0.2153
  358MOL0     C47134  -0.197   5.130   2.923  0.2304  0.1858 -0.8708
  358MOL0     C47135  -0.185   5.189   2.781  0.6512  0.4222  0.1272
  358MOL0     C47136  -0.325   5.214   2.715 -0.3837 -0.3391 -0.4067
  358MOL0     C47137  -0.364   5.084   2.648 -0.5728 -0.4169 -0.6021
  358MOL0     C47138  -0.505   5.083   2.598 -0.3559 -0.2662 -0.1213
  358MOL0     C47139  -0.585   5.011   2.703  0.5513  0.1312 -0.7949
  358MOL0     C47140  -0.730   4.971   2.658  0.3053  0.1885 -0.8303
  358MOL0     N47141  -0.780   4.864   2.744 -0.7890 -0.5413  0.3345
  358MOL0     C47142  -0.796   4.727   2.720  0.1049 -0.7762 -0.0816
  358MOL0     C47143  -0.812   4.668   2.836  0.3004  0.3040 -0.4352
  358MOL0     C47144  -0.849   4.523   2.863 -0.6208 -0.2013 -0.9160
  358MOL0     C47145  -0.957   4.506   2.966 -0.1317  0.1597 -0.3826
  358MOL0     C47146  -0.988   4.356   2.993  0.1294  0.5020 -0.3074
  358MOL0     C47147  -1.102   4.355   3.092 -0.1981 -0.3847 -1.3496
  358MOL0     O47148  -1.133   4.222   3.124 -0.5286 -0.1507 -0.6842
  358MOL0     C47149  -1.257   4.184   3.182 -0.3514 -0.9693  0.1233
  358MOL0     C47150  -1.323   4.070   3.153 -0.8168  0.4092  0.1125
  358MOL0     C47151  -1.443   4.039   3.214  0.2354  0.5347  0.4510
  358MOL0     C47152  -1.499   4.115   3.312  0.1742  0.3337  0.7287
  358MOL0     C47153  -1.633   4.086   3.364 -0.0065  0.3686 -1.3065
  358MOL0     O47154  -1.716   3.994   3.303 -0.3613 -0.6374  0.1270
  358MOL0     C47155  -1.836   3.976   3.364 -0.3044  0.5914 -0.3487
  358MOL0     C47156  -1.857   3.854   3.445 -0.6546 -0.6768  0.7941
  358MOL0     C47157  -1.987   3.834   3.494 -0.9687  0.6265 -0.5797
  358MOL0     C47158  -2.089   3.932   3.473 -1.0841 -0.0990  0.6424
  358MOL0     O47159  -2.207   3.902   3.517  0.7658  0.1530 -0.6667
  358MOL0     C47160  -2.282   4.015   3.570 -0.0460  0.1197  0.3733
  358MOL0     C47161  -2.439   4.009   3.549 -0.1280 -0.1225 -0.5686
  358MOL0     C47162  -2.494   3.868   3.582  0.0408  0.6726  0.7400
  358MOL0     C47163  -2.471   3.817   3.727  0.2467  0.2523 -0.6692
  358MOL0     C47164  -2.539   3.693   3.794  0.9548  0.2343  0.0861
  358MOL0     C47165  -2.694   3.684   3.787 -0.5949  0.0480 -0.1204
  358MOL0     C47166  -2.751   3.581   3.874  1.0812  1.0608  0.0875
  358MOL0     C47167  -2.905   3.555   3.860  0.3699 -0.5092 -0.3044
  358MOL0    Cl47168  -2.980   3.679   3.968 -0.0285 -0.1009 -0.4171
  358MOL0     C47169  -2.058   4.046   3.395  0.0123 -0.0505  0.2760
  358MOL0     C47170  -1.932   4.068   3.340  0.6663 -0.6964 -0.3869
  358MOL0     O47171  -1.660   4.144   3.465 -0.3558 -0.0154 -0.2423
  358MOL0     C47172  -1.434   4.228   3.338 -0.2084  0.7532 -0.2319
  358MOL0     C47173  -1.318   4.267   3.280  0.3070  0.0433  0.8325
  358MOL0     N47174  -0.793   4.769   2.933  0.4767  0.6435 -0.4360
  358MOL0     N47175  -0.775   4.884   2.880  0.1286  0.8434  0.7060
  358MOL0     C47176   0.189   5.262   3.089  0.2175  0.2182  0.0179
  358MOL0     C47177   0.336   5.272   3.086  0.8752 -0.5515 -0.4129
  358MOL0     C47178   0.750   5.379   2.954  1.1310 -0.0424 -0.5240
  358MOL0     C47179   0.864   5.378   3.034 -0.8242 -0.0921  0.3464
  358MOL0     C47180   0.986   5.411   2.972 -0.2485  0.4976 -0.3477
  358MOL0     C47181   1.000   5.444   2.836  0.9160 -0.0420 -1.1291
  358MOL0     O47182   1.114   5.478   2.770  0.1530 -0.5441  0.8126
  358MOL0     C47183   1.237   5.485   2.837  0.0923 -0.1459 -0.3576
  358MOL0     C47184   1.287   5.628   2.807 -1.0077 -0.2248 -0.0385
  358MOL0     C47185   1.439   5.647   2.840  0.3735 -0.0586 -0.1727
  358MOL0     C47186   1.463   5.798   2.847  0.5119  0.2766 -0.8932
  358MOL0     C47187   1.597   5.833   2.868 -0.2423  0.1902  0.2959
  358MOL0     C47188   1.712   5.865   2.908  0.3959  0.2988 -0.7263
  358MOL0     C47189   0.884   5.447   2.759  0.0977  0.5257 -0.1326
  358MOL0     C47190   0.766   5.414   2.819 -0.9465  0.3254  0.4299
  358MOL0     H47191   0.366   5.354   2.761  0.0818 -3.6818 -0.7823
  358MOL0     H47192   0.114   5.348   2.767 -1.7057  1.1524  0.7897
  358MOL0     H47193  -0.076   5.122   3.115 -2.0108 -0.1561  0.0567
  358MOL0     H47194  -0.002   5.060   2.967 -0.2038 -0.0639 -0.7283
  358MOL0     H47195  -0.272   5.189   2.977  1.2421 -0.9041  1.9303
  358MOL0     H47196  -0.227   5.024   2.925 -1.1726  0.4497  3.1992
  358MOL0     H47197  -0.133   5.125   2.709 -1.3506  0.0451 -1.0830
  358MOL0     H47198  -0.130   5.283   2.770 -3.2602  2.8877 -0.8003
  358MOL0     H47199  -0.399   5.234   2.793  0.2997 -0.2734  0.2384
  358MOL0     H47200  -0.331   5.289   2.637 -1.0100 -1.6032 -1.6162
  358MOL0     H47201  -0.349   5.002   2.719 -0.1467  1.6135  1.7768
  358MOL0     H47202  -0.299   5.064   2.562  0.4199  0.1367  0.0109
  358MOL0     H47203  -0.516   5.037   2.500  2.1752  3.6022 -2.4982
  358MOL0     H47204  -0.525   5.190   2.588 -0.9937 -0.3073  0.6362
  358MOL0     H47205  -0.544   4.912   2.726 -3.4020 -1.8780 -1.5195
  358MOL0     H47206  -0.597   5.072   2.793 -0.1363 -2.8895  1.3289
  358MOL0     H47207  -0.716   4.930   2.557  2.8863 -0.9342 -0.1082
  358MOL0     H47208  -0.789   5.062   2.668  0.0919 -0.1877  2.0320
  358MOL0     H47209  -0.796   4.690   2.618  1.5395 -1.0317 -0.0178
  358MOL0     H47210  -0.759   4.472   2.898  1.7503  1.7024 -3.8114
  358MOL0     H47211  -0.885   4.485   2.767  0.1292  1.5381 -1.9301
  358MOL0     H47212  -1.046   4.556   2.927  1.3916  0.3523 -3.9759
  358MOL0     H47213  -0.934   4.554   3.062 -0.6089  0.8936 -0.6264
  358MOL0     H47214  -1.016   4.313   2.896 -0.4596  1.0597 -0.3943
  358MOL0     H47215  -0.895   4.315   3.032  1.9142  3.1131 -1.5738
  358MOL0     H47216  -1.193   4.399   3.049  0.3242  3.5623  1.0776
  358MOL0     H47217  -1.075   4.414   3.180 -3.5923 -2.7443  1.5315
  358MOL0     H47218  -1.283   3.998   3.082 -1.4499 -0.1239  0.2857
  358MOL0     H47219  -1.478   3.938   3.194  1.0554  0.4040 -0.4281
  358MOL0     H47220  -1.774   3.785   3.456 -0.0301  0.2359  2.0497
  358MOL0     H47221  -2.020   3.753   3.558 -3.9899  3.4320  1.7003
  358MOL0     H47222  -2.247   4.110   3.529 -0.3445 -1.4697 -4.1047
  358MOL0     H47223  -2.255   4.015   3.676  1.0094 -2.4487  0.1671
  358MOL0     H47224  -2.476   4.030   3.449 -1.4766  0.4384  0.0199
  358MOL0     H47225  -2.477   4.090   3.611  2.6838 -0.1607  1.4325
  358MOL0     H47226  -2.464   3.785   3.518 -4.1517 -1.9650  1.7700
  358MOL0     H47227  -2.603   3.870   3.569  0.1252  0.4428 -0.0165
  358MOL0     H47228  -2.364   3.798   3.728  0.6535  2.2903 -1.5807
  358MOL0     H47229  -2.489   3.905   3.789  1.3641 -0.9749  1.5188
  358MOL0     H47230  -2.510   3.689   3.899  2.7102 -2.6257 -0.3980
  358MOL0     H47231  -2.510   3.605   3.736  2.5886  0.3579  0.6867
  358MOL0     H47232  -2.732   3.673   3.685  0.4846  4.9320 -1.3125
  358MOL0     H47233  -2.733   3.780   3.823 -2.3427 -1.4447  2.1988
  358MOL0     H47234  -2.706   3.484   3.853  0.7480  0.7363  0.8439
  358MOL0     H47235  -2.741   3.608   3.979 -1.6220 -0.1470  0.7292
  358MOL0     H47236  -2.935   3.453   3.887 -0.8020  0.1405  0.9681
  358MOL0     H47237  -2.926   3.579   3.755 -0.0822  1.7413  0.2520
  358MOL0     H47238  -2.136   4.121   3.381 -0.4513 -0.1447  2.0988
  358MOL0     H47239  -1.903   4.159   3.289  0.6251 -2.3329 -3.5859
  358MOL0     H47240  -1.481   4.298   3.407 -0.3522  0.9678 -0.5425
  358MOL0     H47241  -1.262   4.351   3.319 -1.2950  1.6272 -0.1793
  358MOL0     H47242   0.143   5.238   3.184  0.9657 -0.7359  0.1536
  358MOL0     H47243   0.387   5.266   3.182 -0.7379 -0.1759  0.4958
  358MOL0     H47244   0.859   5.361   3.141  0.3036 -0.9023  0.2961
  358MOL0     H47245   1.070   5.419   3.041 -0.0812 -0.4996 -0.4274
  358MOL0     H47246   1.307   5.408   2.803 -0.0228 -0.5055  0.2102
  358MOL0     H47247   1.225   5.485   2.945 -1.3707 -1.2389 -0.4754
  358MOL0     H47248   1.276   5.641   2.699  1.5613 -2.2216 -0.6402
  358MOL0     H47249   1.211   5.686   2.861 -0.7950  0.8451 -0.8323
  358MOL0     H47250   1.502   5.605   2.761 -0.1454 -0.5368 -0.3387
  358MOL0     H47251   1.465   5.609   2.939 -0.4530  1.4840  0.6736
  358MOL0     H47252   1.420   5.860   2.767 -0.1292  0.2900 -0.5507
  358MOL0     H47253   1.410   5.824   2.939  0.7578 -0.6194 -0.4868
  358MOL0     H47254   1.795   5.906   2.961  0.9469 -0.1203 -1.2552
  358MOL0     H47255   0.902   5.474   2.656 -0.1055  0.3725 -0.2067
  358MOL0     H47256   0.674   5.420   2.761 -1.1498 -0.2741  0.6850
  359MOL0     O47257   0.698   7.019   6.459 -0.4855 -0.5922  0.4600
  359MOL0     C47258   0.756   6.906   6.447  0.4969  0.1906 -0.4165
  359MOL0     O47259   0.695   6.787   6.416  0.6803  0.4210  0.1155
  359MOL0     C47260   0.563   6.775   6.405  0.6355 -0.4773  0.4387
  359MOL0     C47261   0.480   6.873   6.340  0.4839 -0.1101  0.1151
  359MOL0     C47262   0.346   6.846   6.294 -0.4107  0.5554 -0.1991
  359MOL0     C47263   0.289   6.724   6.310  0.4372 -0.0632  0.0453
  359MOL0     O47264   0.170   6.683   6.265  0.8703 -0.4536 -0.0439
  359MOL0     C47265   0.094   6.763   6.170  0.2992  0.1490  0.2470
  359MOL0     C47266  -0.006   6.682   6.096  1.2238  0.9860 -0.4996
  359MOL0     C47267  -0.101   6.599   6.192 -0.6469 -0.0849  0.0529
  359MOL0     C47268  -0.203   6.522   6.115  0.0237 -0.7970  0.2904
  359MOL0     C47269  -0.295   6.445   6.207 -0.8360  0.8834  0.0737
  359MOL0     C47270  -0.413   6.367   6.141 -0.7296  0.1825  0.4535
  359MOL0     C47271  -0.530   6.343   6.235  0.5535  0.4900 -0.9114
  359MOL0     C47272  -0.510   6.209   6.312 -0.0473 -0.7534  0.1578
  359MOL0     N47273  -0.623   6.158   6.383 -0.0375 -0.0013 -1.0803
  359MOL0     C47274  -0.748   6.114   6.349 -0.2326  0.0306 -0.0285
  359MOL0     C47275  -0.820   6.125   6.461 -0.1857  0.0470 -0.2360
  359MOL0     C47276  -0.969   6.099   6.476  0.5553  0.1033 -0.3256
  359MOL0     C47277  -1.001   6.022   6.601  0.3198  0.5722 -0.6627
  359MOL0     C47278  -1.140   6.044   6.653  0.6296  0.1945 -1.3046
  359MOL0     C47279  -1.258   5.967   6.583 -0.3213  1.0792 -0.2845
  359MOL0     O47280  -1.219   5.835   6.549  0.6793  0.6015 -0.4613
  359MOL0     C47281  -1.305   5.753   6.476  0.5672  0.0651  0.4138
  359MOL0     C47282  -1.323   5.622   6.521  0.4247 -0.3443  0.2958
  359MOL0     C47283  -1.432   5.548   6.470  0.6005  0.0561 -0.9492
  359MOL0     C47284  -1.521   5.609   6.381  0.3502  0.2517  1.0877
  359MOL0     C47285  -1.629   5.535   6.308 -0.5336 -0.3134 -0.5620
  359MOL0     O47286  -1.694   5.588   6.197 -0.3011  0.0673 -0.0768
  359MOL0     C47287  -1.816   5.541   6.152  1.1368  0.0211 -0.1301
  359MOL0     C47288  -1.934   5.552   6.229  0.3226 -0.9027 -0.3558
  359MOL0     C47289  -2.056   5.534   6.165  0.3813  0.1599 -0.0849
  359MOL0     C47290  -2.069   5.508   6.029  0.0496 -0.5609  0.4127
  359MOL0     O47291  -2.184   5.473   5.972  0.4653  0.6651 -0.1625
  359MOL0     C47292  -2.294   5.563   5.995 -1.2894  0.6200 -0.5624
  359MOL0     C47293  -2.410   5.536   5.901  0.2035  0.4551 -0.3204
  359MOL0     C47294  -2.539   5.608   5.942  0.0693 -0.8659  1.0024
  359MOL0     C47295  -2.645   5.622   5.832  0.3533  0.6640  0.0771
  359MOL0     C47296  -2.708   5.487   5.800 -0.1365  0.5352  0.2996
  359MOL0     C47297  -2.799   5.509   5.678 -0.3507  0.3771 -0.2380
  359MOL0     C47298  -2.859   5.376   5.643 -0.0356  0.0916  0.0200
  359MOL0     C47299  -2.934   5.390   5.511 -0.4591 -0.2590  0.3671
  359MOL0    Cl47300  -2.816   5.340   5.390 -0.0615 -0.0785  0.0649
  359MOL0     C47301  -1.947   5.485   5.953  0.1669 -0.0288  0.1953
  359MOL0     C47302  -1.826   5.506   6.017 -0.4060 -0.5530 -0.2390
  359MOL0     O47303  -1.659   5.421   6.363 -0.5460  0.4367  0.7335
  359MOL0     C47304  -1.498   5.733   6.325  0.6061 -0.1457  1.0201
  359MOL0     C47305  -1.388   5.803   6.377  0.2106 -0.3129 -0.6197
  359MOL0     N47306  -0.739   6.154   6.566  0.0482 -0.1215 -1.0694
  359MOL0     N47307  -0.619   6.180   6.525 -0.0546  1.1187  0.1213
  359MOL0     C47308   0.369   6.628   6.368 -0.7212  0.2571  0.6237
  359MOL0     C47309   0.500   6.653   6.410  0.3148  1.0503 -0.3393
  359MOL0     C47310   0.901   6.898   6.439  0.1182  0.4863  0.5485
  359MOL0     C47311   0.973   6.994   6.369  0.1328  0.9777 -0.1242
  359MOL0     C47312   1.106   6.990   6.359 -0.1074  0.7933 -0.3678
  359MOL0     C47313   1.173   6.876   6.414 -0.3605  0.5659  0.7648
  359MOL0     O47314   1.308   6.859   6.379  0.4336  0.3333 -0.7674
  359MOL0     C47315   1.364   6.736   6.412  0.6928 -0.2074 -0.0263
  359MOL0     C47316   1.509   6.725   6.376  0.3944 -0.4672  0.0635
  359MOL0     C47317   1.589   6.844   6.435 -1.4984  0.1626 -0.1693
  359MOL0     C47318   1.737   6.821   6.451  0.6009 -0.2438 -0.9142
  359MOL0     C47319   1.803   6.769   6.331  0.5358 -0.8942 -0.1760
  359MOL0     C47320   1.860   6.721   6.241  0.3223 -0.4344  0.1608
  359MOL0     C47321   1.100   6.779   6.489 -0.6393 -0.3719  0.3216
  359MOL0     C47322   0.962   6.791   6.508 -0.3715  0.2154 -0.1025
  359MOL0     H47323   0.514   6.974   6.317  0.0628  1.0733  4.0490
  359MOL0     H47324   0.301   6.921   6.230 -0.1766 -1.6962 -3.1915
  359MOL0     H47325   0.153   6.815   6.094  0.0007  0.6850  0.3729
  359MOL0     H47326   0.038   6.843   6.219 -0.5970  3.0028 -4.6858
  359MOL0     H47327   0.047   6.620   6.022  0.5098  0.8284 -0.8924
  359MOL0     H47328  -0.073   6.752   6.045  0.3598 -0.1354 -0.9566
  359MOL0     H47329  -0.162   6.668   6.250 -0.2109 -0.0481  0.4733
  359MOL0     H47330  -0.048   6.525   6.253  0.1222 -0.2065 -0.7465
  359MOL0     H47331  -0.269   6.594   6.065  0.9907 -0.7868 -1.0373
  359MOL0     H47332  -0.158   6.462   6.035  1.1736  0.6552 -0.2016
  359MOL0     H47333  -0.343   6.522   6.268  1.2748  1.3283  1.2899
  359MOL0     H47334  -0.243   6.373   6.271 -1.8060 -1.5435 -1.7064
  359MOL0     H47335  -0.380   6.268   6.107 -1.3728  0.0458  0.2182
  359MOL0     H47336  -0.448   6.411   6.048  0.6322  0.0839 -0.1359
  359MOL0     H47337  -0.544   6.433   6.296  3.0043  1.2079 -1.2714
  359MOL0     H47338  -0.626   6.343   6.183 -0.7604 -0.5810  1.4025
  359MOL0     H47339  -0.421   6.224   6.373 -0.2021  0.9302  0.0211
  359MOL0     H47340  -0.494   6.135   6.233 -0.3398  1.0561 -1.6668
  359MOL0     H47341  -0.784   6.091   6.249 -0.6039 -0.7378  0.2710
  359MOL0     H47342  -1.001   6.054   6.382 -1.1795  0.5421  0.0245
  359MOL0     H47343  -1.017   6.197   6.482  0.4991  0.1055 -0.7595
  359MOL0     H47344  -0.954   6.076   6.684 -3.2013  2.3142  0.3986
  359MOL0     H47345  -0.972   5.916   6.605 -0.7616  0.2923  2.5721
  359MOL0     H47346  -1.144   6.016   6.759  5.2991  1.7847 -0.4748
  359MOL0     H47347  -1.162   6.151   6.664  3.6785  0.9534 -1.5533
  359MOL0     H47348  -1.286   6.023   6.493 -1.1355  0.0384 -0.7068
  359MOL0     H47349  -1.345   5.962   6.649  0.9189  0.5886  1.3773
  359MOL0     H47350  -1.245   5.586   6.587  0.0914 -2.4344 -0.3982
  359MOL0     H47351  -1.460   5.452   6.513 -3.4026  0.7093 -1.7004
  359MOL0     H47352  -1.928   5.581   6.334 -1.1159 -0.8086 -0.2796
  359MOL0     H47353  -2.146   5.542   6.226 -0.8759 -1.0860 -1.6813
  359MOL0     H47354  -2.254   5.665   5.987 -0.2019  0.3903  1.2473
  359MOL0     H47355  -2.324   5.556   6.100 -0.9203 -0.5945 -0.5282
  359MOL0     H47356  -2.433   5.430   5.892 -0.1341  0.4378  0.6148
  359MOL0     H47357  -2.376   5.572   5.803 -0.2548 -1.0973 -1.0808
  359MOL0     H47358  -2.522   5.714   5.965 -0.8438  0.0861 -2.1851
  359MOL0     H47359  -2.573   5.547   6.026  0.8166  1.4099  3.0742
  359MOL0     H47360  -2.713   5.702   5.863 -0.2007  0.8844 -1.5795
  359MOL0     H47361  -2.605   5.661   5.738 -2.4704  0.7689 -1.1912
  359MOL0     H47362  -2.757   5.462   5.894  0.0531  2.2597  0.8876
  359MOL0     H47363  -2.631   5.411   5.778 -0.7138  0.5393 -1.9681
  359MOL0     H47364  -2.747   5.544   5.588 -1.5569  0.3496 -0.9712
  359MOL0     H47365  -2.887   5.573   5.692 -1.0340 -0.2243 -1.5115
  359MOL0     H47366  -2.786   5.295   5.633 -0.1475  0.2399 -2.5841
  359MOL0     H47367  -2.921   5.350   5.729 -1.0454  2.5796  0.1335
  359MOL0     H47368  -2.961   5.496   5.501 -2.2006 -0.6795  0.3449
  359MOL0     H47369  -3.024   5.329   5.500 -1.4162  1.4496 -2.2790
  359MOL0     H47370  -1.944   5.459   5.847 -0.5442 -2.6634  0.7366
  359MOL0     H47371  -1.739   5.509   5.952  0.5027  0.2131  0.9814
  359MOL0     H47372  -1.565   5.777   6.252  0.0436  3.2981  3.3637
  359MOL0     H47373  -1.379   5.907   6.345  1.7721 -0.2720 -0.0988
  359MOL0     H47374   0.336   6.525   6.369 -0.7766  0.2792  1.2976
  359MOL0     H47375   0.563   6.569   6.435 -1.7038  0.1647  2.2001
  359MOL0     H47376   0.918   7.073   6.319 -0.1652  0.0880 -1.2165
  359MOL0     H47377   1.170   7.067   6.318 -0.4052  3.6507  3.9099
  359MOL0     H47378   1.306   6.659   6.360  1.1315 -2.6938  2.8551
  359MOL0     H47379   1.355   6.715   6.519  1.1433 -3.2640 -0.4912
  359MOL0     H47380   1.547   6.634   6.423  0.8875 -1.1319 -1.5245
  359MOL0     H47381   1.527   6.718   6.268 -1.4169 -1.4282 -0.2107
  359MOL0     H47382   1.552   6.867   6.536  0.7682 -1.1070  1.0368
  359MOL0     H47383   1.574   6.932   6.373 -1.2220  3.7386  4.3046
  359MOL0     H47384   1.793   6.911   6.480  0.5320  0.3340 -2.4337
  359MOL0     H47385   1.756   6.746   6.527 -3.3222  1.1526  1.7824
  359MOL0     H47386   1.927   6.691   6.162  4.2227  1.3181  2.5147
  359MOL0     H47387   1.147   6.686   6.520  0.6715  0.4453  0.8836
  359MOL0     H47388   0.903   6.709   6.546  1.8949 -0.5466  2.0223
  360MOL0     O47389   4.237   3.897   5.333  0.8835  0.8908 -0.4381
  360MOL0     C47390   4.246   3.823   5.236 -0.4350 -0.1345  0.4733
  360MOL0     O47391   4.143   3.766   5.165 -0.2784  0.7875 -0.0110
  360MOL0     C47392   4.013   3.776   5.211 -0.1713 -0.5458 -0.1716
  360MOL0     C47393   3.951   3.908   5.237  0.7020  0.5413 -0.4638
  360MOL0     C47394   3.814   3.917   5.263 -0.8117 -0.3140 -0.1756
  360MOL0     C47395   3.740   3.796   5.259 -0.9526 -0.2134  0.4450
  360MOL0     O47396   3.607   3.791   5.294 -0.1920 -0.2206  0.6528
  360MOL0     C47397   3.525   3.908   5.290 -0.1005 -0.2844 -0.3717
  360MOL0     C47398   3.402   3.853   5.361  0.6238  0.0103  0.0618
  360MOL0     C47399   3.306   3.970   5.375 -0.1597 -0.0053 -0.8710
  360MOL0     C47400   3.268   4.043   5.244  0.7041 -0.9493  0.6652
  360MOL0     C47401   3.151   4.145   5.270 -0.8115  0.4774 -0.4317
  360MOL0     C47402   3.025   4.073   5.315 -0.1232 -0.1843 -0.0392
  360MOL0     C47403   2.974   3.973   5.212 -0.0650  0.2510  0.1736
  360MOL0     C47404   2.832   3.936   5.229  0.2068 -0.2767 -0.4628
  360MOL0     N47405   2.739   4.018   5.148 -0.5671 -0.6356 -1.3288
  360MOL0     C47406   2.637   3.980   5.063 -0.3693  0.9754  0.3212
  360MOL0     C47407   2.547   4.088   5.067  0.5937  0.1274 -0.6094
  360MOL0     C47408   2.407   4.072   5.016  0.5916 -0.9907  0.2317
  360MOL0     C47409   2.297   4.035   5.117  1.7275  0.3312 -0.3034
  360MOL0     C47410   2.167   4.108   5.075 -0.1532 -0.4015  0.2088
  360MOL0     C47411   2.041   4.050   5.153 -0.7762 -0.4319  0.7951
  360MOL0     O47412   2.010   3.918   5.118 -0.2773  0.5067  0.2904
  360MOL0     C47413   1.885   3.898   5.074  0.1869  0.3599 -0.0746
  360MOL0     C47414   1.770   3.971   5.118 -1.6411 -0.4350 -0.1379
  360MOL0     C47415   1.649   3.935   5.057  0.0794  0.1007  0.7447
  360MOL0     C47416   1.641   3.840   4.952 -0.5254 -0.5441  0.1898
  360MOL0     C47417   1.517   3.801   4.892 -1.0001  0.1804  0.3618
  360MOL0     O47418   1.514   3.677   4.838  0.5194 -0.6079  0.1094
  360MOL0     C47419   1.396   3.618   4.811  0.2707  0.1820  0.3455
  360MOL0     C47420   1.290   3.610   4.902  0.2661  0.5580 -0.2562
  360MOL0     C47421   1.182   3.530   4.862  0.9963  0.6171  0.3664
  360MOL0     C47422   1.164   3.460   4.746 -0.3294  0.4840  0.5959
  360MOL0     O47423   1.052   3.392   4.711 -0.0080  0.2627 -0.1112
  360MOL0     C47424   0.930   3.462   4.751 -0.2570  0.1001 -0.2367
  360MOL0     C47425   0.819   3.402   4.668 -1.0752  0.1878 -0.4285
  360MOL0     C47426   0.817   3.431   4.517  0.4617  0.6960  0.7131
  360MOL0     C47427   0.677   3.395   4.451 -0.3142  0.6421 -0.0828
  360MOL0     C47428   0.646   3.244   4.438  0.1851  0.4091  0.5987
  360MOL0     C47429   0.509   3.230   4.377 -0.6117 -0.2398  0.7011
  360MOL0     C47430   0.474   3.083   4.347 -0.0456 -0.3086 -0.2688
  360MOL0     C47431   0.331   3.053   4.334  0.8309 -0.0572 -0.3822
  360MOL0    Cl47432   0.270   3.143   4.184  0.0249 -0.1448 -0.3172
  360MOL0     C47433   1.268   3.479   4.661 -0.8198  1.3212 -0.0852
  360MOL0     C47434   1.384   3.549   4.687 -0.4389  0.2324  1.1230
  360MOL0     O47435   1.426   3.884   4.887 -0.0701  0.1944 -0.9436
  360MOL0     C47436   1.763   3.778   4.909  0.8689  0.5237 -0.1053
  360MOL0     C47437   1.877   3.799   4.974  0.0816 -0.5354 -0.4026
  360MOL0     N47438   2.604   4.180   5.157 -0.3943 -0.4904  0.2011
  360MOL0     N47439   2.713   4.138   5.200 -0.0097  0.4873 -0.4751
  360MOL0     C47440   3.804   3.675   5.243 -0.6638  0.1244 -0.2021
  360MOL0     C47441   3.936   3.661   5.215 -0.4587  0.0087  0.5970
  360MOL0     C47442   4.383   3.806   5.173  0.6472  0.3663 -0.5981
  360MOL0     C47443   4.490   3.887   5.191  1.8490  0.0924  0.2583
  360MOL0     C47444   4.618   3.872   5.125  0.4841  0.4579  0.3404
  360MOL0     C47445   4.631   3.768   5.034  0.2883  0.2691 -0.4701
  360MOL0     O47446   4.753   3.751   4.971  0.9649  0.1700 -0.4740
  360MOL0     C47447   4.766   3.640   4.889 -0.4784  0.3071 -0.1442
  360MOL0     C47448   4.903   3.643   4.822 -0.1374 -0.2712  0.3463
  360MOL0     C47449   5.015   3.583   4.901 -0.0022 -0.4131 -0.2252
  360MOL0     C47450   5.140   3.596   4.818  0.3128  0.0488  0.1387
  360MOL0     C47451   5.234   3.481   4.845  1.2318 -1.0159  0.3116
  360MOL0     C47452   5.312   3.395   4.853  0.3207 -0.2394 -0.8095
  360MOL0     C47453   4.518   3.681   5.008  0.4526  0.5044  0.2061
  360MOL0     C47454   4.402   3.697   5.082  0.0315 -0.5512 -0.0442
  360MOL0     H47455   4.021   3.990   5.223 -0.2714  1.3623 -0.6040
  360MOL0     H47456   3.764   4.011   5.285 -0.1514  0.5254 -1.9838
  360MOL0     H47457   3.496   3.932   5.188 -0.7517 -3.6101 -1.1086
  360MOL0     H47458   3.569   3.985   5.353  2.1758 -3.0528  1.6953
  360MOL0     H47459   3.415   3.816   5.463 -0.5465  0.3441  0.3499
  360MOL0     H47460   3.343   3.783   5.300  0.4660  0.0546  0.1627
  360MOL0     H47461   3.365   4.028   5.448  0.1881 -2.6741  1.1547
  360MOL0     H47462   3.217   3.935   5.429 -0.3920  0.1344 -1.1649
  360MOL0     H47463   3.355   4.100   5.212  0.5583 -0.5971  0.8982
  360MOL0     H47464   3.245   3.971   5.165  0.8993 -0.6050  0.2913
  360MOL0     H47465   3.128   4.187   5.172 -0.4062 -2.1780 -1.7414
  360MOL0     H47466   3.170   4.222   5.346 -1.0689 -0.7000  0.8551
  360MOL0     H47467   2.962   4.163   5.312  0.0894 -0.0566 -0.6878
  360MOL0     H47468   3.027   4.042   5.420 -1.4222 -1.4071 -0.3435
  360MOL0     H47469   2.990   3.999   5.107 -1.3593  2.2395  0.4204
  360MOL0     H47470   3.031   3.884   5.239  0.7267  0.9003  0.7369
  360MOL0     H47471   2.805   3.947   5.334 -2.8855 -0.5996 -1.1430
  360MOL0     H47472   2.809   3.830   5.215 -1.8172 -0.8963  5.0881
  360MOL0     H47473   2.629   3.883   5.014  1.7899  1.4112 -1.0268
  360MOL0     H47474   2.409   3.998   4.936  2.2678 -0.1303 -0.5757
  360MOL0     H47475   2.385   4.170   4.973 -0.9100 -1.7954 -0.9375
  360MOL0     H47476   2.333   4.067   5.215  1.2550 -2.2675  0.7917
  360MOL0     H47477   2.285   3.927   5.124 -2.1086  0.6395 -0.2753
  360MOL0     H47478   2.171   4.214   5.102 -1.0328 -0.4045  0.3873
  360MOL0     H47479   2.145   4.105   4.968 -0.1252 -2.7060  0.2083
  360MOL0     H47480   1.963   4.116   5.113 -1.5499 -1.5494  0.4000
  360MOL0     H47481   2.042   4.056   5.262 -1.4946 -2.5667  0.9636
  360MOL0     H47482   1.772   4.048   5.195  2.1784  1.7866 -2.1456
  360MOL0     H47483   1.554   3.982   5.081 -1.1816 -1.5971 -0.6234
  360MOL0     H47484   1.290   3.669   4.993  2.1235 -0.2753  0.3079
  360MOL0     H47485   1.102   3.514   4.934  0.9303  2.1876  0.6659
  360MOL0     H47486   0.940   3.570   4.739  2.8306  0.6839  4.5337
  360MOL0     H47487   0.906   3.439   4.856  0.6499  0.0367 -0.0348
  360MOL0     H47488   0.716   3.424   4.698 -1.8725  0.7941 -3.2863
  360MOL0     H47489   0.838   3.296   4.681  0.6299  0.6739  1.5073
  360MOL0     H47490   0.900   3.381   4.466  1.9638  1.4901  2.2725
  360MOL0     H47491   0.826   3.536   4.489 -1.3474  0.5034 -0.7388
  360MOL0     H47492   0.608   3.454   4.512  0.4061  1.0080  0.4085
  360MOL0     H47493   0.679   3.441   4.352 -2.1151 -1.0359 -0.9490
  360MOL0     H47494   0.644   3.179   4.527  4.4355 -1.1627 -0.2217
  360MOL0     H47495   0.718   3.204   4.366  1.0958  2.4199  0.3463
  360MOL0     H47496   0.511   3.279   4.279  1.3240 -0.8136  0.4003
  360MOL0     H47497   0.439   3.279   4.444 -1.4742 -1.0929  0.4451
  360MOL0     H47498   0.510   3.044   4.251  0.6485  1.6553 -0.8647
  360MOL0     H47499   0.516   3.029   4.432  1.4736  2.3226  0.7987
  360MOL0     H47500   0.284   3.085   4.427  0.6003 -1.8472  0.1396
  360MOL0     H47501   0.309   2.947   4.348 -0.2715 -0.0701 -1.9235
  360MOL0     H47502   1.247   3.443   4.561  2.4766  1.4426 -0.9500
  360MOL0     H47503   1.460   3.543   4.609 -0.7234 -1.5604  0.9475
  360MOL0     H47504   1.767   3.708   4.826 -0.3576 -0.1246  0.3541
  360MOL0     H47505   1.964   3.750   4.931  1.3654  0.6071  0.8119
  360MOL0     H47506   3.751   3.580   5.242  0.1431 -0.3388 -1.8641
  360MOL0     H47507   3.966   3.558   5.200 -0.8268  0.2734 -2.7077
  360MOL0     H47508   4.481   3.978   5.250  1.9635  1.2130 -1.3983
  360MOL0     H47509   4.698   3.942   5.147 -0.8735  1.6045  1.9131
  360MOL0     H47510   4.683   3.633   4.818 -3.7323 -2.6595  3.4758
  360MOL0     H47511   4.763   3.548   4.948  3.0975  0.2095  0.0765
  360MOL0     H47512   4.873   3.580   4.738 -1.2288  3.7873 -2.6309
  360MOL0     H47513   4.918   3.746   4.787 -0.2369 -0.5081 -0.3868
  360MOL0     H47514   4.987   3.479   4.921 -0.1096 -0.2027  0.8077
  360MOL0     H47515   5.020   3.633   4.998 -2.0290 -0.1600 -0.2030
  360MOL0     H47516   5.119   3.577   4.713  4.0605 -2.2301 -0.3979
  360MOL0     H47517   5.189   3.693   4.830  2.2461 -1.0326  1.6214
  360MOL0     H47518   5.381   3.313   4.856  1.7921  0.9765  1.5091
  360MOL0     H47519   4.514   3.598   4.938  0.8636  1.8066 -1.4037
  360MOL0     H47520   4.320   3.628   5.061 -1.7138  2.0665 -2.6218
  361MOL0     O47521   5.270   8.900   0.364 -0.2698 -0.4643 -0.4280
  361MOL0     C47522   5.181   8.988   0.341  0.0282 -0.0428  0.2927
  361MOL0     O47523   5.166   9.106   0.403 -0.4664  0.1895 -0.3124
  361MOL0     C47524   5.268   9.131   0.493  0.1574 -0.6032 -0.1887
  361MOL0     C47525   5.395   9.176   0.451 -0.5592 -0.1588 -0.2766
  361MOL0     C47526   5.498   9.198   0.550  0.2890  0.7619  0.5774
  361MOL0     C47527   5.476   9.168   0.685 -1.1189 -0.2566 -0.4593
  361MOL0     O47528   5.575   9.188   0.780  0.1260  0.5858 -0.4474
  361MOL0     C47529   5.612   9.088   0.875 -0.3001 -0.8310 -0.4743
  361MOL0     C47530   5.630   8.954   0.815  0.6030  0.1726  0.2982
  361MOL0     C47531   5.677   8.863   0.925  0.5160  0.2180 -0.2445
  361MOL0     C47532   5.720   8.730   0.875  0.7347  0.2915  0.4670
  361MOL0     C47533   5.739   8.641   0.997  0.0811  0.9787 -0.3714
  361MOL0     C47534   5.781   8.492   0.972 -0.5291  0.2648 -0.3883
  361MOL0     C47535   5.659   8.407   0.945 -0.1644  0.2409  0.6215
  361MOL0     C47536   5.687   8.283   0.865 -0.0446  0.4895  0.8355
  361MOL0     N47537   5.801   8.203   0.913  0.0725 -0.0843  0.3986
  361MOL0     C47538   5.781   8.127   1.025 -0.4353  0.8332 -0.4441
  361MOL0     C47539   5.901   8.064   1.047  0.9139  0.3133 -0.2380
  361MOL0     C47540   5.937   7.960   1.157  0.5156 -0.8324  0.1537
  361MOL0     C47541   6.039   8.020   1.256  0.0743  0.0017  0.5462
  361MOL0     C47542   6.083   7.939   1.378 -0.6161 -0.2672 -0.3023
  361MOL0     C47543   6.009   7.976   1.515  0.0740 -0.4946 -0.0557
  361MOL0     O47544   5.869   7.931   1.517 -0.0201  0.6986 -0.2562
  361MOL0     C47545   5.767   8.003   1.463 -0.1568 -0.1975 -0.6785
  361MOL0     C47546   5.643   7.939   1.441 -0.2815 -0.5789 -0.2933
  361MOL0     C47547   5.528   8.007   1.385 -0.8580  0.4273 -1.2817
  361MOL0     C47548   5.547   8.142   1.352  0.2559  0.5426 -0.5487
  361MOL0     C47549   5.435   8.217   1.307 -0.4245 -0.3528 -0.8778
  361MOL0     O47550   5.468   8.307   1.225 -0.1055 -0.0600 -1.0166
  361MOL0     C47551   5.377   8.397   1.163 -0.4123  1.2390  0.1232
  361MOL0     C47552   5.255   8.358   1.099 -0.5715 -0.1533  0.8237
  361MOL0     C47553   5.161   8.453   1.051 -0.4588  0.1707  0.0400
  361MOL0     C47554   5.190   8.589   1.064 -0.5472 -0.0034 -0.0606
  361MOL0     O47555   5.113   8.694   1.024 -0.3618 -0.0909 -0.3786
  361MOL0     C47556   4.979   8.676   1.002  0.0542  0.2381 -0.1113
  361MOL0     C47557   4.908   8.776   1.085  0.2571  0.2244  0.7164
  361MOL0     C47558   4.970   8.913   1.066 -0.1334 -0.9419  1.0754
  361MOL0     C47559   4.870   9.022   1.121 -0.0334  0.9182 -0.1901
  361MOL0     C47560   4.883   9.163   1.077 -0.1218  0.9217  1.0112
  361MOL0     C47561   4.752   9.242   1.108 -0.0175 -0.3879  0.4194
  361MOL0     C47562   4.734   9.352   1.000  0.6232  0.0924 -0.5730
  361MOL0     C47563   4.614   9.442   1.024  0.1413 -0.0528 -0.4655
  361MOL0    Cl47564   4.461   9.367   0.996 -0.3850 -0.0507 -0.1345
  361MOL0     C47565   5.317   8.626   1.128  0.7338  0.3381  0.6193
  361MOL0     C47566   5.400   8.527   1.173 -0.1133 -0.1166 -0.4138
  361MOL0     O47567   5.332   8.194   1.360 -0.6080 -0.4976  0.8356
  361MOL0     C47568   5.673   8.209   1.371  0.5021  0.5234  0.0838
  361MOL0     C47569   5.778   8.139   1.428  0.3966 -0.1547 -0.3587
  361MOL0     N47570   5.981   8.103   0.939 -0.2700  0.7945 -0.3167
  361MOL0     N47571   5.919   8.182   0.860 -0.9699 -0.8571 -0.1639
  361MOL0     C47572   5.349   9.128   0.728  0.1116  1.0137 -0.5431
  361MOL0     C47573   5.243   9.122   0.632 -0.4951  0.4680 -0.1226
  361MOL0     C47574   5.069   8.961   0.236 -0.9446 -0.1797 -0.1225
  361MOL0     C47575   4.985   9.067   0.207  0.7129 -0.2429 -0.5491
  361MOL0     C47576   4.877   9.055   0.115 -0.8023 -0.6699  0.6617
  361MOL0     C47577   4.870   8.936   0.034 -0.1435 -0.6347  0.0064
  361MOL0     O47578   4.772   8.935  -0.068 -0.2506 -0.5027 -0.1318
  361MOL0     C47579   4.765   8.828  -0.164  0.2888  0.7454 -0.3026
  361MOL0     C47580   4.643   8.740  -0.133 -0.7707 -0.3605  0.0710
  361MOL0     C47581   4.635   8.681   0.014 -0.4198  0.4006  0.4937
  361MOL0     C47582   4.505   8.600   0.030  0.6049  0.7187 -0.0166
  361MOL0     C47583   4.492   8.568   0.171  0.0462 -0.5142  0.6258
  361MOL0     C47584   4.459   8.556   0.287 -0.3907 -0.2844  0.2328
  361MOL0     C47585   4.965   8.827   0.068  0.8566  0.2369  0.2425
  361MOL0     C47586   5.062   8.845   0.161  0.2668  0.2584 -0.0522
  361MOL0     H47587   5.425   9.190   0.348  2.5997 -1.4980  0.3591
  361MOL0     H47588   5.594   9.232   0.513 -0.0352  1.1076  0.0469
  361MOL0     H47589   5.547   9.090   0.963  0.3799 -1.9688  0.0789
  361MOL0     H47590   5.711   9.115   0.913 -1.1240  0.2563  0.9873
  361MOL0     H47591   5.705   8.959   0.736  0.0611  0.7721 -0.1942
  361MOL0     H47592   5.533   8.917   0.779  0.7808 -0.4822  0.4862
  361MOL0     H47593   5.588   8.845   0.986 -0.2161 -0.9690 -1.5939
  361MOL0     H47594   5.757   8.909   0.983  0.9891 -0.9755  0.0834
  361MOL0     H47595   5.638   8.690   0.814  2.5845 -2.8317 -0.1779
  361MOL0     H47596   5.810   8.736   0.813 -1.0300  1.4117 -2.1937
  361MOL0     H47597   5.656   8.632   1.067  0.5331 -3.3653 -0.0826
  361MOL0     H47598   5.824   8.692   1.043  0.7345  1.4974 -2.0753
  361MOL0     H47599   5.828   8.446   1.060 -0.0746 -1.5876 -1.5511
  361MOL0     H47600   5.856   8.489   0.892 -0.5262  0.9180 -0.4127
  361MOL0     H47601   5.623   8.376   1.043 -1.4201 -1.1701 -0.2374
  361MOL0     H47602   5.586   8.470   0.892  0.5251 -1.6995 -2.8890
  361MOL0     H47603   5.721   8.314   0.766 -0.7071 -0.4751  0.2975
  361MOL0     H47604   5.598   8.221   0.856  1.6954 -1.9683 -0.4967
  361MOL0     H47605   5.703   8.142   1.098  0.5857  1.1063  0.6094
  361MOL0     H47606   5.992   7.879   1.110  1.2150 -0.1581 -0.2188
  361MOL0     H47607   5.843   7.916   1.192 -0.1757 -1.8850 -2.7245
  361MOL0     H47608   6.013   8.124   1.280 -0.4162  0.0580 -0.1847
  361MOL0     H47609   6.126   8.052   1.198 -0.7300  1.4906  0.1098
  361MOL0     H47610   6.077   7.831   1.361 -0.9350  0.1321 -3.2270
  361MOL0     H47611   6.186   7.968   1.401 -1.4283  0.9632  2.1288
  361MOL0     H47612   6.024   8.083   1.535 -0.2293  0.7400 -4.9679
  361MOL0     H47613   6.052   7.923   1.600  0.7897 -1.1872 -0.8316
  361MOL0     H47614   5.629   7.838   1.479 -0.6901 -0.6624 -0.6508
  361MOL0     H47615   5.434   7.954   1.374 -0.4646 -0.2719 -1.3518
  361MOL0     H47616   5.230   8.255   1.120  0.3519  0.3223  5.2219
  361MOL0     H47617   5.064   8.422   1.014 -0.6196  0.6505  0.0437
  361MOL0     H47618   4.946   8.572   1.012  1.3803 -0.2392 -0.4144
  361MOL0     H47619   4.955   8.690   0.896 -1.2195 -1.5844 -0.1033
  361MOL0     H47620   4.910   8.743   1.190  2.2428  1.8609  1.2481
  361MOL0     H47621   4.801   8.778   1.062  0.5376  2.0265 -0.5514
  361MOL0     H47622   4.976   8.945   0.962  1.0470 -0.6196  1.2361
  361MOL0     H47623   5.071   8.915   1.107 -0.6671 -1.0242  2.4456
  361MOL0     H47624   4.766   8.990   1.106 -0.0445  0.8207  0.0909
  361MOL0     H47625   4.881   9.020   1.230  1.5149  1.3122 -0.3132
  361MOL0     H47626   4.903   9.179   0.970 -1.4145  1.4475  0.8326
  361MOL0     H47627   4.972   9.199   1.130  1.0577  0.0532 -0.3050
  361MOL0     H47628   4.764   9.279   1.210  4.8960  1.0288 -0.4146
  361MOL0     H47629   4.667   9.175   1.097 -1.1093  0.6329  2.1700
  361MOL0     H47630   4.824   9.415   0.997  1.1076 -0.4064  1.5333
  361MOL0     H47631   4.722   9.282   0.918  3.6340 -1.3318  0.0531
  361MOL0     H47632   4.621   9.537   0.968 -0.1100 -0.0382 -0.4751
  361MOL0     H47633   4.604   9.483   1.125 -1.1052 -2.7227  0.5884
  361MOL0     H47634   5.333   8.733   1.135  0.7482  0.7200 -3.4155
  361MOL0     H47635   5.481   8.551   1.240 -1.0007  0.3444  0.5139
  361MOL0     H47636   5.689   8.312   1.340 -0.7826  0.4812 -0.7949
  361MOL0     H47637   5.874   8.187   1.445  0.9128 -1.2463 -0.1504
  361MOL0     H47638   5.328   9.108   0.832 -2.5177  4.3209 -0.2553
  361MOL0     H47639   5.141   9.101   0.663 -0.1662 -1.9970 -0.4747
  361MOL0     H47640   4.985   9.164   0.255 -0.9819  0.7798 -2.4551
  361MOL0     H47641   4.810   9.135   0.085  0.0968 -0.2924 -0.4234
  361MOL0     H47642   4.863   8.781  -0.166  1.2632  2.6900 -0.5295
  361MOL0     H47643   4.756   8.869  -0.265 -0.0626  1.5767  0.0627
  361MOL0     H47644   4.554   8.799  -0.154 -0.5765  0.4352  1.3284
  361MOL0     H47645   4.636   8.655  -0.201 -1.5498 -0.0462 -0.2521
  361MOL0     H47646   4.642   8.762   0.087  0.8144  0.8273 -0.0768
  361MOL0     H47647   4.724   8.618   0.020  0.4255  1.2758 -1.9794
  361MOL0     H47648   4.420   8.666   0.007 -0.0417 -0.6663 -1.8858
  361MOL0     H47649   4.517   8.517  -0.040  0.6744  2.1416 -1.7709
  361MOL0     H47650   4.426   8.558   0.389  2.4674  1.2603  1.2554
  361MOL0     H47651   4.959   8.729   0.021 -0.6555  0.5718 -0.3352
  361MOL0     H47652   5.131   8.762   0.176 -1.7903 -1.3041  1.3355
  362MOL0     O47653   9.265   4.193   9.897  0.1027 -0.2797  0.0524
  362MOL0     C47654   9.351   4.227   9.978 -0.3993 -0.1527 -0.1400
  362MOL0     O47655   9.342   4.235  10.117  0.1792 -0.1458 -0.0063
  362MOL0     C47656   9.223   4.219  10.183  0.5210 -0.1140 -0.5801
  362MOL0     C47657   9.179   4.327  10.246 -0.3154  0.1876  0.5361
  362MOL0     C47658   9.055   4.320  10.318 -0.3442  0.9131 -0.0305
  362MOL0     C47659   8.976   4.202  10.322  0.1158 -0.5979 -0.5427
  362MOL0     O47660   8.854   4.193  10.384 -0.5478  0.5132 -0.1166
  362MOL0     C47661   8.784   4.306  10.429  0.0545 -0.3048 -0.6042
  362MOL0     C47662   8.645   4.263  10.448  0.2926  0.1262 -0.2085
  362MOL0     C47663   8.579   4.219  10.313 -0.0517  0.5862 -1.0426
  362MOL0     C47664   8.440   4.176  10.324 -0.2251 -1.5167 -0.0141
  362MOL0     C47665   8.376   4.155  10.178  0.9546 -0.1026  0.4415
  362MOL0     C47666   8.234   4.085  10.173  1.2624  0.2817  1.1436
  362MOL0     C47667   8.125   4.174  10.232  0.1722 -0.0896  0.1529
  362MOL0     C47668   8.069   4.286  10.123  0.0717 -0.1382 -0.7477
  362MOL0     N47669   7.926   4.257  10.086 -0.4050 -0.0747 -0.1653
  362MOL0     C47670   7.823   4.233  10.172  0.5384 -0.4689  0.3708
  362MOL0     C47671   7.717   4.236  10.082 -0.2385 -0.0071 -0.5886
  362MOL0     C47672   7.572   4.230  10.118  0.0392 -0.1351  0.1759
  362MOL0     C47673   7.492   4.149  10.022  0.2205  0.2115 -0.2152
  362MOL0     C47674   7.445   4.233   9.906  0.2342 -0.4321 -0.2034
  362MOL0     C47675   7.465   4.151   9.769 -0.3175  0.5508 -0.3927
  362MOL0     O47676   7.393   4.022   9.765  0.5898  0.1574 -0.3339
  362MOL0     C47677   7.262   4.026   9.703  0.5863 -0.1250 -0.1212
  362MOL0     C47678   7.191   4.142   9.692 -1.1118 -0.1516  0.4222
  362MOL0     C47679   7.059   4.139   9.648 -1.3142 -0.1032 -0.6079
  362MOL0     C47680   7.001   4.021   9.604  0.2337  0.3675 -0.7293
  362MOL0     C47681   6.857   4.019   9.560  0.7852 -0.0114  0.2499
  362MOL0     O47682   6.809   4.145   9.519  0.0738  0.5218 -0.8288
  362MOL0     C47683   6.680   4.147   9.470  0.2054 -0.0496  0.5190
  362MOL0     C47684   6.641   4.084   9.351  0.9266 -0.4980 -0.6960
  362MOL0     C47685   6.515   4.109   9.298 -0.1818 -0.7583  0.8252
  362MOL0     C47686   6.431   4.213   9.354  0.0207 -0.0747  0.0039
  362MOL0     O47687   6.320   4.243   9.273 -0.4558  0.2428  0.1884
  362MOL0     C47688   6.203   4.266   9.351  0.9038 -0.2842  0.2580
  362MOL0     C47689   6.091   4.308   9.248 -0.4467  0.1068 -0.3973
  362MOL0     C47690   5.944   4.300   9.302  0.1719 -0.6357  0.2049
  362MOL0     C47691   5.845   4.327   9.185 -0.0365 -0.7703 -0.4795
  362MOL0     C47692   5.699   4.317   9.226 -0.6541  0.5256 -0.3340
  362MOL0     C47693   5.655   4.450   9.298 -0.7414  0.0123  0.5390
  362MOL0     C47694   5.514   4.457   9.340 -0.2053  0.0285  0.2220
  362MOL0     C47695   5.407   4.434   9.238 -0.8630  0.3485 -0.8022
  362MOL0    Cl47696   5.253   4.477   9.311  0.3738  0.2111  0.1778
  362MOL0     C47697   6.467   4.273   9.481  0.2534 -0.4405  0.2044
  362MOL0     C47698   6.596   4.241   9.536 -0.0880  0.7038  0.3496
  362MOL0     O47699   6.795   3.915   9.563  0.2902 -0.0452  0.0813
  362MOL0     C47700   7.074   3.901   9.615 -0.0990 -0.3148  0.8625
  362MOL0     C47701   7.205   3.902   9.664 -0.7436  0.1362 -0.6746
  362MOL0     N47702   7.762   4.238   9.953  0.3493 -0.2508  0.1291
  362MOL0     N47703   7.884   4.235   9.958 -0.9585 -0.2946  0.5428
  362MOL0     C47704   9.034   4.090  10.266 -0.5453 -0.0993  0.8582
  362MOL0     C47705   9.154   4.099  10.197 -0.4010  0.6327 -0.9736
  362MOL0     C47706   9.486   4.240   9.916  0.0811 -0.5149 -0.5576
  362MOL0     C47707   9.501   4.232   9.776  0.6470 -0.7258  0.3040
  362MOL0     C47708   9.624   4.242   9.716 -0.2893 -0.2531 -0.8222
  362MOL0     C47709   9.740   4.268   9.797  0.6477  0.5079  0.8227
  362MOL0     O47710   9.862   4.293   9.733  0.2451  0.9070  0.3079
  362MOL0     C47711   9.973   4.327   9.815 -0.2671 -0.3186 -0.0803
  362MOL0     C47712  10.058   4.205   9.858  0.2833 -0.8221 -0.2475
  362MOL0     C47713  10.087   4.122   9.736  0.2836 -0.9216 -0.5456
  362MOL0     C47714  10.177   4.005   9.763  0.2840  0.1981 -0.0080
  362MOL0     C47715  10.302   4.039   9.833  0.2031 -0.6743 -1.3174
  362MOL0     C47716  10.409   4.049   9.888  0.4441 -0.0698 -0.4890
  362MOL0     C47717   9.722   4.282   9.937 -0.7435  0.3376 -0.7690
  362MOL0     C47718   9.596   4.269   9.997  0.9532 -0.1037  0.1981
  362MOL0     H47719   9.225   4.426  10.242  1.2585 -0.5491 -0.4201
  362MOL0     H47720   9.008   4.409  10.360  0.2133  0.5838  1.3696
  362MOL0     H47721   8.784   4.387  10.356 -0.5437 -0.7524 -1.1107
  362MOL0     H47722   8.829   4.342  10.522  0.2157 -0.3183 -0.6768
  362MOL0     H47723   8.589   4.352  10.477  0.4956  0.3523 -0.5037
  362MOL0     H47724   8.629   4.183  10.520 -1.4710  1.3245  0.7923
  362MOL0     H47725   8.636   4.136  10.270 -1.0912 -0.7663  0.1042
  362MOL0     H47726   8.590   4.308  10.250  0.1526  1.7876  0.6329
  362MOL0     H47727   8.449   4.083  10.381 -0.8709 -1.7580 -0.2925
  362MOL0     H47728   8.389   4.260  10.372 -1.0790 -2.5169  0.8766
  362MOL0     H47729   8.440   4.103  10.105 -1.7746 -1.4214 -1.2133
  362MOL0     H47730   8.358   4.255  10.139 -1.9795 -0.6092  0.2472
  362MOL0     H47731   8.224   3.989  10.224  2.4051 -0.0921  0.6969
  362MOL0     H47732   8.212   4.064  10.068  1.8109  0.5473  0.9714
  362MOL0     H47733   8.049   4.104  10.267  1.8680 -1.8510  0.4835
  362MOL0     H47734   8.160   4.232  10.317  1.2506 -0.2567 -0.1676
  362MOL0     H47735   8.119   4.294  10.026 -0.0386  3.0997 -0.6545
  362MOL0     H47736   8.080   4.386  10.165 -0.0788 -0.9125  1.2172
  362MOL0     H47737   7.824   4.230  10.281 -1.8789 -0.3765  0.4374
  362MOL0     H47738   7.532   4.332  10.122  1.2397  0.3380  0.4725
  362MOL0     H47739   7.563   4.184  10.217  0.6886  0.3914  0.4833
  362MOL0     H47740   7.411   4.098  10.076  0.7518  0.9747  1.3657
  362MOL0     H47741   7.559   4.077   9.972 -1.5841  0.3196 -3.0044
  362MOL0     H47742   7.340   4.257   9.926 -0.2417 -4.0869  2.9679
  362MOL0     H47743   7.499   4.328   9.908  0.9740 -0.8243  2.0591
  362MOL0     H47744   7.572   4.127   9.765 -0.5946 -0.8734  0.0573
  362MOL0     H47745   7.443   4.208   9.679  0.6433  0.9938 -0.3609
  362MOL0     H47746   7.214   4.241   9.730 -3.3223 -0.1638  2.0045
  362MOL0     H47747   6.998   4.229   9.654  2.3590  2.5683  1.9007
  362MOL0     H47748   6.705   4.008   9.307  1.7931  0.9270 -1.9827
  362MOL0     H47749   6.488   4.068   9.202  1.9399 -1.0617  0.3132
  362MOL0     H47750   6.212   4.348   9.422  1.4193 -0.0176 -0.1037
  362MOL0     H47751   6.178   4.175   9.406  0.6200 -0.5419 -0.2823
  362MOL0     H47752   6.098   4.234   9.168 -2.4539 -1.5998  0.8827
  362MOL0     H47753   6.104   4.404   9.197 -4.7949 -0.0232 -2.1518
  362MOL0     H47754   5.939   4.371   9.385  1.5384 -0.2750 -0.0028
  362MOL0     H47755   5.923   4.198   9.338  0.4531  0.0001  2.3174
  362MOL0     H47756   5.857   4.423   9.134 -1.8044 -0.0541  0.3429
  362MOL0     H47757   5.861   4.248   9.111  2.8029 -0.5790 -0.1635
  362MOL0     H47758   5.679   4.224   9.279 -0.6805  1.1271  0.7380
  362MOL0     H47759   5.647   4.310   9.130 -1.0697 -1.3161 -0.0165
  362MOL0     H47760   5.679   4.535   9.233 -2.5526  0.3616  0.2726
  362MOL0     H47761   5.717   4.465   9.387 -1.5495  3.5775  0.6572
  362MOL0     H47762   5.508   4.384   9.420 -0.9042 -1.2874 -0.9892
  362MOL0     H47763   5.510   4.550   9.397 -0.3903 -0.5860  1.2198
  362MOL0     H47764   5.409   4.329   9.210 -1.6932  0.3592 -0.9157
  362MOL0     H47765   5.430   4.475   9.139 -0.1092 -2.8843 -2.0958
  362MOL0     H47766   6.412   4.352   9.530  2.4358  1.8927 -0.8801
  362MOL0     H47767   6.624   4.277   9.635  2.2689  2.9151 -1.0236
  362MOL0     H47768   7.028   3.804   9.598 -1.6229  0.6502 -0.8138
  362MOL0     H47769   7.263   3.811   9.670  0.5270  0.9586 -0.1747
  362MOL0     H47770   8.980   3.996  10.266 -0.7998  0.0403  0.0349
  362MOL0     H47771   9.196   4.009  10.154  2.2820  1.0670  0.4746
  362MOL0     H47772   9.415   4.220   9.711 -0.0989 -1.6000  1.4132
  362MOL0     H47773   9.622   4.252   9.608  1.5547  1.2497 -0.7715
  362MOL0     H47774   9.943   4.397   9.894  0.0520  0.3289 -0.5329
  362MOL0     H47775  10.043   4.381   9.751  2.6904 -2.8146  0.8227
  362MOL0     H47776  10.149   4.240   9.908  0.2360 -1.6371  0.4320
  362MOL0     H47777  10.012   4.134   9.927  4.7896 -2.7198  1.2431
  362MOL0     H47778  10.135   4.193   9.668  0.3771  0.0231  0.4843
  362MOL0     H47779   9.991   4.078   9.707 -0.0644 -3.7739  3.9191
  362MOL0     H47780  10.126   3.941   9.835  3.1549  1.1488  3.1137
  362MOL0     H47781  10.200   3.944   9.674  3.0469  0.3173  0.5346
  362MOL0     H47782  10.514   4.054   9.908  0.4293 -0.4897 -0.3027
  362MOL0     H47783   9.800   4.288  10.012 -1.8669 -0.4121  0.5012
  362MOL0     H47784   9.595   4.275  10.105 -0.1832 -2.6920  0.4061
  363MOL0     O47785   1.448   7.245   0.284  0.2028 -0.5078 -0.4297
  363MOL0     C47786   1.504   7.137   0.311 -0.2200 -0.3427 -0.9219
  363MOL0     O47787   1.454   7.032   0.376  0.7213  0.7829  0.2230
  363MOL0     C47788   1.336   7.022   0.441  0.6902  0.5189  0.5492
  363MOL0     C47789   1.231   7.106   0.434 -0.7732 -0.5726  0.0345
  363MOL0     C47790   1.119   7.082   0.512  0.2750  0.5873 -0.0073
  363MOL0     C47791   1.113   6.971   0.601 -0.2973 -0.5298  0.4123
  363MOL0     O47792   1.016   6.960   0.696  0.0307  0.3587  0.4919
  363MOL0     C47793   0.882   6.999   0.668 -0.1953 -0.0348  0.0509
  363MOL0     C47794   0.796   6.897   0.742  0.7457 -0.8377 -0.0235
  363MOL0     C47795   0.664   6.967   0.776 -0.5640 -0.0553 -0.7211
  363MOL0     C47796   0.546   6.856   0.797  0.5640  0.8917  0.2041
  363MOL0     C47797   0.419   6.915   0.847  0.2158 -0.1227 -0.5691
  363MOL0     C47798   0.308   6.811   0.850  0.5157 -0.3912 -0.0734
  363MOL0     C47799   0.164   6.875   0.884 -0.8526 -0.8223 -0.4011
  363MOL0     C47800   0.158   6.935   1.026 -0.7313 -0.8058 -0.0674
  363MOL0     N47801   0.019   6.978   1.071  0.5912  0.6043  0.3247
  363MOL0     C47802  -0.090   6.890   1.087 -0.8181  0.3500  0.1445
  363MOL0     C47803  -0.173   6.967   1.161  0.0387 -0.7013 -0.1946
  363MOL0     C47804  -0.314   6.926   1.202 -0.0516  0.4105 -0.5289
  363MOL0     C47805  -0.414   7.000   1.126  0.4892  0.6326 -0.4541
  363MOL0     C47806  -0.554   6.949   1.148  0.1133 -0.1144 -0.8037
  363MOL0     C47807  -0.642   7.023   1.057  1.1157 -0.2288  0.4062
  363MOL0     O47808  -0.785   6.978   1.082 -0.0018  0.6934  0.1633
  363MOL0     C47809  -0.890   7.047   1.030 -0.0781 -0.0292  0.0670
  363MOL0     C47810  -1.010   6.985   1.054  0.5333 -1.3046  0.6570
  363MOL0     C47811  -1.130   7.036   0.993  0.7145  0.1171  0.5270
  363MOL0     C47812  -1.129   7.162   0.932 -1.2928  0.5690  0.2466
  363MOL0     C47813  -1.245   7.229   0.878  0.0647  0.2933 -0.5890
  363MOL0     O47814  -1.358   7.176   0.929  0.1854  0.4067  0.8855
  363MOL0     C47815  -1.471   7.204   0.859 -0.7566 -0.5323 -1.0983
  363MOL0     C47816  -1.481   7.202   0.716  0.3865  0.2338  0.9224
  363MOL0     C47817  -1.606   7.213   0.660 -0.0992  0.3535  0.7093
  363MOL0     C47818  -1.716   7.236   0.734 -0.4575  0.6710 -0.6053
  363MOL0     O47819  -1.843   7.243   0.676 -0.5023  0.6039  0.2085
  363MOL0     C47820  -1.871   7.126   0.600 -0.4275  0.9578 -0.1581
  363MOL0     C47821  -1.891   7.152   0.447 -0.6358  0.0445  1.1230
  363MOL0     C47822  -2.025   7.220   0.409  0.3538  0.0453  0.3993
  363MOL0     C47823  -2.013   7.377   0.416  0.1864 -0.8195  0.2522
  363MOL0     C47824  -2.139   7.457   0.473  0.4859 -0.2051 -0.5505
  363MOL0     C47825  -2.269   7.403   0.424  0.0554 -0.1302  0.1684
  363MOL0     C47826  -2.393   7.463   0.482 -0.2073 -0.2980  0.9432
  363MOL0     C47827  -2.529   7.398   0.451 -0.3011  0.7487  0.7431
  363MOL0    Cl47828  -2.561   7.428   0.278  0.3647 -0.2365 -0.2858
  363MOL0     C47829  -1.702   7.253   0.870  0.2805 -0.2566 -0.4167
  363MOL0     C47830  -1.587   7.222   0.935  0.3302 -0.8353 -1.1651
  363MOL0     O47831  -1.237   7.310   0.790 -0.3182  0.3666  0.4007
  363MOL0     C47832  -1.002   7.222   0.912  0.1007  0.0747 -0.9178
  363MOL0     C47833  -0.879   7.170   0.959  0.3313 -0.0155  0.5189
  363MOL0     N47834  -0.113   7.082   1.208 -0.0836  0.2685 -0.7852
  363MOL0     N47835   0.005   7.082   1.160  0.0980  0.1048  0.2493
  363MOL0     C47836   1.221   6.888   0.601 -0.7752  1.2292  0.4298
  363MOL0     C47837   1.329   6.906   0.511  0.7741 -0.7124 -0.0241
  363MOL0     C47838   1.651   7.126   0.274 -0.4499 -0.3701 -0.2360
  363MOL0     C47839   1.728   7.006   0.282  0.0198  0.2543  0.0879
  363MOL0     C47840   1.867   7.008   0.254 -0.4391  0.7342 -0.1706
  363MOL0     C47841   1.926   7.132   0.217 -0.3944  0.7698 -0.6400
  363MOL0     O47842   2.060   7.135   0.179 -0.2790  0.2325 -0.0094
  363MOL0     C47843   2.079   7.144   0.035  0.6260 -0.4622  0.5596
  363MOL0     C47844   2.179   7.037  -0.017  0.3111  0.1253  0.3310
  363MOL0     C47845   2.143   6.966  -0.155 -0.0181  0.0939 -0.2038
  363MOL0     C47846   2.160   7.057  -0.273  1.3071 -0.2638 -0.2558
  363MOL0     C47847   2.041   7.151  -0.296 -0.8624 -0.7891  0.0920
  363MOL0     C47848   1.945   7.233  -0.312 -1.0611  1.0364 -0.0083
  363MOL0     C47849   1.858   7.250   0.197  1.0217 -0.5870 -0.5489
  363MOL0     C47850   1.722   7.244   0.222 -0.2200  0.4452 -0.2164
  363MOL0     H47851   1.231   7.191   0.367  1.2859 -0.3127  0.3227
  363MOL0     H47852   1.044   7.160   0.519 -0.3430 -0.1048  1.3877
  363MOL0     H47853   0.849   6.990   0.564 -0.7865 -2.1495  0.3686
  363MOL0     H47854   0.862   7.101   0.700 -2.3629 -0.6384  0.7431
  363MOL0     H47855   0.838   6.874   0.840  0.5779  0.2193  0.3063
  363MOL0     H47856   0.778   6.810   0.677  0.7348 -0.0415 -1.1131
  363MOL0     H47857   0.631   7.029   0.692  2.5033 -0.3994 -2.3116
  363MOL0     H47858   0.676   7.041   0.856  0.6819  3.3593 -3.7425
  363MOL0     H47859   0.526   6.792   0.710  1.1685 -2.8321  2.5788
  363MOL0     H47860   0.577   6.788   0.877 -0.3182 -0.9333 -0.9379
  363MOL0     H47861   0.399   7.010   0.797 -0.3033  0.2216  0.2869
  363MOL0     H47862   0.454   6.961   0.939  1.2445  0.4618 -1.2313
  363MOL0     H47863   0.342   6.739   0.924 -0.7527  0.8325  1.7778
  363MOL0     H47864   0.303   6.756   0.755  0.5993  0.4820 -0.6020
  363MOL0     H47865   0.138   6.946   0.805 -2.7331 -2.0040 -0.9069
  363MOL0     H47866   0.089   6.797   0.868 -0.1565 -1.8961  1.3586
  363MOL0     H47867   0.229   7.018   1.030 -0.0182 -1.4447  1.1462
  363MOL0     H47868   0.199   6.865   1.100  1.3214 -2.2608 -2.4119
  363MOL0     H47869  -0.111   6.799   1.033 -1.1994  1.4370 -1.5962
  363MOL0     H47870  -0.320   6.937   1.311 -1.5939 -0.0810 -0.5329
  363MOL0     H47871  -0.322   6.821   1.175 -0.6271  0.6231 -1.2134
  363MOL0     H47872  -0.401   6.987   1.018 -1.0636 -2.1746 -0.4085
  363MOL0     H47873  -0.424   7.105   1.154 -0.4957 -0.1849  2.5755
  363MOL0     H47874  -0.553   6.841   1.131  1.3501 -0.4349  1.0554
  363MOL0     H47875  -0.587   6.947   1.252  2.0026 -0.4099 -0.1655
  363MOL0     H47876  -0.620   7.014   0.950  1.6017 -2.3336  0.6457
  363MOL0     H47877  -0.639   7.130   1.081 -2.9479 -0.4146  2.8468
  363MOL0     H47878  -1.030   6.889   1.101 -0.5865 -2.0451 -1.1996
  363MOL0     H47879  -1.227   6.989   1.005  0.4820  0.6553  0.8161
  363MOL0     H47880  -1.397   7.201   0.649  0.1132  4.2625  0.2829
  363MOL0     H47881  -1.618   7.202   0.553  3.8386 -2.4915  0.3313
  363MOL0     H47882  -1.967   7.096   0.644  0.5055 -0.9462  0.6758
  363MOL0     H47883  -1.793   7.050   0.613  0.8905  2.4576  1.0232
  363MOL0     H47884  -1.895   7.054   0.400  2.1055 -0.2859  1.3952
  363MOL0     H47885  -1.801   7.194   0.401 -0.5277 -2.0465 -0.7142
  363MOL0     H47886  -2.107   7.180   0.470 -1.5589  3.2562  0.1300
  363MOL0     H47887  -2.047   7.182   0.309 -1.6626  0.1756  0.7495
  363MOL0     H47888  -1.926   7.410   0.474 -0.1587  1.2860 -0.3649
  363MOL0     H47889  -2.008   7.411   0.312 -0.2622 -0.2258  0.4232
  363MOL0     H47890  -2.139   7.561   0.439 -1.7881 -0.8158 -2.7715
  363MOL0     H47891  -2.131   7.463   0.581 -0.4375  1.3079 -0.5297
  363MOL0     H47892  -2.278   7.295   0.440  1.3471 -0.3697 -0.5877
  363MOL0     H47893  -2.276   7.432   0.319  2.0657 -0.0117  0.0409
  363MOL0     H47894  -2.377   7.477   0.589 -2.2201 -1.7259  1.4705
  363MOL0     H47895  -2.405   7.565   0.442  0.1759  0.2557  2.1972
  363MOL0     H47896  -2.607   7.432   0.520  0.4023 -2.1943  3.2108
  363MOL0     H47897  -2.512   7.291   0.465  2.4350  0.9593 -0.3551
  363MOL0     H47898  -1.792   7.271   0.928 -0.3266 -0.8196 -1.1591
  363MOL0     H47899  -1.583   7.217   1.043  0.3020 -1.4693 -1.1878
  363MOL0     H47900  -0.992   7.321   0.869  0.0808  0.1315 -0.7952
  363MOL0     H47901  -0.781   7.215   0.950  0.2680 -0.1663 -1.1665
  363MOL0     H47902   1.209   6.802   0.665  2.0224  1.3074  1.1882
  363MOL0     H47903   1.404   6.828   0.515 -0.3453 -1.7831  1.1387
  363MOL0     H47904   1.675   6.921   0.323  0.8153 -0.3476 -0.1104
  363MOL0     H47905   1.936   6.925   0.261  0.0002  1.0631 -0.4940
  363MOL0     H47906   2.103   7.247   0.006 -1.0414  0.2138  1.4089
  363MOL0     H47907   1.985   7.129  -0.019  1.2698  1.3399 -1.2009
  363MOL0     H47908   2.282   7.071  -0.030  0.6939 -0.4319  1.7110
  363MOL0     H47909   2.170   6.952   0.052 -4.3294 -0.7764 -1.0160
  363MOL0     H47910   2.037   6.937  -0.155  0.4441 -1.7918  0.9463
  363MOL0     H47911   2.200   6.874  -0.169 -0.9682 -0.6801  0.7499
  363MOL0     H47912   2.262   7.094  -0.275  1.6666 -1.1062 -3.5803
  363MOL0     H47913   2.159   6.994  -0.363  0.0202  0.9628 -1.1455
  363MOL0     H47914   1.873   7.312  -0.312 -2.5127 -0.2306  0.4826
  363MOL0     H47915   1.903   7.343   0.164  0.2014 -0.1233 -0.3836
  363MOL0     H47916   1.670   7.338   0.210 -0.6496  0.0138 -2.1093
  364MOL0     O47917   4.244  11.022   8.783  0.0982 -0.3004  0.3240
  364MOL0     C47918   4.317  11.123   8.776  0.1443 -0.0875  0.0063
  364MOL0     O47919   4.285  11.250   8.816  0.3144  0.8298 -0.2420
  364MOL0     C47920   4.172  11.266   8.898  0.2076  0.1160 -0.0676
  364MOL0     C47921   4.134  11.195   9.011  0.7012 -0.9695  0.5051
  364MOL0     C47922   4.016  11.240   9.083  0.8126  0.0755  0.5047
  364MOL0     C47923   3.951  11.355   9.037  0.5651  0.8255 -1.5211
  364MOL0     O47924   3.837  11.399   9.106  0.4516 -0.5348  0.1888
  364MOL0     C47925   3.815  11.357   9.243  0.4088 -0.2559 -0.0709
  364MOL0     C47926   3.719  11.448   9.312  0.3811  0.9476 -0.0737
  364MOL0     C47927   3.588  11.463   9.222  1.0115  0.1943 -0.2682
  364MOL0     C47928   3.501  11.575   9.273  0.9150 -0.3952  0.8028
  364MOL0     C47929   3.499  11.578   9.430  0.7434  0.2346  0.5148
  364MOL0     C47930   3.389  11.659   9.500 -0.9930  0.5157  0.0481
  364MOL0     C47931   3.247  11.611   9.484 -0.1327  0.0828  0.3348
  364MOL0     C47932   3.146  11.686   9.557  0.1736  0.3691 -0.6248
  364MOL0     N47933   3.009  11.666   9.503  0.1071  0.0471 -0.3001
  364MOL0     C47934   2.900  11.614   9.576 -0.5432 -0.2927 -0.4831
  364MOL0     C47935   2.788  11.651   9.502  0.0692  0.2090  0.7543
  364MOL0     C47936   2.642  11.617   9.537  0.2720 -0.5493 -0.1115
  364MOL0     C47937   2.591  11.721   9.638 -0.7168 -0.1050 -0.5841
  364MOL0     C47938   2.446  11.714   9.659  0.5512  0.3773  1.2037
  364MOL0     C47939   2.393  11.790   9.777 -0.9918 -0.9167  0.1517
  364MOL0     O47940   2.251  11.783   9.768  0.3230 -0.1836  0.3906
  364MOL0     C47941   2.185  11.804   9.884 -0.0565 -0.0862  0.6200
  364MOL0     C47942   2.217  11.901   9.979  0.0112 -0.0342  0.6407
  364MOL0     C47943   2.148  11.916  10.099  0.4399 -0.0215  0.0067
  364MOL0     C47944   2.022  11.847  10.114 -0.5715 -0.0478  0.4456
  364MOL0     C47945   1.949  11.845  10.243 -0.2271  0.0408 -0.4892
  364MOL0     O47946   1.991  11.922  10.345  0.0544  0.0805 -0.8714
  364MOL0     C47947   1.916  11.936  10.465 -0.0950  0.2303  0.0180
  364MOL0     C47948   1.858  11.832  10.532 -0.1281  0.2862  0.0863
  364MOL0     C47949   1.780  11.854  10.643  0.4933 -0.0864 -0.1027
  364MOL0     C47950   1.758  11.977  10.694  0.7411  0.0103 -0.6074
  364MOL0     O47951   1.673  11.990  10.805  0.4796 -0.3868 -0.2674
  364MOL0     C47952   1.701  11.906  10.919  1.0534 -0.1798  0.6083
  364MOL0     C47953   1.594  11.819  10.954  0.1244 -0.0602  0.2626
  364MOL0     C47954   1.610  11.756  11.098 -0.2945 -0.2967  0.0434
  364MOL0     C47955   1.747  11.685  11.131 -0.2420  0.0413 -1.3293
  364MOL0     C47956   1.760  11.647  11.283  0.2629  0.3575  1.2088
  364MOL0     C47957   1.892  11.584  11.302 -0.3360  0.7132 -0.6028
  364MOL0     C47958   1.928  11.519  11.437  0.9943  0.3371  0.1167
  364MOL0     C47959   1.940  11.622  11.541  0.1740  0.6425  0.7295
  364MOL0    Cl47960   1.998  11.545  11.702 -0.2278  0.0931 -0.2571
  364MOL0     C47961   1.814  12.084  10.627 -0.1510  0.1439  0.6286
  364MOL0     C47962   1.891  12.062  10.512  0.5084  0.4611  0.4491
  364MOL0     O47963   1.851  11.765  10.248 -0.0069 -0.0113 -0.0671
  364MOL0     C47964   1.974  11.768  10.009 -0.5857  0.2207 -0.6706
  364MOL0     C47965   2.058  11.746   9.898  0.7089  0.0116 -0.2884
  364MOL0     N47966   2.840  11.715   9.386 -0.2187  0.4153  0.1326
  364MOL0     N47967   2.968  11.711   9.383  0.2929 -0.0349  0.0769
  364MOL0     C47968   3.989  11.425   8.930  0.0778 -0.3808 -0.2778
  364MOL0     C47969   4.107  11.379   8.862  0.2388  0.0419  0.6980
  364MOL0     C47970   4.442  11.110   8.706 -0.6327  0.0691 -0.3229
  364MOL0     C47971   4.506  10.990   8.687 -0.1051  0.9395  0.7511
  364MOL0     C47972   4.631  10.989   8.620 -0.4317 -0.3911  0.6360
  364MOL0     C47973   4.686  11.107   8.574 -0.6569  1.1238  0.7709
  364MOL0     O47974   4.807  11.120   8.516  0.2284 -0.9176 -0.5732
  364MOL0     C47975   4.888  11.004   8.492 -0.1819  0.1673 -0.7849
  364MOL0     C47976   5.017  11.016   8.411  0.1065  0.0269 -0.8328
  364MOL0     C47977   5.133  11.096   8.460 -1.1029  0.2098 -0.5307
  364MOL0     C47978   5.127  11.242   8.409 -0.2347 -0.1683 -1.0939
  364MOL0     C47979   5.223  11.318   8.488  0.5327 -0.2475 -0.0560
  364MOL0     C47980   5.305  11.368   8.563 -0.6924  0.2329  0.2103
  364MOL0     C47981   4.615  11.218   8.588  0.5210  1.4775 -0.0049
  364MOL0     C47982   4.489  11.224   8.645 -0.0196  0.5266  0.2930
  364MOL0     H47983   4.197  11.113   9.043  2.2388 -0.3575 -0.8226
  364MOL0     H47984   3.972  11.177   9.159  0.4798 -2.3039 -1.5109
  364MOL0     H47985   3.909  11.366   9.299  1.4339 -1.5557 -1.5201
  364MOL0     H47986   3.786  11.252   9.251  0.9600 -0.5540 -1.6936
  364MOL0     H47987   3.776  11.541   9.317  2.6124 -0.4341  1.8161
  364MOL0     H47988   3.688  11.411   9.410  1.0138 -0.7886 -0.5054
  364MOL0     H47989   3.533  11.370   9.241  0.8751  0.4753  0.7532
  364MOL0     H47990   3.613  11.471   9.116 -1.6490 -0.6972 -1.0351
  364MOL0     H47991   3.527  11.672   9.230 -0.4405  1.5129  3.8913
  364MOL0     H47992   3.400  11.548   9.242  1.0926 -4.4130  3.0353
  364MOL0     H47993   3.594  11.616   9.468  1.6963 -0.0602 -1.4608
  364MOL0     H47994   3.487  11.478   9.474 -3.0979  1.7095  3.4018
  364MOL0     H47995   3.411  11.752   9.448  1.1561  1.3041  2.2059
  364MOL0     H47996   3.421  11.680   9.602  2.5937 -0.1451 -0.7745
  364MOL0     H47997   3.209  11.589   9.383 -2.8167  0.2086  1.2425
  364MOL0     H47998   3.250  11.518   9.542 -1.2681 -0.2748 -0.1435
  364MOL0     H47999   3.165  11.794   9.561 -4.6644  1.4440 -1.1271
  364MOL0     H48000   3.143  11.658   9.663 -0.2110  0.2210 -0.6742
  364MOL0     H48001   2.895  11.557   9.668  1.9980  1.1980  0.6980
  364MOL0     H48002   2.629  11.518   9.582 -0.1080  0.5735  2.4511
  364MOL0     H48003   2.587  11.614   9.443  1.5816 -0.5767 -0.8993
  364MOL0     H48004   2.608  11.828   9.621 -1.3543  0.3582  1.3897
  364MOL0     H48005   2.643  11.695   9.731  0.5797 -1.0758 -1.5449
  364MOL0     H48006   2.405  11.757   9.567  2.9579 -1.3195 -0.7957
  364MOL0     H48007   2.421  11.610   9.682 -1.4089  0.1952 -1.2856
  364MOL0     H48008   2.431  11.893   9.769  3.3330 -2.1362  1.9690
  364MOL0     H48009   2.433  11.767   9.876  0.0249  0.5099  0.1007
  364MOL0     H48010   2.302  11.966   9.961  0.7418 -0.5288  2.1552
  364MOL0     H48011   2.166  11.983  10.183 -5.1267  0.0607  1.5395
  364MOL0     H48012   1.856  11.732  10.490 -3.1714  0.0498  0.5716
  364MOL0     H48013   1.732  11.772  10.696  1.2473 -2.0213 -2.2336
  364MOL0     H48014   1.716  11.978  11.001  1.9685  1.7515 -1.1761
  364MOL0     H48015   1.795  11.853  10.906  1.4214  0.0448  2.1274
  364MOL0     H48016   1.598  11.734  10.884 -1.9650 -1.8253  2.1207
  364MOL0     H48017   1.498  11.871  10.957 -1.0627 -2.1614  0.9863
  364MOL0     H48018   1.542  11.672  11.115  0.1447 -0.4265  1.3143
  364MOL0     H48019   1.585  11.834  11.171 -0.4054  1.8488 -2.1691
  364MOL0     H48020   1.753  11.591  11.075  3.7910  0.0922 -1.2889
  364MOL0     H48021   1.833  11.745  11.101  0.0462 -0.4171 -1.4445
  364MOL0     H48022   1.683  11.570  11.300  0.1636 -0.4018 -2.0232
  364MOL0     H48023   1.757  11.733  11.349  1.8051  0.5155  1.1078
  364MOL0     H48024   1.979  11.648  11.283  0.8843 -0.5592  0.5339
  364MOL0     H48025   1.888  11.495  11.239 -2.8480 -1.4689  2.3682
  364MOL0     H48026   1.860  11.441  11.473  3.6666 -1.7706  0.9758
  364MOL0     H48027   2.023  11.466  11.425  0.8023 -0.2042  0.8621
  364MOL0     H48028   1.845  11.674  11.552 -0.3080  0.1140 -0.7170
  364MOL0     H48029   2.023  11.688  11.515  0.2964 -0.4576 -2.0169
  364MOL0     H48030   1.809  12.181  10.676 -1.0880 -1.0895  3.1326
  364MOL0     H48031   1.928  12.145  10.454  0.1846  0.2868 -0.0170
  364MOL0     H48032   1.874  11.727  10.017 -0.0200 -1.3420 -1.1607
  364MOL0     H48033   2.020  11.690   9.813 -0.9351  1.6840 -0.7323
  364MOL0     H48034   3.932  11.515   8.908 -1.5177 -1.7280 -2.0655
  364MOL0     H48035   4.141  11.444   8.782  0.2571  1.6929  2.0036
  364MOL0     H48036   4.457  10.896   8.710 -0.2442  0.3008 -1.8381
  364MOL0     H48037   4.683  10.895   8.608 -0.5330 -0.5652  1.4994
  364MOL0     H48038   4.834  10.935   8.426 -0.0720 -0.8084  0.1336
  364MOL0     H48039   4.916  10.955   8.585 -2.4998 -1.3579 -0.7985
  364MOL0     H48040   5.041  10.912   8.386 -3.6233 -1.5328  1.2157
  364MOL0     H48041   4.988  11.060   8.314  2.7381  0.1691 -1.6149
  364MOL0     H48042   5.228  11.059   8.422  0.1997  2.0742  0.7231
  364MOL0     H48043   5.144  11.075   8.567  0.5174  0.3656 -0.6520
  364MOL0     H48044   5.159  11.238   8.304 -1.1955 -4.2048 -1.4298
  364MOL0     H48045   5.024  11.280   8.412  0.0462  0.8324  3.9522
  364MOL0     H48046   5.376  11.430   8.615 -0.2368  1.3767 -1.6876
  364MOL0     H48047   4.660  11.311   8.556 -0.1558  0.8799 -2.9822
  364MOL0     H48048   4.427  11.314   8.641  0.3631  0.7797 -0.0614
  365MOL0     O48049   1.853   4.778   7.024  0.1767  0.6792 -1.0091
  365MOL0     C48050   1.827   4.885   6.983  0.9198  1.1008  0.2068
  365MOL0     O48051   1.921   4.987   6.949  0.1575  0.0411 -0.7468
  365MOL0     C48052   2.056   4.961   6.970 -0.2079  0.2263 -0.1833
  365MOL0     C48053   2.136   5.048   6.895  0.1675  0.3853  0.4359
  365MOL0     C48054   2.273   5.047   6.898 -0.4901  0.0626  0.2536
  365MOL0     C48055   2.350   4.941   6.965  0.0755 -1.2542 -0.6842
  365MOL0     O48056   2.492   4.928   6.956 -0.3601 -0.5473 -0.4511
  365MOL0     C48057   2.559   4.837   7.054  0.3814  0.1179  0.4443
  365MOL0     C48058   2.712   4.845   7.013 -0.0754 -0.7371 -0.4868
  365MOL0     C48059   2.773   4.755   7.116  1.0507  0.1157  0.1810
  365MOL0     C48060   2.919   4.776   7.121 -0.1984  0.0057  0.4844
  365MOL0     C48061   2.983   4.682   7.227 -0.3098  0.1603  0.1163
  365MOL0     C48062   3.120   4.719   7.273  0.8006  0.1228  0.4671
  365MOL0     C48063   3.124   4.866   7.331  0.2192  0.9061 -0.4364
  365MOL0     C48064   3.253   4.890   7.415 -0.2162 -0.1649 -0.5853
  365MOL0     N48065   3.376   4.914   7.332  0.1189 -0.5088  0.2845
  365MOL0     C48066   3.406   5.024   7.253 -0.1825 -0.7808 -0.8851
  365MOL0     C48067   3.517   4.991   7.186  0.5119  0.6022 -0.1543
  365MOL0     C48068   3.612   5.083   7.097 -0.3580  0.2511 -0.2145
  365MOL0     C48069   3.765   5.067   7.115 -0.4099  0.0580 -1.1991
  365MOL0     C48070   3.803   5.106   7.257  0.3521  0.1271  0.2615
  365MOL0     C48071   3.945   5.067   7.292  1.1861 -0.6277  0.0789
  365MOL0     O48072   4.036   5.170   7.236 -0.0797 -0.1076  0.7414
  365MOL0     C48073   4.160   5.128   7.223 -0.3173 -0.2611  0.5767
  365MOL0     C48074   4.224   5.044   7.309  0.9069  0.3358 -0.2843
  365MOL0     C48075   4.354   4.999   7.287  0.1102  0.3824  0.0259
  365MOL0     C48076   4.435   5.054   7.184  0.5519  0.3211 -0.0640
  365MOL0     C48077   4.575   5.003   7.159 -0.1212  0.4059 -0.7475
  365MOL0     O48078   4.621   4.891   7.229  0.2027 -0.2192 -0.0516
  365MOL0     C48079   4.752   4.861   7.221  0.0137  0.6525 -0.7992
  365MOL0     C48080   4.824   4.839   7.105  0.6898 -0.6682  0.9894
  365MOL0     C48081   4.952   4.795   7.113 -0.2152  0.6937  0.2001
  365MOL0     C48082   5.014   4.770   7.236  0.4473 -0.2530  0.1081
  365MOL0     O48083   5.146   4.739   7.232  0.4485 -0.1628 -0.3580
  365MOL0     C48084   5.226   4.702   7.353 -0.7799 -0.3991 -0.5579
  365MOL0     C48085   5.355   4.631   7.316 -0.1912  0.3324  0.0986
  365MOL0     C48086   5.444   4.571   7.428  0.8667  1.0673 -0.4635
  365MOL0     C48087   5.565   4.498   7.379  0.4449 -0.8189  0.2905
  365MOL0     C48088   5.684   4.518   7.474 -0.0172  0.0411 -0.1160
  365MOL0     C48089   5.804   4.437   7.425  0.9207 -0.7277  0.2927
  365MOL0     C48090   5.921   4.439   7.517 -0.1797 -0.2325 -0.2119
  365MOL0     C48091   6.030   4.328   7.494 -0.5632  0.4565 -0.0618
  365MOL0    Cl48092   5.997   4.206   7.624 -0.1568  0.3029 -0.1607
  365MOL0     C48093   4.935   4.785   7.352  0.5983  0.2720 -0.0585
  365MOL0     C48094   4.807   4.837   7.344 -0.0122  0.0314 -0.0759
  365MOL0     O48095   4.644   5.084   7.096  0.2465  0.5582 -0.6941
  365MOL0     C48096   4.372   5.157   7.110  0.2198 -0.1751  0.4207
  365MOL0     C48097   4.240   5.193   7.128  1.1281 -0.7708  0.1082
  365MOL0     N48098   3.558   4.865   7.229 -0.2333 -0.9406 -0.1589
  365MOL0     N48099   3.471   4.817   7.317 -0.1546  0.5648  0.5453
  365MOL0     C48100   2.266   4.847   7.035 -0.4142  0.2149 -0.0548
  365MOL0     C48101   2.124   4.854   7.041 -0.6102 -0.4917 -1.0981
  365MOL0     C48102   1.683   4.910   6.929 -0.3075  0.3493 -0.9130
  365MOL0     C48103   1.575   4.838   6.978 -0.4180  0.3442 -0.6561
  365MOL0     C48104   1.443   4.861   6.933 -0.1733 -0.7899 -0.0672
  365MOL0     C48105   1.418   4.961   6.834 -0.3606  0.3407  0.3444
  365MOL0     O48106   1.291   5.004   6.794  0.1017  0.1763 -1.2432
  365MOL0     C48107   1.178   4.926   6.835 -0.1011 -0.4888  0.7345
  365MOL0     C48108   1.122   4.968   6.972  0.8973 -0.0833 -0.7758
  365MOL0     C48109   1.046   5.104   6.967  0.4992 -1.3417  0.4078
  365MOL0     C48110   0.892   5.094   6.957 -0.0497 -0.4092 -0.0946
  365MOL0     C48111   0.837   4.998   7.057 -0.5520 -0.2890  0.7021
  365MOL0     C48112   0.787   4.934   7.147 -0.4148 -0.6716  0.0571
  365MOL0     C48113   1.526   5.044   6.802 -0.0486  0.1228  0.6646
  365MOL0     C48114   1.655   5.012   6.845  0.8888 -0.6822  1.1130
  365MOL0     H48115   2.090   5.129   6.840  1.3671 -0.9543 -2.7957
  365MOL0     H48116   2.327   5.125   6.845  2.5293  0.7426  3.8770
  365MOL0     H48117   2.508   4.741   7.037 -2.3541  1.6063 -0.3177
  365MOL0     H48118   2.549   4.874   7.156  0.5397 -1.9003  1.2512
  365MOL0     H48119   2.750   4.946   7.028 -0.9181 -0.6316  1.2095
  365MOL0     H48120   2.723   4.809   6.911  1.6158  2.1813 -1.4495
  365MOL0     H48121   2.745   4.655   7.083 -0.5725  1.2525 -2.1882
  365MOL0     H48122   2.728   4.774   7.214 -2.1914  1.2206 -1.3971
  365MOL0     H48123   2.959   4.754   7.021 -0.1864 -1.3112  0.7617
  365MOL0     H48124   2.931   4.878   7.159 -2.8548  1.1253 -1.4002
  365MOL0     H48125   2.981   4.580   7.186 -2.2308 -0.0083  0.5204
  365MOL0     H48126   2.919   4.688   7.315 -1.4806  0.7386 -0.7291
  365MOL0     H48127   3.191   4.727   7.190  1.0909 -0.5301  0.6491
  365MOL0     H48128   3.156   4.650   7.349  2.2407 -0.6165 -0.8286
  365MOL0     H48129   3.128   4.944   7.255 -2.3606  1.5301  0.0030
  365MOL0     H48130   3.038   4.876   7.397  2.2304 -1.1252  2.8234
  365MOL0     H48131   3.274   4.803   7.477  4.9024 -0.1432 -1.8801
  365MOL0     H48132   3.244   4.972   7.486  1.0721  0.3861 -1.0313
  365MOL0     H48133   3.358   5.121   7.244  1.0157  0.2070  2.0699
  365MOL0     H48134   3.581   5.185   7.121 -1.8180 -0.2274  0.0442
  365MOL0     H48135   3.588   5.050   6.995 -3.3950 -1.7815  1.0009
  365MOL0     H48136   3.825   5.125   7.045 -0.4616  2.5036  0.6118
  365MOL0     H48137   3.796   4.964   7.095  1.5784  0.9618 -3.2534
  365MOL0     H48138   3.794   5.215   7.269 -0.6303 -0.0997  1.7818
  365MOL0     H48139   3.725   5.071   7.324  0.0174 -2.0907 -1.1952
  365MOL0     H48140   3.944   4.969   7.245 -0.5605 -0.7731  0.3666
  365MOL0     H48141   3.953   5.059   7.401  1.4026 -0.9468  0.0389
  365MOL0     H48142   4.179   5.005   7.400  4.7030  0.4422  1.8629
  365MOL0     H48143   4.401   4.920   7.344  2.0524 -0.7848 -2.9545
  365MOL0     H48144   4.784   4.861   7.007 -1.3272  1.2492  2.1615
  365MOL0     H48145   5.003   4.771   7.020 -1.5585  1.4411 -0.7734
  365MOL0     H48146   5.173   4.633   7.419 -3.8369 -0.1880 -2.5579
  365MOL0     H48147   5.249   4.800   7.395  0.3590 -2.1171  3.2084
  365MOL0     H48148   5.420   4.690   7.251 -0.3254 -2.2705 -2.6326
  365MOL0     H48149   5.329   4.550   7.247  0.3486  0.5304 -0.3497
  365MOL0     H48150   5.377   4.501   7.480  0.2863  2.8875  1.3626
  365MOL0     H48151   5.470   4.647   7.503  3.0057 -0.3573  0.3182
  365MOL0     H48152   5.532   4.396   7.357 -1.7084 -0.1819  0.3622
  365MOL0     H48153   5.595   4.546   7.285  0.8257  0.0070  0.8251
  365MOL0     H48154   5.645   4.497   7.574 -1.0549  1.0434 -0.2849
  365MOL0     H48155   5.713   4.623   7.483 -1.7225  0.4971  0.4662
  365MOL0     H48156   5.843   4.468   7.327 -0.2412 -2.7578 -0.8891
  365MOL0     H48157   5.756   4.340   7.409 -2.1077  0.8844 -1.3433
  365MOL0     H48158   5.966   4.531   7.479  0.9986 -1.7675 -2.7676
  365MOL0     H48159   5.894   4.448   7.623 -1.5652 -0.0640 -0.5573
  365MOL0     H48160   6.133   4.364   7.495 -0.5908  0.5950  2.1213
  365MOL0     H48161   6.019   4.289   7.392 -1.1125 -0.8050  0.4511
  365MOL0     H48162   4.980   4.749   7.444 -0.4266 -0.7940  0.0512
  365MOL0     H48163   4.749   4.854   7.433 -1.1439 -0.5339 -0.6788
  365MOL0     H48164   4.425   5.205   7.029  2.6832  0.7226  2.4486
  365MOL0     H48165   4.199   5.269   7.064 -0.7287 -3.0297 -1.5650
  365MOL0     H48166   2.304   4.753   7.074 -2.5906  0.0273  1.8323
  365MOL0     H48167   2.070   4.792   7.113 -1.8503 -0.8734 -2.3130
  365MOL0     H48168   1.595   4.763   7.053 -0.5920 -0.1201 -1.0693
  365MOL0     H48169   1.357   4.810   6.975  0.7057 -1.8976  0.4553
  365MOL0     H48170   1.184   4.819   6.817  0.5403 -0.0260 -2.3022
  365MOL0     H48171   1.102   4.960   6.765  1.7153  1.0835 -0.5988
  365MOL0     H48172   1.053   4.891   7.008  2.3574 -0.6800  0.8794
  365MOL0     H48173   1.206   4.968   7.042 -0.1973  1.8459  0.6508
  365MOL0     H48174   1.084   5.167   6.886 -2.6484 -0.3557 -0.4442
  365MOL0     H48175   1.061   5.167   7.055  0.6369 -0.8044  0.0096
  365MOL0     H48176   0.836   5.182   6.991 -1.4246 -2.2397  2.9345
  365MOL0     H48177   0.865   5.063   6.856  2.9586  1.3259 -1.5363
  365MOL0     H48178   0.760   4.881   7.236  0.7357 -1.2315  0.0906
  365MOL0     H48179   1.519   5.135   6.742 -1.5104  0.3735  1.1791
  365MOL0     H48180   1.734   5.081   6.816 -1.8237  0.9137 -3.6099
  366MOL0     O48181   1.592   6.671   5.858 -0.0228  0.7425 -0.2029
  366MOL0     C48182   1.540   6.755   5.924  0.2196 -1.0845  0.1482
  366MOL0     O48183   1.405   6.768   5.957  0.3313  0.0743 -0.3473
  366MOL0     C48184   1.310   6.674   5.916  0.2887 -0.0810 -0.1871
  366MOL0     C48185   1.218   6.619   6.012 -0.1416  0.1593  0.3208
  366MOL0     C48186   1.110   6.537   5.970 -0.1971  0.0870 -0.3988
  366MOL0     C48187   1.100   6.492   5.838 -0.6130  0.1509  0.1009
  366MOL0     O48188   1.011   6.397   5.791  0.0155  0.0327 -0.4438
  366MOL0     C48189   0.918   6.339   5.886  0.2206 -0.6007 -0.1328
  366MOL0     C48190   0.811   6.276   5.800  0.1715  0.2791  0.3216
  366MOL0     C48191   0.714   6.191   5.888 -0.2983 -0.6720 -0.0381
  366MOL0     C48192   0.592   6.150   5.814  0.9865  0.4161  0.8705
  366MOL0     C48193   0.487   6.106   5.920  0.3647  1.5037 -1.2657
  366MOL0     C48194   0.358   6.068   5.851 -1.0580 -0.2719  0.2497
  366MOL0     C48195   0.261   5.973   5.922  0.0237  0.2344  0.2574
  366MOL0     C48196   0.175   6.047   6.031  0.1883 -0.9370  0.2390
  366MOL0     N48197   0.066   6.130   5.973  0.4355  0.1424 -0.8327
  366MOL0     C48198  -0.051   6.081   5.920  0.3178 -0.7035  0.2539
  366MOL0     C48199  -0.110   6.198   5.875 -0.7658  1.0171 -0.4005
  366MOL0     C48200  -0.247   6.207   5.814 -0.2085  0.1579 -0.0063
  366MOL0     C48201  -0.361   6.119   5.861 -0.0500 -0.0005 -0.0664
  366MOL0     C48202  -0.487   6.168   5.794 -0.7539 -0.4757 -0.1796
  366MOL0     C48203  -0.608   6.091   5.833  0.2044 -0.5027 -0.1106
  366MOL0     O48204  -0.705   6.176   5.769  0.2379 -0.5057 -0.2431
  366MOL0     C48205  -0.829   6.122   5.748 -0.4149  1.1746 -0.2016
  366MOL0     C48206  -0.916   6.185   5.659 -0.3284 -0.4897 -0.4582
  366MOL0     C48207  -1.042   6.125   5.632  0.2290 -0.0899 -0.1824
  366MOL0     C48208  -1.087   6.015   5.703  0.0854 -0.3738  0.5952
  366MOL0     C48209  -1.224   5.968   5.691 -0.2480 -0.2690  0.9437
  366MOL0     O48210  -1.249   5.846   5.750  0.4113 -0.3557 -0.3288
  366MOL0     C48211  -1.378   5.818   5.745  0.4059  0.5656 -0.1605
  366MOL0     C48212  -1.407   5.733   5.639  0.3403 -0.8750  0.6477
  366MOL0     C48213  -1.535   5.690   5.620 -1.1427 -0.1581  0.4242
  366MOL0     C48214  -1.639   5.737   5.693  0.1326 -0.1528 -0.0568
  366MOL0     O48215  -1.769   5.705   5.682 -0.5344  0.8545 -0.2291
  366MOL0     C48216  -1.823   5.616   5.584  0.2427  0.6533  0.7378
  366MOL0     C48217  -1.961   5.649   5.545  0.2599 -0.5607  0.2286
  366MOL0     C48218  -2.030   5.521   5.486 -0.6185 -0.5365 -0.9236
  366MOL0     C48219  -2.181   5.543   5.460  0.1522 -0.5651 -1.0409
  366MOL0     C48220  -2.261   5.455   5.378  0.4735 -0.2441 -0.0828
  366MOL0     C48221  -2.287   5.327   5.455 -0.6895  0.8132 -0.1199
  366MOL0     C48222  -2.385   5.336   5.575 -0.1437 -0.1621 -0.1503
  366MOL0     C48223  -2.410   5.202   5.629  0.2009  0.4256  0.1829
  366MOL0    Cl48224  -2.538   5.125   5.514  0.0861 -0.0006 -0.1873
  366MOL0     C48225  -1.613   5.836   5.796 -0.4858 -0.1914 -0.3690
  366MOL0     C48226  -1.480   5.869   5.828  0.0948 -0.5253 -0.1111
  366MOL0     O48227  -1.306   6.026   5.619 -0.0027 -0.3285 -0.1175
  366MOL0     C48228  -0.999   5.958   5.793  0.3456  0.7487  0.6919
  366MOL0     C48229  -0.871   6.010   5.816 -0.1260 -0.7633  0.2781
  366MOL0     N48230  -0.025   6.313   5.897  0.1695  0.9012 -0.3495
  366MOL0     N48231   0.082   6.269   5.943  0.4148  0.0009 -0.6056
  366MOL0     C48232   1.196   6.539   5.743 -0.6118 -0.5372  0.7735
  366MOL0     C48233   1.293   6.643   5.782 -0.8253 -0.5317  0.1793
  366MOL0     C48234   1.641   6.846   5.984 -0.3105  0.6019  0.2214
  366MOL0     C48235   1.608   6.924   6.095 -0.5011 -0.3401  0.4049
  366MOL0     C48236   1.700   7.015   6.151 -0.0454 -0.0878  0.3210
  366MOL0     C48237   1.836   7.020   6.098 -0.4530  0.3896  0.5122
  366MOL0     O48238   1.930   7.101   6.167  0.0580 -0.5259 -0.6550
  366MOL0     C48239   2.073   7.091   6.145  1.4215  0.7651  0.3220
  366MOL0     C48240   2.135   6.985   6.237 -0.5232 -0.6911  0.6200
  366MOL0     C48241   2.090   6.984   6.383  0.0169 -0.2973 -1.0456
  366MOL0     C48242   2.132   6.851   6.457 -0.0923 -0.6144  0.9065
  366MOL0     C48243   2.273   6.845   6.487 -0.0138  0.2611 -0.0567
  366MOL0     C48244   2.388   6.834   6.512  0.0721  0.3605 -0.2137
  366MOL0     C48245   1.871   6.935   5.988 -1.1331 -0.3586 -0.6006
  366MOL0     C48246   1.780   6.845   5.941  0.3875 -0.4079  0.7408
  366MOL0     H48247   1.223   6.649   6.116  2.3997  2.8079 -0.4407
  366MOL0     H48248   1.041   6.499   6.044  3.1828 -2.4438  1.7584
  366MOL0     H48249   0.865   6.406   5.955 -1.3488 -1.6713 -0.2403
  366MOL0     H48250   0.966   6.268   5.953 -4.8562 -0.7470  4.0076
  366MOL0     H48251   0.856   6.209   5.726 -2.2032 -0.9626 -0.1045
  366MOL0     H48252   0.763   6.357   5.744  2.0096  0.0512 -1.7116
  366MOL0     H48253   0.672   6.265   5.956 -0.0855  1.3626 -2.0294
  366MOL0     H48254   0.761   6.102   5.933 -0.4334 -0.3563  0.7403
  366MOL0     H48255   0.544   6.233   5.760 -1.6472 -0.4658  1.6947
  366MOL0     H48256   0.601   6.065   5.745 -2.7789 -0.2697  0.9814
  366MOL0     H48257   0.478   6.184   5.997  1.1228  0.0765  0.3411
  366MOL0     H48258   0.524   6.017   5.972  1.1057 -0.0680 -4.2463
  366MOL0     H48259   0.377   6.029   5.750  0.0006  0.1239  0.2763
  366MOL0     H48260   0.301   6.160   5.835  0.0058  0.7131  1.7812
  366MOL0     H48261   0.193   5.931   5.847 -0.5924 -0.8352  1.3875
  366MOL0     H48262   0.312   5.884   5.959 -1.2749 -0.0625  1.4146
  366MOL0     H48263   0.245   6.110   6.086 -2.4100  1.0925  1.3842
  366MOL0     H48264   0.127   5.969   6.091 -1.4208  1.2892  1.9832
  366MOL0     H48265  -0.090   5.980   5.920 -2.4036  0.2627  0.3875
  366MOL0     H48266  -0.229   6.194   5.707  2.0313 -0.8405  0.4438
  366MOL0     H48267  -0.272   6.310   5.842 -0.8144 -0.4272  1.7323
  366MOL0     H48268  -0.370   6.122   5.970 -1.7563 -2.3608 -0.0570
  366MOL0     H48269  -0.348   6.011   5.845 -1.4701 -0.1244 -0.5400
  366MOL0     H48270  -0.495   6.272   5.828  3.4141 -0.0452 -0.0402
  366MOL0     H48271  -0.468   6.175   5.687  2.0877  0.1958  0.2827
  366MOL0     H48272  -0.631   6.083   5.939 -0.4794  1.3249 -0.0910
  366MOL0     H48273  -0.593   5.991   5.790  1.0573 -0.3713 -0.1487
  366MOL0     H48274  -0.876   6.276   5.615  0.0809 -0.4227  0.0466
  366MOL0     H48275  -1.108   6.180   5.566 -2.3733 -0.3134  2.1046
  366MOL0     H48276  -1.325   5.704   5.573  1.3844  2.6205  0.1792
  366MOL0     H48277  -1.558   5.622   5.539  0.3033 -0.6698  0.4014
  366MOL0     H48278  -1.833   5.516   5.628  1.3196  0.7444  1.2112
  366MOL0     H48279  -1.769   5.628   5.489 -1.6890 -0.1695 -0.5407
  366MOL0     H48280  -1.949   5.730   5.471  0.1888 -0.0178  0.8003
  366MOL0     H48281  -2.014   5.685   5.634  1.1220  2.1309 -0.2503
  366MOL0     H48282  -2.017   5.434   5.551 -4.3220 -0.1419  0.5646
  366MOL0     H48283  -1.976   5.491   5.396  0.9075  2.5255 -1.1455
  366MOL0     H48284  -2.229   5.552   5.557 -1.3541 -2.4004 -1.5480
  366MOL0     H48285  -2.190   5.636   5.402 -0.1826  0.5638  0.7502
  366MOL0     H48286  -2.200   5.428   5.291 -0.2168  1.4743 -1.1454
  366MOL0     H48287  -2.353   5.507   5.350 -1.0580 -1.8814  1.7022
  366MOL0     H48288  -2.189   5.290   5.484  0.3440  1.2075 -2.7786
  366MOL0     H48289  -2.331   5.253   5.387 -1.5893 -2.5162  3.7272
  366MOL0     H48290  -2.337   5.395   5.654 -3.4259  1.6973  0.6396
  366MOL0     H48291  -2.480   5.386   5.557  0.8179  1.4674 -0.9480
  366MOL0     H48292  -2.460   5.207   5.727  0.3532 -0.6993  0.3270
  366MOL0     H48293  -2.323   5.137   5.634  0.6980  1.1599  1.7975
  366MOL0     H48294  -1.695   5.884   5.848 -1.2832 -0.7602 -1.0822
  366MOL0     H48295  -1.468   5.949   5.901 -0.6851  0.1316 -0.6816
  366MOL0     H48296  -1.039   5.877   5.852 -0.1121 -2.2794 -3.3700
  366MOL0     H48297  -0.805   5.967   5.890 -1.2049 -1.6419  0.7589
  366MOL0     H48298   1.187   6.501   5.641 -3.2224 -1.3810  1.2418
  366MOL0     H48299   1.367   6.678   5.711 -3.0803  0.3066 -1.9067
  366MOL0     H48300   1.501   6.930   6.116 -1.6467 -0.1971 -4.3157
  366MOL0     H48301   1.678   7.076   6.238  1.1145 -0.2873  0.7685
  366MOL0     H48302   2.114   7.190   6.167  0.0154  1.5909 -0.6713
  366MOL0     H48303   2.102   7.058   6.045 -0.7483  1.5925 -0.6205
  366MOL0     H48304   2.125   6.884   6.198 -1.8158 -1.2398  2.2396
  366MOL0     H48305   2.242   7.003   6.242 -0.7042  0.0322  3.4834
  366MOL0     H48306   1.981   6.982   6.388 -0.0199  0.9666 -0.9600
  366MOL0     H48307   2.114   7.072   6.443 -2.1730 -0.2778 -0.0936
  366MOL0     H48308   2.076   6.846   6.551 -2.7559 -1.4115 -0.6080
  366MOL0     H48309   2.098   6.764   6.399  2.6465 -1.0668 -0.1788
  366MOL0     H48310   2.494   6.835   6.524  0.3340  2.0163 -2.0510
  366MOL0     H48311   1.974   6.941   5.954 -0.3984 -0.0964  1.5120
  366MOL0     H48312   1.807   6.777   5.861 -2.2447 -0.4744 -0.1878
  367MOL0     O48313   1.135   4.830   1.282 -0.8502  0.2292  0.1858
  367MOL0     C48314   1.067   4.928   1.251  0.4614 -0.5568 -0.4137
  367MOL0     O48315   1.110   5.066   1.245 -0.3932  0.6660  0.4325
  367MOL0     C48316   1.237   5.088   1.289  0.5252  0.1744 -0.1758
  367MOL0     C48317   1.266   5.099   1.422 -0.6043  0.8463 -0.6637
  367MOL0     C48318   1.400   5.098   1.464  0.5613 -0.6434  0.4243
  367MOL0     C48319   1.510   5.116   1.366 -0.5695 -0.4592 -0.8407
  367MOL0     O48320   1.639   5.122   1.412 -0.2770 -0.1095 -0.1228
  367MOL0     C48321   1.699   5.242   1.359 -0.6004  0.1842  1.2030
  367MOL0     C48322   1.812   5.275   1.455  0.4080  0.5380  0.3675
  367MOL0     C48323   1.860   5.415   1.434 -0.2103  0.0304 -0.7804
  367MOL0     C48324   1.980   5.456   1.519 -0.3290 -1.1137  0.0057
  367MOL0     C48325   2.024   5.600   1.491 -0.0635 -0.1196 -0.3754
  367MOL0     C48326   2.120   5.657   1.591  0.1287  0.2057 -0.1198
  367MOL0     C48327   2.108   5.623   1.747  0.0313  0.3352  0.6429
  367MOL0     C48328   2.001   5.716   1.820 -0.2784 -0.4889  0.1815
  367MOL0     N48329   1.881   5.643   1.864 -0.0105 -0.2984  0.3591
  367MOL0     C48330   1.768   5.612   1.789 -0.5761 -0.4705 -0.1112
  367MOL0     C48331   1.706   5.513   1.855  0.9785  0.0350  0.0907
  367MOL0     C48332   1.585   5.430   1.819  0.1011  0.3364 -0.7809
  367MOL0     C48333   1.502   5.485   1.711 -1.3861 -0.3628 -0.5452
  367MOL0     C48334   1.370   5.415   1.697 -0.1780  1.1236  0.3757
  367MOL0     C48335   1.288   5.467   1.574  0.0284  0.5003 -0.2998
  367MOL0     O48336   1.180   5.374   1.552  0.4365 -0.3261  0.3808
  367MOL0     C48337   1.085   5.409   1.464 -0.1261  0.2282 -1.1518
  367MOL0     C48338   0.973   5.325   1.459  0.3583 -0.6237 -0.1691
  367MOL0     C48339   0.869   5.345   1.370  0.8848 -0.6276 -0.0936
  367MOL0     C48340   0.872   5.456   1.278  0.0645 -0.7122  0.1868
  367MOL0     C48341   0.767   5.484   1.182 -0.6422  0.1931 -0.2768
  367MOL0     O48342   0.669   5.397   1.173 -0.0253  0.2815  0.2440
  367MOL0     C48343   0.560   5.453   1.109  0.2724  0.3892  0.4212
  367MOL0     C48344   0.442   5.488   1.188  0.3812 -1.3929  0.2028
  367MOL0     C48345   0.328   5.531   1.118  0.1150  0.3474  0.3628
  367MOL0     C48346   0.322   5.559   0.983  0.6299  0.2677  0.6009
  367MOL0     O48347   0.204   5.570   0.926  0.4721 -0.4480 -0.0599
  367MOL0     C48348   0.166   5.708   0.882 -0.7873  1.1224  0.2843
  367MOL0     C48349   0.028   5.700   0.829 -0.0065 -0.4164  0.4428
  367MOL0     C48350  -0.018   5.829   0.774 -0.4136 -0.4001  0.8093
  367MOL0     C48351  -0.027   5.947   0.882  0.7942  1.1019  0.8997
  367MOL0     C48352  -0.177   5.987   0.899  0.3097 -0.2167 -0.0184
  367MOL0     C48353  -0.247   5.877   0.986 -0.2120  0.2354 -0.6705
  367MOL0     C48354  -0.391   5.915   0.990  0.2504  1.0721 -0.1965
  367MOL0     C48355  -0.483   5.815   1.081  0.3827 -1.2720 -0.6738
  367MOL0    Cl48356  -0.430   5.822   1.252  0.4706  0.0675  0.1773
  367MOL0     C48357   0.432   5.521   0.910  0.2515  0.1646 -0.4909
  367MOL0     C48358   0.551   5.476   0.970  0.1086 -0.2674  0.2648
  367MOL0     O48359   0.775   5.596   1.122  0.4862 -0.0499 -0.6206
  367MOL0     C48360   0.986   5.543   1.282 -0.3200  0.1087  0.1030
  367MOL0     C48361   1.084   5.519   1.374 -0.4035 -0.2549  1.1188
  367MOL0     N48362   1.766   5.497   1.982 -0.3291 -0.3009  0.1381
  367MOL0     N48363   1.870   5.581   1.979  0.4010  0.3260 -1.0432
  367MOL0     C48364   1.478   5.096   1.233  0.1605 -0.9282 -0.6375
  367MOL0     C48365   1.337   5.091   1.193 -0.1224  0.0402 -0.3887
  367MOL0     C48366   0.923   4.896   1.233 -0.4065  1.2254 -0.7009
  367MOL0     C48367   0.831   5.000   1.210 -0.0967  0.3228 -0.2233
  367MOL0     C48368   0.702   4.980   1.180  0.5052  0.3368  0.0591
  367MOL0     C48369   0.645   4.851   1.185 -0.5223  0.7252  0.4425
  367MOL0     O48370   0.513   4.857   1.152  0.3588  0.0846  0.0520
  367MOL0     C48371   0.451   4.727   1.118  0.3291  1.2120 -0.3969
  367MOL0     C48372   0.302   4.733   1.090  0.8363 -0.4591  0.3859
  367MOL0     C48373   0.271   4.817   0.969 -0.1567 -0.3809  0.2399
  367MOL0     C48374   0.129   4.811   0.940  0.8242  0.3841  0.7015
  367MOL0     C48375   0.080   4.680   0.897  0.9799 -0.0040 -0.0817
  367MOL0     C48376   0.044   4.571   0.853  0.1671  0.8354  0.2644
  367MOL0     C48377   0.729   4.742   1.216  1.0954 -0.3422  0.9286
  367MOL0     C48378   0.866   4.764   1.235  0.7403 -0.0213 -0.7978
  367MOL0     H48379   1.179   5.097   1.486  0.8582 -1.0466  1.4069
  367MOL0     H48380   1.421   5.095   1.571 -1.6310 -1.4403  0.8890
  367MOL0     H48381   1.627   5.324   1.360  0.2682  1.0173 -0.7878
  367MOL0     H48382   1.736   5.229   1.257 -3.9161 -0.9652  0.0079
  367MOL0     H48383   1.894   5.204   1.440 -1.2232 -1.7613  1.5970
  367MOL0     H48384   1.775   5.254   1.556  1.1774 -0.9207  0.3802
  367MOL0     H48385   1.781   5.488   1.456  1.4086  1.1020  2.1012
  367MOL0     H48386   1.882   5.437   1.329 -1.8489  3.0836 -0.5999
  367MOL0     H48387   1.953   5.451   1.624 -1.4009  0.1667 -0.1813
  367MOL0     H48388   2.060   5.383   1.502  1.1579  0.7286 -1.4001
  367MOL0     H48389   1.946   5.676   1.481  2.1915  2.2097 -1.6644
  367MOL0     H48390   2.076   5.597   1.395  4.8550  0.6797  1.9578
  367MOL0     H48391   2.114   5.765   1.575  0.1713  0.4698  1.4813
  367MOL0     H48392   2.220   5.628   1.557  1.0727  1.6458  1.2938
  367MOL0     H48393   2.098   5.516   1.768 -1.3913 -0.1171 -1.8706
  367MOL0     H48394   2.208   5.645   1.785  0.2731 -2.2256  1.7201
  367MOL0     H48395   1.983   5.812   1.771  0.8115 -0.8915 -1.0440
  367MOL0     H48396   2.055   5.748   1.911 -1.4611  0.1513  0.6848
  367MOL0     H48397   1.749   5.643   1.687  0.2678  3.3529  0.7652
  367MOL0     H48398   1.518   5.412   1.903  0.7410 -2.9429 -0.8675
  367MOL0     H48399   1.624   5.333   1.788 -1.3849 -0.3329 -0.6258
  367MOL0     H48400   1.550   5.465   1.615 -1.1579 -0.2227 -0.4589
  367MOL0     H48401   1.494   5.593   1.724 -2.0198 -0.6885  2.2501
  367MOL0     H48402   1.371   5.306   1.693 -2.2137  1.0649  0.2669
  367MOL0     H48403   1.310   5.433   1.786  0.7238  3.6148  0.5603
  367MOL0     H48404   1.356   5.476   1.489  0.3198  1.4441  0.0157
  367MOL0     H48405   1.253   5.566   1.607 -0.4224 -0.7227  3.3378
  367MOL0     H48406   0.959   5.247   1.534 -0.0846 -1.1807 -0.8143
  367MOL0     H48407   0.788   5.273   1.366  0.9026 -0.7661  1.4049
  367MOL0     H48408   0.431   5.470   1.294 -1.0253 -3.1078 -0.1802
  367MOL0     H48409   0.239   5.546   1.178  0.5618  1.6119  0.7329
  367MOL0     H48410   0.229   5.742   0.799 -0.3486 -1.9802 -0.7783
  367MOL0     H48411   0.184   5.780   0.963  0.7925  0.0418  0.9460
  367MOL0     H48412  -0.042   5.669   0.908  1.4636  2.9331  3.3364
  367MOL0     H48413   0.023   5.628   0.746 -2.2824 -0.5980  0.6794
  367MOL0     H48414  -0.118   5.821   0.728  1.0758  0.1603 -2.8925
  367MOL0     H48415   0.050   5.855   0.693 -2.7442 -2.8909 -2.2624
  367MOL0     H48416   0.020   5.918   0.977  2.1375 -3.0662 -0.8316
  367MOL0     H48417   0.015   6.037   0.835  0.7965 -0.0098 -1.3098
  367MOL0     H48418  -0.216   5.989   0.796  0.0900 -0.8348  0.0507
  367MOL0     H48419  -0.185   6.090   0.936 -0.3900 -0.6234  1.0197
  367MOL0     H48420  -0.196   5.874   1.082 -0.9786  0.4829 -0.2505
  367MOL0     H48421  -0.241   5.780   0.936 -0.4008 -1.6372  2.6489
  367MOL0     H48422  -0.403   6.016   1.032 -1.6701  1.4347 -1.5166
  367MOL0     H48423  -0.428   5.922   0.888 -1.6369  3.6529  0.5590
  367MOL0     H48424  -0.480   5.713   1.040 -0.6095 -0.9312 -1.6450
  367MOL0     H48425  -0.586   5.850   1.079  1.3494  2.1394  1.4359
  367MOL0     H48426   0.432   5.532   0.802 -0.4036  2.4408 -0.3200
  367MOL0     H48427   0.634   5.442   0.908  0.2912 -2.0241  1.3761
  367MOL0     H48428   0.985   5.637   1.229 -0.5408 -0.2636 -0.5635
  367MOL0     H48429   1.163   5.593   1.380 -0.8876  0.2859  0.9994
  367MOL0     H48430   1.551   5.094   1.152  0.5533 -2.9046 -0.2825
  367MOL0     H48431   1.306   5.079   1.090  0.3009  0.7918 -0.6158
  367MOL0     H48432   0.864   5.100   1.186 -0.7246  0.3613 -1.0111
  367MOL0     H48433   0.634   5.061   1.156 -1.1756 -0.6506  1.3388
  367MOL0     H48434   0.460   4.669   1.210 -0.9938 -1.3176 -1.7523
  367MOL0     H48435   0.508   4.677   1.038 -2.0752 -1.4983 -0.5818
  367MOL0     H48436   0.258   4.637   1.061 -0.5331  1.0774 -3.1668
  367MOL0     H48437   0.243   4.773   1.173  1.3752  1.5609 -0.1472
  367MOL0     H48438   0.328   4.795   0.878  1.4548 -1.3954  1.4472
  367MOL0     H48439   0.304   4.919   0.991  1.8429 -0.7602 -0.7579
  367MOL0     H48440   0.081   4.834   1.036  0.2938 -2.6289  1.2655
  367MOL0     H48441   0.101   4.891   0.871  0.3337  1.4985  2.1464
  367MOL0     H48442   0.021   4.471   0.821 -2.7384  1.1792  0.9954
  367MOL0     H48443   0.683   4.643   1.216 -0.6301  0.3472 -2.1185
  367MOL0     H48444   0.937   4.682   1.245  2.3528  1.5373  1.3759
  368MOL0     O48445   6.730   5.709   0.212 -0.0859  0.4471 -0.0232
  368MOL0     C48446   6.746   5.606   0.275 -0.7075  0.9141 -0.2469
  368MOL0     O48447   6.694   5.580   0.401  0.8902 -0.1821  1.0493
  368MOL0     C48448   6.578   5.649   0.438 -0.2130 -1.1292  1.0221
  368MOL0     C48449   6.586   5.732   0.551  0.6396 -0.1930 -0.5698
  368MOL0     C48450   6.473   5.804   0.604 -0.1953  0.3533 -0.0309
  368MOL0     C48451   6.363   5.807   0.529 -0.1715 -0.1915  0.5368
  368MOL0     O48452   6.252   5.882   0.560 -0.0761  0.1839  0.3527
  368MOL0     C48453   6.264   6.014   0.600 -0.2585  0.1156  0.1104
  368MOL0     C48454   6.132   6.066   0.676 -0.0239  0.7305 -0.1133
  368MOL0     C48455   6.001   6.034   0.608  0.0767 -0.1326  0.3214
  368MOL0     C48456   5.887   6.023   0.701  0.1765 -0.2215 -0.3178
  368MOL0     C48457   5.749   6.037   0.647  0.5708 -0.0096 -0.1805
  368MOL0     C48458   5.720   5.917   0.555 -0.3221  0.1935 -0.0695
  368MOL0     C48459   5.572   5.921   0.506  0.5582 -1.0323  1.3944
  368MOL0     C48460   5.540   6.042   0.411  0.5031  1.2332 -0.0068
  368MOL0     N48461   5.399   6.025   0.369  0.1231  0.3435 -0.5853
  368MOL0     C48462   5.360   5.947   0.266 -0.0802 -0.3910  0.4890
  368MOL0     C48463   5.238   5.995   0.231  0.1116 -0.7288  0.2050
  368MOL0     C48464   5.165   5.962   0.102  0.0547 -0.2232 -0.0723
  368MOL0     C48465   5.045   5.867   0.109 -1.0967 -0.2174 -0.7084
  368MOL0     C48466   4.915   5.927   0.169 -0.0196  0.6786 -0.3791
  368MOL0     C48467   4.793   5.833   0.167 -0.1437 -0.5721 -0.1298
  368MOL0     O48468   4.664   5.893   0.199 -0.6136  0.3075 -0.6115
  368MOL0     C48469   4.546   5.826   0.180  0.2907 -0.2756 -0.1025
  368MOL0     C48470   4.525   5.722   0.088 -0.2387 -0.8391 -0.1915
  368MOL0     C48471   4.400   5.659   0.089  0.2221  0.3999  1.3292
  368MOL0     C48472   4.287   5.715   0.157 -1.0290 -0.0028  0.0225
  368MOL0     C48473   4.152   5.661   0.136  0.3040  0.0908 -0.1871
  368MOL0     O48474   4.069   5.695   0.244  0.4590  1.1769  0.5968
  368MOL0     C48475   3.943   5.646   0.229 -1.0622  0.4948 -0.5681
  368MOL0     C48476   3.828   5.730   0.236 -0.4959 -0.6785 -0.2819
  368MOL0     C48477   3.704   5.673   0.247  0.7200 -0.2636 -0.8776
  368MOL0     C48478   3.684   5.533   0.261  0.1579  0.7455  0.5061
  368MOL0     O48479   3.557   5.484   0.268  0.4681  0.7065 -0.7204
  368MOL0     C48480   3.507   5.425   0.148  0.3862 -0.0907  0.2098
  368MOL0     C48481   3.357   5.382   0.151  1.1746  0.6673  0.0421
  368MOL0     C48482   3.358   5.266   0.249  0.0862  0.9158  0.2459
  368MOL0     C48483   3.224   5.186   0.224  0.5549  0.8023  0.2083
  368MOL0     C48484   3.094   5.252   0.271 -0.5378 -0.0733  0.2971
  368MOL0     C48485   2.979   5.167   0.309 -0.3388 -0.3694 -0.0492
  368MOL0     C48486   2.909   5.092   0.191  0.1225 -0.1248 -0.2701
  368MOL0     C48487   2.783   5.028   0.233 -0.0222 -0.4253 -0.3516
  368MOL0    Cl48488   2.820   4.916   0.378 -0.0493 -0.2475  0.0910
  368MOL0     C48489   3.790   5.448   0.232  0.4307 -0.1045  0.4769
  368MOL0     C48490   3.917   5.504   0.226 -0.6271  0.0466  0.6571
  368MOL0     O48491   4.119   5.599   0.029 -0.6394 -0.1146 -1.0527
  368MOL0     C48492   4.313   5.826   0.242  0.4066  0.6077  0.4974
  368MOL0     C48493   4.444   5.876   0.255 -0.2616  1.1737 -0.3346
  368MOL0     N48494   5.196   6.093   0.320 -0.7098  0.3855 -0.0692
  368MOL0     N48495   5.294   6.100   0.399  0.6080 -1.0653 -0.0558
  368MOL0     C48496   6.346   5.725   0.416  0.4609 -0.0280  0.3894
  368MOL0     C48497   6.456   5.649   0.367  0.1116 -0.6501 -0.4234
  368MOL0     C48498   6.862   5.509   0.236  0.2279 -0.7115 -1.0135
  368MOL0     C48499   6.925   5.415   0.314 -0.6880 -0.4278 -0.7216
  368MOL0     C48500   7.036   5.339   0.273  0.4151  0.2870 -0.0845
  368MOL0     C48501   7.081   5.350   0.141 -0.0442 -0.7760  0.9669
  368MOL0     O48502   7.197   5.276   0.104 -0.0144 -0.0372  0.1964
  368MOL0     C48503   7.263   5.318  -0.019 -0.3157 -0.2016  0.0603
  368MOL0     C48504   7.400   5.251  -0.037  0.1382 -1.0470  0.5304
  368MOL0     C48505   7.459   5.283  -0.173  1.1665 -0.8677 -0.3022
  368MOL0     C48506   7.607   5.246  -0.172  0.1170  0.2228  0.3604
  368MOL0     C48507   7.675   5.330  -0.077 -0.0846 -0.4076 -0.7033
  368MOL0     C48508   7.749   5.414  -0.022 -0.0768  0.6884  0.0927
  368MOL0     C48509   7.007   5.439   0.061  0.8041 -0.0212 -0.5125
  368MOL0     C48510   6.917   5.527   0.109 -0.7071 -0.0031 -0.5108
  368MOL0     H48511   6.687   5.739   0.592  0.6277 -3.7431  0.3660
  368MOL0     H48512   6.481   5.861   0.697 -1.2237  0.2642  0.1208
  368MOL0     H48513   6.292   6.078   0.516  0.6507 -0.1124  0.2310
  368MOL0     H48514   6.340   6.038   0.674  1.1034  2.2627 -1.8707
  368MOL0     H48515   6.150   6.173   0.685  1.1999  0.6843 -1.5895
  368MOL0     H48516   6.133   6.026   0.778  0.5094 -2.2162 -1.1777
  368MOL0     H48517   6.010   5.942   0.550 -1.8934 -1.3983  1.8847
  368MOL0     H48518   5.991   6.113   0.534  0.4788  2.0232  2.4402
  368MOL0     H48519   5.902   5.940   0.770  0.2206  0.5531  0.6370
  368MOL0     H48520   5.901   6.113   0.762  1.9175 -0.0169 -0.9411
  368MOL0     H48521   5.749   6.131   0.592  1.9444 -0.0892 -0.3592
  368MOL0     H48522   5.678   6.050   0.729  2.5206  0.6980  1.4754
  368MOL0     H48523   5.737   5.824   0.610 -0.2958  1.5446  2.3459
  368MOL0     H48524   5.779   5.914   0.463  0.0528 -0.6016  0.1880
  368MOL0     H48525   5.558   5.828   0.450 -1.6521  0.2994 -0.3869
  368MOL0     H48526   5.501   5.908   0.589  0.6804  1.2545  1.9245
  368MOL0     H48527   5.608   6.040   0.326 -0.4914 -0.5017 -0.8251
  368MOL0     H48528   5.560   6.139   0.458  1.4970  1.4129 -0.7892
  368MOL0     H48529   5.410   5.859   0.227  0.3985 -0.3317  0.9499
  368MOL0     H48530   5.236   5.907   0.041  0.1435 -2.1963  1.7057
  368MOL0     H48531   5.140   6.052   0.043 -4.1826 -0.8560  0.4387
  368MOL0     H48532   5.075   5.784   0.173  1.8466  1.5237  0.3534
  368MOL0     H48533   5.032   5.827   0.008 -0.3254 -0.0236 -0.8922
  368MOL0     H48534   4.938   5.951   0.273  2.3038 -3.5236  0.3252
  368MOL0     H48535   4.892   6.018   0.114 -2.2158  0.6805  0.4572
  368MOL0     H48536   4.811   5.756   0.242  1.9740 -0.7448 -0.7680
  368MOL0     H48537   4.791   5.783   0.070  1.3389  0.8648 -0.9363
  368MOL0     H48538   4.601   5.687   0.019  2.5326  0.9770  1.6998
  368MOL0     H48539   4.394   5.578   0.017  0.3560  0.4549  1.2548
  368MOL0     H48540   3.848   5.836   0.234  1.2174 -0.9811 -2.0447
  368MOL0     H48541   3.616   5.735   0.232  2.9794  2.8030 -2.5496
  368MOL0     H48542   3.560   5.335   0.118  1.9908  1.2555 -1.1666
  368MOL0     H48543   3.532   5.494   0.067  0.0917 -1.8280 -1.4267
  368MOL0     H48544   3.319   5.340   0.058 -1.3913 -1.4133  1.8656
  368MOL0     H48545   3.290   5.460   0.188 -2.0591 -1.3119 -1.1470
  368MOL0     H48546   3.366   5.309   0.349  1.6741 -0.6775  0.8630
  368MOL0     H48547   3.439   5.197   0.224 -1.0465  0.0169 -1.0356
  368MOL0     H48548   3.194   5.153   0.124 -0.6988  2.1240  0.1162
  368MOL0     H48549   3.229   5.094   0.283 -2.4164 -1.4716 -2.6838
  368MOL0     H48550   3.072   5.328   0.195  2.8927  0.8705  0.1051
  368MOL0     H48551   3.119   5.315   0.357  2.1115 -0.1642 -0.3389
  368MOL0     H48552   2.912   5.227   0.371  0.3177 -1.6702  2.0287
  368MOL0     H48553   3.021   5.091   0.376  3.0040  1.7629  0.4809
  368MOL0     H48554   2.897   5.152   0.100  0.7876 -1.7751 -1.4847
  368MOL0     H48555   2.978   5.014   0.159  2.9270  1.8298  0.5823
  368MOL0     H48556   2.726   4.972   0.157 -0.4190 -3.2278  1.8244
  368MOL0     H48557   2.718   5.108   0.270 -0.4640 -1.3377  0.9186
  368MOL0     H48558   3.772   5.341   0.236  1.7975 -0.3223  1.6184
  368MOL0     H48559   3.988   5.426   0.200 -2.0832 -1.3990  0.8645
  368MOL0     H48560   4.231   5.869   0.297  1.0239  0.3504  1.6474
  368MOL0     H48561   4.470   5.959   0.320  0.9653  1.8291 -1.5939
  368MOL0     H48562   6.260   5.715   0.351 -0.0136 -2.0622  1.2587
  368MOL0     H48563   6.443   5.588   0.279 -2.5370 -0.4055 -0.2587
  368MOL0     H48564   6.886   5.390   0.412  0.2005  0.3115 -0.1635
  368MOL0     H48565   7.083   5.266   0.338  0.1107  0.5135  0.3943
  368MOL0     H48566   7.280   5.426  -0.022  1.7185 -0.4224 -4.6405
  368MOL0     H48567   7.208   5.291  -0.110 -0.0615  1.7192 -0.6953
  368MOL0     H48568   7.464   5.280   0.047  0.3820  2.8459 -0.8031
  368MOL0     H48569   7.381   5.143  -0.031  2.7175 -1.5275  0.9876
  368MOL0     H48570   7.438   5.388  -0.193 -0.8603 -0.9204  1.2097
  368MOL0     H48571   7.399   5.230  -0.247 -0.7984  1.4601 -0.4826
  368MOL0     H48572   7.616   5.140  -0.150 -3.3918 -0.6233 -1.4517
  368MOL0     H48573   7.659   5.267  -0.266 -2.4934  1.7601 -0.8524
  368MOL0     H48574   7.822   5.474   0.029 -0.3339  0.4003  0.8132
  368MOL0     H48575   7.045   5.443  -0.041 -0.4541  1.6721 -0.9587
  368MOL0     H48576   6.869   5.597   0.042 -3.5022 -0.3806  0.9105
  369MOL0     O48577   0.395   7.405   6.326  0.1002  0.0684 -0.3834
  369MOL0     C48578   0.448   7.404   6.441 -0.6895 -0.4745  0.4616
  369MOL0     O48579   0.429   7.309   6.537  0.1202 -0.3331 -0.4551
  369MOL0     C48580   0.317   7.231   6.551 -0.2365  0.2648  0.7649
  369MOL0     C48581   0.184   7.265   6.505  0.7207  0.1108  0.5289
  369MOL0     C48582   0.067   7.181   6.527  0.0638 -0.4939 -1.1649
  369MOL0     C48583   0.090   7.056   6.584  0.2411  0.0974 -0.6361
  369MOL0     O48584  -0.005   6.966   6.582  1.0732  0.1143  0.5420
  369MOL0     C48585   0.034   6.836   6.540  0.3303  0.4889 -0.5953
  369MOL0     C48586  -0.083   6.739   6.513 -0.1304 -0.7325 -1.1177
  369MOL0     C48587  -0.161   6.687   6.625  0.5805 -0.0657 -0.6830
  369MOL0     C48588  -0.257   6.577   6.582  0.1263  0.5279 -0.4350
  369MOL0     C48589  -0.342   6.545   6.700  0.4925 -0.0605 -0.2342
  369MOL0     C48590  -0.461   6.452   6.659  0.4096 -0.2474  0.5976
  369MOL0     C48591  -0.575   6.435   6.762  0.6374 -0.3009 -0.5193
  369MOL0     C48592  -0.664   6.564   6.791  0.3785  0.6298  0.5604
  369MOL0     N48593  -0.786   6.520   6.862  1.4119 -0.3686  0.5132
  369MOL0     C48594  -0.874   6.432   6.810 -0.1585 -0.4222  0.6095
  369MOL0     C48595  -0.977   6.430   6.904 -0.8725 -0.4889 -0.3684
  369MOL0     C48596  -1.109   6.363   6.887  0.1955  0.2121 -0.0106
  369MOL0     C48597  -1.148   6.248   6.981 -0.3510  0.5853  0.8662
  369MOL0     C48598  -1.191   6.291   7.125  0.5333  0.5161  0.6006
  369MOL0     C48599  -1.314   6.390   7.125  0.6348 -0.1874  0.5373
  369MOL0     O48600  -1.359   6.396   7.259  0.4112 -0.1304 -0.2004
  369MOL0     C48601  -1.490   6.357   7.274  0.1465 -0.4772  0.1687
  369MOL0     C48602  -1.602   6.442   7.292  0.5472  0.5971 -0.0534
  369MOL0     C48603  -1.724   6.384   7.320  0.1975  0.3927 -0.3661
  369MOL0     C48604  -1.746   6.248   7.347 -0.1805  0.1268 -0.4913
  369MOL0     C48605  -1.864   6.184   7.401  0.0875  0.1117  0.1213
  369MOL0     O48606  -1.852   6.045   7.421 -0.1113 -0.9251  0.3221
  369MOL0     C48607  -1.962   5.972   7.430  0.5545 -0.1606  0.5614
  369MOL0     C48608  -1.991   5.865   7.338 -0.4738 -0.3552 -0.2284
  369MOL0     C48609  -2.112   5.793   7.332  0.2957 -0.2150 -1.2193
  369MOL0     C48610  -2.208   5.829   7.431  0.9912 -0.1182  0.5892
  369MOL0     O48611  -2.315   5.741   7.428 -1.0104  0.1435  0.3947
  369MOL0     C48612  -2.413   5.752   7.534  0.0729 -0.3673 -0.9337
  369MOL0     C48613  -2.517   5.638   7.542  0.3120  0.8228  0.1254
  369MOL0     C48614  -2.662   5.682   7.571  0.9550  0.0319 -0.4183
  369MOL0     C48615  -2.757   5.572   7.611  0.0160 -0.0638 -0.0300
  369MOL0     C48616  -2.897   5.625   7.634  0.4662  0.2086 -0.0895
  369MOL0     C48617  -3.010   5.505   7.643  0.1603 -0.1534 -0.0230
  369MOL0     C48618  -3.143   5.561   7.683  0.0426  0.5236  0.1959
  369MOL0     C48619  -3.255   5.453   7.685  0.2912 -0.2134 -0.5703
  369MOL0    Cl48620  -3.420   5.521   7.705  0.3632 -0.1773  0.1261
  369MOL0     C48621  -2.183   5.928   7.529  0.1019 -0.0963  0.9628
  369MOL0     C48622  -2.066   6.002   7.530 -0.2447 -0.1273 -0.6378
  369MOL0     O48623  -1.964   6.257   7.428  0.5599 -0.3560  0.5337
  369MOL0     C48624  -1.629   6.168   7.331  0.1377 -0.2564 -0.1980
  369MOL0     C48625  -1.510   6.219   7.301 -0.6817 -0.2225  0.2846
  369MOL0     N48626  -0.947   6.523   7.003 -0.3855 -0.1646 -0.3070
  369MOL0     N48627  -0.835   6.577   6.972  0.3380  0.0313 -0.5431
  369MOL0     C48628   0.220   7.023   6.641  0.2636 -0.7393 -0.8359
  369MOL0     C48629   0.330   7.111   6.618  0.4966 -0.3144  0.7847
  369MOL0     C48630   0.560   7.497   6.468  0.4181  0.3377  0.0879
  369MOL0     C48631   0.661   7.457   6.556 -0.1608 -1.0410 -0.7315
  369MOL0     C48632   0.758   7.554   6.590  0.3140 -0.3137 -0.2191
  369MOL0     C48633   0.745   7.688   6.547  0.3924 -0.2310 -0.1688
  369MOL0     O48634   0.821   7.799   6.586 -0.2635 -0.0750  0.0237
  369MOL0     C48635   0.933   7.778   6.670 -0.6680 -0.0834  0.4763
  369MOL0     C48636   1.057   7.715   6.599  0.1134 -0.1998 -0.6380
  369MOL0     C48637   1.119   7.812   6.508 -0.8317 -0.5229 -0.2238
  369MOL0     C48638   1.261   7.778   6.468  0.4617  0.9691  0.2486
  369MOL0     C48639   1.329   7.884   6.399  0.1885 -0.0597  0.2403
  369MOL0     C48640   1.393   7.959   6.324  0.8183  0.3982 -0.1713
  369MOL0     C48641   0.640   7.718   6.460 -0.1299 -0.7285  0.4183
  369MOL0     C48642   0.556   7.621   6.417  0.4825 -0.6934 -0.2251
  369MOL0     H48643   0.171   7.351   6.439  0.4178 -0.3119  0.0288
  369MOL0     H48644  -0.024   7.215   6.478 -0.2541  1.3817  0.5862
  369MOL0     H48645   0.101   6.801   6.620 -0.4180  0.4761  0.0368
  369MOL0     H48646   0.092   6.836   6.448  2.3028  0.3802  0.5944
  369MOL0     H48647  -0.057   6.656   6.446 -0.9114 -3.2517  1.4723
  369MOL0     H48648  -0.153   6.787   6.444 -0.0606  1.0736  0.0086
  369MOL0     H48649  -0.202   6.761   6.693  0.6505 -0.8186  0.2070
  369MOL0     H48650  -0.082   6.641   6.686  0.9335  2.5950  1.0088
  369MOL0     H48651  -0.312   6.621   6.498  1.1087  3.2238  0.2531
  369MOL0     H48652  -0.196   6.488   6.561 -0.1254 -0.7858  3.4894
  369MOL0     H48653  -0.383   6.636   6.744 -3.5711 -1.4760 -0.6350
  369MOL0     H48654  -0.285   6.509   6.786 -0.7911 -2.4207 -0.2907
  369MOL0     H48655  -0.419   6.356   6.628 -0.6666 -0.8179  0.8696
  369MOL0     H48656  -0.513   6.483   6.569  2.4441  0.8040 -0.2820
  369MOL0     H48657  -0.638   6.349   6.736 -2.1348  0.5340  2.6948
  369MOL0     H48658  -0.523   6.403   6.853  2.5631  2.0072 -0.7156
  369MOL0     H48659  -0.679   6.615   6.695  3.6097 -2.6890 -1.9756
  369MOL0     H48660  -0.612   6.632   6.859 -0.6898  0.2392  1.8301
  369MOL0     H48661  -0.879   6.382   6.714 -1.0777  2.3715 -0.9398
  369MOL0     H48662  -1.112   6.327   6.784 -1.4114  0.1153  0.0380
  369MOL0     H48663  -1.185   6.438   6.910 -1.2345 -2.3325  4.8824
  369MOL0     H48664  -1.061   6.182   6.991 -0.9501 -0.7767 -1.7968
  369MOL0     H48665  -1.228   6.198   6.925  0.0698  0.5668  0.2762
  369MOL0     H48666  -1.224   6.197   7.170  1.1666 -0.5462 -1.0677
  369MOL0     H48667  -1.110   6.323   7.191  0.1090  1.4848  0.6701
  369MOL0     H48668  -1.400   6.349   7.070 -1.9082  1.8155  2.7286
  369MOL0     H48669  -1.313   6.492   7.087 -2.9869  0.8121  2.6943
  369MOL0     H48670  -1.612   6.550   7.288 -2.7957  0.3753 -0.3452
  369MOL0     H48671  -1.805   6.456   7.328 -1.2251 -1.1490 -0.1326
  369MOL0     H48672  -1.916   5.841   7.262 -1.1741 -0.5070 -0.8873
  369MOL0     H48673  -2.149   5.723   7.258 -1.1261  2.2270 -2.9780
  369MOL0     H48674  -2.467   5.847   7.525 -0.0744 -0.2627  0.7033
  369MOL0     H48675  -2.370   5.742   7.635 -0.2437 -0.3112 -0.7923
  369MOL0     H48676  -2.496   5.561   7.617 -3.1938 -3.2623 -2.6066
  369MOL0     H48677  -2.518   5.583   7.447 -1.2207  3.1308 -1.3033
  369MOL0     H48678  -2.701   5.737   7.485  0.2023 -1.0603 -0.7991
  369MOL0     H48679  -2.664   5.762   7.645 -0.6769 -0.0984 -0.2934
  369MOL0     H48680  -2.750   5.495   7.533  0.8515  0.5002 -0.5382
  369MOL0     H48681  -2.713   5.521   7.698  0.9925 -1.6164 -1.3766
  369MOL0     H48682  -2.924   5.707   7.566 -0.4007  1.0960  1.2920
  369MOL0     H48683  -2.907   5.678   7.729  2.0297  0.6575 -0.1593
  369MOL0     H48684  -2.971   5.424   7.704 -0.5464  0.2743  1.0288
  369MOL0     H48685  -3.008   5.461   7.543 -1.4354 -1.8607  0.6462
  369MOL0     H48686  -3.147   5.602   7.784 -4.9679 -0.0884  0.5132
  369MOL0     H48687  -3.165   5.645   7.616 -3.3916 -1.2475 -1.1815
  369MOL0     H48688  -3.237   5.383   7.766  1.9241 -0.4412 -1.0943
  369MOL0     H48689  -3.250   5.394   7.593 -0.9395 -1.6083  0.2127
  369MOL0     H48690  -2.260   5.946   7.603 -1.1081  0.4440 -0.3710
  369MOL0     H48691  -2.050   6.064   7.618 -2.0205 -2.0979  1.1772
  369MOL0     H48692  -1.645   6.070   7.376 -2.4106  1.2299  2.4724
  369MOL0     H48693  -1.429   6.147   7.297  0.9710  1.5495  0.4055
  369MOL0     H48694   0.244   6.936   6.701  1.1415 -0.1986 -0.3813
  369MOL0     H48695   0.419   7.082   6.673  0.5514 -1.0961  0.2958
  369MOL0     H48696   0.672   7.362   6.606  0.3396 -0.9872 -0.7267
  369MOL0     H48697   0.840   7.519   6.651 -0.9804 -2.4886  0.3749
  369MOL0     H48698   0.917   7.722   6.762  1.7926  0.7554  1.4965
  369MOL0     H48699   0.970   7.871   6.713  2.1077  1.0594 -3.7679
  369MOL0     H48700   1.132   7.689   6.675 -0.0916  0.1193 -0.3206
  369MOL0     H48701   1.037   7.628   6.536  1.1057 -1.3132  0.5106
  369MOL0     H48702   1.110   7.912   6.551 -2.8940 -0.0282 -1.6854
  369MOL0     H48703   1.060   7.817   6.416 -0.4734  1.1604 -0.4020
  369MOL0     H48704   1.318   7.760   6.560 -0.5738  2.8189  1.3299
  369MOL0     H48705   1.254   7.684   6.413 -2.7700 -0.7780  3.2398
  369MOL0     H48706   1.433   8.017   6.243  1.7473  1.7617  1.2143
  369MOL0     H48707   0.632   7.818   6.419  1.4300 -0.6265  0.2835
  369MOL0     H48708   0.480   7.652   6.346  2.1477 -0.8470 -2.1750
  370MOL0     O48709   9.933   1.739   3.964  0.4451  0.2598  0.5173
  370MOL0     C48710   9.898   1.704   3.847 -0.5399  0.2810 -0.0543
  370MOL0     O48711   9.976   1.623   3.758 -0.7603  0.1225 -0.9515
  370MOL0     C48712  10.102   1.584   3.806  0.3129 -0.2679 -0.0332
  370MOL0     C48713  10.131   1.449   3.783  0.8084 -0.5963  0.3495
  370MOL0     C48714  10.267   1.411   3.783  0.1726 -0.7876  0.6922
  370MOL0     C48715  10.368   1.478   3.842  0.6596 -0.9801  0.4184
  370MOL0     O48716  10.488   1.426   3.857  0.2476 -0.1182  0.4218
  370MOL0     C48717  10.594   1.507   3.802  0.2232  0.2969  0.1832
  370MOL0     C48718  10.721   1.420   3.813  0.4805 -0.2001  0.2665
  370MOL0     C48719  10.844   1.506   3.766 -0.4441  0.2622  0.0125
  370MOL0     C48720  10.969   1.425   3.723 -0.4227  0.1114  0.9384
  370MOL0     C48721  11.080   1.521   3.697 -0.0412  0.4536 -1.0431
  370MOL0     C48722  11.214   1.469   3.628 -0.4089 -0.0997 -1.0091
  370MOL0     C48723  11.316   1.580   3.590 -0.1912  0.6643 -0.5647
  370MOL0     C48724  11.408   1.640   3.695  0.2569  1.2009  0.8330
  370MOL0     N48725  11.509   1.542   3.745  0.0924 -0.0353  0.3856
  370MOL0     C48726  11.611   1.490   3.667 -0.1844 -0.3491 -0.5194
  370MOL0     C48727  11.663   1.390   3.738 -0.7610  0.0624 -0.5118
  370MOL0     C48728  11.776   1.305   3.696 -0.8370  0.0705 -0.1930
  370MOL0     C48729  11.887   1.296   3.803  0.5318 -0.1965  0.1806
  370MOL0     C48730  11.986   1.175   3.790  0.5103 -0.1769 -0.7695
  370MOL0     C48731  12.127   1.210   3.842  0.1732  0.3179 -0.9965
  370MOL0     O48732  12.208   1.093   3.872  0.0726 -0.0813 -0.0389
  370MOL0     C48733  12.333   1.126   3.918 -0.1898  0.5102  0.1613
  370MOL0     C48734  12.435   1.026   3.937  0.5630  0.1371  0.0168
  370MOL0     C48735  12.562   1.067   3.978 -0.4058 -0.1805 -0.1945
  370MOL0     C48736  12.605   1.200   3.999  1.3742  0.8916  0.3991
  370MOL0     C48737  12.747   1.234   4.028  0.3278 -0.2833 -0.1202
  370MOL0     O48738  12.818   1.121   4.056 -0.3436 -0.5107 -0.1560
  370MOL0     C48739  12.953   1.131   4.073  0.3289  0.0107  0.1861
  370MOL0     C48740  13.041   1.061   3.985 -0.4001  0.4642 -1.0492
  370MOL0     C48741  13.180   1.060   4.022  0.9578 -0.1398  0.7122
  370MOL0     C48742  13.234   1.135   4.136  0.6152  0.0453 -0.0029
  370MOL0     O48743  13.359   1.143   4.182 -0.3039  0.4416 -0.3084
  370MOL0     C48744  13.449   1.031   4.153  0.5717 -0.3937 -0.6837
  370MOL0     C48745  13.574   1.058   4.228  1.2586 -0.0175  0.3956
  370MOL0     C48746  13.678   0.952   4.188  1.1173  0.3947 -0.5860
  370MOL0     C48747  13.807   1.006   4.248  0.3568  0.4953 -0.4922
  370MOL0     C48748  13.921   0.910   4.217 -0.5937  0.6862 -0.8971
  370MOL0     C48749  14.059   0.942   4.295  0.1586  0.2297  0.0076
  370MOL0     C48750  14.170   0.848   4.255  0.6868  0.5724  0.7896
  370MOL0     C48751  14.269   0.836   4.370  0.7569 -0.3517  0.2479
  370MOL0    Cl48752  14.362   0.987   4.391  0.5486 -0.3976 -0.4356
  370MOL0     C48753  13.145   1.210   4.208 -0.0900  0.0176 -0.6574
  370MOL0     C48754  13.006   1.201   4.179 -0.5706 -0.1392 -0.2952
  370MOL0     O48755  12.787   1.353   4.007 -0.0483 -0.0282  0.1201
  370MOL0     C48756  12.510   1.292   3.981 -0.8736  0.1262 -0.2152
  370MOL0     C48757  12.382   1.257   3.944 -0.0904  0.7149  0.2197
  370MOL0     N48758  11.590   1.383   3.857 -0.0658 -0.3979  0.2446
  370MOL0     N48759  11.502   1.475   3.859 -0.6197  0.5649 -0.8071
  370MOL0     C48760  10.332   1.601   3.882  0.8331 -0.2975 -0.1287
  370MOL0     C48761  10.203   1.654   3.861 -0.9355 -0.2392  0.0566
  370MOL0     C48762   9.762   1.751   3.815 -0.1103  0.0213  0.4537
  370MOL0     C48763   9.709   1.865   3.873 -1.1417  0.1928  1.5996
  370MOL0     C48764   9.581   1.905   3.837 -1.4348 -0.5695 -0.3532
  370MOL0     C48765   9.509   1.847   3.734 -0.0137  0.1267  0.6641
  370MOL0     O48766   9.381   1.877   3.691 -0.0598  0.0425  0.1706
  370MOL0     C48767   9.287   1.938   3.779  0.2671 -0.3422 -0.6667
  370MOL0     C48768   9.242   2.076   3.714 -0.2584 -0.3686 -0.0900
  370MOL0     C48769   9.185   2.166   3.824 -0.9758  0.1046  0.4867
  370MOL0     C48770   9.097   2.278   3.771 -0.4540  0.0910 -0.6809
  370MOL0     C48771   8.974   2.231   3.696 -0.2712  1.0805 -0.7819
  370MOL0     C48772   8.886   2.189   3.624  0.4426 -0.4613 -0.1724
  370MOL0     C48773   9.568   1.733   3.670 -0.5339 -0.2873 -0.4277
  370MOL0     C48774   9.695   1.683   3.709  0.4555  0.3193  0.0498
  370MOL0     H48775  10.051   1.383   3.751 -0.2516  1.3013 -1.1229
  370MOL0     H48776  10.281   1.311   3.744 -0.7413 -0.9716  0.8128
  370MOL0     H48777  10.606   1.604   3.851  3.1119  0.1239  0.0091
  370MOL0     H48778  10.581   1.534   3.697  0.6501 -1.5841 -0.3994
  370MOL0     H48779  10.714   1.334   3.747  4.5043 -1.7025  1.5109
  370MOL0     H48780  10.735   1.387   3.917  0.7568 -5.3801 -1.1681
  370MOL0     H48781  10.871   1.567   3.852 -3.8571  1.6384  0.2709
  370MOL0     H48782  10.815   1.572   3.684 -1.8854 -0.4837 -0.1210
  370MOL0     H48783  10.986   1.338   3.787  0.5385 -1.6121 -1.4836
  370MOL0     H48784  10.944   1.368   3.632 -0.5352  2.9280 -0.9282
  370MOL0     H48785  11.101   1.579   3.787 -1.5282 -2.3520  1.2761
  370MOL0     H48786  11.035   1.592   3.627 -0.6644 -0.5275 -1.6654
  370MOL0     H48787  11.186   1.413   3.538 -1.1422  0.8991 -1.4218
  370MOL0     H48788  11.272   1.400   3.690  2.2311 -0.0176 -3.2194
  370MOL0     H48789  11.371   1.548   3.501 -0.0549  3.4851 -1.6150
  370MOL0     H48790  11.253   1.660   3.550 -2.2539 -0.4038  0.3956
  370MOL0     H48791  11.353   1.675   3.783 -2.9905 -1.8802  0.2692
  370MOL0     H48792  11.462   1.724   3.649  0.9754  0.7350  0.8146
  370MOL0     H48793  11.634   1.527   3.568 -0.1572 -0.3624 -0.5180
  370MOL0     H48794  11.812   1.345   3.601  0.3488  1.4124  0.7843
  370MOL0     H48795  11.738   1.203   3.687  0.6826 -0.7677  1.9616
  370MOL0     H48796  11.837   1.275   3.898 -1.4087 -0.2388 -0.7977
  370MOL0     H48797  11.951   1.384   3.805  2.6531 -1.6462 -0.5493
  370MOL0     H48798  11.946   1.090   3.846 -2.0996  0.4790 -1.4723
  370MOL0     H48799  11.989   1.134   3.689 -1.6446 -0.9017 -0.5977
  370MOL0     H48800  12.117   1.262   3.937 -1.0947 -0.4756 -0.6689
  370MOL0     H48801  12.165   1.275   3.762 -1.8580  1.4259 -1.1135
  370MOL0     H48802  12.414   0.920   3.932  0.6453 -0.0811  2.8423
  370MOL0     H48803  12.640   0.993   3.989  0.7116  1.0569  0.5118
  370MOL0     H48804  13.013   0.995   3.904 -0.5297  1.9531 -2.2670
  370MOL0     H48805  13.255   1.003   3.967 -1.0333 -1.4294 -0.8160
  370MOL0     H48806  13.467   1.012   4.047  0.2426  0.5596 -0.9151
  370MOL0     H48807  13.401   0.939   4.188 -2.9503  1.9301  1.1575
  370MOL0     H48808  13.558   1.068   4.336 -0.3087  1.9546  0.0380
  370MOL0     H48809  13.614   1.152   4.190 -1.3054  1.4185  0.9789
  370MOL0     H48810  13.684   0.930   4.082 -0.4637 -3.1624 -0.0711
  370MOL0     H48811  13.641   0.861   4.236 -2.8021  1.2730 -1.6319
  370MOL0     H48812  13.834   1.103   4.207  1.3015  0.8034  0.7861
  370MOL0     H48813  13.801   1.014   4.357  0.8942 -1.0918 -0.3102
  370MOL0     H48814  13.955   0.915   4.113 -0.3352  1.0795 -0.7988
  370MOL0     H48815  13.892   0.811   4.251 -0.8854  1.6678  2.0106
  370MOL0     H48816  14.049   0.927   4.403  1.5046 -2.6830 -0.1629
  370MOL0     H48817  14.088   1.047   4.295  0.0367  0.2663 -0.3927
  370MOL0     H48818  14.130   0.747   4.247  2.8528 -0.4658  2.2024
  370MOL0     H48819  14.214   0.870   4.157 -0.9300  0.1005 -0.0974
  370MOL0     H48820  14.344   0.761   4.342  2.5178  0.7850  1.6906
  370MOL0     H48821  14.229   0.797   4.465  4.6638  0.3682  2.4010
  370MOL0     H48822  13.194   1.259   4.292 -0.1667 -1.7183  0.4497
  370MOL0     H48823  12.935   1.258   4.238  0.4364  1.5884 -0.6564
  370MOL0     H48824  12.535   1.397   3.968 -1.1450  0.1009 -0.9580
  370MOL0     H48825  12.332   1.352   3.927  0.4237  1.5344  2.8702
  370MOL0     H48826  10.410   1.655   3.935 -0.6496  0.4059  1.4321
  370MOL0     H48827  10.191   1.761   3.869  1.9272  0.4543 -2.8697
  370MOL0     H48828   9.753   1.904   3.964  4.2952  1.4706 -1.1509
  370MOL0     H48829   9.542   1.990   3.892  1.4028  0.5675  0.0887
  370MOL0     H48830   9.330   1.964   3.877  0.5175 -1.4862 -0.4579
  370MOL0     H48831   9.208   1.866   3.802 -0.9581  0.2391 -2.7716
  370MOL0     H48832   9.327   2.121   3.661  1.1444 -1.4956  1.1088
  370MOL0     H48833   9.165   2.046   3.642 -0.7447 -3.3120  1.4733
  370MOL0     H48834   9.258   2.222   3.884 -0.3726  1.4396 -1.3881
  370MOL0     H48835   9.120   2.104   3.886 -3.2618  0.1432 -1.7096
  370MOL0     H48836   9.057   2.337   3.854 -0.3386  0.1505 -0.6660
  370MOL0     H48837   9.163   2.350   3.720  2.4147 -0.1591  2.3309
  370MOL0     H48838   8.809   2.147   3.561 -0.8793 -1.3809  1.9401
  370MOL0     H48839   9.511   1.676   3.598 -0.3021  0.7447 -1.4669
  370MOL0     H48840   9.738   1.604   3.647 -2.2233 -0.3030 -1.1379
  371MOL0     O48841   8.096   8.049   9.626  0.6778  0.2721  0.4820
  371MOL0     C48842   8.116   7.961   9.537 -0.2066 -0.1383 -0.1385
  371MOL0     O48843   8.025   7.882   9.476 -0.0768 -0.1633  0.1283
  371MOL0     C48844   7.892   7.903   9.487  0.3821  0.1303 -0.2633
  371MOL0     C48845   7.809   7.791   9.497 -0.6898 -0.2578 -0.3266
  371MOL0     C48846   7.670   7.801   9.486  0.3063 -0.0597  0.3882
  371MOL0     C48847   7.609   7.931   9.476 -0.1642  0.0235  0.3454
  371MOL0     O48848   7.473   7.937   9.457 -0.4126 -1.5345 -0.9467
  371MOL0     C48849   7.409   8.038   9.548 -0.4764  0.3460  0.2198
  371MOL0     C48850   7.252   8.042   9.529 -0.4784 -0.3084 -0.0017
  371MOL0     C48851   7.185   8.151   9.610  0.6597  0.8690 -0.5079
  371MOL0     C48852   7.183   8.115   9.756  0.1148  0.1807 -0.1360
  371MOL0     C48853   7.138   8.231   9.850  0.0810  0.4430 -0.3876
  371MOL0     C48854   7.123   8.186   9.998  0.6412  0.0329  1.2527
  371MOL0     C48855   7.241   8.144  10.074  0.1342 -0.2566 -0.0159
  371MOL0     C48856   7.200   8.058  10.200 -0.6911  0.4120  0.2246
  371MOL0     N48857   7.177   7.919  10.152  0.3928  0.0464  0.6797
  371MOL0     C48858   7.261   7.830  10.090  0.0335  0.2271 -0.0988
  371MOL0     C48859   7.189   7.712  10.075 -0.5041 -0.7089  0.4151
  371MOL0     C48860   7.247   7.590  10.012  0.1763 -0.0363 -0.1436
  371MOL0     C48861   7.203   7.576   9.865 -0.0713 -0.4893  0.3849
  371MOL0     C48862   7.269   7.684   9.770  1.0574 -0.2295 -0.4505
  371MOL0     C48863   7.389   7.629   9.703 -0.4452  0.3249 -0.4231
  371MOL0     O48864   7.353   7.529   9.604  0.1958 -0.1062  0.5970
  371MOL0     C48865   7.453   7.467   9.539 -1.0053 -0.3367  0.6142
  371MOL0     C48866   7.515   7.357   9.606 -0.1707  0.1574 -0.0462
  371MOL0     C48867   7.627   7.291   9.546 -0.3118 -0.3619 -0.9466
  371MOL0     C48868   7.679   7.333   9.421 -0.5362 -0.2939 -0.0309
  371MOL0     C48869   7.791   7.265   9.354 -0.6837 -0.0639 -0.0346
  371MOL0     O48870   7.858   7.180   9.435 -0.3589  0.3405 -0.1191
  371MOL0     C48871   7.967   7.102   9.374 -0.3583 -0.5225 -0.9779
  371MOL0     C48872   7.970   6.969   9.388  0.2321  1.1981  0.2006
  371MOL0     C48873   8.072   6.892   9.328  0.2248 -0.0721 -0.2477
  371MOL0     C48874   8.174   6.948   9.260 -0.0835 -0.4473 -0.0352
  371MOL0     O48875   8.270   6.871   9.203  0.7470  0.4865 -0.1906
  371MOL0     C48876   8.351   6.800   9.298  0.9664 -0.3266  0.2895
  371MOL0     C48877   8.476   6.749   9.233  0.3306 -0.2841  0.3730
  371MOL0     C48878   8.577   6.861   9.201  0.2265  0.7571  0.1430
  371MOL0     C48879   8.715   6.805   9.139 -0.4329 -0.4002 -0.5212
  371MOL0     C48880   8.813   6.915   9.154  0.8737 -0.8532  0.0061
  371MOL0     C48881   8.946   6.856   9.103  0.6524  0.0988 -0.2853
  371MOL0     C48882   9.047   6.966   9.073 -1.3602  0.0248  0.0314
  371MOL0     C48883   9.126   6.931   8.946 -0.7331  0.1616 -0.9666
  371MOL0    Cl48884   9.262   6.827   8.975  0.2444 -0.0090 -0.1346
  371MOL0     C48885   8.179   7.085   9.244  0.4636  0.4324 -0.1816
  371MOL0     C48886   8.080   7.165   9.303  0.1752  0.1149 -0.3946
  371MOL0     O48887   7.811   7.271   9.235  0.2126  0.3922 -0.0043
  371MOL0     C48888   7.609   7.435   9.349 -0.1973 -0.3696  0.5139
  371MOL0     C48889   7.497   7.490   9.409  0.1716 -0.9249 -0.6456
  371MOL0     N48890   7.070   7.723  10.147  0.3972 -0.1589  0.0095
  371MOL0     N48891   7.061   7.853  10.179  0.3982 -0.4468 -0.3765
  371MOL0     C48892   7.695   8.047   9.479  0.3555 -0.5539 -0.5152
  371MOL0     C48893   7.829   8.030   9.476 -0.3110 -0.2979 -0.3627
  371MOL0     C48894   8.251   7.969   9.473 -0.0696 -0.3541  0.2092
  371MOL0     C48895   8.256   7.934   9.340  0.0920 -0.3241 -0.2197
  371MOL0     C48896   8.379   7.937   9.270  0.8101 -0.3308  0.2568
  371MOL0     C48897   8.501   7.963   9.335 -0.0550  0.6184 -0.9246
  371MOL0     O48898   8.617   7.970   9.264  0.1715  0.0932 -0.4890
  371MOL0     C48899   8.730   7.951   9.348 -0.2583  1.0310 -0.1953
  371MOL0     C48900   8.803   8.086   9.374  0.2568 -0.0157 -0.1708
  371MOL0     C48901   8.926   8.062   9.473 -0.5027 -0.3422  0.3303
  371MOL0     C48902   8.971   8.199   9.538  0.9575  0.5793  0.0772
  371MOL0     C48903   9.093   8.175   9.606  0.3099 -0.0239 -0.1601
  371MOL0     C48904   9.188   8.149   9.675 -0.4693 -0.0774 -1.2046
  371MOL0     C48905   8.484   8.007   9.468 -0.1518  0.6238  0.1733
  371MOL0     C48906   8.367   8.012   9.540 -0.8428 -1.1946 -0.1096
  371MOL0     H48907   7.854   7.692   9.492 -2.9405 -1.2869 -1.9321
  371MOL0     H48908   7.619   7.705   9.480  1.4171 -0.6426 -0.1481
  371MOL0     H48909   7.434   8.142   9.524 -0.6901  0.7344  1.5904
  371MOL0     H48910   7.422   8.012   9.653  2.0417 -1.5344 -0.4610
  371MOL0     H48911   7.209   7.941   9.538  2.5716 -2.2272 -3.7906
  371MOL0     H48912   7.234   8.079   9.428 -0.0358  1.2259  0.4601
  371MOL0     H48913   7.084   8.155   9.570  0.3876 -2.0209 -0.3130
  371MOL0     H48914   7.249   8.238   9.591  0.5788  0.4726 -2.9888
  371MOL0     H48915   7.133   8.020   9.775  1.2489 -0.2608  0.7449
  371MOL0     H48916   7.283   8.094   9.794  0.0542  0.0760 -0.0369
  371MOL0     H48917   7.038   8.264   9.822  0.2337 -0.3135 -1.9254
  371MOL0     H48918   7.209   8.314   9.842  3.4794 -2.3280 -1.0219
  371MOL0     H48919   7.053   8.102  10.001  1.1579 -0.5133 -0.6098
  371MOL0     H48920   7.083   8.269  10.057  0.0863 -0.1144  1.0928
  371MOL0     H48921   7.306   8.086  10.008 -0.3273 -1.3046  0.4261
  371MOL0     H48922   7.290   8.233  10.114 -0.7913 -0.0569  0.7205
  371MOL0     H48923   7.116   8.100  10.255  0.0453  2.6561 -0.2375
  371MOL0     H48924   7.286   8.057  10.269 -1.1159  1.9054  0.8050
  371MOL0     H48925   7.364   7.831  10.056 -0.1388  0.0507 -0.6311
  371MOL0     H48926   7.206   7.501  10.061 -0.3369 -0.9486 -2.1426
  371MOL0     H48927   7.356   7.592  10.026  0.1574  2.7312  0.1615
  371MOL0     H48928   7.095   7.590   9.854  0.0614 -1.1647 -2.3564
  371MOL0     H48929   7.236   7.475   9.842 -0.2137 -0.1619 -1.3972
  371MOL0     H48930   7.183   7.699   9.704  0.1802  1.8169  1.0168
  371MOL0     H48931   7.287   7.778   9.823  1.1321 -2.1439  3.2451
  371MOL0     H48932   7.476   7.595   9.760 -0.4699  0.7918 -0.1057
  371MOL0     H48933   7.418   7.710   9.635 -1.7512  1.8502  0.7649
  371MOL0     H48934   7.488   7.327   9.707  0.2545  1.7429  0.5635
  371MOL0     H48935   7.677   7.202   9.584  0.5860 -0.5554 -2.5115
  371MOL0     H48936   7.885   6.923   9.437 -0.0430  1.9342  0.4242
  371MOL0     H48937   8.058   6.785   9.330 -2.3176  0.1791 -0.5118
  371MOL0     H48938   8.297   6.717   9.345 -2.1878  0.3592 -1.8475
  371MOL0     H48939   8.375   6.874   9.375 -1.9186  0.6187  0.3922
  371MOL0     H48940   8.458   6.694   9.140  2.9211 -0.3080 -0.1661
  371MOL0     H48941   8.522   6.676   9.300  1.4729 -1.6581 -1.8077
  371MOL0     H48942   8.611   6.907   9.295  5.5885 -0.7265 -0.7873
  371MOL0     H48943   8.526   6.926   9.129  0.7648 -1.1416 -2.0335
  371MOL0     H48944   8.741   6.708   9.182  2.0205 -0.9184 -2.9064
  371MOL0     H48945   8.710   6.778   9.033  1.1476  0.7175 -0.9293
  371MOL0     H48946   8.829   6.940   9.260 -1.6036 -3.5652  1.1556
  371MOL0     H48947   8.788   6.999   9.088  3.8120  0.8257  0.8317
  371MOL0     H48948   8.930   6.800   9.010 -0.6617 -1.6536  0.9346
  371MOL0     H48949   8.998   6.786   9.169 -0.7380 -3.6032 -2.8119
  371MOL0     H48950   8.993   7.060   9.059 -2.4928  0.0942  3.8052
  371MOL0     H48951   9.110   6.992   9.159 -0.4605  0.1001 -0.6291
  371MOL0     H48952   9.166   7.016   8.890  1.3491  0.8578  1.3861
  371MOL0     H48953   9.054   6.880   8.881 -1.2531 -0.5856  0.1669
  371MOL0     H48954   8.264   7.129   9.193  2.3243 -2.4124  0.2526
  371MOL0     H48955   8.074   7.271   9.283 -0.4735  0.2879  0.6506
  371MOL0     H48956   7.632   7.453   9.244 -1.0456 -1.8580  0.0439
  371MOL0     H48957   7.457   7.568   9.345  0.8058  0.2247  0.3218
  371MOL0     H48958   7.662   8.150   9.468  0.6240 -0.4760 -0.6000
  371MOL0     H48959   7.890   8.119   9.463 -0.1218  0.3813  3.8897
  371MOL0     H48960   8.168   7.909   9.281 -1.8455  1.5246  1.6738
  371MOL0     H48961   8.385   7.911   9.165  2.3169  1.0998 -0.0497
  371MOL0     H48962   8.799   7.877   9.308 -1.7653 -0.2526 -0.5267
  371MOL0     H48963   8.704   7.908   9.446 -3.1549  2.7419 -0.1110
  371MOL0     H48964   8.839   8.124   9.278 -0.4242  0.1474 -0.3671
  371MOL0     H48965   8.728   8.160   9.402 -0.7509 -0.6300 -1.1826
  371MOL0     H48966   9.008   8.020   9.415 -0.9301  1.5707 -1.8166
  371MOL0     H48967   8.902   7.988   9.550 -1.7449  0.5593  0.8390
  371MOL0     H48968   8.978   8.274   9.459 -0.7517  3.0575  2.1310
  371MOL0     H48969   8.887   8.225   9.603 -0.8634 -2.3276 -0.9239
  371MOL0     H48970   9.273   8.137   9.741 -1.1144  0.3648 -0.2748
  371MOL0     H48971   8.572   8.044   9.520  1.3665 -1.4606 -0.7614
  371MOL0     H48972   8.366   8.055   9.639 -1.5467 -2.3534  0.3984
  372MOL0     O48973   5.883   8.549  10.173 -0.4447 -0.1433 -0.6299
  372MOL0     C48974   5.932   8.525  10.061 -0.4294  0.2449 -0.5866
  372MOL0     O48975   5.873   8.538   9.937 -0.0885 -0.4756 -0.0748
  372MOL0     C48976   5.738   8.561   9.929 -0.3156  0.2083 -0.0929
  372MOL0     C48977   5.695   8.630   9.816 -0.5881  0.2329  0.3826
  372MOL0     C48978   5.561   8.645   9.784 -0.3094 -0.2159  0.0190
  372MOL0     C48979   5.460   8.581   9.855 -0.6640 -0.8930 -0.3227
  372MOL0     O48980   5.332   8.580   9.805 -0.3642  0.0199 -0.3871
  372MOL0     C48981   5.236   8.483   9.836 -0.3560 -0.2307 -0.4456
  372MOL0     C48982   5.114   8.546   9.785  0.2535  1.1513  0.3766
  372MOL0     C48983   5.003   8.456   9.836  0.1864  0.5059  0.8213
  372MOL0     C48984   4.872   8.527   9.809 -0.1223  0.0044 -0.1647
  372MOL0     C48985   4.759   8.467   9.886 -0.1700  0.0280  0.8309
  372MOL0     C48986   4.625   8.541   9.861 -0.2453 -0.1370  0.0575
  372MOL0     C48987   4.505   8.448   9.902 -0.3858  0.3937  0.1551
  372MOL0     C48988   4.367   8.513   9.882  0.2636 -0.4594 -0.1412
  372MOL0     N48989   4.254   8.453   9.955  0.3335 -0.2195 -0.5796
  372MOL0     C48990   4.220   8.474  10.095 -0.4516  0.1244  0.1466
  372MOL0     C48991   4.115   8.406  10.116 -0.1591  1.2030 -0.4594
  372MOL0     C48992   4.027   8.392  10.246 -0.1737 -0.4737 -0.5399
  372MOL0     C48993   3.897   8.305  10.217  0.4495 -0.2299 -0.4213
  372MOL0     C48994   3.822   8.267  10.351 -0.3632 -0.3892  0.8093
  372MOL0     C48995   3.672   8.254  10.321 -0.4748 -0.0939  0.0369
  372MOL0     O48996   3.621   8.366  10.264 -0.3112 -0.8612  0.1687
  372MOL0     C48997   3.490   8.375  10.237  0.7080 -0.1850 -0.2009
  372MOL0     C48998   3.443   8.499  10.191 -0.8063  0.1576  0.5593
  372MOL0     C48999   3.304   8.509  10.158  0.3101 -0.2790  0.1837
  372MOL0     C49000   3.212   8.404  10.179  1.1284 -0.4988  1.0653
  372MOL0     C49001   3.069   8.415  10.147  0.7707  0.2973  0.2931
  372MOL0     O49002   3.030   8.548  10.141 -0.2314 -0.4117 -0.0258
  372MOL0     C49003   2.913   8.600  10.091 -0.1313  0.4241  0.3493
  372MOL0     C49004   2.801   8.524  10.062  0.2989  0.5770 -0.8615
  372MOL0     C49005   2.694   8.590  10.014 -0.2864 -0.1737  0.8088
  372MOL0     C49006   2.697   8.725   9.978  0.9732  0.7959 -0.6881
  372MOL0     O49007   2.591   8.784   9.920 -0.1353  1.3694  0.7780
  372MOL0     C49008   2.463   8.725   9.936  0.2834 -0.0570  0.0931
  372MOL0     C49009   2.362   8.816   9.884 -0.2195  0.1303 -0.5081
  372MOL0     C49010   2.343   8.815   9.731  0.4767  0.4342  0.1051
  372MOL0     C49011   2.204   8.876   9.698 -0.7285  0.2811 -0.4902
  372MOL0     C49012   2.176   8.867   9.546 -0.8502 -0.5961  0.0970
  372MOL0     C49013   2.064   8.960   9.487 -0.7095 -0.2846  0.5602
  372MOL0     C49014   2.091   9.111   9.501  0.2518  0.2739 -0.7115
  372MOL0     C49015   1.963   9.187   9.542  0.7792 -0.2904 -0.5969
  372MOL0    Cl49016   1.814   9.147   9.440 -0.3175  0.3745 -0.4780
  372MOL0     C49017   2.810   8.799   9.993 -0.0078 -0.4299  0.4727
  372MOL0     C49018   2.924   8.734  10.051  0.4157 -0.3695  0.1473
  372MOL0     O49019   2.992   8.308  10.133 -0.5972 -0.7933  0.0152
  372MOL0     C49020   3.259   8.281  10.207 -0.3420  0.0600  0.2875
  372MOL0     C49021   3.397   8.265  10.236  0.8185 -0.1241  0.4775
  372MOL0     N49022   4.077   8.334   9.999  0.0702 -0.1348  0.2604
  372MOL0     N49023   4.158   8.374   9.910 -0.0045  0.0976  0.8186
  372MOL0     C49024   5.494   8.516   9.975 -0.6038  0.1245  0.4184
  372MOL0     C49025   5.630   8.505  10.010 -0.0662  0.9680 -0.1025
  372MOL0     C49026   6.074   8.492  10.068  0.0124 -0.1973 -0.3061
  372MOL0     C49027   6.153   8.486   9.950 -0.0098  0.1783  0.4632
  372MOL0     C49028   6.291   8.448   9.957 -0.0952  0.3115 -0.3316
  372MOL0     C49029   6.354   8.424  10.084  1.1166  0.7623  0.5651
  372MOL0     O49030   6.477   8.389  10.111 -0.7487 -0.2568  0.5977
  372MOL0     C49031   6.585   8.448  10.024  0.8534  0.3213  0.9537
  372MOL0     C49032   6.600   8.601  10.050  0.9836  0.4302  0.9049
  372MOL0     C49033   6.707   8.638  10.159  0.1654  0.0957  0.6857
  372MOL0     C49034   6.847   8.609  10.118  0.1059 -0.5570  0.0854
  372MOL0     C49035   6.891   8.691  10.004 -0.7173 -0.2919  0.6958
  372MOL0     C49036   6.936   8.763   9.913  0.1860 -0.2045  1.1968
  372MOL0     C49037   6.282   8.431  10.201  0.0624  0.3024 -0.5959
  372MOL0     C49038   6.144   8.470  10.190  0.1885  0.5977 -0.2688
  372MOL0     H49039   5.767   8.674   9.747 -3.2082 -1.7362 -4.0666
  372MOL0     H49040   5.514   8.701   9.704 -0.0079  0.0915  0.0552
  372MOL0     H49041   5.232   8.477   9.945 -0.1102  2.5963 -0.2029
  372MOL0     H49042   5.248   8.386   9.787 -0.2435 -1.7443  2.3981
  372MOL0     H49043   5.109   8.540   9.676  2.3891 -1.9239  0.3251
  372MOL0     H49044   5.095   8.648   9.819 -2.2481  0.8025  0.2009
  372MOL0     H49045   5.026   8.450   9.943  0.3820  0.2161  0.7638
  372MOL0     H49046   5.008   8.353   9.800  1.6794  0.0473  2.2042
  372MOL0     H49047   4.885   8.621   9.864  0.3456  1.1911 -2.1991
  372MOL0     H49048   4.853   8.538   9.702 -1.4864  1.2243  0.1666
  372MOL0     H49049   4.787   8.476   9.992  0.2893  3.7911  0.5272
  372MOL0     H49050   4.739   8.364   9.858 -0.1911  0.1241  0.4949
  372MOL0     H49051   4.597   8.553   9.755 -1.5986  0.4485  0.4609
  372MOL0     H49052   4.621   8.639   9.909  0.4795  0.6330 -1.3752
  372MOL0     H49053   4.512   8.354   9.846 -0.1759  1.4491 -1.7060
  372MOL0     H49054   4.521   8.426  10.008 -2.8116  1.0302  0.7185
  372MOL0     H49055   4.348   8.506   9.774 -0.8662 -0.3486  0.0368
  372MOL0     H49056   4.378   8.618   9.912 -0.5255 -0.0914 -1.0729
  372MOL0     H49057   4.279   8.526  10.170  1.7501  2.3425 -2.8381
  372MOL0     H49058   4.006   8.492  10.282 -2.1488 -1.0900  0.1375
  372MOL0     H49059   4.093   8.335  10.312  0.7403 -0.4711 -1.4213
  372MOL0     H49060   3.926   8.212  10.166  2.1464  1.5849 -3.0177
  372MOL0     H49061   3.836   8.361  10.146  0.6573 -1.8806 -2.0037
  372MOL0     H49062   3.872   8.176  10.382 -1.9056 -1.9234 -0.9160
  372MOL0     H49063   3.835   8.354  10.416  0.5973  0.9739 -1.1075
  372MOL0     H49064   3.611   8.245  10.411  0.3556  0.7630  0.7051
  372MOL0     H49065   3.670   8.166  10.256  0.6690  0.3853 -0.6850
  372MOL0     H49066   3.513   8.581  10.175  1.6545 -1.7990  0.7096
  372MOL0     H49067   3.265   8.600  10.114 -1.8318  0.2781  2.9541
  372MOL0     H49068   2.785   8.419  10.088 -1.6225  1.2264  0.8318
  372MOL0     H49069   2.609   8.523  10.010 -0.5310  0.1288  0.8331
  372MOL0     H49070   2.436   8.697  10.039 -1.4080  1.7440  0.1771
  372MOL0     H49071   2.464   8.629   9.884  1.4651 -0.7356  1.3028
  372MOL0     H49072   2.383   8.918   9.917  2.1894 -0.5597  0.2860
  372MOL0     H49073   2.271   8.777   9.931 -0.3773  1.7005  0.5731
  372MOL0     H49074   2.353   8.713   9.693 -2.1935 -0.2246  0.9333
  372MOL0     H49075   2.416   8.873   9.674 -1.7346  0.5373 -2.8894
  372MOL0     H49076   2.117   8.826   9.742 -0.1530  1.6378  2.4015
  372MOL0     H49077   2.199   8.980   9.730 -0.6692  0.4496 -1.0270
  372MOL0     H49078   2.156   8.761   9.529  1.2407 -1.4585  2.4431
  372MOL0     H49079   2.269   8.899   9.498 -1.2411  0.2667 -0.1046
  372MOL0     H49080   1.972   8.936   9.542 -1.7800 -2.1054 -1.8354
  372MOL0     H49081   2.055   8.940   9.380 -2.0478  3.4410 -0.1741
  372MOL0     H49082   2.172   9.121   9.573 -0.4617 -0.5585  0.2350
  372MOL0     H49083   2.125   9.144   9.402  2.7898 -1.1707 -0.4145
  372MOL0     H49084   1.972   9.296   9.541 -3.1982  0.1986 -2.5158
  372MOL0     H49085   1.936   9.154   9.643 -2.4938 -0.4567 -1.4351
  372MOL0     H49086   2.812   8.906   9.973  2.3378 -0.8672 -2.4175
  372MOL0     H49087   3.017   8.787  10.070 -1.7293  2.8489  2.7336
  372MOL0     H49088   3.181   8.206  10.212 -1.3983  1.0124 -1.1008
  372MOL0     H49089   3.430   8.163  10.253 -0.5854 -0.7987 -0.5891
  372MOL0     H49090   5.429   8.461  10.042  0.4283  0.4155  1.6799
  372MOL0     H49091   5.661   8.446  10.096  1.9982  1.5018 -0.4128
  372MOL0     H49092   6.107   8.517   9.857 -1.2339 -0.4676  0.8283
  372MOL0     H49093   6.354   8.439   9.870 -0.4907  2.0887 -0.8558
  372MOL0     H49094   6.578   8.431   9.916  0.8500  1.5169  0.7524
  372MOL0     H49095   6.674   8.391  10.053  3.0585  0.8554 -3.7892
  372MOL0     H49096   6.631   8.639   9.953 -0.9426 -0.6473 -0.1829
  372MOL0     H49097   6.501   8.642  10.072  0.0804 -0.1570 -1.7281
  372MOL0     H49098   6.684   8.585  10.252  0.2423 -1.3256 -0.0725
  372MOL0     H49099   6.694   8.744  10.182 -2.9743 -0.2138  0.7556
  372MOL0     H49100   6.914   8.639  10.199  1.4962  1.8600 -1.8031
  372MOL0     H49101   6.862   8.501  10.108  0.8979 -0.5857  1.3582
  372MOL0     H49102   6.979   8.831   9.843 -2.0166 -2.4417 -2.6697
  372MOL0     H49103   6.319   8.404  10.300 -0.0371  3.1132  0.2962
  372MOL0     H49104   6.083   8.463  10.280 -0.1027  1.3530 -0.4050
  373MOL0     O49105   5.266   8.142   9.831 -0.7389  0.4048 -0.0196
  373MOL0     C49106   5.320   8.106   9.725 -0.4996  0.0174  0.5266
  373MOL0     O49107   5.254   8.061   9.610 -0.3369 -0.0587 -0.0652
  373MOL0     C49108   5.124   8.057   9.607  0.6239  0.0126 -0.2804
  373MOL0     C49109   5.040   8.013   9.710 -0.0159 -0.3300 -1.1800
  373MOL0     C49110   4.903   8.001   9.694 -0.9769  0.5482  1.1682
  373MOL0     C49111   4.844   8.053   9.578  0.2661 -0.4393  0.0952
  373MOL0     O49112   4.709   8.057   9.564 -0.2875  0.2106 -0.6437
  373MOL0     C49113   4.652   8.170   9.502 -0.3844 -0.3790  0.0969
  373MOL0     C49114   4.501   8.179   9.510 -0.1143  0.6927 -0.3845
  373MOL0     C49115   4.445   8.298   9.428  0.3355  0.6820  0.0716
  373MOL0     C49116   4.291   8.303   9.447 -0.3463  0.7548 -0.6424
  373MOL0     C49117   4.232   8.422   9.378 -0.8107  0.3368 -0.1442
  373MOL0     C49118   4.078   8.424   9.389  0.0885  0.5686  0.5927
  373MOL0     C49119   4.020   8.559   9.330  0.4620 -0.1596 -0.4747
  373MOL0     C49120   3.871   8.556   9.348  1.3765  0.1219  0.4802
  373MOL0     N49121   3.806   8.665   9.271 -0.7261  0.5528 -0.1441
  373MOL0     C49122   3.751   8.773   9.331  0.0059  0.2483  0.4332
  373MOL0     C49123   3.710   8.853   9.230  0.1188  0.3432 -0.5549
  373MOL0     C49124   3.621   8.982   9.230  0.2745  0.1171  0.1906
  373MOL0     C49125   3.545   8.996   9.094 -0.7029 -0.3469 -0.6870
  373MOL0     C49126   3.445   9.115   9.117 -0.7695  0.3234  0.0765
  373MOL0     C49127   3.325   9.079   9.206  0.3308 -0.0686 -0.8190
  373MOL0     O49128   3.259   8.954   9.172  1.0131 -1.1419 -0.0138
  373MOL0     C49129   3.119   8.938   9.189 -0.1821 -0.2113  0.9287
  373MOL0     C49130   3.044   8.893   9.088  1.1115  1.1239  0.2987
  373MOL0     C49131   2.901   8.897   9.084  0.1990  0.3424  0.8345
  373MOL0     C49132   2.839   8.936   9.200  0.4874  0.1011 -0.0702
  373MOL0     C49133   2.691   8.926   9.206  0.7517 -0.4726  0.5187
  373MOL0     O49134   2.629   8.869   9.095  0.3577 -0.3425 -0.1030
  373MOL0     C49135   2.494   8.890   9.086 -0.2074 -0.4378  0.4543
  373MOL0     C49136   2.411   8.820   9.182 -0.0795  0.4203  0.6291
  373MOL0     C49137   2.270   8.832   9.180 -0.8535 -0.2398  0.8637
  373MOL0     C49138   2.213   8.923   9.088  0.3748 -0.3581  0.0539
  373MOL0     O49139   2.079   8.938   9.097  0.1878 -0.5043 -0.1465
  373MOL0     C49140   2.028   9.071   9.115  0.4520  0.6971 -0.2109
  373MOL0     C49141   1.869   9.047   9.117  0.1377  0.3713 -0.9460
  373MOL0     C49142   1.798   9.179   9.075  0.8890  0.9457 -0.5263
  373MOL0     C49143   1.656   9.158   9.107 -0.2957  0.0118 -0.2154
  373MOL0     C49144   1.556   9.266   9.066  0.4074  0.5060  0.7036
  373MOL0     C49145   1.418   9.203   9.061 -0.9275 -0.3302 -0.4484
  373MOL0     C49146   1.309   9.286   8.993  0.2044  0.3627  0.1111
  373MOL0     C49147   1.180   9.214   8.967 -0.6655  0.2722  0.1768
  373MOL0    Cl49148   1.218   9.069   8.872  0.0008 -0.0113  0.4193
  373MOL0     C49149   2.299   8.980   8.996 -0.0706  0.7190  0.0640
  373MOL0     C49150   2.436   8.969   8.987  0.1444  0.0302  1.0610
  373MOL0     O49151   2.631   8.983   9.300 -0.0124 -0.8114  0.1441
  373MOL0     C49152   2.919   8.988   9.305 -0.1241 -0.0737 -0.0533
  373MOL0     C49153   3.059   8.998   9.295 -0.4766  0.1789  0.3177
  373MOL0     N49154   3.750   8.787   9.111  0.2139 -0.0346 -0.3278
  373MOL0     N49155   3.796   8.674   9.138  1.0555  0.5665  0.1484
  373MOL0     C49156   4.924   8.099   9.477  0.0058 -0.0520  0.7187
  373MOL0     C49157   5.065   8.095   9.484  0.2803 -0.0334  0.9272
  373MOL0     C49158   5.463   8.128   9.715 -0.0160 -0.9871  0.2348
  373MOL0     C49159   5.534   8.192   9.820  0.6874 -0.7408  0.6364
  373MOL0     C49160   5.670   8.205   9.800  0.2952 -0.9237 -0.2011
  373MOL0     C49161   5.738   8.157   9.687 -0.6080 -0.3100  0.1818
  373MOL0     O49162   5.875   8.140   9.668 -0.5143 -0.3609  0.1625
  373MOL0     C49163   5.963   8.199   9.762 -1.2551 -0.0766 -0.2323
  373MOL0     C49164   6.099   8.209   9.700 -0.1423 -0.2042 -0.5888
  373MOL0     C49165   6.107   8.328   9.604 -0.0778 -0.0420 -0.7866
  373MOL0     C49166   6.252   8.369   9.568  0.8084  0.6719 -1.1548
  373MOL0     C49167   6.265   8.491   9.493  0.3202 -0.0479  0.4402
  373MOL0     C49168   6.280   8.586   9.419  0.6830 -0.3177  0.1904
  373MOL0     C49169   5.663   8.102   9.588  1.1244  0.9271  1.5172
  373MOL0     C49170   5.524   8.077   9.597  0.1039 -0.1865  0.5871
  373MOL0     H49171   5.085   7.978   9.803 -0.4588 -0.2537 -0.9347
  373MOL0     H49172   4.855   7.950   9.777 -2.0657  0.5145  0.5352
  373MOL0     H49173   4.677   8.177   9.395  0.2332  4.1268  0.3528
  373MOL0     H49174   4.691   8.261   9.549 -0.0858  1.5487 -3.4724
  373MOL0     H49175   4.472   8.197   9.614 -1.4914 -0.9093 -0.4461
  373MOL0     H49176   4.460   8.080   9.490  1.0990  0.0958  0.0472
  373MOL0     H49177   4.465   8.266   9.325  0.4112  0.5746  0.1191
  373MOL0     H49178   4.490   8.396   9.447 -2.4920  1.9564  0.6448
  373MOL0     H49179   4.242   8.210   9.418 -1.9381  1.5670 -0.7057
  373MOL0     H49180   4.262   8.307   9.553  2.4550 -1.9740  0.3613
  373MOL0     H49181   4.268   8.426   9.274 -0.0423  1.8082  0.1582
  373MOL0     H49182   4.286   8.511   9.412  1.8561 -0.1447 -2.6530
  373MOL0     H49183   4.040   8.411   9.491  0.6853 -1.1315  0.6321
  373MOL0     H49184   4.039   8.346   9.323 -0.1112  1.3103 -0.1772
  373MOL0     H49185   4.056   8.651   9.378 -1.5774  0.5519 -0.1952
  373MOL0     H49186   4.039   8.558   9.222 -1.1543 -1.8846 -0.7949
  373MOL0     H49187   3.848   8.555   9.455  2.9579 -0.6598  0.8360
  373MOL0     H49188   3.833   8.462   9.307  0.3161  0.6728  0.1610
  373MOL0     H49189   3.740   8.785   9.438  3.8955 -0.5292  1.0889
  373MOL0     H49190   3.678   9.075   9.236 -0.5477  0.9088 -2.7968
  373MOL0     H49191   3.542   8.966   9.304 -1.1962  1.5170 -1.0314
  373MOL0     H49192   3.496   8.901   9.070 -1.8112 -0.8399  2.9646
  373MOL0     H49193   3.613   9.019   9.012 -0.7935 -1.8635 -1.2088
  373MOL0     H49194   3.494   9.200   9.166  0.6155  0.7446 -1.9212
  373MOL0     H49195   3.424   9.150   9.015  1.6714 -1.1076 -0.9990
  373MOL0     H49196   3.246   9.155   9.208 -0.8477 -1.2095  2.4794
  373MOL0     H49197   3.352   9.081   9.312 -2.4473 -2.3399  0.0475
  373MOL0     H49198   3.098   8.851   9.003  3.0730  0.8342  1.6336
  373MOL0     H49199   2.850   8.853   8.999 -0.5229 -1.1377  2.0050
  373MOL0     H49200   2.462   8.752   9.251 -0.8645  0.1717  0.9798
  373MOL0     H49201   2.214   8.768   9.248 -0.3198 -0.0054  1.5344
  373MOL0     H49202   2.059   9.129   9.028 -0.4962 -0.2927 -1.2335
  373MOL0     H49203   2.053   9.113   9.213 -1.5157  2.1219 -0.2697
  373MOL0     H49204   1.848   9.004   9.214 -0.4148  0.8152 -0.8629
  373MOL0     H49205   1.844   8.977   9.037 -2.4915 -0.6171  0.6245
  373MOL0     H49206   1.812   9.178   8.967  3.2709 -3.2456 -0.3599
  373MOL0     H49207   1.844   9.263   9.128  0.5064 -1.0267  3.2920
  373MOL0     H49208   1.637   9.062   9.057  1.8472 -1.1673  1.1056
  373MOL0     H49209   1.648   9.132   9.213  1.3740 -2.6069 -0.6500
  373MOL0     H49210   1.579   9.307   8.967  2.8131 -3.6799 -0.6989
  373MOL0     H49211   1.565   9.348   9.139  1.2780  1.4194 -0.3922
  373MOL0     H49212   1.389   9.181   9.164  0.0496 -1.6943 -0.4384
  373MOL0     H49213   1.416   9.106   9.011 -1.9864 -0.0093 -1.0728
  373MOL0     H49214   1.302   9.376   9.055 -0.8838  0.3248  0.0568
  373MOL0     H49215   1.342   9.317   8.894 -3.1439  0.4506 -1.0750
  373MOL0     H49216   1.113   9.270   8.900 -0.4999  0.4211  0.1356
  373MOL0     H49217   1.126   9.197   9.061  0.4303  0.7636  0.9098
  373MOL0     H49218   2.251   9.038   8.917  0.3732 -0.1957 -0.9065
  373MOL0     H49219   2.488   9.014   8.903 -2.6125  0.3658 -0.5939
  373MOL0     H49220   2.870   9.023   9.396  0.8639  2.8535 -0.5237
  373MOL0     H49221   3.121   9.038   9.374  3.7832 -0.3478 -2.4795
  373MOL0     H49222   4.877   8.142   9.389 -0.1046  3.5933  2.3460
  373MOL0     H49223   5.122   8.146   9.407  1.2778 -1.4340  0.7121
  373MOL0     H49224   5.491   8.223   9.915  2.8847 -1.0101  1.7753
  373MOL0     H49225   5.726   8.253   9.880  3.5065 -0.5584 -2.4481
  373MOL0     H49226   5.957   8.145   9.857 -1.9307  1.4451  0.6240
  373MOL0     H49227   5.928   8.300   9.785  0.3836 -0.1092  2.9949
  373MOL0     H49228   6.171   8.215   9.783  0.8979 -3.2541 -1.1445
  373MOL0     H49229   6.131   8.111   9.662  1.6692 -0.2556  0.8833
  373MOL0     H49230   6.054   8.416   9.641  1.2077  0.7192 -0.6815
  373MOL0     H49231   6.059   8.286   9.515  0.3183  0.3387 -1.1868
  373MOL0     H49232   6.315   8.373   9.657 -0.6826 -2.1541  0.1652
  373MOL0     H49233   6.291   8.283   9.513  1.4537  1.6260 -2.2455
  373MOL0     H49234   6.271   8.670   9.354  0.7027  1.1636  2.0068
  373MOL0     H49235   5.713   8.064   9.499 -0.3758 -1.3878  1.5597
  373MOL0     H49236   5.480   8.019   9.516  0.8066  2.0827 -1.5765
  374MOL0     O49237   3.778   4.418   2.124 -0.3042 -0.6684 -0.3678
  374MOL0     C49238   3.764   4.296   2.126 -0.1816  0.5839  0.7013
  374MOL0     O49239   3.698   4.224   2.218  0.0022  0.3935 -0.6841
  374MOL0     C49240   3.653   4.284   2.340  0.3127  0.6091  0.7756
  374MOL0     C49241   3.691   4.225   2.460  0.5244 -0.5097 -1.0759
  374MOL0     C49242   3.667   4.283   2.587  0.2749 -0.3461  0.4618
  374MOL0     C49243   3.605   4.408   2.590 -0.4991  0.1554  0.9236
  374MOL0     O49244   3.568   4.480   2.697  0.3298  0.3025 -0.1921
  374MOL0     C49245   3.647   4.482   2.811 -0.1593 -0.0756 -0.2679
  374MOL0     C49246   3.562   4.526   2.923 -0.1465 -0.1215  0.2793
  374MOL0     C49247   3.521   4.669   2.904  0.5276  0.3013  0.2232
  374MOL0     C49248   3.367   4.679   2.868  0.1329 -0.0660  0.0143
  374MOL0     C49249   3.307   4.826   2.877 -0.7214 -0.3233  0.3542
  374MOL0     C49250   3.289   4.870   3.020  0.1553  0.5873 -0.4588
  374MOL0     C49251   3.207   4.999   3.020 -0.5575  0.2679  0.0947
  374MOL0     C49252   3.057   4.981   2.991  0.3437 -0.2770  0.4169
  374MOL0     N49253   2.996   5.113   3.022 -0.2687  0.5138 -0.1146
  374MOL0     C49254   2.994   5.211   2.924 -0.4359  0.2347  1.4003
  374MOL0     C49255   2.953   5.320   2.985 -0.5614 -0.2595  0.3825
  374MOL0     C49256   2.957   5.445   2.931  0.5815  0.2520 -0.3796
  374MOL0     C49257   3.095   5.503   2.926 -0.4903  0.1674 -0.5540
  374MOL0     C49258   3.187   5.468   3.046  0.3253 -0.1570 -0.2587
  374MOL0     C49259   3.327   5.531   3.031  0.9472 -0.2173  0.5230
  374MOL0     O49260   3.397   5.508   2.912  0.5869  0.7480 -0.0473
  374MOL0     C49261   3.472   5.391   2.893  0.0390  0.4514  0.0558
  374MOL0     C49262   3.511   5.306   2.998  1.1076  0.3776 -0.0845
  374MOL0     C49263   3.583   5.190   2.965  0.2475 -0.6995 -0.0907
  374MOL0     C49264   3.617   5.163   2.830 -0.1623 -0.6323  0.0438
  374MOL0     C49265   3.677   5.028   2.803 -0.2263 -0.4201  0.7286
  374MOL0     O49266   3.704   4.997   2.670  0.4749  0.0272 -0.6743
  374MOL0     C49267   3.781   4.885   2.638 -0.2740 -0.2527  0.5426
  374MOL0     C49268   3.736   4.782   2.558 -0.8036  0.1965 -0.4645
  374MOL0     C49269   3.822   4.681   2.514  0.0864  0.2394 -0.0743
  374MOL0     C49270   3.956   4.672   2.559  0.4318  0.2255 -0.4455
  374MOL0     O49271   4.043   4.581   2.515 -0.5257  0.4965 -0.2148
  374MOL0     C49272   4.012   4.444   2.480 -0.1741  0.3851 -0.8419
  374MOL0     C49273   4.138   4.396   2.405 -0.8331  0.8913  0.0626
  374MOL0     C49274   4.128   4.249   2.354  0.5478  0.0863  0.0024
  374MOL0     C49275   4.256   4.214   2.281  0.5481  0.0618  0.0239
  374MOL0     C49276   4.232   4.097   2.193 -0.1252  0.7648 -0.1440
  374MOL0     C49277   4.360   4.068   2.109  0.2364 -0.1996 -0.3791
  374MOL0     C49278   4.398   4.189   2.025  0.1473  0.5271  0.4210
  374MOL0     C49279   4.518   4.172   1.928  0.0955  0.0279 -0.2489
  374MOL0    Cl49280   4.648   4.065   1.989  0.0052  0.1964  0.0279
  374MOL0     C49281   3.997   4.771   2.651 -0.3120  0.5417  0.0622
  374MOL0     C49282   3.913   4.874   2.688  1.4252  0.2784  0.6675
  374MOL0     O49283   3.694   4.951   2.902 -0.0970 -0.1015  1.1523
  374MOL0     C49284   3.590   5.260   2.732 -0.4018 -0.2393  0.3725
  374MOL0     C49285   3.508   5.371   2.760  0.1109  0.6347  0.1902
  374MOL0     N49286   2.941   5.292   3.119  0.1100  0.1885  0.3706
  374MOL0     N49287   2.967   5.161   3.141 -0.4079  0.4617  0.3948
  374MOL0     C49288   3.575   4.476   2.465  0.4905  0.1697 -0.2678
  374MOL0     C49289   3.592   4.415   2.338 -0.0388 -0.0823  0.3649
  374MOL0     C49290   3.799   4.218   1.997 -0.7857 -0.1018 -0.3983
  374MOL0     C49291   3.748   4.097   1.954  0.1945 -0.0214  0.5059
  374MOL0     C49292   3.808   4.031   1.838  0.1984  0.1898  0.4780
  374MOL0     C49293   3.921   4.073   1.774 -1.0522 -0.3905  0.5661
  374MOL0     O49294   3.978   3.991   1.681 -0.1822  0.1919  0.7110
  374MOL0     C49295   4.108   4.018   1.637 -0.7900  0.0542  0.5482
  374MOL0     C49296   4.132   3.938   1.498 -0.1680  0.9290 -0.1810
  374MOL0     C49297   4.250   3.983   1.420 -0.3070  0.5190 -0.4360
  374MOL0     C49298   4.382   3.918   1.476 -0.2923  0.1563 -0.2736
  374MOL0     C49299   4.386   3.769   1.440  0.0917 -0.0799 -0.7674
  374MOL0     C49300   4.380   3.650   1.418 -0.9618  0.2286  0.1006
  374MOL0     C49301   3.966   4.201   1.820 -0.3442  0.2720 -0.7679
  374MOL0     C49302   3.895   4.279   1.918 -0.2432  0.0452 -0.5308
  374MOL0     H49303   3.725   4.122   2.461  0.7007 -0.4758  0.8199
  374MOL0     H49304   3.703   4.244   2.682 -0.5214 -0.2078  0.8252
  374MOL0     H49305   3.736   4.544   2.803 -1.2916  1.6302 -0.1753
  374MOL0     H49306   3.703   4.391   2.835  3.2303  1.8934 -0.1167
  374MOL0     H49307   3.620   4.519   3.016  1.1240 -4.1010 -0.6174
  374MOL0     H49308   3.477   4.457   2.923  1.4945 -2.2392  0.4490
  374MOL0     H49309   3.587   4.724   2.836 -0.3291  2.7004  1.2052
  374MOL0     H49310   3.545   4.721   2.997  1.2351 -1.3507  1.0037
  374MOL0     H49311   3.356   4.641   2.766  2.6464  0.7489 -0.6464
  374MOL0     H49312   3.312   4.611   2.933 -2.1253  0.2834 -1.4434
  374MOL0     H49313   3.213   4.824   2.823 -1.2175 -2.5722  1.2250
  374MOL0     H49314   3.377   4.896   2.830  1.4495  0.8589  4.7453
  374MOL0     H49315   3.387   4.886   3.067 -1.3501  1.6211  2.6138
  374MOL0     H49316   3.244   4.792   3.083  1.5343  0.4476  0.3891
  374MOL0     H49317   3.228   5.030   3.123  0.6963 -0.9300  0.2317
  374MOL0     H49318   3.246   5.077   2.954  0.5395  1.5031  2.1075
  374MOL0     H49319   3.014   4.899   3.049  0.6414 -0.5039  0.3176
  374MOL0     H49320   3.043   4.957   2.886 -1.0360  2.3989 -0.0951
  374MOL0     H49321   3.002   5.202   2.816 -0.5242 -0.7165  1.4638
  374MOL0     H49322   2.894   5.509   2.993 -1.1375  2.2274 -3.8301
  374MOL0     H49323   2.909   5.454   2.833  0.2589  4.2981  0.0216
  374MOL0     H49324   3.072   5.609   2.924  1.7304  0.6893 -1.2295
  374MOL0     H49325   3.147   5.461   2.840  2.2235  4.5745 -1.3534
  374MOL0     H49326   3.146   5.501   3.142  3.8545  0.2930  1.2427
  374MOL0     H49327   3.199   5.360   3.058  0.3272  0.0193  1.6683
  374MOL0     H49328   3.399   5.509   3.110  1.4862  1.6799  0.6163
  374MOL0     H49329   3.318   5.640   3.040  1.6335 -0.2903  2.6291
  374MOL0     H49330   3.493   5.327   3.103  1.3935  0.3730 -0.0342
  374MOL0     H49331   3.608   5.118   3.042 -0.8727 -0.7976  0.1967
  374MOL0     H49332   3.633   4.779   2.524 -1.1555 -0.4490  0.6233
  374MOL0     H49333   3.778   4.606   2.449  0.6008 -1.8937  1.9062
  374MOL0     H49334   3.930   4.427   2.410  0.3742  0.8955 -1.6303
  374MOL0     H49335   3.994   4.399   2.579  2.9634  0.7081 -0.0280
  374MOL0     H49336   4.223   4.408   2.474 -2.1077 -1.9142  2.3296
  374MOL0     H49337   4.152   4.456   2.315  0.4564  2.2106  1.0798
  374MOL0     H49338   4.045   4.234   2.284 -1.0443 -2.8185  2.3341
  374MOL0     H49339   4.118   4.183   2.440  3.3092 -0.5031 -0.0317
  374MOL0     H49340   4.286   4.302   2.224  1.1686 -0.4644 -0.4711
  374MOL0     H49341   4.338   4.193   2.350  0.0764  1.4753  1.0726
  374MOL0     H49342   4.146   4.120   2.128 -1.4955  1.0239  1.6743
  374MOL0     H49343   4.223   4.000   2.242  1.3301  0.9173  0.4617
  374MOL0     H49344   4.335   3.994   2.032 -0.1287 -0.5559  0.0816
  374MOL0     H49345   4.446   4.050   2.175 -2.3953  3.8117  4.9121
  374MOL0     H49346   4.320   4.242   1.971  1.7532 -0.9076 -3.7701
  374MOL0     H49347   4.448   4.259   2.093  1.7043 -0.4016  0.2799
  374MOL0     H49348   4.555   4.275   1.924  1.2072 -0.0975  3.2893
  374MOL0     H49349   4.483   4.139   1.830  0.1529 -0.4130 -0.1214
  374MOL0     H49350   4.094   4.751   2.695  0.6928 -0.7815 -2.5149
  374MOL0     H49351   3.944   4.955   2.753  3.9569  0.1098 -0.1941
  374MOL0     H49352   3.626   5.239   2.632 -0.9340 -2.7877  0.6316
  374MOL0     H49353   3.486   5.434   2.675  0.3933 -3.2507 -3.0412
  374MOL0     H49354   3.524   4.571   2.479  2.8222  1.2558  1.7168
  374MOL0     H49355   3.566   4.456   2.241  0.7504 -2.1659 -0.7868
  374MOL0     H49356   3.659   4.061   2.006  0.6346 -0.4726  0.9573
  374MOL0     H49357   3.764   3.942   1.794 -0.7681  0.7790  0.2223
  374MOL0     H49358   4.189   3.993   1.706 -2.3229 -1.1365  2.0001
  374MOL0     H49359   4.119   4.125   1.617  2.4282 -0.1508  0.7039
  374MOL0     H49360   4.138   3.832   1.523 -0.2939  1.5235  2.7417
  374MOL0     H49361   4.044   3.945   1.432  0.5209  1.9609 -1.0202
  374MOL0     H49362   4.263   4.089   1.447  1.0501  0.1554  0.4492
  374MOL0     H49363   4.251   3.968   1.312 -0.7924  0.0034 -0.3701
  374MOL0     H49364   4.468   3.971   1.433  0.5798 -3.7048 -3.9932
  374MOL0     H49365   4.385   3.930   1.584 -0.2044  0.8956 -0.3555
  374MOL0     H49366   4.363   3.545   1.406 -3.1179  0.5014  0.4102
  374MOL0     H49367   4.045   4.262   1.777 -1.9693  2.0239 -1.4383
  374MOL0     H49368   3.935   4.378   1.939  1.2822 -0.5859 -0.3266
  375MOL0     O49369   7.661   7.298   0.744  0.2014  0.1866 -0.1783
  375MOL0     C49370   7.575   7.290   0.836  0.2803 -0.2035  0.6393
  375MOL0     O49371   7.600   7.315   0.971  0.3127  0.1007 -0.1169
  375MOL0     C49372   7.726   7.351   1.021  0.1256  0.1220  0.9321
  375MOL0     C49373   7.818   7.420   0.937 -0.8192 -0.0494 -0.7796
  375MOL0     C49374   7.950   7.432   0.979 -0.3791  0.5553  0.3243
  375MOL0     C49375   7.990   7.371   1.101 -0.0892 -1.3765 -0.6456
  375MOL0     O49376   8.116   7.387   1.164 -0.0797 -0.0801  0.4370
  375MOL0     C49377   8.233   7.437   1.100 -0.5025  0.0194 -1.1511
  375MOL0     C49378   8.309   7.528   1.196 -0.3544  0.3144  0.1741
  375MOL0     C49379   8.450   7.564   1.136 -0.0825 -0.5185 -0.5510
  375MOL0     C49380   8.529   7.630   1.253 -0.1459 -0.0592  1.1089
  375MOL0     C49381   8.672   7.679   1.210  0.8357 -0.5079 -0.4074
  375MOL0     C49382   8.671   7.793   1.107 -0.4102  0.1329  0.1143
  375MOL0     C49383   8.805   7.853   1.081 -0.2633 -0.3943 -0.4419
  375MOL0     C49384   8.862   7.939   1.191  0.6326 -0.2273 -0.5984
  375MOL0     N49385   8.983   7.998   1.130 -0.3098  0.0915 -0.5250
  375MOL0     C49386   8.969   8.101   1.033  0.0830 -0.3501 -0.5891
  375MOL0     C49387   9.099   8.112   0.983 -0.5748 -0.4244 -0.1928
  375MOL0     C49388   9.136   8.216   0.884 -0.0666  0.0873  0.3407
  375MOL0     C49389   9.260   8.301   0.921  0.0418 -0.0329 -0.1601
  375MOL0     C49390   9.226   8.420   1.013 -0.4985 -1.1732  0.9176
  375MOL0     C49391   9.335   8.516   1.037 -0.2386 -0.1319  0.7659
  375MOL0     O49392   9.362   8.606   0.925  0.1782 -0.2619 -0.0136
  375MOL0     C49393   9.479   8.678   0.926 -0.5176  1.2661 -0.3440
  375MOL0     C49394   9.597   8.645   0.991 -1.1096  0.0195  0.1601
  375MOL0     C49395   9.708   8.733   0.996 -0.1536  0.5519 -0.1016
  375MOL0     C49396   9.708   8.851   0.918  0.5433  0.7372 -0.7148
  375MOL0     C49397   9.813   8.954   0.933 -0.0561  0.7889 -0.3243
  375MOL0     O49398   9.800   9.082   0.873 -0.2343  0.2680  0.0804
  375MOL0     C49399   9.907   9.164   0.892  0.2738  0.5877 -0.3594
  375MOL0     C49400   9.983   9.206   0.790  0.1446  0.1746  0.1831
  375MOL0     C49401  10.101   9.269   0.810 -0.0541  0.2091 -0.8036
  375MOL0     C49402  10.135   9.323   0.936 -0.1598 -0.9581  0.7776
  375MOL0     O49403  10.256   9.394   0.957  0.7507  0.2778 -0.1968
  375MOL0     C49404  10.264   9.519   0.881 -0.1981  1.3312  0.3190
  375MOL0     C49405  10.391   9.597   0.931 -0.0693  0.6378 -0.5517
  375MOL0     C49406  10.520   9.510   0.883  0.0182 -0.3616  0.0976
  375MOL0     C49407  10.654   9.574   0.925 -0.2612  0.1119  0.4685
  375MOL0     C49408  10.763   9.501   0.837  0.1311  0.2747  0.5269
  375MOL0     C49409  10.908   9.550   0.865 -0.0620 -0.0551 -0.8544
  375MOL0     C49410  11.017   9.469   0.807 -0.2950 -0.1485  0.3465
  375MOL0     C49411  11.036   9.485   0.666  0.3176  0.1400  0.2827
  375MOL0    Cl49412  11.090   9.655   0.620  0.3300 -0.8408 -0.3761
  375MOL0     C49413  10.059   9.298   1.044 -0.0018 -0.2189  0.2812
  375MOL0     C49414   9.940   9.219   1.027 -0.6403 -0.8850 -0.1092
  375MOL0     O49415   9.910   8.914   0.999  0.3992 -0.1723 -0.3507
  375MOL0     C49416   9.597   8.880   0.842  0.8670  0.8647  0.2206
  375MOL0     C49417   9.481   8.803   0.860 -0.0960  0.5012  0.6150
  375MOL0     N49418   9.184   8.021   1.049  0.5870  0.1083 -0.5093
  375MOL0     N49419   9.115   7.943   1.137  0.2819 -0.5209  0.1624
  375MOL0     C49420   7.894   7.311   1.191 -0.0868  0.0806  0.4750
  375MOL0     C49421   7.758   7.309   1.146  0.3426  0.3074 -0.0191
  375MOL0     C49422   7.447   7.223   0.798  0.3639  0.7040  0.0878
  375MOL0     C49423   7.421   7.186   0.658  0.2133  0.8699  0.7178
  375MOL0     C49424   7.296   7.132   0.625 -0.4834  0.9421  0.4087
  375MOL0     C49425   7.198   7.105   0.724  0.5124 -0.5857 -0.6543
  375MOL0     O49426   7.072   7.066   0.707  0.4269  0.1603 -0.0255
  375MOL0     C49427   7.033   7.037   0.582  0.2210 -1.3427  0.3327
  375MOL0     C49428   7.072   6.891   0.541  0.1292  0.0052  0.3240
  375MOL0     C49429   6.980   6.783   0.600  0.9109 -1.0211 -0.0813
  375MOL0     C49430   6.994   6.653   0.529  0.0439 -0.0324  0.1076
  375MOL0     C49431   6.892   6.551   0.540  0.7459 -0.0453 -0.5352
  375MOL0     C49432   6.795   6.480   0.552  0.1054 -0.5790  0.1604
  375MOL0     C49433   7.226   7.148   0.854 -0.6756  0.2347  0.1907
  375MOL0     C49434   7.348   7.204   0.893  0.1220  0.3537 -0.3611
  375MOL0     H49435   7.794   7.466   0.842 -4.2273 -2.4110 -1.2533
  375MOL0     H49436   8.021   7.483   0.915  0.2359 -3.8485 -2.9779
  375MOL0     H49437   8.204   7.487   1.007 -0.8721  0.2909 -0.8914
  375MOL0     H49438   8.305   7.355   1.089  3.1167  3.1437 -2.7408
  375MOL0     H49439   8.332   7.490   1.296  0.5939  0.7640  0.1300
  375MOL0     H49440   8.250   7.620   1.209 -0.9837 -0.2139  1.2676
  375MOL0     H49441   8.435   7.627   1.047  0.7702 -0.7721 -0.8927
  375MOL0     H49442   8.504   7.475   1.102 -0.1870 -0.6129 -0.4679
  375MOL0     H49443   8.467   7.716   1.279 -0.4201 -0.2332  1.0284
  375MOL0     H49444   8.532   7.557   1.334 -3.1543 -0.0614  1.3165
  375MOL0     H49445   8.738   7.599   1.174  2.6761  0.1818  1.2651
  375MOL0     H49446   8.718   7.722   1.299 -1.5588  1.5100 -0.0310
  375MOL0     H49447   8.609   7.872   1.148 -1.6441 -1.5344  1.6247
  375MOL0     H49448   8.639   7.753   1.010 -1.1458 -0.2558  0.5048
  375MOL0     H49449   8.875   7.772   1.058 -0.1783 -0.9497  1.5545
  375MOL0     H49450   8.794   7.916   0.993  0.9474  4.1115  2.2947
  375MOL0     H49451   8.897   7.880   1.276  1.7093 -0.3287 -1.0952
  375MOL0     H49452   8.793   8.017   1.222 -0.2427 -1.4652  0.7252
  375MOL0     H49453   8.884   8.158   0.999  1.4132  1.3759 -1.1655
  375MOL0     H49454   9.065   8.298   0.869  2.6394  2.1917 -2.0341
  375MOL0     H49455   9.152   8.168   0.787  1.1148  2.0274 -0.4826
  375MOL0     H49456   9.303   8.339   0.827 -1.5117  0.8588 -0.5538
  375MOL0     H49457   9.344   8.243   0.961 -0.5653  0.8792  2.6650
  375MOL0     H49458   9.138   8.467   0.966 -0.1075 -0.8750  0.4711
  375MOL0     H49459   9.189   8.383   1.109 -1.0488  0.9584  1.5813
  375MOL0     H49460   9.424   8.457   1.059 -0.9770 -0.9437  1.7353
  375MOL0     H49461   9.309   8.581   1.121 -1.4541 -0.4993  0.7056
  375MOL0     H49462   9.605   8.551   1.044 -3.4062 -1.5892 -2.0853
  375MOL0     H49463   9.788   8.714   1.067 -0.5566  2.9423  1.0914
  375MOL0     H49464   9.952   9.177   0.689 -0.4122 -0.2827  0.4753
  375MOL0     H49465  10.158   9.291   0.721 -0.1506  1.2035 -0.6347
  375MOL0     H49466  10.167   9.568   0.891  0.0000  1.9884 -0.7879
  375MOL0     H49467  10.259   9.486   0.776  0.1002  2.4441 -0.0526
  375MOL0     H49468  10.389   9.599   1.040  2.5182  2.2737 -0.4356
  375MOL0     H49469  10.404   9.695   0.883  0.0522  0.8182 -0.1560
  375MOL0     H49470  10.521   9.501   0.774 -1.2528 -1.5873  0.1484
  375MOL0     H49471  10.514   9.414   0.935  0.2225 -0.1732  0.4756
  375MOL0     H49472  10.659   9.682   0.908  1.8127 -0.0742 -0.2588
  375MOL0     H49473  10.665   9.555   1.032  1.1287 -5.6800 -0.4112
  375MOL0     H49474  10.732   9.526   0.735 -0.7188  2.1594  1.2033
  375MOL0     H49475  10.756   9.393   0.846 -1.4772  0.2050 -0.9915
  375MOL0     H49476  10.918   9.557   0.974 -2.2193  0.9409 -0.6681
  375MOL0     H49477  10.914   9.654   0.831  1.0808  0.0549 -0.3623
  375MOL0     H49478  11.116   9.482   0.853  0.7041 -2.8547 -0.8232
  375MOL0     H49479  10.988   9.365   0.820 -1.7163 -0.1932 -2.4215
  375MOL0     H49480  10.955   9.456   0.598  0.2201  2.3919 -0.6437
  375MOL0     H49481  11.123   9.434   0.623 -0.4285 -0.0474 -1.0577
  375MOL0     H49482  10.083   9.318   1.147  1.3509 -4.0588  0.8613
  375MOL0     H49483   9.883   9.193   1.115  1.2910 -1.2863  1.0916
  375MOL0     H49484   9.590   8.968   0.779 -0.1350  0.5218 -0.1685
  375MOL0     H49485   9.386   8.833   0.819  0.1170  1.3062  0.6878
  375MOL0     H49486   7.923   7.278   1.290  1.1904  0.8071  0.3607
  375MOL0     H49487   7.677   7.272   1.208 -0.5012 -1.8110 -2.2586
  375MOL0     H49488   7.501   7.180   0.585  1.0154  0.7776  1.5851
  375MOL0     H49489   7.286   7.100   0.521  0.9722 -0.8984  0.7955
  375MOL0     H49490   7.068   7.111   0.510 -0.3163 -0.4541  0.9597
  375MOL0     H49491   6.925   7.053   0.581 -0.1869 -3.7923 -0.9204
  375MOL0     H49492   7.064   6.877   0.432 -1.1082  0.2420  0.3718
  375MOL0     H49493   7.174   6.864   0.572 -0.2786 -0.3333  1.3978
  375MOL0     H49494   6.876   6.815   0.582  0.5381 -3.1662 -2.1812
  375MOL0     H49495   6.998   6.771   0.707  2.7558  0.1088 -0.2274
  375MOL0     H49496   7.009   6.686   0.426  1.5349  0.8619  0.5876
  375MOL0     H49497   7.086   6.613   0.572 -0.8376  0.2416  2.3592
  375MOL0     H49498   6.725   6.399   0.550  0.3660 -1.1539 -6.1033
  375MOL0     H49499   7.146   7.160   0.928 -0.0479  0.3276  0.8659
  375MOL0     H49500   7.362   7.246   0.992 -0.0399  2.3110 -1.1286
  376MOL0     O49501   1.934   8.245   9.597  0.2241 -0.0889  0.5043
  376MOL0     C49502   2.047   8.216   9.626  0.1298  0.4312 -0.2613
  376MOL0     O49503   2.090   8.119   9.715  0.3825  0.4503 -0.2185
  376MOL0     C49504   1.997   8.059   9.802  0.3989 -0.1875 -0.0203
  376MOL0     C49505   2.041   7.934   9.846  0.5528 -0.4712 -0.0962
  376MOL0     C49506   1.975   7.863   9.938  0.0039  0.4891 -0.0306
  376MOL0     C49507   1.852   7.910   9.983  0.7219  0.2153  0.0770
  376MOL0     O49508   1.775   7.826  10.050 -0.1968  0.2193 -0.3796
  376MOL0     C49509   1.662   7.795   9.973  0.3148 -0.3420  1.0703
  376MOL0     C49510   1.564   7.702  10.039  0.2352  0.3835  0.2717
  376MOL0     C49511   1.597   7.664  10.185 -0.0625  0.0585 -0.0160
  376MOL0     C49512   1.578   7.778  10.279  0.0371 -0.1640  0.2824
  376MOL0     C49513   1.561   7.726  10.424 -0.3139 -0.0936 -0.4493
  376MOL0     C49514   1.550   7.837  10.522  0.5500 -0.0466 -0.8969
  376MOL0     C49515   1.495   7.803  10.663  0.1779 -1.0133  0.1024
  376MOL0     C49516   1.348   7.765  10.666 -0.2631 -0.7131 -0.6470
  376MOL0     N49517   1.308   7.738  10.801  0.2279  0.5265 -0.6639
  376MOL0     C49518   1.278   7.611  10.857 -0.2139 -0.8253  0.1499
  376MOL0     C49519   1.214   7.633  10.973  1.1960 -0.0849  0.2346
  376MOL0     C49520   1.152   7.538  11.075 -0.3890  0.1313 -0.6839
  376MOL0     C49521   1.015   7.593  11.091  0.2230 -0.0594  0.9923
  376MOL0     C49522   0.944   7.525  11.212  0.4312  0.7360  0.5115
  376MOL0     C49523   0.799   7.557  11.205 -0.2703 -0.2795  0.0328
  376MOL0     O49524   0.740   7.502  11.322  0.1811 -0.5182  0.1682
  376MOL0     C49525   0.614   7.529  11.374  0.4260 -0.0455 -0.8564
  376MOL0     C49526   0.511   7.583  11.300  0.4359  0.0786 -0.3629
  376MOL0     C49527   0.388   7.608  11.363 -1.1929  0.5045  0.6625
  376MOL0     C49528   0.371   7.595  11.499 -0.8649  0.0201 -0.3479
  376MOL0     C49529   0.238   7.628  11.560 -0.0144 -0.6706  0.3847
  376MOL0     O49530   0.230   7.605  11.692 -0.9063 -0.2898  0.4066
  376MOL0     C49531   0.100   7.615  11.748  0.0153 -0.4071  0.3448
  376MOL0     C49532  -0.013   7.543  11.708  0.1920  1.2709  0.3777
  376MOL0     C49533  -0.136   7.556  11.757  0.3648 -0.2916 -0.5866
  376MOL0     C49534  -0.154   7.639  11.867  0.4987 -0.0885 -0.4121
  376MOL0     O49535  -0.283   7.664  11.897 -0.4160 -0.3540 -0.4365
  376MOL0     C49536  -0.301   7.713  12.034 -0.5586  1.0984 -0.3906
  376MOL0     C49537  -0.448   7.696  12.069  0.5031  0.1943 -0.0004
  376MOL0     C49538  -0.540   7.782  11.980 -0.1381  0.8320  0.6844
  376MOL0     C49539  -0.683   7.743  11.988 -0.0950 -0.7410 -0.0348
  376MOL0     C49540  -0.703   7.605  11.934  1.1714  0.1413  0.0683
  376MOL0     C49541  -0.861   7.568  11.906 -1.2606 -0.2982  0.3509
  376MOL0     C49542  -0.897   7.622  11.766  0.0008 -0.2085 -0.7918
  376MOL0     C49543  -1.051   7.652  11.766  0.8584  0.1416 -0.6069
  376MOL0    Cl49544  -1.088   7.752  11.913  0.2159  0.5773  0.6712
  376MOL0     C49545  -0.048   7.713  11.919  0.6011  0.2905  0.2229
  376MOL0     C49546   0.074   7.706  11.853 -0.0509  1.0054 -0.1626
  376MOL0     O49547   0.147   7.648  11.479  0.1253  0.2716 -0.4045
  376MOL0     C49548   0.477   7.554  11.576 -0.9709 -0.9671 -0.6753
  376MOL0     C49549   0.599   7.522  11.516 -0.2278  0.2112 -0.7931
  376MOL0     N49550   1.217   7.776  10.992  0.2164  0.9917  0.9030
  376MOL0     N49551   1.274   7.829  10.894  0.1241 -0.4410  0.7349
  376MOL0     C49552   1.807   8.036   9.946 -0.7954 -0.0290 -0.0142
  376MOL0     C49553   1.877   8.115   9.856 -0.1098  0.6674 -0.1373
  376MOL0     C49554   2.167   8.292   9.556  0.5053  0.4370  0.7265
  376MOL0     C49555   2.298   8.276   9.603 -0.3999 -0.8778  0.6045
  376MOL0     C49556   2.395   8.359   9.558 -0.5054 -0.2999 -0.0373
  376MOL0     C49557   2.378   8.441   9.437 -0.1696  0.2707 -0.1855
  376MOL0     O49558   2.476   8.507   9.367 -0.2120 -0.0473  0.5382
  376MOL0     C49559   2.609   8.471   9.389 -0.5783  0.0312 -0.0849
  376MOL0     C49560   2.676   8.556   9.492  0.1092  0.0220  0.5426
  376MOL0     C49561   2.646   8.705   9.477  0.7724 -0.2743 -0.3387
  376MOL0     C49562   2.707   8.796   9.595  0.3595  0.2749  0.7069
  376MOL0     C49563   2.850   8.803   9.592  0.1610 -0.6727 -0.3706
  376MOL0     C49564   2.971   8.804   9.584 -0.3326 -0.3169  0.2084
  376MOL0     C49565   2.244   8.470   9.404 -0.3290  0.8021 -0.1524
  376MOL0     C49566   2.142   8.392   9.461 -0.1382  0.6108  0.3866
  376MOL0     H49567   2.123   7.872   9.811  0.7623 -0.8451  1.0167
  376MOL0     H49568   1.999   7.759   9.961 -0.9149  0.8484  2.9877
  376MOL0     H49569   1.704   7.765   9.876 -1.6004 -0.8173  0.3511
  376MOL0     H49570   1.596   7.878   9.948 -1.4056 -1.4958  1.6197
  376MOL0     H49571   1.575   7.607   9.986 -0.4248 -0.4583  1.6088
  376MOL0     H49572   1.460   7.724  10.011  0.5582  0.8261 -0.6407
  376MOL0     H49573   1.700   7.625  10.180 -0.7361 -1.6804 -1.5099
  376MOL0     H49574   1.528   7.582  10.208 -2.5848  2.0984  0.0624
  376MOL0     H49575   1.654   7.854  10.258  0.4661 -1.1141 -1.8587
  376MOL0     H49576   1.486   7.830  10.251  0.9682  0.3966 -1.9844
  376MOL0     H49577   1.630   7.645  10.449 -1.8142 -0.6046  2.6552
  376MOL0     H49578   1.468   7.669  10.433  0.8087 -1.7687  1.5498
  376MOL0     H49579   1.476   7.905  10.480 -1.2989 -0.5421  1.3764
  376MOL0     H49580   1.649   7.884  10.527 -0.4295  2.0360 -0.0929
  376MOL0     H49581   1.561   7.723  10.698 -3.0412 -4.0877 -0.3760
  376MOL0     H49582   1.495   7.890  10.730 -0.1213 -0.6444 -0.3759
  376MOL0     H49583   1.320   7.688  10.593 -1.4237 -0.2380 -0.7115
  376MOL0     H49584   1.290   7.852  10.637 -1.2539 -1.4271 -0.8292
  376MOL0     H49585   1.289   7.519  10.800 -2.1815 -2.4049  2.1252
  376MOL0     H49586   1.207   7.554  11.168 -1.1646 -2.1006  0.2187
  376MOL0     H49587   1.151   7.433  11.045  0.4622 -0.1179  0.1151
  376MOL0     H49588   0.969   7.577  10.994 -2.2196  2.4278  1.6118
  376MOL0     H49589   1.011   7.701  11.105  3.3085  0.2609  0.1023
  376MOL0     H49590   0.961   7.417  11.210  0.3269  0.6846  1.7195
  376MOL0     H49591   0.983   7.564  11.307  0.4326  3.0080 -0.3478
  376MOL0     H49592   0.755   7.514  11.114  0.2630  0.1280 -0.4261
  376MOL0     H49593   0.781   7.665  11.197 -0.3314 -0.2619  0.4136
  376MOL0     H49594   0.515   7.577  11.192 -0.6573  1.7567 -0.5382
  376MOL0     H49595   0.311   7.625  11.288  0.3376 -0.2457 -1.1966
  376MOL0     H49596   0.005   7.465  11.635  0.7236  1.1716  0.6119
  376MOL0     H49597  -0.220   7.502  11.715 -1.5715  2.4893 -0.6170
  376MOL0     H49598  -0.272   7.819  12.034  2.6432  0.5573 -5.5730
  376MOL0     H49599  -0.242   7.655  12.106 -1.1519  2.2620  1.1094
  376MOL0     H49600  -0.464   7.731  12.172  0.0915 -0.4307  0.1573
  376MOL0     H49601  -0.473   7.589  12.067  0.6786 -0.1711  4.9464
  376MOL0     H49602  -0.505   7.780  11.877  3.2823 -2.4894  1.6772
  376MOL0     H49603  -0.530   7.888  12.008 -1.5612  1.3365 -0.5672
  376MOL0     H49604  -0.733   7.759  12.084 -0.0059  1.0859 -0.2494
  376MOL0     H49605  -0.742   7.815  11.929 -0.3286 -1.7487 -1.0595
  376MOL0     H49606  -0.664   7.536  12.009  3.1702 -0.2391 -1.2377
  376MOL0     H49607  -0.649   7.589  11.840 -0.8124 -0.4740 -1.0226
  376MOL0     H49608  -0.927   7.601  11.986 -0.2040  1.4189  0.5700
  376MOL0     H49609  -0.867   7.459  11.906 -0.8027 -0.3546 -1.3865
  376MOL0     H49610  -0.849   7.716  11.738 -2.3360  0.6996 -2.0833
  376MOL0     H49611  -0.887   7.546  11.689  0.8588  2.4556 -3.5295
  376MOL0     H49612  -1.098   7.553  11.765  0.3259  0.3826 -1.9358
  376MOL0     H49613  -1.080   7.712  11.679  1.1306  1.8287  0.4211
  376MOL0     H49614  -0.060   7.795  11.988 -0.0047  0.4826 -0.0978
  376MOL0     H49615   0.163   7.762  11.881  1.1428 -0.7130 -0.4409
  376MOL0     H49616   0.466   7.536  11.683 -0.9326 -1.4782 -0.7534
  376MOL0     H49617   0.676   7.481  11.581 -1.7184  1.7296  2.1155
  376MOL0     H49618   1.708   8.074   9.970 -0.0610  2.0085 -0.0438
  376MOL0     H49619   1.835   8.212   9.832  0.6978  0.4658 -2.6249
  376MOL0     H49620   2.317   8.202   9.680 -0.6280 -1.1012  0.4493
  376MOL0     H49621   2.491   8.355   9.609 -1.0630 -2.1314  0.9662
  376MOL0     H49622   2.655   8.491   9.292 -0.0984  1.5912  0.4296
  376MOL0     H49623   2.630   8.370   9.424  0.8105  0.3535  0.0738
  376MOL0     H49624   2.640   8.525   9.591  0.4660  0.6192  0.8719
  376MOL0     H49625   2.785   8.549   9.493  0.1044 -0.2987 -0.4815
  376MOL0     H49626   2.543   8.721   9.511  0.9672  2.8090 -0.8638
  376MOL0     H49627   2.665   8.731   9.372  0.1611 -4.0243 -1.5134
  376MOL0     H49628   2.668   8.898   9.580  0.1152  0.6219  3.3594
  376MOL0     H49629   2.679   8.751   9.690  1.0594 -4.3760 -1.0449
  376MOL0     H49630   3.078   8.809   9.581 -0.2873 -1.4356 -0.7496
  376MOL0     H49631   2.221   8.524   9.313  3.3732  1.8534 -0.6551
  376MOL0     H49632   2.042   8.426   9.438 -0.7610  0.4817  2.6598
  377MOL0     O49633   1.162   5.994   2.736  1.2289 -0.2024 -0.2715
  377MOL0     C49634   1.190   6.041   2.851 -0.0297  0.3659  0.1789
  377MOL0     O49635   1.113   6.017   2.969  0.8402 -0.8098  0.0281
  377MOL0     C49636   0.992   5.961   2.936  0.2206  0.1172 -0.3523
  377MOL0     C49637   0.905   6.023   2.840 -0.7032  0.4910  0.4029
  377MOL0     C49638   0.784   5.964   2.805 -0.2021 -0.2612  0.1332
  377MOL0     C49639   0.741   5.844   2.857  0.1416  0.6092 -0.7676
  377MOL0     O49640   0.617   5.793   2.818  0.3198  0.4746  1.0755
  377MOL0     C49641   0.542   5.723   2.920  0.3013 -0.7093 -0.2890
  377MOL0     C49642   0.403   5.710   2.872  0.8404  0.0220  0.0311
  377MOL0     C49643   0.342   5.839   2.815  0.4623 -0.9938 -0.5697
  377MOL0     C49644   0.198   5.839   2.788 -0.3925  0.8130 -1.3860
  377MOL0     C49645   0.150   5.731   2.679 -0.5896  0.3567  0.1732
  377MOL0     C49646   0.023   5.788   2.628 -0.1540 -0.2523 -0.1671
  377MOL0     C49647  -0.019   5.717   2.499  1.1857 -0.6786 -0.9978
  377MOL0     C49648  -0.139   5.779   2.424 -0.0500  1.1460 -0.5936
  377MOL0     N49649  -0.265   5.728   2.479 -0.7161 -0.5084  0.2555
  377MOL0     C49650  -0.317   5.772   2.599 -0.1879 -0.0781  0.5095
  377MOL0     C49651  -0.423   5.692   2.608  0.8172  0.9775  0.1524
  377MOL0     C49652  -0.505   5.705   2.730  0.0369  0.7915 -0.2421
  377MOL0     C49653  -0.647   5.649   2.721 -0.1345  0.1243  0.2058
  377MOL0     C49654  -0.653   5.498   2.737 -0.0507 -0.1129 -0.2786
  377MOL0     C49655  -0.666   5.448   2.885 -0.2971 -0.4703 -0.3315
  377MOL0     O49656  -0.777   5.494   2.955  0.5768  0.0527 -0.4778
  377MOL0     C49657  -0.896   5.424   2.947  0.4742  0.6176  0.3440
  377MOL0     C49658  -0.912   5.307   2.863  0.0401 -1.0479  0.0691
  377MOL0     C49659  -1.031   5.232   2.865  0.1290 -0.6853  0.3393
  377MOL0     C49660  -1.128   5.272   2.960 -0.2922  0.3694  1.1396
  377MOL0     C49661  -1.247   5.174   2.960 -0.1411  0.2241  0.4156
  377MOL0     O49662  -1.363   5.224   3.010  0.2993 -1.1947  0.2935
  377MOL0     C49663  -1.476   5.150   3.027 -0.5853 -0.8727 -0.1171
  377MOL0     C49664  -1.476   5.018   3.081 -0.0888 -0.1984 -0.5155
  377MOL0     C49665  -1.601   4.961   3.106  0.6001 -0.0296 -0.5712
  377MOL0     C49666  -1.725   5.026   3.082  0.3651  0.5485 -0.1174
  377MOL0     O49667  -1.836   4.947   3.126  0.7951 -0.8423  0.1940
  377MOL0     C49668  -1.972   4.995   3.106 -0.7223 -1.3402  0.2780
  377MOL0     C49669  -2.075   4.884   3.151  0.1662  0.1844  1.3720
  377MOL0     C49670  -2.219   4.924   3.100 -0.6902 -0.4674  0.8464
  377MOL0     C49671  -2.306   4.792   3.096 -0.6760  0.2708  0.2430
  377MOL0     C49672  -2.453   4.817   3.048  0.4353  0.5290  0.5606
  377MOL0     C49673  -2.528   4.942   3.089  0.0805 -0.3957  0.0478
  377MOL0     C49674  -2.572   4.962   3.235  0.4643 -0.2006 -0.8930
  377MOL0     C49675  -2.668   5.091   3.239 -0.3510  0.4388  0.6247
  377MOL0    Cl49676  -2.832   5.076   3.165 -0.2917  0.3613 -0.3174
  377MOL0     C49677  -1.726   5.152   3.032  0.5813  0.4160 -0.1890
  377MOL0     C49678  -1.605   5.213   3.006 -0.8948  0.3737 -0.3812
  377MOL0     O49679  -1.236   5.062   2.913  0.1031 -0.2146 -0.0318
  377MOL0     C49680  -1.112   5.392   3.032  0.3915  0.4662  0.5232
  377MOL0     C49681  -0.995   5.461   3.033 -0.3869 -0.1225 -0.5127
  377MOL0     N49682  -0.443   5.623   2.495 -0.3596  0.0455 -0.3622
  377MOL0     N49683  -0.345   5.646   2.419 -0.0667  0.0524  0.2099
  377MOL0     C49684   0.827   5.790   2.956  0.6722  0.5134  0.3951
  377MOL0     C49685   0.948   5.847   2.994  0.2914  0.0687 -0.7797
  377MOL0     C49686   1.320   6.118   2.865  0.5991  0.4315 -0.0376
  377MOL0     C49687   1.379   6.151   2.986  0.6019  0.0065 -0.2213
  377MOL0     C49688   1.504   6.208   2.987 -0.8431  0.2113 -0.4292
  377MOL0     C49689   1.581   6.233   2.871 -0.4151  0.8218 -0.3841
  377MOL0     O49690   1.702   6.297   2.865 -0.2205  0.2759 -0.2721
  377MOL0     C49691   1.765   6.355   2.976 -0.4930  0.0737  0.2647
  377MOL0     C49692   1.893   6.429   2.936  0.6876 -0.4028 -0.5506
  377MOL0     C49693   1.975   6.465   3.064 -0.2462  0.2359 -0.2596
  377MOL0     C49694   2.113   6.510   3.025 -0.8330  0.5428  0.2967
  377MOL0     C49695   2.123   6.637   2.976  0.2652 -0.6877  0.0150
  377MOL0     C49696   2.148   6.747   2.944  0.0673  0.5163  0.0475
  377MOL0     C49697   1.524   6.197   2.748 -0.5838  0.5466  0.0358
  377MOL0     C49698   1.401   6.127   2.746 -0.2958 -0.7964 -1.3247
  377MOL0     H49699   0.944   6.108   2.785  3.6105 -2.1424 -1.2226
  377MOL0     H49700   0.717   6.017   2.738 -2.5133 -2.4104  0.5873
  377MOL0     H49701   0.552   5.779   3.013  0.9144  0.2944 -0.9352
  377MOL0     H49702   0.590   5.627   2.940  3.1864  0.2760 -1.9243
  377MOL0     H49703   0.349   5.676   2.960  0.9655 -1.0645 -0.3035
  377MOL0     H49704   0.401   5.639   2.789  0.9600 -0.1032  0.1362
  377MOL0     H49705   0.382   5.862   2.715 -0.3729  3.3826 -0.1084
  377MOL0     H49706   0.370   5.931   2.866 -0.9844  0.4048 -2.1629
  377MOL0     H49707   0.127   5.833   2.871 -2.6224  2.3671 -3.0595
  377MOL0     H49708   0.185   5.941   2.749  0.3707  0.4728 -2.5912
  377MOL0     H49709   0.132   5.635   2.729  1.9926 -0.3687 -0.1845
  377MOL0     H49710   0.218   5.715   2.596  0.1799  2.5076  0.3230
  377MOL0     H49711   0.052   5.887   2.591 -3.0221  1.0660  0.8363
  377MOL0     H49712  -0.046   5.791   2.713  0.6424  0.6375  0.4811
  377MOL0     H49713   0.068   5.724   2.432  0.1662  5.7230 -2.3041
  377MOL0     H49714  -0.039   5.613   2.525 -2.8908  0.7825  2.9597
  377MOL0     H49715  -0.136   5.755   2.317 -2.0706 -0.3739 -0.3765
  377MOL0     H49716  -0.133   5.888   2.429  0.1809  1.1277 -0.4531
  377MOL0     H49717  -0.284   5.849   2.668 -2.0101  1.4590 -0.2294
  377MOL0     H49718  -0.504   5.810   2.758  1.6675  0.2261  2.1174
  377MOL0     H49719  -0.456   5.644   2.807 -2.9286 -1.0652  0.3326
  377MOL0     H49720  -0.679   5.685   2.623  3.5466 -1.1927 -1.6534
  377MOL0     H49721  -0.694   5.695   2.809 -0.0860 -3.3129  2.2248
  377MOL0     H49722  -0.737   5.457   2.680 -2.1464  0.3439  2.3323
  377MOL0     H49723  -0.559   5.458   2.697 -0.2427  0.9965 -1.9069
  377MOL0     H49724  -0.580   5.495   2.935 -0.5660  2.2900 -2.2513
  377MOL0     H49725  -0.651   5.340   2.897  1.3181 -0.1922  0.5683
  377MOL0     H49726  -0.843   5.284   2.783 -0.9699 -2.9232 -0.3172
  377MOL0     H49727  -1.036   5.151   2.793  0.4942  1.1148 -1.8242
  377MOL0     H49728  -1.385   4.966   3.109 -0.8128 -1.9234 -1.2376
  377MOL0     H49729  -1.611   4.860   3.144  1.4457  0.1860  0.2698
  377MOL0     H49730  -1.982   5.017   3.000 -3.8970  1.6487  0.9932
  377MOL0     H49731  -1.987   5.088   3.162 -1.9940  1.0817 -3.6654
  377MOL0     H49732  -2.069   4.865   3.258 -3.4230 -1.5637  1.3893
  377MOL0     H49733  -2.046   4.794   3.095  0.0659  1.9968 -1.8755
  377MOL0     H49734  -2.215   4.966   2.999 -1.6719  3.0464  2.1157
  377MOL0     H49735  -2.263   5.005   3.159 -0.1021  3.0932 -3.0578
  377MOL0     H49736  -2.253   4.712   3.044  0.3650  1.8471 -1.2339
  377MOL0     H49737  -2.306   4.766   3.202 -0.1713  0.8619  0.3977
  377MOL0     H49738  -2.510   4.733   3.089  0.0699  0.7706  0.5507
  377MOL0     H49739  -2.455   4.801   2.940 -1.8978 -3.3959  0.9655
  377MOL0     H49740  -2.612   4.939   3.020 -1.4143 -4.5649  1.7685
  377MOL0     H49741  -2.462   5.025   3.063 -1.7178  0.6385 -1.4214
  377MOL0     H49742  -2.625   4.877   3.279  0.0302  1.0933  1.2566
  377MOL0     H49743  -2.487   4.985   3.299  0.2313 -0.9327 -0.3040
  377MOL0     H49744  -2.614   5.164   3.178 -1.1205 -0.2082 -0.9047
  377MOL0     H49745  -2.671   5.122   3.344 -1.9903 -1.8945  1.3582
  377MOL0     H49746  -1.823   5.198   3.015 -2.2417 -4.8396 -0.2057
  377MOL0     H49747  -1.598   5.314   2.965  0.7272  0.2033 -0.5603
  377MOL0     H49748  -1.191   5.427   3.098 -1.3993  1.4293 -1.9599
  377MOL0     H49749  -0.984   5.542   3.105 -1.1570 -0.5409  0.0946
  377MOL0     H49750   0.810   5.697   3.010 -0.3219  0.3208 -0.2251
  377MOL0     H49751   1.009   5.802   3.072  0.0813 -0.0702 -0.6953
  377MOL0     H49752   1.322   6.133   3.076 -1.2044  0.0254 -1.3020
  377MOL0     H49753   1.540   6.243   3.084 -2.6249 -0.5528  0.5524
  377MOL0     H49754   1.776   6.278   3.053 -2.8459  0.3067  0.9066
  377MOL0     H49755   1.700   6.425   3.030 -0.5640 -0.3278  0.7092
  377MOL0     H49756   1.951   6.367   2.868  1.0494 -1.2507  0.5194
  377MOL0     H49757   1.867   6.526   2.890 -0.9959  0.9408  2.8843
  377MOL0     H49758   1.993   6.379   3.129  1.1776  1.4584  1.0446
  377MOL0     H49759   1.919   6.533   3.130 -1.5580  0.6573 -1.7426
  377MOL0     H49760   2.166   6.490   3.118 -1.4816  0.5640  0.6746
  377MOL0     H49761   2.163   6.443   2.954 -0.4791  2.6668 -1.5434
  377MOL0     H49762   2.180   6.842   2.906 -2.9778  1.7311  0.2299
  377MOL0     H49763   1.572   6.219   2.653 -1.0314 -1.3132 -0.6764
  377MOL0     H49764   1.370   6.091   2.648 -0.5718 -2.7427 -0.5587
  378MOL0     O49765   4.422   2.656   4.054  0.5552  0.4963 -0.5096
  378MOL0     C49766   4.465   2.759   3.998 -0.2209 -0.5640 -0.0578
  378MOL0     O49767   4.389   2.858   3.920  0.6532  0.0489  0.0535
  378MOL0     C49768   4.272   2.812   3.874 -1.0526  0.4450 -0.5226
  378MOL0     C49769   4.158   2.817   3.961 -1.0130  0.3111 -0.2794
  378MOL0     C49770   4.040   2.771   3.922  0.5199  0.2409 -0.3801
  378MOL0     C49771   4.008   2.741   3.798  0.2696  0.5990 -0.9578
  378MOL0     O49772   3.875   2.742   3.753 -0.6475  0.6048  0.2523
  378MOL0     C49773   3.769   2.790   3.839  1.0191  1.3825 -0.1795
  378MOL0     C49774   3.628   2.768   3.773 -0.0740 -0.4632 -0.4902
  378MOL0     C49775   3.598   2.624   3.774 -0.4803 -0.5554 -0.5473
  378MOL0     C49776   3.478   2.593   3.681  0.5285 -0.2928  0.3725
  378MOL0     C49777   3.397   2.469   3.730 -0.2382  0.0230  1.3998
  378MOL0     C49778   3.314   2.505   3.855 -0.3439  0.3841  0.6124
  378MOL0     C49779   3.205   2.402   3.881  0.3147 -0.0751 -0.1862
  378MOL0     C49780   3.122   2.459   3.991  0.7492 -0.9155 -0.8314
  378MOL0     N49781   3.057   2.594   3.998  0.3106  0.8013 -0.6288
  378MOL0     C49782   3.019   2.676   3.895 -0.4727 -0.9266  0.1474
  378MOL0     C49783   2.933   2.766   3.954  0.4353  0.1817  1.6854
  378MOL0     C49784   2.871   2.882   3.879 -0.6499  0.2200  0.2533
  378MOL0     C49785   2.719   2.888   3.894 -0.3430  0.8771  0.1829
  378MOL0     C49786   2.639   2.786   3.808  0.5470  0.4773  0.7168
  378MOL0     C49787   2.558   2.676   3.875  0.6155 -0.1239 -0.2049
  378MOL0     O49788   2.469   2.734   3.973  0.7084 -0.2721 -0.3510
  378MOL0     C49789   2.485   2.745   4.109  0.8309  0.4342  0.3573
  378MOL0     C49790   2.591   2.677   4.179  0.9210 -0.1844  0.0686
  378MOL0     C49791   2.617   2.695   4.314  0.1590 -0.0340  0.3206
  378MOL0     C49792   2.526   2.783   4.382 -1.3635 -0.1641  0.3303
  378MOL0     C49793   2.564   2.806   4.529  0.3233 -0.6679 -0.0021
  378MOL0     O49794   2.691   2.778   4.574 -0.1051  1.0395 -0.3391
  378MOL0     C49795   2.722   2.753   4.707  0.3694  1.0891  0.2182
  378MOL0     C49796   2.846   2.796   4.748  0.2958 -0.9901 -0.8662
  378MOL0     C49797   2.880   2.777   4.883 -0.3454  0.5947 -0.5805
  378MOL0     C49798   2.799   2.709   4.967  0.4025 -0.2931 -0.4633
  378MOL0     O49799   2.835   2.697   5.103  0.2242  0.3152  0.8318
  378MOL0     C49800   2.744   2.669   5.213  0.1214 -0.8337  0.1699
  378MOL0     C49801   2.810   2.634   5.351 -0.3531 -1.1157 -0.1438
  378MOL0     C49802   2.933   2.547   5.342  0.7321 -0.3873 -0.7176
  378MOL0     C49803   2.979   2.491   5.474 -0.0560  0.7368 -0.6409
  378MOL0     C49804   3.118   2.434   5.475  0.3901  0.0305  0.3780
  378MOL0     C49805   3.231   2.531   5.444 -0.0869 -0.9959 -0.4442
  378MOL0     C49806   3.365   2.462   5.467  0.3413 -0.3672 -0.4019
  378MOL0     C49807   3.463   2.555   5.441  0.8710 -0.4778  0.0919
  378MOL0    Cl49808   3.615   2.468   5.439 -0.3622 -0.1208 -0.3936
  378MOL0     C49809   2.672   2.656   4.917 -0.1690  0.8317 -0.0132
  378MOL0     C49810   2.635   2.682   4.785  0.1105  0.9671 -1.1847
  378MOL0     O49811   2.485   2.863   4.603 -0.0085  0.6608 -0.2430
  378MOL0     C49812   2.430   2.863   4.319 -0.2544 -0.0958 -0.2381
  378MOL0     C49813   2.412   2.843   4.180  0.6682 -0.4155  1.0849
  378MOL0     N49814   2.934   2.747   4.090  0.2869 -0.4600  0.3687
  378MOL0     N49815   3.008   2.640   4.115  0.3762  0.1531 -0.0229
  378MOL0     C49816   4.114   2.740   3.705 -0.2268  0.3884 -0.7660
  378MOL0     C49817   4.244   2.773   3.740  0.0580  0.3041  0.3072
  378MOL0     C49818   4.614   2.799   4.026  0.5661 -0.3191 -0.5931
  378MOL0     C49819   4.668   2.926   3.984 -0.2983  0.2367 -1.4099
  378MOL0     C49820   4.803   2.958   4.017  0.0763  0.3107 -0.0016
  378MOL0     C49821   4.882   2.869   4.087 -0.6279 -0.3103  0.4460
  378MOL0     O49822   5.011   2.914   4.109 -0.8723  0.3213  0.0188
  378MOL0     C49823   5.105   2.819   4.169 -0.5521  0.7585 -0.5383
  378MOL0     C49824   5.241   2.891   4.177 -0.0049  0.2110  0.2169
  378MOL0     C49825   5.282   2.950   4.039 -0.1910  0.0563  0.1091
  378MOL0     C49826   5.430   3.005   4.037  0.5492 -0.6904 -0.2167
  378MOL0     C49827   5.463   3.082   4.156 -0.8312  0.5206  0.1171
  378MOL0     C49828   5.503   3.156   4.238 -0.1472  0.0399 -0.2701
  378MOL0     C49829   4.836   2.741   4.125  0.5336 -0.3746  0.3020
  378MOL0     C49830   4.705   2.715   4.089 -0.3534  0.0381 -0.0067
  378MOL0     H49831   4.157   2.850   4.065 -1.7240  1.2342 -0.5603
  378MOL0     H49832   3.963   2.761   3.998 -0.0603  1.2029 -0.8184
  378MOL0     H49833   3.792   2.896   3.855 -0.1388  1.5628  0.3805
  378MOL0     H49834   3.769   2.740   3.936  0.4562 -1.5197 -1.5609
  378MOL0     H49835   3.628   2.794   3.667 -1.3016 -0.0176 -0.4073
  378MOL0     H49836   3.541   2.821   3.815 -0.9819 -0.1284 -2.6108
  378MOL0     H49837   3.581   2.596   3.879  1.9718 -1.4084 -0.3153
  378MOL0     H49838   3.684   2.563   3.744 -1.4938 -2.5763  0.4760
  378MOL0     H49839   3.410   2.678   3.691  1.1593  0.4770 -1.4249
  378MOL0     H49840   3.512   2.587   3.577  1.1719  1.0132  0.4756
  378MOL0     H49841   3.466   2.388   3.758  1.0486  0.9893  1.1309
  378MOL0     H49842   3.330   2.436   3.651  0.5482 -2.0447  1.5328
  378MOL0     H49843   3.266   2.602   3.856  2.3323  1.9042 -1.6072
  378MOL0     H49844   3.373   2.494   3.946  0.1771 -1.2186  0.1284
  378MOL0     H49845   3.131   2.383   3.802 -1.4639 -0.0159  1.3819
  378MOL0     H49846   3.257   2.312   3.915  2.5361  0.4055 -2.0530
  378MOL0     H49847   3.191   2.455   4.076 -2.1748 -1.4342  1.7002
  378MOL0     H49848   3.040   2.389   4.008 -0.0514  0.3188  0.6336
  378MOL0     H49849   3.041   2.664   3.789  0.3563  2.8227 -0.2271
  378MOL0     H49850   2.895   2.879   3.773 -1.4926  3.0473 -0.1038
  378MOL0     H49851   2.923   2.969   3.921 -1.1686  1.8001 -2.2135
  378MOL0     H49852   2.698   2.990   3.861  0.2919  1.3926  1.3154
  378MOL0     H49853   2.697   2.876   4.001 -0.6534  1.4533  0.1897
  378MOL0     H49854   2.569   2.844   3.747 -0.7786 -1.9584 -0.2326
  378MOL0     H49855   2.699   2.739   3.729 -1.1735  0.4976 -0.6758
  378MOL0     H49856   2.634   2.609   3.917  2.2854  1.1650 -1.0704
  378MOL0     H49857   2.490   2.615   3.814 -0.1197 -1.4481  1.8497
  378MOL0     H49858   2.657   2.613   4.121 -1.4752 -2.3551 -0.4453
  378MOL0     H49859   2.688   2.636   4.372 -2.2066  0.0275  3.5783
  378MOL0     H49860   2.914   2.856   4.689  1.5922 -2.2128 -0.6767
  378MOL0     H49861   2.970   2.818   4.927 -1.2955  1.7265  0.3969
  378MOL0     H49862   2.690   2.579   5.183 -0.6309  0.2430 -1.9261
  378MOL0     H49863   2.668   2.748   5.218  1.3106  0.3002  1.0813
  378MOL0     H49864   2.739   2.589   5.422 -1.6052  0.0927 -0.5910
  378MOL0     H49865   2.845   2.726   5.397 -0.5254 -1.3741  0.5191
  378MOL0     H49866   3.010   2.613   5.301  1.1564 -0.0375  0.6164
  378MOL0     H49867   2.927   2.467   5.268 -5.5775 -1.0023 -0.1475
  378MOL0     H49868   2.974   2.576   5.542 -0.5332  1.4622 -1.5455
  378MOL0     H49869   2.903   2.419   5.507  0.3207  1.1074  1.1233
  378MOL0     H49870   3.133   2.359   5.397  0.8247  1.3642 -0.8547
  378MOL0     H49871   3.130   2.385   5.572  0.4441 -4.4401 -1.6444
  378MOL0     H49872   3.222   2.625   5.500 -0.0494 -0.0145 -2.0370
  378MOL0     H49873   3.222   2.563   5.340  1.0148  1.4228  0.1272
  378MOL0     H49874   3.360   2.431   5.571 -2.2394  0.4255 -0.2132
  378MOL0     H49875   3.382   2.366   5.418 -1.0547 -3.4063  4.4421
  378MOL0     H49876   3.459   2.632   5.519 -0.6060  0.1202 -0.5426
  378MOL0     H49877   3.451   2.599   5.342 -0.8026 -0.0037  0.4819
  378MOL0     H49878   2.604   2.597   4.977  1.6368 -2.3037 -0.8011
  378MOL0     H49879   2.543   2.646   4.740 -1.0825  0.0123  1.7870
  378MOL0     H49880   2.360   2.928   4.371 -1.8895 -1.0596 -1.1577
  378MOL0     H49881   2.348   2.906   4.118 -1.8953 -4.1337 -0.3901
  378MOL0     H49882   4.084   2.737   3.601 -0.3189 -1.1045 -0.7304
  378MOL0     H49883   4.315   2.787   3.659 -0.7202  0.8066 -0.2998
  378MOL0     H49884   4.623   3.003   3.923  0.0975 -0.0360 -2.0533
  378MOL0     H49885   4.846   3.057   4.006  1.4141 -0.0920  1.2978
  378MOL0     H49886   5.113   2.736   4.099  1.6642 -0.0654  0.5969
  378MOL0     H49887   5.070   2.781   4.265  1.6503 -0.1750 -0.0610
  378MOL0     H49888   5.239   2.958   4.264 -2.2120 -2.5949  2.5761
  378MOL0     H49889   5.310   2.811   4.206  1.2743  1.5010  0.8482
  378MOL0     H49890   5.208   3.026   4.011  0.3057  0.4162 -0.2414
  378MOL0     H49891   5.268   2.877   3.959 -2.1103  2.9514 -2.4554
  378MOL0     H49892   5.486   2.911   4.040 -0.5228 -1.3288  1.8691
  378MOL0     H49893   5.464   3.058   3.947 -0.8035  0.6221  0.0156
  378MOL0     H49894   5.544   3.230   4.304 -0.1950 -1.5753  1.6605
  378MOL0     H49895   4.875   2.670   4.196 -1.2767 -1.5875  0.1603
  378MOL0     H49896   4.662   2.619   4.117  0.7243 -0.8452 -1.2549
  379MOL0     O49897   3.508   7.903   2.801  0.1822  0.2139 -0.1255
  379MOL0     C49898   3.536   7.958   2.696 -0.2455  0.1873 -0.4949
  379MOL0     O49899   3.449   8.003   2.609  0.3980 -0.2777 -0.3775
  379MOL0     C49900   3.314   8.027   2.641  0.0039  0.5424  0.8935
  379MOL0     C49901   3.253   8.065   2.758 -0.1762 -0.7001 -0.4960
  379MOL0     C49902   3.121   8.063   2.771  1.4006 -0.2954 -0.5155
  379MOL0     C49903   3.033   8.015   2.679 -0.0632  1.2714  0.3703
  379MOL0     O49904   2.898   7.978   2.695 -0.0506 -0.6838  0.0484
  379MOL0     C49905   2.833   8.052   2.794 -0.4892 -0.1576 -0.2016
  379MOL0     C49906   2.822   7.955   2.920  0.4307  0.0102  0.6508
  379MOL0     C49907   2.719   7.995   3.026  0.7810  0.9534  0.9969
  379MOL0     C49908   2.753   8.127   3.096  0.2363 -0.7696 -0.5099
  379MOL0     C49909   2.897   8.126   3.155 -0.1101 -0.4174  0.4231
  379MOL0     C49910   2.936   8.261   3.214 -0.3081  0.0641 -0.3388
  379MOL0     C49911   2.928   8.379   3.121 -0.1553  0.6466  0.3280
  379MOL0     C49912   3.020   8.500   3.156  0.1401  0.6952  0.0570
  379MOL0     N49913   3.157   8.475   3.098 -0.3729 -0.2668  0.1438
  379MOL0     C49914   3.254   8.400   3.159  0.0518  1.0638 -0.3386
  379MOL0     C49915   3.372   8.432   3.105  0.3278  0.0565 -0.3804
  379MOL0     C49916   3.503   8.356   3.126  0.4168  0.3415 -0.4335
  379MOL0     C49917   3.532   8.246   3.018 -0.7122  0.1220  0.7471
  379MOL0     C49918   3.669   8.181   3.029 -0.7889  0.1286 -0.6243
  379MOL0     C49919   3.787   8.280   3.050 -0.5892  0.3508 -0.3555
  379MOL0     O49920   3.900   8.194   3.053 -0.7542  0.2411  0.0170
  379MOL0     C49921   4.023   8.228   3.099  0.2972  0.1277  0.3587
  379MOL0     C49922   4.050   8.349   3.159  0.4223 -0.4900  0.7522
  379MOL0     C49923   4.176   8.374   3.202  0.2492 -0.8349 -0.3826
  379MOL0     C49924   4.286   8.287   3.178  0.7497 -0.1844 -0.6151
  379MOL0     C49925   4.429   8.321   3.210 -0.6213 -0.5158  0.9294
  379MOL0     O49926   4.521   8.221   3.205 -0.8173  0.1904  0.0229
  379MOL0     C49927   4.657   8.259   3.223 -0.2615  0.2314 -0.2448
  379MOL0     C49928   4.711   8.235   3.350 -0.9057  0.1954  0.3921
  379MOL0     C49929   4.853   8.252   3.354 -0.5725  0.4621  0.7736
  379MOL0     C49930   4.935   8.277   3.242 -0.8123 -0.2851 -0.1911
  379MOL0     O49931   5.075   8.266   3.263  0.2341  0.5043 -0.2894
  379MOL0     C49932   5.159   8.327   3.170  0.7075 -0.6663  0.1607
  379MOL0     C49933   5.301   8.312   3.218  0.5027  1.7081  0.4963
  379MOL0     C49934   5.405   8.362   3.126  0.0178  0.3290  0.7478
  379MOL0     C49935   5.544   8.337   3.181  0.0095  0.4325  0.1869
  379MOL0     C49936   5.635   8.423   3.092 -0.8962 -0.7881 -0.3454
  379MOL0     C49937   5.783   8.409   3.144 -0.4947 -0.2250 -0.9861
  379MOL0     C49938   5.883   8.516   3.084 -0.1114  0.3551  0.6217
  379MOL0     C49939   6.035   8.499   3.092 -0.2687  0.2907  0.6423
  379MOL0    Cl49940   6.112   8.663   3.091  0.2496 -0.2264  0.1880
  379MOL0     C49941   4.881   8.298   3.120  0.3532  0.0452  0.4108
  379MOL0     C49942   4.739   8.292   3.113 -0.5806  0.0360  0.5570
  379MOL0     O49943   4.453   8.436   3.239 -0.0164  0.4940 -0.0933
  379MOL0     C49944   4.257   8.165   3.119  1.0902  0.5959 -0.1265
  379MOL0     C49945   4.130   8.138   3.074  1.0248 -0.6338 -0.1969
  379MOL0     N49946   3.345   8.532   3.005  0.1107  0.0254 -0.3477
  379MOL0     N49947   3.215   8.557   3.007  0.6563  0.4116  0.4403
  379MOL0     C49948   3.090   7.977   2.554  0.1186 -0.2874  0.0698
  379MOL0     C49949   3.230   7.994   2.537  1.0913 -0.0333  0.2983
  379MOL0     C49950   3.677   7.969   2.669 -1.1135 -0.1756 -0.4850
  379MOL0     C49951   3.780   7.955   2.766 -0.4868 -0.0240  0.3282
  379MOL0     C49952   3.916   7.981   2.746  0.3225 -0.2935  1.3829
  379MOL0     C49953   3.956   8.018   2.609 -0.2048 -0.3422 -1.0187
  379MOL0     O49954   4.083   8.053   2.573  0.1112 -0.4071  0.4808
  379MOL0     C49955   4.191   8.066   2.662 -0.7115 -0.8581 -0.1458
  379MOL0     C49956   4.319   8.125   2.603 -0.0669  1.0455 -0.8759
  379MOL0     C49957   4.396   8.034   2.501  0.7122 -0.5366  0.2819
  379MOL0     C49958   4.519   8.103   2.449  0.6956  0.2131  0.5852
  379MOL0     C49959   4.485   8.224   2.380 -0.1600 -0.5974  1.3118
  379MOL0     C49960   4.454   8.329   2.321 -0.7501 -0.5723 -0.4832
  379MOL0     C49961   3.855   8.027   2.511 -0.2229  0.1960 -0.3355
  379MOL0     C49962   3.721   8.002   2.538  0.0829 -0.1209 -0.1589
  379MOL0     H49963   3.320   8.095   2.837  0.1732 -1.5964 -0.4357
  379MOL0     H49964   3.083   8.088   2.870  0.9483 -1.6913 -0.3036
  379MOL0     H49965   2.732   8.069   2.756 -0.4548 -2.0864 -1.2571
  379MOL0     H49966   2.879   8.148   2.820 -1.7468 -0.0574  1.8207
  379MOL0     H49967   2.918   7.937   2.968  0.9902 -1.5796 -0.9697
  379MOL0     H49968   2.791   7.856   2.886 -2.6555  1.5754 -1.5931
  379MOL0     H49969   2.694   7.913   3.094 -1.5728  0.8999  0.1467
  379MOL0     H49970   2.627   8.010   2.968  2.0212 -1.7219 -1.9265
  379MOL0     H49971   2.756   8.208   3.023 -0.4499  0.7580  1.0802
  379MOL0     H49972   2.691   8.157   3.181  1.3978  1.5366 -0.3983
  379MOL0     H49973   2.970   8.109   3.076 -0.3333  1.7406 -0.3202
  379MOL0     H49974   2.912   8.048   3.230  0.0073 -0.9995 -0.1973
  379MOL0     H49975   3.040   8.247   3.246  0.5081 -0.3970 -2.9444
  379MOL0     H49976   2.881   8.272   3.308  0.6884  0.8984  0.1686
  379MOL0     H49977   2.933   8.356   3.014 -2.7476  3.7087 -0.5946
  379MOL0     H49978   2.822   8.398   3.135 -0.2919 -0.6734  1.3772
  379MOL0     H49979   3.035   8.505   3.264  1.7438  4.4173 -0.1824
  379MOL0     H49980   2.966   8.588   3.120  2.3409  1.7254 -0.8889
  379MOL0     H49981   3.243   8.321   3.233  1.2628  0.3480 -0.8824
  379MOL0     H49982   3.500   8.307   3.224  0.2577 -0.4043 -0.8045
  379MOL0     H49983   3.592   8.419   3.138 -0.0301  1.1264 -1.1410
  379MOL0     H49984   3.516   8.284   2.917  0.5884  0.0322  0.4842
  379MOL0     H49985   3.451   8.173   3.028 -1.5773  0.7463 -1.1898
  379MOL0     H49986   3.676   8.106   3.108 -2.6445 -0.6203 -1.1291
  379MOL0     H49987   3.682   8.130   2.933 -1.5157 -1.5377  0.1257
  379MOL0     H49988   3.772   8.319   3.150 -1.3723 -0.7897 -0.0107
  379MOL0     H49989   3.795   8.360   2.975 -0.9635  0.7863  0.0707
  379MOL0     H49990   3.981   8.431   3.169  1.3824  0.7090 -1.6203
  379MOL0     H49991   4.203   8.466   3.254 -0.4414 -0.4709 -0.6454
  379MOL0     H49992   4.655   8.206   3.438 -0.5188 -0.5679  0.3908
  379MOL0     H49993   4.897   8.232   3.452 -0.9481  2.3354  1.3474
  379MOL0     H49994   5.149   8.435   3.154 -0.5315 -0.9256 -0.9855
  379MOL0     H49995   5.152   8.271   3.077  0.0763  0.3788 -0.4365
  379MOL0     H49996   5.316   8.204   3.231 -1.4556  0.9920 -2.2739
  379MOL0     H49997   5.325   8.368   3.309  2.1206  0.2522  1.0380
  379MOL0     H49998   5.385   8.469   3.136 -2.3853  0.2267 -1.6078
  379MOL0     H49999   5.386   8.337   3.021 -0.7749  1.5060  0.5955
  379MOL0     H50000   5.549   8.366   3.286  1.8685 -0.5359  0.4037
  379MOL0     H50001   5.583   8.235   3.180 -1.5239 -0.1747 -0.6144
  379MOL0     H50002   5.606   8.528   3.104  2.5520  0.0012  3.7590
  379MOL0     H50003   5.634   8.388   2.989 -3.7665 -2.2737  0.0987
  379MOL0     H50004   5.826   8.311   3.121 -2.7257 -1.8117  1.0948
  379MOL0     H50005   5.785   8.422   3.252 -0.7202  1.7846 -1.1943
  379MOL0     H50006   5.861   8.529   2.978  1.1454  1.5371  0.4707
  379MOL0     H50007   5.856   8.608   3.137 -2.2625 -0.3936  0.9271
  379MOL0     H50008   6.077   8.434   3.014 -2.0564 -2.2340  1.6494
  379MOL0     H50009   6.053   8.450   3.187 -1.0484 -3.9584 -1.1557
  379MOL0     H50010   4.937   8.322   3.030 -0.5079 -1.1719 -0.4725
  379MOL0     H50011   4.698   8.292   3.013  1.9281  0.7414 -0.5728
  379MOL0     H50012   4.330   8.086   3.104  0.1193 -0.6424  1.3271
  379MOL0     H50013   4.112   8.042   3.028 -0.9706 -0.1953 -0.4258
  379MOL0     H50014   3.019   7.944   2.478 -1.5232  0.8929  1.0223
  379MOL0     H50015   3.263   7.969   2.437 -3.1133 -1.5430 -0.9071
  379MOL0     H50016   3.755   7.928   2.868 -1.9094 -0.6475 -0.1550
  379MOL0     H50017   3.987   7.977   2.828 -0.3300  0.7687  2.0340
  379MOL0     H50018   4.219   7.960   2.667  0.7385 -0.5630 -1.1849
  379MOL0     H50019   4.163   8.113   2.756 -0.5756 -1.5490  0.2425
  379MOL0     H50020   4.298   8.228   2.572 -0.6661  2.0045  2.3208
  379MOL0     H50021   4.383   8.133   2.691 -1.1559 -4.1249  0.7334
  379MOL0     H50022   4.326   8.013   2.420 -0.2641  0.5142  0.8163
  379MOL0     H50023   4.419   7.934   2.539 -0.6190 -0.0887  2.4598
  379MOL0     H50024   4.596   8.111   2.527 -1.5013  0.0539  2.8700
  379MOL0     H50025   4.567   8.040   2.373 -1.8815  0.0795 -1.0397
  379MOL0     H50026   4.426   8.423   2.280  0.3177 -0.0367 -0.0351
  379MOL0     H50027   3.890   8.059   2.413  1.8322  1.1233  0.6513
  379MOL0     H50028   3.642   8.023   2.466 -0.3543 -0.9239  0.0753
  380MOL0     O50029   7.746   7.599   6.297  0.8326  0.1551 -1.2765
  380MOL0     C50030   7.800   7.685   6.235 -0.5566 -0.7133 -0.1945
  380MOL0     O50031   7.751   7.805   6.196  0.5475  0.1227  0.6838
  380MOL0     C50032   7.619   7.832   6.201  0.7272 -1.2632 -0.1456
  380MOL0     C50033   7.514   7.745   6.190  0.8758  0.4875 -0.6929
  380MOL0     C50034   7.380   7.790   6.209 -0.2549  0.0113 -0.3902
  380MOL0     C50035   7.355   7.934   6.217  0.8028  0.5547 -0.6796
  380MOL0     O50036   7.239   7.984   6.228 -0.2083  0.5857  0.2278
  380MOL0     C50037   7.120   7.905   6.261  0.3854  0.0355 -0.2851
  380MOL0     C50038   7.007   7.999   6.274  0.6946  0.1339  0.3642
  380MOL0     C50039   7.019   8.098   6.392 -0.1231  0.0996  0.7822
  380MOL0     C50040   7.018   8.036   6.528 -0.4471  0.3026  0.8592
  380MOL0     C50041   7.136   8.081   6.604 -0.0635 -0.4987 -0.4365
  380MOL0     C50042   7.156   8.019   6.741  0.6080 -0.2472 -0.1651
  380MOL0     C50043   7.298   8.044   6.799  0.4646 -0.7927  0.7291
  380MOL0     C50044   7.329   7.943   6.909 -0.3751 -0.7972  0.5873
  380MOL0     N50045   7.228   7.957   7.023 -0.4867 -0.1407 -0.1923
  380MOL0     C50046   7.125   7.863   7.052  0.4395 -0.0135  0.9941
  380MOL0     C50047   7.040   7.931   7.134 -0.2648 -1.3331 -0.0107
  380MOL0     C50048   6.922   7.879   7.202  0.0473  0.2767  0.1946
  380MOL0     C50049   6.939   7.833   7.343  0.4720 -0.7865 -0.2972
  380MOL0     C50050   6.826   7.884   7.441 -0.3338  0.1699  0.0206
  380MOL0     C50051   6.683   7.833   7.420 -0.5545 -0.2214  0.2230
  380MOL0     O50052   6.612   7.889   7.533 -0.6095  0.2606 -0.4586
  380MOL0     C50053   6.475   7.899   7.536  1.1657 -0.6939 -0.2140
  380MOL0     C50054   6.412   7.896   7.664  0.2872  0.5503  0.0264
  380MOL0     C50055   6.269   7.885   7.672 -0.1453 -0.4794  0.2984
  380MOL0     C50056   6.193   7.905   7.559  0.1285  0.0269 -0.2430
  380MOL0     C50057   6.041   7.913   7.564 -0.5625  0.0141 -0.2635
  380MOL0     O50058   5.977   7.942   7.452  0.3717  0.1623 -0.6244
  380MOL0     C50059   5.852   8.003   7.472  0.5659 -0.2540 -0.1608
  380MOL0     C50060   5.837   8.149   7.491 -1.2292 -0.4251  0.5237
  380MOL0     C50061   5.710   8.204   7.493  0.6658 -0.0487 -0.1326
  380MOL0     C50062   5.593   8.119   7.504 -0.8106 -0.4441  0.5372
  380MOL0     O50063   5.464   8.169   7.511 -0.2970 -0.1804  0.8367
  380MOL0     C50064   5.450   8.304   7.572  0.9001  0.0368  0.2499
  380MOL0     C50065   5.476   8.299   7.721  1.2417 -0.8828 -0.0167
  380MOL0     C50066   5.364   8.239   7.810 -0.1583 -0.6948  0.2411
  380MOL0     C50067   5.220   8.315   7.796 -1.1882  0.9002  0.2152
  380MOL0     C50068   5.201   8.449   7.864  0.1155  0.1489  0.9095
  380MOL0     C50069   5.068   8.521   7.833 -0.2058 -0.4792 -0.5210
  380MOL0     C50070   4.941   8.449   7.860 -0.8052  0.4597 -0.1122
  380MOL0     C50071   4.825   8.546   7.861  0.5352 -0.1939  0.9321
  380MOL0    Cl50072   4.669   8.451   7.871 -0.1842 -0.4339 -0.0512
  380MOL0     C50073   5.616   7.981   7.479 -0.5894  1.0034 -0.5440
  380MOL0     C50074   5.739   7.925   7.461 -0.6905  0.4342  0.2100
  380MOL0     O50075   5.992   7.914   7.677 -0.1597  0.1126  0.0582
  380MOL0     C50076   6.260   7.920   7.438  0.0044  0.8421 -0.7515
  380MOL0     C50077   6.398   7.918   7.424  1.1443  0.1194 -0.1295
  380MOL0     N50078   7.098   8.059   7.154  0.1610 -0.0935 -0.6443
  380MOL0     N50079   7.213   8.074   7.093  0.5628 -0.4808 -0.8684
  380MOL0     C50080   7.462   8.019   6.203  0.3972 -0.2338  0.4778
  380MOL0     C50081   7.594   7.967   6.204  0.5351 -0.1463 -0.4029
  380MOL0     C50082   7.950   7.684   6.229  0.0397  0.3004  0.0385
  380MOL0     C50083   8.021   7.613   6.327  0.4635  0.6981  0.7152
  380MOL0     C50084   8.163   7.630   6.330  0.7005 -0.2711  0.7715
  380MOL0     C50085   8.231   7.724   6.250 -0.8074  0.1264  0.8461
  380MOL0     O50086   8.370   7.747   6.262 -0.4050  0.1334  0.5338
  380MOL0     C50087   8.452   7.649   6.324 -0.2556  0.6067  0.0114
  380MOL0     C50088   8.597   7.701   6.322  0.4472 -0.7100 -0.0387
  380MOL0     C50089   8.655   7.691   6.181  0.0814  0.1248  0.1979
  380MOL0     C50090   8.808   7.731   6.172  0.0483 -0.3057  0.5354
  380MOL0     C50091   8.814   7.883   6.178  1.1565  0.5639 -0.6857
  380MOL0     C50092   8.822   8.005   6.188  1.6019  0.9443 -0.0783
  380MOL0     C50093   8.162   7.808   6.160 -0.0295 -0.3146  0.0497
  380MOL0     C50094   8.025   7.782   6.157  0.0129 -0.8142  0.2722
  380MOL0     H50095   7.527   7.637   6.185  0.9475  0.5072 -0.9377
  380MOL0     H50096   7.302   7.715   6.219  0.3586 -0.4670  1.1018
  380MOL0     H50097   7.144   7.857   6.356  0.8733  1.5891  0.4082
  380MOL0     H50098   7.093   7.830   6.186 -0.7761 -0.7186  0.8399
  380MOL0     H50099   6.922   7.934   6.296  1.7988 -0.9029  1.6889
  380MOL0     H50100   6.981   8.063   6.188  1.3257  3.2188  2.3014
  380MOL0     H50101   6.942   8.174   6.378 -1.3366 -1.1140  0.6345
  380MOL0     H50102   7.109   8.156   6.372  0.8373 -1.0749  1.5844
  380MOL0     H50103   6.936   8.081   6.585 -2.3991  0.0660 -1.6088
  380MOL0     H50104   7.006   7.928   6.521 -0.5147  0.4050 -3.5884
  380MOL0     H50105   7.123   8.189   6.615 -0.4188 -0.3714 -1.9530
  380MOL0     H50106   7.224   8.071   6.541  2.1620 -1.2070  2.5770
  380MOL0     H50107   7.147   7.912   6.720 -2.0742  0.1809 -1.6964
  380MOL0     H50108   7.079   8.048   6.814  1.6272 -1.8082  1.6215
  380MOL0     H50109   7.364   8.016   6.716 -1.5352  0.0851 -1.2880
  380MOL0     H50110   7.309   8.148   6.830 -2.6063 -0.5225  1.2634
  380MOL0     H50111   7.429   7.964   6.949 -0.3933 -0.5512  0.5096
  380MOL0     H50112   7.322   7.839   6.878 -0.0789 -1.0637  1.3969
  380MOL0     H50113   7.128   7.759   7.021  0.1509  0.0227  0.8394
  380MOL0     H50114   6.874   7.808   7.134 -0.6287  0.8952  0.0010
  380MOL0     H50115   6.857   7.967   7.194  0.6460  1.0910  3.0192
  380MOL0     H50116   7.037   7.871   7.372  0.3346 -0.6413 -0.0206
  380MOL0     H50117   6.939   7.724   7.333 -1.0356 -0.7322 -1.1323
  380MOL0     H50118   6.871   7.855   7.537  0.2247 -1.0459 -0.5884
  380MOL0     H50119   6.822   7.993   7.437  2.0978  0.3698  1.3027
  380MOL0     H50120   6.687   7.724   7.420 -0.8064 -0.2331 -0.5302
  380MOL0     H50121   6.649   7.879   7.327  0.4588 -0.1910 -0.1487
  380MOL0     H50122   6.476   7.895   7.752 -1.3924  0.1900  1.2851
  380MOL0     H50123   6.229   7.872   7.772  1.2249  3.0970  1.4926
  380MOL0     H50124   5.933   8.197   7.474 -1.2839 -0.5786 -0.2506
  380MOL0     H50125   5.716   8.309   7.467  4.6994  0.9086  3.4325
  380MOL0     H50126   5.351   8.348   7.559  1.0196  0.4567  0.7210
  380MOL0     H50127   5.520   8.380   7.536  1.1683 -0.8777 -1.2553
  380MOL0     H50128   5.493   8.404   7.744  1.3678 -0.8106 -0.4226
  380MOL0     H50129   5.571   8.250   7.745  1.4482  0.6150  2.4649
  380MOL0     H50130   5.381   8.245   7.917 -2.8901  1.9842  0.6752
  380MOL0     H50131   5.346   8.134   7.785  2.3687 -0.8490 -1.2231
  380MOL0     H50132   5.191   8.325   7.691 -1.0942 -1.7020 -0.1453
  380MOL0     H50133   5.143   8.249   7.838 -1.3102 -1.3608 -3.1554
  380MOL0     H50134   5.281   8.518   7.835 -1.7409  2.1109  0.0821
  380MOL0     H50135   5.199   8.420   7.969 -0.4493 -1.0485  0.5815
  380MOL0     H50136   5.069   8.560   7.731 -1.5654 -3.5564 -1.8237
  380MOL0     H50137   5.050   8.609   7.895 -3.9541 -0.4081 -1.4728
  380MOL0     H50138   4.934   8.368   7.786  0.0809 -0.2953  0.5989
  380MOL0     H50139   4.947   8.396   7.955  0.0655 -0.8686 -0.8604
  380MOL0     H50140   4.826   8.605   7.769  0.7872 -1.8845 -0.1854
  380MOL0     H50141   4.838   8.609   7.950  2.3144  0.3719  0.3061
  380MOL0     H50142   5.530   7.915   7.479  0.5134 -0.5424  1.5888
  380MOL0     H50143   5.736   7.817   7.457  0.5981  0.3435  1.2093
  380MOL0     H50144   6.203   7.937   7.347 -1.0932 -0.9165 -0.4240
  380MOL0     H50145   6.451   7.928   7.330 -0.8078  3.1285 -1.0144
  380MOL0     H50146   7.447   8.126   6.196  1.6256 -0.0266  0.8850
  380MOL0     H50147   7.681   8.032   6.201 -0.1268  0.9737  2.0388
  380MOL0     H50148   7.969   7.541   6.388 -0.6986  2.0721  1.3863
  380MOL0     H50149   8.224   7.569   6.397  1.2061 -1.7618 -0.9763
  380MOL0     H50150   8.443   7.550   6.278  2.3628  1.8052 -3.5396
  380MOL0     H50151   8.430   7.633   6.430  1.4784 -1.0179  0.1786
  380MOL0     H50152   8.611   7.805   6.355  1.0539 -0.2708 -1.5738
  380MOL0     H50153   8.647   7.632   6.390  1.8656  0.6358  0.3362
  380MOL0     H50154   8.597   7.752   6.112  0.9436  1.7568  0.8665
  380MOL0     H50155   8.643   7.589   6.143  0.4660 -0.5479  1.8195
  380MOL0     H50156   8.862   7.699   6.261 -0.6885  0.9189  1.4452
  380MOL0     H50157   8.856   7.681   6.087 -0.5481 -1.0238  0.6027
  380MOL0     H50158   8.824   8.111   6.196 -0.7179  1.1785 -1.6343
  380MOL0     H50159   8.207   7.889   6.105 -0.0814  0.6558  1.4005
  380MOL0     H50160   7.965   7.846   6.093 -0.8170 -2.9156 -1.1514
  381MOL0     O50161   0.732   8.330   8.148  0.1516  0.0169 -0.7631
  381MOL0     C50162   0.703   8.432   8.206  0.1112 -0.8118 -0.0137
  381MOL0     O50163   0.617   8.445   8.306  0.7100 -0.1088 -0.5604
  381MOL0     C50164   0.522   8.355   8.356 -0.5918  0.4653  0.5754
  381MOL0     C50165   0.464   8.388   8.481  0.0584 -0.4779 -0.1045
  381MOL0     C50166   0.351   8.320   8.524 -0.1367  0.9630  0.3476
  381MOL0     C50167   0.284   8.222   8.440  0.1855 -1.2833  1.0747
  381MOL0     O50168   0.165   8.160   8.465 -0.0739 -0.8336  0.2469
  381MOL0     C50169   0.108   8.183   8.600  0.7271 -0.3584 -0.6293
  381MOL0     C50170  -0.041   8.125   8.621  0.0339  1.2705  0.0396
  381MOL0     C50171  -0.102   8.149   8.759 -0.4997 -0.2173 -0.1302
  381MOL0     C50172  -0.249   8.095   8.763 -0.5250 -0.6559 -0.7223
  381MOL0     C50173  -0.296   8.073   8.909  1.2144 -0.3407  0.1119
  381MOL0     C50174  -0.428   7.994   8.915 -0.5632  0.7470  0.6354
  381MOL0     C50175  -0.417   7.844   8.937  0.0694 -0.4859  0.0718
  381MOL0     C50176  -0.553   7.783   8.966 -0.8290 -0.4155  0.1833
  381MOL0     N50177  -0.619   7.759   8.836 -0.4106 -0.3440  0.3143
  381MOL0     C50178  -0.673   7.859   8.749  0.2394  0.4073  0.1645
  381MOL0     C50179  -0.671   7.805   8.627  0.8757  0.5251 -0.0198
  381MOL0     C50180  -0.694   7.878   8.499  0.1136 -0.7754  0.7265
  381MOL0     C50181  -0.577   7.975   8.485  0.2690 -0.1370  0.9367
  381MOL0     C50182  -0.599   8.091   8.383  0.2809  0.8213 -0.4681
  381MOL0     C50183  -0.624   8.047   8.238  0.2927 -0.1901  0.5431
  381MOL0     O50184  -0.763   8.020   8.229  0.3571  0.7903 -0.3654
  381MOL0     C50185  -0.812   7.995   8.104  0.7761  0.4000 -0.0014
  381MOL0     C50186  -0.738   7.985   7.990  0.6906  0.0730  0.2648
  381MOL0     C50187  -0.797   7.975   7.866 -0.0506 -0.4880  1.1695
  381MOL0     C50188  -0.941   7.959   7.854  0.4718  0.4847  0.0976
  381MOL0     C50189  -1.009   7.956   7.729 -0.1053  0.6002  0.5248
  381MOL0     O50190  -1.136   7.916   7.736 -0.4284  0.1609 -0.2578
  381MOL0     C50191  -1.222   7.918   7.633  0.0675 -0.0098  0.1449
  381MOL0     C50192  -1.318   7.813   7.625 -0.4322 -0.0240  0.7487
  381MOL0     C50193  -1.413   7.808   7.525  0.1005 -0.6821 -0.5658
  381MOL0     C50194  -1.411   7.904   7.424 -0.2753  0.2475  0.1109
  381MOL0     O50195  -1.487   7.904   7.313  0.1688 -0.1771 -0.0768
  381MOL0     C50196  -1.596   7.818   7.302  0.5778 -0.0493  0.4223
  381MOL0     C50197  -1.678   7.874   7.176 -0.1676 -0.4858 -0.4412
  381MOL0     C50198  -1.820   7.823   7.145 -0.6079 -0.7164  0.8669
  381MOL0     C50199  -1.890   7.748   7.259 -0.4406 -0.2827 -0.6129
  381MOL0     C50200  -2.029   7.705   7.210  0.3830  0.0180 -0.3683
  381MOL0     C50201  -2.030   7.570   7.135  0.2101 -0.1487 -0.3311
  381MOL0     C50202  -2.176   7.542   7.090  0.4631 -0.1287 -0.9465
  381MOL0     C50203  -2.244   7.638   6.988  0.3406  0.3683 -0.0350
  381MOL0    Cl50204  -2.400   7.581   6.920 -0.2715  0.0129 -0.2456
  381MOL0     C50205  -1.315   8.009   7.428  0.9243 -1.0716 -0.5661
  381MOL0     C50206  -1.224   8.018   7.537  1.2727  0.1263 -0.2764
  381MOL0     O50207  -0.950   7.985   7.626  0.1610 -0.2611  0.0521
  381MOL0     C50208  -1.017   7.972   7.968 -0.4326 -0.7946 -0.6415
  381MOL0     C50209  -0.949   7.987   8.098 -0.1401 -0.1600 -0.0162
  381MOL0     N50210  -0.643   7.673   8.639 -0.1224  0.3189 -0.2109
  381MOL0     N50211  -0.613   7.648   8.760  0.1856 -0.1569  0.2583
  381MOL0     C50212   0.348   8.188   8.321 -0.3466 -0.7303  0.3902
  381MOL0     C50213   0.465   8.249   8.274 -0.0960 -0.8371  0.4040
  381MOL0     C50214   0.794   8.549   8.190  0.6728  0.5959  0.4343
  381MOL0     C50215   0.900   8.558   8.101 -0.7311 -0.7285 -0.2815
  381MOL0     C50216   0.975   8.671   8.093 -0.4066 -0.0369  0.8903
  381MOL0     C50217   0.945   8.786   8.164 -0.2597  1.3074 -0.0545
  381MOL0     O50218   1.004   8.910   8.152  0.9738 -0.2082 -0.0562
  381MOL0     C50219   1.146   8.919   8.132 -0.7171  0.2823 -0.3703
  381MOL0     C50220   1.224   9.038   8.190  0.0482  0.2699 -0.0601
  381MOL0     C50221   1.191   9.053   8.334 -0.3531 -0.7232 -1.0160
  381MOL0     C50222   1.285   9.158   8.393  0.5130  0.2232 -0.1993
  381MOL0     C50223   1.219   9.236   8.494  0.0835  0.0479  0.8732
  381MOL0     C50224   1.173   9.296   8.591  1.3273  0.2573  0.5169
  381MOL0     C50225   0.841   8.789   8.244 -0.7201 -0.2200  0.5716
  381MOL0     C50226   0.773   8.669   8.261 -0.1004 -0.9152  0.4456
  381MOL0     H50227   0.504   8.470   8.540 -1.8260  2.0509 -2.1473
  381MOL0     H50228   0.311   8.328   8.625  0.6183 -3.1005  1.1710
  381MOL0     H50229   0.099   8.290   8.623 -0.6038 -0.8882  1.7832
  381MOL0     H50230   0.173   8.129   8.670  2.9902  0.2283 -2.1875
  381MOL0     H50231  -0.035   8.019   8.592  2.3728  0.9378  1.5151
  381MOL0     H50232  -0.109   8.163   8.544 -1.2239  2.8662  1.8386
  381MOL0     H50233  -0.093   8.253   8.794 -0.8316 -0.6746  1.3915
  381MOL0     H50234  -0.047   8.084   8.827  2.5401 -0.1000 -2.3048
  381MOL0     H50235  -0.314   8.169   8.715  2.2985  2.4050 -0.1932
  381MOL0     H50236  -0.252   8.001   8.707 -1.2568 -0.1751 -1.5217
  381MOL0     H50237  -0.302   8.164   8.969  1.7793 -1.4099  1.8449
  381MOL0     H50238  -0.220   8.008   8.952 -0.5878 -1.8860  1.1066
  381MOL0     H50239  -0.480   8.003   8.819  0.0041 -0.6456  0.1747
  381MOL0     H50240  -0.475   8.034   9.005 -0.4207 -0.5429  1.2899
  381MOL0     H50241  -0.373   7.794   8.850  4.0420 -0.8943  2.0811
  381MOL0     H50242  -0.347   7.832   9.020 -0.0377 -1.4593  0.0320
  381MOL0     H50243  -0.612   7.857   9.021  1.9530 -0.4494  3.5049
  381MOL0     H50244  -0.542   7.696   9.031  0.0803  2.3589  4.1204
  381MOL0     H50245  -0.696   7.961   8.780 -1.5503 -0.4879  2.0065
  381MOL0     H50246  -0.790   7.931   8.498 -0.8257 -2.4325 -0.0508
  381MOL0     H50247  -0.686   7.820   8.407 -0.6009  1.4991 -0.8626
  381MOL0     H50248  -0.495   7.911   8.454 -1.7986 -2.5255  0.0352
  381MOL0     H50249  -0.544   8.029   8.574  1.0647  0.7866  0.1064
  381MOL0     H50250  -0.684   8.150   8.420 -0.1902 -1.5023  2.5555
  381MOL0     H50251  -0.513   8.158   8.382 -0.5238  1.8940 -0.5716
  381MOL0     H50252  -0.558   7.966   8.206  0.8971  1.5660 -3.2708
  381MOL0     H50253  -0.604   8.136   8.178 -2.0596  3.0283  4.1026
  381MOL0     H50254  -0.630   7.995   7.997  0.6982 -0.2415  0.5827
  381MOL0     H50255  -0.729   7.988   7.783  2.4903  0.2952  3.2481
  381MOL0     H50256  -1.322   7.732   7.697 -1.5574  0.8107  1.6745
  381MOL0     H50257  -1.479   7.722   7.521  0.9808 -1.6696  2.7160
  381MOL0     H50258  -1.656   7.817   7.394  2.1270  0.7853  1.4961
  381MOL0     H50259  -1.562   7.717   7.278 -1.2429 -1.6042  3.6991
  381MOL0     H50260  -1.616   7.889   7.087  1.6452  0.5437  0.9084
  381MOL0     H50261  -1.700   7.976   7.207 -2.1419 -1.0689  0.2231
  381MOL0     H50262  -1.817   7.769   7.050 -1.3039  1.8953 -0.7695
  381MOL0     H50263  -1.885   7.908   7.124  2.0593  1.2747  0.0193
  381MOL0     H50264  -1.840   7.653   7.282 -1.2358 -0.4411  0.5448
  381MOL0     H50265  -1.897   7.810   7.349  0.3803  0.3641 -0.9765
  381MOL0     H50266  -2.077   7.790   7.161 -1.4675  0.2489  1.7159
  381MOL0     H50267  -2.090   7.697   7.300  0.8397 -0.0941 -0.0670
  381MOL0     H50268  -2.001   7.481   7.191 -2.2998 -1.1184 -0.4363
  381MOL0     H50269  -1.976   7.585   7.042 -0.6689  1.7306 -0.5946
  381MOL0     H50270  -2.170   7.439   7.054  1.9404  0.5656 -2.8458
  381MOL0     H50271  -2.246   7.547   7.174  3.5677  3.1065  1.7756
  381MOL0     H50272  -2.188   7.664   6.898  0.7369  3.5407  0.9816
  381MOL0     H50273  -2.272   7.730   7.040 -4.2479 -2.2354  2.8106
  381MOL0     H50274  -1.314   8.080   7.346 -0.4022 -1.5067 -0.9882
  381MOL0     H50275  -1.172   8.112   7.546 -2.9566  2.7104 -0.1023
  381MOL0     H50276  -1.122   7.997   7.962 -0.7156 -2.1630 -2.0716
  381MOL0     H50277  -0.992   8.024   8.190  0.4729 -0.2418  0.3104
  381MOL0     H50278   0.297   8.116   8.258  2.1903 -3.6697  1.4546
  381MOL0     H50279   0.507   8.222   8.177 -1.0882 -0.1115 -0.2523
  381MOL0     H50280   0.940   8.475   8.044  0.6394  1.3742 -2.5443
  381MOL0     H50281   1.057   8.684   8.023 -0.5011  1.8429  1.0620
  381MOL0     H50282   1.162   8.919   8.024 -0.1170 -2.4877 -0.3494
  381MOL0     H50283   1.187   8.828   8.175  0.1885  1.7879  2.1897
  381MOL0     H50284   1.332   9.031   8.174  0.4135 -0.5034  2.3124
  381MOL0     H50285   1.178   9.129   8.150 -3.2730 -1.5988 -0.8871
  381MOL0     H50286   1.176   8.963   8.395 -2.8009 -0.3297 -0.9448
  381MOL0     H50287   1.092   9.100   8.328 -0.0760 -0.0490 -0.4159
  381MOL0     H50288   1.378   9.122   8.438  0.3085  0.0302  0.0712
  381MOL0     H50289   1.316   9.232   8.319 -0.0335  0.2980 -0.3635
  381MOL0     H50290   1.126   9.347   8.673 -1.6797 -1.8098  0.2406
  381MOL0     H50291   0.820   8.877   8.304 -1.4205 -0.0577  0.0988
  381MOL0     H50292   0.700   8.667   8.341  0.6633 -2.1896  1.1598
  382MOL0     O50293   7.657   9.479  10.052 -0.4706  0.4091  0.2344
  382MOL0     C50294   7.746   9.467  10.132  0.0852  0.1608 -0.6676
  382MOL0     O50295   7.746   9.542  10.253 -0.1317  0.0782  0.3094
  382MOL0     C50296   7.638   9.616  10.295 -0.2719 -0.2844 -0.2735
  382MOL0     C50297   7.656   9.751  10.305 -0.0860 -1.3788 -0.9069
  382MOL0     C50298   7.544   9.837  10.319 -0.7640 -0.2651 -0.0844
  382MOL0     C50299   7.411   9.788  10.326  0.3035  0.1666 -0.2676
  382MOL0     O50300   7.314   9.881  10.349  0.4016 -0.2986  0.3288
  382MOL0     C50301   7.181   9.854  10.305  0.0522  0.1529 -0.6496
  382MOL0     C50302   7.090   9.976  10.280 -0.8820  0.2413 -0.1779
  382MOL0     C50303   6.957   9.926  10.236  0.2972  0.2572  0.2078
  382MOL0     C50304   6.902  10.001  10.116  0.0471 -1.1540 -0.3152
  382MOL0     C50305   6.760   9.959  10.078  0.9536  0.2169 -1.1297
  382MOL0     C50306   6.650  10.008  10.174  0.0944  0.3875 -0.3464
  382MOL0     C50307   6.510   9.970  10.123  0.8798  0.4031 -0.8384
  382MOL0     C50308   6.410  10.032  10.218  0.1281  0.3516  0.1350
  382MOL0     N50309   6.273  10.009  10.159  0.0898  0.2437 -0.1005
  382MOL0     C50310   6.207  10.111  10.095  0.4861  0.6514 -0.3704
  382MOL0     C50311   6.078  10.072  10.089 -0.0492 -0.3050  0.0954
  382MOL0     C50312   5.963  10.137  10.019 -0.2195  0.1109  0.0108
  382MOL0     C50313   5.984  10.170   9.865 -0.2987  0.2826 -0.6098
  382MOL0     C50314   5.981  10.057   9.753 -0.6624 -1.1338 -0.2776
  382MOL0     C50315   6.088   9.949   9.762 -0.8770  0.8768  0.5294
  382MOL0     O50316   6.210  10.005   9.715 -0.5544  0.5210 -0.1197
  382MOL0     C50317   6.334   9.946   9.741  0.8187 -0.3160  0.2036
  382MOL0     C50318   6.353   9.813   9.786 -0.1356  0.8057  0.1846
  382MOL0     C50319   6.484   9.762   9.787  0.0141 -0.2885  0.2724
  382MOL0     C50320   6.596   9.844   9.750  0.0108 -0.4966  0.9746
  382MOL0     C50321   6.738   9.803   9.758  0.0230  0.3268 -0.2525
  382MOL0     O50322   6.768   9.681   9.820  0.5708 -0.4685  0.1293
  382MOL0     C50323   6.894   9.666   9.861  0.6871  0.4791  0.5978
  382MOL0     C50324   7.006   9.674   9.774  0.0311 -0.1834 -1.3305
  382MOL0     C50325   7.143   9.664   9.826  0.1097  0.6730 -0.0688
  382MOL0     C50326   7.161   9.626   9.963  0.0789 -0.4916 -0.6878
  382MOL0     O50327   7.288   9.603  10.011 -0.1412 -0.4235 -0.6033
  382MOL0     C50328   7.333   9.464  10.005  0.1845 -0.7685 -0.4627
  382MOL0     C50329   7.397   9.423   9.866  0.3115  0.8636  0.5362
  382MOL0     C50330   7.426   9.279   9.852 -0.4504  0.1643  0.9738
  382MOL0     C50331   7.522   9.263   9.735 -0.2081  0.5258  0.3129
  382MOL0     C50332   7.571   9.128   9.680 -1.3407 -0.5445 -0.0861
  382MOL0     C50333   7.464   9.043   9.613 -0.6157  0.1947  0.6135
  382MOL0     C50334   7.534   8.928   9.544 -0.4640  0.1842 -0.4368
  382MOL0     C50335   7.438   8.850   9.457  0.2974 -0.7202  0.6540
  382MOL0    Cl50336   7.311   8.751   9.545  0.0525  0.2990 -0.5119
  382MOL0     C50337   7.050   9.609  10.046 -0.2836  0.1577 -0.2282
  382MOL0     C50338   6.915   9.624   9.996 -0.3307 -0.1269  0.4698
  382MOL0     O50339   6.819   9.883   9.713 -0.0241  0.4151  0.1508
  382MOL0     C50340   6.570   9.984   9.714 -0.5829 -0.0106  0.8564
  382MOL0     C50341   6.438  10.034   9.710 -0.1287 -0.6515  0.7350
  382MOL0     N50342   6.082   9.944  10.134  1.2833  0.4483  0.3854
  382MOL0     N50343   6.189   9.899  10.178 -0.1908 -0.4033  0.4019
  382MOL0     C50344   7.395   9.654  10.317 -0.1292  0.1884 -0.1947
  382MOL0     C50345   7.510   9.571  10.315 -0.2460 -0.1490  0.3347
  382MOL0     C50346   7.850   9.366  10.115  0.7732  0.4041  0.4562
  382MOL0     C50347   7.845   9.258  10.017  0.6514 -0.6353  0.0109
  382MOL0     C50348   7.943   9.154  10.008 -0.0098  0.7832  0.2346
  382MOL0     C50349   8.050   9.171  10.093 -0.0895 -0.2467  0.5171
  382MOL0     O50350   8.133   9.065  10.064  0.0913 -0.1384  0.0131
  382MOL0     C50351   8.269   9.079  10.117 -0.0755 -0.5520  1.1797
  382MOL0     C50352   8.344   8.950  10.084 -0.0868 -0.0050 -0.2772
  382MOL0     C50353   8.372   8.926   9.938  0.1309 -0.6074  0.5586
  382MOL0     C50354   8.451   8.802   9.901  0.6833 -1.2468  0.0250
  382MOL0     C50355   8.526   8.842   9.788 -0.4529 -0.5150  0.2557
  382MOL0     C50356   8.575   8.887   9.688 -1.3527  0.3781 -0.1130
  382MOL0     C50357   8.064   9.283  10.169 -0.9205  0.2922 -0.2419
  382MOL0     C50358   7.966   9.378  10.178 -0.4315  0.3791  0.0251
  382MOL0     H50359   7.756   9.791  10.299 -0.8867  2.7403  4.6150
  382MOL0     H50360   7.567   9.938  10.350  3.4751 -1.0270 -0.2669
  382MOL0     H50361   7.134   9.803  10.390 -0.6331  1.6642 -0.0828
  382MOL0     H50362   7.187   9.784  10.222  1.2932 -0.1203 -0.3381
  382MOL0     H50363   7.140  10.050  10.215  0.0634  0.1877  0.4756
  382MOL0     H50364   7.082  10.020  10.380 -3.4207  0.7692 -0.5372
  382MOL0     H50365   6.893   9.928  10.325  2.3036 -0.3998  1.7595
  382MOL0     H50366   6.960   9.825  10.195  1.5337  1.1361 -2.0276
  382MOL0     H50367   6.893  10.105  10.148  0.2010 -1.2537  0.0636
  382MOL0     H50368   6.974   9.991  10.034  1.6756  2.1684  0.5695
  382MOL0     H50369   6.749   9.850  10.082  1.1205  0.1191  4.3408
  382MOL0     H50370   6.727  10.010   9.987  0.2102  1.0080 -0.4390
  382MOL0     H50371   6.667  10.116  10.165  1.3145  0.1591 -1.1424
  382MOL0     H50372   6.673   9.977  10.276 -2.1253  0.9097  0.3503
  382MOL0     H50373   6.495  10.010  10.022 -2.3267 -0.2772 -0.7385
  382MOL0     H50374   6.485   9.863  10.122  0.4821  0.2672  3.5106
  382MOL0     H50375   6.422  10.141  10.225 -1.3836  0.4869  0.9488
  382MOL0     H50376   6.426   9.997  10.320  3.3605  0.3138 -0.2931
  382MOL0     H50377   6.255  10.200  10.055 -0.8964  1.7589  0.3441
  382MOL0     H50378   5.933  10.224  10.078  1.5579  1.6098 -1.2118
  382MOL0     H50379   5.890  10.055  10.021 -1.3427  1.0557  2.2053
  382MOL0     H50380   6.072  10.233   9.847  0.1728 -0.2096 -0.0781
  382MOL0     H50381   5.904  10.239   9.838 -1.7615 -2.3367 -3.6066
  382MOL0     H50382   5.885  10.009   9.770 -0.5333 -1.9524 -1.6795
  382MOL0     H50383   5.979  10.104   9.654 -0.6993 -0.3794  0.0734
  382MOL0     H50384   6.055   9.873   9.690 -0.6837  1.1494  0.1474
  382MOL0     H50385   6.100   9.909   9.863  3.2605  0.6843  0.1135
  382MOL0     H50386   6.268   9.756   9.823 -0.3445 -0.4036 -2.0257
  382MOL0     H50387   6.499   9.660   9.821 -1.3029 -0.5237  0.2129
  382MOL0     H50388   6.991   9.711   9.673  1.5786 -0.3615 -1.6453
  382MOL0     H50389   7.226   9.691   9.761  0.2416  1.0679  0.2540
  382MOL0     H50390   7.257   9.393  10.038 -0.7350  0.4579  0.1558
  382MOL0     H50391   7.411   9.462  10.082 -1.4634  0.2053  1.3060
  382MOL0     H50392   7.489   9.478   9.845 -0.4174  1.3488 -1.5669
  382MOL0     H50393   7.318   9.433   9.791 -0.7537 -0.5919  1.4121
  382MOL0     H50394   7.333   9.222   9.838 -0.7433  1.1757 -1.8151
  382MOL0     H50395   7.475   9.242   9.943  1.7960  0.7912  0.0699
  382MOL0     H50396   7.488   9.324   9.651  1.5274  1.6825  0.4044
  382MOL0     H50397   7.615   9.305   9.774  2.5889 -2.3023 -2.6862
  382MOL0     H50398   7.621   9.070   9.758 -3.0221 -0.1168  1.3994
  382MOL0     H50399   7.644   9.151   9.603 -3.2356  0.0602 -1.7680
  382MOL0     H50400   7.417   9.117   9.547 -2.0264  0.5780  1.9805
  382MOL0     H50401   7.390   9.007   9.685  3.7887 -5.5417  3.1721
  382MOL0     H50402   7.615   8.973   9.486  0.1973  3.3420  2.5898
  382MOL0     H50403   7.582   8.859   9.614  0.0871 -3.6965 -4.2460
  382MOL0     H50404   7.490   8.798   9.377  0.3109  1.6418 -0.9667
  382MOL0     H50405   7.376   8.925   9.408 -4.1319 -3.0071  2.1772
  382MOL0     H50406   7.060   9.591  10.153 -0.8102  1.0351 -0.0263
  382MOL0     H50407   6.828   9.616  10.060 -3.2298  0.6222 -3.0604
  382MOL0     H50408   6.648  10.050   9.680  0.0387 -1.5159 -0.8099
  382MOL0     H50409   6.417  10.139   9.689 -0.8679 -0.8881  0.2750
  382MOL0     H50410   7.295   9.615  10.337 -0.1845  1.2095  1.7380
  382MOL0     H50411   7.492   9.464  10.312  2.0243 -0.6203  1.2631
  382MOL0     H50412   7.761   9.239   9.951  0.8181 -0.7353 -0.1751
  382MOL0     H50413   7.934   9.072   9.937  0.8680  0.1451  0.8402
  382MOL0     H50414   8.253   9.100  10.223 -1.4769  2.3789  0.5009
  382MOL0     H50415   8.318   9.166  10.072 -2.7351  1.0210  1.0936
  382MOL0     H50416   8.445   8.944  10.127  0.6052 -0.9628 -1.9601
  382MOL0     H50417   8.289   8.868  10.132  0.3574 -1.8726 -2.7550
  382MOL0     H50418   8.402   9.019   9.888 -1.2704 -0.8661 -0.8393
  382MOL0     H50419   8.270   8.905   9.905 -0.3300  1.4578  0.5019
  382MOL0     H50420   8.522   8.785   9.983  2.8473  0.2879 -1.4178
  382MOL0     H50421   8.384   8.717   9.885 -0.2693 -0.3515 -0.8635
  382MOL0     H50422   8.627   8.940   9.611 -1.0340  0.3712  0.0962
  382MOL0     H50423   8.157   9.298  10.223 -0.6429 -0.0408 -0.6150
  382MOL0     H50424   7.984   9.466  10.240 -0.2136  0.0158  0.4818
  383MOL0     O50425   2.899   4.178   0.167  0.7310 -0.1254 -0.4860
  383MOL0     C50426   2.960   4.206   0.067  0.1077 -0.8196 -0.0941
  383MOL0     O50427   2.915   4.183  -0.059  0.3997 -0.0527 -0.0453
  383MOL0     C50428   2.800   4.109  -0.090 -0.2408 -0.0943  0.5540
  383MOL0     C50429   2.695   4.078  -0.005  0.0133  0.7208 -0.3442
  383MOL0     C50430   2.604   3.982  -0.044 -0.8131 -0.1620 -0.9666
  383MOL0     C50431   2.618   3.913  -0.176 -0.1053 -0.5443 -0.5228
  383MOL0     O50432   2.544   3.806  -0.215  0.0109 -0.0150 -0.8143
  383MOL0     C50433   2.479   3.734  -0.115  0.2731  0.3583  0.0345
  383MOL0     C50434   2.398   3.618  -0.175 -0.1691 -0.5303  0.6617
  383MOL0     C50435   2.289   3.665  -0.283  0.0651  0.2415 -0.1560
  383MOL0     C50436   2.209   3.550  -0.338 -0.1002  0.2141 -0.7014
  383MOL0     C50437   2.302   3.451  -0.403  0.1121 -0.7966 -0.0445
  383MOL0     C50438   2.384   3.505  -0.525 -0.6850 -1.0975 -0.3424
  383MOL0     C50439   2.297   3.565  -0.637 -0.0164  0.1701 -0.4055
  383MOL0     C50440   2.377   3.623  -0.754 -0.0501  1.1404 -0.3032
  383MOL0     N50441   2.395   3.768  -0.730  0.7567 -0.1243  0.2869
  383MOL0     C50442   2.503   3.825  -0.681 -0.2336 -0.3375 -0.4606
  383MOL0     C50443   2.487   3.959  -0.691 -0.0443  0.6924 -0.2427
  383MOL0     C50444   2.577   4.061  -0.628 -0.4528  0.1213 -0.5653
  383MOL0     C50445   2.715   4.089  -0.707  0.2845 -0.0904 -0.1556
  383MOL0     C50446   2.833   4.054  -0.619  0.2696  0.1421  0.5913
  383MOL0     C50447   2.955   4.100  -0.688 -0.0670 -0.4960 -0.3807
  383MOL0     O50448   3.047   4.139  -0.583 -0.2145 -0.2837  0.5256
  383MOL0     C50449   3.181   4.117  -0.618 -0.6259 -0.5691  0.1816
  383MOL0     C50450   3.273   4.089  -0.518  0.4586  0.2561  0.3139
  383MOL0     C50451   3.411   4.077  -0.545 -0.3450  0.7140  0.4313
  383MOL0     C50452   3.460   4.100  -0.670  0.1845 -0.2206  0.5699
  383MOL0     C50453   3.602   4.095  -0.702  0.4484  0.2820 -0.5577
  383MOL0     O50454   3.686   4.111  -0.594  0.3045 -0.1223  0.9167
  383MOL0     C50455   3.814   4.073  -0.604 -0.6556  0.2380  0.8320
  383MOL0     C50456   3.855   3.958  -0.530 -0.2272  0.0420  0.2558
  383MOL0     C50457   3.983   3.921  -0.542 -0.9043 -0.2848 -0.0557
  383MOL0     C50458   4.075   3.986  -0.624  0.0504 -1.0215  0.9232
  383MOL0     O50459   4.215   3.961  -0.634 -0.2825  0.1733 -0.8361
  383MOL0     C50460   4.276   3.893  -0.526 -0.1479  0.9456 -0.0693
  383MOL0     C50461   4.416   3.861  -0.580  0.2408 -1.2092  0.3751
  383MOL0     C50462   4.484   3.747  -0.509  0.5606  0.0139 -0.4569
  383MOL0     C50463   4.633   3.746  -0.537 -0.7395  0.1447 -0.5687
  383MOL0     C50464   4.707   3.631  -0.476  0.2321  0.7095  0.0572
  383MOL0     C50465   4.833   3.698  -0.402  0.5915  1.2434 -0.3004
  383MOL0     C50466   4.909   3.590  -0.324  0.1433 -0.4108 -0.1654
  383MOL0     C50467   5.053   3.624  -0.300 -0.3582 -0.0948  0.1801
  383MOL0    Cl50468   5.083   3.770  -0.183 -0.0847  0.3873 -0.1370
  383MOL0     C50469   4.032   4.095  -0.700 -0.3188  0.0683 -0.5874
  383MOL0     C50470   3.904   4.145  -0.678 -0.0864  1.2588  0.4407
  383MOL0     O50471   3.636   4.057  -0.810  0.3463 -0.3863 -0.0404
  383MOL0     C50472   3.371   4.146  -0.767 -0.4301 -0.3138 -0.9093
  383MOL0     C50473   3.234   4.156  -0.743 -0.2948  0.6940  0.1249
  383MOL0     N50474   2.358   3.986  -0.751  0.1696  0.5211  0.5273
  383MOL0     N50475   2.308   3.871  -0.765  0.1094  0.6508 -0.7223
  383MOL0     C50476   2.714   3.961  -0.259  0.1618 -0.2864 -0.5022
  383MOL0     C50477   2.804   4.063  -0.221 -0.4048 -0.5286  1.4863
  383MOL0     C50478   3.084   4.277   0.083  0.8533 -0.1363  0.6790
  383MOL0     C50479   3.120   4.373  -0.007 -0.1830  0.0247 -0.7539
  383MOL0     C50480   3.244   4.440   0.012 -0.6722 -0.3189  1.4479
  383MOL0     C50481   3.320   4.423   0.130 -0.0615  0.9283 -0.1166
  383MOL0     O50482   3.438   4.479   0.174 -0.2836 -0.3556 -0.1743
  383MOL0     C50483   3.549   4.502   0.092 -0.4242 -0.4462  0.6439
  383MOL0     C50484   3.622   4.377   0.046  0.5301 -0.2722  0.4172
  383MOL0     C50485   3.687   4.294   0.160 -0.2626 -0.5937 -0.2421
  383MOL0     C50486   3.816   4.358   0.221 -0.7509 -0.3161  0.0734
  383MOL0     C50487   3.933   4.285   0.174  0.1947 -0.3579  0.3881
  383MOL0     C50488   4.033   4.241   0.131 -0.5584  1.0410  0.3978
  383MOL0     C50489   3.273   4.327   0.225 -0.5488  0.0273 -0.3393
  383MOL0     C50490   3.159   4.254   0.198  0.4674 -0.0005  0.5435
  383MOL0     H50491   2.676   4.115   0.096 -3.1057 -1.8205  0.1480
  383MOL0     H50492   2.538   3.954   0.037  3.5060 -0.8167  2.7384
  383MOL0     H50493   2.408   3.797  -0.062 -1.1645  1.4760 -2.9978
  383MOL0     H50494   2.546   3.686  -0.043  2.1672  0.9450 -1.2514
  383MOL0     H50495   2.362   3.541  -0.106  1.1053  0.5118  2.5779
  383MOL0     H50496   2.471   3.563  -0.234 -0.9689  0.5142 -1.3882
  383MOL0     H50497   2.331   3.723  -0.366 -0.1100 -0.4343 -0.7318
  383MOL0     H50498   2.217   3.731  -0.235 -0.0441  0.1483 -0.1912
  383MOL0     H50499   2.150   3.508  -0.256  0.9015  1.5894  0.7993
  383MOL0     H50500   2.136   3.595  -0.407  0.2222 -1.0825 -1.9297
  383MOL0     H50501   2.235   3.373  -0.441 -1.2048  0.9075 -1.4380
  383MOL0     H50502   2.377   3.410  -0.335 -1.2539 -1.2179  1.2524
  383MOL0     H50503   2.429   3.416  -0.569 -0.5567 -1.4714  0.5253
  383MOL0     H50504   2.469   3.566  -0.492 -0.8379 -0.8383 -0.4229
  383MOL0     H50505   2.230   3.483  -0.664  2.7707 -2.4858  0.1740
  383MOL0     H50506   2.227   3.642  -0.604  1.2056  0.7266  1.0388
  383MOL0     H50507   2.309   3.615  -0.840 -1.4090  0.8055  0.7718
  383MOL0     H50508   2.457   3.554  -0.780 -2.8422 -2.0550 -1.1511
  383MOL0     H50509   2.583   3.767  -0.634  1.3487  1.5864 -0.6669
  383MOL0     H50510   2.600   4.032  -0.525 -3.2009 -1.9230 -0.4043
  383MOL0     H50511   2.521   4.155  -0.631  0.7077  0.8586  0.1468
  383MOL0     H50512   2.725   4.195  -0.729  3.5818 -0.0461  1.1109
  383MOL0     H50513   2.717   4.038  -0.804 -1.6504  0.2363 -0.4063
  383MOL0     H50514   2.812   4.108  -0.526 -1.6531  0.4700 -0.0079
  383MOL0     H50515   2.834   3.948  -0.594  0.8907 -0.6256 -2.3235
  383MOL0     H50516   2.944   4.182  -0.758  1.5376 -0.4298 -0.5823
  383MOL0     H50517   2.999   4.016  -0.744 -0.1535  0.6358 -2.2192
  383MOL0     H50518   3.238   4.071  -0.417 -0.2528  3.1681  0.6617
  383MOL0     H50519   3.484   4.051  -0.469 -2.0794  0.6559  2.1481
  383MOL0     H50520   3.792   3.904  -0.459 -1.1583  1.5211  0.6001
  383MOL0     H50521   4.017   3.842  -0.476  0.2171 -0.4089 -0.7643
  383MOL0     H50522   4.230   3.805  -0.479 -1.9220  2.3508  0.9343
  383MOL0     H50523   4.285   3.963  -0.442 -2.1382  2.0492 -0.7149
  383MOL0     H50524   4.471   3.955  -0.576  0.9399 -1.4980 -1.3221
  383MOL0     H50525   4.408   3.830  -0.685 -1.5722 -2.2077  0.7645
  383MOL0     H50526   4.436   3.651  -0.534 -1.6164  1.2058 -1.1062
  383MOL0     H50527   4.475   3.765  -0.402 -0.4665 -2.0698 -0.1263
  383MOL0     H50528   4.653   3.752  -0.644  1.9325  3.0601 -0.0779
  383MOL0     H50529   4.667   3.845  -0.502 -2.1940  0.2059  0.7811
  383MOL0     H50530   4.732   3.551  -0.546  0.9419  0.7455  0.2592
  383MOL0     H50531   4.637   3.584  -0.406  0.5812  1.5046  0.9629
  383MOL0     H50532   4.782   3.766  -0.334 -0.8110  0.0215 -0.0609
  383MOL0     H50533   4.902   3.756  -0.464  2.3292  2.2486  2.3651
  383MOL0     H50534   4.861   3.580  -0.226 -3.7465 -0.2090 -1.8696
  383MOL0     H50535   4.911   3.494  -0.377  1.5181 -0.7247  0.4260
  383MOL0     H50536   5.109   3.643  -0.392 -0.5810 -0.1190  0.0392
  383MOL0     H50537   5.106   3.538  -0.259  0.3130  1.2712  2.3563
  383MOL0     H50538   4.096   4.142  -0.774 -0.7390  0.1130 -0.9241
  383MOL0     H50539   3.882   4.240  -0.726 -1.4084  0.8009  0.0982
  383MOL0     H50540   3.407   4.193  -0.858 -0.2931 -2.4356 -2.0090
  383MOL0     H50541   3.167   4.212  -0.808 -0.5218  0.3497  0.0564
  383MOL0     H50542   2.718   3.906  -0.353  1.1481  0.8567 -1.1590
  383MOL0     H50543   2.885   4.091  -0.287 -1.2945  1.6358  1.2232
  383MOL0     H50544   3.046   4.396  -0.083 -3.0067  0.1826  1.8424
  383MOL0     H50545   3.278   4.511  -0.063 -1.2804  0.8347  2.2247
  383MOL0     H50546   3.612   4.571   0.149 -2.2410 -1.2944  3.9259
  383MOL0     H50547   3.518   4.552  -0.000  3.2713  1.0654  0.0663
  383MOL0     H50548   3.545   4.322  -0.009  2.5174 -1.4130 -1.3968
  383MOL0     H50549   3.697   4.409  -0.027  0.0054 -0.9047 -0.4069
  383MOL0     H50550   3.700   4.192   0.122  0.7397 -0.4103 -0.4159
  383MOL0     H50551   3.616   4.285   0.243  1.5725 -0.8407  1.3579
  383MOL0     H50552   3.836   4.464   0.203  0.3668  0.1508  3.4466
  383MOL0     H50553   3.798   4.338   0.327 -3.2381  1.7921  0.1552
  383MOL0     H50554   4.134   4.217   0.101 -1.6103  1.8541 -4.7489
  383MOL0     H50555   3.318   4.327   0.324 -0.1894  2.7886 -0.4233
  383MOL0     H50556   3.134   4.185   0.278  0.5378 -0.1925  0.4029
  384MOL0     O50557   4.322   7.931   0.551  0.1737 -0.2697 -0.3117
  384MOL0     C50558   4.391   7.950   0.649 -0.0812  0.2933 -0.4590
  384MOL0     O50559   4.349   7.996   0.775 -0.3879 -0.1712  0.4104
  384MOL0     C50560   4.213   7.997   0.791  0.6476 -1.3144  0.3673
  384MOL0     C50561   4.124   8.105   0.768 -0.0047 -0.2096  0.4579
  384MOL0     C50562   3.986   8.090   0.779  0.0855 -0.3634 -0.5802
  384MOL0     C50563   3.925   7.970   0.813  0.2240  0.0587  0.4576
  384MOL0     O50564   3.788   7.962   0.836 -0.4239 -0.3358 -0.2487
  384MOL0     C50565   3.700   8.039   0.754 -0.3794 -0.3472  0.1219
  384MOL0     C50566   3.566   7.981   0.786 -0.1139  0.2518 -0.0958
  384MOL0     C50567   3.452   8.044   0.702  0.0294  0.0718 -0.5820
  384MOL0     C50568   3.322   7.976   0.733  0.1783 -0.1940 -0.4066
  384MOL0     C50569   3.226   8.056   0.649 -0.6520  0.6417  0.5127
  384MOL0     C50570   3.086   7.997   0.691 -0.2628  0.5442  0.4198
  384MOL0     C50571   2.979   8.090   0.643  0.4996 -1.0558 -0.1370
  384MOL0     C50572   2.946   8.089   0.492 -0.2427 -0.1620 -0.2778
  384MOL0     N50573   2.869   8.207   0.470 -0.0578 -0.8243 -0.4223
  384MOL0     C50574   2.733   8.215   0.479 -0.0254 -0.1712  0.4705
  384MOL0     C50575   2.695   8.336   0.437  0.7981  0.2752 -0.3867
  384MOL0     C50576   2.556   8.377   0.417  0.1165 -0.6303  0.1780
  384MOL0     C50577   2.535   8.496   0.318 -0.1142 -0.9044 -0.7150
  384MOL0     C50578   2.605   8.487   0.184  0.2762  0.6353  0.6055
  384MOL0     C50579   2.552   8.389   0.080  0.5896 -0.4474 -0.4516
  384MOL0     O50580   2.418   8.387   0.047 -0.5029  0.1656  0.8265
  384MOL0     C50581   2.368   8.483  -0.036  0.2606  0.5485 -0.2016
  384MOL0     C50582   2.435   8.609  -0.068  0.5536 -0.1930  0.4136
  384MOL0     C50583   2.374   8.716  -0.140  0.9118 -1.0226  0.1848
  384MOL0     C50584   2.246   8.702  -0.186 -0.6035 -0.2116 -0.7983
  384MOL0     C50585   2.178   8.806  -0.261 -0.0871 -1.3121 -0.2732
  384MOL0     O50586   2.059   8.767  -0.325 -0.9744  0.0558  0.0666
  384MOL0     C50587   1.983   8.860  -0.392  0.2460  0.1820 -0.4015
  384MOL0     C50588   1.920   8.961  -0.322 -0.3848 -0.1200 -0.9253
  384MOL0     C50589   1.826   9.045  -0.384 -0.3009 -0.0482  0.1556
  384MOL0     C50590   1.790   9.022  -0.523 -0.1177 -0.3877 -0.5179
  384MOL0     O50591   1.689   9.085  -0.584  0.1623  0.5017  0.3598
  384MOL0     C50592   1.630   9.200  -0.518 -0.4936  0.3746  0.1543
  384MOL0     C50593   1.521   9.260  -0.612 -0.6582 -0.1824  0.3705
  384MOL0     C50594   1.440   9.359  -0.543 -0.3004 -0.3838  0.1680
  384MOL0     C50595   1.307   9.390  -0.621  0.3098  0.3562  0.7910
  384MOL0     C50596   1.341   9.497  -0.731  0.5019 -0.6875  0.2813
  384MOL0     C50597   1.209   9.562  -0.781 -0.5073  0.8264 -0.4030
  384MOL0     C50598   1.219   9.642  -0.916 -0.7854 -1.1818 -0.5270
  384MOL0     C50599   1.304   9.761  -0.898 -0.6529  0.0335  0.5491
  384MOL0    Cl50600   1.314   9.835  -1.068 -0.2314 -0.3531 -0.1933
  384MOL0     C50601   1.850   8.922  -0.589 -0.1279  0.1534  0.1030
  384MOL0     C50602   1.953   8.847  -0.523 -0.1181  0.4376 -0.0214
  384MOL0     O50603   2.227   8.920  -0.259  0.9737 -0.1958  0.1169
  384MOL0     C50604   2.178   8.573  -0.161  0.3125 -0.4648 -0.0840
  384MOL0     C50605   2.237   8.470  -0.087  0.4125 -0.4576  0.3558
  384MOL0     N50606   2.805   8.410   0.389 -0.0110 -0.3078 -0.0258
  384MOL0     N50607   2.911   8.324   0.414  0.3562  0.1645  0.0410
  384MOL0     C50608   4.010   7.856   0.824  0.2824  0.0576  0.2580
  384MOL0     C50609   4.147   7.873   0.825 -0.5214 -0.3880  0.4237
  384MOL0     C50610   4.534   7.926   0.625 -0.9226 -0.0384 -0.3417
  384MOL0     C50611   4.591   7.864   0.511 -0.9489 -1.2947  0.4779
  384MOL0     C50612   4.736   7.836   0.499 -0.3531  0.0580  1.0157
  384MOL0     C50613   4.829   7.871   0.608 -0.2824 -0.5401 -0.0210
  384MOL0     O50614   4.966   7.882   0.600 -0.4468 -0.0906  0.0468
  384MOL0     C50615   5.042   7.880   0.477 -0.5212  0.2620  0.6916
  384MOL0     C50616   5.073   8.018   0.421 -0.3622 -0.0926  0.8496
  384MOL0     C50617   5.195   8.018   0.327 -0.9810  0.6578  0.7299
  384MOL0     C50618   5.219   8.145   0.254 -0.8399  0.9206  0.4440
  384MOL0     C50619   5.103   8.204   0.173 -0.4279 -0.4154  0.2070
  384MOL0     C50620   5.014   8.268   0.120  0.0675 -0.4664 -1.3079
  384MOL0     C50621   4.764   7.918   0.724 -1.3074 -0.2613  0.0218
  384MOL0     C50622   4.631   7.944   0.735  0.4546 -0.3287 -0.0796
  384MOL0     H50623   4.172   8.198   0.736 -1.3531  1.2287  2.3919
  384MOL0     H50624   3.935   8.186   0.777  1.7687  0.5763 -0.1778
  384MOL0     H50625   3.740   8.016   0.654  2.6297 -0.8372  1.3333
  384MOL0     H50626   3.713   8.144   0.782 -0.5900  0.1354 -1.4632
  384MOL0     H50627   3.548   8.006   0.891  0.2595  0.0458  0.0206
  384MOL0     H50628   3.577   7.872   0.781  2.0213  0.0002  4.7219
  384MOL0     H50629   3.483   8.042   0.597  3.7874 -0.6557  0.3826
  384MOL0     H50630   3.441   8.145   0.743 -1.4108  0.1438 -1.1127
  384MOL0     H50631   3.322   7.869   0.709  1.4209  0.5110 -4.1886
  384MOL0     H50632   3.298   7.992   0.839  1.2486  2.5605 -0.4997
  384MOL0     H50633   3.240   8.045   0.541  2.6980  2.4301  0.6262
  384MOL0     H50634   3.243   8.164   0.659  0.6029  0.9481 -3.3797
  384MOL0     H50635   3.069   7.993   0.799 -3.0718 -0.8111  0.0199
  384MOL0     H50636   3.078   7.899   0.644  0.3295  0.9244 -0.5065
  384MOL0     H50637   2.883   8.083   0.697  0.4118 -1.2299 -0.3126
  384MOL0     H50638   3.011   8.187   0.680  3.9129 -1.8798 -0.6464
  384MOL0     H50639   2.898   7.993   0.469  2.1167 -1.2288 -1.1150
  384MOL0     H50640   3.038   8.098   0.434 -0.2535 -3.8156 -1.1022
  384MOL0     H50641   2.674   8.131   0.515 -1.4906  1.2431  1.5348
  384MOL0     H50642   2.503   8.404   0.510 -0.6938  4.1441 -1.3833
  384MOL0     H50643   2.498   8.293   0.378 -1.7884  0.4043  0.6541
  384MOL0     H50644   2.574   8.588   0.362 -1.8016  0.6653 -2.2695
  384MOL0     H50645   2.429   8.522   0.303 -0.5254 -3.3035 -2.7307
  384MOL0     H50646   2.610   8.587   0.142  2.3673 -0.4941 -2.1692
  384MOL0     H50647   2.708   8.451   0.191  0.1462  0.3282  0.9945
  384MOL0     H50648   2.588   8.289   0.106  2.5115 -0.0879 -1.4851
  384MOL0     H50649   2.609   8.398  -0.013  3.2075 -2.0536  0.8638
  384MOL0     H50650   2.535   8.627  -0.029  0.3285  1.4934  0.2903
  384MOL0     H50651   2.446   8.794  -0.165 -2.0898  1.5387 -1.1793
  384MOL0     H50652   1.935   8.965  -0.214 -3.1691 -3.9079 -0.1832
  384MOL0     H50653   1.791   9.127  -0.322 -3.6057 -1.3841  0.2478
  384MOL0     H50654   1.708   9.276  -0.505 -0.7058  0.1253  3.5282
  384MOL0     H50655   1.595   9.165  -0.421  0.4594 -1.9499 -0.2713
  384MOL0     H50656   1.463   9.173  -0.645  0.6153 -0.7785 -0.3625
  384MOL0     H50657   1.562   9.302  -0.704 -0.6755  0.5621  0.7001
  384MOL0     H50658   1.493   9.454  -0.531  2.9183 -2.1910  1.4642
  384MOL0     H50659   1.418   9.323  -0.443 -1.1180  1.2548  0.6127
  384MOL0     H50660   1.269   9.295  -0.661  1.4316 -0.1403  0.8495
  384MOL0     H50661   1.234   9.423  -0.547  0.0736  1.3494  0.1385
  384MOL0     H50662   1.395   9.443  -0.810  0.7417  0.4939 -0.3835
  384MOL0     H50663   1.414   9.564  -0.685 -0.2463  0.1958  0.1987
  384MOL0     H50664   1.170   9.626  -0.702  0.2666 -0.4126  1.0591
  384MOL0     H50665   1.143   9.476  -0.792  1.9417 -1.0093 -1.9706
  384MOL0     H50666   1.262   9.579  -0.994  0.6936 -0.7622 -0.0775
  384MOL0     H50667   1.119   9.673  -0.949 -0.4777  3.7048  2.0762
  384MOL0     H50668   1.401   9.721  -0.868 -0.8601 -2.0889 -1.4085
  384MOL0     H50669   1.279   9.831  -0.817  1.2068  1.5111 -0.0961
  384MOL0     H50670   1.827   8.908  -0.694 -0.4726 -0.3813  0.2439
  384MOL0     H50671   1.993   8.770  -0.588 -0.1163  0.5822 -0.1898
  384MOL0     H50672   2.078   8.558  -0.200  0.5559 -0.8087 -0.5892
  384MOL0     H50673   2.185   8.377  -0.066  2.7129 -2.3248 -1.6157
  384MOL0     H50674   3.966   7.758   0.832  1.7307 -0.7602 -1.2103
  384MOL0     H50675   4.208   7.784   0.826  0.2511  0.1360  1.7144
  384MOL0     H50676   4.529   7.841   0.424 -3.3339 -1.0968  2.0394
  384MOL0     H50677   4.772   7.806   0.401 -0.9376  2.9637 -0.1834
  384MOL0     H50678   4.980   7.822   0.408 -0.7447  0.0636  1.0532
  384MOL0     H50679   5.135   7.823   0.482 -0.0688  0.9677  0.5060
  384MOL0     H50680   4.988   8.061   0.368 -1.9355 -0.5427  2.8631
  384MOL0     H50681   5.093   8.085   0.505  0.2824 -1.3362  1.7274
  384MOL0     H50682   5.191   7.932   0.261  0.8769  0.1459  1.2259
  384MOL0     H50683   5.284   8.015   0.390  0.2348 -0.2970 -0.9741
  384MOL0     H50684   5.230   8.218   0.335  0.9567  1.2342 -0.0533
  384MOL0     H50685   5.308   8.149   0.191 -0.2251  1.2780  1.3069
  384MOL0     H50686   4.924   8.316   0.086 -0.7992 -1.3300 -0.2886
  384MOL0     H50687   4.821   7.937   0.814 -3.2284  3.8414  0.5772
  384MOL0     H50688   4.605   7.979   0.834 -0.3681 -0.8396 -0.1088
  385MOL0     O50689   9.607   9.257   9.173 -0.8130 -0.0157 -0.0740
  385MOL0     C50690   9.674   9.215   9.270 -0.0775  0.6541  0.1086
  385MOL0     O50691   9.632   9.133   9.362  0.1333 -0.6637  0.3455
  385MOL0     C50692   9.514   9.070   9.321  0.0249 -1.1087 -0.5004
  385MOL0     C50693   9.389   9.129   9.356 -0.5710  0.2708  0.5209
  385MOL0     C50694   9.268   9.055   9.327 -0.0998  0.5182 -0.4233
  385MOL0     C50695   9.270   8.932   9.272 -0.3432 -0.4751  0.2656
  385MOL0     O50696   9.150   8.853   9.250 -0.6316  0.6103 -0.1172
  385MOL0     C50697   9.026   8.887   9.325 -0.3219 -0.7694 -0.9238
  385MOL0     C50698   8.925   8.783   9.313  1.5408 -0.4399 -1.3826
  385MOL0     C50699   8.803   8.817   9.413  0.3750 -0.1130  0.1102
  385MOL0     C50700   8.693   8.712   9.408  0.0098  0.2436 -1.1172
  385MOL0     C50701   8.594   8.727   9.292  0.9953 -0.9058 -1.1645
  385MOL0     C50702   8.482   8.832   9.315 -0.7413 -0.1954 -1.0195
  385MOL0     C50703   8.344   8.795   9.254 -0.1204 -0.1824  0.6769
  385MOL0     C50704   8.349   8.831   9.109  0.2840  0.4124  0.3819
  385MOL0     N50705   8.266   8.726   9.038 -0.8973  0.7384 -1.0730
  385MOL0     C50706   8.192   8.752   8.924 -0.1201  0.0087  0.1070
  385MOL0     C50707   8.140   8.635   8.879 -0.4140 -0.6431 -1.0035
  385MOL0     C50708   8.053   8.611   8.759 -0.7221 -0.1329 -0.1143
  385MOL0     C50709   7.914   8.654   8.796  0.3791 -0.7959 -0.3909
  385MOL0     C50710   7.821   8.659   8.679  0.2788  0.0212  0.4876
  385MOL0     C50711   7.683   8.708   8.733  0.2316  0.2753  0.0100
  385MOL0     O50712   7.630   8.595   8.807 -0.3433  0.1270 -0.7210
  385MOL0     C50713   7.494   8.600   8.801  0.4687  0.2703  0.3708
  385MOL0     C50714   7.425   8.721   8.832 -0.3069  0.4990  0.0614
  385MOL0     C50715   7.286   8.726   8.813 -0.8678 -0.3347  1.1344
  385MOL0     C50716   7.221   8.613   8.749 -0.1241 -0.3432  0.5870
  385MOL0     C50717   7.082   8.613   8.721  0.5264 -0.0351  0.7602
  385MOL0     O50718   7.024   8.485   8.702  0.3712 -0.7254 -0.2473
  385MOL0     C50719   6.890   8.481   8.654  0.7716 -0.2332 -0.2920
  385MOL0     C50720   6.797   8.380   8.706  0.7232  0.4332  0.4803
  385MOL0     C50721   6.666   8.393   8.661 -0.3178  0.7139  0.9122
  385MOL0     C50722   6.615   8.484   8.565 -0.4874 -0.3496 -0.1192
  385MOL0     O50723   6.484   8.500   8.516 -0.3067 -0.2528 -0.2573
  385MOL0     C50724   6.371   8.471   8.604 -0.2774  0.2251  0.6092
  385MOL0     C50725   6.245   8.561   8.579  0.4600 -0.7395  0.3257
  385MOL0     C50726   6.124   8.485   8.541 -0.0377  0.6321 -0.3350
  385MOL0     C50727   6.001   8.570   8.498 -0.3425 -0.4798 -0.0878
  385MOL0     C50728   6.027   8.631   8.362  1.5361  0.2029 -0.4839
  385MOL0     C50729   5.900   8.654   8.286 -0.0792  0.1932  0.1844
  385MOL0     C50730   5.934   8.747   8.160 -0.4148 -0.7014  0.3184
  385MOL0     C50731   5.820   8.753   8.054  1.2229 -0.0851 -0.4182
  385MOL0    Cl50732   5.695   8.871   8.104 -0.0466 -0.0083  0.3586
  385MOL0     C50733   6.714   8.566   8.508 -0.0463  0.0666 -0.7151
  385MOL0     C50734   6.846   8.567   8.549  0.1355  0.2287 -1.4294
  385MOL0     O50735   7.023   8.720   8.720  0.4500 -0.3180  0.1526
  385MOL0     C50736   7.292   8.501   8.714 -0.6884 -0.2271  0.0944
  385MOL0     C50737   7.427   8.494   8.737 -0.3989  0.4563  0.2148
  385MOL0     N50738   8.191   8.536   8.962 -0.3224  0.3723 -0.1125
  385MOL0     N50739   8.271   8.590   9.057 -0.6864 -0.0898  1.0746
  385MOL0     C50740   9.394   8.868   9.240 -0.3890 -0.5545  0.0145
  385MOL0     C50741   9.514   8.934   9.268 -0.5947 -0.0944 -0.0800
  385MOL0     C50742   9.813   9.246   9.276 -0.7114  0.4347  0.4609
  385MOL0     C50743   9.871   9.363   9.206 -0.1109  0.4661 -0.1037
  385MOL0     C50744  10.000   9.411   9.236  0.3895 -0.0827 -0.0175
  385MOL0     C50745  10.079   9.340   9.323 -0.6797  0.8750 -0.2611
  385MOL0     O50746  10.198   9.390   9.356 -0.4542 -0.5618 -0.2892
  385MOL0     C50747  10.212   9.422   9.497  0.0415 -0.6400 -0.5437
  385MOL0     C50748  10.311   9.536   9.498 -0.1868 -0.9361  0.0676
  385MOL0     C50749  10.449   9.515   9.423 -0.0238  0.5471  0.2352
  385MOL0     C50750  10.447   9.556   9.285 -0.1628 -0.3849  0.1974
  385MOL0     C50751  10.581   9.588   9.231 -0.0250 -0.5674  0.8998
  385MOL0     C50752  10.689   9.618   9.181  0.2499  1.2722  0.2938
  385MOL0     C50753  10.032   9.211   9.381 -0.5060 -0.5432 -0.2735
  385MOL0     C50754   9.899   9.171   9.355  0.6553 -0.0767  0.1189
  385MOL0     H50755   9.399   9.227   9.401  0.0723  0.1273  0.7034
  385MOL0     H50756   9.173   9.104   9.344 -1.0110 -0.6216 -1.9288
  385MOL0     H50757   9.000   8.982   9.278  1.2433 -0.8030 -1.9495
  385MOL0     H50758   9.054   8.912   9.427 -1.3640  0.7224 -0.9749
  385MOL0     H50759   8.978   8.693   9.345 -0.0149 -2.5116 -4.1396
  385MOL0     H50760   8.893   8.768   9.209  2.6294 -0.8435 -1.6647
  385MOL0     H50761   8.768   8.919   9.394  0.5739 -0.0329  0.1705
  385MOL0     H50762   8.846   8.814   9.514 -0.2496  0.2232  0.3927
  385MOL0     H50763   8.748   8.618   9.403 -1.4083 -0.5682 -2.2778
  385MOL0     H50764   8.640   8.712   9.504  1.0067 -1.0834 -0.5431
  385MOL0     H50765   8.538   8.633   9.296  0.3630 -0.5451 -1.3677
  385MOL0     H50766   8.634   8.729   9.190  0.1079 -0.0736 -1.5059
  385MOL0     H50767   8.512   8.931   9.280 -0.6262  0.4219  0.7540
  385MOL0     H50768   8.461   8.830   9.422  1.5676 -0.8653 -0.5407
  385MOL0     H50769   8.318   8.690   9.269  0.2358 -0.3300  0.2791
  385MOL0     H50770   8.272   8.863   9.301 -1.6741 -0.4497 -1.1701
  385MOL0     H50771   8.446   8.840   9.061 -0.2311  4.7991 -0.2500
  385MOL0     H50772   8.302   8.929   9.096  1.7942  1.3592  1.6934
  385MOL0     H50773   8.175   8.851   8.884  0.3785  0.9265  2.0181
  385MOL0     H50774   8.050   8.503   8.746 -1.2362 -0.6475  3.3023
  385MOL0     H50775   8.097   8.658   8.670  0.2314 -0.1259  0.3496
  385MOL0     H50776   7.910   8.751   8.846 -1.7516 -1.6937  1.3513
  385MOL0     H50777   7.861   8.578   8.855 -1.3670  0.0328 -0.8154
  385MOL0     H50778   7.874   8.726   8.610  1.0020 -2.5582 -1.6491
  385MOL0     H50779   7.810   8.562   8.629  0.5463  0.7343 -1.0283
  385MOL0     H50780   7.621   8.730   8.646 -0.4561 -2.1177 -0.1549
  385MOL0     H50781   7.684   8.790   8.806  0.9329 -1.9710  2.6858
  385MOL0     H50782   7.482   8.805   8.870  0.9907 -1.5250  2.9487
  385MOL0     H50783   7.238   8.822   8.828 -0.5199  0.5037 -2.2537
  385MOL0     H50784   6.829   8.302   8.774  1.1516  0.0606 -0.1417
  385MOL0     H50785   6.592   8.323   8.699  0.4738 -0.2265  0.7735
  385MOL0     H50786   6.400   8.497   8.706  1.5217 -3.3260  1.1707
  385MOL0     H50787   6.350   8.364   8.597 -0.8555  0.3987 -0.5166
  385MOL0     H50788   6.284   8.634   8.507 -0.1994 -2.5977 -2.0552
  385MOL0     H50789   6.230   8.615   8.673  1.7661 -0.5218  0.4349
  385MOL0     H50790   6.098   8.427   8.629 -0.6277  2.5619  0.8287
  385MOL0     H50791   6.154   8.414   8.464 -0.5197  0.5116 -0.4116
  385MOL0     H50792   5.915   8.503   8.497 -0.7097 -0.4667  4.6383
  385MOL0     H50793   5.972   8.651   8.567  0.6864  0.3767 -0.6327
  385MOL0     H50794   6.089   8.562   8.305  1.2783 -0.1616 -0.3225
  385MOL0     H50795   6.068   8.733   8.370 -2.0422  1.6881  1.0236
  385MOL0     H50796   5.831   8.703   8.355  0.6622  1.4993  0.0197
  385MOL0     H50797   5.865   8.553   8.260  0.7712  0.2485 -1.2804
  385MOL0     H50798   5.959   8.851   8.182  1.3233 -0.8102 -0.8802
  385MOL0     H50799   6.024   8.711   8.110  1.2211  0.6015  2.1826
  385MOL0     H50800   5.773   8.654   8.057 -0.4605  0.6986  1.3430
  385MOL0     H50801   5.862   8.772   7.955 -0.3953  0.4536 -1.0379
  385MOL0     H50802   6.691   8.644   8.437  1.7737  2.8920  1.5745
  385MOL0     H50803   6.911   8.640   8.502 -0.6344  0.8034 -1.6226
  385MOL0     H50804   7.241   8.417   8.667 -0.1912 -1.1604  1.1924
  385MOL0     H50805   7.493   8.414   8.705  0.9699  0.1825  3.3646
  385MOL0     H50806   9.398   8.770   9.194  0.5588 -1.0142  1.0322
  385MOL0     H50807   9.613   8.892   9.253 -0.0045  0.7623  1.1659
  385MOL0     H50808   9.807   9.427   9.147 -1.7984 -0.3257  0.8043
  385MOL0     H50809  10.033   9.508   9.200  0.0872  0.1701  0.3759
  385MOL0     H50810  10.250   9.333   9.547 -2.0721 -1.9169 -1.0502
  385MOL0     H50811  10.114   9.453   9.536  0.2132 -0.6267 -0.1206
  385MOL0     H50812  10.279   9.633   9.459  3.4541  0.3096 -0.2350
  385MOL0     H50813  10.330   9.555   9.605  0.3846 -0.2486 -0.1455
  385MOL0     H50814  10.486   9.416   9.452  0.1520  1.2086  2.5209
  385MOL0     H50815  10.519   9.577   9.481 -0.6483  1.2957  0.1934
  385MOL0     H50816  10.396   9.484   9.220 -1.9973 -0.6317  1.8191
  385MOL0     H50817  10.388   9.648   9.279  1.3532  0.5866 -0.3546
  385MOL0     H50818  10.784   9.642   9.138  1.6781 -1.4866  1.6555
  385MOL0     H50819  10.088   9.150   9.451 -2.1566  0.8180  2.4148
  385MOL0     H50820   9.868   9.074   9.393  1.2452  0.2476  1.4786
  386MOL0     O50821   8.372   2.480   7.479  0.0799 -0.3356 -0.3389
  386MOL0     C50822   8.305   2.460   7.577  0.6960 -0.2149 -0.0857
  386MOL0     O50823   8.349   2.463   7.703 -0.1288  0.1175 -0.2773
  386MOL0     C50824   8.478   2.448   7.733 -0.2775  0.3072  1.2428
  386MOL0     C50825   8.558   2.558   7.732  0.2400 -0.1923 -0.4203
  386MOL0     C50826   8.693   2.550   7.760 -0.2585  0.5017 -0.2514
  386MOL0     C50827   8.752   2.427   7.785  0.6006 -0.2823 -0.4458
  386MOL0     O50828   8.880   2.409   7.826 -0.1738  0.2396  0.0709
  386MOL0     C50829   8.976   2.508   7.791  0.1622  0.4373  0.1059
  386MOL0     C50830   9.120   2.453   7.822 -0.1051  0.9567 -0.6837
  386MOL0     C50831   9.146   2.454   7.975  0.3698  0.1771  0.0212
  386MOL0     C50832   9.295   2.430   7.996  0.1340  0.1848  0.2340
  386MOL0     C50833   9.321   2.402   8.151 -1.0411  0.0971  0.9163
  386MOL0     C50834   9.295   2.523   8.242 -0.1487 -0.6127 -0.1491
  386MOL0     C50835   9.352   2.658   8.202  0.3925  0.3159 -0.5715
  386MOL0     C50836   9.261   2.764   8.264  0.1370  0.0927  0.2780
  386MOL0     N50837   9.309   2.899   8.231 -0.6350  0.0707  0.4211
  386MOL0     C50838   9.325   3.003   8.319 -0.7189 -0.0770  0.0469
  386MOL0     C50839   9.403   3.096   8.251 -1.5691  0.0523  0.4931
  386MOL0     C50840   9.469   3.217   8.312 -0.0873 -0.5763  0.2901
  386MOL0     C50841   9.539   3.186   8.444  0.2551 -0.2867 -0.3550
  386MOL0     C50842   9.649   3.081   8.428  0.2790 -0.5484  1.3010
  386MOL0     C50843   9.709   3.028   8.554  0.6590  0.2636 -0.3947
  386MOL0     O50844   9.751   3.131   8.654  0.0538 -0.1352  0.4317
  386MOL0     C50845   9.876   3.191   8.646  0.4658  1.0255 -0.8780
  386MOL0     C50846   9.928   3.245   8.763  0.3739  0.1875  0.3196
  386MOL0     C50847  10.056   3.300   8.759 -0.0051  0.4698 -0.5725
  386MOL0     C50848  10.139   3.290   8.644 -0.6368 -0.1095  0.3506
  386MOL0     C50849  10.287   3.322   8.652  0.1357 -0.0174 -0.6019
  386MOL0     O50850  10.363   3.254   8.567 -0.0982  0.4852  0.5258
  386MOL0     C50851  10.506   3.224   8.580  1.0715 -0.3686 -0.1039
  386MOL0     C50852  10.583   3.270   8.689 -0.9038  0.2648 -0.0276
  386MOL0     C50853  10.716   3.225   8.696 -0.1200 -1.2321 -1.0502
  386MOL0     C50854  10.778   3.142   8.600  0.6612  0.3110 -1.1832
  386MOL0     O50855  10.910   3.114   8.626  0.2083 -0.4488 -0.2655
  386MOL0     C50856  10.960   2.986   8.602 -0.5551 -0.0555 -0.0475
  386MOL0     C50857  11.081   2.976   8.697 -0.4322 -0.3911  0.7128
  386MOL0     C50858  11.212   2.998   8.620 -1.1838 -0.1643  0.9609
  386MOL0     C50859  11.322   2.980   8.725 -0.4942 -0.3860  0.1960
  386MOL0     C50860  11.461   2.976   8.666 -0.4314  0.0314  0.3896
  386MOL0     C50861  11.569   2.978   8.772  0.3964  0.5142  0.1672
  386MOL0     C50862  11.702   2.991   8.704 -0.1381 -0.0232 -0.0479
  386MOL0     C50863  11.817   3.019   8.806  0.2259 -0.9057  0.2377
  386MOL0    Cl50864  11.972   3.064   8.732  0.4118 -0.6309 -0.1107
  386MOL0     C50865  10.703   3.099   8.489 -0.4298 -0.2784  0.4187
  386MOL0     C50866  10.566   3.145   8.480 -0.8088 -0.7097  0.5390
  386MOL0     O50867  10.334   3.389   8.747  0.8929 -0.0376 -0.0218
  386MOL0     C50868  10.078   3.241   8.526 -0.3582  0.2146  0.4851
  386MOL0     C50869   9.951   3.196   8.527  0.6601  1.3046 -0.2606
  386MOL0     N50870   9.423   3.046   8.121  0.1617  0.4922  0.0045
  386MOL0     N50871   9.359   2.933   8.113  0.4160  0.6626 -0.7383
  386MOL0     C50872   8.665   2.314   7.809  0.3047 -0.6919  0.0785
  386MOL0     C50873   8.525   2.326   7.782 -0.1977 -0.2647 -0.8206
  386MOL0     C50874   8.169   2.412   7.562 -0.0432  0.4225 -0.5901
  386MOL0     C50875   8.108   2.399   7.437  1.0063  0.7589 -0.5782
  386MOL0     C50876   7.979   2.342   7.421 -0.2519  0.9138 -0.9182
  386MOL0     C50877   7.915   2.283   7.533  0.8449 -0.5681  0.3748
  386MOL0     O50878   7.795   2.214   7.536 -0.6240 -0.6055 -0.2086
  386MOL0     C50879   7.696   2.239   7.432 -0.3227  0.9879 -0.3034
  386MOL0     C50880   7.551   2.283   7.490  0.6196 -0.0691 -0.0833
  386MOL0     C50881   7.546   2.420   7.546  1.1707 -0.5674 -0.0954
  386MOL0     C50882   7.420   2.470   7.604  0.9808  0.8715 -0.6764
  386MOL0     C50883   7.445   2.609   7.636 -0.0093 -0.9738  0.2762
  386MOL0     C50884   7.469   2.728   7.667 -1.1593 -0.5014  0.1217
  386MOL0     C50885   7.970   2.306   7.660  0.1446  1.3750  0.2359
  386MOL0     C50886   8.094   2.368   7.673 -0.0884  0.1254 -0.1615
  386MOL0     H50887   8.514   2.656   7.715  1.7704  0.5056 -0.4951
  386MOL0     H50888   8.749   2.643   7.769  0.2768 -0.0038  2.4120
  386MOL0     H50889   8.951   2.605   7.836 -0.5788 -0.1885  1.1056
  386MOL0     H50890   8.974   2.524   7.683  0.8714 -0.5798 -0.0710
  386MOL0     H50891   9.191   2.521   7.773  0.5313  0.6410 -0.2158
  386MOL0     H50892   9.132   2.356   7.774 -0.9584 -0.8185  2.4257
  386MOL0     H50893   9.079   2.383   8.025  2.0220 -3.3935 -2.4186
  386MOL0     H50894   9.116   2.550   8.017  1.5628 -0.1469  1.6829
  386MOL0     H50895   9.333   2.352   7.929 -1.2097 -1.6679  1.5187
  386MOL0     H50896   9.345   2.519   7.958 -0.6824  1.1875  1.4189
  386MOL0     H50897   9.422   2.363   8.167  0.0425  2.0728 -0.7027
  386MOL0     H50898   9.258   2.324   8.194 -2.9957  0.3465 -1.3163
  386MOL0     H50899   9.317   2.501   8.347  0.3076 -1.7725 -0.4688
  386MOL0     H50900   9.188   2.543   8.230  0.2090  3.7633  1.7528
  386MOL0     H50901   9.454   2.672   8.239 -0.0194 -1.0492  1.2210
  386MOL0     H50902   9.342   2.661   8.094 -0.2054 -1.3162 -0.5827
  386MOL0     H50903   9.262   2.735   8.370  0.4821 -0.9015  0.0125
  386MOL0     H50904   9.159   2.752   8.226 -0.1642 -2.0932  1.5946
  386MOL0     H50905   9.307   2.990   8.425 -0.1454 -4.3242 -0.2025
  386MOL0     H50906   9.390   3.291   8.328  0.8620  1.7499 -4.2912
  386MOL0     H50907   9.523   3.275   8.237 -1.8486  0.8830  0.0875
  386MOL0     H50908   9.461   3.150   8.512 -0.7841 -0.2330 -1.5004
  386MOL0     H50909   9.580   3.277   8.489  0.1776 -1.2262  1.7279
  386MOL0     H50910   9.606   2.988   8.390  0.6398  0.2488 -1.2209
  386MOL0     H50911   9.724   3.118   8.357 -0.6347  2.0822  1.6091
  386MOL0     H50912   9.790   2.959   8.530 -0.0608 -1.1901  1.1099
  386MOL0     H50913   9.627   2.969   8.596 -0.0122  1.2341 -0.3041
  386MOL0     H50914   9.881   3.248   8.861  1.4633  0.3845  0.8534
  386MOL0     H50915  10.094   3.353   8.847 -4.6561  1.0305  1.3977
  386MOL0     H50916  10.545   3.323   8.776 -0.5932  0.3549  0.0542
  386MOL0     H50917  10.784   3.241   8.779 -0.8526  0.4932 -0.7339
  386MOL0     H50918  10.978   2.979   8.495  2.8818 -0.0517  0.4155
  386MOL0     H50919  10.884   2.912   8.631 -1.0625  0.2039 -0.6870
  386MOL0     H50920  11.093   2.871   8.726 -1.0163 -1.4960 -2.5815
  386MOL0     H50921  11.071   3.041   8.784  2.6085  1.5107 -0.2267
  386MOL0     H50922  11.214   3.090   8.562  3.6466 -1.6968 -1.8565
  386MOL0     H50923  11.224   2.922   8.542  1.3972 -0.8719  1.9529
  386MOL0     H50924  11.324   3.063   8.796  1.4339 -0.6547  0.4977
  386MOL0     H50925  11.300   2.893   8.788 -3.8374 -0.0747 -0.3260
  386MOL0     H50926  11.471   3.066   8.604  1.0416 -1.8412 -2.3377
  386MOL0     H50927  11.463   2.894   8.593 -1.6079  0.7449 -0.4901
  386MOL0     H50928  11.565   2.881   8.822 -1.1064  0.2675 -0.3784
  386MOL0     H50929  11.555   3.062   8.840  0.4609  2.0872 -1.6586
  386MOL0     H50930  11.720   2.900   8.647 -1.6924 -0.7406  0.5421
  386MOL0     H50931  11.694   3.086   8.650  0.8267  1.0977  1.6846
  386MOL0     H50932  11.832   2.929   8.866 -1.5783 -0.4874  1.3794
  386MOL0     H50933  11.788   3.096   8.877  1.0562 -0.4326  0.0776
  386MOL0     H50934  10.735   3.032   8.410 -1.4691 -0.2737 -0.0200
  386MOL0     H50935  10.520   3.101   8.392  1.8406 -3.8198  0.5314
  386MOL0     H50936  10.132   3.226   8.434 -2.5250 -2.8465 -0.4721
  386MOL0     H50937   9.910   3.151   8.436 -2.0772  1.3532  0.8602
  386MOL0     H50938   8.706   2.222   7.851 -0.5872 -1.9921 -1.7436
  386MOL0     H50939   8.455   2.246   7.804  2.4086 -1.9855  1.9536
  386MOL0     H50940   8.153   2.436   7.346  0.7984  1.4651 -0.3988
  386MOL0     H50941   7.938   2.341   7.321 -2.3540  0.9526 -0.1080
  386MOL0     H50942   7.678   2.153   7.367  1.3972 -1.2484  1.9753
  386MOL0     H50943   7.741   2.320   7.373  2.0251  0.7651  1.0663
  386MOL0     H50944   7.477   2.281   7.409  2.9831 -0.2045 -2.3628
  386MOL0     H50945   7.520   2.209   7.565 -0.8215  1.1563  0.5841
  386MOL0     H50946   7.575   2.489   7.466  0.8123  1.3789  1.3836
  386MOL0     H50947   7.624   2.430   7.622  1.6741  1.7411 -0.8432
  386MOL0     H50948   7.336   2.459   7.535 -2.0414 -4.3804  3.0685
  386MOL0     H50949   7.388   2.418   7.695 -1.8207  1.9757 -0.9432
  386MOL0     H50950   7.499   2.825   7.701  1.8427 -1.5840  0.8013
  386MOL0     H50951   7.919   2.249   7.737  1.2773 -1.4941 -0.9928
  386MOL0     H50952   8.131   2.387   7.773 -1.2705  1.2592  0.0848
  387MOL0     O50953   4.583   7.739  10.274  0.4054 -0.1935 -0.1335
  387MOL0     C50954   4.635   7.788  10.381  0.7057 -0.7868  0.0344
  387MOL0     O50955   4.561   7.859  10.473 -0.3284 -0.5708 -0.2551
  387MOL0     C50956   4.436   7.897  10.430 -0.0397 -0.1536 -0.0476
  387MOL0     C50957   4.410   8.031  10.408 -0.0439 -0.2094 -0.6340
  387MOL0     C50958   4.294   8.077  10.344  0.1839 -0.4767  0.8758
  387MOL0     C50959   4.198   7.981  10.309  0.2489  0.3681  0.7238
  387MOL0     O50960   4.086   8.002  10.235  0.2491 -0.5065  0.1393
  387MOL0     C50961   4.108   7.975  10.090 -0.4860  0.3894 -0.3042
  387MOL0     C50962   4.046   7.832  10.060  0.3338 -0.2163 -0.2387
  387MOL0     C50963   3.901   7.817  10.106  0.6593  0.7937  0.1435
  387MOL0     C50964   3.805   7.912  10.025 -0.3569  0.1875  0.4563
  387MOL0     C50965   3.660   7.871  10.054 -0.8000  0.3407  0.3969
  387MOL0     C50966   3.561   7.950   9.975 -0.4413 -0.2445  1.3479
  387MOL0     C50967   3.420   7.915  10.013 -0.6750  0.2294  0.5719
  387MOL0     C50968   3.313   7.979   9.919  0.2556 -0.2760 -1.0934
  387MOL0     N50969   3.178   7.948   9.966 -0.0664 -0.8143  0.4557
  387MOL0     C50970   3.116   7.825   9.961 -0.9172 -0.1998  0.1280
  387MOL0     C50971   2.986   7.848   9.965  0.5445 -0.0982 -0.0904
  387MOL0     C50972   2.872   7.750   9.963  0.8040 -0.1858  0.1403
  387MOL0     C50973   2.821   7.685  10.092 -0.0839  0.4018  0.0827
  387MOL0     C50974   2.930   7.581  10.150 -0.3000  0.4271  0.8537
  387MOL0     C50975   2.976   7.624  10.294 -0.1889  0.0185  0.5021
  387MOL0     O50976   3.050   7.520  10.346 -0.6459  0.2671 -0.0390
  387MOL0     C50977   3.183   7.510  10.325 -0.1875  0.7402  0.4775
  387MOL0     C50978   3.241   7.397  10.374 -0.1886 -0.1837 -0.5412
  387MOL0     C50979   3.376   7.359  10.359 -0.2220 -0.4293  0.7478
  387MOL0     C50980   3.461   7.445  10.288 -0.3150  0.7563  0.9995
  387MOL0     C50981   3.605   7.418  10.292 -0.1718 -0.0451 -0.1881
  387MOL0     O50982   3.685   7.531  10.291 -0.6063 -0.0685 -0.6691
  387MOL0     C50983   3.822   7.509  10.313  0.4508 -0.6044 -0.4558
  387MOL0     C50984   3.880   7.558  10.432 -0.9311  0.8256 -0.2632
  387MOL0     C50985   4.010   7.532  10.464 -0.0441 -0.0111  0.0488
  387MOL0     C50986   4.092   7.454  10.389  0.0852 -0.2875 -0.7632
  387MOL0     O50987   4.223   7.440  10.423 -0.3186 -0.3961 -0.0518
  387MOL0     C50988   4.316   7.360  10.342 -0.2518  0.4760  0.1137
  387MOL0     C50989   4.458   7.385  10.393 -0.0618 -0.4410 -1.0531
  387MOL0     C50990   4.557   7.319  10.289 -0.2264 -0.1117 -0.5042
  387MOL0     C50991   4.610   7.425  10.180  0.7592  0.1900  0.1994
  387MOL0     C50992   4.669   7.346  10.056 -0.6018 -0.2836 -0.1649
  387MOL0     C50993   4.760   7.437   9.969 -0.1588  0.0216 -0.6527
  387MOL0     C50994   4.912   7.445  10.010  0.2165  0.4014 -0.4101
  387MOL0     C50995   4.992   7.531   9.917  1.4431  1.0600 -0.5287
  387MOL0    Cl50996   5.003   7.696   9.988 -0.0851 -0.0873 -0.1039
  387MOL0     C50997   4.034   7.398  10.275  0.8695 -0.2200  0.6793
  387MOL0     C50998   3.902   7.426  10.236  0.2537 -0.6812  0.9189
  387MOL0     O50999   3.647   7.297  10.290 -0.2796 -0.2159  0.1864
  387MOL0     C51000   3.408   7.554  10.226 -0.1268 -0.7126 -0.6206
  387MOL0     C51001   3.269   7.589  10.239 -0.2006  0.3421  0.0294
  387MOL0     N51002   2.964   7.975   9.996 -0.2736 -0.1861  0.4460
  387MOL0     N51003   3.076   8.036   9.991 -0.2013  0.1164 -0.3480
  387MOL0     C51004   4.218   7.841  10.341  0.1180 -1.1398  0.9105
  387MOL0     C51005   4.341   7.805  10.401  0.3478  1.3287  0.7667
  387MOL0     C51006   4.767   7.760  10.421  0.1462  0.0845  0.0785
  387MOL0     C51007   4.807   7.750  10.554 -0.1699  0.0673 -0.5150
  387MOL0     C51008   4.940   7.749  10.589  0.3691  0.1757 -0.0295
  387MOL0     C51009   5.040   7.743  10.491 -0.1225 -0.7039  0.4416
  387MOL0     O51010   5.174   7.731  10.529  0.0685 -0.4093 -0.5618
  387MOL0     C51011   5.232   7.861  10.561  0.1425 -0.1105 -0.7224
  387MOL0     C51012   5.372   7.862  10.504 -0.0768 -0.2081 -0.7136
  387MOL0     C51013   5.471   7.780  10.590 -0.0399 -0.2468 -1.0825
  387MOL0     C51014   5.578   7.711  10.510  0.6979 -1.1141 -0.6614
  387MOL0     C51015   5.696   7.794  10.474  0.9614  0.4412  0.5311
  387MOL0     C51016   5.786   7.866  10.440 -0.5883 -0.7712 -0.0196
  387MOL0     C51017   4.996   7.744  10.356 -0.6693 -0.1362  0.9135
  387MOL0     C51018   4.860   7.760  10.316 -0.0808  0.1815 -0.1118
  387MOL0     H51019   4.477   8.100  10.458  0.1636 -1.2557  0.5866
  387MOL0     H51020   4.283   8.183  10.321 -1.4439 -1.3668 -3.4844
  387MOL0     H51021   4.215   7.973  10.069 -0.4811 -1.2495 -0.1936
  387MOL0     H51022   4.060   8.052  10.028 -0.3821 -0.2626 -1.2022
  387MOL0     H51023   4.103   7.755  10.114  0.6042  1.4416  2.0174
  387MOL0     H51024   4.045   7.796   9.957 -0.1638 -1.6740  0.2361
  387MOL0     H51025   3.895   7.859  10.207 -2.3917  2.5183 -0.6121
  387MOL0     H51026   3.860   7.716  10.106  0.2790  0.8815  2.5994
  387MOL0     H51027   3.825   8.015  10.055  1.1801  0.0765 -0.0729
  387MOL0     H51028   3.822   7.906   9.917  3.2710  0.0444  0.9103
  387MOL0     H51029   3.641   7.882  10.161  0.8906 -1.6229  0.9701
  387MOL0     H51030   3.641   7.764  10.037 -1.4341  0.8849 -3.1941
  387MOL0     H51031   3.572   7.930   9.868  2.5462  0.5580  1.4245
  387MOL0     H51032   3.587   8.055   9.989  2.4630 -0.5896 -0.5468
  387MOL0     H51033   3.416   7.807   9.996  3.0944  0.2140 -1.2450
  387MOL0     H51034   3.399   7.954  10.113  0.0910 -1.6692  1.5098
  387MOL0     H51035   3.319   7.938   9.817  0.8798  1.2562 -1.6952
  387MOL0     H51036   3.335   8.086   9.920  0.5983 -0.2920  1.7656
  387MOL0     H51037   3.166   7.729   9.956  0.6470  0.5869 -0.2138
  387MOL0     H51038   2.890   7.681   9.880 -0.3839  2.0525 -2.1275
  387MOL0     H51039   2.785   7.799   9.918  0.7918 -0.8468 -0.5630
  387MOL0     H51040   2.727   7.632  10.077 -2.3935  3.2538  2.9090
  387MOL0     H51041   2.787   7.751  10.173 -2.9845  1.1165 -1.5799
  387MOL0     H51042   2.868   7.491  10.152 -1.4820  0.9346 -3.6614
  387MOL0     H51043   3.016   7.577  10.082 -0.6401 -3.3462  0.4434
  387MOL0     H51044   2.894   7.623  10.366  0.7536  0.8547  1.6202
  387MOL0     H51045   3.015   7.726  10.300  0.0446 -0.1244  1.4292
  387MOL0     H51046   3.177   7.339  10.441  2.5823 -4.2629 -1.0731
  387MOL0     H51047   3.415   7.271  10.409 -0.5279  0.3187  2.4049
  387MOL0     H51048   3.817   7.636  10.474  0.2750  2.2011 -0.8834
  387MOL0     H51049   4.059   7.586  10.545 -0.3102 -0.8929  0.8098
  387MOL0     H51050   4.311   7.402  10.241  0.1213  2.2325  0.7764
  387MOL0     H51051   4.285   7.255  10.338 -2.8499  0.9731  3.1335
  387MOL0     H51052   4.482   7.341  10.490 -2.1725 -1.2951 -0.8601
  387MOL0     H51053   4.483   7.491  10.408 -0.1145 -0.8276  2.7996
  387MOL0     H51054   4.511   7.239  10.230 -1.5276  2.5733 -3.5055
  387MOL0     H51055   4.644   7.280  10.340 -1.1802 -2.8577 -0.8187
  387MOL0     H51056   4.526   7.488  10.146  1.4404  0.5730 -0.8397
  387MOL0     H51057   4.681   7.498  10.219 -0.7527  1.4827  0.6710
  387MOL0     H51058   4.584   7.315   9.995 -0.5525  1.6096 -1.2699
  387MOL0     H51059   4.716   7.253  10.090 -1.3903 -1.1441 -1.3574
  387MOL0     H51060   4.699   7.527   9.959  0.4791  0.4192 -0.9875
  387MOL0     H51061   4.762   7.399   9.866 -2.5999  1.0568 -1.1381
  387MOL0     H51062   4.920   7.475  10.115 -3.8036 -0.6796  0.3658
  387MOL0     H51063   4.945   7.340  10.013 -2.5193 -0.5372  1.0375
  387MOL0     H51064   4.941   7.529   9.820  0.8528  0.9026 -0.2236
  387MOL0     H51065   5.094   7.491   9.914  0.0858 -2.7703 -1.9753
  387MOL0     H51066   4.083   7.323  10.213  1.0264 -0.4508  1.0849
  387MOL0     H51067   3.874   7.380  10.142 -2.0959  3.4455 -0.7046
  387MOL0     H51068   3.469   7.613  10.158 -0.8997  0.1994 -0.5504
  387MOL0     H51069   3.225   7.679  10.196  0.0999 -0.4046 -1.9402
  387MOL0     H51070   4.159   7.753  10.321  2.2793 -3.1477  2.7974
  387MOL0     H51071   4.346   7.696  10.405 -2.6878  1.1312  2.1288
  387MOL0     H51072   4.736   7.742  10.636  0.8287  2.3117  0.6818
  387MOL0     H51073   4.975   7.758  10.692 -1.9655  1.3585  0.7266
  387MOL0     H51074   5.234   7.864  10.671 -1.7247 -0.3916 -0.6472
  387MOL0     H51075   5.166   7.940  10.523 -1.4996 -1.0849  0.0082
  387MOL0     H51076   5.356   7.808  10.410  0.6415 -0.5180 -0.6656
  387MOL0     H51077   5.414   7.963  10.496  1.6922 -0.5530  2.6135
  387MOL0     H51078   5.416   7.704  10.647 -3.9341  1.3543 -2.3764
  387MOL0     H51079   5.518   7.846  10.664 -1.3818 -0.5617  0.1029
  387MOL0     H51080   5.606   7.619  10.561 -1.7073 -1.2270  0.6159
  387MOL0     H51081   5.526   7.671  10.422  0.7450 -0.4102 -1.0196
  387MOL0     H51082   5.857   7.937  10.402 -1.5945  0.6875  0.7566
  387MOL0     H51083   5.074   7.723  10.284 -0.9044 -0.2129  0.6773
  387MOL0     H51084   4.828   7.760  10.213 -0.5448 -0.0187  0.0290
  388MOL0     O51085   9.182  10.741   4.612 -0.1593 -0.3908  0.1331
  388MOL0     C51086   9.173  10.675   4.513  0.4232  0.0540 -0.9522
  388MOL0     O51087   9.055  10.629   4.469 -0.1612  0.4705 -0.4565
  388MOL0     C51088   8.942  10.668   4.533  0.1133  0.7860 -0.1766
  388MOL0     C51089   8.870  10.781   4.512  0.0825 -0.6071  0.0154
  388MOL0     C51090   8.747  10.802   4.567 -0.4188 -0.0049  0.5029
  388MOL0     C51091   8.702  10.718   4.669 -0.3612 -0.0145  0.0493
  388MOL0     O51092   8.574  10.728   4.714  0.5597  0.4307  0.1179
  388MOL0     C51093   8.545  10.860   4.755  0.2843 -0.4215  0.1616
  388MOL0     C51094   8.457  10.857   4.872 -0.8459 -0.4662 -0.3379
  388MOL0     C51095   8.322  10.798   4.835  0.1683 -0.0030 -0.7187
  388MOL0     C51096   8.219  10.806   4.950  0.3337  0.5217  0.7894
  388MOL0     C51097   8.075  10.801   4.921  0.3870 -0.5551  0.1674
  388MOL0     C51098   7.982  10.819   5.036 -0.3581 -0.0491  0.2996
  388MOL0     C51099   7.838  10.790   4.981 -0.2444  0.2266 -0.0521
  388MOL0     C51100   7.802  10.859   4.855 -0.1150 -0.6710 -0.2412
  388MOL0     N51101   7.657  10.865   4.839  0.3074 -0.5772 -0.2597
  388MOL0     C51102   7.571  10.956   4.887 -0.4858 -0.2320 -0.9261
  388MOL0     C51103   7.446  10.918   4.838  0.4901 -0.0656 -0.2932
  388MOL0     C51104   7.315  10.998   4.844 -0.1313 -0.5852  0.2795
  388MOL0     C51105   7.231  10.981   4.967  0.6678 -0.0256  0.2912
  388MOL0     C51106   7.259  10.848   5.037 -1.2808 -0.0094  0.2060
  388MOL0     C51107   7.165  10.819   5.155  0.7113  1.0316  0.9885
  388MOL0     O51108   7.032  10.829   5.098 -0.0398 -0.6979  0.6407
  388MOL0     C51109   6.978  10.724   5.022  0.3386  0.1978 -0.4306
  388MOL0     C51110   6.864  10.739   4.946 -0.1842 -0.3651  0.2953
  388MOL0     C51111   6.796  10.638   4.866 -0.9067 -0.7672  0.0321
  388MOL0     C51112   6.852  10.512   4.880  0.0787  0.1747  0.0997
  388MOL0     C51113   6.765  10.399   4.840 -0.1132 -1.0804  0.7349
  388MOL0     O51114   6.696  10.412   4.714  0.3553 -0.7424 -0.2363
  388MOL0     C51115   6.593  10.332   4.686  0.7627  0.3011  0.7104
  388MOL0     C51116   6.463  10.376   4.644 -0.4262 -0.7732  0.0505
  388MOL0     C51117   6.355  10.296   4.600 -0.8856 -0.4018  0.0136
  388MOL0     C51118   6.384  10.162   4.582 -0.3578 -0.6123 -0.2271
  388MOL0     O51119   6.278  10.085   4.534  0.8440 -0.1757  0.0473
  388MOL0     C51120   6.192  10.034   4.637  1.0212 -0.3706  0.1447
  388MOL0     C51121   6.101   9.925   4.569 -0.5092  0.3009  0.1708
  388MOL0     C51122   6.187   9.789   4.542  0.8034 -0.5553  0.1018
  388MOL0     C51123   6.096   9.678   4.465 -0.1885  1.1942  0.5887
  388MOL0     C51124   6.075   9.726   4.322 -0.2821  1.2609 -0.1869
  388MOL0     C51125   6.211   9.766   4.258 -0.1241 -0.0944 -0.2668
  388MOL0     C51126   6.199   9.805   4.107 -0.4976 -0.5379  0.3580
  388MOL0     C51127   6.327   9.785   4.020 -0.7394  0.1412 -0.1521
  388MOL0    Cl51128   6.275   9.805   3.856 -0.0611  0.0485 -0.0372
  388MOL0     C51129   6.492  10.112   4.646  0.3449  0.5516 -0.1097
  388MOL0     C51130   6.603  10.190   4.688  1.0237 -0.6916 -0.3412
  388MOL0     O51131   6.747  10.307   4.917 -0.1747 -0.3380 -0.4623
  388MOL0     C51132   6.964  10.489   4.957 -0.4150  0.9097  0.5318
  388MOL0     C51133   7.032  10.592   5.027  0.1435  0.0539 -0.2788
  388MOL0     N51134   7.456  10.808   4.761  0.3128  1.0038  0.1341
  388MOL0     N51135   7.578  10.780   4.760  0.2802 -0.0090  0.7470
  388MOL0     C51136   8.780  10.608   4.697 -0.0563 -0.1742 -0.0268
  388MOL0     C51137   8.891  10.575   4.626  0.2301  0.1234  0.4709
  388MOL0     C51138   9.292  10.628   4.435 -1.1292  0.4221 -0.6093
  388MOL0     C51139   9.288  10.570   4.305 -0.0008 -0.2871 -0.4176
  388MOL0     C51140   9.401  10.525   4.242 -0.1272  0.9790  0.3071
  388MOL0     C51141   9.523  10.536   4.298 -0.4476  0.0656  0.9938
  388MOL0     O51142   9.623  10.513   4.214 -0.5303  0.5335  0.2619
  388MOL0     C51143   9.759  10.519   4.252 -1.0460 -0.0777 -0.1566
  388MOL0     C51144   9.847  10.538   4.128  0.1674  0.0823 -0.1548
  388MOL0     C51145   9.986  10.520   4.183  0.3865 -0.7097  0.6923
  388MOL0     C51146  10.103  10.554   4.093  0.1079 -0.3700  0.1491
  388MOL0     C51147  10.101  10.482   3.968 -0.0685  0.3024  0.2540
  388MOL0     C51148  10.098  10.438   3.853 -0.6641 -0.0390  0.1235
  388MOL0     C51149   9.529  10.572   4.431  0.4519 -0.4596 -0.2121
  388MOL0     C51150   9.418  10.623   4.502  0.1370 -0.3190  0.3440
  388MOL0     H51151   8.914  10.853   4.445  2.9496  0.3013  2.6281
  388MOL0     H51152   8.691  10.878   4.513 -0.3160 -0.8088 -0.7978
  388MOL0     H51153   8.490  10.899   4.669  2.6571 -1.1873 -1.8031
  388MOL0     H51154   8.636  10.918   4.771  0.9354 -2.0782  3.1747
  388MOL0     H51155   8.439  10.961   4.899 -1.2151 -0.5601 -0.2075
  388MOL0     H51156   8.510  10.800   4.949  0.2291  1.2611  0.2390
  388MOL0     H51157   8.337  10.693   4.808 -2.1783 -0.6538  0.2265
  388MOL0     H51158   8.280  10.846   4.746 -4.0200  1.2889  1.6588
  388MOL0     H51159   8.240  10.725   5.021 -2.1179  0.8151  1.9540
  388MOL0     H51160   8.228  10.903   5.000 -1.6070  1.0994  0.1203
  388MOL0     H51161   8.056  10.708   4.866 -0.6003 -0.2591  0.0023
  388MOL0     H51162   8.057  10.883   4.851  0.0103  1.4646  2.4844
  388MOL0     H51163   7.985  10.921   5.075  4.2830  1.7314 -3.6650
  388MOL0     H51164   7.999  10.751   5.120  0.4978  0.1136  0.2666
  388MOL0     H51165   7.833  10.682   4.969  1.3987  0.3288 -2.1807
  388MOL0     H51166   7.760  10.821   5.052 -2.7274 -0.4971 -2.2926
  388MOL0     H51167   7.840  10.807   4.766 -3.0579  0.8172 -2.5594
  388MOL0     H51168   7.829  10.964   4.846 -1.1895 -0.3000  0.5792
  388MOL0     H51169   7.594  11.047   4.941 -0.7711  0.2475 -1.5944
  388MOL0     H51170   7.257  10.967   4.757  3.4130 -2.3186 -1.7032
  388MOL0     H51171   7.348  11.102   4.836 -0.7033 -0.5334 -2.5924
  388MOL0     H51172   7.126  10.997   4.940 -0.2337 -3.0402  1.5975
  388MOL0     H51173   7.258  11.056   5.042  2.6160  3.5228 -3.5490
  388MOL0     H51174   7.249  10.767   4.964 -0.1723 -0.5718  0.6639
  388MOL0     H51175   7.360  10.848   5.078  0.5797  1.0671 -3.8877
  388MOL0     H51176   7.169  10.889   5.239  0.0080 -0.9694  2.7634
  388MOL0     H51177   7.178  10.719   5.198  2.0500 -0.1642 -1.9253
  388MOL0     H51178   6.826  10.841   4.943 -0.8266 -0.6140 -2.1309
  388MOL0     H51179   6.698  10.657   4.824 -0.2595  1.8363 -0.4920
  388MOL0     H51180   6.439  10.482   4.647  0.4514 -0.3862 -3.1179
  388MOL0     H51181   6.266  10.344   4.561  1.2231  2.9157 -1.1676
  388MOL0     H51182   6.125  10.110   4.679 -2.4630 -2.0289 -1.8904
  388MOL0     H51183   6.257   9.994   4.715  1.6974  0.2121 -0.1184
  388MOL0     H51184   6.053   9.961   4.478 -1.7516  2.5311  1.6290
  388MOL0     H51185   6.013   9.895   4.627 -1.2999  1.7663 -0.2377
  388MOL0     H51186   6.213   9.744   4.639 -4.9239 -1.7797  1.4365
  388MOL0     H51187   6.279   9.805   4.486 -1.3028  1.1848 -3.1697
  388MOL0     H51188   6.161   9.592   4.448 -1.5445  0.6820 -2.5420
  388MOL0     H51189   6.005   9.655   4.521 -1.9322 -2.2944 -3.1611
  388MOL0     H51190   6.012   9.815   4.320  0.1533  1.5783  0.2026
  388MOL0     H51191   6.019   9.656   4.258 -1.4302  1.5084  0.5255
  388MOL0     H51192   6.281   9.685   4.279 -0.1039  0.3226  1.4182
  388MOL0     H51193   6.254   9.859   4.296 -2.2313  0.6987  0.3336
  388MOL0     H51194   6.114   9.750   4.065 -0.9946  0.0036  0.6332
  388MOL0     H51195   6.190   9.914   4.103  0.6507 -0.1875  3.9648
  388MOL0     H51196   6.360   9.684   4.047  3.7696  1.8792  1.9299
  388MOL0     H51197   6.409   9.847   4.058 -0.0952 -0.5508 -0.3774
  388MOL0     H51198   6.497  10.004   4.658  1.9451  0.4650 -1.2948
  388MOL0     H51199   6.691  10.144   4.730  2.1840 -0.4701 -2.3983
  388MOL0     H51200   6.986  10.388   4.991  0.3723  0.7532 -0.3976
  388MOL0     H51201   7.124  10.571   5.080 -1.0863 -3.2233  0.7839
  388MOL0     H51202   8.743  10.539   4.773 -2.6256 -2.2454 -2.9129
  388MOL0     H51203   8.940  10.481   4.650 -2.7124 -1.5707  0.2499
  388MOL0     H51204   9.190  10.554   4.262  0.1528 -0.1313 -0.8280
  388MOL0     H51205   9.376  10.474   4.149 -2.5161  0.3724  1.2274
  388MOL0     H51206   9.784  10.424   4.300 -0.5401  1.3583  2.5877
  388MOL0     H51207   9.770  10.605   4.319  1.9633 -0.4713 -0.0056
  388MOL0     H51208   9.836  10.454   4.059 -0.2927  1.2199 -1.5167
  388MOL0     H51209   9.826  10.632   4.075  1.0038  0.8738  0.8878
  388MOL0     H51210  10.008  10.416   4.208  0.4025 -1.6137 -2.6522
  388MOL0     H51211   9.997  10.585   4.270 -3.0240  2.4908 -0.9775
  388MOL0     H51212  10.090  10.659   4.066 -0.4047  0.2258  2.4770
  388MOL0     H51213  10.191  10.545   4.158  0.4663 -2.0829 -0.5201
  388MOL0     H51214  10.089  10.389   3.758  0.7142  0.7615 -0.4497
  388MOL0     H51215   9.630  10.582   4.472  0.0645  0.7696  0.5097
  388MOL0     H51216   9.436  10.670   4.598  3.0225  0.9319 -0.7087
  389MOL0     O51217   4.708   5.060   3.518 -0.0144  0.1070  0.0912
  389MOL0     C51218   4.642   5.158   3.540 -0.4939  0.8628  0.2715
  389MOL0     O51219   4.688   5.276   3.602 -0.1846  0.4785 -0.4496
  389MOL0     C51220   4.827   5.289   3.601  0.1907 -0.5237 -0.4707
  389MOL0     C51221   4.896   5.387   3.531  0.2146 -0.3022  0.5273
  389MOL0     C51222   5.036   5.399   3.529 -0.2562  0.4890 -0.4925
  389MOL0     C51223   5.123   5.309   3.602 -0.2134  0.3335 -0.4576
  389MOL0     O51224   5.256   5.325   3.590  1.4327 -0.1700  0.7743
  389MOL0     C51225   5.340   5.268   3.680  0.2927 -0.3849 -0.3135
  389MOL0     C51226   5.348   5.362   3.801  0.1766  0.2802  0.2776
  389MOL0     C51227   5.367   5.515   3.776 -0.1153 -0.4502 -0.1922
  389MOL0     C51228   5.364   5.589   3.910  0.2418  0.0810 -0.4143
  389MOL0     C51229   5.345   5.735   3.897 -0.5275 -0.0716 -0.1507
  389MOL0     C51230   5.353   5.808   4.029  0.0944  0.5339 -0.5373
  389MOL0     C51231   5.315   5.950   3.991  0.1084  0.1058 -0.5412
  389MOL0     C51232   5.285   6.033   4.120 -0.3376 -0.3719 -0.6531
  389MOL0     N51233   5.164   6.002   4.187  0.6105  0.3174 -0.0755
  389MOL0     C51234   5.041   5.986   4.131  0.2987  0.0615 -0.4458
  389MOL0     C51235   4.968   5.922   4.231 -0.2808  1.2463  0.7723
  389MOL0     C51236   4.831   5.865   4.208  0.0323 -0.7632 -0.1320
  389MOL0     C51237   4.728   5.929   4.311 -0.2261 -0.9148 -0.8189
  389MOL0     C51238   4.690   6.077   4.261 -0.7915 -0.5124 -0.3001
  389MOL0     C51239   4.632   6.175   4.367 -1.0583  0.0004  0.5673
  389MOL0     O51240   4.513   6.122   4.426  0.2887  0.2187  0.9652
  389MOL0     C51241   4.387   6.166   4.377 -0.1801  0.1913  0.5849
  389MOL0     C51242   4.284   6.128   4.463 -0.3594 -0.8081 -0.4951
  389MOL0     C51243   4.147   6.162   4.440 -0.1756 -0.6173  0.5883
  389MOL0     C51244   4.120   6.256   4.330  0.1496  0.3102 -1.2095
  389MOL0     C51245   3.980   6.310   4.313  0.1345 -0.1790  0.2067
  389MOL0     O51246   3.887   6.253   4.392  0.3570 -0.0326  0.1245
  389MOL0     C51247   3.759   6.307   4.374 -0.3711 -0.7047  0.5738
  389MOL0     C51248   3.701   6.367   4.487 -0.1381  0.3613 -0.6806
  389MOL0     C51249   3.572   6.410   4.485  0.3263 -0.7992  0.4868
  389MOL0     C51250   3.490   6.398   4.373 -0.1877 -0.4453  0.1252
  389MOL0     O51251   3.371   6.463   4.385 -0.3811  0.5813 -0.2364
  389MOL0     C51252   3.277   6.451   4.278  0.3599  0.7434 -0.2299
  389MOL0     C51253   3.141   6.519   4.311 -1.2042  0.8010 -0.1693
  389MOL0     C51254   3.080   6.469   4.448 -1.2649  0.0307 -0.4400
  389MOL0     C51255   2.935   6.524   4.469  0.3998  0.2085  0.5328
  389MOL0     C51256   2.871   6.489   4.604 -0.3861 -0.6806  0.1570
  389MOL0     C51257   2.732   6.550   4.605  0.0603 -0.4797  0.2662
  389MOL0     C51258   2.639   6.480   4.507 -0.3138  0.0195 -0.8528
  389MOL0     C51259   2.523   6.563   4.443 -0.3942  0.2219  0.3476
  389MOL0    Cl51260   2.406   6.458   4.373  0.7289 -0.1470 -0.0831
  389MOL0     C51261   3.544   6.343   4.259  0.5329  0.9428 -0.1197
  389MOL0     C51262   3.679   6.299   4.258  0.0734  0.5892 -0.0293
  389MOL0     O51263   3.960   6.395   4.228  1.0461  0.1957  0.1911
  389MOL0     C51264   4.232   6.293   4.246  0.7323 -0.1410  0.0007
  389MOL0     C51265   4.364   6.246   4.265  0.6239  0.3901  0.3061
  389MOL0     N51266   5.046   5.916   4.340 -0.4564 -0.1906 -0.5112
  389MOL0     N51267   5.162   5.958   4.316 -0.6756 -0.2789  0.0334
  389MOL0     C51268   5.060   5.205   3.681 -0.5736  0.6111  0.2620
  389MOL0     C51269   4.914   5.203   3.690 -0.1674 -0.1841  0.6108
  389MOL0     C51270   4.498   5.149   3.514 -0.1309 -0.3432  0.2898
  389MOL0     C51271   4.417   5.252   3.555  0.0159  0.2210  1.0498
  389MOL0     C51272   4.273   5.250   3.540  0.2774  0.2950  0.4840
  389MOL0     C51273   4.222   5.131   3.492  0.0667 -0.3343 -1.4306
  389MOL0     O51274   4.092   5.107   3.490  0.4327  0.4617  0.1108
  389MOL0     C51275   3.977   5.188   3.519 -1.2235 -0.6056  0.7718
  389MOL0     C51276   3.888   5.222   3.403 -0.0634 -0.4734  0.6233
  389MOL0     C51277   3.960   5.307   3.295 -0.9380 -0.6122  0.1648
  389MOL0     C51278   3.877   5.325   3.175  0.3230 -0.6119  0.7168
  389MOL0     C51279   3.768   5.420   3.192  0.4592  0.2121 -0.1170
  389MOL0     C51280   3.686   5.502   3.226  0.2573  0.4156  0.3863
  389MOL0     C51281   4.296   5.018   3.458 -0.2667 -0.5794  0.0083
  389MOL0     C51282   4.435   5.033   3.462 -0.3791  0.5305  0.5921
  389MOL0     H51283   4.839   5.464   3.480 -0.5224 -1.5930 -0.6606
  389MOL0     H51284   5.079   5.480   3.472 -0.0197  0.7339  0.0277
  389MOL0     H51285   5.438   5.261   3.632 -0.9337  1.0869 -3.3062
  389MOL0     H51286   5.313   5.171   3.722  1.7300  1.1667  4.8618
  389MOL0     H51287   5.434   5.321   3.855 -0.1853  0.6134  1.1267
  389MOL0     H51288   5.261   5.360   3.867 -0.9580  1.6007 -1.0977
  389MOL0     H51289   5.272   5.538   3.726  0.3692 -0.5715 -1.2008
  389MOL0     H51290   5.452   5.542   3.714 -1.2657  1.3512 -1.0885
  389MOL0     H51291   5.275   5.553   3.961  1.3666  0.8160  2.2051
  389MOL0     H51292   5.454   5.560   3.964  0.5028  1.4513 -0.0800
  389MOL0     H51293   5.256   5.746   3.834  0.0838  1.2786 -0.8281
  389MOL0     H51294   5.424   5.775   3.833  1.3351 -2.0754  0.7715
  389MOL0     H51295   5.443   5.802   4.090 -0.2772  4.2000  0.6252
  389MOL0     H51296   5.272   5.782   4.099  0.9008  2.9845  1.4716
  389MOL0     H51297   5.403   5.987   3.938  0.7889 -2.4335 -1.3188
  389MOL0     H51298   5.226   5.960   3.929 -0.8119 -1.0835  0.5400
  389MOL0     H51299   5.282   6.140   4.099  1.5372  0.0023  0.7639
  389MOL0     H51300   5.368   6.018   4.188 -0.6040 -0.1129 -0.2650
  389MOL0     H51301   5.017   6.013   4.029 -1.7318 -1.0889 -0.3445
  389MOL0     H51302   4.823   5.756   4.212 -0.7928 -0.6714  1.2860
  389MOL0     H51303   4.792   5.894   4.110  1.2410 -0.9890 -0.6908
  389MOL0     H51304   4.778   5.958   4.404 -1.9622  2.0948 -0.6738
  389MOL0     H51305   4.633   5.878   4.326 -1.5166  1.4587 -0.3453
  389MOL0     H51306   4.780   6.121   4.216 -0.0079 -0.2498  1.4101
  389MOL0     H51307   4.611   6.078   4.186  1.4337 -1.6055 -2.8370
  389MOL0     H51308   4.616   6.277   4.329 -0.6859  0.2989  1.1972
  389MOL0     H51309   4.712   6.195   4.439 -0.9308 -0.9913  0.7126
  389MOL0     H51310   4.311   6.071   4.551  0.5200  1.5448  0.8259
  389MOL0     H51311   4.071   6.126   4.510  1.7347 -1.2983  2.4211
  389MOL0     H51312   3.755   6.385   4.579 -2.3617  0.9652  0.5516
  389MOL0     H51313   3.526   6.464   4.567  0.1692  1.1476 -0.8176
  389MOL0     H51314   3.256   6.346   4.255  0.2630  0.4271  1.2352
  389MOL0     H51315   3.322   6.495   4.189  0.7468 -0.4316 -0.6395
  389MOL0     H51316   3.071   6.488   4.233 -0.0251 -2.2555 -0.1316
  389MOL0     H51317   3.170   6.625   4.307  2.8821 -0.1561 -0.4186
  389MOL0     H51318   3.142   6.489   4.535 -1.8750 -0.9509  0.2288
  389MOL0     H51319   3.092   6.361   4.443 -0.4942  0.0409  0.8576
  389MOL0     H51320   2.940   6.632   4.452 -1.9236  0.9886  3.9398
  389MOL0     H51321   2.878   6.475   4.390 -3.7180  2.6299  1.7277
  389MOL0     H51322   2.925   6.530   4.690 -2.2078  0.0640  0.9837
  389MOL0     H51323   2.864   6.382   4.626  1.4873 -0.9339 -0.3171
  389MOL0     H51324   2.747   6.651   4.567  1.2133 -1.4689 -2.1169
  389MOL0     H51325   2.682   6.560   4.702 -0.8199 -1.1983 -0.0946
  389MOL0     H51326   2.698   6.421   4.437  1.5567 -0.9635  1.4257
  389MOL0     H51327   2.596   6.405   4.575 -1.6616 -0.2278 -1.9216
  389MOL0     H51328   2.556   6.632   4.364  0.4422 -0.4413  0.1074
  389MOL0     H51329   2.468   6.620   4.519  0.4592  0.4562  0.7943
  389MOL0     H51330   3.488   6.340   4.166 -1.3443 -3.7345  0.8909
  389MOL0     H51331   3.728   6.260   4.169 -0.8779 -2.8869  0.8165
  389MOL0     H51332   4.215   6.359   4.162 -1.2556 -0.3768  0.1802
  389MOL0     H51333   4.433   6.287   4.192 -1.0774  2.9683 -0.0113
  389MOL0     H51334   5.122   5.143   3.744  3.6257  2.8908 -1.2611
  389MOL0     H51335   4.870   5.136   3.763 -0.4323 -3.1175 -2.0045
  389MOL0     H51336   4.453   5.346   3.596 -4.7121  3.0996 -0.5588
  389MOL0     H51337   4.217   5.342   3.549  0.9395  0.7773 -0.1988
  389MOL0     H51338   4.002   5.283   3.567 -0.0635 -0.9989  0.9762
  389MOL0     H51339   3.914   5.134   3.590 -2.5924 -0.2461 -0.1288
  389MOL0     H51340   3.850   5.131   3.357 -2.6390  1.5043 -1.4932
  389MOL0     H51341   3.809   5.283   3.450 -3.3944 -3.3321 -0.8274
  389MOL0     H51342   4.047   5.254   3.255  1.7595  3.6984 -0.2644
  389MOL0     H51343   4.003   5.398   3.337  2.9220 -1.4758 -1.5048
  389MOL0     H51344   3.933   5.362   3.089 -2.6703 -1.0481 -1.5822
  389MOL0     H51345   3.839   5.228   3.143  0.5145 -0.6303  0.5406
  389MOL0     H51346   3.602   5.567   3.242  0.7840  1.5196 -1.1039
  389MOL0     H51347   4.252   4.924   3.425  0.1395 -0.8099  0.1086
  389MOL0     H51348   4.491   4.948   3.423 -1.3803  1.1669 -2.4677
  390MOL0     O51349   9.469   1.419   4.396 -0.5641  0.1696  0.2671
  390MOL0     C51350   9.428   1.306   4.378  0.2163 -0.6274 -0.6894
  390MOL0     O51351   9.509   1.205   4.323  0.6523  0.0726  0.1078
  390MOL0     C51352   9.633   1.250   4.279  0.1614  0.2286  1.3311
  390MOL0     C51353   9.661   1.351   4.189  0.6866  0.0896  0.1346
  390MOL0     C51354   9.791   1.366   4.139  0.1683  1.1275 -0.6374
  390MOL0     C51355   9.896   1.294   4.199  0.9130  0.5984  0.6893
  390MOL0     O51356  10.017   1.308   4.151 -0.0531  0.2444  0.7884
  390MOL0     C51357  10.070   1.445   4.155 -0.1586 -0.0317 -0.2850
  390MOL0     C51358  10.218   1.470   4.172  1.2677  0.2847  0.7658
  390MOL0     C51359  10.274   1.415   4.300 -0.5300 -0.0447  0.0136
  390MOL0     C51360  10.422   1.446   4.325 -0.5604 -0.5158 -0.2973
  390MOL0     C51361  10.447   1.426   4.480  0.4814 -0.3365  0.1545
  390MOL0     C51362  10.414   1.280   4.510  0.0971 -0.4378  0.5319
  390MOL0     C51363  10.471   1.227   4.650  0.7244 -0.4094  0.1868
  390MOL0     C51364  10.445   1.076   4.673  0.4354  0.4605 -0.0790
  390MOL0     N51365  10.303   1.044   4.651 -0.1917 -0.4662  0.2522
  390MOL0     C51366  10.208   1.082   4.742  0.1807  0.0127  0.1814
  390MOL0     C51367  10.097   1.057   4.675  0.7790 -0.0684  0.3993
  390MOL0     C51368   9.959   1.068   4.729  0.5768 -0.1866 -0.8443
  390MOL0     C51369   9.943   0.957   4.837  0.3948 -0.1414 -0.6532
  390MOL0     C51370   9.921   0.819   4.788  0.6487  0.4193  0.5575
  390MOL0     C51371   9.792   0.803   4.710  0.2691  0.0812  0.5688
  390MOL0     O51372   9.768   0.666   4.664  0.2938 -0.1675 -0.3317
  390MOL0     C51373   9.633   0.623   4.669 -0.2360 -0.0742  0.1418
  390MOL0     C51374   9.609   0.485   4.667 -0.7277  0.6210 -0.3121
  390MOL0     C51375   9.479   0.435   4.659  0.2731 -0.4475  0.2351
  390MOL0     C51376   9.371   0.518   4.673 -0.2454 -0.5404  0.1932
  390MOL0     C51377   9.230   0.471   4.695  0.1296 -0.0532  0.9254
  390MOL0     O51378   9.125   0.566   4.717  0.3537  0.2992  0.7187
  390MOL0     C51379   8.992   0.529   4.718 -0.4116  0.6619  0.5677
  390MOL0     C51380   8.940   0.399   4.673 -0.1681  0.0560  0.2250
  390MOL0     C51381   8.807   0.348   4.690 -0.8065 -0.9917  0.5915
  390MOL0     C51382   8.718   0.423   4.757  0.1898 -0.4045 -0.1573
  390MOL0     O51383   8.594   0.370   4.759 -0.8571 -0.0278 -0.2133
  390MOL0     C51384   8.484   0.437   4.810  0.5051 -0.4876  0.6571
  390MOL0     C51385   8.411   0.355   4.906  0.2988  1.1639  0.1737
  390MOL0     C51386   8.300   0.420   4.987  0.1694  0.2964  1.0773
  390MOL0     C51387   8.223   0.318   5.071  0.4160 -0.6062  0.1249
  390MOL0     C51388   8.120   0.392   5.159 -0.0118  0.2152 -0.5078
  390MOL0     C51389   7.998   0.442   5.081 -0.0241  0.1168  0.0922
  390MOL0     C51390   7.922   0.532   5.188 -0.0657 -0.2244 -0.2914
  390MOL0     C51391   7.795   0.600   5.131 -0.5005  0.8308 -0.7781
  390MOL0    Cl51392   7.823   0.692   4.983  0.1490  0.2532 -0.2160
  390MOL0     C51393   8.764   0.552   4.794  0.5201 -0.3068 -0.4021
  390MOL0     C51394   8.896   0.607   4.770 -0.1424  0.6816 -0.0583
  390MOL0     O51395   9.223   0.348   4.701 -0.0529 -0.3192  0.1806
  390MOL0     C51396   9.391   0.659   4.675 -0.3839  0.1663 -0.4338
  390MOL0     C51397   9.517   0.713   4.673 -0.5626  0.4030  0.1393
  390MOL0     N51398  10.127   1.018   4.550  0.6430 -0.6903  0.3774
  390MOL0     N51399  10.252   1.005   4.531 -0.2095 -0.2034 -0.8476
  390MOL0     C51400   9.862   1.199   4.298 -0.9026  0.8107 -0.1400
  390MOL0     C51401   9.736   1.180   4.334  0.0842 -0.1625 -0.2724
  390MOL0     C51402   9.285   1.271   4.414  0.5290  1.1426  0.0928
  390MOL0     C51403   9.231   1.143   4.439 -1.1580  0.3546  0.3252
  390MOL0     C51404   9.096   1.132   4.465  1.0348 -0.5674  0.1544
  390MOL0     C51405   9.013   1.245   4.479 -0.1650  0.2169  0.2993
  390MOL0     O51406   8.881   1.222   4.504  0.6216 -0.4715  0.5988
  390MOL0     C51407   8.793   1.327   4.503  1.0902 -0.5749 -0.3350
  390MOL0     C51408   8.646   1.277   4.528 -0.5584  0.3211  0.6153
  390MOL0     C51409   8.575   1.343   4.640  0.1234 -0.2977 -0.2951
  390MOL0     C51410   8.477   1.248   4.707  0.5439 -0.7306 -0.0876
  390MOL0     C51411   8.383   1.171   4.616  0.1792 -0.2005  1.1563
  390MOL0     C51412   8.297   1.121   4.547 -0.1281  0.1172  0.1589
  390MOL0     C51413   9.070   1.369   4.455  0.1616 -0.1961  0.8604
  390MOL0     C51414   9.199   1.383   4.415 -0.0985 -0.5597 -0.7157
  390MOL0     H51415   9.579   1.411   4.149  0.5823 -0.7040 -0.8715
  390MOL0     H51416   9.816   1.441   4.065 -3.3246  1.3925 -1.7228
  390MOL0     H51417  10.024   1.502   4.236 -0.5361  0.2533 -0.6960
  390MOL0     H51418  10.031   1.499   4.069 -5.8665  1.5933  2.8459
  390MOL0     H51419  10.233   1.578   4.162 -1.0621  0.6464  0.5530
  390MOL0     H51420  10.274   1.432   4.087  1.2416  0.1591  0.8046
  390MOL0     H51421  10.269   1.306   4.302 -1.3080 -0.0203 -0.1934
  390MOL0     H51422  10.224   1.450   4.391  0.8970 -0.0740  0.8410
  390MOL0     H51423  10.492   1.390   4.263  1.4141  2.3902 -0.8993
  390MOL0     H51424  10.437   1.551   4.299 -6.5281  0.6306 -0.5538
  390MOL0     H51425  10.402   1.504   4.543  2.5696  1.3949 -0.3949
  390MOL0     H51426  10.553   1.443   4.501 -0.0724  1.2540  2.0055
  390MOL0     H51427  10.456   1.229   4.423 -2.6015  0.9170 -1.7251
  390MOL0     H51428  10.306   1.266   4.518  0.3074 -1.1713  4.0040
  390MOL0     H51429  10.580   1.241   4.653  0.6740  0.2980 -1.0409
  390MOL0     H51430  10.418   1.295   4.717  1.1188 -0.6108  0.7146
  390MOL0     H51431  10.470   1.049   4.775  1.8101  1.3168 -0.1604
  390MOL0     H51432  10.510   1.017   4.608 -1.4378 -0.1000 -1.5588
  390MOL0     H51433  10.221   1.118   4.844 -2.9708  1.3131  0.2390
  390MOL0     H51434   9.897   1.066   4.638  0.7706  0.8846 -1.0078
  390MOL0     H51435   9.948   1.163   4.782 -0.9844 -0.6955 -0.1944
  390MOL0     H51436   9.866   0.985   4.909  0.0372  0.3300 -1.2158
  390MOL0     H51437  10.044   0.960   4.880  0.5601  1.7528 -1.0886
  390MOL0     H51438  10.006   0.777   4.734  0.1493 -0.2061  0.2359
  390MOL0     H51439   9.895   0.760   4.876 -1.7813 -1.1469 -1.0536
  390MOL0     H51440   9.785   0.875   4.628 -0.1749 -0.5036  0.0826
  390MOL0     H51441   9.717   0.828   4.786 -0.2875 -0.7775  0.3188
  390MOL0     H51442   9.688   0.411   4.658 -0.6211  0.9452 -2.4454
  390MOL0     H51443   9.466   0.327   4.656 -2.2676 -0.2527  1.5606
  390MOL0     H51444   9.006   0.324   4.629 -2.8646 -1.1588 -2.0020
  390MOL0     H51445   8.780   0.253   4.645 -1.3306 -0.4565 -0.2486
  390MOL0     H51446   8.423   0.466   4.723  4.0715 -0.9322 -2.2296
  390MOL0     H51447   8.517   0.518   4.875  1.6425 -2.7662  3.0915
  390MOL0     H51448   8.487   0.317   4.975 -0.7760 -0.9309  0.2695
  390MOL0     H51449   8.370   0.263   4.864 -1.2294  0.9135  2.0776
  390MOL0     H51450   8.231   0.469   4.918 -2.1159 -3.6437  0.2714
  390MOL0     H51451   8.343   0.501   5.046 -1.6307  2.8972 -0.9897
  390MOL0     H51452   8.160   0.252   5.010 -2.2831  2.7365 -1.0029
  390MOL0     H51453   8.294   0.255   5.127 -1.4375 -1.9318  1.1297
  390MOL0     H51454   8.174   0.471   5.214 -1.6372  1.2323 -0.3102
  390MOL0     H51455   8.092   0.311   5.227  0.0075 -1.7882 -2.7737
  390MOL0     H51456   7.931   0.363   5.047 -0.0654 -1.2481  3.0302
  390MOL0     H51457   8.029   0.498   4.992 -0.2071 -2.9517 -2.0550
  390MOL0     H51458   7.899   0.476   5.279  0.1318  0.4953  0.2062
  390MOL0     H51459   7.986   0.612   5.225  2.0445 -0.8154 -2.4280
  390MOL0     H51460   7.742   0.654   5.210 -3.1624 -1.8507 -0.5750
  390MOL0     H51461   7.720   0.526   5.101  0.4752  0.0464 -1.3417
  390MOL0     H51462   8.693   0.614   4.848  1.9578  0.7382  0.3462
  390MOL0     H51463   8.905   0.712   4.797  2.9422 -0.0188  2.2203
  390MOL0     H51464   9.310   0.728   4.697 -1.4418 -1.4013  0.7948
  390MOL0     H51465   9.520   0.819   4.694  0.2781  0.2537  0.8304
  390MOL0     H51466   9.948   1.151   4.343  0.2991  3.5616  0.6869
  390MOL0     H51467   9.716   1.109   4.413  2.7592  0.8306  1.4250
  390MOL0     H51468   9.292   1.053   4.432 -0.2415  0.9915 -0.0767
  390MOL0     H51469   9.040   1.040   4.475 -1.6544  0.7811 -1.3698
  390MOL0     H51470   8.794   1.383   4.410 -0.2865 -1.6134 -1.0182
  390MOL0     H51471   8.830   1.395   4.580  1.1210 -1.6340  0.6103
  390MOL0     H51472   8.588   1.283   4.436 -2.2855 -1.6624  1.4787
  390MOL0     H51473   8.652   1.175   4.569 -0.1336 -0.1046 -0.4829
  390MOL0     H51474   8.525   1.434   4.605  1.1729  0.9712  1.3500
  390MOL0     H51475   8.654   1.362   4.713  0.1303  0.5049 -0.5084
  390MOL0     H51476   8.522   1.180   4.779 -1.7432  1.4573  3.7204
  390MOL0     H51477   8.405   1.314   4.756 -0.4569  1.8549 -4.4594
  390MOL0     H51478   8.235   1.070   4.476  2.2651 -0.3338 -1.7064
  390MOL0     H51479   9.007   1.458   4.453  1.5385  0.8461 -2.4575
  390MOL0     H51480   9.227   1.487   4.405 -1.3624 -0.2481 -1.2432
  391MOL0     O51481   6.792   3.663   5.153  0.0149  0.0901 -0.5780
  391MOL0     C51482   6.740   3.573   5.224  0.5484  0.3915  0.1381
  391MOL0     O51483   6.801   3.510   5.332 -0.5830 -1.0886  0.0272
  391MOL0     C51484   6.939   3.509   5.341 -0.1238  0.3963 -0.0101
  391MOL0     C51485   7.000   3.553   5.459  0.4354  0.3199 -0.6654
  391MOL0     C51486   7.137   3.566   5.466  0.8850 -0.2664 -0.4853
  391MOL0     C51487   7.217   3.554   5.352  0.5440 -0.1395  0.1761
  391MOL0     O51488   7.354   3.573   5.339  0.0307 -0.7786 -0.2573
  391MOL0     C51489   7.420   3.614   5.463  0.9410  0.3701  0.2004
  391MOL0     C51490   7.569   3.626   5.434  0.1995  0.4990 -0.2594
  391MOL0     C51491   7.650   3.727   5.526  0.4426  0.5454 -0.2204
  391MOL0     C51492   7.740   3.650   5.627  0.1620 -0.5768  0.2468
  391MOL0     C51493   7.832   3.748   5.704  0.4346  0.2373 -0.7664
  391MOL0     C51494   7.933   3.831   5.618  0.6964  0.0213  1.1586
  391MOL0     C51495   8.061   3.842   5.686 -0.4829  0.6806 -0.2264
  391MOL0     C51496   8.148   3.948   5.620 -0.6656 -0.0699  0.0844
  391MOL0     N51497   8.289   3.924   5.651 -0.7021  0.8697  0.5785
  391MOL0     C51498   8.394   3.981   5.569  0.1589  0.8886 -0.6875
  391MOL0     C51499   8.503   3.909   5.603  0.2401  0.6250 -0.1897
  391MOL0     C51500   8.649   3.935   5.571  0.4081 -0.3072  0.9471
  391MOL0     C51501   8.657   3.982   5.427  0.0285  1.3016 -0.1255
  391MOL0     C51502   8.677   3.868   5.328  0.1204  0.3183 -0.0228
  391MOL0     C51503   8.544   3.833   5.276  0.8587  0.4977  0.0527
  391MOL0     O51504   8.448   3.937   5.253  0.3748 -0.5802 -0.0133
  391MOL0     C51505   8.311   3.917   5.254 -0.6841  0.0401 -0.0979
  391MOL0     C51506   8.237   4.024   5.211 -0.5119  0.6369 -0.9182
  391MOL0     C51507   8.098   4.021   5.210  0.2513 -0.3047  0.7650
  391MOL0     C51508   8.031   3.896   5.233  0.5977  0.0687 -0.3967
  391MOL0     C51509   7.881   3.888   5.223 -0.0567  0.5377 -1.3049
  391MOL0     O51510   7.804   3.997   5.203 -0.4409  1.0830 -0.0624
  391MOL0     C51511   7.667   3.977   5.190 -0.5437 -0.3003  0.2752
  391MOL0     C51512   7.578   3.992   5.297  0.8092  0.5860  0.3119
  391MOL0     C51513   7.438   3.985   5.283 -0.2554  1.1408  0.2434
  391MOL0     C51514   7.382   3.970   5.156 -0.9878  0.8790  0.4050
  391MOL0     O51515   7.245   3.979   5.134  0.0854 -0.7787  0.4050
  391MOL0     C51516   7.176   3.878   5.211 -0.0121  1.2926 -0.7626
  391MOL0     C51517   7.043   3.941   5.238  0.4910 -0.1640  0.1317
  391MOL0     C51518   6.966   3.953   5.108  0.3112 -0.7801  0.5071
  391MOL0     C51519   6.826   4.011   5.116 -0.5719  0.3075 -0.0232
  391MOL0     C51520   6.758   3.992   4.979  0.8681 -0.8660 -0.1330
  391MOL0     C51521   6.789   4.102   4.877  1.3077 -0.0667 -0.2083
  391MOL0     C51522   6.710   4.241   4.895  0.2431  0.3605  0.2270
  391MOL0     C51523   6.782   4.356   4.816  0.0669  0.0999 -0.6560
  391MOL0    Cl51524   6.676   4.500   4.796 -0.1940 -0.1215  0.0597
  391MOL0     C51525   7.470   3.940   5.044 -0.0672 -0.0561 -0.2051
  391MOL0     C51526   7.609   3.949   5.070  0.2757  0.4343  0.1315
  391MOL0     O51527   7.841   3.775   5.232 -0.1478  0.1959 -0.1278
  391MOL0     C51528   8.109   3.784   5.258 -0.3401  0.1992 -0.3618
  391MOL0     C51529   8.249   3.794   5.279 -1.2458 -0.5251  0.5967
  391MOL0     N51530   8.469   3.820   5.702 -0.0087  0.1259 -0.0621
  391MOL0     N51531   8.341   3.826   5.728  0.3093  0.0075  0.3522
  391MOL0     C51532   7.154   3.517   5.236 -0.2480  0.2345  0.5871
  391MOL0     C51533   7.018   3.487   5.232 -0.0395  0.3157 -0.6641
  391MOL0     C51534   6.602   3.544   5.203 -0.6292  0.4786 -0.0109
  391MOL0     C51535   6.543   3.579   5.084  0.7691  0.4822 -0.3969
  391MOL0     C51536   6.404   3.557   5.070  0.6982 -1.2829  0.3234
  391MOL0     C51537   6.326   3.493   5.172  0.5181 -0.1296  0.3893
  391MOL0     O51538   6.195   3.473   5.153 -0.0414  0.2280 -0.3122
  391MOL0     C51539   6.113   3.513   5.266  0.0143 -0.1595 -0.7575
  391MOL0     C51540   6.043   3.647   5.247  1.0255  0.1811  0.2678
  391MOL0     C51541   5.916   3.635   5.156 -0.0566 -0.3040 -0.0969
  391MOL0     C51542   5.795   3.566   5.234 -0.0659 -0.0301  1.7163
  391MOL0     C51543   5.747   3.634   5.352  0.8122 -0.4949 -0.8337
  391MOL0     C51544   5.699   3.677   5.457  1.6904  0.1667  0.3774
  391MOL0     C51545   6.391   3.454   5.289 -0.3393 -0.4103  0.7746
  391MOL0     C51546   6.526   3.482   5.304  0.0964  0.2876 -0.0315
  391MOL0     H51547   6.940   3.593   5.540 -1.2151  0.5468 -1.9335
  391MOL0     H51548   7.172   3.610   5.559 -0.3413  2.2575 -1.1442
  391MOL0     H51549   7.400   3.553   5.552 -0.8319  1.8543  0.8867
  391MOL0     H51550   7.381   3.710   5.497 -1.5409 -0.9596  1.3722
  391MOL0     H51551   7.585   3.674   5.337 -1.3586  3.6343  0.9089
  391MOL0     H51552   7.626   3.533   5.440 -0.0573  0.2951 -0.9190
  391MOL0     H51553   7.588   3.798   5.582  1.5396 -0.0147  1.8337
  391MOL0     H51554   7.709   3.789   5.459 -0.2645  0.3807 -1.0214
  391MOL0     H51555   7.674   3.604   5.702 -0.7981  0.5289  0.0979
  391MOL0     H51556   7.800   3.577   5.573 -3.0614 -2.6404 -0.8400
  391MOL0     H51557   7.881   3.689   5.782 -3.1109 -2.2555 -0.1871
  391MOL0     H51558   7.771   3.811   5.770 -0.3074 -1.4360  0.2309
  391MOL0     H51559   7.881   3.926   5.599  0.2326 -0.2673  0.9622
  391MOL0     H51560   7.947   3.789   5.517  0.7475  2.2045  0.1916
  391MOL0     H51561   8.058   3.870   5.792 -0.3559  0.0874 -0.0642
  391MOL0     H51562   8.108   3.745   5.671  0.0712  1.0603 -1.0271
  391MOL0     H51563   8.121   4.047   5.658 -0.1836 -0.7968  2.5124
  391MOL0     H51564   8.123   3.955   5.514 -1.4067  0.4355  0.2872
  391MOL0     H51565   8.382   4.067   5.505 -3.1087  0.2599 -1.0743
  391MOL0     H51566   8.728   3.862   5.591  1.1976  0.2471 -0.0548
  391MOL0     H51567   8.673   4.021   5.634  2.4737 -0.8679  0.9750
  391MOL0     H51568   8.753   4.032   5.412 -0.1014  1.3903 -0.6789
  391MOL0     H51569   8.594   4.065   5.394  0.2560  1.4788 -0.1150
  391MOL0     H51570   8.742   3.905   5.247 -2.0130 -0.6646 -2.3188
  391MOL0     H51571   8.724   3.786   5.382 -0.2448 -0.5547 -1.0041
  391MOL0     H51572   8.507   3.768   5.355 -1.4807  0.3111 -1.1175
  391MOL0     H51573   8.554   3.767   5.189  4.5433  1.9908 -0.8769
  391MOL0     H51574   8.288   4.117   5.191 -1.4893  1.1225 -1.2338
  391MOL0     H51575   8.036   4.109   5.197 -1.5272 -1.0132  3.6195
  391MOL0     H51576   7.623   4.004   5.395  0.5595 -1.2212  0.6702
  391MOL0     H51577   7.375   3.985   5.371 -2.8809 -3.9890 -1.2600
  391MOL0     H51578   7.223   3.843   5.303 -0.0622  3.2043  0.0509
  391MOL0     H51579   7.165   3.791   5.145 -2.4591 -0.1012  1.2863
  391MOL0     H51580   7.050   4.036   5.292 -1.5373  0.2069 -0.1757
  391MOL0     H51581   6.985   3.869   5.296  0.5326  0.6889  1.2568
  391MOL0     H51582   6.958   3.854   5.063  1.4222 -0.2374 -0.9644
  391MOL0     H51583   7.032   4.014   5.046  1.1212 -1.6238  0.5160
  391MOL0     H51584   6.759   3.947   5.174 -2.2173  1.8604 -0.1069
  391MOL0     H51585   6.823   4.115   5.150  1.8140 -0.4640  3.0029
  391MOL0     H51586   6.651   3.970   4.988 -0.2473  3.5311 -0.5000
  391MOL0     H51587   6.787   3.898   4.930 -0.7054 -2.3463  1.6247
  391MOL0     H51588   6.750   4.057   4.785  1.2765  1.0719 -0.7774
  391MOL0     H51589   6.895   4.127   4.889  1.3906 -1.2917  2.2291
  391MOL0     H51590   6.608   4.218   4.863  0.2269 -0.2782  0.7196
  391MOL0     H51591   6.702   4.265   5.002  1.0543 -2.6399  1.0677
  391MOL0     H51592   6.810   4.327   4.714  1.6149  0.3821 -0.3282
  391MOL0     H51593   6.872   4.387   4.868 -0.4788 -0.7695  0.8673
  391MOL0     H51594   7.429   3.902   4.951  1.8316  1.5426 -1.7832
  391MOL0     H51595   7.664   3.920   4.981  0.2415  2.5642 -0.6243
  391MOL0     H51596   8.072   3.682   5.264 -1.2696  0.6098  1.2445
  391MOL0     H51597   8.313   3.708   5.289  0.8589  1.0150  1.0623
  391MOL0     H51598   7.217   3.506   5.148  1.4961 -1.7531  1.9906
  391MOL0     H51599   6.974   3.442   5.143 -0.3654 -0.1414 -0.2791
  391MOL0     H51600   6.598   3.643   5.015  0.6638 -0.7647 -1.6686
  391MOL0     H51601   6.353   3.602   4.986  0.4583  0.3961  1.3145
  391MOL0     H51602   6.167   3.542   5.357 -2.0876  1.7116  0.0045
  391MOL0     H51603   6.047   3.430   5.294  3.8364 -2.4619  2.5297
  391MOL0     H51604   6.012   3.695   5.340  2.6901  2.6108 -0.3371
  391MOL0     H51605   6.112   3.725   5.214  0.6808  0.9915  1.3912
  391MOL0     H51606   5.942   3.575   5.068 -1.7273 -0.9068 -0.2138
  391MOL0     H51607   5.887   3.738   5.132 -0.0902  0.4401  2.7785
  391MOL0     H51608   5.718   3.560   5.156  0.3284 -2.3420  1.4019
  391MOL0     H51609   5.808   3.458   5.250 -1.8983 -0.8813 -1.6110
  391MOL0     H51610   5.663   3.711   5.552 -2.2244 -1.5104 -0.3186
  391MOL0     H51611   6.343   3.387   5.360 -2.0612  2.1209  2.1952
  391MOL0     H51612   6.572   3.444   5.395  0.7619 -0.2649 -0.5856
  392MOL0     O51613   6.211   4.718   4.463 -0.0707  0.0523  0.1747
  392MOL0     C51614   6.292   4.753   4.374  0.4645 -0.7547  0.6921
  392MOL0     O51615   6.266   4.851   4.282  0.6388  0.0600  0.1103
  392MOL0     C51616   6.141   4.907   4.272 -0.4792 -0.4483 -0.1700
  392MOL0     C51617   6.016   4.838   4.276  0.2913 -0.8637 -0.5286
  392MOL0     C51618   5.886   4.907   4.265 -0.1628 -0.1572  0.4242
  392MOL0     C51619   5.888   5.043   4.247 -0.1477 -0.1574  0.4979
  392MOL0     O51620   5.770   5.107   4.233  0.6340  0.1407  0.1636
  392MOL0     C51621   5.778   5.236   4.175 -0.3482 -0.7480 -0.1168
  392MOL0     C51622   5.652   5.315   4.142  0.6637 -0.1257 -0.0594
  392MOL0     C51623   5.591   5.374   4.260 -0.7946 -0.5657  0.1528
  392MOL0     C51624   5.468   5.463   4.228  0.8643 -1.0795  0.4582
  392MOL0     C51625   5.372   5.466   4.349  0.5328  0.2812  0.0676
  392MOL0     C51626   5.263   5.578   4.306  0.1302  0.4584  0.2112
  392MOL0     C51627   5.155   5.585   4.419 -1.3778  0.0087  1.0576
  392MOL0     C51628   5.037   5.484   4.387  0.2054  1.3962  0.4316
  392MOL0     N51629   4.936   5.484   4.494 -0.0173 -0.3195 -0.6916
  392MOL0     C51630   4.890   5.591   4.565  0.0069 -0.4757  0.4577
  392MOL0     C51631   4.770   5.553   4.621 -0.2171  0.6015 -0.0716
  392MOL0     C51632   4.694   5.638   4.718  0.8075 -0.3263 -0.6330
  392MOL0     C51633   4.550   5.660   4.677  0.5076 -0.5071 -1.0410
  392MOL0     C51634   4.521   5.765   4.568  0.7139  0.9402  0.1561
  392MOL0     C51635   4.372   5.788   4.529 -0.3767  0.1521  0.2887
  392MOL0     O51636   4.300   5.818   4.651 -0.3524  0.0202  0.2220
  392MOL0     C51637   4.168   5.849   4.640  0.4039 -0.0791 -0.6020
  392MOL0     C51638   4.086   5.853   4.514  0.2049  0.2125 -0.4635
  392MOL0     C51639   3.951   5.879   4.513  0.7723 -0.2514  0.0659
  392MOL0     C51640   3.894   5.922   4.634  0.1591 -0.7588 -0.0949
  392MOL0     C51641   3.750   5.924   4.637  0.2414 -0.4544  0.8372
  392MOL0     O51642   3.694   5.957   4.758 -0.0918  0.4771  0.3115
  392MOL0     C51643   3.556   5.979   4.741  0.1841 -0.8573  0.6977
  392MOL0     C51644   3.501   6.082   4.654  0.1045 -0.8934 -0.4741
  392MOL0     C51645   3.362   6.087   4.631  0.3036 -1.0740 -0.8855
  392MOL0     C51646   3.276   6.001   4.700 -0.1119  0.1464 -0.0669
  392MOL0     O51647   3.150   6.028   4.654 -0.3136  0.6224  0.0010
  392MOL0     C51648   3.045   6.027   4.753 -0.0836 -0.0218  0.4873
  392MOL0     C51649   2.928   6.117   4.699 -0.0754 -0.1542 -0.6637
  392MOL0     C51650   2.814   6.044   4.632 -0.7804 -0.1054 -0.1573
  392MOL0     C51651   2.699   6.142   4.590 -0.4710  0.3837 -0.0551
  392MOL0     C51652   2.580   6.057   4.557 -0.2356 -0.3489 -0.4936
  392MOL0     C51653   2.460   6.151   4.513 -0.2074  0.1587 -0.4099
  392MOL0     C51654   2.350   6.061   4.490 -0.6069  0.5490  0.8459
  392MOL0     C51655   2.270   6.006   4.613 -0.3339 -0.4009  0.2591
  392MOL0    Cl51656   2.137   5.927   4.532 -0.0277 -0.2366 -0.0395
  392MOL0     C51657   3.319   5.908   4.797 -0.9435  0.5309  0.6518
  392MOL0     C51658   3.456   5.896   4.810  0.5678 -0.7086 -0.2590
  392MOL0     O51659   3.687   5.916   4.532  0.0311  0.4039  0.3909
  392MOL0     C51660   3.978   5.934   4.755 -0.1374  0.2370  0.2904
  392MOL0     C51661   4.111   5.908   4.755  0.7299  0.4219  1.0353
  392MOL0     N51662   4.752   5.417   4.591 -0.0360  0.6779  0.3227
  392MOL0     N51663   4.855   5.374   4.518 -0.2386  0.5640 -0.0383
  392MOL0     C51664   6.017   5.108   4.244  0.2799 -0.7783  0.2033
  392MOL0     C51665   6.137   5.041   4.243  0.0757  0.2081 -0.1585
  392MOL0     C51666   6.433   4.694   4.367 -0.0303 -0.1556 -0.6006
  392MOL0     C51667   6.472   4.591   4.453 -0.2072 -0.8411 -0.4452
  392MOL0     C51668   6.603   4.554   4.461  0.3475  1.1939 -0.2926
  392MOL0     C51669   6.698   4.603   4.369 -0.7075  0.2456 -0.3305
  392MOL0     O51670   6.825   4.555   4.359 -0.3141  0.3880  0.3748
  392MOL0     C51671   6.897   4.518   4.482  0.3166  0.1672  0.3669
  392MOL0     C51672   7.037   4.471   4.431  0.4741  0.2246 -0.6416
  392MOL0     C51673   7.108   4.404   4.555  0.0667 -0.0334  0.1006
  392MOL0     C51674   7.259   4.373   4.521  0.0368 -1.2724  0.6053
  392MOL0     C51675   7.323   4.317   4.649 -0.3835 -0.2113 -0.6970
  392MOL0     C51676   7.368   4.259   4.748 -0.6735 -0.0702  0.1127
  392MOL0     C51677   6.658   4.695   4.277 -0.0336 -0.2464  0.0928
  392MOL0     C51678   6.535   4.750   4.282 -0.5157 -0.0722 -0.0736
  392MOL0     H51679   6.015   4.734   4.306  0.6407 -0.7218  0.0008
  392MOL0     H51680   5.794   4.850   4.272 -0.2779  0.0708  0.8021
  392MOL0     H51681   5.826   5.238   4.077  0.2939 -1.0083  0.1867
  392MOL0     H51682   5.833   5.304   4.241  0.3933 -0.0215 -1.4583
  392MOL0     H51683   5.583   5.252   4.084 -0.5758  2.1863 -1.2103
  392MOL0     H51684   5.683   5.396   4.075  0.5663 -1.8336 -2.2975
  392MOL0     H51685   5.667   5.431   4.314 -0.1432 -0.2284 -1.1105
  392MOL0     H51686   5.560   5.294   4.328 -0.7714 -0.4580  0.2907
  392MOL0     H51687   5.500   5.564   4.202 -1.3578 -0.3101  0.5184
  392MOL0     H51688   5.414   5.419   4.144  0.7863  1.6845 -1.0509
  392MOL0     H51689   5.428   5.487   4.441  0.5287  3.5917 -0.5486
  392MOL0     H51690   5.318   5.372   4.341  1.7579 -0.3284 -1.9623
  392MOL0     H51691   5.218   5.569   4.206 -2.2560 -1.9902  1.3661
  392MOL0     H51692   5.320   5.670   4.293 -0.6533  0.5975 -2.9927
  392MOL0     H51693   5.206   5.560   4.512  2.2792  0.4726 -0.6593
  392MOL0     H51694   5.109   5.684   4.428  1.0861  1.4698 -0.9456
  392MOL0     H51695   5.086   5.387   4.397  1.6833  2.2749  2.9365
  392MOL0     H51696   4.997   5.484   4.286  0.9464  0.2489  0.1267
  392MOL0     H51697   4.921   5.695   4.565  2.1015 -1.0333  1.6947
  392MOL0     H51698   4.741   5.734   4.738 -0.1509 -0.0534  0.4215
  392MOL0     H51699   4.690   5.598   4.820 -0.2987  2.0189  0.2999
  392MOL0     H51700   4.498   5.691   4.768  2.8111  2.0877 -0.4749
  392MOL0     H51701   4.501   5.567   4.648 -0.1744 -0.9955  1.5229
  392MOL0     H51702   4.553   5.864   4.603 -0.5583  0.6449  2.3470
  392MOL0     H51703   4.574   5.731   4.479 -1.0255  1.1176 -1.0099
  392MOL0     H51704   4.319   5.702   4.487 -1.0040  1.0479 -0.7928
  392MOL0     H51705   4.368   5.869   4.456 -0.6599  0.2852  0.4467
  392MOL0     H51706   4.136   5.814   4.425 -0.9083  1.1571 -1.5484
  392MOL0     H51707   3.887   5.850   4.431  1.2321 -2.6670  0.4805
  392MOL0     H51708   3.579   6.151   4.625 -1.7223  1.3264 -0.3551
  392MOL0     H51709   3.313   6.162   4.571  0.3308  0.5477  1.0099
  392MOL0     H51710   3.072   6.077   4.846 -1.0509  3.0139 -0.7294
  392MOL0     H51711   3.010   5.924   4.763  2.9440 -1.3406 -1.3753
  392MOL0     H51712   2.970   6.195   4.635 -1.2557  3.1844  2.3079
  392MOL0     H51713   2.886   6.187   4.771  2.5413  3.6137 -2.4539
  392MOL0     H51714   2.771   5.967   4.696 -2.9386  0.8096 -0.4160
  392MOL0     H51715   2.860   5.999   4.543  0.4715  2.2027 -0.7923
  392MOL0     H51716   2.682   6.211   4.674  0.7678  1.5956 -0.7682
  392MOL0     H51717   2.728   6.203   4.504  0.6027 -2.8105 -2.1145
  392MOL0     H51718   2.566   6.001   4.650  3.1997  0.7542  0.8469
  392MOL0     H51719   2.610   5.990   4.476  1.9699 -0.7317  0.5760
  392MOL0     H51720   2.495   6.204   4.424 -2.2754  3.8053  0.7391
  392MOL0     H51721   2.431   6.230   4.583  1.8242 -0.3225  1.0296
  392MOL0     H51722   2.277   6.110   4.425 -1.7367 -2.8549 -0.7005
  392MOL0     H51723   2.389   5.977   4.431  3.7466  3.0024 -0.2076
  392MOL0     H51724   2.242   6.092   4.674  3.4869 -0.2954  2.1695
  392MOL0     H51725   2.331   5.933   4.667  0.7173 -1.6290 -2.3599
  392MOL0     H51726   3.260   5.845   4.862 -1.3440 -0.9187 -1.0674
  392MOL0     H51727   3.483   5.820   4.882  0.5134 -0.0882  0.4254
  392MOL0     H51728   3.921   5.959   4.844 -2.3787 -2.3149 -0.3371
  392MOL0     H51729   4.155   5.931   4.852 -3.1615  2.3310  2.5692
  392MOL0     H51730   6.039   5.214   4.232  1.3138 -0.7279  2.0589
  392MOL0     H51731   6.227   5.098   4.219 -0.0460 -0.2773 -1.9044
  392MOL0     H51732   6.403   4.546   4.523 -0.3628 -0.2296 -0.2019
  392MOL0     H51733   6.628   4.470   4.525 -0.2194  1.2085 -0.0465
  392MOL0     H51734   6.840   4.440   4.532 -0.6110  1.9647  2.2556
  392MOL0     H51735   6.922   4.603   4.546 -1.1037  1.3590 -0.5778
  392MOL0     H51736   7.016   4.388   4.362 -1.9233  0.5125 -0.3532
  392MOL0     H51737   7.088   4.556   4.386 -0.6113  1.1942 -0.0985
  392MOL0     H51738   7.054   4.312   4.580  0.8595 -0.9526 -1.3788
  392MOL0     H51739   7.088   4.472   4.638 -5.0385  1.3739 -1.9392
  392MOL0     H51740   7.280   4.294   4.448  4.9613 -0.5693  0.9359
  392MOL0     H51741   7.310   4.463   4.486  0.6990 -1.9202 -0.1619
  392MOL0     H51742   7.417   4.217   4.833  2.3313 -0.8431 -1.8281
  392MOL0     H51743   6.719   4.739   4.199 -0.2180 -0.2211 -0.0385
  392MOL0     H51744   6.511   4.836   4.221  0.5979  0.7419  0.5988
  393MOL0     O51745   8.231   8.579   6.560  1.1388 -0.6139  1.0085
  393MOL0     C51746   8.170   8.685   6.590 -0.7703 -0.2929 -1.6267
  393MOL0     O51747   8.220   8.814   6.587  0.7970 -0.0587 -0.0838
  393MOL0     C51748   8.347   8.838   6.545  0.0152  0.0297  0.5190
  393MOL0     C51749   8.367   8.949   6.460  0.8004  0.4075  0.4025
  393MOL0     C51750   8.501   8.984   6.421  0.4186  0.2425  0.1457
  393MOL0     C51751   8.608   8.903   6.457 -0.3440 -0.8588 -0.1046
  393MOL0     O51752   8.740   8.941   6.422  0.2704 -0.1910 -0.4513
  393MOL0     C51753   8.807   8.866   6.320 -0.3436  0.6639 -0.2177
  393MOL0     C51754   8.939   8.819   6.377  0.0320  0.4809 -0.2520
  393MOL0     C51755   9.041   8.754   6.277 -0.6282 -0.1321  0.3027
  393MOL0     C51756   8.987   8.638   6.205 -0.7139  0.4302  0.6124
  393MOL0     C51757   9.094   8.579   6.109 -1.2112 -0.6291  0.1142
  393MOL0     C51758   9.050   8.477   6.009 -0.1430  0.3090 -0.1981
  393MOL0     C51759   8.912   8.506   5.948  0.2431 -0.2196 -0.8078
  393MOL0     C51760   8.888   8.426   5.815 -0.3771 -0.4955 -0.0803
  393MOL0     N51761   8.867   8.280   5.846  0.5044 -0.2140  0.2301
  393MOL0     C51762   8.739   8.230   5.824 -0.1159 -0.5960 -0.2840
  393MOL0     C51763   8.749   8.094   5.824 -0.4093 -0.8155  0.5798
  393MOL0     C51764   8.639   7.991   5.825  0.4332  0.1763  0.6920
  393MOL0     C51765   8.497   8.045   5.826  0.0795 -0.6347  1.8089
  393MOL0     C51766   8.452   8.107   5.963 -0.5619 -1.0756 -0.1427
  393MOL0     C51767   8.301   8.164   5.963 -0.1305  0.7352 -0.3798
  393MOL0     O51768   8.253   8.168   6.103  0.2230  0.2486 -0.0027
  393MOL0     C51769   8.126   8.213   6.136 -0.8543  0.1797  1.1286
  393MOL0     C51770   8.118   8.302   6.244  0.2304 -0.8082 -0.3269
  393MOL0     C51771   7.989   8.357   6.270 -0.3076  0.2753  0.0182
  393MOL0     C51772   7.874   8.312   6.202  0.3826  0.1265 -0.3933
  393MOL0     C51773   7.744   8.367   6.239 -0.3707 -0.9038  0.3512
  393MOL0     O51774   7.723   8.390   6.371  0.1066 -0.1484 -0.6795
  393MOL0     C51775   7.594   8.414   6.412 -0.0394 -0.6544 -0.4988
  393MOL0     C51776   7.554   8.550   6.420  0.1172  0.7766 -0.2761
  393MOL0     C51777   7.423   8.575   6.457  0.0973 -0.2720 -0.4280
  393MOL0     C51778   7.323   8.477   6.478 -0.2411 -0.0694  0.0673
  393MOL0     O51779   7.188   8.493   6.493  0.5982  0.6335  0.7104
  393MOL0     C51780   7.131   8.622   6.506  0.1379  1.0727 -0.4573
  393MOL0     C51781   6.981   8.597   6.490  0.9181 -1.2363  0.2427
  393MOL0     C51782   6.912   8.490   6.578 -0.3906  0.8054 -0.4372
  393MOL0     C51783   6.936   8.511   6.734 -0.4091  1.0108  0.3833
  393MOL0     C51784   6.860   8.398   6.818 -0.3584 -0.1802  0.6740
  393MOL0     C51785   6.857   8.414   6.972 -0.2517 -0.6908  0.0659
  393MOL0     C51786   6.997   8.458   7.023 -0.5953 -0.8539 -0.2162
  393MOL0     C51787   6.995   8.445   7.174 -0.2779 -0.2328 -0.2267
  393MOL0    Cl51788   6.880   8.574   7.243 -0.1104  0.1553  0.1545
  393MOL0     C51789   7.369   8.347   6.463 -0.4804  0.5719  0.2907
  393MOL0     C51790   7.505   8.316   6.437  0.1398  0.5337  0.1455
  393MOL0     O51791   7.663   8.380   6.146  0.4063  0.0642 -0.5769
  393MOL0     C51792   7.884   8.222   6.094 -0.4948  0.9727  1.1300
  393MOL0     C51793   8.010   8.175   6.062  0.7052 -0.6617 -0.5156
  393MOL0     N51794   8.888   8.066   5.815  0.0871 -0.8437  0.3150
  393MOL0     N51795   8.956   8.177   5.833  0.4916  0.2984  0.2323
  393MOL0     C51796   8.585   8.788   6.521  0.4012  0.8185 -0.4166
  393MOL0     C51797   8.458   8.757   6.575 -0.4997 -0.5324 -0.4162
  393MOL0     C51798   8.025   8.675   6.607 -0.1206  0.1507 -0.4407
  393MOL0     C51799   7.966   8.554   6.642  1.1487  0.0623  0.5052
  393MOL0     C51800   7.828   8.544   6.673 -0.9876  0.4371 -0.0424
  393MOL0     C51801   7.746   8.652   6.668 -0.3421  0.3678  0.1014
  393MOL0     O51802   7.610   8.653   6.708 -0.6369  0.1565  0.0041
  393MOL0     C51803   7.564   8.561   6.800 -0.3079  0.3610 -0.4551
  393MOL0     C51804   7.428   8.612   6.837  0.5790 -0.2964 -0.8003
  393MOL0     C51805   7.354   8.530   6.939 -0.6825 -0.4443 -0.0606
  393MOL0     C51806   7.402   8.550   7.084 -0.3535  0.5675 -0.8805
  393MOL0     C51807   7.361   8.429   7.165  0.1264  0.0934  0.0262
  393MOL0     C51808   7.322   8.328   7.225 -0.1899 -0.9198 -0.0549
  393MOL0     C51809   7.799   8.770   6.616  0.0338 -0.7489  0.0748
  393MOL0     C51810   7.938   8.785   6.588  0.7380  0.9394 -0.0332
  393MOL0     H51811   8.297   9.023   6.423  0.3169  0.2818  1.0495
  393MOL0     H51812   8.536   9.080   6.385  4.7103 -0.2347  2.3771
  393MOL0     H51813   8.817   8.931   6.232  0.3152 -0.8979 -1.3465
  393MOL0     H51814   8.752   8.784   6.272  0.9486 -0.4711  0.1567
  393MOL0     H51815   8.915   8.750   6.459 -1.0617 -0.2187 -1.1327
  393MOL0     H51816   8.988   8.904   6.426  0.8689 -1.3100  2.2374
  393MOL0     H51817   9.129   8.721   6.333 -0.4949 -0.9047 -0.3486
  393MOL0     H51818   9.072   8.829   6.204 -1.0523 -1.3740 -1.1971
  393MOL0     H51819   8.958   8.573   6.288 -0.4104  1.2310  1.3622
  393MOL0     H51820   8.895   8.664   6.153 -0.0836  2.0166  0.2195
  393MOL0     H51821   9.178   8.540   6.168  1.7898  2.1785 -1.9512
  393MOL0     H51822   9.137   8.670   6.065 -2.8037  1.4200  2.5279
  393MOL0     H51823   9.045   8.382   6.063  1.6754  0.8563  1.0367
  393MOL0     H51824   9.120   8.479   5.926 -0.6605 -1.1983 -0.6974
  393MOL0     H51825   8.826   8.486   6.013  0.2781 -0.2383 -0.7668
  393MOL0     H51826   8.890   8.612   5.934 -0.5269 -0.3386 -0.5508
  393MOL0     H51827   8.976   8.444   5.752 -1.6911  1.5565 -1.4596
  393MOL0     H51828   8.807   8.485   5.770 -0.7951  1.9530  3.4049
  393MOL0     H51829   8.649   8.290   5.824 -0.8798 -1.5796  2.9614
  393MOL0     H51830   8.651   7.922   5.908  0.4785 -0.9369 -0.2242
  393MOL0     H51831   8.656   7.932   5.734  0.8563  0.9064  0.2792
  393MOL0     H51832   8.431   7.971   5.780 -1.9201  1.6313  0.7947
  393MOL0     H51833   8.496   8.123   5.749 -2.0142 -0.3245  2.0871
  393MOL0     H51834   8.444   8.035   6.044  1.3526 -0.0012  1.0848
  393MOL0     H51835   8.514   8.187   6.003 -2.0422 -0.4880  1.0631
  393MOL0     H51836   8.242   8.090   5.908 -1.5751  2.5702 -1.4099
  393MOL0     H51837   8.300   8.263   5.918  0.8259  0.9795  0.1128
  393MOL0     H51838   8.206   8.349   6.286 -0.2592 -1.9697  2.1748
  393MOL0     H51839   7.978   8.434   6.346 -0.8202  0.9168 -0.7004
  393MOL0     H51840   7.630   8.620   6.385  1.6294 -0.7179 -0.1302
  393MOL0     H51841   7.381   8.675   6.461  0.1920 -0.1074 -2.5257
  393MOL0     H51842   7.166   8.697   6.434  1.8008  0.6990 -0.0866
  393MOL0     H51843   7.166   8.667   6.599  0.8084  1.7114 -0.9995
  393MOL0     H51844   6.968   8.571   6.385  1.3651  2.2061 -0.8021
  393MOL0     H51845   6.925   8.690   6.506 -2.0606 -3.0698  1.2088
  393MOL0     H51846   6.951   8.391   6.554  0.9746  0.9616  0.9518
  393MOL0     H51847   6.808   8.496   6.545 -0.4120  0.3896 -0.4522
  393MOL0     H51848   7.044   8.503   6.743 -0.3138  0.4576 -1.1537
  393MOL0     H51849   6.903   8.612   6.762  1.1419  1.2906  1.3360
  393MOL0     H51850   6.920   8.310   6.792 -1.8231 -0.6346 -1.3295
  393MOL0     H51851   6.756   8.391   6.786 -0.6877 -1.4867  1.8817
  393MOL0     H51852   6.815   8.327   7.023  2.5330 -2.8014 -0.9728
  393MOL0     H51853   6.789   8.496   6.997 -1.2607 -2.0237  1.9602
  393MOL0     H51854   7.077   8.397   6.979 -0.1006 -0.9459  0.7854
  393MOL0     H51855   7.018   8.562   6.993 -0.2765 -1.7636 -3.5352
  393MOL0     H51856   7.096   8.473   7.204  0.0574 -1.5578 -0.0743
  393MOL0     H51857   6.972   8.341   7.199  0.2782 -0.4982 -0.7943
  393MOL0     H51858   7.302   8.262   6.461 -0.9403  0.9296  0.5770
  393MOL0     H51859   7.532   8.211   6.446 -1.2164 -0.0252 -1.8927
  393MOL0     H51860   7.802   8.188   6.031 -0.2468 -1.5124  2.0461
  393MOL0     H51861   8.023   8.107   5.978 -0.4555 -0.7304 -0.6506
  393MOL0     H51862   8.672   8.725   6.534 -0.3131 -0.1284 -0.0342
  393MOL0     H51863   8.466   8.686   6.657  1.2478  0.0771 -0.0138
  393MOL0     H51864   8.025   8.463   6.648 -0.2670 -0.9305 -0.1824
  393MOL0     H51865   7.788   8.452   6.716 -1.5140  0.0941 -1.2221
  393MOL0     H51866   7.636   8.564   6.882 -0.5068 -1.7931 -0.1339
  393MOL0     H51867   7.563   8.457   6.764  0.5028 -0.2281  1.1217
  393MOL0     H51868   7.425   8.716   6.871  2.8738 -1.0279  2.0787
  393MOL0     H51869   7.361   8.600   6.752 -5.0106 -2.1671  3.2352
  393MOL0     H51870   7.359   8.424   6.915  3.4200 -0.8878  1.8368
  393MOL0     H51871   7.247   8.548   6.936 -1.6833 -5.0140  1.0285
  393MOL0     H51872   7.507   8.578   7.080 -0.3995  1.1806  0.9767
  393MOL0     H51873   7.345   8.638   7.115  1.0206  0.8249  1.1064
  393MOL0     H51874   7.304   8.231   7.267  4.4057 -0.7993  2.8764
  393MOL0     H51875   7.735   8.857   6.602  1.4772  1.2696  4.3325
  393MOL0     H51876   7.977   8.884   6.568  0.7104  1.0366  0.3782
  394MOL0     O51877   6.191   5.564  11.108 -0.7987  0.2884 -0.4197
  394MOL0     C51878   6.194   5.687  11.107 -0.1228 -1.0035  0.1644
  394MOL0     O51879   6.087   5.772  11.077  0.3863  0.3629 -0.6260
  394MOL0     C51880   5.955   5.729  11.069  0.4299 -0.8552 -0.7240
  394MOL0     C51881   5.863   5.807  11.004  0.7738 -0.0644 -0.3600
  394MOL0     C51882   5.732   5.774  10.993  0.4661 -0.1546  0.1781
  394MOL0     C51883   5.670   5.656  11.026 -0.2943  0.0803  0.0194
  394MOL0     O51884   5.539   5.628  10.992  0.3083  0.3593 -0.0082
  394MOL0     C51885   5.471   5.532  11.074  0.0750 -0.1122 -0.0252
  394MOL0     C51886   5.340   5.474  11.021 -0.5551 -0.1499 -0.1708
  394MOL0     C51887   5.236   5.578  10.989 -1.1068 -0.4148 -0.1360
  394MOL0     C51888   5.129   5.507  10.924  0.2680  0.0685  0.3760
  394MOL0     C51889   5.021   5.590  10.872  0.1392 -0.5528 -0.1463
  394MOL0     C51890   4.929   5.658  10.977 -0.5257 -0.0937  0.2632
  394MOL0     C51891   4.792   5.694  10.915 -0.4656  0.7013  0.4500
  394MOL0     C51892   4.726   5.785  11.010  0.1768  0.0519 -0.6385
  394MOL0     N51893   4.585   5.794  10.986  0.0872  0.4394 -0.2052
  394MOL0     C51894   4.531   5.850  10.871  0.8967  0.7215  0.9638
  394MOL0     C51895   4.399   5.860  10.902  0.1149  0.5834 -0.0860
  394MOL0     C51896   4.282   5.905  10.816 -0.2279 -0.0239 -0.0789
  394MOL0     C51897   4.222   5.801  10.726  0.9166 -0.9621 -0.0192
  394MOL0     C51898   4.107   5.718  10.777 -0.2210  0.2912  0.2459
  394MOL0     C51899   4.060   5.616  10.678 -0.0642  0.7873 -0.3943
  394MOL0     O51900   3.975   5.677  10.586 -0.1679  0.2612 -0.4417
  394MOL0     C51901   3.850   5.720  10.607  0.1002 -0.0696  0.1847
  394MOL0     C51902   3.788   5.767  10.494 -0.1930 -1.0918  0.0602
  394MOL0     C51903   3.654   5.807  10.487  0.0162  1.4380 -0.6599
  394MOL0     C51904   3.579   5.784  10.607 -0.0436 -1.2302  0.6404
  394MOL0     C51905   3.442   5.838  10.607 -0.4238 -0.0245 -0.4325
  394MOL0     O51906   3.357   5.789  10.698 -0.0322 -0.3904  0.2059
  394MOL0     C51907   3.222   5.810  10.697  0.2070 -0.0963 -0.2897
  394MOL0     C51908   3.163   5.836  10.822 -0.0727  0.3050 -0.2214
  394MOL0     C51909   3.028   5.861  10.842 -0.2094  0.3332  0.0582
  394MOL0     C51910   2.940   5.826  10.736  0.2793  0.3636 -0.7710
  394MOL0     O51911   2.805   5.822  10.744 -1.0090 -0.3361 -0.4512
  394MOL0     C51912   2.741   5.886  10.862 -1.0002 -0.0079  0.4596
  394MOL0     C51913   2.594   5.890  10.844 -0.6121 -0.4596  0.7053
  394MOL0     C51914   2.531   5.928  10.705 -1.1008  0.9573 -0.8059
  394MOL0     C51915   2.375   5.921  10.728 -1.1296 -0.0991  0.1378
  394MOL0     C51916   2.288   5.988  10.623 -0.1812 -0.4736 -0.3536
  394MOL0     C51917   2.242   5.894  10.516  0.2374  0.6597  0.9372
  394MOL0     C51918   2.136   5.954  10.412  0.3787 -0.1337 -0.6922
  394MOL0     C51919   2.006   6.012  10.480 -0.0865 -0.1509 -0.3596
  394MOL0    Cl51920   1.869   6.057  10.363 -0.1515 -0.0800 -0.1682
  394MOL0     C51921   2.999   5.782  10.616 -0.4022  0.3566  0.3913
  394MOL0     C51922   3.137   5.779  10.587 -0.1965  0.2396 -0.4449
  394MOL0     O51923   3.408   5.911  10.519  0.6424  0.3259  0.8671
  394MOL0     C51924   3.643   5.748  10.721 -0.6506  0.1376 -0.0156
  394MOL0     C51925   3.774   5.704  10.730 -0.6387 -0.1328  0.8004
  394MOL0     N51926   4.374   5.805  11.026  0.5032  0.5892 -0.6871
  394MOL0     N51927   4.484   5.753  11.069 -0.5779 -0.0558 -0.1925
  394MOL0     C51928   5.759   5.575  11.102  0.2046 -0.4388  0.3262
  394MOL0     C51929   5.897   5.609  11.124  0.1958 -0.7809 -0.4596
  394MOL0     C51930   6.325   5.758  11.139  0.1719 -0.7091  0.4385
  394MOL0     C51931   6.331   5.898  11.131 -0.2260  0.0057  0.0407
  394MOL0     C51932   6.453   5.966  11.151 -0.6178 -0.4348 -0.2009
  394MOL0     C51933   6.573   5.899  11.177  0.1413 -0.6489 -0.4037
  394MOL0     O51934   6.681   5.984  11.199 -0.2781 -0.4151  0.0346
  394MOL0     C51935   6.810   5.923  11.242  0.1699  0.4101 -0.8110
  394MOL0     C51936   6.920   6.038  11.237 -0.7072  0.1798  0.0164
  394MOL0     C51937   6.940   6.093  11.095  0.3658  0.3950  0.0977
  394MOL0     C51938   7.037   6.206  11.090 -0.2323 -0.7846 -0.4559
  394MOL0     C51939   7.175   6.166  11.102 -0.3045 -0.1679 -0.3544
  394MOL0     C51940   7.287   6.118  11.104 -0.2214 -0.0598  0.9877
  394MOL0     C51941   6.572   5.760  11.172  0.3957 -0.1844  0.2479
  394MOL0     C51942   6.446   5.689  11.157  0.2378 -0.2566  0.1257
  394MOL0     H51943   5.888   5.908  10.972 -1.2504  2.3564  4.6439
  394MOL0     H51944   5.674   5.843  10.932 -2.1641 -4.5071 -2.7854
  394MOL0     H51945   5.448   5.578  11.171  1.6476 -0.8508  0.7411
  394MOL0     H51946   5.534   5.443  11.086  0.0107 -0.4088 -1.6750
  394MOL0     H51947   5.292   5.394  11.079 -1.5561  0.0958 -0.6313
  394MOL0     H51948   5.370   5.425  10.928  1.4186  1.8396 -0.6816
  394MOL0     H51949   5.280   5.653  10.922 -0.1108 -2.0140 -1.3581
  394MOL0     H51950   5.203   5.633  11.078  0.7985 -0.5343  0.6924
  394MOL0     H51951   5.173   5.456  10.837  0.3900  0.8339 -0.0252
  394MOL0     H51952   5.083   5.439  10.995 -1.5023  2.2670  1.4655
  394MOL0     H51953   4.951   5.530  10.812  2.0072 -0.0708 -3.0283
  394MOL0     H51954   5.051   5.678  10.814  1.0779 -1.1921 -0.6809
  394MOL0     H51955   4.978   5.751  11.007 -0.3803 -0.0591 -0.0837
  394MOL0     H51956   4.920   5.589  11.062 -1.0997  1.9336  1.9146
  394MOL0     H51957   4.798   5.736  10.814  0.8737  0.2021  0.2986
  394MOL0     H51958   4.728   5.606  10.903 -2.0549  2.2090 -4.0842
  394MOL0     H51959   4.768   5.886  11.006 -1.8385  0.9554 -0.6138
  394MOL0     H51960   4.747   5.740  11.108 -0.5565  0.3345 -0.3384
  394MOL0     H51961   4.575   5.879  10.776  2.1538 -4.0353 -0.1690
  394MOL0     H51962   4.320   5.980  10.745  1.4748 -1.1910 -0.4516
  394MOL0     H51963   4.205   5.942  10.884 -0.9820 -1.1806 -0.2861
  394MOL0     H51964   4.296   5.720  10.715 -1.0667 -2.7060 -1.5463
  394MOL0     H51965   4.197   5.836  10.626  0.7715 -0.0045  0.3434
  394MOL0     H51966   4.112   5.673  10.877 -1.3384  0.2282  0.2900
  394MOL0     H51967   4.037   5.801  10.789 -0.0102  0.6354 -0.7731
  394MOL0     H51968   4.016   5.530  10.728  0.6527  0.3502 -0.4924
  394MOL0     H51969   4.149   5.577  10.627 -0.9526  0.5672 -1.8032
  394MOL0     H51970   3.841   5.788  10.402  1.5823  0.1363  1.2827
  394MOL0     H51971   3.615   5.848  10.395 -0.0975  1.1151 -0.7566
  394MOL0     H51972   3.238   5.854  10.898 -0.6095  1.2984  0.0972
  394MOL0     H51973   2.993   5.898  10.938 -0.3791  1.8914 -0.5789
  394MOL0     H51974   2.789   5.984  10.865 -0.0955 -0.4499  0.7207
  394MOL0     H51975   2.765   5.830  10.952  0.9560  1.7541  1.1089
  394MOL0     H51976   2.554   5.958  10.920  1.1010  1.5715 -0.1105
  394MOL0     H51977   2.560   5.786  10.855 -0.0816 -0.6605  0.4729
  394MOL0     H51978   2.566   5.855  10.631 -0.2185 -1.6916  2.0119
  394MOL0     H51979   2.566   6.025  10.668 -2.7280  0.4946 -3.9209
  394MOL0     H51980   2.346   5.817  10.745 -0.5269  0.2152  3.8845
  394MOL0     H51981   2.360   5.973  10.823  0.4417 -1.9685  1.4705
  394MOL0     H51982   2.332   6.073  10.571  2.0278 -2.4478 -1.9053
  394MOL0     H51983   2.199   6.022  10.678  1.9318 -1.0139  3.8633
  394MOL0     H51984   2.187   5.813  10.563  2.4470 -2.6612 -1.7065
  394MOL0     H51985   2.329   5.848  10.467 -0.9607 -0.5566 -0.1189
  394MOL0     H51986   2.178   6.028  10.343  2.4989 -1.4586 -0.8945
  394MOL0     H51987   2.106   5.867  10.355 -1.7936 -2.3869  3.4061
  394MOL0     H51988   2.026   6.098  10.544 -1.9338  0.7539 -0.9210
  394MOL0     H51989   1.975   5.937  10.553 -1.4165  0.9406  0.2270
  394MOL0     H51990   2.936   5.756  10.531  1.4450  2.4204 -1.7374
  394MOL0     H51991   3.175   5.731  10.498 -0.2515 -2.5190  0.9110
  394MOL0     H51992   3.582   5.737  10.810  1.7020  0.0769  1.6751
  394MOL0     H51993   3.817   5.663  10.820  0.3442 -1.8161 -0.3873
  394MOL0     H51994   5.735   5.472  11.124  1.6140 -0.8784 -0.1060
  394MOL0     H51995   5.960   5.537  11.175  1.5966  1.6386  1.4612
  394MOL0     H51996   6.239   5.955  11.121 -3.7138 -5.0862 -0.8500
  394MOL0     H51997   6.446   6.074  11.162 -0.4335 -0.5853  1.7086
  394MOL0     H51998   6.837   5.847  11.168 -2.4060 -2.3842  0.8281
  394MOL0     H51999   6.807   5.886  11.345  0.4686 -1.4732 -1.4455
  394MOL0     H52000   6.877   6.122  11.293 -2.8993 -1.0454  0.2931
  394MOL0     H52001   7.015   6.001  11.274 -0.9160  0.2165  0.6078
  394MOL0     H52002   6.855   6.140  11.044 -0.4697  0.6053  1.6094
  394MOL0     H52003   6.988   6.014  11.037 -2.8447 -0.8725 -1.0482
  394MOL0     H52004   7.014   6.273  11.006 -2.4905  1.8916  2.0889
  394MOL0     H52005   7.018   6.275  11.173  0.4241 -0.2674 -0.7250
  394MOL0     H52006   7.382   6.069  11.108 -0.2415 -0.1748  0.1810
  394MOL0     H52007   6.659   5.698  11.195  0.0901 -1.9568 -2.8561
  394MOL0     H52008   6.446   5.581  11.171 -0.0632 -0.1172  1.3303
  395MOL0     O52009   7.451   3.117   1.832 -0.3838 -0.2008 -0.2162
  395MOL0     C52010   7.479   3.083   1.947  0.1452  0.6625  1.2398
  395MOL0     O52011   7.393   3.090   2.057 -0.4548  0.0798  0.3638
  395MOL0     C52012   7.279   3.162   2.044  0.0713  0.0890  0.5002
  395MOL0     C52013   7.272   3.296   1.981  0.8786 -0.0195 -0.8122
  395MOL0     C52014   7.150   3.348   1.944  0.2514 -0.5770 -0.1216
  395MOL0     C52015   7.027   3.300   1.985  0.0209  0.5626 -0.2949
  395MOL0     O52016   6.906   3.355   1.970  0.0801 -0.6593  0.1040
  395MOL0     C52017   6.885   3.500   1.960 -0.0865 -0.2277  0.6758
  395MOL0     C52018   6.746   3.542   1.902  0.6495  0.2408  0.3519
  395MOL0     C52019   6.642   3.536   2.014 -0.0162  0.2195  0.1929
  395MOL0     C52020   6.496   3.558   1.964 -0.9140  0.3470 -0.7638
  395MOL0     C52021   6.372   3.492   2.052 -0.5874 -0.6083  0.7813
  395MOL0     C52022   6.355   3.563   2.183  0.5808 -0.2349  0.6767
  395MOL0     C52023   6.249   3.506   2.279 -0.4028 -0.3069 -0.6288
  395MOL0     C52024   6.229   3.590   2.404 -0.2166 -0.6841 -0.1841
  395MOL0     N52025   6.126   3.701   2.396 -0.5037 -0.0678 -0.4894
  395MOL0     C52026   6.084   3.762   2.514 -1.1350  0.6994  0.3449
  395MOL0     C52027   6.036   3.879   2.473  0.3285 -0.2799 -0.5895
  395MOL0     C52028   5.980   3.994   2.551  0.0622 -0.3790  0.6824
  395MOL0     C52029   5.955   3.969   2.702  0.4426 -0.4396 -1.0349
  395MOL0     C52030   5.838   3.877   2.743 -0.1510 -0.0342 -0.6806
  395MOL0     C52031   5.700   3.950   2.738 -0.1473 -0.4884  0.3707
  395MOL0     O52032   5.598   3.850   2.738  0.5213 -0.4737  0.5216
  395MOL0     C52033   5.469   3.879   2.760  0.6172  0.1889 -0.7367
  395MOL0     C52034   5.371   3.779   2.754  0.2061 -0.3612  0.3989
  395MOL0     C52035   5.236   3.803   2.774 -0.0640  0.4745 -0.5313
  395MOL0     C52036   5.186   3.933   2.802 -0.0629  0.6639 -0.1888
  395MOL0     C52037   5.048   3.956   2.857  0.2045 -0.0875 -0.4166
  395MOL0     O52038   5.004   4.083   2.828  0.0411  0.0744  0.6663
  395MOL0     C52039   4.884   4.128   2.869  0.5442 -0.5326  0.7693
  395MOL0     C52040   4.796   4.180   2.773 -0.4988  0.2682 -0.3880
  395MOL0     C52041   4.677   4.220   2.809 -0.1708 -0.3984 -0.5008
  395MOL0     C52042   4.634   4.211   2.944 -0.6221 -1.1800 -0.3615
  395MOL0     O52043   4.493   4.235   2.963 -0.6551  0.0230  0.1040
  395MOL0     C52044   4.436   4.254   3.095  0.2282 -0.1261  0.4225
  395MOL0     C52045   4.456   4.394   3.146 -0.8962 -0.1276 -0.1929
  395MOL0     C52046   4.372   4.495   3.075 -0.4537 -0.9803 -0.1725
  395MOL0     C52047   4.397   4.640   3.106 -0.1109  0.1722  0.1556
  395MOL0     C52048   4.291   4.745   3.059 -0.5326 -0.6480 -0.2326
  395MOL0     C52049   4.347   4.883   3.029  0.2376  0.2515 -0.8381
  395MOL0     C52050   4.227   4.968   2.976  0.5311 -0.1562  0.7035
  395MOL0     C52051   4.160   5.057   3.085  0.6329 -0.3388  0.6676
  395MOL0    Cl52052   4.053   4.962   3.194 -0.0085 -0.2816  0.0369
  395MOL0     C52053   4.726   4.167   3.042  0.0933 -0.4763  0.3151
  395MOL0     C52054   4.853   4.134   3.007  0.1372 -0.6767  1.0940
  395MOL0     O52055   4.978   3.868   2.908 -0.3742 -0.0303  0.3607
  395MOL0     C52056   5.280   4.038   2.800  0.2112  0.9055 -0.5475
  395MOL0     C52057   5.421   4.009   2.783  0.6795  0.7169  0.6674
  395MOL0     N52058   6.048   3.886   2.332  0.0759  0.3943 -1.2312
  395MOL0     N52059   6.099   3.782   2.285 -0.3209  0.0474  0.3433
  395MOL0     C52060   7.034   3.178   2.046  0.6004 -1.2386  0.2699
  395MOL0     C52061   7.151   3.112   2.081 -0.8201  0.4604 -1.1570
  395MOL0     C52062   7.613   3.031   1.960  0.0216  0.1556  0.3038
  395MOL0     C52063   7.673   2.970   1.849  0.2396  0.2311  0.2792
  395MOL0     C52064   7.815   2.945   1.856 -0.2449  0.0114 -0.7756
  395MOL0     C52065   7.892   2.961   1.973 -0.2069 -0.1781  0.2904
  395MOL0     O52066   8.031   2.936   1.979  0.4109 -0.5087  0.3755
  395MOL0     C52067   8.119   3.013   1.902  0.3229 -0.3606  0.0975
  395MOL0     C52068   8.265   2.974   1.927  0.0607 -0.5279  0.9691
  395MOL0     C52069   8.340   3.040   2.041  0.0502 -0.3593  0.7187
  395MOL0     C52070   8.303   2.982   2.179 -0.5775 -0.1532 -0.1328
  395MOL0     C52071   8.363   3.057   2.284 -0.3018 -0.1018 -0.5497
  395MOL0     C52072   8.426   3.103   2.375 -0.0203 -0.2594 -0.8760
  395MOL0     C52073   7.820   2.997   2.087  0.7665  0.5418 -0.6649
  395MOL0     C52074   7.680   3.031   2.080 -0.6776  0.5050  0.0070
  395MOL0     H52075   7.363   3.349   1.954  0.7248 -1.1552 -4.0707
  395MOL0     H52076   7.147   3.450   1.906 -1.0436 -0.6576 -0.2784
  395MOL0     H52077   6.951   3.547   1.886 -0.6325  1.9721  1.5174
  395MOL0     H52078   6.902   3.563   2.048 -0.8332  1.8346 -0.5882
  395MOL0     H52079   6.726   3.462   1.830  1.3171 -0.3055  0.7577
  395MOL0     H52080   6.752   3.642   1.858  0.5158  0.0165 -0.1882
  395MOL0     H52081   6.663   3.608   2.094  2.1515  2.7268 -2.4206
  395MOL0     H52082   6.655   3.437   2.059 -0.6492 -0.0758 -0.2682
  395MOL0     H52083   6.480   3.667   1.962  0.2560  0.7102  2.7832
  395MOL0     H52084   6.490   3.515   1.864 -0.8810  0.5641 -0.8611
  395MOL0     H52085   6.376   3.383   2.060 -0.5330 -0.5935  0.9555
  395MOL0     H52086   6.290   3.519   1.984  0.1383 -0.7228 -0.1670
  395MOL0     H52087   6.325   3.664   2.154  0.7405 -0.6924 -1.2611
  395MOL0     H52088   6.452   3.552   2.232  2.1894 -1.6923 -2.5061
  395MOL0     H52089   6.155   3.483   2.229 -2.0018 -1.6704  2.6837
  395MOL0     H52090   6.289   3.409   2.309  3.2673  0.7589 -1.5714
  395MOL0     H52091   6.323   3.620   2.452 -0.1536 -3.3356  1.5806
  395MOL0     H52092   6.203   3.522   2.486  0.1764 -1.9167 -1.0632
  395MOL0     H52093   6.107   3.719   2.611 -0.9888 -1.3151 -0.5287
  395MOL0     H52094   5.900   4.040   2.493 -0.8168  1.4343  3.1800
  395MOL0     H52095   6.058   4.071   2.551 -0.0785 -0.1849  2.6872
  395MOL0     H52096   5.937   4.061   2.758  1.2900 -2.2015  2.3886
  395MOL0     H52097   6.046   3.928   2.746 -1.4175 -2.4367  1.2146
  395MOL0     H52098   5.834   3.784   2.685  1.5921 -1.5679  1.4655
  395MOL0     H52099   5.843   3.837   2.845 -1.2622 -0.1077 -0.6380
  395MOL0     H52100   5.702   4.019   2.654 -1.3924 -0.2541  0.5190
  395MOL0     H52101   5.689   4.016   2.825  1.7081  1.5784 -0.8681
  395MOL0     H52102   5.404   3.678   2.733 -0.5790 -0.6773  0.6314
  395MOL0     H52103   5.179   3.711   2.765  2.2687 -1.0668 -0.1713
  395MOL0     H52104   4.828   4.183   2.669  2.3477  0.4413  0.4258
  395MOL0     H52105   4.607   4.257   2.735  0.5218 -0.5709 -1.2498
  395MOL0     H52106   4.479   4.189   3.171  0.6322 -0.5426 -0.1464
  395MOL0     H52107   4.328   4.237   3.103  0.1683 -0.9734 -1.4903
  395MOL0     H52108   4.562   4.422   3.142 -0.8451 -0.1283  0.9160
  395MOL0     H52109   4.419   4.402   3.248  0.9172  3.1713  0.3313
  395MOL0     H52110   4.266   4.470   3.086 -1.3173  0.8850 -3.2404
  395MOL0     H52111   4.396   4.482   2.969 -0.3791 -0.5730 -0.2055
  395MOL0     H52112   4.406   4.649   3.215  1.8008 -3.8984  0.5026
  395MOL0     H52113   4.490   4.664   3.054 -1.0612  0.8748 -1.2831
  395MOL0     H52114   4.221   4.757   3.141  3.0382  1.2411  2.8579
  395MOL0     H52115   4.235   4.711   2.971 -1.3540  0.1882 -0.0428
  395MOL0     H52116   4.422   4.879   2.950 -0.4579  1.7771 -1.6041
  395MOL0     H52117   4.387   4.928   3.120 -0.5458  2.4213 -1.5203
  395MOL0     H52118   4.261   5.028   2.892  0.8394  1.1254  1.7123
  395MOL0     H52119   4.145   4.910   2.934 -0.7562  0.1620  2.6191
  395MOL0     H52120   4.099   5.128   3.029  1.3069 -0.6008 -0.4278
  395MOL0     H52121   4.226   5.125   3.140 -0.0732  2.0885 -1.3034
  395MOL0     H52122   4.681   4.145   3.138  0.9382 -0.3201  0.7533
  395MOL0     H52123   4.926   4.100   3.079  1.2171 -3.1310 -1.0165
  395MOL0     H52124   5.246   4.139   2.819  0.5086  2.1840 -5.3191
  395MOL0     H52125   5.492   4.091   2.787  1.8381 -0.1213 -1.5007
  395MOL0     H52126   6.943   3.128   2.075  0.1675 -2.8206 -3.2496
  395MOL0     H52127   7.149   3.026   2.147  2.5829  0.7094 -0.5679
  395MOL0     H52128   7.629   2.957   1.751  0.0414 -1.0301  0.5222
  395MOL0     H52129   7.871   2.917   1.767  0.1470 -2.4353  0.1618
  395MOL0     H52130   8.119   3.115   1.942  0.8007 -0.2145 -0.2763
  395MOL0     H52131   8.095   3.000   1.796  4.5890 -2.7641 -0.8292
  395MOL0     H52132   8.278   2.866   1.941  0.7536 -0.6363 -0.3271
  395MOL0     H52133   8.311   3.003   1.832 -1.4034 -1.9236 -0.2373
  395MOL0     H52134   8.327   3.149   2.039  0.7784 -0.2801 -0.2125
  395MOL0     H52135   8.448   3.042   2.023 -0.2182  3.2156 -1.3854
  395MOL0     H52136   8.195   2.970   2.194 -0.4000 -4.5799 -0.7884
  395MOL0     H52137   8.330   2.876   2.188  1.1799  0.1949 -0.9649
  395MOL0     H52138   8.486   3.147   2.452  0.8765  0.3712 -1.9137
  395MOL0     H52139   7.867   3.009   2.184 -1.4359  1.8546  0.3210
  395MOL0     H52140   7.630   3.069   2.168 -2.8712  0.0674 -0.9959
  396MOL0     O52141   1.149   5.356  10.055 -0.2768 -0.2052  0.1063
  396MOL0     C52142   1.190   5.245  10.098 -0.0762 -0.4553 -1.0697
  396MOL0     O52143   1.113   5.153  10.156  0.1191 -1.1068 -0.5532
  396MOL0     C52144   0.976   5.147  10.153  0.2972  0.0558  0.4325
  396MOL0     C52145   0.902   5.132  10.265  0.0252  0.0448 -0.9736
  396MOL0     C52146   0.760   5.124  10.262  0.2076 -0.2800 -0.5957
  396MOL0     C52147   0.691   5.163  10.147 -0.9072  0.3279 -0.0527
  396MOL0     O52148   0.555   5.167  10.154  0.3557  0.3029  0.9942
  396MOL0     C52149   0.479   5.222  10.045  0.4248 -0.5825 -0.1632
  396MOL0     C52150   0.341   5.255  10.111 -0.3715 -0.8163 -0.0693
  396MOL0     C52151   0.251   5.147  10.152  0.5543  0.0544 -1.1620
  396MOL0     C52152   0.117   5.196  10.208  0.5319  0.1097  0.1640
  396MOL0     C52153   0.052   5.071  10.277  0.4305 -0.3393  0.1490
  396MOL0     C52154  -0.093   5.114  10.319 -0.6071  0.7688  0.6085
  396MOL0     C52155  -0.183   4.990  10.322  0.0024 -0.2838  0.0612
  396MOL0     C52156  -0.331   5.032  10.349  0.8821 -1.1655  0.4207
  396MOL0     N52157  -0.399   5.114  10.246 -0.2960  0.6196 -0.2042
  396MOL0     C52158  -0.453   5.066  10.125 -0.5214  0.3527 -0.9886
  396MOL0     C52159  -0.500   5.183  10.067  0.1381 -0.2645 -0.1376
  396MOL0     C52160  -0.582   5.209   9.951  1.0322  0.3621 -0.0348
  396MOL0     C52161  -0.707   5.118   9.957  1.1560 -0.9510  0.6511
  396MOL0     C52162  -0.821   5.185   9.866 -0.2137  1.0116  0.4075
  396MOL0     C52163  -0.959   5.152   9.908 -0.2497  0.2330 -0.4308
  396MOL0     O52164  -0.988   5.214  10.038 -0.3657 -0.5148 -0.0572
  396MOL0     C52165  -1.117   5.190  10.087  0.3455  0.1624 -0.7465
  396MOL0     C52166  -1.150   5.252  10.213  0.2893 -0.6372  0.1758
  396MOL0     C52167  -1.283   5.267  10.260 -1.0819  0.5176 -0.0059
  396MOL0     C52168  -1.385   5.195  10.191  0.5290  0.1873 -0.5435
  396MOL0     C52169  -1.523   5.184  10.247  0.4889 -0.5483 -0.4323
  396MOL0     O52170  -1.619   5.139  10.150 -0.1954 -0.1034 -0.4260
  396MOL0     C52171  -1.760   5.156  10.172  0.8635  0.2279 -0.1922
  396MOL0     C52172  -1.823   5.246  10.271  1.0565  0.0317 -0.2496
  396MOL0     C52173  -1.963   5.253  10.279 -0.2047 -0.0584 -0.6769
  396MOL0     C52174  -2.051   5.163  10.211 -0.9138 -0.4708  0.4988
  396MOL0     O52175  -2.190   5.175  10.216 -0.5233 -0.0155 -0.0907
  396MOL0     C52176  -2.280   5.063  10.179  0.2362 -0.7463 -0.2880
  396MOL0     C52177  -2.423   5.101  10.221  0.0768  0.1299 -0.5684
  396MOL0     C52178  -2.528   4.991  10.186 -0.9826  0.5787 -0.3372
  396MOL0     C52179  -2.501   4.862  10.253 -0.3681  0.1240  0.0607
  396MOL0     C52180  -2.593   4.751  10.202  0.6396 -0.1125  0.1139
  396MOL0     C52181  -2.716   4.739  10.286 -0.7965 -0.2012  0.3847
  396MOL0     C52182  -2.799   4.604  10.271  0.2136 -0.0382  0.4404
  396MOL0     C52183  -2.937   4.625  10.344 -0.2466 -0.5096 -0.5291
  396MOL0    Cl52184  -2.929   4.621  10.517  0.1400 -0.5631 -0.3879
  396MOL0     C52185  -1.987   5.076  10.117  0.2129  0.3501 -0.6390
  396MOL0     C52186  -1.849   5.072  10.101 -0.6874  0.1397  0.7324
  396MOL0     O52187  -1.545   5.203  10.367  0.0098 -0.6847  0.0207
  396MOL0     C52188  -1.355   5.129  10.074 -0.1317 -0.0598  1.2343
  396MOL0     C52189  -1.224   5.128  10.019 -0.6731  0.2036  0.2614
  396MOL0     N52190  -0.451   5.292  10.142 -0.2891  0.0978 -0.3371
  396MOL0     N52191  -0.404   5.248  10.255 -0.2463  0.0321 -0.4069
  396MOL0     C52192   0.766   5.181  10.034  0.2650 -0.5467 -0.4484
  396MOL0     C52193   0.904   5.180  10.040  0.4863  0.3730 -0.3289
  396MOL0     C52194   1.339   5.244  10.116 -0.0676 -0.0210 -0.0422
  396MOL0     C52195   1.416   5.342  10.055  0.1182 -0.2225 -0.6116
  396MOL0     C52196   1.555   5.325  10.068  0.6794  0.0962  0.5317
  396MOL0     C52197   1.620   5.233  10.158  0.2695 -0.3810  0.3150
  396MOL0     O52198   1.753   5.215  10.180 -0.1442 -0.0670 -0.8661
  396MOL0     C52199   1.841   5.306  10.107  0.2765  0.1990  0.5239
  396MOL0     C52200   1.985   5.299  10.160  0.5109 -0.1681  0.9075
  396MOL0     C52201   1.987   5.357  10.306 -0.1534  0.1637  0.1082
  396MOL0     C52202   1.998   5.513  10.302 -0.3172  0.4164  1.2742
  396MOL0     C52203   2.002   5.557  10.437 -0.6579 -0.3972  0.0329
  396MOL0     C52204   1.987   5.582  10.551 -0.7320 -0.0428  1.1747
  396MOL0     C52205   1.532   5.147  10.228 -1.0134  0.0873 -0.5432
  396MOL0     C52206   1.396   5.155  10.210  0.6720 -0.4842 -0.2548
  396MOL0     H52207   0.946   5.111  10.362  1.8388  0.0499 -1.7561
  396MOL0     H52208   0.709   5.117  10.358  2.3903 -0.1760  0.6449
  396MOL0     H52209   0.470   5.160   9.956 -1.8939 -1.4522  0.6030
  396MOL0     H52210   0.534   5.312  10.015 -0.3718  0.0692  0.2824
  396MOL0     H52211   0.282   5.310  10.037  0.2115 -0.1670 -0.0608
  396MOL0     H52212   0.359   5.332  10.186  0.2327 -0.1925 -0.8439
  396MOL0     H52213   0.302   5.077  10.218 -0.6808  1.0143  0.9154
  396MOL0     H52214   0.231   5.088  10.062  0.0413 -1.6882  0.0524
  396MOL0     H52215   0.127   5.283  10.272 -2.5394  0.4972  0.2883
  396MOL0     H52216   0.047   5.232  10.132  0.7592 -0.6306 -0.4090
  396MOL0     H52217   0.120   5.046  10.360 -0.0478  1.1044  1.0097
  396MOL0     H52218   0.038   4.991  10.204 -1.1644  0.9411 -0.9975
  396MOL0     H52219  -0.129   5.188  10.248 -0.3042  1.3743  1.0799
  396MOL0     H52220  -0.100   5.167  10.414 -1.0429  1.7240  0.0531
  396MOL0     H52221  -0.175   4.932  10.230 -4.0431 -0.9494 -0.0506
  396MOL0     H52222  -0.153   4.918  10.399  3.0253 -0.7437 -1.4358
  396MOL0     H52223  -0.337   5.084  10.444  0.2455 -1.3587  0.4915
  396MOL0     H52224  -0.393   4.942  10.352 -2.5918  0.9000 -1.8285
  396MOL0     H52225  -0.464   4.961  10.103  1.7912 -0.1421 -0.1407
  396MOL0     H52226  -0.530   5.193   9.856  0.6039 -2.0418  0.0881
  396MOL0     H52227  -0.623   5.310   9.964 -2.1803 -0.9747  1.3380
  396MOL0     H52228  -0.743   5.118  10.061 -3.3936  1.1249 -0.6745
  396MOL0     H52229  -0.688   5.020   9.913 -1.7879 -2.1723  1.8265
  396MOL0     H52230  -0.812   5.294   9.868  0.4845  0.9687  2.7309
  396MOL0     H52231  -0.813   5.143   9.765 -0.1249 -1.1501  1.2660
  396MOL0     H52232  -0.970   5.045   9.932 -4.4968  1.2148  3.5002
  396MOL0     H52233  -1.019   5.178   9.821  0.4287 -3.1383 -2.0636
  396MOL0     H52234  -1.067   5.289  10.273  1.3491  2.6084 -2.9082
  396MOL0     H52235  -1.311   5.322  10.350 -1.7855  0.9971 -0.5018
  396MOL0     H52236  -1.766   5.305  10.343  2.2668  0.2800 -1.3876
  396MOL0     H52237  -2.008   5.337  10.330 -0.8587 -1.8750  1.9532
  396MOL0     H52238  -2.250   4.971  10.230 -1.7750  0.4739  3.5067
  396MOL0     H52239  -2.274   5.040  10.072  0.9374 -3.4044  0.2426
  396MOL0     H52240  -2.447   5.196  10.171  2.1514  0.2705 -1.4115
  396MOL0     H52241  -2.417   5.111  10.330  3.0056 -0.7062 -0.5628
  396MOL0     H52242  -2.528   4.971  10.079 -2.7223  2.2815 -0.7123
  396MOL0     H52243  -2.627   5.028  10.216 -0.8705  2.3525 -1.9822
  396MOL0     H52244  -2.403   4.830  10.216 -0.9825  1.3297 -2.8872
  396MOL0     H52245  -2.492   4.877  10.362 -1.0378  0.1273  0.1212
  396MOL0     H52246  -2.539   4.660  10.231  1.4771  0.3671  0.0941
  396MOL0     H52247  -2.609   4.761  10.094  0.2513  0.3367  0.2111
  396MOL0     H52248  -2.768   4.826  10.245  4.0602  3.9777  2.1167
  396MOL0     H52249  -2.702   4.744  10.394  3.3317  2.2200 -0.0447
  396MOL0     H52250  -2.815   4.587  10.164  0.8729  0.0841  0.3208
  396MOL0     H52251  -2.732   4.531  10.317  2.6050  1.4394 -0.4867
  396MOL0     H52252  -3.009   4.551  10.309  0.5171 -2.4654  1.7538
  396MOL0     H52253  -2.972   4.725  10.315 -1.4696 -0.0215  2.3198
  396MOL0     H52254  -2.046   5.005  10.059 -0.4207 -0.0170  0.4190
  396MOL0     H52255  -1.816   5.008  10.019 -2.6192  0.9136 -0.7387
  396MOL0     H52256  -1.437   5.088  10.015 -1.8226  1.3397  2.4684
  396MOL0     H52257  -1.208   5.074   9.926 -0.9904 -2.7589  1.7948
  396MOL0     H52258   0.722   5.220   9.942  0.6417  0.5959 -0.1605
  396MOL0     H52259   0.944   5.212   9.945 -0.5237  1.2961 -0.4682
  396MOL0     H52260   1.373   5.413   9.985 -1.9316 -2.0604 -1.3700
  396MOL0     H52261   1.618   5.396  10.015  0.4609  0.8136  1.2106
  396MOL0     H52262   1.802   5.409  10.107  4.4026  1.9716 -0.2530
  396MOL0     H52263   1.843   5.292   9.998  2.5679  3.0331  0.0574
  396MOL0     H52264   2.018   5.196  10.178  2.0332  0.0838 -0.2144
  396MOL0     H52265   2.053   5.344  10.088 -2.8962 -0.6982 -2.9439
  396MOL0     H52266   2.070   5.330  10.372 -2.9321 -0.4729  3.7223
  396MOL0     H52267   1.898   5.318  10.357  2.4762  0.0376  5.2177
  396MOL0     H52268   2.087   5.544  10.245  0.3781 -1.1258  1.4804
  396MOL0     H52269   1.910   5.563  10.262 -0.5607 -1.3306 -0.4991
  396MOL0     H52270   1.965   5.614  10.651 -2.5152 -0.7813  1.0535
  396MOL0     H52271   1.582   5.076  10.293 -1.8628  0.3741  0.4382
  396MOL0     H52272   1.337   5.087  10.271  1.5037 -0.1866  0.9136
  397MOL0     O52273  11.078   7.976   1.794  1.1137 -0.1495 -0.0103
  397MOL0     C52274  11.027   8.089   1.781  0.0521 -1.2246  0.1593
  397MOL0     O52275  10.906   8.123   1.829  0.1574  0.1194 -0.3483
  397MOL0     C52276  10.801   8.040   1.805  0.4882  0.1087  0.2536
  397MOL0     C52277  10.779   7.972   1.682  0.1428  0.3394  0.6602
  397MOL0     C52278  10.686   7.875   1.671 -0.7262  0.2402  0.2946
  397MOL0     C52279  10.598   7.845   1.770 -0.0073 -0.4194  0.4417
  397MOL0     O52280  10.508   7.749   1.744 -0.1122 -0.1408 -0.6277
  397MOL0     C52281  10.378   7.809   1.719  0.5570  1.0061 -0.2734
  397MOL0     C52282  10.267   7.705   1.681  1.0923 -1.0311 -0.1457
  397MOL0     C52283  10.240   7.614   1.799  0.2657  0.6219 -1.1633
  397MOL0     C52284  10.124   7.524   1.756  0.1440  0.5022  0.7302
  397MOL0     C52285  10.094   7.418   1.858  0.5089 -0.6214 -0.7383
  397MOL0     C52286  10.024   7.290   1.806 -0.2682 -0.3687  1.3139
  397MOL0     C52287   9.898   7.308   1.717  0.0789 -0.3966 -0.5500
  397MOL0     C52288   9.796   7.377   1.802  0.4994  0.1375 -0.5811
  397MOL0     N52289   9.659   7.338   1.768 -0.0458 -0.6181  0.0544
  397MOL0     C52290   9.611   7.216   1.754  0.1142  1.1420  0.3554
  397MOL0     C52291   9.476   7.231   1.740  0.6083  0.0158 -0.0461
  397MOL0     C52292   9.369   7.121   1.714 -0.1261  0.4549  0.2949
  397MOL0     C52293   9.273   7.116   1.828  0.1474  0.2571  0.1468
  397MOL0     C52294   9.171   7.230   1.818  1.0625  0.1382 -0.1151
  397MOL0     C52295   9.108   7.264   1.953 -0.7351 -0.9033  0.7209
  397MOL0     O52296   9.084   7.137   2.020 -0.3669  0.3096  0.2760
  397MOL0     C52297   8.946   7.108   2.038 -0.1212  0.3909  0.5009
  397MOL0     C52298   8.889   6.982   1.999  1.1591  0.2761 -0.4230
  397MOL0     C52299   8.761   6.944   2.022 -0.6286 -0.7250 -0.1092
  397MOL0     C52300   8.667   7.031   2.078 -0.6213 -0.4369  0.5149
  397MOL0     C52301   8.524   6.998   2.108 -0.0549 -0.6314 -0.9053
  397MOL0     O52302   8.492   6.878   2.058 -0.2011 -0.1257  0.0749
  397MOL0     C52303   8.373   6.833   2.105 -0.3043  0.0846  0.3768
  397MOL0     C52304   8.250   6.901   2.075 -0.3668  0.0280  0.0472
  397MOL0     C52305   8.140   6.832   2.108 -0.0367 -0.2174  1.2534
  397MOL0     C52306   8.138   6.714   2.186 -0.0823 -1.0957  0.9813
  397MOL0     O52307   8.014   6.673   2.225  0.6592 -0.0552 -0.3814
  397MOL0     C52308   7.996   6.575   2.335  0.0704 -0.7749 -0.4341
  397MOL0     C52309   7.852   6.538   2.344  0.0620  0.4041 -0.5233
  397MOL0     C52310   7.773   6.474   2.224  0.2453 -0.2702 -0.3149
  397MOL0     C52311   7.635   6.432   2.269 -0.2445 -0.8595  0.4250
  397MOL0     C52312   7.551   6.552   2.310 -0.0784  0.6037  0.3242
  397MOL0     C52313   7.396   6.506   2.319  0.2150 -0.3684 -0.8397
  397MOL0     C52314   7.394   6.387   2.419  0.6426 -0.5334 -0.7731
  397MOL0     C52315   7.268   6.370   2.503  0.1613 -0.7242  0.1557
  397MOL0    Cl52316   7.112   6.363   2.408 -0.5497  0.1722 -0.6119
  397MOL0     C52317   8.257   6.654   2.211  0.5366 -0.3800 -0.4023
  397MOL0     C52318   8.374   6.707   2.168  0.0311  0.0336 -0.5813
  397MOL0     O52319   8.448   7.076   2.171 -0.2023 -0.2552 -0.6100
  397MOL0     C52320   8.714   7.157   2.107 -0.7322 -0.1653  0.3315
  397MOL0     C52321   8.842   7.189   2.085 -0.8434  0.7774  0.1471
  397MOL0     N52322   9.446   7.366   1.750 -0.4275 -0.7664  0.0519
  397MOL0     N52323   9.558   7.432   1.762 -0.2256  0.5951 -0.3433
  397MOL0     C52324  10.611   7.917   1.895  0.2995  0.4501  0.4679
  397MOL0     C52325  10.708   8.016   1.909 -0.4834 -0.5376  0.1785
  397MOL0     C52326  11.110   8.210   1.755 -0.3565  0.9057  0.1588
  397MOL0     C52327  11.251   8.208   1.756 -0.1236 -0.1445  0.2952
  397MOL0     C52328  11.323   8.313   1.706  1.0173  0.4841  0.2607
  397MOL0     C52329  11.254   8.433   1.653 -0.0189  0.5451 -0.3025
  397MOL0     O52330  11.332   8.537   1.618  0.0293  0.4712  0.6507
  397MOL0     C52331  11.277   8.664   1.620  1.0128 -0.1019 -0.1532
  397MOL0     C52332  11.267   8.730   1.480 -0.4475 -0.5318  0.2657
  397MOL0     C52333  11.400   8.751   1.400 -0.3227  0.5512  0.2336
  397MOL0     C52334  11.527   8.766   1.480  0.1704 -0.6755 -0.9671
  397MOL0     C52335  11.643   8.775   1.393 -0.6520 -0.0274  0.2244
  397MOL0     C52336  11.760   8.769   1.348 -0.9091 -1.0969  0.4373
  397MOL0     C52337  11.119   8.434   1.661  0.5484  0.0198  0.1309
  397MOL0     C52338  11.038   8.323   1.705 -0.3849 -0.3978  0.5098
  397MOL0     H52339  10.851   8.004   1.607 -1.5064  1.0220 -0.6920
  397MOL0     H52340  10.666   7.835   1.571 -1.8872  1.7155 -0.1046
  397MOL0     H52341  10.401   7.868   1.630 -0.9755 -0.7477 -1.9049
  397MOL0     H52342  10.349   7.867   1.807 -0.3550  1.5287 -0.9088
  397MOL0     H52343  10.306   7.649   1.595  3.8306  1.5288 -0.7338
  397MOL0     H52344  10.178   7.761   1.650  1.8156  1.1435  1.4995
  397MOL0     H52345  10.208   7.683   1.878 -0.4525  0.4380 -1.2839
  397MOL0     H52346  10.333   7.567   1.831 -0.6177  0.6350  1.6644
  397MOL0     H52347  10.031   7.577   1.731 -0.8454 -1.3257  0.3173
  397MOL0     H52348  10.148   7.472   1.664 -1.1938 -0.1600  0.7256
  397MOL0     H52349  10.036   7.464   1.938  0.6491 -1.5886 -0.0574
  397MOL0     H52350  10.182   7.385   1.914 -1.1574 -0.3816  2.2236
  397MOL0     H52351   9.996   7.221   1.886 -0.1232 -2.7721 -0.6067
  397MOL0     H52352  10.097   7.232   1.748  1.4920 -1.2526  4.1925
  397MOL0     H52353   9.921   7.371   1.631  0.1374  0.8056  0.3147
  397MOL0     H52354   9.858   7.216   1.674 -0.2657 -0.7454  0.4799
  397MOL0     H52355   9.818   7.484   1.796 -0.6863  0.9506  4.7665
  397MOL0     H52356   9.805   7.359   1.909 -0.4063  0.5951 -0.4237
  397MOL0     H52357   9.664   7.121   1.763  1.4047  1.6350 -1.4307
  397MOL0     H52358   9.428   7.029   1.707  0.9824  1.1909 -0.3606
  397MOL0     H52359   9.319   7.133   1.617 -1.8244  0.1513  1.0971
  397MOL0     H52360   9.325   7.118   1.925  0.0518 -1.3144  0.2510
  397MOL0     H52361   9.214   7.026   1.811  0.0628  0.3081  0.1699
  397MOL0     H52362   9.221   7.320   1.783  0.9633  2.0789  4.1058
  397MOL0     H52363   9.089   7.204   1.750  1.2316  1.7490 -0.9767
  397MOL0     H52364   9.021   7.330   1.945  0.7026  1.2621  2.0934
  397MOL0     H52365   9.175   7.327   2.012  0.9230 -0.7233 -1.2297
  397MOL0     H52366   8.959   6.915   1.951  2.1346 -0.7157  2.1785
  397MOL0     H52367   8.737   6.840   2.000  1.6165 -1.1801 -0.6671
  397MOL0     H52368   8.251   6.990   2.014 -2.0489  1.1641  1.5949
  397MOL0     H52369   8.048   6.882   2.076  0.3563 -1.0302 -1.3586
  397MOL0     H52370   8.035   6.618   2.428  0.9834  1.6539 -1.8442
  397MOL0     H52371   8.047   6.480   2.315  0.7804 -0.3758 -0.5412
  397MOL0     H52372   7.804   6.633   2.373  1.4518  0.6858  0.9809
  397MOL0     H52373   7.841   6.474   2.432  0.4927  0.7929 -0.1791
  397MOL0     H52374   7.831   6.385   2.199  2.6687  1.0336  0.2830
  397MOL0     H52375   7.783   6.527   2.129  1.2083  1.9313  0.9233
  397MOL0     H52376   7.602   6.379   2.179  2.6134 -2.1539  0.0113
  397MOL0     H52377   7.647   6.365   2.354  3.0398  1.6484  2.1815
  397MOL0     H52378   7.553   6.626   2.229 -0.3874 -1.3155 -1.5208
  397MOL0     H52379   7.591   6.598   2.401  1.2471  2.5248 -1.1418
  397MOL0     H52380   7.366   6.466   2.222  0.5048 -2.5293 -0.1151
  397MOL0     H52381   7.338   6.589   2.359  0.0883 -1.3293  1.1147
  397MOL0     H52382   7.402   6.301   2.353 -0.3963 -2.9931  2.0832
  397MOL0     H52383   7.473   6.399   2.494 -0.9535 -1.9434  1.2526
  397MOL0     H52384   7.259   6.443   2.583  0.4760 -2.4150  1.8062
  397MOL0     H52385   7.275   6.284   2.571  2.4421  0.4367  1.5184
  397MOL0     H52386   8.256   6.560   2.266  2.8264 -0.5855 -0.6451
  397MOL0     H52387   8.471   6.658   2.173  0.7750  1.3114 -1.7641
  397MOL0     H52388   8.651   7.234   2.151 -1.0583 -2.4663  4.5028
  397MOL0     H52389   8.860   7.289   2.124  1.4958  0.8955 -1.0653
  397MOL0     H52390  10.541   7.903   1.977 -1.9346  2.0777 -1.0143
  397MOL0     H52391  10.732   8.084   1.991  1.5176 -1.3597  0.3182
  397MOL0     H52392  11.295   8.117   1.796 -1.6843 -1.7607 -1.4699
  397MOL0     H52393  11.431   8.313   1.718  1.3412 -0.9763 -1.9438
  397MOL0     H52394  11.309   8.729   1.702 -2.8308 -0.4462  1.8981
  397MOL0     H52395  11.174   8.673   1.656  1.2819  1.2928  0.3141
  397MOL0     H52396  11.191   8.668   1.429  0.7784 -1.7037 -0.1944
  397MOL0     H52397  11.216   8.826   1.490 -0.3881 -0.4754  0.0217
  397MOL0     H52398  11.390   8.840   1.338  0.2029 -0.4789 -1.3778
  397MOL0     H52399  11.415   8.663   1.336 -1.4521 -1.0912  2.0945
  397MOL0     H52400  11.530   8.861   1.535  0.1988 -0.3759 -1.4806
  397MOL0     H52401  11.533   8.693   1.561 -2.3735 -0.1605 -0.2169
  397MOL0     H52402  11.860   8.747   1.318 -0.7667 -1.2250  0.9854
  397MOL0     H52403  11.059   8.516   1.622  1.3602  0.2247 -0.7129
  397MOL0     H52404  10.930   8.319   1.700 -0.4139 -1.3178  1.5617
  398MOL0     O52405   4.122   4.150   4.253 -0.3428 -0.2964  0.1790
  398MOL0     C52406   4.131   4.042   4.199  0.5428 -0.7587 -0.7650
  398MOL0     O52407   4.041   3.944   4.222 -0.0184 -0.3737  0.3868
  398MOL0     C52408   3.926   3.987   4.270  0.6000  0.3855 -0.6672
  398MOL0     C52409   3.815   3.972   4.191 -0.1441  0.1501 -0.8316
  398MOL0     C52410   3.681   4.006   4.230 -0.7123  0.4923 -0.0010
  398MOL0     C52411   3.664   4.050   4.361 -0.6092  0.7782  0.5189
  398MOL0     O52412   3.547   4.096   4.406  0.2039 -0.7060 -0.1007
  398MOL0     C52413   3.442   4.139   4.322 -0.4117  0.0179  0.0400
  398MOL0     C52414   3.327   4.177   4.413 -0.0561 -0.7081  0.0373
  398MOL0     C52415   3.211   4.238   4.330  1.0567  0.1842  0.8811
  398MOL0     C52416   3.087   4.256   4.406  0.2112 -0.6874 -0.3512
  398MOL0     C52417   2.980   4.338   4.341 -0.1208  0.9783  0.2347
  398MOL0     C52418   2.837   4.284   4.348  0.1007  0.1729 -1.0864
  398MOL0     C52419   2.748   4.378   4.276  0.8197  0.4248  0.0425
  398MOL0     C52420   2.603   4.385   4.332 -0.4789 -1.0201 -0.9241
  398MOL0     N52421   2.525   4.476   4.254  0.3254  1.1321 -0.2914
  398MOL0     C52422   2.486   4.606   4.286  0.4246  0.2366 -0.3746
  398MOL0     C52423   2.407   4.641   4.180  0.1631  0.1957  0.1670
  398MOL0     C52424   2.330   4.767   4.186 -1.1082 -0.4645 -0.1932
  398MOL0     C52425   2.231   4.771   4.303 -0.2746  0.0432  0.2726
  398MOL0     C52426   2.141   4.644   4.315 -0.0541  0.0688  0.8327
  398MOL0     C52427   2.024   4.661   4.210  0.1143  0.8068  0.1992
  398MOL0     O52428   1.939   4.766   4.246 -0.1779 -0.3211  0.1279
  398MOL0     C52429   1.811   4.750   4.301 -1.1139  0.1704 -0.6768
  398MOL0     C52430   1.773   4.629   4.373  0.0501 -1.0187 -0.4758
  398MOL0     C52431   1.645   4.614   4.413 -0.0123 -0.9916  0.4961
  398MOL0     C52432   1.552   4.721   4.406 -0.5212 -0.5350 -0.4681
  398MOL0     C52433   1.415   4.706   4.456 -0.5836  1.2366  0.7199
  398MOL0     O52434   1.321   4.796   4.421 -0.0792 -0.0249 -0.7799
  398MOL0     C52435   1.193   4.794   4.480  0.2068  0.0750  0.6459
  398MOL0     C52436   1.097   4.850   4.394  0.8040  0.6315  1.6290
  398MOL0     C52437   0.960   4.862   4.425  0.0269  0.2189 -0.2144
  398MOL0     C52438   0.918   4.813   4.550 -0.6048 -0.6585 -0.4137
  398MOL0     O52439   0.787   4.828   4.585 -0.1187 -0.4169  0.2630
  398MOL0     C52440   0.759   4.795   4.722 -0.5252  0.1247 -0.5196
  398MOL0     C52441   0.636   4.871   4.773 -0.1978 -0.2339  0.3299
  398MOL0     C52442   0.499   4.850   4.718 -0.5445 -0.1419  0.0774
  398MOL0     C52443   0.478   4.699   4.675  1.0653 -0.4236  0.1322
  398MOL0     C52444   0.338   4.656   4.653  0.1522  0.1866 -0.4932
  398MOL0     C52445   0.245   4.674   4.770  0.1262  0.2271  0.1667
  398MOL0     C52446   0.145   4.560   4.801  0.0708  0.0347  0.3804
  398MOL0     C52447   0.136   4.539   4.954  1.0027 -0.1298  0.5604
  398MOL0    Cl52448   0.091   4.694   5.037  0.3528 -0.3112 -0.0138
  398MOL0     C52449   1.023   4.760   4.633 -0.3321 -0.2695  0.4853
  398MOL0     C52450   1.160   4.747   4.600 -0.2097 -0.0913  0.4109
  398MOL0     O52451   1.395   4.595   4.510 -0.0922  0.4165  0.9197
  398MOL0     C52452   1.596   4.846   4.356 -0.4528 -0.0221 -0.3626
  398MOL0     C52453   1.727   4.862   4.305 -0.4987  0.2980 -0.4409
  398MOL0     N52454   2.415   4.543   4.081 -0.2789 -1.1412 -0.1709
  398MOL0     N52455   2.471   4.439   4.130  0.0919  0.2855 -0.6244
  398MOL0     C52456   3.780   4.055   4.445  0.1173 -0.2472 -0.1013
  398MOL0     C52457   3.907   4.022   4.408 -0.5202 -0.2656 -0.0928
  398MOL0     C52458   4.245   3.995   4.119  0.4885 -0.0592 -0.5521
  398MOL0     C52459   4.239   3.884   4.033  0.1668 -0.4600  0.0308
  398MOL0     C52460   4.349   3.838   3.958 -0.1624 -0.3856  0.8432
  398MOL0     C52461   4.470   3.911   3.968 -0.3155  0.0841  0.1945
  398MOL0     O52462   4.582   3.883   3.887  0.1453  0.4077 -0.8147
  398MOL0     C52463   4.554   3.931   3.755  0.3366 -0.0631  0.1815
  398MOL0     C52464   4.681   3.938   3.671  0.3843 -0.1740 -1.0297
  398MOL0     C52465   4.655   4.038   3.548  0.5739  0.2187  0.0200
  398MOL0     C52466   4.755   4.160   3.546  0.1663  0.3611 -0.1322
  398MOL0     C52467   4.749   4.248   3.428 -0.0091 -0.2276 -0.3086
  398MOL0     C52468   4.740   4.319   3.330 -0.2239 -0.3379  0.2969
  398MOL0     C52469   4.474   4.020   4.056 -0.2025  0.7124  0.3262
  398MOL0     C52470   4.367   4.057   4.135  0.8715  0.3184 -1.1971
  398MOL0     H52471   3.834   3.930   4.093 -1.2167  1.6641 -1.7390
  398MOL0     H52472   3.597   4.011   4.162  0.6562  2.4539 -1.6741
  398MOL0     H52473   3.406   4.065   4.250 -0.9714  0.2935  0.0341
  398MOL0     H52474   3.474   4.228   4.266 -2.0786  0.8685  0.3885
  398MOL0     H52475   3.378   4.247   4.480  2.3009 -2.0514 -0.2303
  398MOL0     H52476   3.300   4.090   4.474  0.0725 -0.4568  0.4584
  398MOL0     H52477   3.185   4.165   4.252 -1.1237 -2.3004  3.6928
  398MOL0     H52478   3.228   4.344   4.307 -0.0129  1.3301  4.6645
  398MOL0     H52479   3.060   4.152   4.427 -0.1087 -0.3645  0.9701
  398MOL0     H52480   3.103   4.295   4.507 -0.6106 -0.8093 -0.1649
  398MOL0     H52481   3.015   4.339   4.237  0.4485 -1.2498  0.3452
  398MOL0     H52482   2.985   4.442   4.375  2.2441  1.6793 -1.9022
  398MOL0     H52483   2.809   4.284   4.454  0.6236  0.2923 -0.9488
  398MOL0     H52484   2.831   4.185   4.300 -2.7052 -0.0291 -0.5384
  398MOL0     H52485   2.785   4.481   4.276  0.7037  0.4840  1.3525
  398MOL0     H52486   2.739   4.337   4.175  0.5631 -1.6150  0.8437
  398MOL0     H52487   2.592   4.410   4.438 -1.1598 -0.6579 -1.0743
  398MOL0     H52488   2.559   4.285   4.323 -3.2967 -0.0176  0.6464
  398MOL0     H52489   2.503   4.665   4.376  1.7087 -0.6166 -0.0274
  398MOL0     H52490   2.281   4.793   4.092 -1.9300  2.5327  0.9375
  398MOL0     H52491   2.404   4.847   4.201  0.0822 -1.0446 -2.4348
  398MOL0     H52492   2.183   4.869   4.309  1.2315  0.7466  1.8120
  398MOL0     H52493   2.293   4.770   4.393  0.8849 -3.3526 -0.4200
  398MOL0     H52494   2.186   4.545   4.304  1.6544  0.9010 -0.0620
  398MOL0     H52495   2.095   4.638   4.414 -2.2730  1.7270  0.0039
  398MOL0     H52496   1.972   4.568   4.191 -0.7852  0.8217  2.2881
  398MOL0     H52497   2.074   4.708   4.125 -1.2202  1.2194 -0.3773
  398MOL0     H52498   1.841   4.544   4.377  2.8733  1.1050  0.9571
  398MOL0     H52499   1.621   4.516   4.455  1.9074 -2.6201 -1.9319
  398MOL0     H52500   1.129   4.881   4.295 -1.7890 -0.2081  0.4505
  398MOL0     H52501   0.889   4.915   4.362 -0.4804  0.0550  0.2072
  398MOL0     H52502   0.834   4.831   4.792 -1.0484 -5.6008  3.7158
  398MOL0     H52503   0.753   4.686   4.727 -1.9019  0.0503 -2.4568
  398MOL0     H52504   0.664   4.976   4.761  1.7162 -0.8336 -0.9875
  398MOL0     H52505   0.618   4.832   4.873  2.5831 -0.4031  0.8331
  398MOL0     H52506   0.475   4.913   4.632  2.9906 -0.5138 -1.3850
  398MOL0     H52507   0.431   4.884   4.796 -1.6460  2.2750 -1.7714
  398MOL0     H52508   0.544   4.692   4.588  1.3469  1.5242  0.1357
  398MOL0     H52509   0.507   4.636   4.760  0.3498 -1.4996 -0.4153
  398MOL0     H52510   0.320   4.553   4.621 -2.6466  0.4191  0.0801
  398MOL0     H52511   0.299   4.717   4.570 -0.7505  1.4039  0.7844
  398MOL0     H52512   0.184   4.765   4.760 -1.4298 -0.2185  3.9104
  398MOL0     H52513   0.302   4.691   4.861 -0.7800  2.9700  0.3378
  398MOL0     H52514   0.046   4.580   4.759  0.0987 -0.3798  0.1100
  398MOL0     H52515   0.188   4.474   4.749 -0.2658  1.1291 -1.8747
  398MOL0     H52516   0.229   4.505   5.002  1.4944  1.0615  0.4864
  398MOL0     H52517   0.056   4.468   4.975 -0.8182  2.1061  1.5456
  398MOL0     H52518   0.992   4.720   4.729  1.6974 -3.4167 -0.0065
  398MOL0     H52519   1.220   4.689   4.670 -2.6081 -1.5961  1.3460
  398MOL0     H52520   1.519   4.923   4.355 -0.5438  0.2766  4.5668
  398MOL0     H52521   1.763   4.959   4.271  1.2281 -0.5708 -1.2606
  398MOL0     H52522   3.762   4.095   4.545 -0.1320  1.7760 -0.9063
  398MOL0     H52523   3.993   4.013   4.474 -1.8624 -0.5865  1.6978
  398MOL0     H52524   4.144   3.832   4.029 -0.0357 -0.1128  0.3201
  398MOL0     H52525   4.341   3.748   3.899  1.6212 -1.0643  1.5832
  398MOL0     H52526   4.522   4.035   3.766  0.9617 -0.0014  1.7090
  398MOL0     H52527   4.475   3.874   3.706  0.3883 -0.3148  0.3885
  398MOL0     H52528   4.772   3.965   3.726  0.9768 -2.3925 -0.8025
  398MOL0     H52529   4.693   3.835   3.636 -2.6964 -0.4745 -1.4245
  398MOL0     H52530   4.547   4.057   3.548  0.2015 -1.0886  3.7989
  398MOL0     H52531   4.667   3.987   3.452 -1.2797 -0.8597  0.3207
  398MOL0     H52532   4.745   4.218   3.638  2.1574  1.6898 -0.6923
  398MOL0     H52533   4.859   4.126   3.548  1.2213  3.2324 -1.1272
  398MOL0     H52534   4.731   4.378   3.241 -0.7568 -0.8644 -0.0002
  398MOL0     H52535   4.559   4.087   4.062  1.9955 -1.7364 -1.0308
  398MOL0     H52536   4.378   4.141   4.204 -1.5294  1.1066 -1.6720
  399MOL0     O52537   2.540   4.202   9.768  0.5441  0.6991 -0.7367
  399MOL0     C52538   2.565   4.082   9.774  0.2514 -0.0326 -0.3941
  399MOL0     O52539   2.474   3.981   9.785  0.0614  0.5464  0.1411
  399MOL0     C52540   2.337   4.002   9.791  0.7637  0.3605 -0.5723
  399MOL0     C52541   2.284   4.116   9.864 -0.6879  0.6916  0.4235
  399MOL0     C52542   2.146   4.129   9.869 -0.1593 -0.0671 -1.0054
  399MOL0     C52543   2.060   4.042   9.803 -0.3528  0.4170 -0.4339
  399MOL0     O52544   1.931   4.084   9.789 -0.4030  0.7343  0.4115
  399MOL0     C52545   1.837   3.994   9.737 -0.1962  0.7308 -0.1153
  399MOL0     C52546   1.714   4.071   9.698  0.5316  0.4260 -0.5773
  399MOL0     C52547   1.624   3.970   9.637  0.7463  0.3212 -0.0050
  399MOL0     C52548   1.487   4.030   9.601  0.0058  0.2474  0.2293
  399MOL0     C52549   1.383   3.927   9.561 -0.4681  0.3134  0.0318
  399MOL0     C52550   1.251   3.985   9.501  0.4816  0.3817  0.1183
  399MOL0     C52551   1.146   3.878   9.473 -0.1520 -0.0918 -0.2431
  399MOL0     C52552   1.068   3.922   9.349 -0.1056  0.3001 -0.3991
  399MOL0     N52553   0.946   3.839   9.331 -0.0285 -0.4855  0.1221
  399MOL0     C52554   0.933   3.701   9.335  0.7979 -0.7995 -0.4521
  399MOL0     C52555   0.796   3.676   9.320  0.4186  0.0127  0.2461
  399MOL0     C52556   0.726   3.545   9.307 -0.6181  0.3195  0.2720
  399MOL0     C52557   0.583   3.554   9.262  0.0982  0.4401  0.1181
  399MOL0     C52558   0.517   3.420   9.289 -0.2346  0.0465 -0.3630
  399MOL0     C52559   0.386   3.400   9.220  0.0370  0.3403 -1.2388
  399MOL0     O52560   0.287   3.500   9.261  0.2010  0.0382  0.0532
  399MOL0     C52561   0.180   3.463   9.337  0.1773  0.3870  1.0885
  399MOL0     C52562   0.190   3.404   9.460  0.0932 -1.0357 -1.2375
  399MOL0     C52563   0.075   3.348   9.513 -0.6105  0.2536  0.8823
  399MOL0     C52564  -0.044   3.329   9.435 -0.2047  0.0658 -1.4997
  399MOL0     C52565  -0.162   3.259   9.497  1.2787  0.3351  0.8584
  399MOL0     O52566  -0.257   3.223   9.413  0.5277 -0.2621  0.5921
  399MOL0     C52567  -0.392   3.205   9.456 -0.2303  0.4703 -1.3042
  399MOL0     C52568  -0.464   3.092   9.424  0.7273 -0.9004 -0.5990
  399MOL0     C52569  -0.595   3.082   9.459 -0.3821  0.4595 -0.0177
  399MOL0     C52570  -0.651   3.180   9.545 -0.2009  0.2444  0.1260
  399MOL0     O52571  -0.783   3.167   9.581  0.0871 -0.2391 -0.2493
  399MOL0     C52572  -0.813   3.045   9.648  0.8117  0.2904 -0.1795
  399MOL0     C52573  -0.956   3.033   9.693 -0.1872  0.3167  0.2233
  399MOL0     C52574  -1.009   3.162   9.735 -0.2549  0.3247  0.0164
  399MOL0     C52575  -1.135   3.146   9.823  0.2790 -0.0297  0.5050
  399MOL0     C52576  -1.266   3.129   9.733 -0.8693  0.1088  0.6421
  399MOL0     C52577  -1.387   3.095   9.823  0.1011 -0.0117  0.6445
  399MOL0     C52578  -1.405   2.943   9.837  0.3405 -0.3615 -0.2490
  399MOL0     C52579  -1.527   2.911   9.931  0.7156 -0.5751  0.2546
  399MOL0    Cl52580  -1.669   2.931   9.837 -0.6013  0.1943 -0.3445
  399MOL0     C52581  -0.577   3.287   9.591 -0.3284 -0.2114 -0.1424
  399MOL0     C52582  -0.449   3.301   9.546 -0.0603  0.2729  1.1311
  399MOL0     O52583  -0.162   3.238   9.618 -0.3748  0.1390 -0.9922
  399MOL0     C52584  -0.045   3.385   9.306 -0.9625  0.5823 -0.4472
  399MOL0     C52585   0.069   3.454   9.255 -0.5160 -0.9319 -0.4791
  399MOL0     N52586   0.735   3.801   9.301 -0.1871  0.5034 -0.6279
  399MOL0     N52587   0.828   3.898   9.296  0.1268 -0.0316  0.5847
  399MOL0     C52588   2.118   3.944   9.724  0.0759  0.5051  0.2966
  399MOL0     C52589   2.252   3.923   9.724 -0.1063 -0.3117  0.2500
  399MOL0     C52590   2.710   4.058   9.779  0.3303 -0.2184 -0.0344
  399MOL0     C52591   2.753   3.932   9.767  0.1091  0.0588  0.3102
  399MOL0     C52592   2.890   3.907   9.761 -0.3627  0.2310  0.0264
  399MOL0     C52593   2.987   4.006   9.779  0.0039  0.1649  0.1512
  399MOL0     O52594   3.111   3.957   9.763 -0.1420  0.1101  0.1370
  399MOL0     C52595   3.218   4.050   9.771 -0.3280 -0.3246  0.0598
  399MOL0     C52596   3.342   3.976   9.710 -0.3460 -0.2199 -0.4890
  399MOL0     C52597   3.455   4.077   9.692  0.6333 -1.2103  0.0577
  399MOL0     C52598   3.586   4.007   9.645  0.5039 -0.2078 -0.5770
  399MOL0     C52599   3.693   4.106   9.653  0.7659  0.1241  0.6831
  399MOL0     C52600   3.791   4.177   9.645  0.1170 -0.8333  0.4306
  399MOL0     C52601   2.948   4.134   9.811  0.8095  0.6093  0.6891
  399MOL0     C52602   2.810   4.167   9.804 -0.0073 -0.4690  0.1400
  399MOL0     H52603   2.360   4.181   9.906  3.6503 -0.7039 -4.2062
  399MOL0     H52604   2.115   4.207   9.938  1.2371 -0.4641  0.1315
  399MOL0     H52605   1.820   3.929   9.824  2.9589  0.8790  0.7363
  399MOL0     H52606   1.868   3.931   9.654 -1.4927  1.6975 -1.3912
  399MOL0     H52607   1.742   4.151   9.630  0.6772  1.9866  1.2383
  399MOL0     H52608   1.682   4.115   9.793  1.6838  0.6422 -0.2754
  399MOL0     H52609   1.609   3.887   9.706  1.1723  1.0019  0.9263
  399MOL0     H52610   1.666   3.928   9.545 -1.1860  1.6066 -1.5642
  399MOL0     H52611   1.445   4.081   9.688 -1.3554 -3.8896  2.2602
  399MOL0     H52612   1.512   4.102   9.522  2.7580  0.5379  1.2497
  399MOL0     H52613   1.358   3.876   9.655  0.0078  2.3210  1.3143
  399MOL0     H52614   1.423   3.864   9.481 -0.4578 -0.9712  0.9986
  399MOL0     H52615   1.275   4.051   9.418 -4.5997  3.5003  0.7437
  399MOL0     H52616   1.214   4.059   9.572  1.9400  1.5522 -0.2958
  399MOL0     H52617   1.199   3.783   9.459  0.5948  0.2588  0.1359
  399MOL0     H52618   1.076   3.854   9.553 -0.9852 -1.5865 -1.3630
  399MOL0     H52619   1.137   3.924   9.263 -1.2436  1.1349 -1.3259
  399MOL0     H52620   1.037   4.024   9.374  0.5983 -0.1794  2.8109
  399MOL0     H52621   1.002   3.618   9.346 -0.4425 -1.8231 -0.2061
  399MOL0     H52622   0.733   3.495   9.404 -0.1898 -1.7193 -0.7646
  399MOL0     H52623   0.777   3.475   9.240 -1.5889  0.7251 -0.9304
  399MOL0     H52624   0.594   3.573   9.155 -0.2996 -5.6657 -1.3971
  399MOL0     H52625   0.526   3.634   9.311  1.4549  1.5048  0.0159
  399MOL0     H52626   0.582   3.342   9.249  0.3894  0.4449 -0.1462
  399MOL0     H52627   0.502   3.417   9.397  0.9028  2.2975 -0.0957
  399MOL0     H52628   0.349   3.297   9.232  1.0415 -0.0622 -1.4525
  399MOL0     H52629   0.411   3.415   9.115 -0.0638  3.2115 -0.9108
  399MOL0     H52630   0.280   3.414   9.520 -0.6642 -0.6421 -0.1493
  399MOL0     H52631   0.089   3.304   9.611  2.5541  2.6681  1.6456
  399MOL0     H52632  -0.414   3.018   9.362  0.9235 -1.0929 -0.2158
  399MOL0     H52633  -0.657   3.004   9.416  2.6368 -2.7710  1.0430
  399MOL0     H52634  -0.761   3.051   9.744 -3.2756 -2.9017  2.6387
  399MOL0     H52635  -0.790   2.954   9.593 -1.0920  0.2287 -0.9537
  399MOL0     H52636  -0.960   2.969   9.781 -1.5651  0.9334  0.6310
  399MOL0     H52637  -1.020   2.989   9.615 -0.0000 -2.0129  1.2865
  399MOL0     H52638  -1.022   3.231   9.652  3.4812 -2.2614 -3.0800
  399MOL0     H52639  -0.923   3.203   9.790  1.0625  1.0704 -2.4729
  399MOL0     H52640  -1.125   3.061   9.891  0.8916 -0.7900 -0.5149
  399MOL0     H52641  -1.148   3.240   9.877 -4.4613  0.8805 -1.6503
  399MOL0     H52642  -1.242   3.049   9.663  1.8468  1.3767 -0.0233
  399MOL0     H52643  -1.287   3.215   9.669  0.1878 -0.9435 -1.2094
  399MOL0     H52644  -1.477   3.151   9.796 -1.6291 -2.1864  1.5732
  399MOL0     H52645  -1.370   3.119   9.929  2.4749 -0.4615  0.4185
  399MOL0     H52646  -1.438   2.908   9.739 -0.4547  2.5395 -1.1233
  399MOL0     H52647  -1.322   2.884   9.878  0.0850  0.2568  1.2327
  399MOL0     H52648  -1.532   2.979  10.016  0.8928 -0.9764  0.5872
  399MOL0     H52649  -1.535   2.812   9.978 -3.3750 -1.7501 -2.4203
  399MOL0     H52650  -0.631   3.360   9.649 -1.1075  0.4129 -1.5874
  399MOL0     H52651  -0.389   3.387   9.574  3.6212 -1.1937 -1.4563
  399MOL0     H52652  -0.125   3.386   9.232  1.0935  0.7904 -2.8038
  399MOL0     H52653   0.070   3.496   9.155  1.7666 -0.7331 -0.4198
  399MOL0     H52654   2.053   3.879   9.665  0.6951  0.7517 -0.6788
  399MOL0     H52655   2.286   3.842   9.660 -3.6319  0.3486 -2.8279
  399MOL0     H52656   2.686   3.851   9.743  3.6248 -2.9775 -0.1369
  399MOL0     H52657   2.930   3.811   9.731  1.8053  0.5281  1.6756
  399MOL0     H52658   3.248   4.085   9.870 -0.2684  0.9909 -0.4015
  399MOL0     H52659   3.200   4.138   9.709 -0.9046 -0.4282  0.0745
  399MOL0     H52660   3.368   3.903   9.787 -0.4942 -0.0922 -0.3160
  399MOL0     H52661   3.319   3.930   9.613  0.9362 -2.1649  0.0853
  399MOL0     H52662   3.471   4.125   9.789  1.1447 -0.5743 -0.3308
  399MOL0     H52663   3.428   4.150   9.616 -1.9249 -0.7461  1.2871
  399MOL0     H52664   3.613   3.916   9.699 -0.5619  0.0301  0.3925
  399MOL0     H52665   3.578   3.975   9.540  3.0322  3.4652 -2.0935
  399MOL0     H52666   3.872   4.237   9.609 -2.3441  2.2201 -0.5169
  399MOL0     H52667   3.027   4.207   9.798  2.2263 -0.8500  0.7829
  399MOL0     H52668   2.769   4.263   9.834 -2.3675 -0.3602 -2.9358
  400MOL0     O52669   5.580   7.782   5.424 -0.3134  0.4813 -0.8136
  400MOL0     C52670   5.546   7.665   5.442 -0.0256  0.2621  0.4046
  400MOL0     O52671   5.423   7.605   5.435  0.0401 -0.0782 -0.0555
  400MOL0     C52672   5.311   7.675   5.399 -0.0938  0.2476 -0.6529
  400MOL0     C52673   5.302   7.780   5.309  0.2905 -0.6075  0.3876
  400MOL0     C52674   5.190   7.862   5.301 -0.0197  0.9212 -0.0212
  400MOL0     C52675   5.074   7.822   5.366  0.5068  0.5320 -0.3304
  400MOL0     O52676   4.956   7.894   5.373  0.1756  0.5147 -0.6914
  400MOL0     C52677   4.958   8.033   5.333  0.6585  0.0196  0.5983
  400MOL0     C52678   4.913   8.058   5.188 -0.0945 -0.1979  0.6010
  400MOL0     C52679   4.782   7.979   5.146 -0.1909  0.1097 -0.1183
  400MOL0     C52680   4.643   8.036   5.200  0.2857 -0.7457  0.6431
  400MOL0     C52681   4.518   7.967   5.154 -0.0590 -0.5348  0.3582
  400MOL0     C52682   4.484   7.997   5.008  0.2347  0.4007 -0.1231
  400MOL0     C52683   4.347   7.947   4.962 -0.0071  0.5492 -0.0026
  400MOL0     C52684   4.346   7.793   4.955  0.4530  0.6740  0.6553
  400MOL0     N52685   4.209   7.749   4.907  0.2776  0.1408  0.1872
  400MOL0     C52686   4.121   7.834   4.836 -0.0647 -0.0862 -0.2045
  400MOL0     C52687   4.021   7.753   4.821  1.1281 -0.0340  0.3634
  400MOL0     C52688   3.887   7.784   4.766 -0.7067 -0.1417 -0.2918
  400MOL0     C52689   3.770   7.712   4.821 -0.0553  0.7239  0.3420
  400MOL0     C52690   3.652   7.755   4.738 -0.1685  0.7250 -0.2402
  400MOL0     C52691   3.521   7.719   4.804  0.8964  0.3600  0.6497
  400MOL0     O52692   3.498   7.780   4.932 -0.6724 -0.0595  0.5568
  400MOL0     C52693   3.382   7.748   4.995  0.5284  0.4284 -0.7748
  400MOL0     C52694   3.349   7.623   5.033 -0.3992 -0.9302  0.5591
  400MOL0     C52695   3.241   7.587   5.108  0.7874  0.2053 -0.6858
  400MOL0     C52696   3.158   7.690   5.155  0.5155  0.8394  0.1311
  400MOL0     C52697   3.039   7.662   5.235  0.4625  0.7176  0.3626
  400MOL0     O52698   2.974   7.775   5.274  0.6223 -0.2456  0.2901
  400MOL0     C52699   2.846   7.749   5.326  0.3742  0.7209 -1.3779
  400MOL0     C52700   2.824   7.683   5.455  0.2453 -0.2268 -0.0193
  400MOL0     C52701   2.692   7.669   5.507  0.1080 -0.3065 -1.2137
  400MOL0     C52702   2.589   7.733   5.432  0.3786 -1.0891 -0.6775
  400MOL0     O52703   2.463   7.723   5.495 -0.0531  0.4227 -0.6026
  400MOL0     C52704   2.360   7.797   5.444  0.7160 -0.4389 -0.0011
  400MOL0     C52705   2.235   7.778   5.531  0.1159 -0.0497 -0.4707
  400MOL0     C52706   2.254   7.828   5.668  0.6225  0.3261 -0.9976
  400MOL0     C52707   2.109   7.848   5.720  0.2884  0.3858 -0.0829
  400MOL0     C52708   2.117   7.899   5.867 -0.2393 -1.1247 -0.1676
  400MOL0     C52709   1.988   7.920   5.947  0.5866 -0.0827  0.6722
  400MOL0     C52710   2.023   8.002   6.070  0.1285  0.0826 -0.3663
  400MOL0     C52711   1.946   7.950   6.189  0.2590  0.2125 -0.6854
  400MOL0    Cl52712   1.774   7.923   6.140 -0.5709  0.1627  0.1862
  400MOL0     C52713   2.612   7.798   5.309  0.3245 -0.0252 -0.6814
  400MOL0     C52714   2.739   7.810   5.254  1.2613  0.8305 -0.4048
  400MOL0     O52715   3.004   7.545   5.242  0.0771 -0.8627 -0.0990
  400MOL0     C52716   3.191   7.823   5.119  0.4184 -1.2829 -0.3826
  400MOL0     C52717   3.314   7.851   5.052 -0.1992 -0.5344  0.0623
  400MOL0     N52718   4.038   7.627   4.871 -0.2567 -0.1334 -0.0379
  400MOL0     N52719   4.152   7.626   4.927  0.4516  0.0297 -0.1360
  400MOL0     C52720   5.075   7.704   5.454 -0.0691  0.8223  0.8886
  400MOL0     C52721   5.197   7.634   5.467 -0.3916 -0.0399 -0.3611
  400MOL0     C52722   5.657   7.577   5.479 -0.6370 -0.8861 -0.1426
  400MOL0     C52723   5.794   7.622   5.474 -0.2364  0.5922  0.3836
  400MOL0     C52724   5.901   7.541   5.512  0.2236  0.2242 -1.0263
  400MOL0     C52725   5.883   7.410   5.567  0.4535  0.0313  0.5697
  400MOL0     O52726   5.994   7.345   5.593  0.1886 -0.1554  0.1876
  400MOL0     C52727   5.987   7.211   5.651 -0.3564  0.2252  0.3023
  400MOL0     C52728   6.131   7.165   5.668  0.0015  0.2791 -0.2393
  400MOL0     C52729   6.212   7.252   5.770  0.3704 -0.1104  0.0539
  400MOL0     C52730   6.366   7.241   5.762  0.9601 -0.4129  0.2810
  400MOL0     C52731   6.417   7.317   5.874 -0.6226 -0.3516  0.8207
  400MOL0     C52732   6.467   7.385   5.961  0.3199  0.4783 -0.3105
  400MOL0     C52733   5.747   7.370   5.581 -1.7145 -1.1657  1.3014
  400MOL0     C52734   5.640   7.451   5.528  0.0486  0.8677 -0.3768
  400MOL0     H52735   5.383   7.787   5.237 -0.4543 -0.8861 -0.5069
  400MOL0     H52736   5.189   7.956   5.247 -0.3426  0.3778 -0.9829
  400MOL0     H52737   5.042   8.099   5.354 -0.0286  1.5495 -1.0947
  400MOL0     H52738   4.879   8.083   5.390  2.3874  1.8485  1.5072
  400MOL0     H52739   5.000   8.043   5.123  0.2772 -1.9782  1.4382
  400MOL0     H52740   4.874   8.159   5.176 -0.1759  0.0459  2.6797
  400MOL0     H52741   4.780   7.874   5.178 -0.4541  0.6209  1.6835
  400MOL0     H52742   4.767   7.994   5.039  0.9673  2.7644  0.0166
  400MOL0     H52743   4.644   8.040   5.310 -1.0476  2.2902  0.6460
  400MOL0     H52744   4.638   8.139   5.165  2.1978 -0.6965  0.4124
  400MOL0     H52745   4.436   8.011   5.211  1.0761  2.2501 -0.0145
  400MOL0     H52746   4.527   7.861   5.182  1.0687 -0.5884 -0.1532
  400MOL0     H52747   4.558   7.964   4.935 -1.8926  0.2799 -2.3606
  400MOL0     H52748   4.474   8.104   4.986  2.3499  0.7845  0.6144
  400MOL0     H52749   4.280   7.993   5.035  1.6568  1.0778  1.2470
  400MOL0     H52750   4.323   7.993   4.865  0.8947 -0.1606 -0.5739
  400MOL0     H52751   4.362   7.739   5.049 -1.7313  0.1434  0.7731
  400MOL0     H52752   4.416   7.760   4.877  0.8674  3.1429 -0.0905
  400MOL0     H52753   4.139   7.935   4.799  0.5167 -0.8934 -2.2525
  400MOL0     H52754   3.887   7.761   4.659 -0.4745  1.2210 -0.6047
  400MOL0     H52755   3.874   7.892   4.780 -0.0847  0.1431 -1.7195
  400MOL0     H52756   3.759   7.755   4.921  2.6776 -0.1904  1.1523
  400MOL0     H52757   3.771   7.602   4.825  0.3642  0.6926 -0.4251
  400MOL0     H52758   3.651   7.864   4.724  1.6020  0.7327 -0.4212
  400MOL0     H52759   3.666   7.709   4.639 -0.4740 -0.1225  0.1034
  400MOL0     H52760   3.523   7.611   4.820 -0.3711  0.2870  0.4254
  400MOL0     H52761   3.439   7.749   4.738  2.5449 -0.1892 -1.7890
  400MOL0     H52762   3.423   7.554   4.994 -0.0896  0.6877 -2.0107
  400MOL0     H52763   3.220   7.482   5.127  1.7603  0.5189  2.8690
  400MOL0     H52764   2.914   7.652   5.506  0.7436  1.9107  0.5195
  400MOL0     H52765   2.687   7.627   5.607  0.2581  2.4510  0.0442
  400MOL0     H52766   2.328   7.749   5.351  3.5537 -1.0032 -0.7655
  400MOL0     H52767   2.385   7.903   5.441 -0.4208 -0.0615  1.7359
  400MOL0     H52768   2.191   7.678   5.536 -0.6680  0.3290  0.8484
  400MOL0     H52769   2.162   7.851   5.496  1.9050  2.7318  1.1650
  400MOL0     H52770   2.303   7.926   5.667  1.0852  0.1457 -3.7490
  400MOL0     H52771   2.311   7.755   5.725 -1.8339  0.8090  2.3663
  400MOL0     H52772   2.037   7.909   5.664  0.7656 -0.0804 -1.2257
  400MOL0     H52773   2.066   7.748   5.713  2.4690 -0.6921  1.0988
  400MOL0     H52774   2.170   7.994   5.862  0.1122 -1.1789  1.7853
  400MOL0     H52775   2.173   7.831   5.932  1.4733  1.1881  0.8740
  400MOL0     H52776   1.948   7.819   5.962  0.1945 -0.1844 -0.8949
  400MOL0     H52777   1.916   7.981   5.891  0.4144 -0.8209  0.0783
  400MOL0     H52778   2.131   8.009   6.085  0.0509 -1.3396  1.0753
  400MOL0     H52779   1.997   8.107   6.053 -3.0220 -0.4260  0.6093
  400MOL0     H52780   1.961   8.028   6.264 -1.6582  0.6281 -0.6713
  400MOL0     H52781   1.988   7.855   6.224 -0.5842  0.0937  0.0564
  400MOL0     H52782   2.536   7.847   5.251  0.2662 -0.3348 -0.8693
  400MOL0     H52783   2.751   7.865   5.161 -1.1779  2.3244  0.0956
  400MOL0     H52784   3.127   7.907   5.144  1.1173 -0.5546 -0.9789
  400MOL0     H52785   3.340   7.955   5.038 -2.1468  0.0030  0.1358
  400MOL0     H52786   4.993   7.678   5.521  2.7622 -2.3962  3.5046
  400MOL0     H52787   5.213   7.555   5.540  2.3355  0.3143 -0.4992
  400MOL0     H52788   5.817   7.721   5.436  0.2752  1.2216  2.2396
  400MOL0     H52789   5.993   7.597   5.501 -0.0898  0.5672 -2.0582
  400MOL0     H52790   5.940   7.136   5.588  0.8087  0.0522 -0.3932
  400MOL0     H52791   5.934   7.222   5.746 -0.9418  2.3156 -0.2115
  400MOL0     H52792   6.142   7.063   5.704  2.0391  0.6651  0.3267
  400MOL0     H52793   6.177   7.159   5.569 -2.4521 -2.7567 -1.3869
  400MOL0     H52794   6.166   7.227   5.866 -3.1803  1.1473 -1.1397
  400MOL0     H52795   6.180   7.355   5.757  0.4414 -0.0960 -0.0058
  400MOL0     H52796   6.408   7.140   5.771 -0.9423 -1.4940 -1.9895
  400MOL0     H52797   6.397   7.282   5.665 -1.0807 -0.7290 -0.5556
  400MOL0     H52798   6.520   7.433   6.041 -2.6693 -0.1081  2.2092
  400MOL0     H52799   5.736   7.267   5.613 -0.9407 -1.4468  0.6967
  400MOL0     H52800   5.547   7.401   5.553  0.6006 -0.3198 -0.6532
  401MOL0     O52801  10.034  10.069   6.067  0.2649  0.2995  0.0328
  401MOL0     C52802  10.056  10.151   6.154 -0.2418 -0.0048 -0.1558
  401MOL0     O52803   9.995  10.171   6.278 -0.8904  0.3751 -0.4333
  401MOL0     C52804   9.896  10.084   6.318 -0.8459  0.1654  0.0277
  401MOL0     C52805   9.783  10.060   6.247 -0.2960  1.0793  0.2175
  401MOL0     C52806   9.691   9.961   6.296 -1.3982 -0.2497  0.1425
  401MOL0     C52807   9.709   9.906   6.424 -0.5352 -0.3761  0.3361
  401MOL0     O52808   9.611   9.815   6.461 -0.2420 -0.5146 -0.3539
  401MOL0     C52809   9.621   9.749   6.583 -0.2978  0.0221 -0.1861
  401MOL0     C52810   9.508   9.645   6.583  0.1468  0.6145  0.5180
  401MOL0     C52811   9.526   9.543   6.694 -1.1310 -0.2071 -0.4853
  401MOL0     C52812   9.477   9.608   6.826  0.2193 -0.1823  0.2618
  401MOL0     C52813   9.497   9.520   6.946 -0.0167 -0.1015 -0.8919
  401MOL0     C52814   9.399   9.400   6.941  0.9269 -0.1812  1.1780
  401MOL0     C52815   9.448   9.309   7.054  0.1007 -0.9640  0.1546
  401MOL0     C52816   9.375   9.178   7.077  0.5315 -0.5536 -0.1357
  401MOL0     N52817   9.235   9.191   7.128  0.7308  0.5414  0.4479
  401MOL0     C52818   9.121   9.199   7.050 -0.1022 -0.1313  0.5308
  401MOL0     C52819   9.019   9.208   7.134 -0.1067  0.4188  0.2062
  401MOL0     C52820   8.881   9.257   7.105  0.1231 -0.1127  0.5057
  401MOL0     C52821   8.787   9.168   7.176 -0.4930  0.4713 -0.0209
  401MOL0     C52822   8.641   9.211   7.141  0.7299  0.2639 -0.6217
  401MOL0     C52823   8.536   9.114   7.182 -0.2148  0.0319 -0.0960
  401MOL0     O52824   8.549   9.105   7.328 -0.1226 -0.9983 -0.3637
  401MOL0     C52825   8.493   9.003   7.403 -0.5117  0.5908 -0.2835
  401MOL0     C52826   8.478   9.008   7.542  0.9760  0.9345 -0.2829
  401MOL0     C52827   8.419   8.912   7.617  0.0247  0.4366  0.7881
  401MOL0     C52828   8.365   8.807   7.555  0.3012  0.4337  1.7817
  401MOL0     C52829   8.297   8.706   7.635  0.1631 -0.2092  0.3204
  401MOL0     O52830   8.242   8.749   7.757 -0.0984 -0.0606  0.3780
  401MOL0     C52831   8.164   8.657   7.823 -1.3234  0.1324  0.0592
  401MOL0     C52832   8.210   8.615   7.953 -0.3368 -0.2488  0.8266
  401MOL0     C52833   8.127   8.537   8.032  0.2984  0.2180 -0.6549
  401MOL0     C52834   8.007   8.488   7.981  0.0936 -0.1660  0.1585
  401MOL0     O52835   7.939   8.410   8.080  0.1340 -0.2095  0.3903
  401MOL0     C52836   7.800   8.379   8.070  0.0649 -0.7741 -0.3039
  401MOL0     C52837   7.770   8.238   8.034 -0.1104  0.4098  0.2483
  401MOL0     C52838   7.623   8.213   8.025 -1.6070 -0.0246 -0.2859
  401MOL0     C52839   7.578   8.077   7.964 -0.3434 -0.1504 -0.4012
  401MOL0     C52840   7.432   8.058   8.000 -0.8709  0.2180 -0.5781
  401MOL0     C52841   7.392   7.914   7.957  0.0014 -0.1031 -0.3025
  401MOL0     C52842   7.363   7.902   7.804 -0.6559  0.0730 -0.1752
  401MOL0     C52843   7.279   8.012   7.747 -0.8012  0.3167 -0.6433
  401MOL0    Cl52844   7.117   7.999   7.831 -0.3356 -0.2964 -0.4279
  401MOL0     C52845   7.969   8.533   7.853 -0.5063  0.3106  0.4203
  401MOL0     C52846   8.042   8.616   7.776  0.4514 -0.0720 -0.1750
  401MOL0     O52847   8.292   8.590   7.600  0.2287  0.6608  0.6345
  401MOL0     C52848   8.378   8.787   7.416 -0.6174  0.0521  0.6225
  401MOL0     C52849   8.440   8.887   7.338  0.6423 -0.1290  0.0466
  401MOL0     N52850   9.060   9.174   7.256  0.6467  0.4509  0.4544
  401MOL0     N52851   9.190   9.166   7.256  1.0313  0.0077 -0.3139
  401MOL0     C52852   9.829   9.922   6.490 -0.1993 -0.0306 -0.3102
  401MOL0     C52853   9.923  10.013   6.434  0.0181 -0.8337 -0.9423
  401MOL0     C52854  10.158  10.249   6.125  0.3861  0.3192  0.7971
  401MOL0     C52855  10.202  10.334   6.224 -0.0855 -0.4380  0.5740
  401MOL0     C52856  10.298  10.438   6.203  0.3320  0.5766 -0.3705
  401MOL0     C52857  10.358  10.466   6.081  0.6384  0.5716 -0.4532
  401MOL0     O52858  10.444  10.574   6.070 -0.3586 -0.3276  0.3976
  401MOL0     C52859  10.521  10.571   5.946 -0.6468 -0.0335 -0.3471
  401MOL0     C52860  10.628  10.689   5.941 -0.3226 -0.0895 -0.3321
  401MOL0     C52861  10.699  10.707   5.803 -0.0111 -0.3107 -0.4535
  401MOL0     C52862  10.707  10.570   5.735 -0.6440 -0.0344  0.0670
  401MOL0     C52863  10.824  10.576   5.651 -1.3199 -1.1373  0.0300
  401MOL0     C52864  10.926  10.582   5.585 -0.2020 -0.0849  0.3137
  401MOL0     C52865  10.314  10.373   5.977 -0.0782 -0.9032 -0.6601
  401MOL0     C52866  10.221  10.266   5.998 -0.8053  0.3105  0.6546
  401MOL0     H52867   9.770  10.103   6.148  0.4228  1.2960  0.2127
  401MOL0     H52868   9.610   9.932   6.230 -1.2311  1.7954 -1.0230
  401MOL0     H52869   9.609   9.821   6.664 -1.0618 -0.9956  0.6519
  401MOL0     H52870   9.716   9.699   6.605 -0.0718  0.3647 -0.3691
  401MOL0     H52871   9.516   9.591   6.488 -1.5022 -0.8195  1.1283
  401MOL0     H52872   9.413   9.699   6.592  1.4415  2.7916  2.2804
  401MOL0     H52873   9.628   9.506   6.705 -2.0712 -3.0792 -0.6939
  401MOL0     H52874   9.456   9.463   6.670 -1.1492  0.2082 -1.9101
  401MOL0     H52875   9.524   9.701   6.858  2.5782 -0.3503 -2.2882
  401MOL0     H52876   9.369   9.623   6.819 -0.1672  1.8862  5.9455
  401MOL0     H52877   9.471   9.582   7.032 -0.6946 -0.6064 -0.7195
  401MOL0     H52878   9.602   9.491   6.958 -0.1536  0.1792  1.4955
  401MOL0     H52879   9.398   9.349   6.844  0.5614  0.0056  1.0791
  401MOL0     H52880   9.298   9.436   6.965  1.5232  2.7651 -0.2978
  401MOL0     H52881   9.548   9.278   7.022 -0.3938 -0.9809 -1.4292
  401MOL0     H52882   9.459   9.371   7.144 -0.3531  3.4027 -2.5202
  401MOL0     H52883   9.431   9.117   7.148  1.0285  1.1938  1.0403
  401MOL0     H52884   9.363   9.128   6.980  0.7686  0.5025 -0.7237
  401MOL0     H52885   9.130   9.227   6.946 -1.6112  3.7695  1.2835
  401MOL0     H52886   8.864   9.259   6.997 -1.8407 -4.4276  0.5433
  401MOL0     H52887   8.861   9.360   7.139  0.4050  0.2918 -0.5227
  401MOL0     H52888   8.803   9.175   7.284 -0.2143  0.4086 -0.0584
  401MOL0     H52889   8.807   9.061   7.160  2.0576  0.5634  1.8673
  401MOL0     H52890   8.618   9.306   7.189 -2.2791 -1.2643  1.3101
  401MOL0     H52891   8.624   9.230   7.035 -0.0149  1.3885 -0.3182
  401MOL0     H52892   8.562   9.019   7.135 -1.2302 -1.5605  2.3499
  401MOL0     H52893   8.442   9.155   7.144  0.7253 -1.3281 -4.4835
  401MOL0     H52894   8.512   9.096   7.596  0.1148  1.4688 -0.6006
  401MOL0     H52895   8.397   8.919   7.723  0.1512 -0.2905  0.8636
  401MOL0     H52896   8.296   8.659   8.003 -0.8729 -0.3781  1.8786
  401MOL0     H52897   8.161   8.501   8.128 -0.6437  1.0603  0.0201
  401MOL0     H52898   7.753   8.454   8.006 -1.3000  0.6805  2.2176
  401MOL0     H52899   7.756   8.405   8.167  0.3819  0.3674 -0.4556
  401MOL0     H52900   7.804   8.169   8.112 -2.8768 -1.3278  0.0477
  401MOL0     H52901   7.829   8.209   7.947 -0.0782 -4.1243  1.5375
  401MOL0     H52902   7.570   8.289   7.967 -0.1705 -0.2490 -1.9652
  401MOL0     H52903   7.595   8.223   8.130  1.4225  1.1282  0.5029
  401MOL0     H52904   7.602   8.084   7.857  1.1042  1.9926  0.0112
  401MOL0     H52905   7.644   7.996   7.997  2.3533  1.5217 -1.3343
  401MOL0     H52906   7.385   8.143   7.950  1.2230  0.8765 -1.5392
  401MOL0     H52907   7.448   8.076   8.107 -0.3270  0.1808 -0.6529
  401MOL0     H52908   7.318   7.874   8.028 -0.2582  3.2885  1.5417
  401MOL0     H52909   7.473   7.843   7.975  0.2158  0.5884  1.7417
  401MOL0     H52910   7.449   7.897   7.736 -0.8428 -1.1711 -0.3465
  401MOL0     H52911   7.325   7.800   7.797 -0.8945  0.1372  0.1357
  401MOL0     H52912   7.268   7.982   7.642  0.2567 -0.6321 -0.4992
  401MOL0     H52913   7.322   8.113   7.737  2.9948 -1.1961 -1.2640
  401MOL0     H52914   7.867   8.522   7.817  0.3221 -0.6610 -1.8488
  401MOL0     H52915   8.013   8.660   7.681 -1.0096 -0.8049 -0.0904
  401MOL0     H52916   8.337   8.701   7.364  0.3172  0.1779 -0.3659
  401MOL0     H52917   8.451   8.870   7.231 -2.1578 -1.0719 -0.1768
  401MOL0     H52918   9.842   9.885   6.591 -0.1719 -2.6465 -1.1819
  401MOL0     H52919  10.013  10.042   6.487 -0.4090  1.5227 -1.3734
  401MOL0     H52920  10.177  10.319   6.329  0.7377  2.0910  1.2114
  401MOL0     H52921  10.343  10.496   6.283 -3.2065  2.2694  0.6361
  401MOL0     H52922  10.465  10.571   5.852 -0.7930  1.4789 -0.2847
  401MOL0     H52923  10.560  10.469   5.946 -2.7861 -0.9147  0.4600
  401MOL0     H52924  10.574  10.780   5.971  1.2505  0.7217  0.1671
  401MOL0     H52925  10.708  10.677   6.015 -0.7992 -4.0147 -0.2346
  401MOL0     H52926  10.795  10.758   5.808 -0.1434 -0.1832  1.3823
  401MOL0     H52927  10.625  10.764   5.744  0.5304  0.9962  0.0904
  401MOL0     H52928  10.729  10.490   5.807  1.1742 -1.3287 -1.8151
  401MOL0     H52929  10.617  10.548   5.679  0.4312 -0.4341 -1.5697
  401MOL0     H52930  11.019  10.594   5.533 -0.6759  2.8871 -0.0229
  401MOL0     H52931  10.342  10.400   5.876  0.5251 -2.8051 -1.0377
  401MOL0     H52932  10.206  10.198   5.915  0.2564  0.9141 -0.0613
  402MOL0     O52933   4.495  10.341   4.148  0.4629  0.3943 -0.3003
  402MOL0     C52934   4.378  10.360   4.174  0.1594 -0.1294  0.1832
  402MOL0     O52935   4.301  10.295   4.261  0.8151  0.3787 -0.4747
  402MOL0     C52936   4.366  10.207   4.344  0.4391 -0.0347 -0.1913
  402MOL0     C52937   4.371  10.074   4.310  0.2496 -0.5763  0.1142
  402MOL0     C52938   4.433   9.974   4.388 -0.0009 -0.1266  0.5326
  402MOL0     C52939   4.494  10.007   4.510  0.1849  0.3716  0.0847
  402MOL0     O52940   4.551   9.909   4.592 -0.7088 -0.5146  0.3342
  402MOL0     C52941   4.625   9.808   4.530 -0.5779 -0.0209  0.4318
  402MOL0     C52942   4.681   9.717   4.638  0.6965 -0.8548 -0.3542
  402MOL0     C52943   4.816   9.749   4.686 -0.2370  0.0954  0.9033
  402MOL0     C52944   4.821   9.832   4.804 -0.7567 -0.4469 -0.5748
  402MOL0     C52945   4.955   9.902   4.837  1.2545  0.0475  0.3312
  402MOL0     C52946   4.997   9.988   4.726 -0.1735  0.0113  0.0534
  402MOL0     C52947   5.110  10.066   4.785  0.0741  0.4740  0.1997
  402MOL0     C52948   5.166  10.170   4.685 -0.5834 -0.4171  0.0975
  402MOL0     N52949   5.078  10.277   4.643 -0.7254 -0.0447  0.3970
  402MOL0     C52950   4.985  10.268   4.542 -0.0975 -0.8688 -0.3194
  402MOL0     C52951   4.920  10.384   4.549  0.2846 -0.0700 -1.1466
  402MOL0     C52952   4.805  10.406   4.453 -0.0344 -0.3049 -0.5453
  402MOL0     C52953   4.834  10.464   4.319 -0.6761  0.8603  0.5211
  402MOL0     C52954   4.920  10.383   4.217 -0.8524  0.3541 -0.1277
  402MOL0     C52955   4.841  10.251   4.182 -0.9439 -0.3785  0.6734
  402MOL0     O52956   4.910  10.173   4.077 -0.5116 -0.2837 -0.3332
  402MOL0     C52957   4.899  10.217   3.948 -0.4330 -0.1337 -0.3360
  402MOL0     C52958   5.004  10.183   3.858 -0.4177 -0.3905  0.9263
  402MOL0     C52959   5.014  10.226   3.723  0.4664  0.8049 -0.5449
  402MOL0     C52960   4.916  10.306   3.669  0.1482  0.3678  0.1171
  402MOL0     C52961   4.926  10.360   3.532  0.3644 -0.5017  0.0624
  402MOL0     O52962   5.049  10.340   3.464  0.8418 -0.4798  0.1040
  402MOL0     C52963   5.059  10.400   3.339 -0.3431 -0.0033 -0.4585
  402MOL0     C52964   5.132  10.517   3.319  0.3203 -0.3903 -1.2468
  402MOL0     C52965   5.153  10.560   3.195  0.0395  0.7019 -0.6310
  402MOL0     C52966   5.079  10.519   3.088 -0.0303 -0.1429  0.6091
  402MOL0     O52967   5.101  10.593   2.970 -0.6049 -0.2990 -0.6564
  402MOL0     C52968   5.037  10.548   2.847 -0.2138  0.7217 -0.5596
  402MOL0     C52969   5.098  10.421   2.782 -0.1787  0.2180  0.7471
  402MOL0     C52970   5.242  10.435   2.746 -0.1917 -0.1954  0.8445
  402MOL0     C52971   5.313  10.307   2.708  0.2751 -0.1072 -0.1650
  402MOL0     C52972   5.456  10.295   2.751 -0.1015 -0.6202  1.1226
  402MOL0     C52973   5.508  10.164   2.707 -1.0246  0.1175 -0.8433
  402MOL0     C52974   5.650  10.144   2.760  0.4439 -0.6656 -0.3296
  402MOL0     C52975   5.691   9.994   2.744  0.6566  0.7418  0.3948
  402MOL0    Cl52976   5.725   9.976   2.572  0.3006 -0.3506  0.1622
  402MOL0     C52977   4.998  10.409   3.099 -0.0699 -0.1958  0.7704
  402MOL0     C52978   4.985  10.351   3.230 -0.1390 -0.6105  0.1358
  402MOL0     O52979   4.830  10.418   3.480  0.1664  0.2339  0.0345
  402MOL0     C52980   4.812  10.340   3.751 -0.3228 -0.2182 -1.2109
  402MOL0     C52981   4.802  10.306   3.894 -0.1010 -0.1076 -0.5861
  402MOL0     N52982   4.960  10.463   4.658  0.2135 -0.1090  0.1120
  402MOL0     N52983   5.057  10.399   4.705 -0.6773 -0.1530 -0.4128
  402MOL0     C52984   4.505  10.144   4.538  0.8186  0.8405 -0.1738
  402MOL0     C52985   4.444  10.245   4.461  0.0331 -0.3965 -0.2487
  402MOL0     C52986   4.303  10.470   4.109 -0.4709  0.2135  0.2826
  402MOL0     C52987   4.186  10.530   4.173  0.7675  0.6194  0.9316
  402MOL0     C52988   4.122  10.641   4.124  0.4834  1.0354 -0.0072
  402MOL0     C52989   4.172  10.697   4.008  0.8004 -0.6104  0.4029
  402MOL0     O52990   4.109  10.807   3.945 -0.4803  0.9866 -0.5679
  402MOL0     C52991   3.964  10.799   3.931 -0.3703 -0.3656  0.1860
  402MOL0     C52992   3.916  10.933   3.865  0.7275 -0.4331 -0.0394
  402MOL0     C52993   3.958  10.939   3.733  0.1005 -0.0489  0.3793
  402MOL0     C52994   3.924  11.065   3.666  0.5751 -0.7501  0.5282
  402MOL0     C52995   3.961  11.059   3.523  0.0600 -0.3700 -0.0992
  402MOL0     C52996   3.995  11.056   3.409 -0.1615 -0.2831 -0.3507
  402MOL0     C52997   4.286  10.645   3.946  0.5409 -0.0948  0.3870
  402MOL0     C52998   4.360  10.538   3.996 -0.0677  0.0378 -0.2019
  402MOL0     H52999   4.308  10.043   4.228  4.5149 -0.2869 -3.6595
  402MOL0     H53000   4.422   9.871   4.355  0.8971  0.2554 -1.1048
  402MOL0     H53001   4.706   9.852   4.471 -0.0443  2.3266  2.7206
  402MOL0     H53002   4.568   9.746   4.459 -2.2888  1.1583  0.7080
  402MOL0     H53003   4.691   9.617   4.595 -1.2559 -2.1108  1.9175
  402MOL0     H53004   4.604   9.711   4.715 -0.7174 -2.3588 -1.8075
  402MOL0     H53005   4.863   9.801   4.602 -1.1503 -0.5203 -0.0225
  402MOL0     H53006   4.877   9.662   4.711  3.4140  1.6705 -1.6977
  402MOL0     H53007   4.753   9.918   4.796  3.7546  4.1256  3.0768
  402MOL0     H53008   4.790   9.768   4.887  0.6063 -1.4420 -0.8064
  402MOL0     H53009   5.037   9.837   4.870  3.3591  1.3039 -2.0429
  402MOL0     H53010   4.929   9.962   4.924 -0.1899 -1.3350  0.9147
  402MOL0     H53011   4.920  10.057   4.688  0.0800  0.4239  0.2877
  402MOL0     H53012   5.035   9.940   4.635  1.2185  0.7641  0.2117
  402MOL0     H53013   5.079  10.109   4.880  2.3232  0.3357  1.0546
  402MOL0     H53014   5.198  10.006   4.810  1.1125  2.7545  2.4164
  402MOL0     H53015   5.211  10.117   4.601 -2.8972 -0.5822 -1.1349
  402MOL0     H53016   5.257  10.206   4.733  1.1483 -0.2780 -3.0201
  402MOL0     H53017   4.965  10.178   4.485  0.0728 -1.2389  0.1958
  402MOL0     H53018   4.732  10.478   4.491 -0.7178 -0.1689 -2.0269
  402MOL0     H53019   4.742  10.318   4.439  0.7698 -0.6881 -1.9388
  402MOL0     H53020   4.891  10.556   4.333 -1.7717  1.7972 -0.8140
  402MOL0     H53021   4.743  10.503   4.272 -0.8696 -1.2203 -0.9669
  402MOL0     H53022   4.937  10.441   4.126  4.9752  0.2257  0.5068
  402MOL0     H53023   5.022  10.365   4.254 -1.1266  0.2944  0.6248
  402MOL0     H53024   4.739  10.277   4.153 -1.0120  2.1527  2.7494
  402MOL0     H53025   4.839  10.186   4.270  2.5400  0.2572  1.3531
  402MOL0     H53026   5.088  10.127   3.898  2.8468  3.1053 -0.4212
  402MOL0     H53027   5.094  10.197   3.656 -0.4731 -2.1776 -0.5180
  402MOL0     H53028   5.187  10.563   3.400 -1.2134  1.1361 -0.9952
  402MOL0     H53029   5.221  10.643   3.181  0.2921  0.9467  1.6317
  402MOL0     H53030   5.043  10.627   2.772 -0.5706 -1.0824 -2.5531
  402MOL0     H53031   4.930  10.529   2.863 -0.2565  1.1018 -0.3807
  402MOL0     H53032   5.041  10.390   2.694  0.0494 -2.2867  1.3870
  402MOL0     H53033   5.099  10.339   2.855 -0.7165 -0.6490 -0.1913
  402MOL0     H53034   5.282  10.493   2.830 -1.2944  1.6450  0.1706
  402MOL0     H53035   5.254  10.509   2.667  0.4365 -1.2298 -0.0557
  402MOL0     H53036   5.260  10.223   2.754  0.1133 -1.1192 -2.1009
  402MOL0     H53037   5.295  10.285   2.602 -1.1066  2.7027 -0.5967
  402MOL0     H53038   5.468  10.302   2.860 -0.6863  3.5207  1.0671
  402MOL0     H53039   5.520  10.374   2.711 -2.9416  0.5379 -1.5323
  402MOL0     H53040   5.505  10.161   2.598 -2.0997 -3.6020 -0.8530
  402MOL0     H53041   5.444  10.086   2.748 -2.4001  2.7875  2.6915
  402MOL0     H53042   5.718  10.209   2.705 -0.4375  1.3087  0.7982
  402MOL0     H53043   5.641  10.160   2.868 -2.3873 -1.1823 -0.4010
  402MOL0     H53044   5.607   9.926   2.758  2.0665 -1.1154  0.1541
  402MOL0     H53045   5.776   9.971   2.809  0.8655  2.7504  0.9237
  402MOL0     H53046   4.941  10.371   3.015  0.0851  1.2120 -0.0013
  402MOL0     H53047   4.914  10.269   3.240 -0.2451 -0.5979 -0.4840
  402MOL0     H53048   4.731  10.396   3.705  0.1525  0.4369 -1.2656
  402MOL0     H53049   4.721  10.353   3.950  1.2421  1.7452 -0.1104
  402MOL0     H53050   4.561  10.181   4.623  1.9496  1.4520 -1.1496
  402MOL0     H53051   4.459  10.349   4.489  1.5101 -0.2173 -1.5317
  402MOL0     H53052   4.161  10.502   4.274 -0.1954 -0.1305  0.5041
  402MOL0     H53053   4.035  10.675   4.180 -1.1092 -2.0679 -0.3640
  402MOL0     H53054   3.920  10.800   4.031  0.4206  2.9797  0.6282
  402MOL0     H53055   3.936  10.724   3.857 -0.2113  0.5471 -0.8392
  402MOL0     H53056   3.807  10.928   3.857  0.8209 -2.2497 -0.5072
  402MOL0     H53057   3.946  11.024   3.919 -0.7763  1.1198 -1.6850
  402MOL0     H53058   3.913  10.860   3.673  1.7435 -2.2369  1.8606
  402MOL0     H53059   4.067  10.940   3.721 -0.0952  2.8519 -2.2414
  402MOL0     H53060   3.816  11.080   3.659  0.4432 -2.1642 -1.1924
  402MOL0     H53061   3.976  11.148   3.714 -1.0240 -0.0473  1.1072
  402MOL0     H53062   4.022  11.048   3.306  1.1507  2.1685 -0.2732
  402MOL0     H53063   4.324  10.701   3.861 -3.1039 -1.1826 -2.1691
  402MOL0     H53064   4.446  10.493   3.947  0.1439 -0.2065  0.3827
  403MOL0     O53065   4.374  10.556  10.988  0.7557 -1.0620 -0.6197
  403MOL0     C53066   4.371  10.668  11.045 -0.1227 -0.2183 -0.7688
  403MOL0     O53067   4.267  10.720  11.115 -0.5062  0.2128  0.1773
  403MOL0     C53068   4.145  10.662  11.097 -0.7076  0.0357 -0.4502
  403MOL0     C53069   4.070  10.640  11.215  0.0162  0.9655 -0.6067
  403MOL0     C53070   3.935  10.597  11.205  0.6649  0.9057 -0.3252
  403MOL0     C53071   3.881  10.565  11.079 -0.2182 -0.1224  0.6555
  403MOL0     O53072   3.751  10.525  11.054  0.1237  0.3897  0.3548
  403MOL0     C53073   3.701  10.415  11.126  0.1650 -0.0829  0.2640
  403MOL0     C53074   3.555  10.410  11.121  0.7829 -0.5641 -0.4996
  403MOL0     C53075   3.477  10.501  11.218  0.7204 -0.9295 -0.3722
  403MOL0     C53076   3.326  10.483  11.178 -0.2304  0.1513  0.3450
  403MOL0     C53077   3.249  10.426  11.298  0.4387  0.5697  0.0283
  403MOL0     C53078   3.097  10.389  11.257 -0.3451 -0.1551 -0.7913
  403MOL0     C53079   3.012  10.499  11.196  1.0750 -0.1650 -0.0736
  403MOL0     C53080   2.862  10.460  11.199 -0.9251  0.2783  0.4252
  403MOL0     N53081   2.774  10.565  11.146 -0.6263 -0.6738 -0.1424
  403MOL0     C53082   2.686  10.543  11.035  0.0563  0.6031 -0.1297
  403MOL0     C53083   2.613  10.653  11.039  0.1696 -0.3220 -0.0852
  403MOL0     C53084   2.499  10.691  10.946 -0.2919  0.3085 -0.5404
  403MOL0     C53085   2.524  10.692  10.796 -0.0576  0.6627  0.2353
  403MOL0     C53086   2.615  10.811  10.764  0.1987 -0.3352 -0.8122
  403MOL0     C53087   2.678  10.785  10.627 -0.6771  0.4063  1.0748
  403MOL0     O53088   2.658  10.888  10.534  0.2273  0.5219 -0.6047
  403MOL0     C53089   2.526  10.912  10.491  0.0165 -0.1319  1.0519
  403MOL0     C53090   2.482  11.042  10.490  0.9705 -0.3333 -0.2283
  403MOL0     C53091   2.351  11.065  10.443 -0.4678 -0.5464  1.1610
  403MOL0     C53092   2.263  10.968  10.405 -0.2297  0.3121 -0.3958
  403MOL0     C53093   2.131  11.000  10.353 -0.2455  0.6035  0.3175
  403MOL0     O53094   2.076  11.114  10.398 -0.0728 -0.0263  0.4752
  403MOL0     C53095   1.950  11.156  10.353 -0.5544  0.2379  0.1945
  403MOL0     C53096   1.899  11.277  10.400 -0.8397  0.2645 -0.1373
  403MOL0     C53097   1.785  11.346  10.354  0.0387  0.5416 -0.7423
  403MOL0     C53098   1.706  11.279  10.255  0.2923 -0.5535 -0.4044
  403MOL0     O53099   1.581  11.326  10.228 -0.2233  0.0692 -0.7223
  403MOL0     C53100   1.527  11.309  10.103 -0.2548 -0.5693  0.2596
  403MOL0     C53101   1.398  11.379  10.088 -0.1889 -0.6893  0.0546
  403MOL0     C53102   1.362  11.431   9.946 -0.1758 -0.7438 -0.5563
  403MOL0     C53103   1.217  11.481   9.937  0.1331  0.1013 -0.1982
  403MOL0     C53104   1.188  11.545   9.803  0.1791  0.4208 -0.2079
  403MOL0     C53105   1.246  11.687   9.778 -0.1662 -0.3229 -0.3584
  403MOL0     C53106   1.221  11.729   9.638 -0.5970  0.4621 -0.5058
  403MOL0     C53107   1.310  11.660   9.533 -0.1992  0.3635  0.1898
  403MOL0    Cl53108   1.288  11.746   9.378  0.1454  0.0230 -0.1170
  403MOL0     C53109   1.752  11.156  10.207 -0.8560 -0.4944  0.8347
  403MOL0     C53110   1.868  11.096  10.258 -0.5133  0.2431  0.2690
  403MOL0     O53111   2.075  10.915  10.287  0.3293  0.4208 -0.2682
  403MOL0     C53112   2.314  10.834  10.402 -0.1267 -0.2519  0.6793
  403MOL0     C53113   2.444  10.806  10.451 -0.3751  0.1454  0.6696
  403MOL0     N53114   2.630  10.724  11.161  1.1339  0.3713  0.1776
  403MOL0     N53115   2.732  10.670  11.224 -0.6713 -0.4025  0.0311
  403MOL0     C53116   3.959  10.586  10.969  0.2920 -0.0539 -0.0896
  403MOL0     C53117   4.090  10.627  10.980  0.0343 -0.2218 -0.4866
  403MOL0     C53118   4.506  10.738  11.060 -0.4922 -0.5564 -0.3118
  403MOL0     C53119   4.522  10.854  11.135 -0.2978 -0.3256 -0.3330
  403MOL0     C53120   4.646  10.913  11.154 -0.3317 -0.1997  0.1691
  403MOL0     C53121   4.761  10.856  11.112 -0.9158 -0.3028 -0.2001
  403MOL0     O53122   4.880  10.920  11.136 -0.2288  0.2620  0.7484
  403MOL0     C53123   4.998  10.847  11.089  0.1267  0.5917 -0.6395
  403MOL0     C53124   5.121  10.892  11.164  0.5943 -0.0439  0.5722
  403MOL0     C53125   5.152  11.045  11.126  0.1693  0.8320  0.1512
  403MOL0     C53126   5.224  11.112  11.239 -0.2518 -0.2444  0.6439
  403MOL0     C53127   5.370  11.099  11.215  0.1441 -0.4347 -0.4130
  403MOL0     C53128   5.488  11.110  11.218 -0.4733  0.5896 -1.0799
  403MOL0     C53129   4.747  10.730  11.047 -0.1958 -0.0559  0.2097
  403MOL0     C53130   4.622  10.671  11.025 -0.8447  0.3704 -0.0784
  403MOL0     H53131   4.100  10.665  11.316 -0.5459  0.8398 -0.4076
  403MOL0     H53132   3.873  10.606  11.293 -1.0122  3.4894 -1.6293
  403MOL0     H53133   3.730  10.424  11.231  1.9161  2.9546 -0.3765
  403MOL0     H53134   3.737  10.323  11.078  0.3982 -0.6517  1.4827
  403MOL0     H53135   3.527  10.309  11.154  1.2624 -0.4684  0.1921
  403MOL0     H53136   3.518  10.427  11.019 -1.6146 -1.8815  0.0558
  403MOL0     H53137   3.505  10.607  11.216  1.2196 -0.9742 -4.1991
  403MOL0     H53138   3.481  10.479  11.324  0.6057  1.5697  0.2169
  403MOL0     H53139   3.284  10.583  11.159 -1.2166 -0.0165  1.5056
  403MOL0     H53140   3.303  10.423  11.089 -1.3467  1.2693 -0.1646
  403MOL0     H53141   3.250  10.506  11.373 -1.3252 -0.6803  1.4783
  403MOL0     H53142   3.298  10.337  11.340 -1.1845 -0.2430  0.2932
  403MOL0     H53143   3.049  10.365  11.352  1.4510  2.5829  0.9274
  403MOL0     H53144   3.100  10.300  11.194  1.9010 -0.9028  0.2791
  403MOL0     H53145   3.020  10.598  11.242  1.8655  0.7816 -2.1443
  403MOL0     H53146   3.043  10.493  11.092  1.6006  0.9351 -0.0013
  403MOL0     H53147   2.832  10.428  11.300 -1.2614  2.2818  1.0133
  403MOL0     H53148   2.846  10.373  11.135  0.0797 -0.1282  0.7076
  403MOL0     H53149   2.672  10.462  10.965 -4.7936  0.2958  0.8977
  403MOL0     H53150   2.451  10.783  10.982  0.1891 -0.2718  1.7929
  403MOL0     H53151   2.420  10.618  10.967 -0.1673  0.8531  2.2936
  403MOL0     H53152   2.430  10.706  10.743 -0.2254 -2.0427 -0.2918
  403MOL0     H53153   2.569  10.599  10.760 -1.1091 -0.2260  1.1477
  403MOL0     H53154   2.568  10.909  10.764  0.4047 -0.2348 -0.4989
  403MOL0     H53155   2.707  10.824  10.822  0.5337 -2.9299 -0.6333
  403MOL0     H53156   2.657  10.689  10.580  2.3697  0.4688 -0.7089
  403MOL0     H53157   2.783  10.794  10.655 -0.8810  2.9691  1.2487
  403MOL0     H53158   2.542  11.126  10.525 -0.8926  1.3117 -0.8273
  403MOL0     H53159   2.323  11.167  10.417  0.7949 -0.9803 -2.5960
  403MOL0     H53160   1.961  11.324  10.476  1.2605 -0.9491 -1.0093
  403MOL0     H53161   1.748  11.436  10.401  2.5934 -0.0478  2.8155
  403MOL0     H53162   1.517  11.202  10.085 -0.3761 -0.5779  0.3753
  403MOL0     H53163   1.605  11.347  10.038  1.0981 -2.8450  0.4632
  403MOL0     H53164   1.410  11.472  10.144 -0.6094  0.1261 -1.1525
  403MOL0     H53165   1.323  11.313  10.132 -1.4390 -0.0293 -0.9747
  403MOL0     H53166   1.371  11.351   9.871  0.1936 -0.4130 -0.8746
  403MOL0     H53167   1.431  11.514   9.925 -0.5609 -0.4492 -0.6670
  403MOL0     H53168   1.149  11.397   9.953  0.6328 -0.0289  1.4629
  403MOL0     H53169   1.198  11.549  10.021  1.1745  0.1896 -0.0213
  403MOL0     H53170   1.086  11.547   9.763  1.5094 -0.2910 -4.0630
  403MOL0     H53171   1.233  11.482   9.726  0.2721 -1.1510  1.0864
  403MOL0     H53172   1.353  11.697   9.798 -0.5953  1.0132  1.5792
  403MOL0     H53173   1.183  11.747   9.844 -1.7584 -2.1003 -0.1793
  403MOL0     H53174   1.116  11.716   9.611  0.2491  2.3231 -5.9261
  403MOL0     H53175   1.245  11.836   9.631  5.8919 -0.5929 -0.2194
  403MOL0     H53176   1.294  11.553   9.515  0.7019  0.4882 -1.6806
  403MOL0     H53177   1.417  11.673   9.549  0.5294 -2.4185 -1.6121
  403MOL0     H53178   1.693  11.098  10.137 -2.8736 -1.5724  3.2398
  403MOL0     H53179   1.889  11.004  10.203 -2.0665 -0.6193  1.0490
  403MOL0     H53180   2.245  10.755  10.373  0.6631 -0.9841  0.7488
  403MOL0     H53181   2.480  10.706  10.431  2.1830  1.1025  0.0094
  403MOL0     H53182   3.918  10.582  10.869 -1.4864 -2.8181  0.6336
  403MOL0     H53183   4.153  10.641  10.893  0.0808  1.3383 -0.2409
  403MOL0     H53184   4.434  10.894  11.185  0.1116  1.4131 -0.9523
  403MOL0     H53185   4.653  10.999  11.220  0.5105 -1.0397  1.2245
  403MOL0     H53186   5.009  10.855  10.980  1.1438 -3.4686 -1.0009
  403MOL0     H53187   4.988  10.740  11.104  0.2522  0.3662 -2.0435
  403MOL0     H53188   5.099  10.883  11.271 -5.0427 -1.3005 -0.3512
  403MOL0     H53189   5.198  10.818  11.141  0.7630  0.5337 -0.8153
  403MOL0     H53190   5.058  11.098  11.114  0.0764  0.7037  0.3051
  403MOL0     H53191   5.203  11.063  11.031  0.6752 -2.2395 -0.2604
  403MOL0     H53192   5.190  11.216  11.246 -1.6922 -0.6169 -0.3437
  403MOL0     H53193   5.201  11.069  11.337  1.3953 -0.3947  0.9879
  403MOL0     H53194   5.594  11.112  11.235 -0.7426  0.6030  0.7934
  403MOL0     H53195   4.832  10.675  11.007  1.0010 -0.2445  2.7846
  403MOL0     H53196   4.603  10.578  10.974 -2.3083  1.1561 -1.0217
  404MOL0     O53197  11.177   0.484   2.568 -0.3466  0.7535  0.1050
  404MOL0     C53198  11.180   0.467   2.687  0.5792 -0.0623 -1.0582
  404MOL0     O53199  11.280   0.493   2.775 -0.0209 -0.0082  0.7127
  404MOL0     C53200  11.407   0.506   2.722  0.5762  0.1611 -0.1688
  404MOL0     C53201  11.488   0.570   2.810  0.1783  0.0516 -0.4619
  404MOL0     C53202  11.621   0.607   2.777 -0.3439  0.3725 -0.4319
  404MOL0     C53203  11.674   0.569   2.656  0.0024  0.0084 -0.2224
  404MOL0     O53204  11.811   0.593   2.628  0.2698 -0.3735 -0.1718
  404MOL0     C53205  11.834   0.725   2.571  0.2740  0.1387  0.3356
  404MOL0     C53206  11.976   0.742   2.515 -0.0577 -0.9829 -0.1440
  404MOL0     C53207  12.075   0.722   2.634 -0.6009 -0.3985  0.0566
  404MOL0     C53208  12.213   0.774   2.591 -0.2247  0.0782  0.6864
  404MOL0     C53209  12.309   0.769   2.713 -0.4834  0.0153  0.7055
  404MOL0     C53210  12.446   0.833   2.678  0.3522 -0.5966  0.2522
  404MOL0     C53211  12.546   0.792   2.786  0.7555  0.4328  0.6452
  404MOL0     C53212  12.665   0.889   2.798  0.1218  0.0926  0.0165
  404MOL0     N53213  12.752   0.836   2.900  0.0666  0.5306  0.2475
  404MOL0     C53214  12.878   0.781   2.874  0.3092  0.2704  0.9215
  404MOL0     C53215  12.925   0.752   2.991 -0.5213 -0.4542  0.1422
  404MOL0     C53216  13.059   0.710   3.048  0.4757  0.2136  0.1775
  404MOL0     C53217  13.094   0.573   2.991  0.3312  0.3595  0.3630
  404MOL0     C53218  12.994   0.467   3.058  0.1543 -0.5172 -0.0782
  404MOL0     C53219  12.864   0.445   2.969  0.0253  0.6916 -0.7609
  404MOL0     O53220  12.817   0.316   2.989 -0.2606  0.0012 -0.2609
  404MOL0     C53221  12.695   0.286   2.946  0.2956 -0.8817  1.2449
  404MOL0     C53222  12.658   0.154   2.955 -0.2732  0.0702 -0.0666
  404MOL0     C53223  12.535   0.113   2.900 -0.4992 -0.8721 -0.3714
  404MOL0     C53224  12.451   0.202   2.825  0.0938  0.9793 -0.4042
  404MOL0     C53225  12.341   0.148   2.742  0.3720  0.6196  0.0868
  404MOL0     O53226  12.268   0.244   2.681  0.8095 -0.0923  0.1306
  404MOL0     C53227  12.156   0.213   2.609 -0.9591  0.6045 -0.4741
  404MOL0     C53228  12.133   0.098   2.540 -0.6659 -0.0990 -0.0579
  404MOL0     C53229  12.010   0.070   2.484 -0.5742  0.3217  0.0829
  404MOL0     C53230  11.899   0.152   2.505 -0.7623 -0.0873  0.2704
  404MOL0     O53231  11.781   0.114   2.460  0.4394 -0.3569  0.1534
  404MOL0     C53232  11.653   0.146   2.532 -0.3042 -0.6005  0.1277
  404MOL0     C53233  11.545   0.031   2.514  0.3497 -0.2855  0.2218
  404MOL0     C53234  11.416   0.067   2.588  0.5284  1.0775  1.0657
  404MOL0     C53235  11.305  -0.046   2.580 -0.5016  0.2257  0.4826
  404MOL0     C53236  11.204  -0.025   2.699 -0.4693  0.0706  0.1318
  404MOL0     C53237  11.066  -0.105   2.668 -0.3889  0.4068  0.2771
  404MOL0     C53238  10.946  -0.041   2.739 -1.3356  0.2140 -0.0219
  404MOL0     C53239  10.807  -0.095   2.713 -0.3486 -0.1605  0.3903
  404MOL0    Cl53240  10.803  -0.276   2.751 -0.9884 -0.4134 -0.0909
  404MOL0     C53241  11.920   0.273   2.577 -1.0759  0.4287  0.0083
  404MOL0     C53242  12.050   0.300   2.620 -0.3430 -0.3636  1.1727
  404MOL0     O53243  12.330   0.031   2.742  0.3224  0.3381 -0.4713
  404MOL0     C53244  12.488   0.336   2.823 -0.1800  0.5986  0.3555
  404MOL0     C53245  12.604   0.379   2.885 -0.4045 -0.7223 -0.0785
  404MOL0     N53246  12.820   0.762   3.083 -0.6099  1.0286  0.4022
  404MOL0     N53247  12.719   0.815   3.026  0.7645 -0.4022  0.0127
  404MOL0     C53248  11.591   0.511   2.562 -0.1493  0.7143 -0.1457
  404MOL0     C53249  11.457   0.480   2.592 -0.4517  0.6250  0.4169
  404MOL0     C53250  11.054   0.417   2.738 -0.5602  0.1549  0.0249
  404MOL0     C53251  10.951   0.367   2.660  0.0376  0.6125 -0.3334
  404MOL0     C53252  10.832   0.320   2.720  0.7963  0.5198  0.0584
  404MOL0     C53253  10.806   0.323   2.859 -0.1079  0.0148 -0.3902
  404MOL0     O53254  10.698   0.271   2.925  1.0103 -0.1655  0.4043
  404MOL0     C53255  10.571   0.257   2.856 -0.7183  0.2251  0.9163
  404MOL0     C53256  10.447   0.257   2.960 -0.3350 -0.4458  0.4290
  404MOL0     C53257  10.443   0.132   3.047 -0.0916  0.8408 -0.1980
  404MOL0     C53258  10.392   0.014   2.961 -0.1103  0.6997 -0.4246
  404MOL0     C53259  10.445  -0.102   3.025  0.5163  0.2024  0.1037
  404MOL0     C53260  10.510  -0.189   3.076  0.0094  1.0884  0.9848
  404MOL0     C53261  10.910   0.381   2.938  0.1601 -0.3949  0.1299
  404MOL0     C53262  11.033   0.420   2.874  0.1312  0.0073  1.2672
  404MOL0     H53263  11.446   0.586   2.908  0.3198 -3.2072  0.2463
  404MOL0     H53264  11.670   0.671   2.850 -1.4220 -0.5936  1.1993
  404MOL0     H53265  11.831   0.793   2.656 -0.4226 -0.3459  0.7186
  404MOL0     H53266  11.756   0.758   2.502 -0.4088  0.1038  1.0729
  404MOL0     H53267  11.963   0.846   2.485 -1.0981 -0.8200  0.8128
  404MOL0     H53268  12.002   0.685   2.426 -2.4578 -2.1724 -0.1510
  404MOL0     H53269  12.084   0.620   2.671  0.1075 -0.4991 -0.3816
  404MOL0     H53270  12.047   0.791   2.715  0.2051  1.0184 -0.8213
  404MOL0     H53271  12.251   0.717   2.506 -0.7455  1.1607 -0.3149
  404MOL0     H53272  12.213   0.878   2.557  3.9265 -0.1380 -0.5078
  404MOL0     H53273  12.319   0.663   2.740 -1.1739 -1.0762 -2.8511
  404MOL0     H53274  12.256   0.815   2.797 -2.7096  0.8131 -1.0637
  404MOL0     H53275  12.435   0.941   2.667  1.4775 -0.4529  0.4524
  404MOL0     H53276  12.483   0.795   2.582  1.7733  0.3377  0.4132
  404MOL0     H53277  12.484   0.776   2.875  0.6304 -0.2295  0.4441
  404MOL0     H53278  12.591   0.696   2.759  0.1670 -0.2058  1.8612
  404MOL0     H53279  12.640   0.993   2.821  1.3609  0.8021 -1.6325
  404MOL0     H53280  12.722   0.884   2.704 -2.6628 -0.7315 -1.7703
  404MOL0     H53281  12.935   0.775   2.782  0.3674 -2.0426  1.0435
  404MOL0     H53282  13.057   0.702   3.157  1.2658 -1.2770  0.1078
  404MOL0     H53283  13.131   0.780   3.006 -0.5659  0.5529 -1.1309
  404MOL0     H53284  13.199   0.560   3.017  0.2771 -1.5540 -0.2131
  404MOL0     H53285  13.079   0.569   2.882 -0.5919 -0.5070  0.5026
  404MOL0     H53286  13.048   0.372   3.051 -2.0507 -1.8771  0.4617
  404MOL0     H53287  12.972   0.484   3.164 -0.4706  1.1080 -0.4324
  404MOL0     H53288  12.890   0.448   2.862  0.0053 -2.7763 -0.9800
  404MOL0     H53289  12.792   0.527   2.974  3.2295  3.8180 -1.4335
  404MOL0     H53290  12.724   0.095   3.019 -1.1488  0.2318  1.0121
  404MOL0     H53291  12.519   0.008   2.924 -1.7169 -0.1839  2.0463
  404MOL0     H53292  12.207   0.020   2.551  0.7028  1.3145  1.4488
  404MOL0     H53293  11.984  -0.019   2.428 -1.8515  1.5523 -1.4032
  404MOL0     H53294  11.617   0.234   2.478 -1.4105 -1.0848  0.0556
  404MOL0     H53295  11.681   0.165   2.636  1.4325 -0.6263 -0.3004
  404MOL0     H53296  11.584  -0.068   2.539 -0.2287 -1.2935 -2.5195
  404MOL0     H53297  11.529   0.021   2.407  3.6373 -0.6256 -0.3491
  404MOL0     H53298  11.372   0.158   2.545  0.6104  0.0360 -1.4039
  404MOL0     H53299  11.435   0.086   2.694  1.7517 -0.3128  1.1277
  404MOL0     H53300  11.256  -0.052   2.482 -2.2020  2.3236  1.1116
  404MOL0     H53301  11.352  -0.141   2.607  1.9966  1.0745 -0.5663
  404MOL0     H53302  11.181   0.082   2.708 -0.1472  0.2637 -1.1343
  404MOL0     H53303  11.236  -0.050   2.801 -2.1568  0.2779  0.7474
  404MOL0     H53304  11.077  -0.206   2.709 -4.9980 -1.7308 -2.7936
  404MOL0     H53305  11.045  -0.104   2.560 -2.8469  1.3541  0.6901
  404MOL0     H53306  10.972  -0.063   2.843  1.2832  0.5104 -0.5497
  404MOL0     H53307  10.952   0.064   2.711  3.9313 -0.0311 -0.8935
  404MOL0     H53308  10.767  -0.086   2.612 -0.3701 -0.3585  0.3805
  404MOL0     H53309  10.735  -0.047   2.781 -2.0190 -1.9232 -0.0222
  404MOL0     H53310  11.845   0.349   2.595 -1.4838 -0.2117  1.0611
  404MOL0     H53311  12.049   0.388   2.683 -2.3894  0.4642  0.0893
  404MOL0     H53312  12.426   0.408   2.770 -0.2182  0.3339  0.0352
  404MOL0     H53313  12.635   0.480   2.858  0.3115 -0.8579  0.2189
  404MOL0     H53314  11.627   0.492   2.461  0.1320  1.5068 -0.2034
  404MOL0     H53315  11.398   0.422   2.521  0.4721  0.4272 -0.2125
  404MOL0     H53316  10.962   0.387   2.554 -1.8591  0.4578 -0.5802
  404MOL0     H53317  10.753   0.290   2.653  0.0386 -1.7411  1.8400
  404MOL0     H53318  10.564   0.164   2.799 -3.4452  0.5456  0.5717
  404MOL0     H53319  10.569   0.345   2.792 -0.1859 -2.7406 -3.5963
  404MOL0     H53320  10.445   0.340   3.032 -1.8497 -1.2652  1.3849
  404MOL0     H53321  10.350   0.269   2.911 -0.9305  0.5129  1.7842
  404MOL0     H53322  10.377   0.143   3.134  0.9640 -0.4706  0.8151
  404MOL0     H53323  10.543   0.106   3.083 -0.9576 -0.9801  1.1067
  404MOL0     H53324  10.285  -0.007   2.954 -0.1057  0.0500  1.2082
  404MOL0     H53325  10.429   0.024   2.858  0.5639  3.0039 -0.0202
  404MOL0     H53326  10.558  -0.274   3.119 -0.5726 -0.0232 -0.4638
  404MOL0     H53327  10.892   0.397   3.043  0.1770 -1.1617  0.2568
  404MOL0     H53328  11.111   0.467   2.933  0.6777 -0.0063  0.5601
  405MOL0     O53329   8.024  11.265   9.997 -0.2663 -0.2525 -0.2608
  405MOL0     C53330   8.082  11.340  10.082  0.1791  0.2108 -0.0760
  405MOL0     O53331   8.024  11.457  10.121 -0.3540 -0.5504 -0.6951
  405MOL0     C53332   7.895  11.478  10.075 -0.8857 -0.1686 -0.1642
  405MOL0     C53333   7.789  11.458  10.155 -0.5960 -0.5885  0.5982
  405MOL0     C53334   7.663  11.496  10.106 -0.1961 -0.7642 -0.1708
  405MOL0     C53335   7.644  11.557   9.980  0.4034 -0.3466 -0.0046
  405MOL0     O53336   7.516  11.605   9.950 -0.6848 -0.4208 -0.1370
  405MOL0     C53337   7.498  11.743   9.907 -0.4450  0.1236  0.1724
  405MOL0     C53338   7.356  11.791   9.927 -0.0545 -0.7962 -0.2475
  405MOL0     C53339   7.259  11.725   9.825 -0.3156 -0.4991 -0.4153
  405MOL0     C53340   7.127  11.791   9.846  0.2437 -0.1705 -0.2316
  405MOL0     C53341   7.035  11.698   9.757 -0.2002  0.2807  0.3300
  405MOL0     C53342   6.899  11.773   9.739 -0.3893  0.1073 -0.1906
  405MOL0     C53343   6.797  11.676   9.691 -1.4971 -0.6395  1.4144
  405MOL0     C53344   6.661  11.732   9.730  0.1792 -0.6567  1.1185
  405MOL0     N53345   6.562  11.648   9.659 -0.1721  0.1096  0.3980
  405MOL0     C53346   6.503  11.546   9.726  0.2780 -0.3439  0.0394
  405MOL0     C53347   6.399  11.495   9.649 -0.1528  0.0070 -0.7263
  405MOL0     C53348   6.302  11.387   9.678  0.2088  0.6400 -0.1949
  405MOL0     C53349   6.171  11.444   9.733 -0.5453  0.3965 -0.4982
  405MOL0     C53350   6.089  11.346   9.823  0.6771 -0.4352  0.1848
  405MOL0     C53351   5.943  11.384   9.832 -1.1065  0.9297  0.2645
  405MOL0     O53352   5.879  11.296   9.921  0.0958 -0.7963  0.3788
  405MOL0     C53353   5.744  11.304   9.940  0.3552  0.2435  0.1911
  405MOL0     C53354   5.685  11.185   9.991 -0.7914 -0.6713 -0.5609
  405MOL0     C53355   5.545  11.177   9.984 -0.2440  0.4290 -0.3080
  405MOL0     C53356   5.464  11.289   9.945  0.4793  0.8121 -0.3241
  405MOL0     C53357   5.305  11.271   9.949 -0.6901  0.6463 -0.1968
  405MOL0     O53358   5.222  11.374   9.893 -0.2416  0.7231 -0.6876
  405MOL0     C53359   5.085  11.369   9.891  0.6457 -0.4967  0.5277
  405MOL0     C53360   5.012  11.313   9.989 -0.3310  0.2941 -0.1489
  405MOL0     C53361   4.876  11.285   9.968  0.1804  1.2502 -0.4789
  405MOL0     C53362   4.803  11.316   9.851 -0.6887  0.0098  0.4475
  405MOL0     O53363   4.673  11.269   9.830 -0.2787 -0.0945  0.3701
  405MOL0     C53364   4.587  11.354   9.748 -0.7718  0.1526 -0.7494
  405MOL0     C53365   4.443  11.318   9.777  0.8277  0.1983  0.0021
  405MOL0     C53366   4.396  11.390   9.906 -0.1616 -0.2708  1.7531
  405MOL0     C53367   4.254  11.332   9.953 -0.4041  0.0278 -0.2324
  405MOL0     C53368   4.204  11.426  10.058  0.2907  0.1076  0.6051
  405MOL0     C53369   4.090  11.364  10.147  0.2041 -0.6776  0.8089
  405MOL0     C53370   4.001  11.472  10.220 -0.7500  0.4796  0.3034
  405MOL0     C53371   3.849  11.443  10.231  0.0336  0.1745  0.1857
  405MOL0    Cl53372   3.758  11.573  10.308 -0.1526 -0.2375  0.1329
  405MOL0     C53373   4.882  11.374   9.748 -0.0094 -0.6651  0.0487
  405MOL0     C53374   5.020  11.401   9.766  0.1737  0.0436 -0.4794
  405MOL0     O53375   5.267  11.165  10.001 -0.0744 -0.6952 -0.2064
  405MOL0     C53376   5.530  11.407   9.922 -0.1603  0.4129  0.7969
  405MOL0     C53377   5.671  11.422   9.908 -0.7822  0.5541 -0.1955
  405MOL0     N53378   6.389  11.581   9.539  0.1206 -0.0187 -0.2571
  405MOL0     N53379   6.490  11.658   9.544 -0.4601  0.3903  0.0348
  405MOL0     C53380   7.757  11.582   9.899 -0.4131  0.0113  0.0549
  405MOL0     C53381   7.879  11.528   9.946 -0.9624  0.9409  0.5223
  405MOL0     C53382   8.209  11.294  10.136  0.1051  0.7874  0.1865
  405MOL0     C53383   8.265  11.162  10.101  0.8142  0.3917  0.3931
  405MOL0     C53384   8.373  11.117  10.168 -0.4154  0.1888  0.3168
  405MOL0     C53385   8.443  11.198  10.265  0.5820 -0.2055 -0.5015
  405MOL0     O53386   8.564  11.144  10.319 -0.2497  0.4525  0.1697
  405MOL0     C53387   8.601  11.170  10.454  0.1766 -0.1589 -0.5465
  405MOL0     C53388   8.674  11.046  10.514 -0.1586  0.1548 -0.4002
  405MOL0     C53389   8.812  11.037  10.440  0.4722 -0.6371 -0.0383
  405MOL0     C53390   8.839  10.914  10.360  0.1659  0.4115  0.2309
  405MOL0     C53391   8.754  10.920  10.237  0.0162  0.0106  0.7934
  405MOL0     C53392   8.687  10.918  10.138 -0.2150  0.2364  0.5625
  405MOL0     C53393   8.385  11.323  10.298 -1.1454  0.0462  0.2641
  405MOL0     C53394   8.269  11.373  10.231 -0.6268 -0.2502  0.4742
  405MOL0     H53395   7.804  11.416  10.254 -0.3319 -2.5836 -0.2400
  405MOL0     H53396   7.569  11.481  10.159 -1.3913  0.6754 -1.7619
  405MOL0     H53397   7.527  11.757   9.802 -0.8327 -0.5316 -0.0277
  405MOL0     H53398   7.572  11.803   9.961  2.0141  0.4208 -3.1992
  405MOL0     H53399   7.359  11.899   9.915 -1.5481 -0.7041 -0.0549
  405MOL0     H53400   7.323  11.782  10.031  0.3691  2.5633  0.2784
  405MOL0     H53401   7.264  11.617   9.841 -0.5159 -0.1305  2.6578
  405MOL0     H53402   7.299  11.751   9.726 -0.0892  2.4731  0.3549
  405MOL0     H53403   7.087  11.784   9.948 -3.4334  0.5718 -1.4853
  405MOL0     H53404   7.139  11.898   9.830 -2.7403  1.2992  4.9235
  405MOL0     H53405   7.026  11.600   9.804 -0.0418  0.5880  1.0156
  405MOL0     H53406   7.088  11.681   9.663  2.3474  1.1012  1.5303
  405MOL0     H53407   6.904  11.866   9.682  0.3928  0.7111  0.8121
  405MOL0     H53408   6.880  11.817   9.838  3.2845  1.7434 -0.0243
  405MOL0     H53409   6.806  11.683   9.582  2.3944  0.2363  1.6487
  405MOL0     H53410   6.803  11.576   9.734  0.1819 -1.6402 -0.9679
  405MOL0     H53411   6.654  11.837   9.702  1.0411 -0.9863 -0.4977
  405MOL0     H53412   6.637  11.727   9.836 -0.7542 -0.7281  0.9149
  405MOL0     H53413   6.523  11.510   9.826  0.1493 -0.3177  0.0739
  405MOL0     H53414   6.341  11.309   9.744 -1.9679 -0.9636 -0.7057
  405MOL0     H53415   6.283  11.328   9.588  0.3436  1.6242 -0.8966
  405MOL0     H53416   6.115  11.470   9.643 -0.5956 -0.7795 -0.8274
  405MOL0     H53417   6.187  11.537   9.787 -1.4887  1.0754 -1.3559
  405MOL0     H53418   6.113  11.250   9.776  2.5867  1.6399 -3.5667
  405MOL0     H53419   6.127  11.353   9.925 -0.0727  4.1337  0.3498
  405MOL0     H53420   5.892  11.390   9.736 -0.0739 -1.0267 -0.4723
  405MOL0     H53421   5.939  11.485   9.875 -3.4491  0.3479  1.5657
  405MOL0     H53422   5.740  11.100  10.031  0.2959 -0.0383 -0.6730
  405MOL0     H53423   5.504  11.087  10.029  0.9506  0.2753  0.5125
  405MOL0     H53424   5.055  11.287  10.086 -1.8415 -2.8483 -0.1820
  405MOL0     H53425   4.825  11.240  10.053  0.4496  0.5807 -0.6639
  405MOL0     H53426   4.609  11.337   9.642 -1.5687 -2.0685 -0.6046
  405MOL0     H53427   4.620  11.453   9.781  1.4285 -0.6123 -0.4779
  405MOL0     H53428   4.426  11.210   9.777 -2.8787  0.5165 -3.2228
  405MOL0     H53429   4.377  11.349   9.694  1.0513  1.5192  0.3011
  405MOL0     H53430   4.389  11.497   9.884  0.0647 -0.5539  0.1848
  405MOL0     H53431   4.468  11.365   9.984  1.3811 -0.6166  0.2889
  405MOL0     H53432   4.182  11.320   9.872 -1.7658  3.4018  0.3074
  405MOL0     H53433   4.269  11.233   9.998  0.4336 -1.9703 -4.4420
  405MOL0     H53434   4.181  11.516   9.999  1.3955 -1.1208 -1.8494
  405MOL0     H53435   4.286  11.457  10.123 -1.2171  2.7428  1.4116
  405MOL0     H53436   4.141  11.291  10.210  2.9392  0.9839  0.6812
  405MOL0     H53437   4.028  11.316  10.071  0.4271 -2.7264  1.8631
  405MOL0     H53438   4.032  11.481  10.324 -0.2747  0.0606  0.2006
  405MOL0     H53439   4.021  11.571  10.177  0.3395 -0.2440 -0.9521
  405MOL0     H53440   3.826  11.364  10.303  2.1126 -0.2179  0.4804
  405MOL0     H53441   3.816  11.420  10.129  3.9852  0.6333 -1.3905
  405MOL0     H53442   4.839  11.399   9.651 -1.6080  2.0729  1.3446
  405MOL0     H53443   5.070  11.446   9.681 -0.8563  1.9319 -0.1386
  405MOL0     H53444   5.479  11.501   9.900  2.0761  1.3403 -0.6935
  405MOL0     H53445   5.718  11.514   9.876 -2.0199  1.8973  1.6405
  405MOL0     H53446   7.749  11.643   9.809  1.4997  1.8253  1.0023
  405MOL0     H53447   7.967  11.553   9.887  1.5186 -1.7001  2.7694
  405MOL0     H53448   8.209  11.091  10.041  1.3774 -1.9125  2.4074
  405MOL0     H53449   8.412  11.017  10.157  0.7817  0.7611 -0.9597
  405MOL0     H53450   8.513  11.188  10.516 -2.2386 -3.1763 -2.7375
  405MOL0     H53451   8.655  11.265  10.456 -3.3355  2.0030  0.6878
  405MOL0     H53452   8.696  11.068  10.619  1.8578 -1.2391 -0.4857
  405MOL0     H53453   8.622  10.950  10.506  0.8434 -0.2811 -2.0010
  405MOL0     H53454   8.897  11.063  10.503  0.0487  2.2858 -0.5144
  405MOL0     H53455   8.813  11.120  10.368 -3.4466  1.0082  1.5311
  405MOL0     H53456   8.946  10.901  10.343 -0.1349 -2.4132  0.0251
  405MOL0     H53457   8.810  10.828  10.422  1.1358  1.4017  2.1356
  405MOL0     H53458   8.632  10.909  10.046  0.3900  0.4129  0.1756
  405MOL0     H53459   8.436  11.397  10.359 -1.0006  2.3912 -2.5112
  405MOL0     H53460   8.240  11.469  10.272  0.4284  0.6312 -0.7711
  406MOL0     O53461   8.387   6.338   1.983  0.1046  0.0059  0.2514
  406MOL0     C53462   8.475   6.337   2.069  0.2198 -0.3685 -1.0263
  406MOL0     O53463   8.456   6.303   2.197 -0.0671 -0.9574 -0.2550
  406MOL0     C53464   8.331   6.264   2.236 -0.2565 -0.2112 -0.8342
  406MOL0     C53465   8.289   6.301   2.364 -0.3532 -0.0380 -1.4470
  406MOL0     C53466   8.156   6.274   2.409 -0.2238  0.6418  0.7781
  406MOL0     C53467   8.075   6.189   2.329 -0.9768 -0.4556 -0.0231
  406MOL0     O53468   7.945   6.168   2.375 -0.1300 -0.2399  0.2661
  406MOL0     C53469   7.873   6.053   2.334  0.0825  0.5803  0.6944
  406MOL0     C53470   7.731   6.070   2.392  0.1812 -0.5505  0.0492
  406MOL0     C53471   7.622   5.954   2.367 -0.3654 -0.8854 -0.0310
  406MOL0     C53472   7.495   6.017   2.411 -0.1156  0.0092  0.5967
  406MOL0     C53473   7.385   5.907   2.408  0.9174  0.4909 -0.1888
  406MOL0     C53474   7.249   5.956   2.459 -0.0157 -0.1279  0.1545
  406MOL0     C53475   7.128   5.895   2.386  0.2530  0.8415 -0.2578
  406MOL0     C53476   7.113   5.743   2.407 -0.7729 -0.2353  0.7716
  406MOL0     N53477   6.972   5.702   2.395 -0.1465 -1.0823  0.3888
  406MOL0     C53478   6.898   5.719   2.284  0.4000 -0.0540  0.9061
  406MOL0     C53479   6.771   5.677   2.324 -0.0032 -0.3587  0.1411
  406MOL0     C53480   6.635   5.654   2.259 -0.0418 -0.2167  0.5982
  406MOL0     C53481   6.633   5.538   2.163  0.0992  0.6046 -0.1688
  406MOL0     C53482   6.491   5.520   2.107 -0.5756 -0.4200  0.6689
  406MOL0     C53483   6.474   5.398   2.012 -0.4626  0.1155 -0.3206
  406MOL0     O53484   6.504   5.273   2.078  0.9024 -0.3318 -0.5621
  406MOL0     C53485   6.390   5.204   2.127  1.0931 -0.5063  0.4945
  406MOL0     C53486   6.257   5.264   2.145 -0.7393  0.0228  0.2704
  406MOL0     C53487   6.164   5.192   2.207  0.0864 -0.3086 -0.2147
  406MOL0     C53488   6.174   5.051   2.223  0.3908 -0.0698 -0.8790
  406MOL0     C53489   6.075   4.965   2.292  1.3336  0.8742 -0.3383
  406MOL0     O53490   5.960   5.021   2.331 -0.5551 -0.6597 -0.3774
  406MOL0     C53491   5.865   4.963   2.421  0.6523  1.1022 -0.8959
  406MOL0     C53492   5.851   5.026   2.541 -0.2676 -0.2427 -0.1894
  406MOL0     C53493   5.773   4.970   2.643  1.1872 -0.6623  0.6771
  406MOL0     C53494   5.699   4.858   2.624  0.5881 -0.2491  0.9520
  406MOL0     O53495   5.620   4.818   2.727 -0.3872 -0.4313  0.4651
  406MOL0     C53496   5.489   4.816   2.685 -0.9099 -0.0191 -0.5505
  406MOL0     C53497   5.386   4.801   2.804 -1.2370  1.0216  0.1534
  406MOL0     C53498   5.376   4.926   2.896  0.3020  1.0185  0.4629
  406MOL0     C53499   5.493   4.932   2.998  0.2104 -0.7572  0.2305
  406MOL0     C53500   5.463   5.054   3.082 -0.5642 -0.4217  0.3191
  406MOL0     C53501   5.583   5.080   3.175  1.2473  0.3067 -0.7349
  406MOL0     C53502   5.701   5.137   3.085  0.7159  0.4594 -0.1965
  406MOL0     C53503   5.801   5.208   3.175 -0.4623 -0.6909 -0.1385
  406MOL0    Cl53504   5.933   5.107   3.226  0.7311  0.3105 -0.0484
  406MOL0     C53505   5.725   4.784   2.514 -0.1089  0.4100  0.7684
  406MOL0     C53506   5.807   4.840   2.410 -0.1497  0.2468 -0.0138
  406MOL0     O53507   6.094   4.843   2.298 -0.1180  0.2315  0.3806
  406MOL0     C53508   6.297   4.989   2.194  1.1854  0.4310  0.6570
  406MOL0     C53509   6.404   5.066   2.148  0.6208  0.1997 -0.8020
  406MOL0     N53510   6.782   5.640   2.457 -0.1342  0.5686 -0.4780
  406MOL0     N53511   6.899   5.654   2.495  0.0529  0.1087  0.0781
  406MOL0     C53512   8.123   6.128   2.217 -0.2371  0.0539 -0.4416
  406MOL0     C53513   8.255   6.167   2.175  0.2906 -0.5260  0.9218
  406MOL0     C53514   8.602   6.425   2.038 -0.2650 -0.3071 -0.3916
  406MOL0     C53515   8.625   6.481   1.917 -0.0232  0.2467  1.0688
  406MOL0     C53516   8.743   6.557   1.898 -0.2789 -0.4532 -0.4760
  406MOL0     C53517   8.837   6.570   1.994  1.1741 -0.1592  0.9196
  406MOL0     O53518   8.952   6.624   1.953  0.2281  0.4922 -0.6943
  406MOL0     C53519   9.048   6.650   2.048 -0.5527 -0.1442  0.0477
  406MOL0     C53520   9.169   6.710   1.972 -0.0938  1.2930  0.6142
  406MOL0     C53521   9.177   6.656   1.831 -0.4298  0.2707  0.7427
  406MOL0     C53522   9.246   6.527   1.837  0.1353 -0.2460  0.9517
  406MOL0     C53523   9.292   6.494   1.698  0.6187  0.9865 -1.3493
  406MOL0     C53524   9.317   6.452   1.591  0.2722 -0.2049  0.1051
  406MOL0     C53525   8.803   6.538   2.135 -0.6568 -0.7069 -0.0486
  406MOL0     C53526   8.685   6.467   2.154 -0.6102 -0.3253 -0.2375
  406MOL0     H53527   8.331   6.370   2.436 -0.8888  1.5304 -2.5910
  406MOL0     H53528   8.106   6.310   2.498 -0.3015 -0.3663  1.1453
  406MOL0     H53529   7.914   5.960   2.374 -0.7207  0.0004  0.2101
  406MOL0     H53530   7.861   6.044   2.225 -0.9200 -0.2454  0.8582
  406MOL0     H53531   7.691   6.165   2.355 -2.3429 -1.2359  0.8271
  406MOL0     H53532   7.733   6.094   2.498 -0.7639 -2.6091  0.5795
  406MOL0     H53533   7.646   5.866   2.427 -2.6278 -1.1188  0.5928
  406MOL0     H53534   7.616   5.927   2.261 -2.7196 -0.6129 -0.0133
  406MOL0     H53535   7.504   6.038   2.517  0.8365 -5.9117  2.0534
  406MOL0     H53536   7.470   6.105   2.350  0.8252  1.3545  2.0852
  406MOL0     H53537   7.413   5.830   2.481 -2.2645 -0.1276  0.5467
  406MOL0     H53538   7.386   5.857   2.311  1.4371 -1.8974  0.9685
  406MOL0     H53539   7.242   6.065   2.447  1.0860  0.1473  1.7742
  406MOL0     H53540   7.235   5.942   2.566 -0.6275 -1.6347 -0.1015
  406MOL0     H53541   7.037   5.949   2.414  0.8848  1.9521 -0.2704
  406MOL0     H53542   7.141   5.910   2.279  0.3359 -0.4552 -0.4430
  406MOL0     H53543   7.160   5.706   2.498  2.1209  0.5555 -0.3059
  406MOL0     H53544   7.160   5.685   2.328 -1.5012  0.9075 -0.5594
  406MOL0     H53545   6.921   5.745   2.181 -1.4803 -1.5681  0.0344
  406MOL0     H53546   6.595   5.742   2.208  3.0158  2.5245  2.5164
  406MOL0     H53547   6.561   5.631   2.336 -1.4364  0.6902 -0.4151
  406MOL0     H53548   6.661   5.449   2.221  0.1914  0.9538  0.3264
  406MOL0     H53549   6.710   5.554   2.086  3.2899  0.1189  2.6715
  406MOL0     H53550   6.422   5.495   2.187 -1.6555 -2.8729 -0.8975
  406MOL0     H53551   6.475   5.613   2.051  0.6435 -1.4178 -1.4583
  406MOL0     H53552   6.556   5.406   1.940 -0.7317 -1.5141 -0.8492
  406MOL0     H53553   6.378   5.399   1.959  0.5148 -1.6437 -2.2232
  406MOL0     H53554   6.234   5.368   2.122  1.8751  0.2499 -1.9049
  406MOL0     H53555   6.067   5.236   2.229  1.1644  1.1680  1.8896
  406MOL0     H53556   5.914   5.114   2.548 -1.5571  0.6445  0.8651
  406MOL0     H53557   5.768   5.025   2.737  0.6659  0.2305  0.1450
  406MOL0     H53558   5.483   4.739   2.607 -2.5250  0.6799 -1.1647
  406MOL0     H53559   5.461   4.905   2.628  1.6531  2.5144  1.8311
  406MOL0     H53560   5.400   4.705   2.854  0.0884  1.6984  1.1366
  406MOL0     H53561   5.291   4.784   2.753 -1.5081 -1.0528  1.2475
  406MOL0     H53562   5.288   4.917   2.961  0.6227  5.5144  1.8924
  406MOL0     H53563   5.366   5.009   2.826 -0.7368 -1.2225 -2.2375
  406MOL0     H53564   5.482   4.853   3.073 -0.3474 -0.4383  0.4924
  406MOL0     H53565   5.587   4.933   2.942 -1.8943  1.5116 -3.7112
  406MOL0     H53566   5.383   5.039   3.156  1.1122 -1.0147  2.1155
  406MOL0     H53567   5.441   5.144   3.025  2.0172  0.7355  0.9718
  406MOL0     H53568   5.620   4.993   3.230  2.4427  2.9197  3.0353
  406MOL0     H53569   5.560   5.153   3.254  0.1807 -0.2074 -0.5554
  406MOL0     H53570   5.748   5.060   3.024 -2.9914 -3.3744  1.3322
  406MOL0     H53571   5.654   5.217   3.027 -2.1056 -0.1410  1.0970
  406MOL0     H53572   5.753   5.242   3.267  1.6517  0.0843  0.7363
  406MOL0     H53573   5.834   5.302   3.129 -1.0643 -1.0897 -1.4498
  406MOL0     H53574   5.693   4.680   2.515  0.0237  0.2135 -2.7900
  406MOL0     H53575   5.827   4.790   2.316  0.7823  1.2608 -0.3791
  406MOL0     H53576   6.310   4.884   2.214 -0.0780  0.6427  2.8890
  406MOL0     H53577   6.505   5.026   2.140  0.0551 -1.0447 -2.0311
  406MOL0     H53578   8.064   6.056   2.162  0.0618  0.4115 -1.2400
  406MOL0     H53579   8.282   6.132   2.076 -1.7903 -0.0414  0.1343
  406MOL0     H53580   8.558   6.463   1.833  1.5971 -0.3141 -0.1662
  406MOL0     H53581   8.750   6.606   1.801 -1.8516  1.0867  0.1273
  406MOL0     H53582   9.085   6.568   2.110  1.1398  0.9502  0.5546
  406MOL0     H53583   9.022   6.728   2.120  1.3585 -0.7557  1.4665
  406MOL0     H53584   9.151   6.818   1.976 -1.5205  1.2402 -1.9749
  406MOL0     H53585   9.258   6.691   2.032 -1.7739 -0.6379  2.6729
  406MOL0     H53586   9.236   6.725   1.770  0.7233  0.0322  1.5682
  406MOL0     H53587   9.082   6.641   1.778  1.0902 -0.1438 -2.1000
  406MOL0     H53588   9.337   6.531   1.898  1.4226  0.1361 -0.9049
  406MOL0     H53589   9.173   6.451   1.869  0.1298  0.1150  1.8100
  406MOL0     H53590   9.337   6.414   1.493  0.2105  1.6231 -0.6518
  406MOL0     H53591   8.872   6.559   2.216 -0.3995  1.5196 -0.7782
  406MOL0     H53592   8.672   6.433   2.257  1.1901  2.7761  1.1819
  407MOL0     O53593   0.772   7.200   0.371  0.1081  0.1418  0.5109
  407MOL0     C53594   0.730   7.176   0.262 -0.0241 -1.3052  0.6222
  407MOL0     O53595   0.603   7.157   0.221  0.0218  0.4663 -0.2489
  407MOL0     C53596   0.494   7.194   0.297 -0.3394 -0.1507 -0.2488
  407MOL0     C53597   0.492   7.226   0.428  0.2625  0.5148  0.0313
  407MOL0     C53598   0.372   7.231   0.493 -0.0979  0.5179 -0.5002
  407MOL0     C53599   0.249   7.223   0.429 -1.3207  0.9587  0.2657
  407MOL0     O53600   0.127   7.233   0.498 -0.2216 -0.1109 -0.2494
  407MOL0     C53601   0.126   7.252   0.637  0.7137 -0.0726  0.2742
  407MOL0     C53602  -0.014   7.278   0.687  0.1408  0.5894  0.9593
  407MOL0     C53603  -0.114   7.176   0.624  0.0767  0.0056  0.3535
  407MOL0     C53604  -0.246   7.187   0.700  0.0157 -0.5403  0.5790
  407MOL0     C53605  -0.370   7.142   0.625  0.2797 -0.1138 -0.5243
  407MOL0     C53606  -0.415   7.256   0.531  0.2767  0.1066 -0.4892
  407MOL0     C53607  -0.547   7.242   0.451  0.1235  0.6174  0.7443
  407MOL0     C53608  -0.556   7.113   0.377  0.5292 -0.1552  0.9169
  407MOL0     N53609  -0.671   7.097   0.289  0.2832  0.1682 -0.2124
  407MOL0     C53610  -0.786   7.024   0.339 -0.4894  0.6648  0.0969
  407MOL0     C53611  -0.870   7.037   0.229  0.1422 -0.2223  0.4678
  407MOL0     C53612  -1.013   6.991   0.214  0.0305  0.2566 -0.3420
  407MOL0     C53613  -1.128   7.084   0.270  0.4300 -1.1818  0.9055
  407MOL0     C53614  -1.151   7.207   0.175  0.2678  0.0287  0.1472
  407MOL0     C53615  -1.196   7.330   0.256  0.6203  0.6713 -0.0809
  407MOL0     O53616  -1.298   7.402   0.182 -0.2037  0.0609 -0.7454
  407MOL0     C53617  -1.419   7.342   0.159  0.0658  0.2221 -0.5031
  407MOL0     C53618  -1.487   7.383   0.038 -0.0779 -0.2667  1.3960
  407MOL0     C53619  -1.607   7.316   0.009 -0.1115 -0.6513  0.0588
  407MOL0     C53620  -1.652   7.208   0.080 -0.3701  0.1254 -1.0037
  407MOL0     C53621  -1.772   7.135   0.041  0.8527  0.3160 -0.6195
  407MOL0     O53622  -1.871   7.204  -0.027 -0.2667  0.8137 -0.1159
  407MOL0     C53623  -1.993   7.143  -0.051  0.4192  0.0526  0.4979
  407MOL0     C53624  -2.096   7.190   0.030 -1.2235 -0.3033 -0.0797
  407MOL0     C53625  -2.223   7.150   0.008 -0.2454 -1.1767  0.6147
  407MOL0     C53626  -2.248   7.042  -0.080  1.3897  0.3999  0.2817
  407MOL0     O53627  -2.364   6.974  -0.098 -0.4773  0.0238  0.1822
  407MOL0     C53628  -2.473   7.017  -0.016 -0.8754 -0.9061  0.0630
  407MOL0     C53629  -2.583   6.917  -0.036 -0.1272  0.6003 -0.0769
  407MOL0     C53630  -2.711   6.954   0.042 -0.0125 -1.1708  0.3690
  407MOL0     C53631  -2.820   6.849   0.050  0.4710 -0.8558  0.7812
  407MOL0     C53632  -2.928   6.879   0.145 -0.4137  0.3516  0.2526
  407MOL0     C53633  -3.010   6.994   0.087  0.3854 -0.3516 -0.5494
  407MOL0     C53634  -3.138   7.014   0.178  0.2563 -0.3583  0.4626
  407MOL0     C53635  -3.232   7.128   0.116 -0.4118  0.5614 -0.5008
  407MOL0    Cl53636  -3.392   7.133   0.198 -0.3785 -0.0088  0.0554
  407MOL0     C53637  -2.151   7.001  -0.164 -0.3781 -0.3302 -0.9554
  407MOL0     C53638  -2.018   7.050  -0.152 -0.1439 -0.9242 -0.0480
  407MOL0     O53639  -1.793   7.026   0.079 -0.4657  0.6146  0.0954
  407MOL0     C53640  -1.587   7.170   0.202 -0.9970  0.5700  0.0855
  407MOL0     C53641  -1.465   7.235   0.240 -0.8700 -0.0406 -0.4782
  407MOL0     N53642  -0.809   7.108   0.127  0.1217 -0.9848  0.2108
  407MOL0     N53643  -0.689   7.141   0.166  0.2401  0.6000 -0.1995
  407MOL0     C53644   0.251   7.212   0.291  0.0948 -0.5872  0.1500
  407MOL0     C53645   0.376   7.195   0.227  0.0533 -1.2594  0.8768
  407MOL0     C53646   0.841   7.174   0.156 -0.4581 -0.5204 -1.1307
  407MOL0     C53647   0.810   7.142   0.024  0.1146  0.5300  0.1439
  407MOL0     C53648   0.903   7.117  -0.074 -0.6458  0.1553 -0.2676
  407MOL0     C53649   1.036   7.138  -0.044 -0.1554  0.2465  0.4406
  407MOL0     O53650   1.126   7.111  -0.145  1.0829  0.4685 -0.5085
  407MOL0     C53651   1.258   7.158  -0.136 -0.7150 -0.3460 -1.1355
  407MOL0     C53652   1.355   7.051  -0.081 -0.2258  0.4951  0.4577
  407MOL0     C53653   1.512   7.086  -0.054  0.1556 -0.2782  0.5407
  407MOL0     C53654   1.597   7.090  -0.180 -0.5548  0.1217  0.4460
  407MOL0     C53655   1.560   7.203  -0.269  0.9147  2.0374 -0.2505
  407MOL0     C53656   1.531   7.278  -0.352  0.0986 -1.1589  0.2468
  407MOL0     C53657   1.063   7.175   0.088 -0.2394 -0.9291  0.7500
  407MOL0     C53658   0.970   7.200   0.185 -0.6599 -1.1307 -0.8104
  407MOL0     H53659   0.585   7.242   0.481  0.3621  2.3021 -0.6280
  407MOL0     H53660   0.365   7.260   0.597 -1.8288  0.8890 -0.6915
  407MOL0     H53661   0.182   7.336   0.681 -2.2928  1.9675  0.5181
  407MOL0     H53662   0.169   7.168   0.692  2.6871  0.8070  0.1570
  407MOL0     H53663  -0.042   7.375   0.645  0.5104  0.5117  0.5212
  407MOL0     H53664  -0.015   7.272   0.796 -0.4074  0.5511  0.9580
  407MOL0     H53665  -0.071   7.077   0.641  0.2910  0.3852  2.1653
  407MOL0     H53666  -0.127   7.195   0.517 -3.1653  1.0462  0.8328
  407MOL0     H53667  -0.232   7.138   0.797  1.4077  1.1270  1.2746
  407MOL0     H53668  -0.261   7.294   0.719 -1.7756 -0.3006 -1.7270
  407MOL0     H53669  -0.445   7.109   0.697  0.4191  0.5550 -0.0617
  407MOL0     H53670  -0.359   7.045   0.576 -2.5864 -0.5064 -0.5465
  407MOL0     H53671  -0.340   7.288   0.459 -2.4416  1.5664 -2.8538
  407MOL0     H53672  -0.434   7.340   0.598  1.7829 -1.2709  1.8213
  407MOL0     H53673  -0.628   7.244   0.525 -0.5538 -2.4624  0.2143
  407MOL0     H53674  -0.539   7.319   0.374  4.5319 -1.2433 -1.0193
  407MOL0     H53675  -0.572   7.027   0.443 -0.0715 -1.1331 -0.4404
  407MOL0     H53676  -0.469   7.098   0.311  0.4316 -0.6059  0.8845
  407MOL0     H53677  -0.798   6.971   0.432  2.4226 -1.6174 -0.6731
  407MOL0     H53678  -1.015   6.891   0.260  1.8719  1.0502  1.6491
  407MOL0     H53679  -1.041   6.973   0.110  0.1996  1.6913 -0.6516
  407MOL0     H53680  -1.101   7.115   0.371  1.1935 -0.4178  0.4853
  407MOL0     H53681  -1.223   7.029   0.275 -0.5600  0.4486  0.6551
  407MOL0     H53682  -1.064   7.226   0.111 -1.7137 -2.9003 -3.9078
  407MOL0     H53683  -1.220   7.180   0.094  0.0644  0.5495  0.1426
  407MOL0     H53684  -1.103   7.388   0.254  0.3951  1.0295 -0.4533
  407MOL0     H53685  -1.215   7.294   0.358  1.1979 -0.5009 -0.3754
  407MOL0     H53686  -1.456   7.461  -0.030 -3.9594  2.0724  2.0174
  407MOL0     H53687  -1.672   7.343  -0.074 -1.0629 -3.1719 -0.0970
  407MOL0     H53688  -2.079   7.262   0.110  0.6023 -1.8088  0.9756
  407MOL0     H53689  -2.301   7.192   0.070  1.0313  3.7456 -0.7163
  407MOL0     H53690  -2.509   7.116  -0.044 -1.5937 -0.7185  1.5575
  407MOL0     H53691  -2.433   7.016   0.086  0.5176 -0.4765 -0.4558
  407MOL0     H53692  -2.554   6.816  -0.007  1.7996  1.9354  3.1671
  407MOL0     H53693  -2.599   6.921  -0.144 -0.8419  4.4437  0.0144
  407MOL0     H53694  -2.750   7.051   0.007  2.5782  0.0621  0.6609
  407MOL0     H53695  -2.677   6.970   0.145 -1.3100  1.5488  0.4900
  407MOL0     H53696  -2.864   6.836  -0.049 -0.6575 -0.0315  1.1521
  407MOL0     H53697  -2.771   6.756   0.081 -1.6696 -2.1291  0.5806
  407MOL0     H53698  -2.887   6.907   0.242 -1.1286 -1.6539  1.1905
  407MOL0     H53699  -2.991   6.793   0.169 -0.4488 -0.4843 -2.5015
  407MOL0     H53700  -3.048   6.968  -0.012  0.8523 -0.0652 -0.8070
  407MOL0     H53701  -2.945   7.080   0.067  0.2013 -0.2602 -0.7629
  407MOL0     H53702  -3.200   6.924   0.188 -0.2369 -0.2837 -1.5726
  407MOL0     H53703  -3.102   7.051   0.274  2.8996  2.5811 -1.4700
  407MOL0     H53704  -3.251   7.111   0.009  1.8752 -2.3088 -0.5978
  407MOL0     H53705  -3.183   7.221   0.146 -0.4497  0.1555  0.8834
  407MOL0     H53706  -2.164   6.930  -0.245  1.7386  0.5148 -2.1428
  407MOL0     H53707  -1.931   7.028  -0.213  0.3038 -0.3912  0.3947
  407MOL0     H53708  -1.620   7.089   0.266 -2.1445  0.5790 -0.4722
  407MOL0     H53709  -1.406   7.206   0.327 -1.1549  1.8310  0.3812
  407MOL0     H53710   0.158   7.205   0.236 -0.5970  0.4504  1.1527
  407MOL0     H53711   0.383   7.172   0.121  3.4417  0.3189  0.6038
  407MOL0     H53712   0.705   7.131   0.002  0.2238 -0.2054 -0.0457
  407MOL0     H53713   0.867   7.075  -0.167 -0.4353 -1.7916  0.4825
  407MOL0     H53714   1.248   7.245  -0.071 -3.3891 -0.3250 -1.4805
  407MOL0     H53715   1.293   7.191  -0.234 -0.3325  0.9719 -0.5836
  407MOL0     H53716   1.308   7.020   0.013 -1.7168 -0.2109 -0.4782
  407MOL0     H53717   1.352   6.958  -0.139 -0.0472 -0.0946  1.3698
  407MOL0     H53718   1.553   7.015   0.018 -0.9202 -1.2886  0.1996
  407MOL0     H53719   1.516   7.187  -0.011 -1.8031 -0.1264  0.4780
  407MOL0     H53720   1.703   7.099  -0.156 -0.6311 -1.9620  1.8206
  407MOL0     H53721   1.586   6.996  -0.235  0.6827  0.2957 -0.1519
  407MOL0     H53722   1.487   7.344  -0.424 -2.1805 -0.9671  1.7287
  407MOL0     H53723   1.160   7.204   0.127 -1.2012  0.6682  2.0698
  407MOL0     H53724   1.010   7.247   0.274 -1.0194 -2.5100  0.1011
  408MOL0     O53725   2.102   1.343   9.022 -0.5842  0.8168 -0.1414
  408MOL0     C53726   2.184   1.402   9.087 -0.0087 -0.3348  0.4592
  408MOL0     O53727   2.155   1.501   9.180 -0.3844 -0.5466  0.3906
  408MOL0     C53728   2.037   1.517   9.234  0.7355 -0.6078  0.0328
  408MOL0     C53729   1.953   1.408   9.266  0.7523 -1.1131 -0.3064
  408MOL0     C53730   1.822   1.425   9.327 -0.1045 -0.1217  0.2031
  408MOL0     C53731   1.782   1.558   9.354 -0.1027 -0.3375  0.2527
  408MOL0     O53732   1.659   1.588   9.393 -0.1832  0.7976  0.3614
  408MOL0     C53733   1.554   1.555   9.305 -0.1879 -0.4250  0.6604
  408MOL0     C53734   1.588   1.554   9.160  0.5576 -0.0714  2.0134
  408MOL0     C53735   1.466   1.517   9.082  0.1542  1.1066 -0.5945
  408MOL0     C53736   1.475   1.518   8.930  0.0868  0.0193  0.0130
  408MOL0     C53737   1.371   1.427   8.858  0.4364 -0.3608 -0.2645
  408MOL0     C53738   1.421   1.398   8.715  0.5272 -0.2368  0.6250
  408MOL0     C53739   1.418   1.521   8.624 -0.3803 -0.1104  0.3111
  408MOL0     C53740   1.402   1.502   8.475 -0.6011  0.2377 -0.3722
  408MOL0     N53741   1.429   1.623   8.392 -0.1593 -0.2916 -0.3942
  408MOL0     C53742   1.552   1.693   8.385  0.3482  0.6996 -0.1762
  408MOL0     C53743   1.528   1.782   8.286 -0.7535  0.2222 -0.8758
  408MOL0     C53744   1.626   1.894   8.248  0.1680  0.2101  0.3288
  408MOL0     C53745   1.685   1.874   8.108 -0.4372  0.2835 -0.2894
  408MOL0     C53746   1.755   1.986   8.043  0.3764 -0.9510 -0.4049
  408MOL0     C53747   1.843   2.065   8.139 -0.1488  0.7173 -0.0251
  408MOL0     O53748   1.949   1.970   8.176 -0.4345 -0.0971  0.4186
  408MOL0     C53749   2.049   2.033   8.243 -0.9090  0.3678  0.0008
  408MOL0     C53750   2.036   2.065   8.377  0.0591 -0.3673  0.2920
  408MOL0     C53751   2.157   2.120   8.439 -0.2501  0.1225 -0.7937
  408MOL0     C53752   2.278   2.143   8.377 -0.3056 -0.3118  0.2586
  408MOL0     C53753   2.394   2.210   8.436 -0.2140 -0.5867 -0.1222
  408MOL0     O53754   2.481   2.248   8.346 -0.7213  0.2641  0.8373
  408MOL0     C53755   2.603   2.288   8.397  0.2149  0.5240  0.4992
  408MOL0     C53756   2.656   2.409   8.369  0.3434 -0.1369  0.5615
  408MOL0     C53757   2.782   2.444   8.412  0.9345  0.0586  0.2646
  408MOL0     C53758   2.858   2.356   8.486 -0.2298 -0.7264 -0.4086
  408MOL0     O53759   2.990   2.388   8.514  0.2705  0.0207  0.6360
  408MOL0     C53760   3.062   2.313   8.610  0.0735  0.7279 -0.4899
  408MOL0     C53761   3.192   2.381   8.663 -0.5845  0.4609 -0.9766
  408MOL0     C53762   3.283   2.436   8.553 -0.3564  0.0776 -1.3981
  408MOL0     C53763   3.394   2.529   8.603  0.3594  0.4798  0.4526
  408MOL0     C53764   3.477   2.563   8.476  0.8646  0.1722 -0.8434
  408MOL0     C53765   3.589   2.666   8.501 -0.3340  0.2990  0.1597
  408MOL0     C53766   3.699   2.600   8.594  1.2214  0.2006 -0.6968
  408MOL0     C53767   3.793   2.507   8.529 -0.0568  0.5762 -0.3527
  408MOL0    Cl53768   3.900   2.403   8.638 -0.0099 -0.2875  0.1865
  408MOL0     C53769   2.805   2.228   8.511  0.0531 -1.5068 -0.2229
  408MOL0     C53770   2.683   2.193   8.468  0.2109 -0.3102 -0.3247
  408MOL0     O53771   2.405   2.220   8.561  0.0639  0.0736  0.2050
  408MOL0     C53772   2.276   2.094   8.245  0.5243 -0.1781  0.5181
  408MOL0     C53773   2.171   2.044   8.187 -0.0905  0.0886 -0.5341
  408MOL0     N53774   1.408   1.765   8.227  0.4188 -0.0054 -0.1546
  408MOL0     N53775   1.346   1.671   8.292  0.2648 -0.2922 -0.5621
  408MOL0     C53776   1.876   1.662   9.340 -0.1819  0.4143 -0.5523
  408MOL0     C53777   1.998   1.642   9.287  0.2139  0.7233  0.1730
  408MOL0     C53778   2.325   1.380   9.055 -0.0378 -0.9932  0.7956
  408MOL0     C53779   2.366   1.294   8.946 -1.4213 -0.7713 -0.2763
  408MOL0     C53780   2.504   1.283   8.911  0.7176 -0.0746 -0.1459
  408MOL0     C53781   2.605   1.344   8.979 -0.5263  0.1892  0.0651
  408MOL0     O53782   2.734   1.296   8.960 -0.1639 -0.0080 -0.7405
  408MOL0     C53783   2.852   1.314   9.041 -0.7466 -0.8976  0.1483
  408MOL0     C53784   2.948   1.420   8.983  0.9587  0.0567  0.4950
  408MOL0     C53785   2.881   1.551   8.932 -0.3544 -0.5565  0.2079
  408MOL0     C53786   2.987   1.625   8.836  0.8799  0.0761  0.1764
  408MOL0     C53787   3.081   1.705   8.921 -0.9392  1.2730  0.5493
  408MOL0     C53788   3.142   1.774   8.997  0.3827 -0.7451  0.1579
  408MOL0     C53789   2.564   1.423   9.086 -0.0696 -0.5084 -0.4466
  408MOL0     C53790   2.427   1.443   9.130 -0.1895 -0.0951  1.3958
  408MOL0     H53791   1.982   1.308   9.234  4.0982 -0.5139  0.5401
  408MOL0     H53792   1.754   1.345   9.354  1.0318 -1.4927 -0.8531
  408MOL0     H53793   1.470   1.623   9.319 -0.1249 -0.2388  0.1435
  408MOL0     H53794   1.523   1.453   9.331 -0.3630 -0.3968  0.5663
  408MOL0     H53795   1.659   1.478   9.127 -3.1409 -2.0559 -2.4481
  408MOL0     H53796   1.626   1.654   9.135  0.8658 -0.4129  1.0924
  408MOL0     H53797   1.384   1.583   9.113  0.2768  0.4472  1.2587
  408MOL0     H53798   1.433   1.416   9.107  0.3821  0.4689 -2.6804
  408MOL0     H53799   1.464   1.620   8.893  0.2627 -0.6706 -2.0596
  408MOL0     H53800   1.580   1.491   8.917  0.0652 -0.8288  1.3906
  408MOL0     H53801   1.270   1.468   8.852  0.1182 -1.2858 -1.7386
  408MOL0     H53802   1.350   1.332   8.908 -0.2114 -0.7476 -1.2477
  408MOL0     H53803   1.356   1.323   8.669  0.2402 -0.8685  2.0062
  408MOL0     H53804   1.517   1.348   8.725  0.6580 -0.0457  0.3036
  408MOL0     H53805   1.333   1.582   8.654 -0.9256  0.1259 -1.6017
  408MOL0     H53806   1.506   1.583   8.646 -1.4264  1.7458 -0.5241
  408MOL0     H53807   1.304   1.455   8.461  0.8714 -3.9508  1.5654
  408MOL0     H53808   1.469   1.422   8.444 -0.5314  0.8122 -1.7844
  408MOL0     H53809   1.639   1.672   8.446  0.5989 -1.8079 -1.2662
  408MOL0     H53810   1.701   1.895   8.327  0.7039  0.4830 -0.1827
  408MOL0     H53811   1.575   1.990   8.259 -0.2525  0.0081  0.1831
  408MOL0     H53812   1.607   1.838   8.040 -0.6491 -3.0690  1.5174
  408MOL0     H53813   1.754   1.792   8.126 -3.0326 -1.8195  0.7814
  408MOL0     H53814   1.814   1.954   7.957 -0.7282 -2.5478 -0.6133
  408MOL0     H53815   1.680   2.059   8.010 -1.3105 -1.9077  1.1507
  408MOL0     H53816   1.789   2.101   8.227 -1.9831 -1.7139 -0.0544
  408MOL0     H53817   1.882   2.154   8.089 -1.8665  0.6162 -1.6332
  408MOL0     H53818   1.941   2.045   8.425 -0.9243 -2.1305 -2.2045
  408MOL0     H53819   2.158   2.158   8.541  0.2204 -1.5168 -0.1652
  408MOL0     H53820   2.607   2.478   8.301 -0.7847 -1.8288 -0.4129
  408MOL0     H53821   2.828   2.536   8.377  2.1730 -1.6380 -2.9091
  408MOL0     H53822   3.074   2.216   8.562 -2.3156 -1.4757  2.8801
  408MOL0     H53823   3.001   2.311   8.701 -0.9274 -2.1777 -1.1367
  408MOL0     H53824   3.244   2.310   8.728 -3.4655  0.3206  1.3652
  408MOL0     H53825   3.159   2.457   8.734 -2.1600 -1.7848  0.8313
  408MOL0     H53826   3.226   2.496   8.482 -0.8979  0.3793 -0.7144
  408MOL0     H53827   3.333   2.348   8.511 -0.2813 -2.0949  2.7473
  408MOL0     H53828   3.355   2.625   8.638 -2.8282 -1.1968  1.9640
  408MOL0     H53829   3.437   2.480   8.690 -0.6283 -4.9320 -1.7205
  408MOL0     H53830   3.410   2.595   8.396 -1.0201  2.3163  1.4093
  408MOL0     H53831   3.521   2.468   8.443  0.0239 -0.0201 -1.4308
  408MOL0     H53832   3.555   2.757   8.551  0.1150 -0.0695  1.1768
  408MOL0     H53833   3.633   2.692   8.405  1.4534  0.0205  0.8616
  408MOL0     H53834   3.749   2.688   8.637  0.8551  0.3068 -0.4850
  408MOL0     H53835   3.646   2.547   8.673  1.5007 -3.3007 -2.6740
  408MOL0     H53836   3.857   2.566   8.463 -0.9433  1.8575 -0.1232
  408MOL0     H53837   3.734   2.441   8.465  1.2473 -0.6490 -0.3399
  408MOL0     H53838   2.870   2.160   8.564  2.7355  0.5848 -0.6370
  408MOL0     H53839   2.646   2.091   8.476 -0.5920 -0.0465 -0.5974
  408MOL0     H53840   2.363   2.096   8.180 -0.2630 -3.2030 -0.7632
  408MOL0     H53841   2.184   1.997   8.090  1.4866 -2.7980  0.9422
  408MOL0     H53842   1.850   1.753   9.394  1.0079 -0.3957  1.4984
  408MOL0     H53843   2.070   1.723   9.289  1.1432 -0.0626 -0.5899
  408MOL0     H53844   2.287   1.243   8.892 -0.4253  0.2908 -2.9373
  408MOL0     H53845   2.524   1.211   8.833 -0.1729  2.4080 -2.8834
  408MOL0     H53846   2.903   1.217   9.049 -0.9816 -1.3122 -2.4555
  408MOL0     H53847   2.829   1.355   9.139  1.1873  0.1373  0.2036
  408MOL0     H53848   3.019   1.442   9.063 -1.5791 -2.0434  3.5539
  408MOL0     H53849   2.988   1.366   8.897 -0.7143 -2.4293  1.1699
  408MOL0     H53850   2.850   1.614   9.016 -0.4221 -0.1555 -0.1173
  408MOL0     H53851   2.798   1.525   8.867 -1.3390 -2.7983  2.2076
  408MOL0     H53852   3.051   1.551   8.786 -1.1654 -1.3976 -0.3530
  408MOL0     H53853   2.943   1.696   8.766 -0.0152 -2.5166 -2.0787
  408MOL0     H53854   3.192   1.845   9.059  0.8008 -0.6798 -0.2456
  408MOL0     H53855   2.638   1.466   9.153 -1.2833 -0.7989  1.1386
  408MOL0     H53856   2.417   1.503   9.219 -1.0220  0.2119  1.0955
  409MOL0     O53857   6.368   8.208   8.787 -0.2744  0.1971  0.0880
  409MOL0     C53858   6.364   8.089   8.829 -0.0060  0.1348  0.0239
  409MOL0     O53859   6.265   8.000   8.796  0.0818 -0.6793 -0.4307
  409MOL0     C53860   6.166   8.048   8.714 -0.1143 -1.5329 -0.2912
  409MOL0     C53861   6.040   8.093   8.755 -0.0013 -0.8174  0.1599
  409MOL0     C53862   5.944   8.131   8.655 -0.4890  0.1930  0.2503
  409MOL0     C53863   5.966   8.118   8.522  0.6908  0.8493 -0.0622
  409MOL0     O53864   5.858   8.139   8.435 -0.5850 -0.3940 -0.1206
  409MOL0     C53865   5.877   8.167   8.294  0.3117 -1.0919  0.6133
  409MOL0     C53866   5.750   8.200   8.227  0.2251  0.0557  0.0469
  409MOL0     C53867   5.661   8.306   8.302  0.1886 -0.0762 -0.1751
  409MOL0     C53868   5.537   8.355   8.241 -1.3223 -0.4698  0.4266
  409MOL0     C53869   5.475   8.466   8.332  0.0224  0.4938 -0.2339
  409MOL0     C53870   5.380   8.551   8.240 -0.6976  1.3848  1.0059
  409MOL0     C53871   5.284   8.612   8.333  0.3302 -0.4758 -0.7807
  409MOL0     C53872   5.202   8.705   8.253  0.1713 -0.3850  0.0643
  409MOL0     N53873   5.059   8.719   8.291  0.3359 -0.4887 -0.1446
  409MOL0     C53874   4.953   8.770   8.211  0.1709 -0.3088 -0.1450
  409MOL0     C53875   4.842   8.767   8.281  0.5570  0.0610  1.0290
  409MOL0     C53876   4.702   8.797   8.232 -0.2712  0.4595  0.2930
  409MOL0     C53877   4.628   8.663   8.204  0.0831 -0.0244  0.5335
  409MOL0     C53878   4.505   8.706   8.126 -0.6411 -0.2438 -0.9928
  409MOL0     C53879   4.412   8.785   8.214  0.0992 -0.4783  0.8385
  409MOL0     O53880   4.280   8.792   8.163  0.3030 -0.1676  0.1912
  409MOL0     C53881   4.170   8.792   8.244  0.4332 -0.4717  0.2016
  409MOL0     C53882   4.076   8.896   8.254 -0.1359  0.3504 -0.0667
  409MOL0     C53883   3.966   8.888   8.328  0.8342  0.5848 -0.1207
  409MOL0     C53884   3.937   8.768   8.404 -0.2833 -0.1370  1.2224
  409MOL0     C53885   3.823   8.768   8.495  0.1708  0.2268  0.7926
  409MOL0     O53886   3.728   8.860   8.457 -0.6362  0.0028 -0.5662
  409MOL0     C53887   3.617   8.863   8.536 -0.2439 -0.1872  0.2785
  409MOL0     C53888   3.508   8.795   8.478  0.2553 -0.1257 -1.2777
  409MOL0     C53889   3.387   8.798   8.546  0.0863 -0.0658  0.7004
  409MOL0     C53890   3.371   8.865   8.669 -0.2969  0.0706 -0.3695
  409MOL0     O53891   3.260   8.891   8.739 -0.8908 -0.5186  0.1325
  409MOL0     C53892   3.135   8.876   8.673  0.0602 -0.0010 -0.1391
  409MOL0     C53893   3.066   8.737   8.647 -0.4898  0.1675 -0.3878
  409MOL0     C53894   3.075   8.657   8.775 -0.6624  0.1001 -0.1334
  409MOL0     C53895   3.034   8.511   8.757  1.0739 -0.0179 -0.5679
  409MOL0     C53896   2.876   8.499   8.733 -0.5345  0.3114  0.7135
  409MOL0     C53897   2.867   8.446   8.589 -0.5096 -0.3801 -0.3143
  409MOL0     C53898   2.733   8.472   8.520  0.0765  0.1555  0.0644
  409MOL0     C53899   2.729   8.457   8.369 -0.0964 -1.1587  0.1251
  409MOL0    Cl53900   2.823   8.601   8.304  0.3191 -0.3707  0.0028
  409MOL0     C53901   3.480   8.934   8.724  0.2641 -0.4862  0.0911
  409MOL0     C53902   3.603   8.934   8.655  0.0973  0.3347  0.3316
  409MOL0     O53903   3.815   8.673   8.576 -0.5832 -0.8066  0.5460
  409MOL0     C53904   4.033   8.660   8.392  0.0228 -0.1708 -0.3878
  409MOL0     C53905   4.149   8.671   8.322  0.4102 -0.1084  0.9140
  409MOL0     N53906   4.880   8.735   8.410 -0.1590  0.1087  0.6775
  409MOL0     N53907   5.011   8.714   8.417 -0.5196 -0.2522 -0.1468
  409MOL0     C53908   6.083   8.066   8.477 -0.1118 -0.0781  0.1822
  409MOL0     C53909   6.183   8.032   8.575 -0.3162 -1.2123 -0.1466
  409MOL0     C53910   6.475   8.035   8.922 -0.2896  0.0625 -0.3684
  409MOL0     C53911   6.481   7.897   8.961 -0.4864 -0.1375  0.6893
  409MOL0     C53912   6.572   7.855   9.057 -0.1526 -0.6325  0.1237
  409MOL0     C53913   6.661   7.936   9.126  0.0148  0.3267 -0.2498
  409MOL0     O53914   6.741   7.886   9.228 -0.2619  0.5900  0.3154
  409MOL0     C53915   6.820   7.768   9.195  0.1785 -0.8108  0.0996
  409MOL0     C53916   6.905   7.717   9.309 -0.0965  0.1817 -0.3086
  409MOL0     C53917   7.049   7.760   9.312  0.8782 -0.4869  0.2606
  409MOL0     C53918   7.131   7.674   9.405 -0.2840 -0.9457 -0.3516
  409MOL0     C53919   7.163   7.543   9.345 -0.0735  0.1006 -0.8505
  409MOL0     C53920   7.198   7.436   9.292  0.3086  0.2889 -0.3803
  409MOL0     C53921   6.655   8.068   9.086 -0.4286  0.0359  0.4324
  409MOL0     C53922   6.569   8.120   8.992  0.5467 -0.7920  0.5975
  409MOL0     H53923   6.022   8.111   8.860  1.2700  1.9692  0.0146
  409MOL0     H53924   5.841   8.160   8.676 -0.0105  0.4596  2.4789
  409MOL0     H53925   5.924   8.082   8.244 -3.0259 -1.7797 -1.6406
  409MOL0     H53926   5.948   8.251   8.291 -0.3649 -0.5275  0.2622
  409MOL0     H53927   5.697   8.104   8.227  0.3701 -0.0328  1.1803
  409MOL0     H53928   5.774   8.230   8.124  0.9414 -1.8737 -0.3876
  409MOL0     H53929   5.713   8.401   8.316 -1.5641  0.9034  0.0695
  409MOL0     H53930   5.634   8.272   8.403 -2.4017 -0.2201 -0.8518
  409MOL0     H53931   5.558   8.396   8.142 -4.0247  4.1607  1.4542
  409MOL0     H53932   5.460   8.280   8.223 -0.1004 -1.2437 -1.8955
  409MOL0     H53933   5.553   8.539   8.357 -1.6397  1.8228  1.3750
  409MOL0     H53934   5.436   8.431   8.428  1.8343  0.7149  0.6105
  409MOL0     H53935   5.327   8.493   8.163  1.4836  0.3415  0.2170
  409MOL0     H53936   5.429   8.630   8.182  0.9304 -1.4244 -1.7695
  409MOL0     H53937   5.228   8.536   8.389  0.8661 -1.6201 -1.7659
  409MOL0     H53938   5.322   8.668   8.419  0.3657 -0.1271 -1.0178
  409MOL0     H53939   5.218   8.679   8.148 -3.6121  0.5383 -0.8928
  409MOL0     H53940   5.245   8.806   8.256  1.6018 -0.9743  0.7949
  409MOL0     H53941   4.955   8.798   8.106 -3.3209  2.4142  0.3126
  409MOL0     H53942   4.714   8.855   8.140 -0.5471 -1.5981 -1.1152
  409MOL0     H53943   4.649   8.852   8.310 -3.7289  0.1414 -1.6278
  409MOL0     H53944   4.611   8.608   8.297  1.2972 -2.0640 -0.3683
  409MOL0     H53945   4.687   8.590   8.146  3.0243  0.7779  2.2731
  409MOL0     H53946   4.517   8.762   8.033  2.1382 -0.6226 -0.9450
  409MOL0     H53947   4.452   8.621   8.083  0.5736 -1.4395 -0.2162
  409MOL0     H53948   4.446   8.887   8.238  0.0959 -0.3031  0.1150
  409MOL0     H53949   4.409   8.725   8.306 -0.1627 -2.5555 -0.4745
  409MOL0     H53950   4.090   8.990   8.201 -3.4366 -0.5617 -2.8516
  409MOL0     H53951   3.908   8.976   8.355 -1.3251 -1.1337  1.2029
  409MOL0     H53952   3.532   8.751   8.382  0.7236 -2.5043 -0.1458
  409MOL0     H53953   3.301   8.754   8.496  1.5771 -1.7008 -0.5893
  409MOL0     H53954   3.116   8.941   8.587  0.9522  0.7739  0.2228
  409MOL0     H53955   3.078   8.930   8.749  2.1393 -0.2476  1.7375
  409MOL0     H53956   3.109   8.683   8.562 -0.8640  0.8823 -1.0549
  409MOL0     H53957   2.958   8.739   8.630 -0.6372 -1.6053  0.2098
  409MOL0     H53958   3.011   8.698   8.854  0.3968  3.1275 -0.7210
  409MOL0     H53959   3.175   8.644   8.817  0.5714 -3.2074 -3.4672
  409MOL0     H53960   3.105   8.451   8.700  2.6317  1.7339 -0.5839
  409MOL0     H53961   3.064   8.473   8.856  1.9462  2.1169  0.0483
  409MOL0     H53962   2.822   8.594   8.736 -0.9666  0.0828  0.4391
  409MOL0     H53963   2.825   8.419   8.788 -1.7679  0.9151  0.4991
  409MOL0     H53964   2.889   8.339   8.593 -0.9132 -0.4425  0.6325
  409MOL0     H53965   2.949   8.485   8.528 -1.5391 -1.2718 -2.3864
  409MOL0     H53966   2.656   8.404   8.557 -0.6558 -0.1550 -1.9256
  409MOL0     H53967   2.703   8.572   8.554 -0.3477 -0.3988  1.4247
  409MOL0     H53968   2.629   8.480   8.331 -0.1348  1.0820  1.3404
  409MOL0     H53969   2.765   8.369   8.316  2.0664  1.4801 -3.2442
  409MOL0     H53970   3.476   8.975   8.824 -0.7099 -1.3159  0.4101
  409MOL0     H53971   3.687   8.989   8.697 -0.2263  0.9806  0.1466
  409MOL0     H53972   4.029   8.568   8.451  4.5004  0.5298  1.4043
  409MOL0     H53973   4.225   8.596   8.307  1.9901  0.9402  3.0062
  409MOL0     H53974   6.106   8.046   8.373  0.8176 -1.7254  0.6625
  409MOL0     H53975   6.273   7.979   8.544 -2.0196 -4.2009 -0.3403
  409MOL0     H53976   6.413   7.828   8.911  1.9420 -2.0619 -0.1662
  409MOL0     H53977   6.559   7.750   9.081 -0.0096 -1.0023 -1.3223
  409MOL0     H53978   6.884   7.795   9.111 -0.3980 -0.3905 -0.2041
  409MOL0     H53979   6.753   7.689   9.162  0.5217 -1.5783  1.1934
  409MOL0     H53980   6.855   7.745   9.402  0.5425 -0.0604  0.1148
  409MOL0     H53981   6.907   7.609   9.291  1.7521  0.5768 -3.1659
  409MOL0     H53982   7.042   7.864   9.345  0.5561  0.5438 -2.7366
  409MOL0     H53983   7.088   7.761   9.210 -1.5040 -0.5704 -0.7154
  409MOL0     H53984   7.217   7.734   9.437 -1.0200 -0.4644  0.8314
  409MOL0     H53985   7.068   7.654   9.493 -0.6612 -1.1788 -0.6756
  409MOL0     H53986   7.233   7.347   9.244  0.4767  0.4945 -0.6391
  409MOL0     H53987   6.722   8.137   9.136 -0.9172  2.1161 -1.6232
  409MOL0     H53988   6.579   8.226   8.967 -0.1408  0.8611  6.0039
  410MOL0     O53989   2.637  11.146   2.090  0.1590  0.6218  0.3359
  410MOL0     C53990   2.714  11.237   2.087  0.0632 -0.3069  0.0750
  410MOL0     O53991   2.771  11.289   1.977  0.1755  0.0384  0.2315
  410MOL0     C53992   2.722  11.264   1.852 -0.1025 -0.0256  1.3549
  410MOL0     C53993   2.804  11.314   1.744  0.5651  0.7829  0.0355
  410MOL0     C53994   2.762  11.305   1.615  0.2000  0.4074  0.1507
  410MOL0     C53995   2.631  11.248   1.579  0.0017 -0.1382  1.0685
  410MOL0     O53996   2.591  11.244   1.446 -0.0643 -0.3711  0.2755
  410MOL0     C53997   2.669  11.188   1.352  0.7906  0.1884  0.5244
  410MOL0     C53998   2.637  11.043   1.308  0.1553  0.4597 -0.0172
  410MOL0     C53999   2.488  11.002   1.284 -0.1795 -0.2781  0.1433
  410MOL0     C54000   2.397  11.122   1.245 -0.3847  1.2035  0.1338
  410MOL0     C54001   2.257  11.078   1.200  0.6159 -0.3143 -0.3810
  410MOL0     C54002   2.241  10.998   1.073 -0.8004  0.3010 -0.8009
  410MOL0     C54003   2.110  11.036   1.010  0.3158 -0.6592 -0.0690
  410MOL0     C54004   1.990  10.962   1.082 -0.1338 -0.4719  0.2887
  410MOL0     N54005   1.862  10.980   1.019  0.2147 -0.2185 -0.4222
  410MOL0     C54006   1.774  11.076   1.054 -0.3192  0.6427  0.4044
  410MOL0     C54007   1.661  11.046   0.980  0.6625  0.1217 -0.1722
  410MOL0     C54008   1.541  11.122   0.986  0.5978 -0.8706 -1.0361
  410MOL0     C54009   1.421  11.058   1.070 -0.9308 -0.2800  0.6221
  410MOL0     C54010   1.288  11.132   1.027 -0.1164 -0.2625 -1.0014
  410MOL0     C54011   1.164  11.079   1.094 -0.0301  0.0053 -0.1519
  410MOL0     O54012   1.045  11.165   1.071  0.2064  1.2407  0.1565
  410MOL0     C54013   0.932  11.130   1.136  0.2474 -0.9857  0.4213
  410MOL0     C54014   0.852  11.241   1.169 -0.0754  0.2916 -1.2283
  410MOL0     C54015   0.722  11.229   1.220  0.6930 -0.1915  0.0308
  410MOL0     C54016   0.669  11.102   1.242  0.0999  0.6503 -0.5158
  410MOL0     C54017   0.526  11.086   1.273  1.0464 -0.0105 -0.4719
  410MOL0     O54018   0.460  11.197   1.314 -0.7137 -0.6087 -0.0808
  410MOL0     C54019   0.324  11.197   1.325 -0.8189  0.7407 -0.8115
  410MOL0     C54020   0.230  11.094   1.290  0.1421 -0.1327 -0.3365
  410MOL0     C54021   0.089  11.108   1.308 -0.0246  0.0822 -0.0923
  410MOL0     C54022   0.041  11.215   1.380  0.3572 -0.5581  0.2326
  410MOL0     O54023  -0.092  11.221   1.403  0.2615  0.0525 -0.0856
  410MOL0     C54024  -0.157  11.345   1.422  0.9849 -0.6590 -0.1469
  410MOL0     C54025  -0.129  11.447   1.307  0.4503 -0.3299 -0.3191
  410MOL0     C54026  -0.222  11.567   1.333 -1.0140 -0.6657 -0.9378
  410MOL0     C54027  -0.174  11.674   1.229  0.1101 -0.6176  0.7310
  410MOL0     C54028  -0.275  11.785   1.202 -0.4190 -0.2856  0.2220
  410MOL0     C54029  -0.228  11.892   1.105  0.4517  0.9662  0.8890
  410MOL0     C54030  -0.176  11.840   0.974 -0.4158 -0.1679 -0.3264
  410MOL0     C54031  -0.186  11.940   0.864  0.4498 -0.5452 -0.1435
  410MOL0    Cl54032  -0.062  11.900   0.743 -0.5547  0.2448 -0.1848
  410MOL0     C54033   0.132  11.319   1.419  0.6621  0.1486  0.1792
  410MOL0     C54034   0.269  11.303   1.389  0.7922 -0.2192  0.0591
  410MOL0     O54035   0.484  10.970   1.280 -0.4305  0.1425 -0.0235
  410MOL0     C54036   0.758  10.993   1.225 -0.8008  0.6581  0.7980
  410MOL0     C54037   0.888  11.008   1.174  0.3033 -0.0303 -0.1190
  410MOL0     N54038   1.688  10.942   0.901 -0.0735  0.5435 -0.2982
  410MOL0     N54039   1.807  10.888   0.934 -0.0372  0.4343  0.2276
  410MOL0     C54040   2.548  11.200   1.685 -0.0358 -0.1029  0.6868
  410MOL0     C54041   2.597  11.214   1.816 -0.9532 -0.5002 -0.7220
  410MOL0     C54042   2.747  11.303   2.209 -0.3181  0.1101  0.6482
  410MOL0     C54043   2.712  11.254   2.334  0.4649 -0.6046 -0.3470
  410MOL0     C54044   2.757  11.304   2.456 -0.4899 -0.3166 -0.3157
  410MOL0     C54045   2.855  11.406   2.456  0.0891 -0.5148 -0.7696
  410MOL0     O54046   2.909  11.470   2.572 -0.2447 -0.5372 -0.3319
  410MOL0     C54047   2.853  11.465   2.703  0.3191  0.4388 -0.3887
  410MOL0     C54048   2.919  11.333   2.770  0.2561 -0.1712  0.5344
  410MOL0     C54049   2.870  11.312   2.908 -0.0730 -0.3171 -0.0855
  410MOL0     C54050   2.716  11.289   2.923 -0.0924  0.1163 -0.2034
  410MOL0     C54051   2.659  11.190   2.828 -0.6315  0.1703 -1.2439
  410MOL0     C54052   2.630  11.107   2.742  1.0498 -0.0682 -0.6699
  410MOL0     C54053   2.892  11.461   2.336 -0.1871 -0.0184  0.4140
  410MOL0     C54054   2.841  11.413   2.217 -1.0754  0.4928  0.0364
  410MOL0     H54055   2.889  11.374   1.775  1.1920  0.7951 -1.5946
  410MOL0     H54056   2.816  11.352   1.533 -0.7332  1.8828  0.3424
  410MOL0     H54057   2.774  11.188   1.382  1.0571  0.4283 -0.3725
  410MOL0     H54058   2.668  11.245   1.258 -1.0456 -2.0904 -0.9620
  410MOL0     H54059   2.684  10.968   1.373  2.1387  2.2845  0.7285
  410MOL0     H54060   2.692  11.039   1.214  0.1601  1.6227 -0.0756
  410MOL0     H54061   2.449  10.962   1.378  2.4051 -0.9969  0.9983
  410MOL0     H54062   2.484  10.926   1.205  3.0317 -0.8792  0.4105
  410MOL0     H54063   2.384  11.183   1.335 -1.8284 -0.0430  0.8121
  410MOL0     H54064   2.438  11.179   1.161  0.2672 -0.8408 -0.9992
  410MOL0     H54065   2.191  11.164   1.192 -1.5237 -2.0117 -2.6603
  410MOL0     H54066   2.212  11.018   1.280  1.7686 -1.6402 -0.6768
  410MOL0     H54067   2.241  10.891   1.098 -2.0022  0.6284  0.6738
  410MOL0     H54068   2.326  11.016   1.006  0.8085  2.5427  1.6703
  410MOL0     H54069   2.081  11.140   1.026  0.8064 -0.8689  2.7245
  410MOL0     H54070   2.108  11.022   0.901  0.1805  1.1974 -0.3348
  410MOL0     H54071   1.988  11.009   1.181  1.3420 -1.2388  0.7080
  410MOL0     H54072   2.019  10.857   1.091 -0.2434 -0.3612  2.5498
  410MOL0     H54073   1.795  11.164   1.113 -0.4241  0.5502  0.5803
  410MOL0     H54074   1.500  11.151   0.889 -1.1642  1.2486  0.2380
  410MOL0     H54075   1.566  11.215   1.038 -0.6434 -1.7438  1.3075
  410MOL0     H54076   1.438  11.069   1.178 -2.3545  1.6715  0.7035
  410MOL0     H54077   1.410  10.952   1.044 -4.1612  0.2114 -0.5380
  410MOL0     H54078   1.294  11.238   1.054 -0.1202 -0.7654  1.2041
  410MOL0     H54079   1.273  11.112   0.920 -1.6841 -2.5756 -0.4447
  410MOL0     H54080   1.167  11.074   1.204 -0.5569  0.4386 -0.1194
  410MOL0     H54081   1.152  10.974   1.065 -0.6126 -0.3320  1.1925
  410MOL0     H54082   0.904  11.333   1.144  0.0893  1.1661  1.9909
  410MOL0     H54083   0.674  11.326   1.221  1.1346  0.0309  0.3919
  410MOL0     H54084   0.249  10.997   1.246  0.6754 -0.5689  0.8074
  410MOL0     H54085   0.017  11.029   1.285 -1.0629  0.8252  0.5279
  410MOL0     H54086  -0.115  11.402   1.506 -0.0497  3.5510 -2.2214
  410MOL0     H54087  -0.263  11.322   1.428  0.6232 -0.3168 -3.5300
  410MOL0     H54088  -0.149  11.405   1.207 -0.1735 -0.6770 -0.0554
  410MOL0     H54089  -0.024  11.477   1.310  0.8894 -1.6019 -1.4483
  410MOL0     H54090  -0.215  11.614   1.432  3.5781 -1.7369 -0.5580
  410MOL0     H54091  -0.326  11.534   1.325 -0.6990 -1.6048 -1.1895
  410MOL0     H54092  -0.079  11.712   1.268  1.7452 -4.2977  0.7231
  410MOL0     H54093  -0.157  11.619   1.136 -2.2515 -0.1555 -0.0452
  410MOL0     H54094  -0.319  11.821   1.295 -0.2412  1.8465 -0.4772
  410MOL0     H54095  -0.360  11.741   1.148 -0.8115  1.9860 -1.1348
  410MOL0     H54096  -0.152  11.961   1.142 -0.0570  2.3397 -0.5638
  410MOL0     H54097  -0.317  11.947   1.077 -1.4118 -3.1457 -2.4402
  410MOL0     H54098  -0.068  11.831   0.987 -0.0614  2.9868 -0.2939
  410MOL0     H54099  -0.225  11.748   0.941 -0.6098  0.6365 -2.4446
  410MOL0     H54100  -0.161  12.042   0.895  2.9847 -1.3793  0.8661
  410MOL0     H54101  -0.286  11.950   0.822 -0.8559 -0.9218  2.6776
  410MOL0     H54102   0.098  11.416   1.455 -3.2464 -0.7651 -0.5816
  410MOL0     H54103   0.332  11.382   1.429 -1.1747  1.7758 -0.5795
  410MOL0     H54104   0.727  10.890   1.242 -1.8092  1.0669  1.5781
  410MOL0     H54105   0.946  10.917   1.161  2.9234  1.2859  1.3954
  410MOL0     H54106   2.453  11.156   1.658  0.6001 -1.0853 -0.0179
  410MOL0     H54107   2.539  11.175   1.899  0.2482  1.9942  1.4366
  410MOL0     H54108   2.643  11.170   2.341  0.0732 -0.2024  0.7394
  410MOL0     H54109   2.719  11.269   2.552 -0.4061 -0.3315 -0.2877
  410MOL0     H54110   2.745  11.446   2.698  0.2155 -0.4600  3.0831
  410MOL0     H54111   2.880  11.557   2.756 -2.8102  0.3231  1.7097
  410MOL0     H54112   2.904  11.240   2.716  2.4229  0.0132 -0.4686
  410MOL0     H54113   3.025  11.361   2.771  0.6880 -1.7102  1.7994
  410MOL0     H54114   2.906  11.392   2.973 -2.5187  0.0214  0.9428
  410MOL0     H54115   2.924  11.228   2.952 -0.2492  0.5345  1.8808
  410MOL0     H54116   2.703  11.263   3.029  0.8607 -2.0310 -0.5486
  410MOL0     H54117   2.657  11.378   2.902 -2.2318 -1.3332 -0.6452
  410MOL0     H54118   2.621  11.029   2.669  0.7483 -0.1729 -0.5228
  410MOL0     H54119   2.959  11.546   2.346 -0.0153  0.1898 -1.9125
  410MOL0     H54120   2.879  11.459   2.127  2.5785  1.8010  2.0275
  411MOL0     O54121   2.427   1.175   7.934  0.4152  0.3173  0.0209
  411MOL0     C54122   2.416   1.297   7.924  0.5344  0.5136 -0.5467
  411MOL0     O54123   2.324   1.368   7.848 -0.4782 -0.2119 -0.1392
  411MOL0     C54124   2.263   1.322   7.732 -0.8594 -0.8633  0.5295
  411MOL0     C54125   2.313   1.211   7.658 -0.6710  0.4649 -0.2111
  411MOL0     C54126   2.243   1.162   7.545  0.0534  0.6203 -0.4774
  411MOL0     C54127   2.140   1.238   7.481  0.0414  0.2617  0.1072
  411MOL0     O54128   2.070   1.211   7.358 -0.7622  0.2583 -0.6791
  411MOL0     C54129   2.146   1.122   7.272 -0.0697 -0.9944 -1.2029
  411MOL0     C54130   2.069   1.117   7.136  0.2061  0.4427 -0.4233
  411MOL0     C54131   1.931   1.047   7.148  0.3669 -0.4536  0.7045
  411MOL0     C54132   1.867   1.001   7.019  0.0370 -0.2902  0.3717
  411MOL0     C54133   1.721   0.960   7.044  0.3054 -0.4877 -1.3237
  411MOL0     C54134   1.669   0.859   6.942 -0.0553 -0.2849 -1.1546
  411MOL0     C54135   1.603   0.912   6.814  0.2232  0.0661  0.0887
  411MOL0     C54136   1.543   0.797   6.740  0.1013 -0.5488  0.0681
  411MOL0     N54137   1.476   0.840   6.622  0.9272  0.0683  0.1343
  411MOL0     C54138   1.336   0.835   6.605 -0.2562 -0.3621  0.3312
  411MOL0     C54139   1.318   0.895   6.477  0.3817  0.6016 -0.6406
  411MOL0     C54140   1.181   0.907   6.412  1.1397 -0.4375  0.2143
  411MOL0     C54141   1.186   0.838   6.271 -0.5578  0.1218  0.0768
  411MOL0     C54142   1.062   0.849   6.184  0.7005  0.2245  0.5411
  411MOL0     C54143   1.084   0.824   6.035  0.9070  0.2467 -0.4065
  411MOL0     O54144   0.965   0.828   5.965  0.3529 -0.5500 -0.2274
  411MOL0     C54145   0.899   0.716   5.948  0.5005  0.3262  0.0950
  411MOL0     C54146   0.785   0.723   5.872  0.4019 -0.4118  1.2586
  411MOL0     C54147   0.704   0.612   5.843 -0.0639  0.5582  0.6716
  411MOL0     C54148   0.741   0.490   5.897  0.2196 -0.4294 -0.1876
  411MOL0     C54149   0.672   0.364   5.851  0.7676 -0.5408 -0.7204
  411MOL0     O54150   0.614   0.371   5.726 -0.7506  0.1048 -0.2319
  411MOL0     C54151   0.550   0.269   5.658  0.3143  1.3652 -1.1462
  411MOL0     C54152   0.527   0.126   5.707  0.8236 -0.2471 -0.3919
  411MOL0     C54153   0.467   0.029   5.626  0.1171 -0.2313  0.7194
  411MOL0     C54154   0.401   0.068   5.501  0.6050  0.3652 -0.0714
  411MOL0     O54155   0.340  -0.020   5.420  0.4144  0.5216  0.2460
  411MOL0     C54156   0.272  -0.115   5.504  0.7544 -0.0281  0.0174
  411MOL0     C54157   0.143  -0.159   5.436 -0.2165  0.2303 -0.7561
  411MOL0     C54158   0.069  -0.253   5.527  0.2077  0.7980  0.0912
  411MOL0     C54159  -0.064  -0.314   5.473  0.4497  0.4863  0.6362
  411MOL0     C54160  -0.117  -0.423   5.562 -0.1172 -0.2836  0.3400
  411MOL0     C54161  -0.168  -0.357   5.690  0.2580  1.0369 -0.2900
  411MOL0     C54162  -0.232  -0.449   5.789  0.2353 -0.0765 -0.4654
  411MOL0     C54163  -0.309  -0.377   5.905 -0.0803  0.3119  0.6893
  411MOL0    Cl54164  -0.358  -0.498   6.043  0.3782 -0.2027  0.2175
  411MOL0     C54165   0.424   0.201   5.456  0.0998  0.1485 -0.4734
  411MOL0     C54166   0.504   0.300   5.530 -0.3117  1.4087 -0.3465
  411MOL0     O54167   0.683   0.271   5.926  0.0987  0.5911  0.2571
  411MOL0     C54168   0.842   0.476   5.996 -0.1787 -0.1580  0.5792
  411MOL0     C54169   0.924   0.588   6.013  0.0081 -0.1777 -0.1243
  411MOL0     N54170   1.443   0.927   6.427  0.1237  0.2942 -0.3440
  411MOL0     N54171   1.533   0.903   6.513 -0.0099  0.2429  0.0405
  411MOL0     C54172   2.103   1.354   7.543 -0.3109  0.4436 -0.6561
  411MOL0     C54173   2.160   1.394   7.669  0.6698  0.1728 -0.0080
  411MOL0     C54174   2.504   1.384   8.009 -0.8084  0.2513 -0.2626
  411MOL0     C54175   2.504   1.519   7.983  0.2823  0.1859 -0.6309
  411MOL0     C54176   2.594   1.600   8.051  0.0732 -0.4822  0.0636
  411MOL0     C54177   2.675   1.550   8.150 -0.4317  0.2963 -0.8242
  411MOL0     O54178   2.764   1.629   8.219 -0.0957 -0.0848  0.6217
  411MOL0     C54179   2.737   1.648   8.357 -0.5779 -1.2092 -0.0363
  411MOL0     C54180   2.737   1.797   8.387 -0.3368 -0.5313  0.0309
  411MOL0     C54181   2.883   1.852   8.401 -0.7003  0.8213  0.7057
  411MOL0     C54182   2.958   1.810   8.530  0.3696  0.3761  1.1410
  411MOL0     C54183   3.098   1.849   8.544  0.4358  0.2801 -0.8834
  411MOL0     C54184   3.204   1.881   8.566 -0.9249 -0.4965  0.2930
  411MOL0     C54185   2.676   1.415   8.180  0.3174 -0.5267  0.5235
  411MOL0     C54186   2.594   1.327   8.106 -0.2111 -0.5287 -0.3437
  411MOL0     H54187   2.391   1.147   7.696  0.2114  1.0966 -0.9116
  411MOL0     H54188   2.281   1.070   7.501  0.6623 -0.0547  1.3654
  411MOL0     H54189   2.161   1.026   7.322 -1.0787  0.5435  2.3778
  411MOL0     H54190   2.248   1.162   7.275 -0.8903  1.2112  0.3094
  411MOL0     H54191   2.140   1.063   7.072 -2.9085 -1.1142 -2.8458
  411MOL0     H54192   2.061   1.215   7.088  0.4457 -2.0782 -6.4348
  411MOL0     H54193   1.861   1.110   7.204 -1.7464 -1.4414 -0.6982
  411MOL0     H54194   1.943   0.957   7.209  0.6188  1.0432  2.9992
  411MOL0     H54195   1.869   1.089   6.953  1.1321 -2.7386 -3.1416
  411MOL0     H54196   1.936   0.930   6.974  0.8629  1.2058 -0.8093
  411MOL0     H54197   1.671   1.057   7.045 -2.1626 -1.6844  0.2750
  411MOL0     H54198   1.716   0.925   7.147  2.0505  3.3110  0.2606
  411MOL0     H54199   1.585   0.811   6.994 -3.0008  4.1426 -1.2503
  411MOL0     H54200   1.746   0.785   6.918  2.2455  1.4460  0.4612
  411MOL0     H54201   1.520   0.981   6.834  2.4021  2.5443  1.1556
  411MOL0     H54202   1.675   0.958   6.746 -0.5770  2.0451  0.4817
  411MOL0     H54203   1.474   0.750   6.810  0.3598 -2.7859 -1.0684
  411MOL0     H54204   1.615   0.719   6.713 -1.0147 -1.6420  0.1473
  411MOL0     H54205   1.266   0.783   6.669  2.4274 -3.0435  1.3830
  411MOL0     H54206   1.160   1.014   6.399  3.8578  0.2713  0.9854
  411MOL0     H54207   1.098   0.858   6.465 -1.1271 -2.7680 -4.8418
  411MOL0     H54208   1.214   0.734   6.291  1.5057  0.5702 -0.2386
  411MOL0     H54209   1.273   0.875   6.216  0.2423 -1.1477  0.4414
  411MOL0     H54210   0.989   0.775   6.216  0.3643  0.3021 -0.0281
  411MOL0     H54211   1.015   0.948   6.196 -0.2471 -0.1931  0.3785
  411MOL0     H54212   1.143   0.732   6.026  5.3540  2.6420  1.4506
  411MOL0     H54213   1.143   0.907   5.997  1.8481 -0.4766 -0.5717
  411MOL0     H54214   0.748   0.807   5.815 -1.3952 -1.6079  0.5538
  411MOL0     H54215   0.624   0.624   5.771  0.0136 -1.6441  0.1372
  411MOL0     H54216   0.567   0.097   5.804 -0.7797  0.4194  0.5313
  411MOL0     H54217   0.452  -0.075   5.653  0.8271 -0.7096 -0.6152
  411MOL0     H54218   0.245  -0.064   5.597 -0.0820  0.9302 -0.7383
  411MOL0     H54219   0.322  -0.207   5.536  0.6781  0.0488  0.3692
  411MOL0     H54220   0.158  -0.203   5.337 -0.3768  0.1588 -0.7480
  411MOL0     H54221   0.079  -0.071   5.423  0.6909  0.6210 -3.1674
  411MOL0     H54222   0.049  -0.196   5.618  0.3810  1.2111 -0.1249
  411MOL0     H54223   0.126  -0.343   5.550 -1.7437 -0.8866 -1.3261
  411MOL0     H54224  -0.137  -0.235   5.457  3.0512  3.0361  0.3935
  411MOL0     H54225  -0.040  -0.367   5.380 -0.4224 -0.4380  0.9302
  411MOL0     H54226  -0.045  -0.501   5.589  1.4737  1.9675  3.1514
  411MOL0     H54227  -0.197  -0.478   5.511 -0.0562 -0.1967  0.1482
  411MOL0     H54228  -0.247  -0.290   5.653 -0.8087  0.8721  1.5257
  411MOL0     H54229  -0.094  -0.296   5.742  0.1627  2.4595 -1.7249
  411MOL0     H54230  -0.289  -0.530   5.741 -2.7360  1.1036  0.8148
  411MOL0     H54231  -0.143  -0.484   5.842 -0.4369  2.4697  2.6487
  411MOL0     H54232  -0.397  -0.326   5.865 -0.6840 -1.3506 -0.2071
  411MOL0     H54233  -0.233  -0.307   5.940  0.6034 -0.1792  0.2091
  411MOL0     H54234   0.388   0.249   5.365 -0.5271 -0.6088 -0.6376
  411MOL0     H54235   0.513   0.399   5.488  3.9119  1.1497 -0.4070
  411MOL0     H54236   0.862   0.383   6.048  1.7770 -0.1107 -0.0253
  411MOL0     H54237   0.994   0.589   6.095 -2.9047 -0.4451  2.5530
  411MOL0     H54238   2.022   1.415   7.506 -3.3332 -1.5178  2.1202
  411MOL0     H54239   2.121   1.486   7.711  0.5054  0.3261 -0.4843
  411MOL0     H54240   2.432   1.565   7.917 -1.4580 -1.6091 -0.0782
  411MOL0     H54241   2.603   1.707   8.032  0.6148  0.3472  3.9726
  411MOL0     H54242   2.817   1.600   8.414  1.8502  0.5632 -1.7678
  411MOL0     H54243   2.639   1.614   8.393  0.2328 -1.3838  2.1909
  411MOL0     H54244   2.689   1.847   8.302 -1.7058 -2.1181 -0.1920
  411MOL0     H54245   2.670   1.828   8.468  1.8050  0.4755  1.4899
  411MOL0     H54246   2.895   1.960   8.391  1.2821  0.5260 -0.5830
  411MOL0     H54247   2.937   1.825   8.310  0.0955  1.3385  1.0135
  411MOL0     H54248   2.903   1.863   8.609 -1.1770  0.1941  0.2255
  411MOL0     H54249   2.949   1.702   8.549  1.1380 -0.0805 -0.8369
  411MOL0     H54250   3.307   1.903   8.586 -0.1195 -1.3914 -2.4406
  411MOL0     H54251   2.745   1.382   8.257  2.5586  0.9696 -0.7458
  411MOL0     H54252   2.589   1.220   8.123  0.0667 -0.4846  0.0292
  412MOL0     O54253   8.192   0.581   4.043  0.4427 -0.3180  0.2075
  412MOL0     C54254   8.175   0.705   4.042 -0.2882  0.4438 -0.1535
  412MOL0     O54255   8.270   0.800   4.039 -0.1172 -0.7904  0.2297
  412MOL0     C54256   8.395   0.758   4.019  0.0032 -0.4121  0.5791
  412MOL0     C54257   8.488   0.789   4.111 -0.6371  0.3358  0.2174
  412MOL0     C54258   8.620   0.744   4.093 -0.1331 -0.0725  0.7136
  412MOL0     C54259   8.663   0.675   3.975 -1.2776  1.0256  0.9413
  412MOL0     O54260   8.793   0.629   3.965 -0.5554 -0.3340  0.2130
  412MOL0     C54261   8.842   0.562   3.841  0.0746  0.2819  0.6338
  412MOL0     C54262   8.987   0.519   3.855  0.1452  0.0124 -0.4010
  412MOL0     C54263   9.088   0.633   3.854 -0.1760  1.2682  0.2907
  412MOL0     C54264   9.232   0.582   3.882 -0.8568  0.1609 -0.0958
  412MOL0     C54265   9.282   0.463   3.806  0.5192 -0.0759  0.0354
  412MOL0     C54266   9.413   0.412   3.850  0.7765 -0.4003 -0.0388
  412MOL0     C54267   9.540   0.499   3.819  0.2436  1.4225  0.2401
  412MOL0     C54268   9.566   0.522   3.666  0.0726 -0.1165 -0.4034
  412MOL0     N54269   9.699   0.565   3.640  0.0950  0.5780 -0.6937
  412MOL0     C54270   9.780   0.652   3.715  0.1466  0.3390  0.3185
  412MOL0     C54271   9.901   0.644   3.655 -0.2407  0.9922  0.2683
  412MOL0     C54272  10.032   0.702   3.702  0.6369 -0.5399 -1.3044
  412MOL0     C54273  10.052   0.835   3.632 -0.5586  0.0320 -0.0185
  412MOL0     C54274  10.053   0.964   3.710 -0.4334 -0.6458 -0.0329
  412MOL0     C54275   9.932   1.020   3.773  0.3267 -0.8317  1.0261
  412MOL0     O54276   9.818   0.983   3.693  0.9299 -0.6137 -0.4226
  412MOL0     C54277   9.690   1.005   3.738  0.9219  0.5439  0.0279
  412MOL0     C54278   9.652   1.086   3.842 -0.1324 -0.2506 -0.8504
  412MOL0     C54279   9.519   1.094   3.879  1.2204 -0.4928 -0.6078
  412MOL0     C54280   9.410   1.031   3.803  0.7378 -0.2144  0.7480
  412MOL0     C54281   9.263   1.050   3.830 -0.5720  0.1449  0.6197
  412MOL0     O54282   9.167   0.982   3.751  0.3424  0.8250  0.2468
  412MOL0     C54283   9.040   1.026   3.768  0.2094  0.2788  0.3380
  412MOL0     C54284   8.951   0.986   3.879 -0.0402  0.3445  0.9119
  412MOL0     C54285   8.817   1.027   3.867  0.2242  0.3495 -0.5049
  412MOL0     C54286   8.768   1.102   3.762 -0.1990  0.5943 -0.0948
  412MOL0     O54287   8.641   1.154   3.748 -0.6669  1.0977 -0.6088
  412MOL0     C54288   8.544   1.074   3.822  0.0423  0.4163  0.7073
  412MOL0     C54289   8.402   1.119   3.766 -1.0084  0.3543 -0.1300
  412MOL0     C54290   8.302   1.002   3.783 -1.1190 -0.0476 -0.4773
  412MOL0     C54291   8.160   1.049   3.740 -0.3609 -0.0168 -0.0096
  412MOL0     C54292   8.051   0.942   3.762  0.1000 -0.5999 -0.9507
  412MOL0     C54293   8.028   0.854   3.637 -0.0210  0.0144  0.4087
  412MOL0     C54294   7.928   0.740   3.661  0.5098 -0.3332  0.5454
  412MOL0     C54295   7.780   0.768   3.682 -0.3784 -0.4786 -0.3742
  412MOL0    Cl54296   7.681   0.748   3.528  0.1251  0.2062  0.2182
  412MOL0     C54297   8.863   1.158   3.680 -0.9327  0.7802  0.3159
  412MOL0     C54298   8.995   1.118   3.671  0.6438  0.1926  0.7835
  412MOL0     O54299   9.233   1.120   3.921 -0.8503  0.9106 -0.4857
  412MOL0     C54300   9.452   0.946   3.704 -0.1521  0.9128  0.1449
  412MOL0     C54301   9.590   0.927   3.674  0.0956  0.5613 -0.3171
  412MOL0     N54302   9.887   0.577   3.535 -0.1789  0.1453  0.2386
  412MOL0     N54303   9.772   0.523   3.532  0.4843 -0.0488 -0.1424
  412MOL0     C54304   8.571   0.642   3.881 -0.3591 -0.1461  0.3110
  412MOL0     C54305   8.442   0.687   3.905  1.1017 -0.3732 -0.2669
  412MOL0     C54306   8.033   0.746   4.056 -0.1465  0.1904 -0.4388
  412MOL0     C54307   7.928   0.660   4.021 -0.0812  0.0123 -0.1303
  412MOL0     C54308   7.797   0.703   4.031  0.3390 -0.1948  0.3470
  412MOL0     C54309   7.763   0.826   4.077 -0.0114  0.2596  0.1491
  412MOL0     O54310   7.633   0.874   4.078  0.6764 -0.0235 -0.8437
  412MOL0     C54311   7.519   0.790   4.049 -0.2330  0.2861 -0.0923
  412MOL0     C54312   7.492   0.693   4.166 -1.0546 -0.8815 -0.4295
  412MOL0     C54313   7.358   0.617   4.137 -0.7962  0.1625 -0.3925
  412MOL0     C54314   7.238   0.695   4.172  0.8407 -0.3066  0.8813
  412MOL0     C54315   7.105   0.615   4.188 -0.0811  0.4202  0.0190
  412MOL0     C54316   7.001   0.546   4.193 -1.0191 -0.0504  0.0038
  412MOL0     C54317   7.862   0.918   4.102  0.1428 -0.4089 -0.9655
  412MOL0     C54318   7.992   0.882   4.102  0.4480  0.0520  0.2350
  412MOL0     H54319   8.451   0.848   4.194  0.7977 -1.4221  2.2205
  412MOL0     H54320   8.683   0.757   4.180 -0.9537 -2.3641  1.7342
  412MOL0     H54321   8.843   0.642   3.766 -0.0265  0.1473  0.4885
  412MOL0     H54322   8.782   0.475   3.814  2.3471 -1.4886  1.0254
  412MOL0     H54323   9.006   0.453   3.769 -0.9546 -1.0520  0.1544
  412MOL0     H54324   9.002   0.456   3.942  0.7963  1.9540  0.9672
  412MOL0     H54325   9.062   0.709   3.928  0.8090  0.9208  1.0308
  412MOL0     H54326   9.095   0.688   3.760  2.0417  1.8412  0.7387
  412MOL0     H54327   9.300   0.665   3.861 -0.7284 -0.0462 -0.5007
  412MOL0     H54328   9.232   0.556   3.988  0.7160 -1.9289 -0.5334
  412MOL0     H54329   9.274   0.483   3.698 -1.1430  0.5158  0.2264
  412MOL0     H54330   9.217   0.380   3.835  0.8281 -0.1905  0.3956
  412MOL0     H54331   9.417   0.315   3.799 -0.6170  0.0673 -1.1057
  412MOL0     H54332   9.412   0.407   3.959 -0.0128  0.2628  0.0032
  412MOL0     H54333   9.531   0.599   3.863  3.1787  2.5908 -1.5258
  412MOL0     H54334   9.630   0.447   3.852 -1.2948 -2.4214 -1.1110
  412MOL0     H54335   9.493   0.598   3.636  0.4210 -0.4850 -2.2960
  412MOL0     H54336   9.533   0.433   3.611 -0.9662 -0.2902  0.4662
  412MOL0     H54337   9.759   0.705   3.807 -2.9541  2.5076 -1.4461
  412MOL0     H54338  10.120   0.642   3.680  2.4346  1.6399 -0.4639
  412MOL0     H54339  10.017   0.708   3.810  2.1045 -2.1308 -0.9905
  412MOL0     H54340   9.981   0.848   3.550  0.4715  4.2613 -0.4641
  412MOL0     H54341  10.148   0.813   3.585 -1.6866 -2.8703 -1.1613
  412MOL0     H54342  10.144   0.968   3.771 -0.5933 -1.2978  0.2625
  412MOL0     H54343  10.069   1.041   3.634  0.4050 -3.2302 -2.6417
  412MOL0     H54344   9.937   1.130   3.777  0.8403 -0.7553 -0.7992
  412MOL0     H54345   9.924   0.990   3.878 -0.7001  1.6011  1.7189
  412MOL0     H54346   9.717   1.160   3.889 -0.5603  0.6144 -1.5870
  412MOL0     H54347   9.482   1.169   3.948 -4.1624 -1.7714 -1.5852
  412MOL0     H54348   8.989   0.912   3.949  0.9750 -2.1781 -2.0881
  412MOL0     H54349   8.752   0.987   3.944 -0.8908 -0.4272 -1.8008
  412MOL0     H54350   8.537   1.101   3.928 -3.0962 -0.3967  0.8178
  412MOL0     H54351   8.553   0.966   3.805 -2.7801  0.1709  0.3570
  412MOL0     H54352   8.402   1.128   3.657  0.0090  2.2466 -0.0173
  412MOL0     H54353   8.376   1.210   3.820 -0.5270  1.6006 -1.9202
  412MOL0     H54354   8.300   0.986   3.891 -3.3136  1.3369 -0.2532
  412MOL0     H54355   8.329   0.911   3.728 -1.9528 -0.8672  0.4333
  412MOL0     H54356   8.133   1.139   3.797  0.1082  2.7040 -3.7170
  412MOL0     H54357   8.157   1.079   3.635  0.9105 -1.5002 -0.5103
  412MOL0     H54358   7.953   0.985   3.784  0.0856 -1.7536  1.7091
  412MOL0     H54359   8.070   0.875   3.846 -0.8057  1.0469  0.6439
  412MOL0     H54360   8.114   0.800   3.597  0.3537 -0.0597  1.2788
  412MOL0     H54361   7.991   0.916   3.555  1.3345 -1.6879 -1.5843
  412MOL0     H54362   7.930   0.682   3.568  0.5372  4.0486 -2.4513
  412MOL0     H54363   7.961   0.680   3.747  1.5192  1.1945  1.2648
  412MOL0     H54364   7.753   0.863   3.731 -2.5318 -1.2404  0.0176
  412MOL0     H54365   7.750   0.699   3.762 -4.6692  2.8342  1.2731
  412MOL0     H54366   8.832   1.222   3.598 -3.4220 -0.8209 -0.1190
  412MOL0     H54367   9.063   1.151   3.593 -0.0382 -0.9112 -0.3280
  412MOL0     H54368   9.381   0.887   3.647  1.7366 -0.3124 -1.0936
  412MOL0     H54369   9.625   0.859   3.597 -1.8525 -1.3061  0.3492
  412MOL0     H54370   8.592   0.589   3.789 -0.0702 -0.1276  0.3645
  412MOL0     H54371   8.373   0.660   3.826  1.2608  0.4556 -0.7034
  412MOL0     H54372   7.954   0.562   3.983  2.3447  0.9483 -1.0749
  412MOL0     H54373   7.726   0.630   3.994  1.0300 -2.2630  2.7857
  412MOL0     H54374   7.541   0.734   3.958  1.4156 -1.1680  1.1476
  412MOL0     H54375   7.425   0.845   4.036 -1.8518 -2.2008  0.5106
  412MOL0     H54376   7.577   0.626   4.181 -1.0597 -0.6677  0.6615
  412MOL0     H54377   7.480   0.735   4.267  2.6475  2.6466 -1.1654
  412MOL0     H54378   7.348   0.536   4.209 -0.6239  0.6842  0.2246
  412MOL0     H54379   7.354   0.574   4.037  0.2339  0.1378 -0.4383
  412MOL0     H54380   7.263   0.744   4.267 -1.6534  1.6237  0.6251
  412MOL0     H54381   7.218   0.759   4.086  0.1554 -1.7583 -0.0728
  412MOL0     H54382   6.909   0.491   4.186 -1.0875 -0.3843  2.6429
  412MOL0     H54383   7.835   1.022   4.116  2.7185  0.6221 -2.7313
  412MOL0     H54384   8.072   0.954   4.117  1.1494  0.0218 -2.7444
  413MOL0     O54385   8.377   2.090   4.230  0.9466  0.1689 -1.1473
  413MOL0     C54386   8.365   2.210   4.258 -0.6709 -0.3923  0.0298
  413MOL0     O54387   8.257   2.287   4.218 -0.2420  0.3789 -0.4553
  413MOL0     C54388   8.133   2.250   4.164 -0.1900 -0.3991  0.7596
  413MOL0     C54389   8.059   2.138   4.193 -0.2660 -0.1417 -0.3412
  413MOL0     C54390   7.938   2.107   4.126  0.3493  0.6491  0.2016
  413MOL0     C54391   7.880   2.195   4.030  0.0116  0.7369 -1.1244
  413MOL0     O54392   7.756   2.170   3.981  0.6256 -0.4502  0.5203
  413MOL0     C54393   7.721   2.226   3.853 -0.5065 -0.0634 -0.3311
  413MOL0     C54394   7.599   2.147   3.816 -0.8149 -0.1124  0.4797
  413MOL0     C54395   7.535   2.205   3.694 -0.3299 -0.0433  0.1637
  413MOL0     C54396   7.431   2.106   3.643  0.0012  0.5139  1.6821
  413MOL0     C54397   7.326   2.169   3.543  0.0861  0.4220  1.3773
  413MOL0     C54398   7.187   2.104   3.569 -0.1151 -0.2107  0.0348
  413MOL0     C54399   7.083   2.163   3.468  0.8001 -0.0447  0.5338
  413MOL0     C54400   6.944   2.098   3.492  0.8778  0.5060  0.8729
  413MOL0     N54401   6.825   2.145   3.416 -0.0313 -0.4221  0.0125
  413MOL0     C54402   6.842   2.232   3.308  1.1190  1.0795 -0.1151
  413MOL0     C54403   6.717   2.245   3.257  0.2259  0.4121  0.5385
  413MOL0     C54404   6.661   2.331   3.147  0.1849 -0.2006  0.7771
  413MOL0     C54405   6.509   2.336   3.157 -0.4485 -0.5283  0.2241
  413MOL0     C54406   6.434   2.426   3.047 -0.4156  0.4024  1.0313
  413MOL0     C54407   6.284   2.414   3.062  0.0390 -0.8563 -0.5326
  413MOL0     O54408   6.203   2.478   2.962  0.6615 -0.2806 -0.6795
  413MOL0     C54409   6.067   2.458   2.985  0.2994 -0.1442  0.3944
  413MOL0     C54410   5.997   2.428   2.869  0.0200  0.3687  0.2966
  413MOL0     C54411   5.853   2.431   2.859 -0.1885 -0.5407 -0.6526
  413MOL0     C54412   5.779   2.448   2.976  0.2010 -0.6648  0.3411
  413MOL0     C54413   5.633   2.452   2.982  0.2056  0.1759  0.3452
  413MOL0     O54414   5.566   2.386   2.882  0.0915  0.9535 -0.0923
  413MOL0     C54415   5.425   2.397   2.872  0.2246 -0.6783  0.0966
  413MOL0     C54416   5.359   2.276   2.846 -0.5503 -0.6100 -0.7856
  413MOL0     C54417   5.219   2.279   2.840  0.0936 -0.3034 -0.5433
  413MOL0     C54418   5.140   2.395   2.855 -0.7320 -0.7970  0.2015
  413MOL0     O54419   5.000   2.408   2.838  0.1573 -0.0048  0.6337
  413MOL0     C54420   4.945   2.347   2.713  0.3393  0.5304 -0.1306
  413MOL0     C54421   4.964   2.434   2.592 -0.2948 -0.0268  0.4833
  413MOL0     C54422   4.870   2.548   2.568  0.3469 -0.5162 -0.1524
  413MOL0     C54423   4.726   2.519   2.538  0.1246  1.1933 -0.2273
  413MOL0     C54424   4.647   2.653   2.496  0.0546 -0.1140  0.0491
  413MOL0     C54425   4.490   2.621   2.481  0.2202  1.2880 -0.6622
  413MOL0     C54426   4.411   2.745   2.463  0.4360 -0.2167  0.3036
  413MOL0     C54427   4.277   2.709   2.411  1.2083 -0.0995  0.5222
  413MOL0    Cl54428   4.177   2.858   2.388  0.2593 -0.2496  0.1433
  413MOL0     C54429   5.207   2.517   2.863 -1.0337  0.2141  0.6336
  413MOL0     C54430   5.355   2.517   2.875 -0.1601 -0.1295 -0.3484
  413MOL0     O54431   5.580   2.506   3.077  0.0097 -0.0287 -0.1769
  413MOL0     C54432   5.850   2.467   3.103 -0.1278 -0.0482  0.1557
  413MOL0     C54433   5.989   2.475   3.105 -0.0447 -0.4314  0.0728
  413MOL0     N54434   6.643   2.159   3.335 -0.5822 -0.1824  0.5457
  413MOL0     N54435   6.701   2.105   3.436 -0.6723 -1.0883  0.1619
  413MOL0     C54436   7.946   2.313   4.003 -1.5976 -0.0981  1.0001
  413MOL0     C54437   8.073   2.331   4.062 -0.1643 -1.2676 -0.2070
  413MOL0     C54438   8.458   2.272   4.353  0.0651  0.0545  0.6573
  413MOL0     C54439   8.438   2.402   4.406  0.8078 -0.9416 -0.0170
  413MOL0     C54440   8.528   2.453   4.497 -0.0418  0.9852  0.2033
  413MOL0     C54441   8.622   2.372   4.558 -0.2030 -0.7207  0.7449
  413MOL0     O54442   8.724   2.417   4.642  0.5027 -0.0236 -0.2229
  413MOL0     C54443   8.687   2.481   4.774  0.2781  0.6173  0.7531
  413MOL0     C54444   8.811   2.545   4.840  0.6921 -0.1876  0.5204
  413MOL0     C54445   8.912   2.434   4.856 -0.4543 -0.3268 -0.8410
  413MOL0     C54446   9.045   2.496   4.910  0.5624  0.3308 -0.4540
  413MOL0     C54447   9.121   2.575   4.798  0.9809 -0.0005 -0.2838
  413MOL0     C54448   9.182   2.639   4.709 -0.5701 -0.1888  0.1856
  413MOL0     C54449   8.644   2.240   4.512  0.6668 -0.1479 -0.3226
  413MOL0     C54450   8.568   2.197   4.404  0.3627 -0.4590  0.2491
  413MOL0     H54451   8.093   2.071   4.271  2.1589  0.5228 -0.7626
  413MOL0     H54452   7.883   2.016   4.149 -0.3659  0.5394 -1.7621
  413MOL0     H54453   7.804   2.207   3.785  0.3265  0.7387  0.4242
  413MOL0     H54454   7.713   2.333   3.874  4.5241 -0.0699  3.4499
  413MOL0     H54455   7.525   2.167   3.894 -0.7280  2.2669  0.0301
  413MOL0     H54456   7.628   2.043   3.799 -0.0476  0.3549 -1.3406
  413MOL0     H54457   7.606   2.216   3.612  1.4983  0.7321  1.7805
  413MOL0     H54458   7.495   2.303   3.721 -2.6769 -1.2053  1.2684
  413MOL0     H54459   7.481   2.027   3.586 -1.8188  0.1245  0.5284
  413MOL0     H54460   7.379   2.064   3.730 -1.1849  0.5256  0.9919
  413MOL0     H54461   7.359   2.165   3.439  1.5019 -1.5002  1.8267
  413MOL0     H54462   7.320   2.276   3.562 -0.1135  0.8160 -0.6851
  413MOL0     H54463   7.152   2.127   3.669 -1.8446 -1.0151 -0.3436
  413MOL0     H54464   7.197   1.995   3.560 -1.1657 -0.5325  2.0805
  413MOL0     H54465   7.069   2.271   3.474 -1.8679 -0.3623  1.5983
  413MOL0     H54466   7.121   2.141   3.368 -0.3798  1.1582 -0.2150
  413MOL0     H54467   6.926   2.119   3.598 -0.6264 -0.4583  0.8471
  413MOL0     H54468   6.958   1.990   3.480 -2.1219 -0.1940  2.6340
  413MOL0     H54469   6.927   2.286   3.267 -0.6088  1.1979 -4.0080
  413MOL0     H54470   6.689   2.281   3.054 -1.2207  1.4864 -0.6206
  413MOL0     H54471   6.690   2.436   3.150 -2.1006  0.4588  2.4487
  413MOL0     H54472   6.478   2.366   3.258  0.6286  0.5977  0.2545
  413MOL0     H54473   6.473   2.234   3.144 -2.3426  0.4192 -3.1216
  413MOL0     H54474   6.457   2.533   3.049 -0.2547  0.5845 -2.8953
  413MOL0     H54475   6.462   2.389   2.948 -1.6193 -3.7729  2.0386
  413MOL0     H54476   6.257   2.457   3.159 -0.8635 -1.4447 -0.5152
  413MOL0     H54477   6.272   2.305   3.072  3.5073 -1.2508  0.8577
  413MOL0     H54478   6.052   2.396   2.781 -1.2697 -1.8014  0.1986
  413MOL0     H54479   5.799   2.410   2.767 -0.1382 -3.5824 -0.0821
  413MOL0     H54480   5.414   2.184   2.829 -3.0020 -3.0039  2.8640
  413MOL0     H54481   5.181   2.185   2.802 -0.0633 -0.3529 -0.2669
  413MOL0     H54482   4.842   2.317   2.733 -0.0995  0.9850 -1.6106
  413MOL0     H54483   5.005   2.256   2.706  0.0029  0.2743  0.2397
  413MOL0     H54484   4.944   2.375   2.502 -2.1840  1.3885 -0.0889
  413MOL0     H54485   5.066   2.474   2.593 -1.2429  2.6706 -0.7896
  413MOL0     H54486   4.909   2.609   2.485  0.0696 -0.8853 -0.5591
  413MOL0     H54487   4.868   2.603   2.662  0.3486 -0.3208 -0.2645
  413MOL0     H54488   4.714   2.437   2.467 -0.3977  1.7305 -0.7809
  413MOL0     H54489   4.678   2.481   2.629  1.7591 -0.6603 -0.0851
  413MOL0     H54490   4.682   2.685   2.397 -1.9359 -2.8019 -1.6563
  413MOL0     H54491   4.653   2.735   2.569  1.3693 -1.0940  1.0910
  413MOL0     H54492   4.447   2.570   2.567  1.0309  1.6288 -0.0417
  413MOL0     H54493   4.476   2.558   2.393 -2.1467  2.4840 -1.2298
  413MOL0     H54494   4.405   2.800   2.558 -0.8361 -0.7417  0.5469
  413MOL0     H54495   4.464   2.810   2.393 -0.7426  1.0453  0.5394
  413MOL0     H54496   4.227   2.656   2.492  2.0733  0.1345  1.2267
  413MOL0     H54497   4.271   2.659   2.314 -0.4779  1.5013 -0.2608
  413MOL0     H54498   5.140   2.601   2.857  1.1286  1.9526 -0.5814
  413MOL0     H54499   5.409   2.611   2.886  1.5055 -1.0824 -0.0126
  413MOL0     H54500   5.803   2.491   3.198 -1.3997  1.7732 -0.8647
  413MOL0     H54501   6.044   2.485   3.198 -1.7119 -1.5368  1.2371
  413MOL0     H54502   7.904   2.388   3.936 -0.9062 -1.6776 -1.2877
  413MOL0     H54503   8.111   2.431   4.042 -1.7841 -0.5429  0.1356
  413MOL0     H54504   8.370   2.477   4.367  0.3318 -1.5998 -0.4735
  413MOL0     H54505   8.536   2.557   4.528  1.5183  0.4494  1.7686
  413MOL0     H54506   8.644   2.402   4.836 -0.0598  0.1996  0.0069
  413MOL0     H54507   8.610   2.555   4.751 -1.2366 -0.9229  0.5978
  413MOL0     H54508   8.842   2.635   4.785  1.0545 -0.9282 -0.5391
  413MOL0     H54509   8.794   2.579   4.942 -1.9883 -0.6193  0.2745
  413MOL0     H54510   8.947   2.378   4.768  1.5105 -0.4252 -0.0518
  413MOL0     H54511   8.868   2.352   4.914 -4.3426  0.2438 -2.6902
  413MOL0     H54512   9.013   2.555   4.996 -1.1479  0.8536 -1.4096
  413MOL0     H54513   9.122   2.431   4.953  1.6149  3.3143  2.6806
  413MOL0     H54514   9.240   2.688   4.634 -1.1516 -0.4427 -0.4491
  413MOL0     H54515   8.721   2.172   4.547  0.0740 -0.2556  0.8430
  413MOL0     H54516   8.591   2.098   4.367 -1.3740 -0.2867 -1.4538
  414MOL0     O54517   2.917   9.648   1.341  0.0286 -0.0118 -0.3951
  414MOL0     C54518   2.988   9.717   1.266  0.0398  0.9251 -0.3344
  414MOL0     O54519   2.978   9.721   1.129  1.0510  0.4825  0.6844
  414MOL0     C54520   2.882   9.638   1.066 -0.1149 -0.1459  0.4577
  414MOL0     C54521   2.745   9.625   1.103  0.2933 -0.2466  0.6364
  414MOL0     C54522   2.647   9.557   1.021 -0.1960  0.2572  0.2002
  414MOL0     C54523   2.695   9.504   0.898 -0.8208 -0.0895 -0.4453
  414MOL0     O54524   2.615   9.435   0.805  0.1569 -0.1245 -0.5410
  414MOL0     C54525   2.490   9.491   0.771  1.2304  0.1468 -0.0975
  414MOL0     C54526   2.477   9.478   0.631 -0.1317 -0.2280 -0.5860
  414MOL0     C54527   2.440   9.337   0.586  0.6560 -0.5286  0.5009
  414MOL0     C54528   2.281   9.316   0.604 -1.1527 -0.9281 -0.2844
  414MOL0     C54529   2.246   9.179   0.563  1.1518  0.3965  0.1850
  414MOL0     C54530   2.108   9.133   0.607 -0.1865  0.2971  0.3732
  414MOL0     C54531   2.100   8.979   0.631 -0.1402 -0.4609  0.7928
  414MOL0     C54532   2.187   8.937   0.748 -0.1590 -0.2693  0.1567
  414MOL0     N54533   2.114   8.865   0.856  0.0565 -0.5909  0.3692
  414MOL0     C54534   2.050   8.748   0.835 -0.9434  0.5981  0.6116
  414MOL0     C54535   2.007   8.708   0.950  0.4744  0.5087 -0.8382
  414MOL0     C54536   1.938   8.583   0.990 -0.9682 -0.8145  0.0004
  414MOL0     C54537   2.027   8.463   0.995 -0.6378 -0.0072  0.6202
  414MOL0     C54538   2.106   8.447   0.862 -0.3438 -0.6374 -0.2402
  414MOL0     C54539   2.142   8.307   0.815 -0.0426 -0.1668  0.0196
  414MOL0     O54540   2.219   8.232   0.914  0.0606  0.5761  0.1625
  414MOL0     C54541   2.344   8.273   0.933 -0.0125 -0.0512  0.5150
  414MOL0     C54542   2.424   8.346   0.841 -0.2875 -1.1128 -0.2405
  414MOL0     C54543   2.559   8.376   0.873  0.5128  0.1236 -0.3275
  414MOL0     C54544   2.626   8.329   0.980 -0.5486  0.1446  0.2861
  414MOL0     C54545   2.774   8.350   0.990  0.7368  0.9893 -0.5796
  414MOL0     O54546   2.844   8.260   1.076 -0.0150 -0.5244 -0.0326
  414MOL0     C54547   2.978   8.267   1.083  0.5235 -0.3164 -1.2243
  414MOL0     C54548   3.032   8.381   1.149 -0.2763  0.0794  0.2748
  414MOL0     C54549   3.172   8.385   1.180  0.2654  0.8518 -0.0871
  414MOL0     C54550   3.249   8.282   1.132 -0.2450 -0.6664 -0.1447
  414MOL0     O54551   3.386   8.271   1.163 -0.1317  0.5561  0.4127
  414MOL0     C54552   3.424   8.232   1.297  0.7391 -0.5893 -0.3971
  414MOL0     C54553   3.543   8.147   1.278  0.1142 -0.7137  0.0297
  414MOL0     C54554   3.669   8.216   1.211  1.2397 -0.3886  0.1393
  414MOL0     C54555   3.790   8.132   1.198 -0.0165  0.0655  0.2857
  414MOL0     C54556   3.915   8.210   1.174  0.5710  0.6928 -0.2253
  414MOL0     C54557   4.033   8.114   1.156 -0.1541  0.5479 -0.2104
  414MOL0     C54558   4.164   8.178   1.112  0.0150 -0.0609  0.7814
  414MOL0     C54559   4.295   8.101   1.127  0.2248 -0.1107  0.8637
  414MOL0    Cl54560   4.428   8.200   1.069 -0.2520  0.5515 -0.3709
  414MOL0     C54561   3.199   8.173   1.061  0.9429 -0.1692 -0.6793
  414MOL0     C54562   3.064   8.169   1.024  0.3481 -0.0655  0.3716
  414MOL0     O54563   2.827   8.437   0.918 -0.8067  0.2469 -0.7221
  414MOL0     C54564   2.548   8.249   1.068  0.3366 -0.4930 -0.2002
  414MOL0     C54565   2.415   8.229   1.045 -1.0953 -0.5783  0.1080
  414MOL0     N54566   2.057   8.794   1.041 -0.6768 -0.0295 -0.1548
  414MOL0     N54567   2.107   8.895   0.983  0.2441 -0.1615  0.2300
  414MOL0     C54568   2.838   9.502   0.868 -0.0593 -0.8621 -0.2112
  414MOL0     C54569   2.926   9.579   0.947  0.7207 -0.1132 -0.1468
  414MOL0     C54570   3.091   9.805   1.329  1.2161 -1.3689 -0.1430
  414MOL0     C54571   3.156   9.900   1.257 -0.3873 -0.0704 -0.2225
  414MOL0     C54572   3.268   9.972   1.310  0.2760  0.1942 -0.2086
  414MOL0     C54573   3.312   9.956   1.448  0.8792 -0.1425  0.0585
  414MOL0     O54574   3.412  10.007   1.520  0.1029 -0.0855  0.1522
  414MOL0     C54575   3.441  10.144   1.488  0.4849 -0.6917  0.1879
  414MOL0     C54576   3.586  10.137   1.437  0.5858  0.9021  0.2159
  414MOL0     C54577   3.687  10.097   1.538 -0.4359 -0.1775  1.0909
  414MOL0     C54578   3.836  10.085   1.476  0.5665  0.4237 -0.4533
  414MOL0     C54579   3.931  10.022   1.575 -0.1148  0.1832  0.0134
  414MOL0     C54580   4.015   9.967   1.640  0.1252  0.1567 -0.6582
  414MOL0     C54581   3.240   9.862   1.523  0.3812  0.4038 -0.0711
  414MOL0     C54582   3.141   9.784   1.461 -0.9345  0.0642  0.1836
  414MOL0     H54583   2.694   9.659   1.192 -0.6112  0.2497 -0.0531
  414MOL0     H54584   2.542   9.542   1.045 -0.3680 -1.0576 -1.2109
  414MOL0     H54585   2.486   9.598   0.791 -0.9284  0.5281 -2.0655
  414MOL0     H54586   2.415   9.445   0.835  1.8005  1.8077  1.8461
  414MOL0     H54587   2.565   9.512   0.576  0.3302 -2.3975 -1.2733
  414MOL0     H54588   2.394   9.542   0.598 -0.2737 -0.1324 -0.0519
  414MOL0     H54589   2.495   9.262   0.644 -0.4873  0.6108  3.2528
  414MOL0     H54590   2.467   9.319   0.482 -0.1539 -0.3526  0.2499
  414MOL0     H54591   2.261   9.315   0.711  0.8210  0.3359  0.1465
  414MOL0     H54592   2.220   9.393   0.556 -1.0633 -0.8157 -0.2171
  414MOL0     H54593   2.318   9.108   0.604  2.1300  0.1222 -1.8775
  414MOL0     H54594   2.242   9.166   0.455 -3.7983  4.2018 -0.4191
  414MOL0     H54595   2.034   9.160   0.530  1.0625  2.9987 -0.0078
  414MOL0     H54596   2.078   9.191   0.695  3.1567  0.2671  1.6891
  414MOL0     H54597   1.999   8.946   0.655  0.1051 -2.6412 -0.9467
  414MOL0     H54598   2.136   8.928   0.542 -1.7732  1.5325 -1.1325
  414MOL0     H54599   2.243   9.024   0.785 -1.7678  0.4118  1.1114
  414MOL0     H54600   2.257   8.860   0.713 -0.8151 -0.4943 -0.7000
  414MOL0     H54601   2.038   8.704   0.737  1.5184  1.4002 -0.1185
  414MOL0     H54602   1.848   8.580   0.929  0.7178  3.9536 -3.3322
  414MOL0     H54603   1.903   8.602   1.092 -0.4233 -0.1850  0.0791
  414MOL0     H54604   1.965   8.374   1.011  2.5947 -1.7154  6.5327
  414MOL0     H54605   2.099   8.473   1.077  2.1674  3.0237 -1.9480
  414MOL0     H54606   2.047   8.488   0.779  1.7736  0.6240 -1.2271
  414MOL0     H54607   2.200   8.502   0.871  0.5189 -2.4164  4.4891
  414MOL0     H54608   2.177   8.301   0.712 -4.7654 -0.1507 -1.8273
  414MOL0     H54609   2.056   8.241   0.807  0.4405 -0.7055 -0.9094
  414MOL0     H54610   2.376   8.374   0.747 -1.4288  0.2956  0.7201
  414MOL0     H54611   2.615   8.427   0.794  0.8365 -0.0457 -0.2108
  414MOL0     H54612   2.967   8.460   1.185 -0.4148 -0.4663  1.2535
  414MOL0     H54613   3.219   8.471   1.227 -1.5662  0.2429  3.1002
  414MOL0     H54614   3.348   8.175   1.351 -2.0893  2.4187 -0.9584
  414MOL0     H54615   3.450   8.318   1.359  1.7008 -1.0053 -0.2065
  414MOL0     H54616   3.508   8.057   1.227  0.9427 -2.1716  1.8872
  414MOL0     H54617   3.590   8.114   1.371 -0.5906 -0.1625  0.5953
  414MOL0     H54618   3.695   8.309   1.263 -3.0766 -0.4938  2.9790
  414MOL0     H54619   3.632   8.238   1.110 -0.9984 -2.2789  0.4630
  414MOL0     H54620   3.804   8.080   1.293 -1.3762  3.5385  2.5909
  414MOL0     H54621   3.765   8.066   1.115  0.0090  0.9306 -0.4261
  414MOL0     H54622   3.932   8.275   1.260 -0.9374  0.4513  0.2988
  414MOL0     H54623   3.904   8.278   1.088  1.1153 -0.4526 -1.2286
  414MOL0     H54624   3.990   8.047   1.080 -0.3410 -0.1036  0.4530
  414MOL0     H54625   4.048   8.053   1.246  0.0275  1.8247  0.6407
  414MOL0     H54626   4.147   8.207   1.008  1.3365 -0.1968  0.5096
  414MOL0     H54627   4.176   8.275   1.163 -4.0085  0.4734  0.9783
  414MOL0     H54628   4.296   8.008   1.068  1.8961 -0.0504  0.7355
  414MOL0     H54629   4.325   8.074   1.229 -1.4138 -2.6565  0.7679
  414MOL0     H54630   3.273   8.108   1.015  0.4469 -1.7649  0.6880
  414MOL0     H54631   3.032   8.085   0.964  1.7481  0.1395 -0.7230
  414MOL0     H54632   2.590   8.208   1.159 -2.8797 -0.0862  1.6168
  414MOL0     H54633   2.374   8.154   1.113  0.6317  1.2103  3.3237
  414MOL0     H54634   2.880   9.457   0.780 -1.3281 -3.4308  0.4190
  414MOL0     H54635   3.024   9.604   0.909  0.6024  0.6892  0.0531
  414MOL0     H54636   3.122   9.938   1.161  1.9837  1.7352 -0.4411
  414MOL0     H54637   3.323  10.043   1.249  2.1340  0.5215  1.7139
  414MOL0     H54638   3.439  10.202   1.580 -0.0772 -4.1934  2.5922
  414MOL0     H54639   3.371  10.190   1.417  0.5698 -2.0504 -0.8250
  414MOL0     H54640   3.586  10.059   1.361 -1.1023  3.1013 -2.2171
  414MOL0     H54641   3.603  10.236   1.394 -0.3202  2.2583  2.7441
  414MOL0     H54642   3.654  10.012   1.599 -3.2319  0.4556  0.5808
  414MOL0     H54643   3.689  10.182   1.606  0.0966  0.4589  0.2972
  414MOL0     H54644   3.826  10.030   1.382  2.0336  1.8870 -1.4992
  414MOL0     H54645   3.885  10.176   1.442 -3.2906  2.8314 -0.1960
  414MOL0     H54646   4.076   9.926   1.718 -1.1076  1.8043  1.2717
  414MOL0     H54647   3.242   9.834   1.628 -1.9688 -0.0597 -0.0823
  414MOL0     H54648   3.090   9.720   1.533 -0.3181  0.6977  1.2173
  415MOL0     O54649  10.049   5.907   2.580 -0.4986 -0.3835  0.1295
  415MOL0     C54650   9.957   5.863   2.511 -0.6973 -0.4600 -0.7479
  415MOL0     O54651   9.820   5.879   2.524  0.2729  0.2583  0.0816
  415MOL0     C54652   9.762   5.951   2.626  0.1881 -0.5673  0.3466
  415MOL0     C54653   9.640   5.905   2.681 -0.2672  0.8601 -1.1329
  415MOL0     C54654   9.572   5.981   2.778 -0.0297 -0.3096  0.8380
  415MOL0     C54655   9.621   6.114   2.807 -0.9505  0.7779  0.3941
  415MOL0     O54656   9.570   6.191   2.910 -0.1528 -0.1645  0.7789
  415MOL0     C54657   9.480   6.129   2.999 -0.4628 -0.6666  0.2249
  415MOL0     C54658   9.444   6.214   3.109  0.0355  0.7310  0.1307
  415MOL0     C54659   9.337   6.307   3.064  0.3617  0.2069 -0.2519
  415MOL0     C54660   9.286   6.390   3.171 -0.2325 -0.4704 -0.4487
  415MOL0     C54661   9.175   6.312   3.256  0.2112  0.3940 -0.6709
  415MOL0     C54662   9.037   6.316   3.182  0.3432  0.2522  0.6358
  415MOL0     C54663   8.920   6.258   3.274 -0.1117  0.2001  0.1567
  415MOL0     C54664   8.940   6.108   3.307 -0.8216 -0.6321 -1.2573
  415MOL0     N54665   8.879   6.020   3.205  0.0148 -0.9523  0.4990
  415MOL0     C54666   8.950   5.956   3.107  0.2793 -0.2095  0.0601
  415MOL0     C54667   8.860   5.944   3.007  0.7964  0.0252 -1.1431
  415MOL0     C54668   8.891   5.895   2.868  0.7624  0.2011 -0.9904
  415MOL0     C54669   9.028   5.833   2.848 -0.3168  0.1114 -0.3914
  415MOL0     C54670   9.053   5.789   2.713 -0.9762  0.7034  0.4868
  415MOL0     C54671   9.190   5.724   2.678 -0.2208 -0.3313  0.3653
  415MOL0     O54672   9.178   5.683   2.545  0.2509  0.4644  1.0136
  415MOL0     C54673   9.286   5.636   2.474  0.1702 -0.6856  0.1966
  415MOL0     C54674   9.258   5.601   2.343  0.5718  0.0120 -0.3811
  415MOL0     C54675   9.358   5.552   2.251 -0.7449  0.5134  0.7962
  415MOL0     C54676   9.488   5.542   2.303 -0.4467 -0.9352 -0.8678
  415MOL0     C54677   9.587   5.471   2.225 -0.3384  0.2151  0.5032
  415MOL0     O54678   9.634   5.361   2.282 -0.0913  0.1481  0.1970
  415MOL0     C54679   9.712   5.281   2.207 -0.4508 -0.2474  0.8821
  415MOL0     C54680   9.676   5.222   2.083  0.3704  0.5608  1.1521
  415MOL0     C54681   9.767   5.135   2.026 -1.2187 -0.4292  0.3558
  415MOL0     C54682   9.885   5.093   2.097 -0.4124 -0.2567  0.2779
  415MOL0     O54683   9.953   4.991   2.035  0.1075 -0.1147  1.0010
  415MOL0     C54684  10.076   4.938   2.089  0.7079 -0.5993 -0.6497
  415MOL0     C54685  10.160   4.879   1.972 -0.2917 -0.3010  0.1895
  415MOL0     C54686  10.112   4.745   1.931  0.7898 -0.6630 -0.2263
  415MOL0     C54687  10.216   4.702   1.822  0.9586  0.6966  0.3201
  415MOL0     C54688  10.327   4.624   1.891 -1.1231  0.7877  0.2397
  415MOL0     C54689  10.463   4.621   1.804  0.4483 -0.3559 -0.0996
  415MOL0     C54690  10.547   4.511   1.858 -0.7487  0.4867 -0.6670
  415MOL0     C54691  10.690   4.514   1.810 -0.1885 -0.1033  0.4603
  415MOL0    Cl54692  10.798   4.629   1.903 -0.3769 -0.2668  0.0197
  415MOL0     C54693   9.926   5.155   2.215  0.4123  0.3261  0.1144
  415MOL0     C54694   9.833   5.243   2.270  0.5588  0.0540 -0.1555
  415MOL0     O54695   9.617   5.515   2.118  0.1446  0.1740  0.0798
  415MOL0     C54696   9.517   5.580   2.430 -0.2791 -1.0711 -0.4238
  415MOL0     C54697   9.417   5.634   2.518 -0.5484 -0.6181  0.0819
  415MOL0     N54698   8.728   5.983   3.052  0.0912 -0.0927  0.6190
  415MOL0     N54699   8.750   6.024   3.170  0.4855 -0.9057 -0.1545
  415MOL0     C54700   9.735   6.159   2.746  0.0039 -0.4003  0.1278
  415MOL0     C54701   9.805   6.081   2.654 -0.2811 -0.1024 -0.7733
  415MOL0     C54702   9.992   5.788   2.384 -0.8136 -0.8066  0.0131
  415MOL0     C54703   9.889   5.726   2.308 -0.2907  0.9946  0.3536
  415MOL0     C54704   9.927   5.656   2.195  0.5155  0.3623 -0.1165
  415MOL0     C54705  10.063   5.635   2.153 -0.2990  0.3135  0.4577
  415MOL0     O54706  10.086   5.565   2.031 -0.2121  0.5553  0.7298
  415MOL0     C54707  10.032   5.430   2.022  0.1609  0.0978  0.1689
  415MOL0     C54708  10.134   5.341   1.961 -0.2974  0.0256 -0.1204
  415MOL0     C54709  10.157   5.363   1.814  0.3740  0.3466 -0.7988
  415MOL0     C54710  10.308   5.373   1.776 -0.8141  1.1452 -0.4769
  415MOL0     C54711  10.361   5.235   1.801 -0.0779  0.0281  0.3362
  415MOL0     C54712  10.401   5.120   1.799  0.5233  0.0309 -0.0307
  415MOL0     C54713  10.160   5.700   2.220  0.5132 -0.8670 -1.1059
  415MOL0     C54714  10.121   5.770   2.340 -0.2244  0.1051  0.0190
  415MOL0     H54715   9.611   5.805   2.652  3.3012 -1.4812  2.2381
  415MOL0     H54716   9.483   5.948   2.829  1.0224  0.1378  3.0973
  415MOL0     H54717   9.520   6.039   3.046  2.8193  1.4401  1.8377
  415MOL0     H54718   9.390   6.096   2.946 -1.2393  0.7611  0.6048
  415MOL0     H54719   9.525   6.271   3.157 -1.1633  0.3248  2.8191
  415MOL0     H54720   9.405   6.145   3.184  2.6941 -1.5371 -0.4064
  415MOL0     H54721   9.258   6.242   3.025  0.2419 -0.0704  0.4514
  415MOL0     H54722   9.365   6.380   2.987 -3.2795  1.9065 -0.1623
  415MOL0     H54723   9.372   6.414   3.233 -2.2769  2.6341  1.4710
  415MOL0     H54724   9.248   6.488   3.141  2.5856  1.2458  1.2117
  415MOL0     H54725   9.177   6.367   3.350  3.0568 -0.9467  0.1699
  415MOL0     H54726   9.208   6.209   3.269  1.8847  1.1621  1.8693
  415MOL0     H54727   9.043   6.260   3.088  0.5889 -0.0722  0.8448
  415MOL0     H54728   9.010   6.415   3.144  1.0718 -0.3614 -1.6867
  415MOL0     H54729   8.919   6.333   3.353  2.0049  2.6371 -1.9131
  415MOL0     H54730   8.824   6.268   3.223 -0.1811 -0.1966  0.2140
  415MOL0     H54731   8.883   6.081   3.396  0.8728  0.8275  0.3419
  415MOL0     H54732   9.047   6.095   3.319  0.0228  2.8790 -3.5399
  415MOL0     H54733   9.054   5.929   3.098 -0.0945 -2.1198  0.8603
  415MOL0     H54734   8.868   5.978   2.800 -2.1190  0.4013  0.1034
  415MOL0     H54735   8.826   5.810   2.845  0.8900  0.0967 -0.9607
  415MOL0     H54736   9.042   5.746   2.912 -2.4187  0.0560  0.0808
  415MOL0     H54737   9.095   5.911   2.882 -0.9884 -0.0409  1.3649
  415MOL0     H54738   8.979   5.712   2.689 -0.4237 -0.4449  2.2825
  415MOL0     H54739   9.040   5.873   2.644 -1.0184  0.1410 -0.1993
  415MOL0     H54740   9.218   5.641   2.744  2.1394  0.9103  1.0069
  415MOL0     H54741   9.257   5.810   2.677 -1.1432  0.4002  0.5823
  415MOL0     H54742   9.157   5.597   2.304  0.4983 -0.1347 -0.1798
  415MOL0     H54743   9.337   5.519   2.150 -0.4934 -2.8928  1.7291
  415MOL0     H54744   9.575   5.244   2.050  1.3876  1.2567 -1.7868
  415MOL0     H54745   9.739   5.085   1.934  4.3195  0.2277 -2.0645
  415MOL0     H54746  10.049   4.870   2.171 -1.0315  4.0653  3.1257
  415MOL0     H54747  10.152   5.008   2.124  0.4588 -0.7582  0.2365
  415MOL0     H54748  10.262   4.867   2.007 -1.2754 -1.1863  3.0432
  415MOL0     H54749  10.158   4.948   1.887 -1.7641  1.8611  1.8937
  415MOL0     H54750  10.017   4.752   1.877  1.2636  2.6799 -0.8519
  415MOL0     H54751  10.103   4.672   2.012 -2.5994  1.4739  1.5451
  415MOL0     H54752  10.174   4.630   1.751  0.9231  2.0268 -1.0476
  415MOL0     H54753  10.258   4.790   1.773  3.3375 -0.9851 -0.9099
  415MOL0     H54754  10.297   4.522   1.917  1.0764 -0.0248 -0.1915
  415MOL0     H54755  10.358   4.671   1.985  2.1287 -1.8524  0.6883
  415MOL0     H54756  10.511   4.720   1.807  1.4219 -0.8415  0.8792
  415MOL0     H54757  10.450   4.611   1.696  2.8038  2.3258 -0.7511
  415MOL0     H54758  10.545   4.511   1.968 -0.1458 -0.4339 -0.6419
  415MOL0     H54759  10.506   4.417   1.819 -2.0055  0.4708  0.5856
  415MOL0     H54760  10.699   4.540   1.704  0.7539  1.3694  0.8666
  415MOL0     H54761  10.731   4.413   1.816 -1.3427 -0.5785  0.5576
  415MOL0     H54762  10.016   5.118   2.262  0.9555 -0.2389 -1.3027
  415MOL0     H54763   9.844   5.271   2.374 -0.7472  0.4125 -0.1035
  415MOL0     H54764   9.619   5.570   2.466 -0.0499 -1.2984 -1.1261
  415MOL0     H54765   9.455   5.664   2.616  0.2687 -0.2969 -0.3214
  415MOL0     H54766   9.771   6.258   2.769 -0.2856 -0.7189  2.1146
  415MOL0     H54767   9.892   6.118   2.602 -0.9852  0.7616 -1.3593
  415MOL0     H54768   9.784   5.724   2.335  0.0120  1.6736  1.6631
  415MOL0     H54769   9.846   5.604   2.144  0.2098 -1.2883  1.9185
  415MOL0     H54770   9.945   5.426   1.956  0.4587  0.2487 -0.2396
  415MOL0     H54771   9.996   5.393   2.118 -0.0691  2.4510  1.0650
  415MOL0     H54772  10.225   5.354   2.020 -1.3613 -3.6637  2.7619
  415MOL0     H54773  10.115   5.233   1.965  0.5043 -0.3981 -3.7032
  415MOL0     H54774  10.123   5.463   1.785  1.6957  1.0521 -0.0347
  415MOL0     H54775  10.101   5.293   1.752 -2.2879  1.6962 -0.0951
  415MOL0     H54776  10.322   5.391   1.669  1.3251  0.1827 -0.4184
  415MOL0     H54777  10.374   5.448   1.820 -1.4665  0.9773  0.8405
  415MOL0     H54778  10.415   5.014   1.797 -0.0843 -0.1146  1.7236
  415MOL0     H54779  10.267   5.698   2.200  0.7963  1.0826 -0.0381
  415MOL0     H54780  10.203   5.827   2.383  1.2905 -1.2289 -0.9838
  416MOL0     O54781   6.400   0.614   6.357 -0.9557 -0.5760  0.6679
  416MOL0     C54782   6.292   0.588   6.316 -0.1893 -1.1487  0.3994
  416MOL0     O54783   6.251   0.536   6.192 -0.2247  0.4960 -0.3476
  416MOL0     C54784   6.338   0.503   6.088 -0.2662 -0.4976  0.4756
  416MOL0     C54785   6.274   0.455   5.970  0.5533 -0.3696 -1.0014
  416MOL0     C54786   6.350   0.407   5.869  0.6519 -0.2507 -1.3201
  416MOL0     C54787   6.493   0.417   5.870 -0.0802 -0.3387 -0.1888
  416MOL0     O54788   6.553   0.381   5.751 -0.6359 -0.7218 -0.0710
  416MOL0     C54789   6.678   0.458   5.715  0.4695  0.2952 -0.4706
  416MOL0     C54790   6.746   0.406   5.582 -0.4403 -0.4320  0.0541
  416MOL0     C54791   6.892   0.461   5.577 -0.5876 -0.6460  0.0143
  416MOL0     C54792   6.983   0.396   5.472  0.3408 -0.6899  0.8177
  416MOL0     C54793   7.115   0.461   5.483  0.1990 -0.4285  0.5728
  416MOL0     C54794   7.201   0.406   5.371 -0.1284 -0.9425  0.3098
  416MOL0     C54795   7.337   0.468   5.371 -0.6641 -0.2659  0.3792
  416MOL0     C54796   7.353   0.604   5.310 -0.3079 -0.0483  0.2395
  416MOL0     N54797   7.334   0.606   5.165 -0.1894 -0.1572 -0.0802
  416MOL0     C54798   7.209   0.627   5.106 -0.1126 -1.1851 -0.9426
  416MOL0     C54799   7.242   0.587   4.978  0.2095 -0.4304 -0.9577
  416MOL0     C54800   7.143   0.550   4.874  0.3979 -1.2038 -0.2456
  416MOL0     C54801   7.033   0.653   4.848  0.7966 -0.1321 -0.4895
  416MOL0     C54802   6.919   0.613   4.758  0.2910  0.1364 -0.4424
  416MOL0     C54803   6.952   0.623   4.611  0.1406  0.5723  0.1946
  416MOL0     O54804   6.828   0.630   4.536  0.4907 -0.3597  0.1053
  416MOL0     C54805   6.718   0.541   4.546 -0.8474 -0.0334 -0.2558
  416MOL0     C54806   6.592   0.595   4.504  0.8899  0.7362  0.4248
  416MOL0     C54807   6.479   0.515   4.517 -0.3248 -0.3792 -0.3125
  416MOL0     C54808   6.486   0.382   4.564  0.2675 -0.5130  0.6477
  416MOL0     C54809   6.365   0.287   4.544 -1.1059  0.3710  0.3559
  416MOL0     O54810   6.395   0.155   4.561 -0.5227  0.4386  0.4430
  416MOL0     C54811   6.291   0.072   4.531 -0.2526  0.2606  0.5342
  416MOL0     C54812   6.184   0.069   4.622 -0.4515 -0.2820 -0.0133
  416MOL0     C54813   6.072  -0.014   4.607  0.9547 -0.9011  1.2203
  416MOL0     C54814   6.071  -0.104   4.497  0.4856  0.4304  0.1300
  416MOL0     O54815   5.960  -0.185   4.464  0.2631 -0.0512 -0.2684
  416MOL0     C54816   5.858  -0.197   4.564  0.3193 -0.3036  0.2888
  416MOL0     C54817   5.770  -0.321   4.534  1.2186 -0.3484  0.4278
  416MOL0     C54818   5.630  -0.309   4.609  0.6742 -0.3986  0.1802
  416MOL0     C54819   5.573  -0.455   4.619 -0.1491 -0.0725  0.1670
  416MOL0     C54820   5.506  -0.502   4.486  0.4427 -0.2942 -0.3798
  416MOL0     C54821   5.463  -0.658   4.501 -0.8881 -0.1607  0.3406
  416MOL0     C54822   5.372  -0.697   4.396 -0.5648 -0.0359  0.0158
  416MOL0     C54823   5.296  -0.834   4.415  0.6796  0.3452 -0.4449
  416MOL0    Cl54824   5.408  -0.956   4.483 -0.1290 -0.2804 -0.5423
  416MOL0     C54825   6.184  -0.106   4.415 -0.2981 -0.6250  0.3954
  416MOL0     C54826   6.292  -0.019   4.426  1.1014  0.1227 -0.7466
  416MOL0     O54827   6.259   0.334   4.514  0.6327 -1.0719  0.2621
  416MOL0     C54828   6.613   0.325   4.578 -0.5090  0.5164 -0.9402
  416MOL0     C54829   6.728   0.406   4.582  0.3550 -0.1733 -0.0709
  416MOL0     N54830   7.373   0.547   4.969 -0.1028  0.0172 -0.0734
  416MOL0     N54831   7.432   0.574   5.074 -0.0390  0.6015 -0.4959
  416MOL0     C54832   6.560   0.474   5.979 -0.1347  0.0507  0.6172
  416MOL0     C54833   6.478   0.523   6.082 -0.5744  0.1089 -0.5983
  416MOL0     C54834   6.191   0.617   6.416  0.4095 -0.3443  0.1043
  416MOL0     C54835   6.218   0.672   6.538 -0.5596 -0.0061 -0.0493
  416MOL0     C54836   6.119   0.698   6.629  0.3135 -0.7292 -0.1645
  416MOL0     C54837   5.989   0.690   6.587 -0.1899  0.8852 -0.5784
  416MOL0     O54838   5.882   0.736   6.656  0.0571  0.7228 -0.0252
  416MOL0     C54839   5.888   0.874   6.681 -0.6147 -1.2890  0.0842
  416MOL0     C54840   5.809   0.903   6.808  0.7103 -0.1992  0.3080
  416MOL0     C54841   5.670   0.849   6.799 -0.3704 -0.0320  0.4368
  416MOL0     C54842   5.561   0.937   6.739 -0.7314  0.0578 -0.4513
  416MOL0     C54843   5.578   0.946   6.593 -0.0830  0.5532 -0.8783
  416MOL0     C54844   5.572   0.955   6.471  0.1368 -0.3980  0.4048
  416MOL0     C54845   5.956   0.627   6.468 -0.3371  0.5559  0.3295
  416MOL0     C54846   6.060   0.582   6.387  1.1017  0.1467  0.1162
  416MOL0     H54847   6.166   0.463   5.968  0.0967 -0.9933  4.6938
  416MOL0     H54848   6.306   0.398   5.770 -2.0184 -1.4473 -0.1266
  416MOL0     H54849   6.757   0.436   5.787  1.1600  1.1230 -0.9568
  416MOL0     H54850   6.652   0.564   5.714 -1.2676 -0.0832 -2.2781
  416MOL0     H54851   6.673   0.426   5.503 -1.1604  1.4192  1.1079
  416MOL0     H54852   6.742   0.298   5.598  0.8751 -0.7361 -1.4477
  416MOL0     H54853   6.946   0.450   5.671 -1.8767 -0.5542  0.7952
  416MOL0     H54854   6.890   0.569   5.559  3.9859  0.0571  2.2807
  416MOL0     H54855   6.993   0.292   5.504  1.7629  0.0594  3.0791
  416MOL0     H54856   6.942   0.404   5.371 -2.9983  1.2682  2.1215
  416MOL0     H54857   7.156   0.450   5.584  0.1863  2.8022  1.0654
  416MOL0     H54858   7.096   0.568   5.465  0.3659 -0.2174  1.5693
  416MOL0     H54859   7.158   0.413   5.271 -1.3811 -0.2791  0.8595
  416MOL0     H54860   7.213   0.300   5.392 -0.0623 -1.0679 -0.3512
  416MOL0     H54861   7.383   0.476   5.470  1.9215 -0.7989 -0.7062
  416MOL0     H54862   7.399   0.393   5.322 -1.5082 -2.9296  3.0838
  416MOL0     H54863   7.457   0.635   5.325  0.2447 -1.0744 -1.1850
  416MOL0     H54864   7.293   0.677   5.365 -1.3895  1.2501 -2.4348
  416MOL0     H54865   7.114   0.660   5.147  0.6293 -1.0296  0.7142
  416MOL0     H54866   7.097   0.450   4.876 -1.2136 -0.5491 -1.8340
  416MOL0     H54867   7.212   0.562   4.791  1.6144  3.9312  1.1817
  416MOL0     H54868   7.080   0.742   4.804  1.3708 -0.4165 -0.4629
  416MOL0     H54869   6.989   0.676   4.945  1.5844  0.5192 -0.2720
  416MOL0     H54870   6.893   0.511   4.789  0.1920  0.6645  1.2915
  416MOL0     H54871   6.834   0.678   4.781  0.1070 -0.9955  2.5505
  416MOL0     H54872   7.001   0.532   4.575 -2.1880 -1.6902  2.3348
  416MOL0     H54873   7.015   0.710   4.596  0.8792  0.3235  1.6832
  416MOL0     H54874   6.582   0.695   4.463  0.0222  0.4280 -0.1512
  416MOL0     H54875   6.385   0.567   4.498  1.0265  2.5749  0.5721
  416MOL0     H54876   6.188   0.139   4.705 -2.0323 -0.3440  0.1601
  416MOL0     H54877   5.994   0.005   4.680  0.6200  2.3580  0.1791
  416MOL0     H54878   5.804  -0.102   4.567 -1.3319 -1.2398  2.9041
  416MOL0     H54879   5.900  -0.213   4.664 -0.8088  1.3439  1.0633
  416MOL0     H54880   5.835  -0.404   4.563 -2.0791 -3.3544 -0.0087
  416MOL0     H54881   5.746  -0.333   4.428 -1.3832  3.9891  0.2958
  416MOL0     H54882   5.557  -0.246   4.559  2.4639  1.5322 -0.1371
  416MOL0     H54883   5.648  -0.281   4.713  0.2569  1.7848 -0.2894
  416MOL0     H54884   5.644  -0.532   4.651  0.6366  1.1062  1.3766
  416MOL0     H54885   5.500  -0.454   4.701  1.6641 -4.2265  2.1428
  416MOL0     H54886   5.569  -0.481   4.400  0.1733  1.5208 -0.1767
  416MOL0     H54887   5.422  -0.432   4.478  0.4955 -0.2839 -0.8342
  416MOL0     H54888   5.410  -0.683   4.594 -2.6230 -0.4031 -0.6620
  416MOL0     H54889   5.549  -0.726   4.498 -0.8453 -0.0994  0.1367
  416MOL0     H54890   5.291  -0.631   4.363 -0.3020 -1.7248 -4.7542
  416MOL0     H54891   5.433  -0.701   4.305 -1.0794  1.2904 -0.4227
  416MOL0     H54892   5.260  -0.871   4.319 -0.0539 -1.2552  0.4103
  416MOL0     H54893   5.207  -0.824   4.477  0.2071  5.6272 -1.5354
  416MOL0     H54894   6.190  -0.177   4.334 -4.1522 -1.4453  0.6441
  416MOL0     H54895   6.369  -0.006   4.350  1.0353  3.5761 -0.3718
  416MOL0     H54896   6.615   0.218   4.593  0.3255  0.0141 -3.9229
  416MOL0     H54897   6.823   0.359   4.608 -0.9086 -1.8053  1.9239
  416MOL0     H54898   6.668   0.477   5.980  0.0019 -0.7549 -2.2566
  416MOL0     H54899   6.539   0.574   6.155  1.0620  0.0646 -1.8876
  416MOL0     H54900   6.317   0.697   6.574 -0.5070  0.9428 -0.8187
  416MOL0     H54901   6.138   0.751   6.722  0.6635  1.0972 -1.2236
  416MOL0     H54902   5.847   0.932   6.598 -0.8366  0.4981  1.3864
  416MOL0     H54903   5.987   0.918   6.696 -1.6726  1.2317  0.1558
  416MOL0     H54904   5.867   0.860   6.890  4.3843 -0.8296 -2.3326
  416MOL0     H54905   5.800   1.011   6.816  3.6243  0.2253 -0.6529
  416MOL0     H54906   5.636   0.837   6.902  2.4147  0.8699  1.5735
  416MOL0     H54907   5.672   0.753   6.746  0.1515 -0.4194  1.1438
  416MOL0     H54908   5.461   0.891   6.737  0.1800 -2.0406 -0.9067
  416MOL0     H54909   5.562   1.042   6.768  2.8184  0.2652 -0.9464
  416MOL0     H54910   5.569   0.976   6.366 -1.6606  0.2809  0.5501
  416MOL0     H54911   5.856   0.640   6.426 -0.3885  3.7545  1.2033
  416MOL0     H54912   6.026   0.547   6.290 -0.4399  1.4475  0.1221
  417MOL0     O54913   8.424   2.079   3.153  0.2166 -0.0585  1.0221
  417MOL0     C54914   8.495   2.010   3.220  0.1374 -0.9067 -0.8026
  417MOL0     O54915   8.456   1.903   3.295 -0.2392 -0.8583  0.8316
  417MOL0     C54916   8.340   1.843   3.258  0.6777 -0.8128  0.0872
  417MOL0     C54917   8.209   1.889   3.293  0.3796  0.0042  0.3395
  417MOL0     C54918   8.097   1.817   3.262 -0.3739  0.5386  0.2919
  417MOL0     C54919   8.110   1.693   3.191  0.3835  0.3616 -0.7667
  417MOL0     O54920   8.003   1.603   3.164  0.8334  0.3454  0.6966
  417MOL0     C54921   7.877   1.612   3.241 -0.6583  0.0906 -0.3416
  417MOL0     C54922   7.789   1.506   3.178  0.0222 -0.1408 -0.2542
  417MOL0     C54923   7.641   1.521   3.218 -0.2111 -0.0585 -0.0295
  417MOL0     C54924   7.558   1.397   3.183 -0.2048  0.9916 -0.9687
  417MOL0     C54925   7.415   1.434   3.168  0.8602  0.3487  0.6825
  417MOL0     C54926   7.323   1.316   3.173  0.6640  0.7558  0.7520
  417MOL0     C54927   7.175   1.343   3.122  0.4635  0.3682  0.0078
  417MOL0     C54928   7.093   1.218   3.138  0.5022  0.4396  0.2565
  417MOL0     N54929   6.959   1.231   3.091  0.4688 -0.0841  0.1535
  417MOL0     C54930   6.874   1.321   3.145  0.4100  0.1424  0.1570
  417MOL0     C54931   6.757   1.316   3.077 -0.0725  0.6477 -0.3185
  417MOL0     C54932   6.623   1.390   3.102  0.1371  0.6579  0.4701
  417MOL0     C54933   6.502   1.331   3.033  0.1773  0.3226 -0.1110
  417MOL0     C54934   6.368   1.393   3.079 -0.0109 -0.9466 -0.2494
  417MOL0     C54935   6.251   1.303   3.032 -1.1054  0.9623 -0.5738
  417MOL0     O54936   6.146   1.322   3.109 -0.0901 -0.6502 -0.2454
  417MOL0     C54937   6.023   1.279   3.051  0.6053 -0.5195  0.1355
  417MOL0     C54938   5.913   1.336   3.111  0.6434 -0.7183 -0.6892
  417MOL0     C54939   5.776   1.321   3.048 -0.3605  0.2514  0.1273
  417MOL0     C54940   5.756   1.255   2.929 -0.5767  0.6679 -0.0165
  417MOL0     C54941   5.626   1.251   2.860  0.9387 -0.1884 -0.4199
  417MOL0     O54942   5.626   1.214   2.725  0.5347  0.5590 -0.2977
  417MOL0     C54943   5.504   1.223   2.658  0.5399  0.7200  0.4294
  417MOL0     C54944   5.453   1.102   2.605 -0.1185 -0.4469 -0.8815
  417MOL0     C54945   5.333   1.101   2.536  0.0667 -0.3093 -0.1426
  417MOL0     C54946   5.268   1.225   2.510  0.1129  0.8509  0.6637
  417MOL0     O54947   5.172   1.223   2.413  0.0519 -0.0260  0.9381
  417MOL0     C54948   5.039   1.221   2.454  0.2232 -0.6076 -0.4569
  417MOL0     C54949   4.954   1.326   2.378  0.8221 -0.9135  0.8854
  417MOL0     C54950   4.965   1.315   2.225  0.1929  0.2792 -0.1897
  417MOL0     C54951   4.850   1.382   2.152 -0.4112 -0.6826  0.2630
  417MOL0     C54952   4.720   1.308   2.167 -0.0321  0.6013 -0.1998
  417MOL0     C54953   4.644   1.337   2.037 -0.1526 -0.3314  0.1520
  417MOL0     C54954   4.499   1.303   2.051  0.1475  0.0632  0.2383
  417MOL0     C54955   4.425   1.323   1.913  0.3063  0.4015 -0.2706
  417MOL0    Cl54956   4.247   1.339   1.929 -0.1329  0.0184  0.1264
  417MOL0     C54957   5.317   1.342   2.564  0.1227  0.3993 -0.6444
  417MOL0     C54958   5.433   1.340   2.640 -0.5347  0.5626  0.5919
  417MOL0     O54959   5.525   1.276   2.935  0.2903 -0.7172 -0.3379
  417MOL0     C54960   5.880   1.209   2.864 -0.1763 -0.1806  0.5417
  417MOL0     C54961   6.005   1.212   2.923  0.0351 -0.5895 -0.1184
  417MOL0     N54962   6.780   1.210   2.991  0.1658  0.2976 -0.2918
  417MOL0     N54963   6.901   1.172   2.993  0.2447  0.5678  0.0544
  417MOL0     C54964   8.229   1.648   3.151 -0.9031  0.3038 -0.1845
  417MOL0     C54965   8.339   1.729   3.184 -0.2129  0.3568  0.4650
  417MOL0     C54966   8.638   2.046   3.222  0.2131  0.6005  0.7437
  417MOL0     C54967   8.690   2.153   3.138  0.2153  0.5071  0.3010
  417MOL0     C54968   8.824   2.184   3.156 -1.0020  0.0081 -0.0683
  417MOL0     C54969   8.909   2.119   3.236 -0.5099  0.9114  0.8135
  417MOL0     O54970   9.040   2.156   3.230  0.3415 -0.6755  0.6675
  417MOL0     C54971   9.147   2.067   3.255  0.1208  0.4727  0.5575
  417MOL0     C54972   9.270   2.139   3.199 -0.4442 -0.2258 -0.7284
  417MOL0     C54973   9.327   2.244   3.298 -0.0650 -0.1944  0.9559
  417MOL0     C54974   9.471   2.272   3.247 -0.0770 -0.7266 -0.0389
  417MOL0     C54975   9.470   2.343   3.121  0.5918 -1.0322  0.0161
  417MOL0     C54976   9.439   2.405   3.017 -0.3203 -0.2739 -0.2887
  417MOL0     C54977   8.857   2.015   3.309 -0.3471 -0.0345  0.1674
  417MOL0     C54978   8.720   1.970   3.296  0.0683  0.0160 -0.1411
  417MOL0     H54979   8.192   1.977   3.355  1.6007 -1.0122  2.2230
  417MOL0     H54980   7.997   1.853   3.282 -0.0279  3.1526 -2.0097
  417MOL0     H54981   7.823   1.707   3.232  0.7729  0.8610 -1.1146
  417MOL0     H54982   7.891   1.593   3.348  0.1011  1.9672 -0.0623
  417MOL0     H54983   7.835   1.419   3.226  2.9989  0.3785 -1.8813
  417MOL0     H54984   7.802   1.505   3.070 -0.7634 -1.6747 -0.3631
  417MOL0     H54985   7.603   1.593   3.144 -0.5704 -2.6441 -2.5415
  417MOL0     H54986   7.612   1.562   3.315 -2.0859  1.1227 -1.0344
  417MOL0     H54987   7.585   1.366   3.082  2.5505 -0.9520  0.2208
  417MOL0     H54988   7.581   1.317   3.254  0.9100  0.5261 -1.8322
  417MOL0     H54989   7.420   1.478   3.068  1.8543 -1.9234 -0.3353
  417MOL0     H54990   7.388   1.512   3.240 -0.8580  0.9229 -0.5340
  417MOL0     H54991   7.334   1.285   3.278  3.5604 -1.5213 -0.0748
  417MOL0     H54992   7.358   1.224   3.125 -2.6823  0.4345 -1.3564
  417MOL0     H54993   7.126   1.415   3.188 -2.1860 -1.4495  0.1756
  417MOL0     H54994   7.172   1.374   3.017  0.5572  0.5476  0.0583
  417MOL0     H54995   7.093   1.182   3.241  2.8480  2.4030  1.0405
  417MOL0     H54996   7.149   1.146   3.076 -0.9652 -1.2491  0.8177
  417MOL0     H54997   6.887   1.389   3.228 -1.5481 -0.8515  1.3680
  417MOL0     H54998   6.637   1.492   3.067 -1.8909  0.8524  0.1192
  417MOL0     H54999   6.603   1.390   3.210  0.8397 -3.0526  0.7399
  417MOL0     H55000   6.505   1.223   3.053 -0.3248  0.2233 -0.5411
  417MOL0     H55001   6.519   1.335   2.925  1.8995 -2.4626 -0.0609
  417MOL0     H55002   6.373   1.379   3.187  0.9926  0.2158 -0.1272
  417MOL0     H55003   6.369   1.499   3.051 -0.6519 -0.8409  0.1183
  417MOL0     H55004   6.270   1.196   3.041 -0.6477  1.0878  0.0319
  417MOL0     H55005   6.234   1.323   2.926 -0.6394  1.1326 -0.6169
  417MOL0     H55006   5.932   1.379   3.209  0.0367 -1.0836 -0.4001
  417MOL0     H55007   5.695   1.373   3.097 -1.3548  1.0141 -2.2121
  417MOL0     H55008   5.514   1.012   2.603  1.0703  0.3691 -1.8978
  417MOL0     H55009   5.289   1.011   2.494  0.5071  0.1085 -1.5620
  417MOL0     H55010   5.036   1.227   2.563  0.2070 -2.6598 -0.3129
  417MOL0     H55011   4.996   1.123   2.432 -0.6729 -0.4584  0.6011
  417MOL0     H55012   4.988   1.426   2.408 -2.8214  1.1379 -1.1312
  417MOL0     H55013   4.849   1.313   2.405  0.8849 -2.5385  0.4939
  417MOL0     H55014   4.959   1.208   2.203  2.3358  0.6398 -3.2006
  417MOL0     H55015   5.062   1.357   2.198  0.3329  1.0670  1.4655
  417MOL0     H55016   4.842   1.484   2.192 -0.7466 -1.1399  1.3997
  417MOL0     H55017   4.883   1.388   2.048  4.1749  0.3816  1.5593
  417MOL0     H55018   4.671   1.329   2.263  1.2098 -0.6455  0.7448
  417MOL0     H55019   4.732   1.200   2.152  1.3988  0.6153  0.6890
  417MOL0     H55020   4.681   1.291   1.945  0.0246  0.7613 -0.3433
  417MOL0     H55021   4.645   1.444   2.012 -1.5675 -0.8756 -2.5563
  417MOL0     H55022   4.478   1.206   2.097 -0.7603 -0.1351 -0.5505
  417MOL0     H55023   4.460   1.377   2.122 -3.0911 -0.6141 -0.6471
  417MOL0     H55024   4.459   1.237   1.855 -0.0460 -0.7171  1.1124
  417MOL0     H55025   4.463   1.420   1.881 -1.1329  1.6408  1.5348
  417MOL0     H55026   5.267   1.432   2.529  1.1980  0.8786 -1.0109
  417MOL0     H55027   5.469   1.436   2.675 -0.9717  0.7903  0.4304
  417MOL0     H55028   5.872   1.168   2.764 -1.4122 -1.5524  1.1480
  417MOL0     H55029   6.089   1.176   2.864 -0.3693 -0.5540 -0.7369
  417MOL0     H55030   8.243   1.558   3.092 -2.5278  0.1119 -0.3334
  417MOL0     H55031   8.432   1.680   3.154 -1.2829 -0.0432 -2.5284
  417MOL0     H55032   8.625   2.204   3.068 -3.5189 -0.9502  2.4430
  417MOL0     H55033   8.862   2.265   3.095 -0.9077 -0.6648 -0.9310
  417MOL0     H55034   9.126   1.976   3.198  0.1560  0.3593  0.7247
  417MOL0     H55035   9.151   2.038   3.361 -1.7784 -1.3425  0.2035
  417MOL0     H55036   9.349   2.065   3.179  2.0624  1.6346  1.5529
  417MOL0     H55037   9.254   2.173   3.096  1.9591 -1.6862 -1.6859
  417MOL0     H55038   9.333   2.196   3.397  1.7566  0.1638  1.0520
  417MOL0     H55039   9.277   2.341   3.309 -0.1280  0.4364 -3.2662
  417MOL0     H55040   9.516   2.332   3.327 -0.2485  0.0419 -0.5163
  417MOL0     H55041   9.532   2.183   3.226  0.5147 -1.3968  3.7736
  417MOL0     H55042   9.401   2.438   2.922  0.9329 -3.8194 -2.2099
  417MOL0     H55043   8.920   1.966   3.382 -0.4614  1.1941  1.1166
  417MOL0     H55044   8.687   1.875   3.335 -3.6857  0.3976 -1.9069
  418MOL0     O55045   9.018   2.159   2.123  0.1177 -0.3493 -0.6238
  418MOL0     C55046   9.010   2.043   2.092 -0.0561 -0.3853  0.1974
  418MOL0     O55047   8.894   1.966   2.075  0.3453 -0.1487  0.1940
  418MOL0     C55048   8.767   2.006   2.117  0.6969 -0.9117  0.5223
  418MOL0     C55049   8.656   1.935   2.064  0.1593  0.2945  0.0896
  418MOL0     C55050   8.532   1.956   2.106 -0.1179  0.8675 -0.4330
  418MOL0     C55051   8.514   2.053   2.214  0.0071 -0.4479  0.0568
  418MOL0     O55052   8.407   2.089   2.289  0.2848 -0.0359 -0.9533
  418MOL0     C55053   8.282   2.042   2.247  0.6424  0.7453 -0.1084
  418MOL0     C55054   8.190   2.115   2.346 -0.2104  0.2187 -0.1666
  418MOL0     C55055   8.056   2.060   2.313  0.5185  0.4991  0.5346
  418MOL0     C55056   7.964   2.123   2.415  0.5509  0.4120 -0.3488
  418MOL0     C55057   7.834   2.052   2.406 -0.6242 -0.2311  0.3289
  418MOL0     C55058   7.728   2.101   2.494  0.1223 -0.5977 -1.2984
  418MOL0     C55059   7.595   2.065   2.431 -0.0419  1.6273  0.4072
  418MOL0     C55060   7.490   2.132   2.518  0.6943 -0.0098  0.5204
  418MOL0     N55061   7.370   2.067   2.474 -0.0409 -0.3354 -0.3901
  418MOL0     C55062   7.286   2.116   2.385 -0.1626 -0.0841  0.4550
  418MOL0     C55063   7.201   2.019   2.348  0.0161  1.0324  0.3480
  418MOL0     C55064   7.108   2.032   2.232  0.2128 -0.0803  0.3712
  418MOL0     C55065   6.969   1.974   2.257 -0.5451 -0.6721 -0.4267
  418MOL0     C55066   6.872   2.045   2.168 -0.6812 -1.1764  0.3446
  418MOL0     C55067   6.728   2.020   2.200  0.4966  0.2254 -0.1706
  418MOL0     O55068   6.650   2.086   2.099  0.7170  0.5185  0.1777
  418MOL0     C55069   6.514   2.087   2.100  0.6668  0.4424  1.9221
  418MOL0     C55070   6.449   2.190   2.164 -0.5258  0.6869  0.7473
  418MOL0     C55071   6.313   2.218   2.136  0.4282  0.9891  0.0642
  418MOL0     C55072   6.236   2.133   2.050 -0.5156  0.0160  0.4444
  418MOL0     C55073   6.097   2.154   2.019  0.3014 -0.1171  0.7431
  418MOL0     O55074   6.045   2.272   2.065 -0.6607 -0.2854  0.5035
  418MOL0     C55075   5.929   2.328   2.017  0.5215 -0.2604  0.2048
  418MOL0     C55076   5.857   2.414   2.100 -0.5809 -0.1844 -0.4848
  418MOL0     C55077   5.742   2.480   2.063 -0.4513 -0.0353 -0.0323
  418MOL0     C55078   5.699   2.464   1.933 -0.2947  0.3870  0.6450
  418MOL0     O55079   5.587   2.532   1.889  0.4471  0.6300  0.1427
  418MOL0     C55080   5.561   2.574   1.748 -0.5433  0.6215 -0.2370
  418MOL0     C55081   5.427   2.648   1.736 -0.2163  0.0527  0.5904
  418MOL0     C55082   5.305   2.562   1.767 -0.2109  0.1596  0.8581
  418MOL0     C55083   5.261   2.458   1.657  0.3970 -0.4286  0.6525
  418MOL0     C55084   5.246   2.526   1.516 -0.4041  0.0368  0.2464
  418MOL0     C55085   5.165   2.647   1.501  0.5040  0.0765 -0.0240
  418MOL0     C55086   5.012   2.616   1.525  0.1408 -0.0327  0.3790
  418MOL0     C55087   4.921   2.725   1.455  0.7243 -0.5585  0.0903
  418MOL0    Cl55088   4.841   2.845   1.558 -0.4253  0.5912 -0.1880
  418MOL0     C55089   5.784   2.395   1.843  0.0694  0.3138  0.3754
  418MOL0     C55090   5.894   2.318   1.883 -0.2224  0.3675 -0.5178
  418MOL0     O55091   6.048   2.078   1.937 -0.5242 -0.4885 -0.2275
  418MOL0     C55092   6.302   2.022   1.999  0.1762 -0.7725 -0.1111
  418MOL0     C55093   6.434   2.005   2.021 -0.8054  0.0405  0.9760
  418MOL0     N55094   7.235   1.910   2.421 -0.5608 -0.0953 -0.4762
  418MOL0     N55095   7.341   1.933   2.496 -0.4821 -0.8650 -0.0422
  418MOL0     C55096   8.618   2.128   2.263 -0.3229  0.5492 -0.1162
  418MOL0     C55097   8.750   2.105   2.218  0.1665  0.1915 -0.3884
  418MOL0     C55098   9.134   1.981   2.036  0.2801  0.8674 -0.0073
  418MOL0     C55099   9.249   2.049   2.045  0.0625 -0.4270  0.0056
  418MOL0     C55100   9.366   1.980   2.019 -0.5416 -0.4158 -0.8195
  418MOL0     C55101   9.374   1.844   1.980  0.5459 -0.0349 -0.2888
  418MOL0     O55102   9.495   1.788   1.971  0.1152  0.0174 -0.5006
  418MOL0     C55103   9.524   1.681   1.873  0.7108 -0.0598  0.0609
  418MOL0     C55104   9.667   1.637   1.907 -0.4988  0.0245 -0.1956
  418MOL0     C55105   9.726   1.508   1.829 -0.4933 -0.1181 -0.0449
  418MOL0     C55106   9.860   1.449   1.892 -0.7457  0.4997  0.9437
  418MOL0     C55107   9.973   1.538   1.881 -0.6321  0.1222  0.7926
  418MOL0     C55108  10.066   1.621   1.869  0.3777  0.2189  0.5732
  418MOL0     C55109   9.247   1.791   1.955 -0.1348 -0.6277  0.3646
  418MOL0     C55110   9.132   1.854   1.982 -0.3555 -1.0862 -0.0560
  418MOL0     H55111   8.663   1.855   1.991 -1.8074 -1.0095  1.2357
  418MOL0     H55112   8.450   1.896   2.069  1.7718 -3.8991  2.1164
  418MOL0     H55113   8.274   1.935   2.269  1.7166  0.1103 -2.4679
  418MOL0     H55114   8.266   2.067   2.142  0.9586 -0.5404 -0.4729
  418MOL0     H55115   8.198   2.224   2.348 -0.5607  0.3179  4.1131
  418MOL0     H55116   8.208   2.084   2.449 -0.8686  2.2784  0.6270
  418MOL0     H55117   8.067   1.954   2.335 -0.7327 -0.1054 -1.5007
  418MOL0     H55118   8.004   2.087   2.220  1.3446  2.5420  0.6020
  418MOL0     H55119   8.003   2.100   2.515 -0.9986 -0.5392  0.0767
  418MOL0     H55120   7.961   2.232   2.402  1.6046  0.1252 -4.3929
  418MOL0     H55121   7.849   1.945   2.420  2.6444  0.4980  4.1505
  418MOL0     H55122   7.803   2.050   2.301  2.1129  2.5790 -0.6839
  418MOL0     H55123   7.740   2.208   2.510  3.1637 -0.8383 -1.4314
  418MOL0     H55124   7.736   2.044   2.587  0.8645 -2.2291 -2.3134
  418MOL0     H55125   7.594   2.105   2.329  1.5219  0.4579 -0.1257
  418MOL0     H55126   7.580   1.957   2.417  0.1877  2.0076 -4.5026
  418MOL0     H55127   7.480   2.238   2.492  1.4555  0.4090  1.8276
  418MOL0     H55128   7.513   2.118   2.624 -0.9366 -2.3015  0.6466
  418MOL0     H55129   7.298   2.216   2.345  0.0307 -0.2710  0.0427
  418MOL0     H55130   7.153   1.978   2.149 -0.6984  0.3714 -0.4339
  418MOL0     H55131   7.093   2.139   2.219 -2.0965 -0.0716  2.2758
  418MOL0     H55132   6.948   1.971   2.364  0.7200 -2.4807 -0.1788
  418MOL0     H55133   6.982   1.871   2.222 -0.4084  0.0036 -2.4754
  418MOL0     H55134   6.879   2.154   2.178 -5.1381 -0.6745 -0.1040
  418MOL0     H55135   6.883   2.025   2.061 -1.1227  0.7799 -0.1121
  418MOL0     H55136   6.696   2.057   2.298 -0.3930  1.7371 -0.9844
  418MOL0     H55137   6.704   1.914   2.210  0.4818  0.2148 -0.3197
  418MOL0     H55138   6.511   2.262   2.216 -0.3453  1.9245 -1.1021
  418MOL0     H55139   6.255   2.291   2.191 -0.9541  0.1692 -0.2679
  418MOL0     H55140   5.885   2.448   2.199  2.4211  0.8885 -1.5843
  418MOL0     H55141   5.689   2.545   2.131 -2.1059  0.4958 -1.7221
  418MOL0     H55142   5.562   2.484   1.686  0.4086  1.2726 -1.2007
  418MOL0     H55143   5.649   2.632   1.720 -0.0564 -0.6592 -1.4630
  418MOL0     H55144   5.412   2.678   1.632 -0.8275 -1.5260  0.1984
  418MOL0     H55145   5.442   2.733   1.804  1.5753  0.7300 -0.5763
  418MOL0     H55146   5.221   2.627   1.791  1.4757  2.2688  1.3558
  418MOL0     H55147   5.338   2.506   1.855  0.5969  1.7972  1.6464
  418MOL0     H55148   5.342   2.385   1.651  1.0992  0.3839  0.1299
  418MOL0     H55149   5.165   2.408   1.676 -0.4538  0.7127 -0.4932
  418MOL0     H55150   5.199   2.457   1.445  1.8161 -0.3284 -0.9315
  418MOL0     H55151   5.349   2.534   1.482 -1.1541  1.1770 -1.9571
  418MOL0     H55152   5.187   2.677   1.398  1.6263 -1.7882 -0.3756
  418MOL0     H55153   5.194   2.734   1.560 -0.1235  1.2964 -1.4363
  418MOL0     H55154   4.992   2.523   1.470  1.5562  0.5509 -1.1969
  418MOL0     H55155   4.991   2.601   1.631  1.1217  0.4322  0.6474
  418MOL0     H55156   4.837   2.680   1.403 -0.4062  1.6601 -0.1032
  418MOL0     H55157   4.980   2.783   1.384  1.3796  0.0278  1.0866
  418MOL0     H55158   5.747   2.388   1.742 -0.3089 -1.4699  0.6051
  418MOL0     H55159   5.951   2.271   1.803 -2.4673 -1.0644 -1.3985
  418MOL0     H55160   6.242   1.946   1.951 -1.6145 -0.3922  1.4321
  418MOL0     H55161   6.478   1.922   1.967  0.2354  0.7785  0.6558
  418MOL0     H55162   8.589   2.202   2.337  0.6828  0.2580  0.5907
  418MOL0     H55163   8.823   2.162   2.274 -0.6505  0.3223  0.5641
  418MOL0     H55164   9.252   2.155   2.069  0.5406  0.0866 -2.0642
  418MOL0     H55165   9.462   2.031   2.029  0.8116 -3.0131  0.5703
  418MOL0     H55166   9.526   1.727   1.774  0.4868  1.6300  0.8056
  418MOL0     H55167   9.453   1.603   1.901 -0.3714  0.4701 -1.1244
  418MOL0     H55168   9.740   1.713   1.878  0.3179 -0.5847  0.2215
  418MOL0     H55169   9.684   1.630   2.015  4.9127  2.1046 -0.6163
  418MOL0     H55170   9.753   1.544   1.729  0.2890 -0.7507 -0.0731
  418MOL0     H55171   9.644   1.437   1.825  0.7869 -1.8297  1.9959
  418MOL0     H55172   9.844   1.422   1.997 -0.8963  0.0744  0.8133
  418MOL0     H55173   9.895   1.365   1.833  0.2021  1.3349  0.2885
  418MOL0     H55174  10.144   1.691   1.849  0.6538  0.0284  0.9626
  418MOL0     H55175   9.235   1.690   1.918 -1.9077 -0.7496  1.1618
  418MOL0     H55176   9.043   1.795   1.964 -1.1322 -0.0851  0.3568
  419MOL0     O55177  10.455   6.406   3.663  0.0139  0.1275 -0.5921
  419MOL0     C55178  10.346   6.396   3.606 -0.2115  0.5758  0.1381
  419MOL0     O55179  10.294   6.480   3.514  0.3120  0.2010  0.1508
  419MOL0     C55180  10.352   6.603   3.483  1.2225  0.1657 -0.2426
  419MOL0     C55181  10.407   6.683   3.580 -0.0273 -0.0376 -0.7305
  419MOL0     C55182  10.491   6.787   3.547 -0.8653  0.1226 -0.2325
  419MOL0     C55183  10.509   6.833   3.411 -0.0262 -0.1958  0.7292
  419MOL0     O55184  10.592   6.942   3.393 -0.3299  0.2940 -0.0511
  419MOL0     C55185  10.732   6.903   3.391 -0.5250 -0.3485 -0.1541
  419MOL0     C55186  10.814   7.009   3.332  0.3424 -0.3005  0.5048
  419MOL0     C55187  10.797   7.156   3.381 -0.7753  0.1217 -0.6147
  419MOL0     C55188  10.840   7.166   3.524 -0.1938  0.7219  0.0363
  419MOL0     C55189  10.852   7.314   3.569  0.3226  0.6240  0.1836
  419MOL0     C55190  10.887   7.332   3.715  0.7534 -0.3335 -0.2075
  419MOL0     C55191  10.923   7.477   3.759  0.1769 -0.1972 -0.5449
  419MOL0     C55192  10.944   7.473   3.911 -0.8229 -0.1804  1.6154
  419MOL0     N55193  10.963   7.609   3.955 -0.1044  0.0749 -0.3011
  419MOL0     C55194  11.066   7.692   3.943 -0.2671 -0.1543  0.2032
  419MOL0     C55195  11.033   7.808   3.991 -0.3217 -0.5647 -0.0439
  419MOL0     C55196  11.135   7.924   3.988 -0.0611  0.6721 -0.1935
  419MOL0     C55197  11.145   8.003   4.122  0.5021  0.2869 -0.0073
  419MOL0     C55198  11.262   8.097   4.112  0.6100  0.2618  0.4642
  419MOL0     C55199  11.293   8.174   4.235 -0.1259 -0.0892 -0.0892
  419MOL0     O55200  11.250   8.311   4.222 -0.2841  0.5688 -0.3899
  419MOL0     C55201  11.323   8.398   4.146 -0.2657 -0.0863  0.2383
  419MOL0     C55202  11.281   8.532   4.150 -0.5219  0.9886 -0.1647
  419MOL0     C55203  11.355   8.623   4.086 -0.4240 -0.4112  0.4134
  419MOL0     C55204  11.471   8.602   4.006  0.4593 -0.7403  0.6871
  419MOL0     C55205  11.559   8.710   3.968  0.5373  0.2029  0.0430
  419MOL0     O55206  11.524   8.836   4.014 -0.3431 -0.6508 -0.3004
  419MOL0     C55207  11.601   8.944   3.975  0.3464 -0.7654  0.8873
  419MOL0     C55208  11.642   9.043   4.070 -0.1720  0.1677 -0.4163
  419MOL0     C55209  11.743   9.128   4.031 -0.1953 -0.1768  1.1115
  419MOL0     C55210  11.796   9.140   3.900 -1.0818  0.1625  0.6320
  419MOL0     O55211  11.907   9.214   3.875 -0.0655  0.1071 -0.1823
  419MOL0     C55212  11.973   9.290   3.977  0.0675 -0.6232 -0.0604
  419MOL0     C55213  12.118   9.293   3.936 -1.1225 -0.1029 -0.6628
  419MOL0     C55214  12.205   9.384   4.024  0.5402 -0.3221 -0.2500
  419MOL0     C55215  12.353   9.405   3.973  0.7940 -0.4786 -0.1292
  419MOL0     C55216  12.415   9.515   4.064  0.6390 -0.7222  0.8715
  419MOL0     C55217  12.561   9.525   4.030 -0.1590  0.3167  0.5430
  419MOL0     C55218  12.603   9.613   3.921 -0.0755  0.1491 -0.4675
  419MOL0     C55219  12.760   9.594   3.902  0.3751  0.6005  0.1407
  419MOL0    Cl55220  12.793   9.455   3.792 -0.1082  0.0626  0.3569
  419MOL0     C55221  11.742   9.059   3.803  0.5764 -0.3107 -0.8470
  419MOL0     C55222  11.641   8.963   3.839  1.2124  0.0696 -0.1303
  419MOL0     O55223  11.665   8.681   3.914 -0.2376  0.1257 -0.2039
  419MOL0     C55224  11.509   8.466   3.994  0.3764 -0.5574  0.0441
  419MOL0     C55225  11.444   8.366   4.063  0.8348 -0.1530 -0.2020
  419MOL0     N55226  10.913   7.789   4.057 -0.9857 -0.1743 -0.3196
  419MOL0     N55227  10.869   7.674   4.038 -0.9694 -0.1687  0.2631
  419MOL0     C55228  10.430   6.771   3.314  0.2101  0.2996 -0.1138
  419MOL0     C55229  10.358   6.646   3.349 -0.9865  0.5857 -0.7512
  419MOL0     C55230  10.254   6.278   3.634 -0.3537 -0.3227  0.0167
  419MOL0     C55231  10.137   6.260   3.558 -0.8544  0.7266 -0.3552
  419MOL0     C55232  10.042   6.156   3.589  0.7132  0.8123  0.5314
  419MOL0     C55233  10.064   6.079   3.701 -0.1849 -0.1430  0.1170
  419MOL0     O55234   9.971   5.981   3.749  0.2216  0.6816  0.3941
  419MOL0     C55235   9.854   5.962   3.675  0.6336 -0.0470  0.3217
  419MOL0     C55236   9.781   5.852   3.755  0.0623  0.4143 -1.1062
  419MOL0     C55237   9.810   5.701   3.718 -0.3973 -0.0339 -0.1623
  419MOL0     C55238   9.953   5.662   3.759 -0.1160  0.0915 -0.3707
  419MOL0     C55239   9.963   5.513   3.768  0.1028 -0.4898  0.4228
  419MOL0     C55240   9.973   5.393   3.794  0.6798 -0.0469  0.7524
  419MOL0     C55241  10.182   6.093   3.767  1.2006  0.7008  0.9652
  419MOL0     C55242  10.268   6.191   3.742 -0.1840 -0.8933  0.4316
  419MOL0     H55243  10.391   6.662   3.685 -1.1127  0.1934 -0.8381
  419MOL0     H55244  10.550   6.851   3.611  1.2114 -0.6097 -1.3132
  419MOL0     H55245  10.749   6.813   3.331  0.6058 -0.9217  0.9746
  419MOL0     H55246  10.776   6.878   3.488  2.0156  0.0031 -1.1209
  419MOL0     H55247  10.782   7.028   3.229  1.9185 -0.2559 -0.0037
  419MOL0     H55248  10.915   6.968   3.334 -1.2841 -4.7746  1.1601
  419MOL0     H55249  10.690   7.178   3.371 -1.1317 -1.1819  0.1342
  419MOL0     H55250  10.845   7.234   3.321 -0.0947  0.4600  0.3461
  419MOL0     H55251  10.767   7.114   3.587  0.2996 -1.8606 -1.3645
  419MOL0     H55252  10.936   7.114   3.530  0.4268  0.9021 -4.5940
  419MOL0     H55253  10.758   7.367   3.549 -0.7660 -1.1995  0.2028
  419MOL0     H55254  10.942   7.350   3.518  0.6498 -1.7608 -1.0938
  419MOL0     H55255  10.972   7.268   3.735  1.9124  0.9875 -0.7218
  419MOL0     H55256  10.805   7.301   3.780  1.1696  1.3193  1.1796
  419MOL0     H55257  11.019   7.498   3.711 -0.9936 -0.3366 -3.1098
  419MOL0     H55258  10.839   7.543   3.732 -0.0667  0.0079  0.6324
  419MOL0     H55259  11.028   7.409   3.938 -0.6999 -0.1424  1.3210
  419MOL0     H55260  10.862   7.422   3.963  0.6223 -2.9874  1.3067
  419MOL0     H55261  11.146   7.668   3.874 -2.0654  0.2112 -2.1243
  419MOL0     H55262  11.103   7.993   3.910 -3.7472  2.2928  2.4441
  419MOL0     H55263  11.234   7.883   3.965 -0.9786  0.2668 -4.1017
  419MOL0     H55264  11.144   7.925   4.199 -0.7898 -0.0365 -0.3388
  419MOL0     H55265  11.054   8.063   4.128  1.8295  2.4910 -0.6694
  419MOL0     H55266  11.353   8.038   4.098  0.1784 -0.1256 -0.8746
  419MOL0     H55267  11.243   8.169   4.032 -0.6275  0.9679  1.3736
  419MOL0     H55268  11.402   8.174   4.243  0.0438 -1.0602 -1.8555
  419MOL0     H55269  11.251   8.117   4.318 -0.9783 -0.5042 -0.7863
  419MOL0     H55270  11.199   8.568   4.212 -0.3957  3.6463 -1.3996
  419MOL0     H55271  11.313   8.723   4.096 -2.0541 -1.1936  1.9501
  419MOL0     H55272  11.608   9.038   4.173  3.3366 -0.9957  0.8209
  419MOL0     H55273  11.782   9.192   4.110 -1.0079 -0.5325  1.8078
  419MOL0     H55274  11.985   9.234   4.070  0.8616 -1.8149 -0.8485
  419MOL0     H55275  11.942   9.395   3.986  0.8633 -0.3905  0.0018
  419MOL0     H55276  12.112   9.338   3.837  0.3614 -1.9953 -1.6559
  419MOL0     H55277  12.159   9.192   3.929  0.7985  0.6860 -1.5948
  419MOL0     H55278  12.212   9.348   4.127 -1.1201 -0.3779 -0.1340
  419MOL0     H55279  12.151   9.478   4.038 -0.4749 -1.0922  1.3538
  419MOL0     H55280  12.406   9.310   3.962 -0.2314 -0.9929 -0.8072
  419MOL0     H55281  12.346   9.439   3.869  0.5108 -1.3582 -0.4140
  419MOL0     H55282  12.401   9.491   4.170 -0.5969  0.0832  0.9012
  419MOL0     H55283  12.371   9.612   4.043  3.1923  0.1399 -1.1237
  419MOL0     H55284  12.589   9.421   4.010  0.1677  0.3136  0.9958
  419MOL0     H55285  12.619   9.569   4.112  0.4562  0.4711  0.0369
  419MOL0     H55286  12.567   9.571   3.827  1.3753 -1.3605 -0.3826
  419MOL0     H55287  12.584   9.720   3.936  2.8765  0.8780 -1.2195
  419MOL0     H55288  12.804   9.570   4.000 -2.5602 -0.7848  1.2551
  419MOL0     H55289  12.809   9.684   3.865 -2.5996  1.0215 -3.3190
  419MOL0     H55290  11.770   9.075   3.700  0.5179  1.2703 -0.6476
  419MOL0     H55291  11.591   8.910   3.759  3.1117  0.3540 -1.6001
  419MOL0     H55292  11.598   8.431   3.943  0.5249 -1.1727  0.7127
  419MOL0     H55293  11.486   8.266   4.065  0.2922 -0.4248 -1.3791
  419MOL0     H55294  10.427   6.805   3.211 -2.1672  0.3106 -0.0838
  419MOL0     H55295  10.318   6.591   3.264 -1.1035  4.0200 -3.1149
  419MOL0     H55296  10.099   6.322   3.478 -3.1378  1.8984  1.5028
  419MOL0     H55297   9.949   6.143   3.535 -0.1420 -0.1269  2.1492
  419MOL0     H55298   9.869   5.932   3.571 -0.6781 -0.8463  0.3357
  419MOL0     H55299   9.798   6.056   3.677 -3.9403 -2.4712  1.1364
  419MOL0     H55300   9.797   5.877   3.860  2.5830  6.0469 -2.4495
  419MOL0     H55301   9.677   5.876   3.732  0.4369  2.7559 -0.7009
  419MOL0     H55302   9.808   5.677   3.611  1.3620 -3.2395  0.4024
  419MOL0     H55303   9.737   5.640   3.773 -1.2061  3.4628  3.0248
  419MOL0     H55304  10.018   5.699   3.679 -0.6179  1.3474 -0.2267
  419MOL0     H55305   9.999   5.687   3.854 -1.3029 -2.4469  0.9622
  419MOL0     H55306  10.001   5.289   3.791  0.8608  0.0117 -0.5199
  419MOL0     H55307  10.189   6.035   3.859 -1.2033  0.0362  0.7956
  419MOL0     H55308  10.357   6.208   3.802  0.8232  0.8902 -1.4358
  420MOL0     O55309   1.207   6.573   8.759  0.1657 -1.5017 -0.3403
  420MOL0     C55310   1.287   6.560   8.664  0.0960  0.1128 -0.0361
  420MOL0     O55311   1.259   6.493   8.552 -0.2200  0.0812  0.0469
  420MOL0     C55312   1.135   6.428   8.551  0.5573 -0.2659 -0.5370
  420MOL0     C55313   1.110   6.302   8.602 -0.0412  0.0854  0.6051
  420MOL0     C55314   0.984   6.242   8.592 -0.0525  0.9868 -0.2584
  420MOL0     C55315   0.874   6.314   8.547  0.0052  0.7315  0.3105
  420MOL0     O55316   0.747   6.260   8.548 -0.5317 -0.5071  0.8516
  420MOL0     C55317   0.722   6.174   8.657 -0.3923 -0.3947 -0.6256
  420MOL0     C55318   0.575   6.188   8.703 -0.8322 -0.2363 -0.2817
  420MOL0     C55319   0.481   6.123   8.602 -0.3985 -0.9747 -0.3631
  420MOL0     C55320   0.343   6.117   8.665 -0.2456 -0.6218 -0.2530
  420MOL0     C55321   0.257   6.239   8.663 -0.2396 -0.1438 -0.0022
  420MOL0     C55322   0.145   6.217   8.775 -0.1443 -0.2891 -0.5165
  420MOL0     C55323   0.026   6.315   8.762 -0.1878 -0.2892  0.8891
  420MOL0     C55324  -0.075   6.316   8.885 -0.4426  0.3697 -0.0537
  420MOL0     N55325  -0.141   6.191   8.910  0.1868  0.6052  0.0651
  420MOL0     C55326  -0.250   6.155   8.837  0.6892  0.7293  0.2827
  420MOL0     C55327  -0.267   6.021   8.861 -0.4976 -0.1542  0.9511
  420MOL0     C55328  -0.374   5.922   8.804  0.0150 -0.8233  0.0995
  420MOL0     C55329  -0.451   5.849   8.918 -1.0861  0.3398  0.1346
  420MOL0     C55330  -0.509   5.718   8.857  0.8098  0.6208  0.0321
  420MOL0     C55331  -0.621   5.649   8.936  1.0493 -0.7013  0.8029
  420MOL0     O55332  -0.565   5.602   9.058 -0.5761 -0.3728 -0.9155
  420MOL0     C55333  -0.660   5.540   9.138 -0.6497  0.0195 -0.0254
  420MOL0     C55334  -0.779   5.478   9.089 -0.4289  0.0731  0.6448
  420MOL0     C55335  -0.872   5.417   9.167  0.5177 -0.8681 -0.2184
  420MOL0     C55336  -0.844   5.399   9.303  0.0668  0.4238 -0.4097
  420MOL0     C55337  -0.947   5.349   9.396  0.2874  0.2856  0.7321
  420MOL0     O55338  -1.050   5.291   9.335 -0.5950 -0.8169 -0.4250
  420MOL0     C55339  -1.157   5.244   9.412  0.6648 -1.1230 -0.2370
  420MOL0     C55340  -1.181   5.271   9.544  0.5811  0.0837 -0.1039
  420MOL0     C55341  -1.280   5.203   9.615 -0.1917 -0.1218 -0.0839
  420MOL0     C55342  -1.368   5.118   9.550  0.0035  0.6618 -0.1216
  420MOL0     O55343  -1.478   5.055   9.611  0.2120 -0.7603  0.6818
  420MOL0     C55344  -1.513   5.114   9.742  0.0364  1.2074  0.0011
  420MOL0     C55345  -1.653   5.067   9.785 -0.6220 -0.8172 -0.6413
  420MOL0     C55346  -1.768   5.121   9.697  0.5199  0.3367  0.4716
  420MOL0     C55347  -1.901   5.078   9.750  0.5130  0.3907  0.0620
  420MOL0     C55348  -2.020   5.090   9.653 -0.0837 -0.2654 -0.2842
  420MOL0     C55349  -2.154   5.086   9.718 -0.8969 -0.2317 -0.4229
  420MOL0     C55350  -2.197   4.949   9.761  0.0025  0.6056  0.0071
  420MOL0     C55351  -2.350   4.949   9.757 -0.2521  1.4428  0.7743
  420MOL0    Cl55352  -2.411   4.803   9.856 -0.4243  0.2477 -0.1688
  420MOL0     C55353  -1.346   5.093   9.415  0.6791 -0.1900 -0.4554
  420MOL0     C55354  -1.240   5.151   9.344 -0.1426  1.4299 -0.5934
  420MOL0     O55355  -0.918   5.357   9.515 -0.7736  0.2621  0.8422
  420MOL0     C55356  -0.726   5.454   9.348 -0.3111  0.3820  0.2476
  420MOL0     C55357  -0.641   5.532   9.279 -0.0489  0.0023  0.5602
  420MOL0     N55358  -0.170   5.979   8.944 -1.5162  0.0135 -0.1156
  420MOL0     N55359  -0.098   6.084   8.978  0.3701  0.3360 -0.3634
  420MOL0     C55360   0.897   6.441   8.494  0.6974 -0.0677  0.4191
  420MOL0     C55361   1.021   6.501   8.502  0.6608 -0.6539  0.0560
  420MOL0     C55362   1.419   6.609   8.683 -0.0001  0.4141  0.4466
  420MOL0     C55363   1.434   6.725   8.759  0.1415 -0.1342 -0.5751
  420MOL0     C55364   1.558   6.780   8.760 -0.1335  0.1996 -0.8591
  420MOL0     C55365   1.670   6.737   8.694  0.2469  0.8004  0.0538
  420MOL0     O55366   1.792   6.795   8.721  0.2830  0.1125  0.2078
  420MOL0     C55367   1.913   6.764   8.645 -0.6093  0.7391 -0.0555
  420MOL0     C55368   1.921   6.843   8.512 -0.5291  0.2222  0.4106
  420MOL0     C55369   2.076   6.878   8.476  0.2563  0.3419  0.6590
  420MOL0     C55370   2.100   6.945   8.341 -1.0365 -0.2658  0.7200
  420MOL0     C55371   2.074   6.854   8.230 -0.9372 -0.4712 -0.2099
  420MOL0     C55372   2.054   6.776   8.142  0.3495 -0.0615  0.4604
  420MOL0     C55373   1.652   6.623   8.616  0.8855 -0.0523  0.8374
  420MOL0     C55374   1.530   6.560   8.607  0.4190 -0.0642  0.0304
  420MOL0     H55375   1.187   6.253   8.662 -0.3295 -2.2425 -0.7992
  420MOL0     H55376   0.972   6.150   8.648  2.1180  0.3040 -0.8197
  420MOL0     H55377   0.792   6.196   8.738 -0.9753 -0.5672 -0.0686
  420MOL0     H55378   0.743   6.071   8.624 -1.5117 -0.2479 -1.8480
  420MOL0     H55379   0.549   6.293   8.720  1.0285  0.2054  0.0980
  420MOL0     H55380   0.563   6.132   8.796 -0.6672  0.9242  0.4527
  420MOL0     H55381   0.513   6.020   8.588  2.5314 -0.3027  0.6992
  420MOL0     H55382   0.486   6.180   8.508  2.6955 -2.5558 -1.2987
  420MOL0     H55383   0.286   6.038   8.615  0.6366 -1.3646 -0.1047
  420MOL0     H55384   0.350   6.090   8.771  2.6213  2.5801  0.5621
  420MOL0     H55385   0.202   6.258   8.570 -2.9780 -0.7506  1.3783
  420MOL0     H55386   0.317   6.327   8.685  0.2023 -0.4127 -0.1278
  420MOL0     H55387   0.190   6.224   8.874  0.5389 -2.2924 -0.6440
  420MOL0     H55388   0.100   6.118   8.765 -1.0356  0.1153 -0.5963
  420MOL0     H55389   0.058   6.419   8.749 -2.3783  0.1522 -1.9415
  420MOL0     H55390  -0.032   6.288   8.674  1.7656  1.2068 -0.9549
  420MOL0     H55391  -0.156   6.390   8.880 -2.1113 -1.4414 -2.1045
  420MOL0     H55392  -0.015   6.343   8.972  0.5696 -0.3405 -0.5060
  420MOL0     H55393  -0.310   6.208   8.764  0.7029  0.3773  0.0161
  420MOL0     H55394  -0.314   5.849   8.749  0.8708  0.7121 -1.1048
  420MOL0     H55395  -0.435   5.982   8.735  0.5021 -1.4585 -0.9094
  420MOL0     H55396  -0.524   5.917   8.962  0.2116  2.8739 -1.4041
  420MOL0     H55397  -0.372   5.827   8.991 -1.4307  0.2655  0.4879
  420MOL0     H55398  -0.561   5.729   8.761 -1.6102  0.8726  1.2876
  420MOL0     H55399  -0.425   5.650   8.842  0.3702  0.0166  0.2458
  420MOL0     H55400  -0.673   5.576   8.874  1.2669  0.0829 -0.3557
  420MOL0     H55401  -0.687   5.731   8.966 -2.1529 -1.7221 -2.6253
  420MOL0     H55402  -0.808   5.480   8.985 -0.9202 -0.0025  0.7796
  420MOL0     H55403  -0.966   5.391   9.119  1.1208 -0.6493 -1.5396
  420MOL0     H55404  -1.128   5.347   9.601 -0.5293 -1.2988  2.9633
  420MOL0     H55405  -1.302   5.222   9.720 -0.4601  0.3987 -0.2316
  420MOL0     H55406  -1.514   5.223   9.734  3.0452  1.3925  1.1592
  420MOL0     H55407  -1.445   5.071   9.816 -1.0450  1.6275  1.2870
  420MOL0     H55408  -1.667   5.103   9.887 -2.2296  1.2068 -1.5103
  420MOL0     H55409  -1.669   4.959   9.782 -2.7118 -0.6062  0.8769
  420MOL0     H55410  -1.772   5.069   9.600 -0.7232  0.4633  0.4358
  420MOL0     H55411  -1.765   5.228   9.675 -0.7585  0.2319 -0.2909
  420MOL0     H55412  -1.877   4.973   9.772  2.5419  1.1521  1.7929
  420MOL0     H55413  -1.920   5.129   9.845  2.2134 -2.0958  1.8538
  420MOL0     H55414  -2.020   5.012   9.575  1.0574 -0.9726  0.3985
  420MOL0     H55415  -2.012   5.186   9.602 -1.8647 -0.6880 -1.4575
  420MOL0     H55416  -2.226   5.119   9.642 -1.6020 -0.8485 -0.0411
  420MOL0     H55417  -2.145   5.140   9.813 -1.2574 -0.1872 -0.4125
  420MOL0     H55418  -2.169   4.876   9.685 -1.0069 -0.4081  0.5801
  420MOL0     H55419  -2.158   4.938   9.863 -0.5817  0.0970  0.1840
  420MOL0     H55420  -2.376   4.942   9.651  1.1149  0.0233  0.4932
  420MOL0     H55421  -2.378   5.044   9.802 -4.4193  0.2416  1.0768
  420MOL0     H55422  -1.412   5.019   9.370 -1.1604 -0.6361  2.7170
  420MOL0     H55423  -1.229   5.135   9.237 -2.9397  1.5818 -0.9732
  420MOL0     H55424  -0.707   5.443   9.455  1.2385 -3.5284 -0.2435
  420MOL0     H55425  -0.556   5.581   9.325 -0.2228  1.5924 -0.7190
  420MOL0     H55426   0.804   6.492   8.472 -0.1614  0.2986  4.2945
  420MOL0     H55427   1.030   6.600   8.459 -0.7629 -0.3362  0.4246
  420MOL0     H55428   1.354   6.784   8.802 -0.6833 -1.6017 -0.0708
  420MOL0     H55429   1.574   6.859   8.833  0.7753 -1.3393  0.6785
  420MOL0     H55430   1.921   6.657   8.625 -1.4748  0.5456  0.5708
  420MOL0     H55431   1.994   6.787   8.715  0.8356 -3.7962  0.1210
  420MOL0     H55432   1.868   6.777   8.442  0.1847 -0.7669  0.7783
  420MOL0     H55433   1.863   6.934   8.525 -1.7128 -0.0045 -2.4465
  420MOL0     H55434   2.146   6.796   8.486  0.2246 -0.1080 -2.1377
  420MOL0     H55435   2.098   6.952   8.554 -1.5781  1.4832  0.1560
  420MOL0     H55436   2.037   7.032   8.320 -1.5474 -1.0883 -1.3024
  420MOL0     H55437   2.206   6.971   8.335 -1.6269  2.3095  0.3859
  420MOL0     H55438   2.027   6.714   8.059  1.1250 -1.2993  1.1064
  420MOL0     H55439   1.730   6.580   8.554 -1.1408 -2.5903 -0.0753
  420MOL0     H55440   1.508   6.467   8.554 -2.1636 -0.6288  1.8710
  421MOL0     O55441  11.183   6.642   8.787 -0.0853 -0.0868  0.0971
  421MOL0     C55442  11.186   6.594   8.675  0.2210  0.8479 -0.1362
  421MOL0     O55443  11.288   6.605   8.578  0.3661  0.6589 -0.1978
  421MOL0     C55444  11.390   6.687   8.600 -0.4284  0.7767  0.0665
  421MOL0     C55445  11.378   6.817   8.649 -0.0108  0.5226  0.4258
  421MOL0     C55446  11.480   6.910   8.634 -0.8039  0.2395 -0.5106
  421MOL0     C55447  11.606   6.869   8.595  0.8457  0.2913 -0.6760
  421MOL0     O55448  11.707   6.963   8.609 -0.3974  0.0883  0.5125
  421MOL0     C55449  11.846   6.938   8.586  0.1030 -0.1144  0.4543
  421MOL0     C55450  11.928   7.069   8.600 -0.3416  0.4114 -0.3451
  421MOL0     C55451  11.885   7.156   8.708  0.4876 -0.4545  0.3487
  421MOL0     C55452  11.931   7.300   8.677 -0.1358 -0.0043  0.3963
  421MOL0     C55453  12.081   7.314   8.681  0.5430  0.9338 -0.0330
  421MOL0     C55454  12.131   7.450   8.626  0.2932 -0.7584  0.3036
  421MOL0     C55455  12.280   7.478   8.640 -1.2010  0.0331 -0.6074
  421MOL0     C55456  12.342   7.536   8.510  0.5110 -0.3077  0.0886
  421MOL0     N55457  12.488   7.534   8.518 -0.0796 -0.2485 -0.4665
  421MOL0     C55458  12.571   7.477   8.420  0.5132  0.5837  0.3932
  421MOL0     C55459  12.700   7.492   8.473  0.8046 -0.0539  0.1167
  421MOL0     C55460  12.832   7.448   8.417  0.0695 -0.0300  1.0061
  421MOL0     C55461  12.937   7.557   8.412 -0.4401  0.1826 -0.2600
  421MOL0     C55462  13.034   7.522   8.304  1.1195 -0.4281  0.7518
  421MOL0     C55463  13.149   7.617   8.305  0.1373  0.4595  0.0094
  421MOL0     O55464  13.248   7.584   8.202 -0.3313  0.3001 -0.9131
  421MOL0     C55465  13.345   7.674   8.178  0.2935 -0.0547 -0.7085
  421MOL0     C55466  13.467   7.634   8.120  0.1785  0.5942  0.4033
  421MOL0     C55467  13.569   7.717   8.087 -0.6429 -0.2379 -0.4657
  421MOL0     C55468  13.562   7.854   8.118  0.5190 -0.1269  0.4618
  421MOL0     C55469  13.663   7.960   8.079 -0.1080 -0.0968  0.0285
  421MOL0     O55470  13.798   7.936   8.049  0.5192  0.8043  0.1108
  421MOL0     C55471  13.899   8.031   8.028  0.6614  0.2937  0.4975
  421MOL0     C55472  13.885   8.169   8.026  0.5856  0.4464  0.7756
  421MOL0     C55473  13.997   8.249   7.994 -0.5264 -0.7947  0.6593
  421MOL0     C55474  14.125   8.187   7.970  0.9271 -0.7251  0.3596
  421MOL0     O55475  14.239   8.252   7.943 -0.1760 -0.2930 -0.4567
  421MOL0     C55476  14.243   8.393   7.923 -0.2864 -0.1143  0.1462
  421MOL0     C55477  14.382   8.419   7.864  0.3063  0.1020  0.7591
  421MOL0     C55478  14.401   8.571   7.834  0.1316  0.7704 -0.2657
  421MOL0     C55479  14.542   8.596   7.774 -0.7826 -0.0290 -0.3363
  421MOL0     C55480  14.572   8.753   7.776  0.1294  0.4319 -0.0628
  421MOL0     C55481  14.716   8.787   7.727  0.2758  0.5178 -0.7390
  421MOL0     C55482  14.740   8.940   7.731 -0.1582  1.0038 -0.1324
  421MOL0     C55483  14.887   8.976   7.765  0.6148  0.4415  0.1235
  421MOL0    Cl55484  14.973   8.880   7.636  0.0128  0.1767 -0.0923
  421MOL0     C55485  14.137   8.051   7.983  0.3366 -0.9785 -0.2564
  421MOL0     C55486  14.025   7.974   8.001 -0.5325 -0.1969  0.3877
  421MOL0     O55487  13.610   8.073   8.063  0.0077  0.3847  0.4755
  421MOL0     C55488  13.447   7.892   8.185  1.2989 -0.1595 -0.2199
  421MOL0     C55489  13.341   7.801   8.219 -0.6471 -1.0366  0.4390
  421MOL0     N55490  12.688   7.550   8.590 -0.5825 -1.0206 -0.0995
  421MOL0     N55491  12.560   7.580   8.618  0.1567  0.6267  0.2047
  421MOL0     C55492  11.622   6.739   8.552 -0.0023 -0.8987  0.1659
  421MOL0     C55493  11.516   6.649   8.551 -0.8802  0.1497  0.5418
  421MOL0     C55494  11.074   6.507   8.636  1.0271  0.4631 -0.0022
  421MOL0     C55495  10.960   6.492   8.718  0.1327  0.2710 -0.2836
  421MOL0     C55496  10.842   6.412   8.687 -0.0096  0.9222 -0.5360
  421MOL0     C55497  10.858   6.331   8.570 -0.5682 -0.0509  0.2299
  421MOL0     O55498  10.760   6.255   8.516  0.1385 -0.1697  0.0418
  421MOL0     C55499  10.625   6.285   8.563  1.3637  0.2571 -0.4563
  421MOL0     C55500  10.579   6.194   8.682  0.3192  0.5882  0.8500
  421MOL0     C55501  10.563   6.043   8.644  0.3871  0.2269  0.0954
  421MOL0     C55502  10.470   5.967   8.750 -0.5641 -0.3361  0.6267
  421MOL0     C55503  10.444   5.829   8.704 -0.0399 -0.5117  0.0626
  421MOL0     C55504  10.425   5.719   8.664  0.7183  0.9401 -0.1729
  421MOL0     C55505  10.967   6.340   8.494 -0.4539 -0.2022  0.7407
  421MOL0     C55506  11.069   6.432   8.523 -1.0234  0.4705 -0.1621
  421MOL0     H55507  11.282   6.847   8.689 -0.7977 -1.1365 -0.1100
  421MOL0     H55508  11.461   7.015   8.658  3.9726  1.4673 -1.1604
  421MOL0     H55509  11.860   6.906   8.482 -1.6493 -1.8133  0.6771
  421MOL0     H55510  11.883   6.860   8.654  1.7999  1.3386  1.2591
  421MOL0     H55511  11.920   7.123   8.505  0.1796 -2.9673 -2.4736
  421MOL0     H55512  12.032   7.042   8.617 -0.7189  0.4672  2.4622
  421MOL0     H55513  11.923   7.136   8.808  1.1134 -0.3080  0.1424
  421MOL0     H55514  11.776   7.166   8.719  0.6712 -0.2653  2.4988
  421MOL0     H55515  11.897   7.332   8.578  2.8470  1.8451 -0.1699
  421MOL0     H55516  11.894   7.363   8.759  0.3567 -0.2446  0.8019
  421MOL0     H55517  12.127   7.232   8.625 -1.5746  1.6654 -3.1127
  421MOL0     H55518  12.122   7.316   8.782  0.3167  2.7574  0.0586
  421MOL0     H55519  12.084   7.524   8.691  1.6335  0.0081  0.4378
  421MOL0     H55520  12.090   7.455   8.525 -0.6724 -1.1042  0.6672
  421MOL0     H55521  12.296   7.547   8.724  0.8569 -0.9992 -0.0704
  421MOL0     H55522  12.313   7.377   8.667  0.3446  0.3519 -1.1927
  421MOL0     H55523  12.308   7.640   8.506  0.8192 -0.0703  2.5020
  421MOL0     H55524  12.313   7.478   8.422 -1.5710  1.7009 -0.6557
  421MOL0     H55525  12.545   7.423   8.330  2.1112 -0.9073  0.7644
  421MOL0     H55526  12.822   7.409   8.315 -1.1393  0.9728  0.7298
  421MOL0     H55527  12.878   7.369   8.478 -0.6055 -1.3411 -0.1338
  421MOL0     H55528  12.977   7.577   8.512 -0.1101  1.8983 -0.7007
  421MOL0     H55529  12.890   7.652   8.385  0.6456 -0.0950 -3.5030
  421MOL0     H55530  13.068   7.422   8.333  2.4986 -0.2811 -0.2398
  421MOL0     H55531  12.985   7.518   8.206  1.0305  0.9227  0.7262
  421MOL0     H55532  13.186   7.598   8.406 -1.3283 -0.5643  0.4045
  421MOL0     H55533  13.118   7.721   8.309  1.3438  0.8111  0.4662
  421MOL0     H55534  13.489   7.528   8.111 -4.6409 -0.5361 -1.2820
  421MOL0     H55535  13.654   7.677   8.033  1.9034  1.3628  2.0808
  421MOL0     H55536  13.797   8.229   8.049  0.2532  2.0427 -3.6381
  421MOL0     H55537  13.987   8.357   7.993  1.0128 -0.6333  0.3373
  421MOL0     H55538  14.224   8.435   8.022  3.3635 -1.2983  1.4907
  421MOL0     H55539  14.162   8.429   7.858 -3.0023 -3.1039  1.5714
  421MOL0     H55540  14.393   8.359   7.773 -1.1270  0.7217  0.1506
  421MOL0     H55541  14.460   8.376   7.928 -0.4076 -0.1833  1.4598
  421MOL0     H55542  14.379   8.626   7.926 -1.9640 -0.8871  0.3190
  421MOL0     H55543  14.341   8.604   7.749  3.2122 -0.0475 -2.9544
  421MOL0     H55544  14.624   8.537   7.817  0.6351  0.4634 -2.2062
  421MOL0     H55545  14.540   8.561   7.670 -0.4073  1.1263 -0.7569
  421MOL0     H55546  14.559   8.778   7.882 -1.3420 -3.1910  0.7497
  421MOL0     H55547  14.495   8.809   7.721  0.5197 -1.2090 -2.4491
  421MOL0     H55548  14.752   8.743   7.634  2.0340  4.3309 -2.0500
  421MOL0     H55549  14.778   8.736   7.800 -2.7339  1.4051  2.7669
  421MOL0     H55550  14.708   8.978   7.633 -0.2369  1.9143  0.2341
  421MOL0     H55551  14.680   8.988   7.809  1.3377  2.1212  0.3684
  421MOL0     H55552  14.900   8.920   7.858 -1.5039 -1.1514 -0.4687
  421MOL0     H55553  14.901   9.084   7.778 -2.8025  0.8135  1.9009
  421MOL0     H55554  14.239   8.017   7.972  1.6326  2.2201  0.5996
  421MOL0     H55555  14.045   7.867   7.997 -1.2310 -0.5460  3.4915
  421MOL0     H55556  13.429   7.996   8.211  1.9123  0.0776 -0.6996
  421MOL0     H55557  13.253   7.854   8.255 -0.3697  2.3300 -3.2187
  421MOL0     H55558  11.721   6.698   8.534 -0.3267 -1.0603 -1.3774
  421MOL0     H55559  11.543   6.547   8.524  0.4759  0.2991  1.2406
  421MOL0     H55560  10.950   6.547   8.812  0.4088  3.5094 -2.0160
  421MOL0     H55561  10.758   6.409   8.755  1.3870  1.5963  1.3062
  421MOL0     H55562  10.563   6.261   8.477 -2.6551 -2.2945  2.7534
  421MOL0     H55563  10.615   6.392   8.582 -0.4432 -0.0461  0.5993
  421MOL0     H55564  10.639   6.202   8.773  0.0692  1.0255  0.9792
  421MOL0     H55565  10.478   6.230   8.700 -0.1707  0.0054 -0.6238
  421MOL0     H55566  10.666   6.008   8.650  1.3722  2.7973 -0.3203
  421MOL0     H55567  10.517   6.027   8.545  0.9850 -0.4655 -0.0787
  421MOL0     H55568  10.524   5.956   8.844 -1.3465  0.9415  1.2524
  421MOL0     H55569  10.381   6.027   8.770 -0.5572  0.1704 -0.7465
  421MOL0     H55570  10.394   5.625   8.622 -1.7995  0.4125  2.5359
  421MOL0     H55571  10.979   6.283   8.403 -1.5368  1.4458 -0.4933
  421MOL0     H55572  11.153   6.434   8.454 -0.6647  2.5148  0.2426
  422MOL0     O55573   9.152   2.178   7.587  0.5862  0.2609  0.1818
  422MOL0     C55574   9.147   2.089   7.679 -0.2496 -0.7434  0.1669
  422MOL0     O55575   9.054   1.990   7.684  0.1237  0.4887  0.0507
  422MOL0     C55576   8.932   2.010   7.614 -0.8138  1.1261 -0.4413
  422MOL0     C55577   8.877   2.140   7.601 -0.1479  0.2030 -0.3047
  422MOL0     C55578   8.746   2.168   7.556  0.6162  0.6441 -0.1477
  422MOL0     C55579   8.665   2.064   7.533  1.1661  0.9143 -0.5570
  422MOL0     O55580   8.540   2.093   7.479  0.2009  0.5938 -0.1906
  422MOL0     C55581   8.438   2.002   7.523  0.0034 -0.3623 -0.3305
  422MOL0     C55582   8.302   2.039   7.460 -0.1304  0.1015  0.0246
  422MOL0     C55583   8.191   1.947   7.508  0.8884  1.0858  0.7682
  422MOL0     C55584   8.063   1.962   7.430  0.4731 -0.0777  0.3210
  422MOL0     C55585   7.944   1.911   7.505  0.1517 -0.4580  0.3971
  422MOL0     C55586   7.949   1.752   7.515 -0.4567  1.3439 -0.1839
  422MOL0     C55587   7.815   1.706   7.576 -0.3216 -1.3739  0.3861
  422MOL0     C55588   7.805   1.570   7.632  0.0894 -0.1333  0.7458
  422MOL0     N55589   7.666   1.544   7.647  0.0987 -0.8047  0.1265
  422MOL0     C55590   7.581   1.613   7.734 -0.9336  0.1485  0.7606
  422MOL0     C55591   7.454   1.565   7.711 -0.1460  0.6991 -0.4650
  422MOL0     C55592   7.330   1.601   7.794 -0.3220 -0.1459  0.1438
  422MOL0     C55593   7.235   1.476   7.832  0.8128 -0.2461 -0.1446
  422MOL0     C55594   7.145   1.505   7.950  0.5469  0.7322  0.0779
  422MOL0     C55595   7.031   1.413   7.944 -0.5956 -1.0330 -0.3745
  422MOL0     O55596   6.951   1.436   8.065 -0.2498  0.5992  0.1085
  422MOL0     C55597   6.830   1.366   8.085 -0.0418  1.1178 -0.0834
  422MOL0     C55598   6.753   1.401   8.207  0.1074  0.6714  0.2620
  422MOL0     C55599   6.634   1.337   8.234 -0.1527  0.5215 -0.5949
  422MOL0     C55600   6.597   1.221   8.159  0.0301 -0.1794 -1.1134
  422MOL0     C55601   6.467   1.144   8.179 -1.0058  0.4458  0.3405
  422MOL0     O55602   6.445   1.030   8.115 -0.4886  0.8932  0.2857
  422MOL0     C55603   6.317   0.973   8.142 -0.3574  0.6594 -0.5104
  422MOL0     C55604   6.219   1.001   8.043  0.2862 -0.1591 -0.6447
  422MOL0     C55605   6.105   0.927   8.055  0.2687  0.7264  0.3257
  422MOL0     C55606   6.083   0.829   8.154 -0.0503  0.2596 -0.8304
  422MOL0     O55607   5.968   0.767   8.158  0.2362  0.2080 -0.6247
  422MOL0     C55608   5.936   0.696   8.039  0.7353  0.0257 -0.4134
  422MOL0     C55609   5.834   0.584   8.059 -0.0786  0.0791 -0.6944
  422MOL0     C55610   5.903   0.456   8.112  0.3079 -0.3881 -0.1069
  422MOL0     C55611   5.999   0.469   8.239  0.7702 -0.1152  1.0819
  422MOL0     C55612   6.049   0.329   8.275  0.9438  0.0990 -0.4310
  422MOL0     C55613   6.161   0.307   8.181  0.7265  0.2143  0.8620
  422MOL0     C55614   6.225   0.173   8.220  1.5540 -0.8088 -0.2134
  422MOL0     C55615   6.364   0.160   8.159 -0.2435 -0.1516 -0.0355
  422MOL0    Cl55616   6.474   0.270   8.237 -0.3330  0.0445  0.2930
  422MOL0     C55617   6.174   0.819   8.265 -0.7617 -0.5497 -0.5141
  422MOL0     C55618   6.300   0.884   8.251  0.2181 -0.3279 -0.4619
  422MOL0     O55619   6.400   1.193   8.269 -0.4237 -0.1656 -0.6678
  422MOL0     C55620   6.669   1.186   8.043  0.0656 -0.8289 -0.5705
  422MOL0     C55621   6.784   1.254   8.010 -0.0486 -0.1154  0.6767
  422MOL0     N55622   7.464   1.479   7.607 -0.0281  0.0357  0.0044
  422MOL0     N55623   7.589   1.460   7.574  0.1572  0.0884 -0.9273
  422MOL0     C55624   8.721   1.928   7.534  0.4073  0.3302  0.8509
  422MOL0     C55625   8.850   1.899   7.580 -0.7442  0.2129  0.0316
  422MOL0     C55626   9.255   2.084   7.779  1.0037 -0.6579  0.1291
  422MOL0     C55627   9.381   2.125   7.745 -0.7439 -1.0482  1.6103
  422MOL0     C55628   9.480   2.144   7.844 -0.0652  0.4184  0.5222
  422MOL0     C55629   9.450   2.133   7.982  0.3288  0.4854 -0.3080
  422MOL0     O55630   9.538   2.143   8.092  0.4218  0.5745  0.2095
  422MOL0     C55631   9.676   2.127   8.047  0.0266 -0.4857 -0.2583
  422MOL0     C55632   9.751   2.185   8.164 -0.0439  0.8804  0.2179
  422MOL0     C55633   9.896   2.230   8.134  0.6149 -0.5334  0.2888
  422MOL0     C55634   9.996   2.114   8.097  0.4126 -1.0160  0.5821
  422MOL0     C55635  10.013   2.002   8.192 -0.2397 -0.6564 -0.6216
  422MOL0     C55636  10.016   1.914   8.275  0.2875  0.5499 -0.4905
  422MOL0     C55637   9.322   2.080   8.013  1.5136  0.4359 -0.4296
  422MOL0     C55638   9.223   2.063   7.913  0.4939  0.8444  0.1029
  422MOL0     H55639   8.934   2.229   7.626 -0.3859  0.6156 -1.2114
  422MOL0     H55640   8.699   2.265   7.544 -1.1652  0.4510  3.9639
  422MOL0     H55641   8.437   2.008   7.632  1.9760 -0.0876 -0.2995
  422MOL0     H55642   8.452   1.899   7.492 -0.2444 -0.5947  0.3125
  422MOL0     H55643   8.319   2.037   7.352  2.1295  2.2385  0.2562
  422MOL0     H55644   8.290   2.145   7.481  0.9178 -0.1081  1.9505
  422MOL0     H55645   8.179   1.981   7.611 -1.0614  3.0913 -0.0478
  422MOL0     H55646   8.225   1.843   7.512  0.1638  0.8782  1.7097
  422MOL0     H55647   8.043   2.069   7.417  1.0284  0.0161  0.1919
  422MOL0     H55648   8.080   1.902   7.340  0.3862  0.7765 -0.2786
  422MOL0     H55649   7.853   1.935   7.450 -0.2850 -0.6297  1.0279
  422MOL0     H55650   7.935   1.964   7.601  0.0221  1.1074 -0.4617
  422MOL0     H55651   8.021   1.714   7.588 -0.4127  1.0262 -0.3909
  422MOL0     H55652   7.964   1.696   7.422  2.2751 -0.0736  1.0018
  422MOL0     H55653   7.792   1.766   7.664  2.0620 -0.8973  0.7453
  422MOL0     H55654   7.737   1.726   7.501  2.1856 -2.4804 -2.7234
  422MOL0     H55655   7.853   1.561   7.730  2.1350 -0.6030 -0.2341
  422MOL0     H55656   7.855   1.492   7.573 -3.1948 -2.8665  1.2673
  422MOL0     H55657   7.602   1.679   7.818 -1.9695 -0.4310  1.4961
  422MOL0     H55658   7.278   1.686   7.748  0.5436 -0.3978 -1.3627
  422MOL0     H55659   7.366   1.632   7.893 -1.9967 -2.4214  1.5699
  422MOL0     H55660   7.298   1.387   7.840  1.3291  0.2272  1.6989
  422MOL0     H55661   7.165   1.461   7.750 -0.4869  1.5285  0.5592
  422MOL0     H55662   7.205   1.495   8.041  2.7328  0.6351 -1.2958
  422MOL0     H55663   7.103   1.606   7.944 -0.4398  0.3233 -0.1008
  422MOL0     H55664   7.064   1.309   7.943  0.7038 -0.6449 -0.1069
  422MOL0     H55665   6.974   1.433   7.853 -1.0715 -0.1547  0.1034
  422MOL0     H55666   6.787   1.480   8.273 -0.8254  0.7840  0.6255
  422MOL0     H55667   6.571   1.361   8.318 -1.3752 -1.2304 -0.9611
  422MOL0     H55668   6.233   1.081   7.971  2.5196 -0.3427 -0.4953
  422MOL0     H55669   6.027   0.939   7.981 -0.0044  0.3303  0.5442
  422MOL0     H55670   6.024   0.641   8.005 -0.8031 -2.0531 -1.3021
  422MOL0     H55671   5.903   0.762   7.958 -0.5181 -1.4237 -1.1441
  422MOL0     H55672   5.771   0.568   7.971  0.5238  1.4899 -1.4164
  422MOL0     H55673   5.767   0.617   8.139 -0.6512  1.0116 -1.5332
  422MOL0     H55674   5.949   0.412   8.023  0.5358  1.4118 -0.9045
  422MOL0     H55675   5.822   0.388   8.141 -0.7127  0.0401 -1.8286
  422MOL0     H55676   6.085   0.536   8.228  1.3452 -0.8684  0.9081
  422MOL0     H55677   5.947   0.507   8.327  2.6905  0.1655  2.1499
  422MOL0     H55678   5.971   0.258   8.246 -1.4226  2.4484 -0.1484
  422MOL0     H55679   6.070   0.313   8.381 -0.8025  1.7112  0.2138
  422MOL0     H55680   6.238   0.384   8.181 -0.4448  1.4628 -0.8223
  422MOL0     H55681   6.135   0.295   8.075  2.9333  1.6581  0.0901
  422MOL0     H55682   6.228   0.165   8.329 -2.9261 -2.6851 -0.0091
  422MOL0     H55683   6.160   0.091   8.189  1.9507 -1.2029 -0.0140
  422MOL0     H55684   6.369   0.176   8.051  0.2885 -0.4862 -0.0673
  422MOL0     H55685   6.403   0.059   8.176  1.3707  0.4482 -0.0281
  422MOL0     H55686   6.151   0.750   8.346 -3.1054  0.4459 -0.2613
  422MOL0     H55687   6.379   0.870   8.324 -1.7055 -3.6140  1.2460
  422MOL0     H55688   6.640   1.105   7.976 -0.1423 -0.2763 -1.1667
  422MOL0     H55689   6.824   1.227   7.913 -0.9895 -1.0358  0.5165
  422MOL0     H55690   8.665   1.845   7.492  2.1966 -0.4188 -0.1903
  422MOL0     H55691   8.889   1.798   7.587 -2.9572 -0.5340  4.3086
  422MOL0     H55692   9.405   2.153   7.643 -3.9349  1.8749  1.4803
  422MOL0     H55693   9.571   2.199   7.822  0.0543 -0.3047 -0.8642
  422MOL0     H55694   9.717   2.191   7.968  1.8102  2.6218  2.8875
  422MOL0     H55695   9.683   2.019   8.028 -4.1157 -1.1355  0.9586
  422MOL0     H55696   9.716   2.286   8.188  0.3659  1.5486 -1.8130
  422MOL0     H55697   9.741   2.123   8.254 -0.7228  0.2685 -0.2643
  422MOL0     H55698   9.939   2.279   8.222  0.2358  1.3612 -0.5497
  422MOL0     H55699   9.895   2.307   8.057 -1.0539 -0.1738  0.6429
  422MOL0     H55700   9.952   2.077   8.004  0.9772 -0.6177  0.1499
  422MOL0     H55701  10.090   2.160   8.068 -0.3232 -0.4623 -1.0018
  422MOL0     H55702  10.016   1.844   8.356  4.1534  1.7153  0.7265
  422MOL0     H55703   9.293   2.066   8.116  2.2852  1.0603 -0.1127
  422MOL0     H55704   9.121   2.037   7.938  0.7814 -0.5264 -0.0749
  423MOL0     O55705   4.773   0.439   1.414  0.0365 -0.1229  0.2363
  423MOL0     C55706   4.766   0.329   1.466 -0.7071  0.5908  0.8384
  423MOL0     O55707   4.654   0.244   1.466  0.2888  0.3538  0.4105
  423MOL0     C55708   4.545   0.292   1.391 -1.1337 -0.8002 -0.7234
  423MOL0     C55709   4.533   0.247   1.261  0.8472 -0.1882 -0.3144
  423MOL0     C55710   4.444   0.321   1.178 -0.2866  0.8585 -0.2023
  423MOL0     C55711   4.366   0.425   1.227 -0.7733 -0.2609  0.4406
  423MOL0     O55712   4.265   0.495   1.156 -0.4456 -0.0918 -0.2197
  423MOL0     C55713   4.288   0.479   1.019  0.7131  0.2279 -0.1884
  423MOL0     C55714   4.196   0.575   0.944 -0.0678 -0.5268 -0.5731
  423MOL0     C55715   4.054   0.524   0.952  0.8721 -0.3817  0.3645
  423MOL0     C55716   3.965   0.613   0.871  0.9685  0.5203  0.3823
  423MOL0     C55717   3.817   0.584   0.899 -0.2412 -0.1904 -0.0695
  423MOL0     C55718   3.728   0.608   0.778  0.0760 -0.5056 -0.0996
  423MOL0     C55719   3.582   0.591   0.848 -1.2295  0.2662  0.0085
  423MOL0     C55720   3.471   0.545   0.755  0.2903 -0.4304 -0.4951
  423MOL0     N55721   3.350   0.628   0.725  0.1575 -0.2273 -0.4517
  423MOL0     C55722   3.295   0.739   0.789 -1.0495  0.3182  0.3807
  423MOL0     C55723   3.185   0.783   0.726 -0.1047 -0.0710 -0.3001
  423MOL0     C55724   3.093   0.894   0.774 -0.3347 -0.5148  0.0987
  423MOL0     C55725   3.144   0.980   0.885 -0.2831 -0.4290 -0.0013
  423MOL0     C55726   3.220   1.105   0.836  0.6499 -0.6102 -0.8229
  423MOL0     C55727   3.352   1.081   0.754  0.1160 -0.6456 -0.7232
  423MOL0     O55728   3.449   1.030   0.852  0.2004  0.3857  1.2905
  423MOL0     C55729   3.573   1.010   0.797  0.2702 -0.8490 -0.6714
  423MOL0     C55730   3.616   1.018   0.664  0.4418 -0.9567  0.1448
  423MOL0     C55731   3.745   0.994   0.624  0.2324  0.1966 -0.1945
  423MOL0     C55732   3.846   0.968   0.723  0.1299  0.3294  0.1907
  423MOL0     C55733   3.991   0.955   0.681 -0.3599  0.1089 -0.2369
  423MOL0     O55734   4.078   0.931   0.786  0.5079 -0.6312  0.6359
  423MOL0     C55735   4.206   0.894   0.752  0.3341  0.2854  0.5823
  423MOL0     C55736   4.245   0.819   0.639 -0.1174  0.7494  0.2642
  423MOL0     C55737   4.377   0.773   0.630  0.5785  0.4882  0.2845
  423MOL0     C55738   4.469   0.787   0.723  0.1606 -0.2692  0.1704
  423MOL0     O55739   4.595   0.732   0.703 -0.6601  0.5928  0.4722
  423MOL0     C55740   4.693   0.745   0.814 -0.0801 -1.0089  0.2935
  423MOL0     C55741   4.829   0.692   0.779 -0.4038  0.0698 -0.2146
  423MOL0     C55742   4.879   0.757   0.646  0.5109 -0.3685 -1.3313
  423MOL0     C55743   5.019   0.717   0.612 -0.8825 -0.1647 -0.0363
  423MOL0     C55744   5.056   0.737   0.462  0.9864 -0.1218 -0.6642
  423MOL0     C55745   5.199   0.722   0.424  0.3662 -0.3266 -0.5685
  423MOL0     C55746   5.256   0.587   0.454 -0.2701 -0.4019 -0.5992
  423MOL0     C55747   5.398   0.551   0.397  0.8135  0.7852 -0.3037
  423MOL0    Cl55748   5.508   0.684   0.412 -0.3049 -0.4640  0.1904
  423MOL0     C55749   4.434   0.864   0.834 -0.4310 -0.5169 -0.3568
  423MOL0     C55750   4.305   0.907   0.857 -0.8907 -0.1504 -0.2433
  423MOL0     O55751   4.014   0.965   0.559  0.3938  0.0061 -0.8009
  423MOL0     C55752   3.802   0.955   0.855  0.1711 -0.3018 -0.3846
  423MOL0     C55753   3.675   0.979   0.891  0.5366 -0.0980  0.8968
  423MOL0     N55754   3.165   0.694   0.619  0.0043 -0.2763  0.4572
  423MOL0     N55755   3.266   0.599   0.631  0.3877  0.2439 -0.0223
  423MOL0     C55756   4.385   0.473   1.360  0.5056  1.2906 -0.7592
  423MOL0     C55757   4.481   0.410   1.441  0.4759  1.1638  0.6149
  423MOL0     C55758   4.895   0.278   1.529 -0.1877  0.2826  0.6536
  423MOL0     C55759   5.005   0.359   1.549  0.2993 -0.4468  0.0154
  423MOL0     C55760   5.107   0.318   1.628 -0.0727  0.0325 -0.1838
  423MOL0     C55761   5.113   0.191   1.686 -0.3829  0.4934 -0.7252
  423MOL0     O55762   5.215   0.153   1.769  0.1789  0.4806  1.1275
  423MOL0     C55763   5.245   0.242   1.879 -0.0428 -0.8858  0.2411
  423MOL0     C55764   5.217   0.179   2.012  0.2899 -0.1798  0.9539
  423MOL0     C55765   5.066   0.150   2.030 -0.5174  0.5491  0.4034
  423MOL0     C55766   5.045   0.098   2.167 -0.5300 -0.2281 -0.0291
  423MOL0     C55767   4.905   0.058   2.200 -0.0701 -0.6477  0.5922
  423MOL0     C55768   4.798   0.014   2.224 -0.1858  0.2271 -0.0462
  423MOL0     C55769   5.004   0.101   1.659 -0.9666  0.0749  0.2935
  423MOL0     C55770   4.898   0.147   1.587  0.0329 -0.3948 -0.3013
  423MOL0     H55771   4.580   0.158   1.221  0.7786 -2.1102  3.4205
  423MOL0     H55772   4.438   0.293   1.073  2.3705  0.1026 -0.2313
  423MOL0     H55773   4.263   0.378   0.986  0.1882 -0.2311  1.5066
  423MOL0     H55774   4.386   0.499   0.976  0.9463 -1.3269 -0.4214
  423MOL0     H55775   4.233   0.571   0.841  3.0308 -4.5730  0.4365
  423MOL0     H55776   4.214   0.673   0.989  0.3352 -0.1522 -1.5326
  423MOL0     H55777   4.027   0.531   1.057 -0.5417 -1.1803  0.0858
  423MOL0     H55778   4.048   0.424   0.907  0.8289  0.3854 -1.4175
  423MOL0     H55779   3.986   0.718   0.892 -2.0353  1.3724 -0.4918
  423MOL0     H55780   3.981   0.617   0.762 -3.9279  0.8393 -0.5298
  423MOL0     H55781   3.795   0.648   0.985 -4.0696 -1.3634  0.0333
  423MOL0     H55782   3.799   0.484   0.939 -1.0531  0.6078  1.6777
  423MOL0     H55783   3.735   0.526   0.706  1.3648 -0.0819 -0.4882
  423MOL0     H55784   3.742   0.706   0.732 -0.8902 -0.5498 -0.5200
  423MOL0     H55785   3.577   0.526   0.935 -0.5809  0.7615  0.4321
  423MOL0     H55786   3.563   0.692   0.886 -3.5380  0.2585 -0.9617
  423MOL0     H55787   3.418   0.456   0.791 -3.0195  2.4155  2.3996
  423MOL0     H55788   3.512   0.525   0.656  2.1937  1.2204 -0.1029
  423MOL0     H55789   3.323   0.765   0.891 -3.8428  0.9869  1.0759
  423MOL0     H55790   3.000   0.852   0.814 -1.3902  0.4052 -1.2822
  423MOL0     H55791   3.069   0.949   0.683  1.2736 -1.1223 -0.7263
  423MOL0     H55792   3.216   0.927   0.947 -0.8897 -2.0758 -0.6504
  423MOL0     H55793   3.058   1.004   0.947  0.6705  1.0781  0.8029
  423MOL0     H55794   3.152   1.165   0.776 -0.3837  0.7815  1.5642
  423MOL0     H55795   3.248   1.158   0.928  0.8772 -1.4823 -0.3770
  423MOL0     H55796   3.385   1.175   0.708  0.9442  0.4456  1.9146
  423MOL0     H55797   3.336   1.008   0.674  0.4825 -1.7953  0.2268
  423MOL0     H55798   3.559   1.036   0.574 -0.6880  0.7680  1.1642
  423MOL0     H55799   3.768   0.999   0.518 -4.1245  0.7064 -1.3121
  423MOL0     H55800   4.172   0.803   0.560 -2.1491  2.5403  1.6526
  423MOL0     H55801   4.417   0.720   0.544  0.5969  0.4666  0.3067
  423MOL0     H55802   4.654   0.682   0.895 -0.8401 -2.8151 -1.3834
  423MOL0     H55803   4.699   0.850   0.844 -1.9910 -0.1809 -1.8862
  423MOL0     H55804   4.817   0.583   0.774 -1.5638  0.1815  0.0065
  423MOL0     H55805   4.886   0.723   0.867 -0.5727 -0.8820  0.2498
  423MOL0     H55806   4.882   0.866   0.655 -0.4116 -0.3372 -1.3427
  423MOL0     H55807   4.814   0.725   0.565  1.8830 -2.8114 -1.5634
  423MOL0     H55808   5.093   0.770   0.672 -0.7587  0.3150 -0.6158
  423MOL0     H55809   5.024   0.610   0.638 -0.6135 -0.3341 -0.7723
  423MOL0     H55810   5.016   0.832   0.426 -0.1713  0.0050  0.8884
  423MOL0     H55811   4.998   0.666   0.403  0.3005 -0.9681  0.9561
  423MOL0     H55812   5.262   0.795   0.476  1.3565 -0.3945 -1.6536
  423MOL0     H55813   5.208   0.747   0.318 -0.9855 -1.4585 -0.9765
  423MOL0     H55814   5.272   0.580   0.563  3.0217  1.3377 -0.8172
  423MOL0     H55815   5.183   0.509   0.432 -1.1897  0.0036  0.8523
  423MOL0     H55816   5.375   0.529   0.292 -0.3714  2.6134 -0.4555
  423MOL0     H55817   5.428   0.456   0.442  0.0024  0.7236  0.1293
  423MOL0     H55818   4.510   0.895   0.905  0.8451 -0.5206 -1.6879
  423MOL0     H55819   4.266   0.973   0.933 -1.8181 -0.0726 -0.7645
  423MOL0     H55820   3.871   0.933   0.935 -0.5339  0.3379  0.4187
  423MOL0     H55821   3.642   0.968   0.994 -3.4127  1.9361  0.0576
  423MOL0     H55822   4.328   0.554   1.405 -2.3069 -1.4574  1.0768
  423MOL0     H55823   4.506   0.438   1.542  4.0404  1.6211 -0.2432
  423MOL0     H55824   4.998   0.463   1.519 -0.8508 -0.6034 -0.2789
  423MOL0     H55825   5.196   0.376   1.652 -1.3405  1.9849  0.0167
  423MOL0     H55826   5.185   0.333   1.876 -0.6824 -1.3107 -0.1173
  423MOL0     H55827   5.352   0.267   1.873  0.0341 -0.5965  2.2122
  423MOL0     H55828   5.268   0.082   2.009  0.8445  0.1219 -1.0692
  423MOL0     H55829   5.257   0.230   2.100  3.4906  0.7304 -0.8365
  423MOL0     H55830   5.039   0.073   1.956  0.4515 -0.6695  1.2717
  423MOL0     H55831   5.002   0.235   2.008  0.4624  1.1691 -0.1580
  423MOL0     H55832   5.113   0.014   2.188 -2.2302 -1.4460  0.8641
  423MOL0     H55833   5.079   0.185   2.223 -2.5148  1.6996 -1.6299
  423MOL0     H55834   4.706  -0.032   2.254  0.2035  0.5694  1.7765
  423MOL0     H55835   5.005   0.002   1.703 -1.1585  1.1130  2.7839
  423MOL0     H55836   4.815   0.079   1.569 -0.6549  0.3807 -0.1300
  424MOL0     O55837   9.850   9.768   7.462 -0.3642 -0.0605  0.1655
  424MOL0     C55838   9.745   9.825   7.458  0.6155  0.0142  0.3850
  424MOL0     O55839   9.734   9.963   7.434 -0.1854 -0.1666  0.4823
  424MOL0     C55840   9.827  10.023   7.355  0.3181 -0.3427 -0.3263
  424MOL0     C55841   9.803  10.035   7.216  0.8600 -0.0649  0.5409
  424MOL0     C55842   9.894  10.106   7.133 -0.5650 -0.1878  0.0402
  424MOL0     C55843  10.016  10.140   7.183 -0.8058 -0.5137  0.5644
  424MOL0     O55844  10.106  10.194   7.092  0.1105  0.4934  0.1539
  424MOL0     C55845  10.228  10.257   7.138  0.2217 -0.1921 -0.4218
  424MOL0     C55846  10.263  10.388   7.055  0.2299  0.1106 -0.5423
  424MOL0     C55847  10.387  10.462   7.106 -0.5020 -0.5704 -0.6502
  424MOL0     C55848  10.487  10.471   6.995  0.5923 -0.2962  0.0488
  424MOL0     C55849  10.621  10.535   7.039  0.5832  0.3052  0.3111
  424MOL0     C55850  10.713  10.561   6.910 -0.4952  0.3082 -0.0806
  424MOL0     C55851  10.839  10.641   6.964  0.8001  1.2023  0.1923
  424MOL0     C55852  10.937  10.666   6.849 -0.1289 -0.0359  0.6176
  424MOL0     N55853  11.058  10.723   6.901  0.0630  0.4549  0.0633
  424MOL0     C55854  11.169  10.650   6.920  0.0557  0.0374 -0.2268
  424MOL0     C55855  11.272  10.734   6.921  0.6658  0.8536 -0.8235
  424MOL0     C55856  11.417  10.687   6.934  0.0654 -0.7052 -0.4268
  424MOL0     C55857  11.508  10.794   6.903 -0.5484 -0.6509  0.6350
  424MOL0     C55858  11.538  10.893   7.022 -0.6732  0.2898 -0.7261
  424MOL0     C55859  11.645  10.836   7.110  0.3327 -0.3213  0.0279
  424MOL0     O55860  11.659  10.924   7.220  0.0661  0.4081 -0.2538
  424MOL0     C55861  11.765  10.890   7.308 -0.5832 -0.1790 -0.3773
  424MOL0     C55862  11.881  10.965   7.297 -0.4127 -0.6686  0.1522
  424MOL0     C55863  11.988  10.941   7.373 -0.3174  0.4252  0.5218
  424MOL0     C55864  12.003  10.823   7.444 -0.0063  0.0765  0.2062
  424MOL0     C55865  12.125  10.788   7.509  0.5835  0.2208  0.0593
  424MOL0     O55866  12.233  10.860   7.470  0.8329 -0.6620 -0.2856
  424MOL0     C55867  12.359  10.848   7.532 -0.4642 -0.0487  0.5639
  424MOL0     C55868  12.394  10.853   7.665 -0.4004  0.1763  0.1259
  424MOL0     C55869  12.530  10.829   7.708 -0.1577  0.1223  0.6691
  424MOL0     C55870  12.641  10.813   7.624 -0.4764 -0.5675 -0.0689
  424MOL0     O55871  12.775  10.811   7.666 -0.0385  0.3421 -0.1452
  424MOL0     C55872  12.801  10.816   7.807  0.5269 -0.0355  0.1855
  424MOL0     C55873  12.954  10.811   7.841  0.6699  0.0691  0.4176
  424MOL0     C55874  12.985  10.841   7.983 -0.2166 -0.5561 -0.1768
  424MOL0     C55875  13.141  10.826   8.010 -0.2523 -0.6786 -0.1984
  424MOL0     C55876  13.160  10.841   8.158  0.1168 -0.6623 -0.3329
  424MOL0     C55877  13.309  10.817   8.200  0.1518  0.2092 -0.0685
  424MOL0     C55878  13.301  10.765   8.347 -0.6218 -0.5086  0.5036
  424MOL0     C55879  13.445  10.775   8.406 -0.4824 -0.5482  0.3249
  424MOL0    Cl55880  13.476  10.706   8.561  0.1722 -0.0228 -0.0991
  424MOL0     C55881  12.608  10.808   7.491 -0.2327  0.0220  0.4153
  424MOL0     C55882  12.472  10.826   7.444 -0.0249 -0.3733  0.5270
  424MOL0     O55883  12.134  10.678   7.564  0.0380  0.6809  0.0231
  424MOL0     C55884  11.886  10.740   7.454 -0.5460  0.2028  0.6027
  424MOL0     C55885  11.766  10.778   7.392 -0.1863 -1.2433  0.2617
  424MOL0     N55886  11.219  10.865   6.918  0.1919  1.1274 -0.0563
  424MOL0     N55887  11.088  10.854   6.903 -0.5148  0.3722  0.1131
  424MOL0     C55888  10.045  10.124   7.317  0.8214 -0.1028 -0.5242
  424MOL0     C55889   9.951  10.072   7.408 -0.0384  0.4071  0.0696
  424MOL0     C55890   9.621   9.737   7.475  0.3511  0.0749  0.4021
  424MOL0     C55891   9.492   9.792   7.489  0.0162  0.0769  0.7926
  424MOL0     C55892   9.381   9.711   7.509  0.3253  0.8691 -0.5289
  424MOL0     C55893   9.388   9.577   7.519 -0.4374  0.6408  0.7286
  424MOL0     O55894   9.269   9.514   7.530 -0.8931 -0.2319 -0.3995
  424MOL0     C55895   9.267   9.375   7.540  0.5045  0.8601 -0.4809
  424MOL0     C55896   9.136   9.329   7.613  0.6224 -0.1878  0.1972
  424MOL0     C55897   9.011   9.369   7.530  0.4661 -0.2371  0.0904
  424MOL0     C55898   8.890   9.273   7.561  0.3783  0.6789  0.3123
  424MOL0     C55899   8.855   9.275   7.705 -0.5501  0.2856  0.1343
  424MOL0     C55900   8.851   9.292   7.828  0.5493  0.2025  0.6961
  424MOL0     C55901   9.517   9.517   7.499  0.0584  0.0774 -0.2223
  424MOL0     C55902   9.630   9.595   7.466  0.3912  0.2168 -0.6486
  424MOL0     H55903   9.709  10.016   7.165 -0.5782  1.0539  2.5848
  424MOL0     H55904   9.865  10.134   7.032 -0.3485  1.5968  0.4454
  424MOL0     H55905  10.304  10.179   7.131 -3.8097 -4.5294 -1.0190
  424MOL0     H55906  10.225  10.299   7.239  1.9549  1.4261 -0.9945
  424MOL0     H55907  10.177  10.455   7.061 -0.3774 -0.6776 -0.2769
  424MOL0     H55908  10.275  10.359   6.950 -2.0940 -0.5563 -0.6766
  424MOL0     H55909  10.429  10.410   7.193 -1.2177  0.8332  0.5635
  424MOL0     H55910  10.350  10.560   7.135  1.5246  0.8280 -2.4392
  424MOL0     H55911  10.506  10.368   6.964  2.2092 -0.0860  0.2637
  424MOL0     H55912  10.435  10.520   6.911  1.1924 -0.0415 -0.1781
  424MOL0     H55913  10.668  10.479   7.120 -0.5264 -1.9192 -0.4943
  424MOL0     H55914  10.593  10.628   7.089  1.2794  0.5478  0.2517
  424MOL0     H55915  10.659  10.617   6.833 -0.5510  2.0702  1.1586
  424MOL0     H55916  10.754  10.467   6.874 -0.6853 -2.2560  5.3743
  424MOL0     H55917  10.801  10.731   7.012 -1.2016  1.4803 -1.7350
  424MOL0     H55918  10.887  10.584   7.044 -0.7326 -0.4855 -0.0184
  424MOL0     H55919  10.895  10.735   6.775  0.5181 -1.2725 -0.9485
  424MOL0     H55920  10.954  10.579   6.786 -1.6414  1.6334 -2.3300
  424MOL0     H55921  11.166  10.541   6.918  2.4060 -0.1059  0.7968
  424MOL0     H55922  11.425  10.606   6.861  2.0926 -1.8099  0.9473
  424MOL0     H55923  11.438  10.641   7.031  1.5605  1.0091  0.1259
  424MOL0     H55924  11.467  10.847   6.816  0.4562 -0.6592  0.1294
  424MOL0     H55925  11.605  10.757   6.867  0.6918  1.7846  1.2967
  424MOL0     H55926  11.575  10.990   6.988  0.4103  0.5042  0.9237
  424MOL0     H55927  11.439  10.915   7.063  0.5184  2.0572  1.4123
  424MOL0     H55928  11.734  10.838   7.046 -0.8923 -2.7141 -1.9259
  424MOL0     H55929  11.617  10.738   7.149  1.6351 -0.3622  0.9115
  424MOL0     H55930  11.886  11.053   7.234 -2.6262 -0.1267  0.6667
  424MOL0     H55931  12.066  11.014   7.353 -1.1305  1.2745  0.3739
  424MOL0     H55932  12.314  10.848   7.738 -1.4342  0.1282 -0.9855
  424MOL0     H55933  12.538  10.817   7.815 -1.4114  0.4502  0.8238
  424MOL0     H55934  12.765  10.722   7.848  1.2403  0.5193  2.1845
  424MOL0     H55935  12.743  10.895   7.856  0.1757 -0.6724  0.8086
  424MOL0     H55936  13.004  10.883   7.775  1.1998 -2.1870 -1.8115
  424MOL0     H55937  12.987  10.709   7.820  1.2110  0.1991  0.6242
  424MOL0     H55938  12.924  10.769   8.038  0.2241 -0.5421  0.3370
  424MOL0     H55939  12.950  10.939   8.017  1.7436 -1.2434  4.5742
  424MOL0     H55940  13.181  10.731   7.973  1.3618 -0.5575  1.1410
  424MOL0     H55941  13.209  10.894   7.959  1.4542 -2.1821 -0.0280
  424MOL0     H55942  13.087  10.783   8.214 -0.4068  1.2615  1.0831
  424MOL0     H55943  13.140  10.946   8.180 -1.2892 -1.2750  1.5957
  424MOL0     H55944  13.368  10.909   8.190  1.2984 -0.5199 -0.0857
  424MOL0     H55945  13.344  10.733   8.140 -0.1551 -1.4984  1.9942
  424MOL0     H55946  13.230  10.831   8.397 -4.3150 -2.3987 -1.7735
  424MOL0     H55947  13.256  10.666   8.353 -1.8271  0.1205  3.8201
  424MOL0     H55948  13.490  10.875   8.402 -0.5101 -0.5813 -1.7128
  424MOL0     H55949  13.515  10.714   8.347 -0.4218 -0.6226  0.4718
  424MOL0     H55950  12.692  10.795   7.424 -1.0749 -0.8560 -0.5271
  424MOL0     H55951  12.458  10.822   7.337  0.4244  0.1062  0.4450
  424MOL0     H55952  11.891  10.655   7.521  2.1544 -0.0811  0.1473
  424MOL0     H55953  11.676  10.719   7.403 -1.0833  0.0205 -0.0505
  424MOL0     H55954  10.143  10.159   7.348 -0.1344  1.0719  1.3255
  424MOL0     H55955   9.970  10.059   7.514 -1.6021 -0.5199  0.2669
  424MOL0     H55956   9.478   9.897   7.465  1.8224 -0.0552 -1.1707
  424MOL0     H55957   9.278   9.745   7.506 -0.1663 -0.5747 -2.4482
  424MOL0     H55958   9.349   9.338   7.603  0.5938 -1.2197 -1.7361
  424MOL0     H55959   9.272   9.336   7.438  0.3821  3.7854 -1.7070
  424MOL0     H55960   9.123   9.221   7.628  0.1062 -0.1205  0.2776
  424MOL0     H55961   9.134   9.383   7.708 -2.5915  0.3939 -0.0794
  424MOL0     H55962   9.036   9.347   7.425 -1.3317 -1.2202 -0.1581
  424MOL0     H55963   8.999   9.478   7.536 -1.1356 -0.2631 -1.6571
  424MOL0     H55964   8.810   9.300   7.493  0.9284 -0.0210 -0.6298
  424MOL0     H55965   8.921   9.175   7.526 -1.7744 -0.4268  1.3035
  424MOL0     H55966   8.823   9.314   7.929 -0.0224  0.0085  0.5848
  424MOL0     H55967   9.528   9.409   7.507 -0.2478  0.1314  1.0137
  424MOL0     H55968   9.726   9.546   7.453  0.2308 -0.8834  1.8956
  425MOL0     O55969   1.040   2.683  11.235 -0.0466 -0.0441  0.7778
  425MOL0     C55970   1.099   2.621  11.144  0.4910 -0.0811  0.0142
  425MOL0     O55971   1.049   2.496  11.102  0.8043 -0.7753  0.0359
  425MOL0     C55972   0.932   2.467  11.174 -0.5252 -0.5983  0.5064
  425MOL0     C55973   0.803   2.517  11.146  0.3386 -0.4422 -0.2106
  425MOL0     C55974   0.696   2.471  11.220  0.0069  0.2512  0.9082
  425MOL0     C55975   0.706   2.377  11.320 -0.0286  0.7934 -0.1406
  425MOL0     O55976   0.587   2.350  11.388 -0.0438 -0.4497 -0.8814
  425MOL0     C55977   0.602   2.303  11.523 -0.3660 -0.1644 -0.3291
  425MOL0     C55978   0.455   2.286  11.574 -0.3407  0.6387  0.5021
  425MOL0     C55979   0.389   2.161  11.535  1.4473 -0.1652 -0.6139
  425MOL0     C55980   0.262   2.143  11.617  0.9221 -0.5324  0.4862
  425MOL0     C55981   0.177   2.027  11.555 -0.3352 -0.4749 -0.4547
  425MOL0     C55982   0.045   1.997  11.623 -0.0538  1.6481  0.2553
  425MOL0     C55983  -0.026   1.886  11.547  0.0655  0.2127  0.6851
  425MOL0     C55984  -0.133   1.821  11.641 -0.1411  0.5059  1.0214
  425MOL0     N55985  -0.237   1.752  11.557  0.3331 -0.6882 -0.5120
  425MOL0     C55986  -0.341   1.814  11.493 -0.8047 -0.2427 -0.0894
  425MOL0     C55987  -0.410   1.710  11.433 -0.3014  0.4645  0.6216
  425MOL0     C55988  -0.546   1.739  11.372  0.0211 -0.2538  0.0474
  425MOL0     C55989  -0.652   1.704  11.472 -0.0211 -0.8242 -0.1782
  425MOL0     C55990  -0.786   1.686  11.394 -0.3546  1.0136  0.0036
  425MOL0     C55991  -0.900   1.633  11.460 -0.2334 -0.7956  0.3979
  425MOL0     O55992  -0.884   1.498  11.502 -0.2789 -0.1564 -0.1648
  425MOL0     C55993  -1.007   1.443  11.540 -0.3991  1.1157 -1.3398
  425MOL0     C55994  -1.124   1.519  11.582 -0.6417  0.7425  0.5500
  425MOL0     C55995  -1.241   1.448  11.626 -0.6060 -0.0435 -1.0771
  425MOL0     C55996  -1.259   1.310  11.611 -0.5742 -0.2383  0.2742
  425MOL0     C55997  -1.390   1.257  11.655  0.4534  0.7246 -0.1467
  425MOL0     O55998  -1.482   1.339  11.716  0.4332  0.4777 -0.2731
  425MOL0     C55999  -1.615   1.323  11.729 -0.2747  0.2875  0.9689
  425MOL0     C56000  -1.697   1.380  11.824  0.0229  0.7556 -0.2861
  425MOL0     C56001  -1.831   1.355  11.836  0.5360  0.8055  0.1758
  425MOL0     C56002  -1.896   1.254  11.757 -0.7408 -0.0102  0.6365
  425MOL0     O56003  -2.028   1.239  11.770  1.0310  0.1976  0.4220
  425MOL0     C56004  -2.099   1.131  11.714 -0.7552  0.0294 -1.0088
  425MOL0     C56005  -2.225   1.102  11.785 -0.0036 -0.1669 -0.5455
  425MOL0     C56006  -2.316   1.219  11.772  0.1659 -0.3486  0.0390
  425MOL0     C56007  -2.462   1.168  11.778 -0.5543  0.3767  0.0213
  425MOL0     C56008  -2.550   1.294  11.797  0.7427 -0.4199 -1.1176
  425MOL0     C56009  -2.699   1.265  11.825  0.3870 -0.1318  0.0455
  425MOL0     C56010  -2.757   1.185  11.707 -0.2728  1.3803 -0.6002
  425MOL0     C56011  -2.898   1.227  11.672 -0.4099 -1.6969 -0.5592
  425MOL0    Cl56012  -2.999   1.201  11.822  0.1856 -0.5526 -0.1767
  425MOL0     C56013  -1.815   1.191  11.657  0.1161 -0.6525  0.5173
  425MOL0     C56014  -1.687   1.233  11.635 -0.4803  0.5060  0.1847
  425MOL0     O56015  -1.414   1.138  11.622 -0.5094 -0.1906 -0.4934
  425MOL0     C56016  -1.147   1.234  11.557 -0.4864 -0.4703  0.0594
  425MOL0     C56017  -1.025   1.306  11.530 -0.1954 -0.2392  0.0248
  425MOL0     N56018  -0.351   1.585  11.455 -0.0817 -0.2082  0.4300
  425MOL0     N56019  -0.250   1.620  11.528 -0.2642  0.4419 -0.7604
  425MOL0     C56020   0.830   2.327  11.348  0.8208  0.1994  0.9753
  425MOL0     C56021   0.938   2.362  11.272  0.3342 -0.2438 -0.5201
  425MOL0     C56022   1.227   2.681  11.084  0.0072  0.5272 -1.4955
  425MOL0     C56023   1.289   2.801  11.136  0.4848 -0.3246  0.0367
  425MOL0     C56024   1.418   2.830  11.086  0.5678 -0.1030 -0.6090
  425MOL0     C56025   1.468   2.769  10.972  0.8553  0.5842 -0.1623
  425MOL0     O56026   1.586   2.817  10.927 -0.0426 -0.2311  0.0709
  425MOL0     C56027   1.608   2.827  10.787 -0.4278 -0.2056  1.0322
  425MOL0     C56028   1.546   2.945  10.709  0.3070 -0.2523  0.0379
  425MOL0     C56029   1.634   3.036  10.627  0.4410 -0.0967  0.2483
  425MOL0     C56030   1.714   3.142  10.702  0.9999  0.4385  0.6495
  425MOL0     C56031   1.791   3.208  10.601 -0.3193 -0.6110  1.7796
  425MOL0     C56032   1.855   3.247  10.501 -0.3072  0.6533  0.7087
  425MOL0     C56033   1.396   2.654  10.921 -0.0107 -0.0489 -0.3086
  425MOL0     C56034   1.281   2.607  10.980  0.1606 -0.7491  0.2914
  425MOL0     H56035   0.790   2.602  11.080  2.6611 -1.6337 -2.4057
  425MOL0     H56036   0.602   2.523  11.202  0.1581  1.3552  2.9518
  425MOL0     H56037   0.651   2.386  11.575 -1.5909  1.8713 -2.2275
  425MOL0     H56038   0.657   2.208  11.531  1.8134  1.0276 -0.3003
  425MOL0     H56039   0.398   2.375  11.548  0.8469  1.5919  1.0653
  425MOL0     H56040   0.458   2.292  11.683  0.0303  1.0892  0.4688
  425MOL0     H56041   0.445   2.068  11.531 -2.8203 -2.9743 -2.9176
  425MOL0     H56042   0.356   2.173  11.431  0.8804 -3.5504 -0.9337
  425MOL0     H56043   0.276   2.122  11.723 -3.4265  3.2445  2.1048
  425MOL0     H56044   0.208   2.237  11.605  1.2959 -0.4683 -0.8799
  425MOL0     H56045   0.239   1.937  11.566 -0.8627 -0.7707  0.1805
  425MOL0     H56046   0.159   2.032  11.448  0.0539  0.8652 -0.4690
  425MOL0     H56047  -0.019   2.084  11.609  0.7479  2.0405 -1.1925
  425MOL0     H56048   0.050   1.959  11.725  0.0764 -0.4425 -0.4773
  425MOL0     H56049  -0.068   1.925  11.454 -4.8229  1.2844  3.0086
  425MOL0     H56050   0.044   1.807  11.519  2.3142  2.3752 -0.1572
  425MOL0     H56051  -0.186   1.900  11.695 -0.2944  2.3442 -1.5967
  425MOL0     H56052  -0.087   1.748  11.707 -0.1910  0.2495  0.7774
  425MOL0     H56053  -0.372   1.918  11.500  1.0141  0.5249 -2.2165
  425MOL0     H56054  -0.546   1.679  11.281  2.8219  2.0564 -1.6829
  425MOL0     H56055  -0.556   1.841  11.333 -0.9296 -0.1508  0.5287
  425MOL0     H56056  -0.656   1.787  11.543 -1.1278  0.7848 -2.0257
  425MOL0     H56057  -0.626   1.610  11.522  0.4072 -1.5455 -1.7001
  425MOL0     H56058  -0.815   1.787  11.362 -0.3293  0.6309 -1.2842
  425MOL0     H56059  -0.780   1.627  11.302 -3.0750 -0.7077  0.7798
  425MOL0     H56060  -0.985   1.635  11.391  0.6336 -0.1916 -0.6945
  425MOL0     H56061  -0.916   1.693  11.550 -0.8562  4.2314 -2.6823
  425MOL0     H56062  -1.134   1.625  11.601  0.8740  0.4885  3.3329
  425MOL0     H56063  -1.328   1.498  11.669 -0.3050 -0.2718 -0.1911
  425MOL0     H56064  -1.652   1.448  11.895 -1.8580 -0.0697  1.8277
  425MOL0     H56065  -1.890   1.420  11.900 -1.9226 -0.3902 -0.7106
  425MOL0     H56066  -2.038   1.040  11.714 -1.1963 -0.2735 -0.5980
  425MOL0     H56067  -2.132   1.157  11.613 -1.3457  1.2752 -0.5203
  425MOL0     H56068  -2.203   1.083  11.891  3.1573 -1.3488 -1.3134
  425MOL0     H56069  -2.267   1.009  11.745 -0.0421 -0.4646  0.1699
  425MOL0     H56070  -2.294   1.294  11.694 -1.1686  2.6576  2.3296
  425MOL0     H56071  -2.318   1.288  11.857 -2.1762  1.0359 -1.0250
  425MOL0     H56072  -2.481   1.117  11.684  2.1705 -0.4380 -0.1673
  425MOL0     H56073  -2.471   1.097  11.861 -3.8377  0.9277  0.2729
  425MOL0     H56074  -2.540   1.356  11.708 -2.3811 -2.1397 -2.8562
  425MOL0     H56075  -2.514   1.367  11.870 -0.6874 -1.3368  0.5864
  425MOL0     H56076  -2.757   1.357  11.835  1.4868  0.6069 -0.2115
  425MOL0     H56077  -2.722   1.203  11.913 -1.9958  0.8040  0.1423
  425MOL0     H56078  -2.701   1.192  11.613 -2.1777 -1.0097 -2.0548
  425MOL0     H56079  -2.762   1.083  11.746 -0.9864  1.4643 -0.4634
  425MOL0     H56080  -2.945   1.159  11.600 -1.9405 -1.4819  0.2068
  425MOL0     H56081  -2.899   1.332  11.641  1.6906 -0.5996  2.5867
  425MOL0     H56082  -1.855   1.108  11.599 -2.1468 -1.7862  3.4499
  425MOL0     H56083  -1.637   1.185  11.552 -3.4201 -1.6385 -0.4944
  425MOL0     H56084  -1.145   1.127  11.539  2.3721 -0.3095 -1.1278
  425MOL0     H56085  -0.936   1.255  11.497 -0.1816 -0.0065 -0.3025
  425MOL0     H56086   0.835   2.251  11.425  1.1565  2.5715  3.4392
  425MOL0     H56087   1.035   2.320  11.298 -0.2067 -2.1775 -1.4512
  425MOL0     H56088   1.241   2.866  11.208 -1.4111  0.5999 -1.9450
  425MOL0     H56089   1.476   2.916  11.118 -0.7890 -0.1587  2.3340
  425MOL0     H56090   1.562   2.739  10.742  1.1175 -0.7278  0.4351
  425MOL0     H56091   1.713   2.836  10.760 -0.7932 -1.4990 -0.9839
  425MOL0     H56092   1.471   2.909  10.639 -0.6111  0.8928  0.3837
  425MOL0     H56093   1.500   3.012  10.783  1.4862  0.9938 -0.3031
  425MOL0     H56094   1.570   3.095  10.560  3.1777  0.3002 -2.2272
  425MOL0     H56095   1.703   2.970  10.573 -0.8261 -0.8275 -0.5227
  425MOL0     H56096   1.635   3.196  10.755 -0.7312 -1.4162  0.0727
  425MOL0     H56097   1.785   3.105  10.776  4.7981  2.5655 -1.6181
  425MOL0     H56098   1.914   3.285  10.420  0.1064 -0.2796  0.5628
  425MOL0     H56099   1.427   2.594  10.835  0.1503  0.5777 -0.6937
  425MOL0     H56100   1.222   2.524  10.941 -1.2987  0.4289 -0.0889
  426MOL0     O56101   7.434   2.951   4.404  0.2144  0.1067  0.9682
  426MOL0     C56102   7.469   2.959   4.283  1.1122  0.5533 -0.1354
  426MOL0     O56103   7.385   2.939   4.176  0.4581  1.8578 -0.6685
  426MOL0     C56104   7.251   2.907   4.207 -0.1338  0.3177  0.7487
  426MOL0     C56105   7.162   3.012   4.232 -0.5142  0.0913  0.4595
  426MOL0     C56106   7.023   2.987   4.233 -0.8416  0.5865 -0.6515
  426MOL0     C56107   6.980   2.859   4.210  0.3711  1.5332 -0.0448
  426MOL0     O56108   6.843   2.846   4.194 -0.1298 -0.1405 -0.1378
  426MOL0     C56109   6.785   2.740   4.120 -0.0047  0.5439 -1.3702
  426MOL0     C56110   6.646   2.778   4.079  0.5773 -0.4439 -0.3379
  426MOL0     C56111   6.641   2.895   3.980 -0.7921  0.1765  0.2237
  426MOL0     C56112   6.614   2.857   3.829  0.1736 -0.7192 -0.2630
  426MOL0     C56113   6.727   2.768   3.785  0.6117 -0.9449  0.3946
  426MOL0     C56114   6.707   2.728   3.634 -0.2448 -0.0414 -0.0215
  426MOL0     C56115   6.756   2.843   3.547  0.2686 -0.4235  0.5662
  426MOL0     C56116   6.748   2.812   3.397 -0.6235  0.6497  0.2977
  426MOL0     N56117   6.851   2.720   3.353  0.4863 -0.1107 -0.5566
  426MOL0     C56118   6.976   2.760   3.315  0.1985  0.5384  0.1384
  426MOL0     C56119   7.030   2.649   3.260 -0.8277 -0.0574  0.6851
  426MOL0     C56120   7.164   2.631   3.188 -0.1942  0.0405 -1.1936
  426MOL0     C56121   7.265   2.552   3.275  0.0397 -0.9308 -0.8194
  426MOL0     C56122   7.400   2.567   3.223  0.4829 -0.0892 -0.2406
  426MOL0     C56123   7.496   2.521   3.330 -0.1320 -0.1335 -0.6236
  426MOL0     O56124   7.494   2.613   3.446  0.2792 -0.1902 -0.1611
  426MOL0     C56125   7.613   2.656   3.500 -0.7393  0.5932 -0.2130
  426MOL0     C56126   7.607   2.775   3.560  0.0430  0.2054 -0.9502
  426MOL0     C56127   7.716   2.844   3.607 -0.5687  0.6340 -0.7515
  426MOL0     C56128   7.845   2.776   3.609  0.4325 -0.0270 -0.0746
  426MOL0     C56129   7.954   2.856   3.668 -0.2515 -0.1872 -0.3919
  426MOL0     O56130   8.080   2.807   3.628  0.5531  0.3667 -0.8106
  426MOL0     C56131   8.183   2.858   3.700 -0.1651 -0.3493  0.0304
  426MOL0     C56132   8.273   2.794   3.778  0.4684  0.3446  0.9123
  426MOL0     C56133   8.382   2.850   3.849  0.1672  0.7756 -0.4573
  426MOL0     C56134   8.391   2.998   3.839 -0.4202 -0.0203  0.4969
  426MOL0     O56135   8.487   3.065   3.909 -0.1524  0.2093  0.4012
  426MOL0     C56136   8.520   3.016   4.038  0.3239 -0.3400 -0.3466
  426MOL0     C56137   8.564   3.129   4.129  0.3850  0.2945 -0.8259
  426MOL0     C56138   8.642   3.244   4.066 -1.2267  0.1550 -0.3670
  426MOL0     C56139   8.779   3.185   4.042  0.3851 -0.3125  0.4059
  426MOL0     C56140   8.867   3.272   3.957  0.0102 -0.2891  0.1981
  426MOL0     C56141   9.019   3.277   3.998 -0.6485 -0.1817  0.5877
  426MOL0     C56142   9.093   3.387   3.926 -0.0852 -0.6885  0.6772
  426MOL0     C56143   9.107   3.375   3.778  0.7189 -0.0680  0.6199
  426MOL0    Cl56144   9.162   3.531   3.727  0.1847 -0.4620  0.2044
  426MOL0     C56145   8.305   3.069   3.757  0.2775  0.7989  0.6256
  426MOL0     C56146   8.204   3.001   3.685  0.2327 -0.0297 -0.4919
  426MOL0     O56147   7.935   2.951   3.744 -0.5833  0.0400 -0.2362
  426MOL0     C56148   7.849   2.647   3.552 -0.4557  0.3144 -0.5554
  426MOL0     C56149   7.734   2.577   3.502  0.0415 -0.1563  0.5857
  426MOL0     N56150   6.939   2.543   3.261  0.3506 -0.0650  0.4883
  426MOL0     N56151   6.829   2.588   3.319  0.0599 -0.0324 -0.2489
  426MOL0     C56152   7.067   2.757   4.199  0.6380 -0.6325  0.7286
  426MOL0     C56153   7.204   2.776   4.186  0.5217  1.3845 -0.0370
  426MOL0     C56154   7.611   2.976   4.263  0.1728 -0.0927 -0.0217
  426MOL0     C56155   7.708   2.951   4.363  0.0164  0.7978  0.0687
  426MOL0     C56156   7.847   2.961   4.335 -0.7883  0.1105 -0.3910
  426MOL0     C56157   7.892   2.973   4.203 -1.4634 -0.2290  0.5041
  426MOL0     O56158   8.030   2.970   4.180  0.6375 -0.2072 -0.0003
  426MOL0     C56159   8.101   3.037   4.069  0.0256  0.2130 -0.6577
  426MOL0     C56160   8.100   3.185   4.067 -0.0807  0.5080 -0.6221
  426MOL0     C56161   8.132   3.253   4.204 -0.1357  0.7462  0.5667
  426MOL0     C56162   8.157   3.401   4.183 -0.6085 -0.0918 -0.0364
  426MOL0     C56163   8.022   3.459   4.172  0.6103 -0.6679  0.3384
  426MOL0     C56164   7.912   3.505   4.159  0.0777  0.1541  0.1214
  426MOL0     C56165   7.801   3.004   4.109 -0.5046 -0.1514  0.0567
  426MOL0     C56166   7.662   2.999   4.135  0.2438 -0.1015 -0.4589
  426MOL0     H56167   7.210   3.107   4.252  2.2780 -0.8387 -1.2584
  426MOL0     H56168   6.945   3.063   4.238 -1.6481 -0.1896 -1.0439
  426MOL0     H56169   6.775   2.661   4.195  2.3224 -0.0810 -1.6360
  426MOL0     H56170   6.854   2.701   4.044  1.4002  0.3055 -0.0411
  426MOL0     H56171   6.588   2.814   4.165 -0.0005  0.1973 -0.9754
  426MOL0     H56172   6.592   2.689   4.045 -1.8523 -0.1969  2.4670
  426MOL0     H56173   6.738   2.943   3.972  0.4667 -2.0166  1.2965
  426MOL0     H56174   6.562   2.964   4.011 -0.9837  0.4118 -0.7578
  426MOL0     H56175   6.523   2.799   3.813  0.8939 -1.7055 -0.8920
  426MOL0     H56176   6.601   2.950   3.772 -0.5958 -0.6711 -0.0234
  426MOL0     H56177   6.722   2.673   3.839  1.6815 -3.4149 -3.4320
  426MOL0     H56178   6.820   2.821   3.807 -0.1891  0.5359  0.3308
  426MOL0     H56179   6.600   2.719   3.610 -0.1612 -0.9413 -0.0807
  426MOL0     H56180   6.761   2.636   3.609 -2.8452 -1.3660 -1.2788
  426MOL0     H56181   6.689   2.929   3.554 -2.1135 -2.2138  1.3946
  426MOL0     H56182   6.857   2.865   3.581  0.6579 -3.4401  1.7243
  426MOL0     H56183   6.761   2.907   3.343 -1.2034  1.0817  0.9164
  426MOL0     H56184   6.647   2.785   3.366 -1.1368  1.1124  1.5156
  426MOL0     H56185   7.022   2.858   3.322  0.1444  0.6701 -1.2423
  426MOL0     H56186   7.201   2.732   3.170 -0.8678  0.4874 -0.1532
  426MOL0     H56187   7.154   2.576   3.094  2.7041 -3.4346  0.2821
  426MOL0     H56188   7.239   2.447   3.292  2.7592 -1.7823 -1.4781
  426MOL0     H56189   7.259   2.589   3.378 -0.4990  1.4898 -1.6641
  426MOL0     H56190   7.414   2.497   3.140  1.9369 -2.7753  2.1058
  426MOL0     H56191   7.412   2.667   3.181 -2.7840  1.4662  2.1080
  426MOL0     H56192   7.597   2.509   3.289 -0.7861  0.3046 -2.4499
  426MOL0     H56193   7.461   2.420   3.353 -2.9049  0.5919 -1.3268
  426MOL0     H56194   7.513   2.827   3.575  1.9600  3.4618  0.8107
  426MOL0     H56195   7.708   2.950   3.625  3.0980  1.1693 -1.4732
  426MOL0     H56196   8.247   2.689   3.791 -0.9848  0.9908  4.4960
  426MOL0     H56197   8.457   2.800   3.909 -0.8076 -0.1948 -0.0210
  426MOL0     H56198   8.589   2.931   4.029 -0.4366 -1.1764  1.2786
  426MOL0     H56199   8.428   2.979   4.082  0.9305 -2.8025 -0.9585
  426MOL0     H56200   8.625   3.104   4.215 -1.3068 -0.0259  0.3306
  426MOL0     H56201   8.470   3.166   4.172 -1.5641 -2.8113 -2.0365
  426MOL0     H56202   8.655   3.331   4.131  0.3403  0.8244 -1.5096
  426MOL0     H56203   8.595   3.279   3.974 -0.5669 -0.3945 -0.9222
  426MOL0     H56204   8.830   3.173   4.139 -1.5649 -0.4806  1.4543
  426MOL0     H56205   8.781   3.086   3.997  0.3638 -0.1623  0.0726
  426MOL0     H56206   8.835   3.377   3.964  1.2811  0.2318 -1.2766
  426MOL0     H56207   8.852   3.253   3.851  0.8988 -0.0070  0.0154
  426MOL0     H56208   9.070   3.182   3.976 -1.2248 -0.0174 -1.6939
  426MOL0     H56209   9.017   3.300   4.105 -0.8381  3.9812 -0.1655
  426MOL0     H56210   9.034   3.478   3.944  0.9848 -0.1838  1.8279
  426MOL0     H56211   9.199   3.401   3.951  0.5622  1.9178 -2.7116
  426MOL0     H56212   9.019   3.333   3.728  1.8649  0.9566 -2.4835
  426MOL0     H56213   9.170   3.288   3.757 -0.8623 -1.4527  1.3697
  426MOL0     H56214   8.320   3.176   3.752 -0.8857  1.0737  2.2390
  426MOL0     H56215   8.150   3.055   3.608 -1.2585 -2.3894 -1.1943
  426MOL0     H56216   7.947   2.601   3.545 -0.7810 -0.3379 -1.0502
  426MOL0     H56217   7.728   2.475   3.467 -0.8203  0.7933 -2.2991
  426MOL0     H56218   7.032   2.655   4.189  2.2374 -1.0713 -0.8237
  426MOL0     H56219   7.263   2.688   4.160 -0.0694  0.6374  1.0675
  426MOL0     H56220   7.679   2.934   4.466 -1.5888  1.6794 -0.2129
  426MOL0     H56221   7.918   2.947   4.416 -2.0270 -1.9311  0.4102
  426MOL0     H56222   8.072   2.990   3.975 -2.6807 -2.0808  1.1461
  426MOL0     H56223   8.204   3.005   4.080 -0.2387 -1.5371 -2.6443
  426MOL0     H56224   8.187   3.209   4.006  0.5650 -1.0286 -0.3590
  426MOL0     H56225   8.012   3.229   4.019  0.8770  1.2493 -1.7480
  426MOL0     H56226   8.225   3.208   4.241  0.9975  1.5497 -1.1770
  426MOL0     H56227   8.057   3.225   4.279  2.8104 -1.0492  3.0747
  426MOL0     H56228   8.212   3.445   4.267  2.6287 -1.7726 -1.0838
  426MOL0     H56229   8.220   3.415   4.095 -1.0072  1.1564 -0.1401
  426MOL0     H56230   7.815   3.549   4.165  0.8403  1.7146  3.4270
  426MOL0     H56231   7.814   3.015   4.002  0.0105  0.6699  0.1901
  426MOL0     H56232   7.589   3.008   4.055 -0.9918 -1.7471  0.4262
  427MOL0     O56233   6.895   6.280   4.005 -0.2957  0.7983 -0.2144
  427MOL0     C56234   6.924   6.252   3.890 -0.0783 -0.0840  0.0428
  427MOL0     O56235   6.845   6.195   3.799 -0.0058  0.3549  0.5555
  427MOL0     C56236   6.704   6.213   3.802 -0.3755  0.4182 -0.8944
  427MOL0     C56237   6.641   6.125   3.721  0.4930  0.4705 -0.0981
  427MOL0     C56238   6.497   6.125   3.713 -0.5660 -0.6186  0.2260
  427MOL0     C56239   6.418   6.218   3.785  0.0497  0.4748  0.2187
  427MOL0     O56240   6.279   6.224   3.780  0.2646  0.4516 -0.2450
  427MOL0     C56241   6.219   6.142   3.670 -0.4493 -0.3353 -0.3168
  427MOL0     C56242   6.074   6.152   3.673 -0.0768 -0.3030 -0.3174
  427MOL0     C56243   6.026   6.081   3.801 -0.5823  0.6914 -0.5020
  427MOL0     C56244   5.873   6.097   3.819  0.6870 -0.5636  0.1103
  427MOL0     C56245   5.815   6.105   3.959 -0.3416  0.6299  0.4241
  427MOL0     C56246   5.809   5.967   4.025  0.2871 -0.6507 -0.2888
  427MOL0     C56247   5.748   5.980   4.170 -0.6301 -0.1715 -0.4344
  427MOL0     C56248   5.754   5.843   4.245  0.5270 -0.0813  1.1671
  427MOL0     N56249   5.857   5.741   4.205  0.3366  0.2374 -0.2075
  427MOL0     C56250   5.983   5.731   4.255  0.4620 -0.6746  0.0083
  427MOL0     C56251   6.022   5.609   4.217  0.6815 -0.2154 -0.3476
  427MOL0     C56252   6.158   5.543   4.254  0.2489  0.2798  0.5138
  427MOL0     C56253   6.179   5.522   4.404  0.6313 -0.3787 -0.6529
  427MOL0     C56254   6.271   5.412   4.445  1.0800  0.0931 -0.1401
  427MOL0     C56255   6.412   5.438   4.413 -0.0190  0.2575  0.8465
  427MOL0     O56256   6.463   5.572   4.411 -0.1160 -0.0158  0.2808
  427MOL0     C56257   6.595   5.578   4.415 -0.1229  0.4275  0.3808
  427MOL0     C56258   6.654   5.633   4.524  0.1673 -0.8841 -0.1865
  427MOL0     C56259   6.800   5.632   4.533 -0.6614 -0.9516 -0.2432
  427MOL0     C56260   6.884   5.584   4.432  0.7093  0.1740 -0.3822
  427MOL0     C56261   7.032   5.584   4.432 -0.3146  0.2571 -0.3279
  427MOL0     O56262   7.091   5.531   4.318 -0.2042  0.2126 -0.1222
  427MOL0     C56263   7.234   5.541   4.320  0.9135  0.5302 -0.1829
  427MOL0     C56264   7.320   5.474   4.412  0.1417 -0.1364  0.5803
  427MOL0     C56265   7.457   5.481   4.407 -0.0393 -0.5268 -0.1843
  427MOL0     C56266   7.512   5.569   4.314  0.7312 -0.6623  0.5343
  427MOL0     O56267   7.646   5.589   4.335  0.1114  0.2583  0.1915
  427MOL0     C56268   7.706   5.704   4.271 -0.0596  0.2459  0.3757
  427MOL0     C56269   7.858   5.695   4.301 -0.0419  1.2425 -0.0736
  427MOL0     C56270   7.936   5.627   4.191 -0.2165  0.1771 -0.0736
  427MOL0     C56271   8.090   5.605   4.225 -0.5536 -0.5140  0.3408
  427MOL0     C56272   8.153   5.504   4.136 -0.1382 -0.4738 -0.2589
  427MOL0     C56273   8.308   5.510   4.141 -0.4234  0.3363 -0.2890
  427MOL0     C56274   8.361   5.389   4.058  0.1453 -0.6448  0.1543
  427MOL0     C56275   8.515   5.381   4.036  0.2768 -0.4994  0.7309
  427MOL0    Cl56276   8.565   5.555   3.980  0.0548 -0.8236  0.1023
  427MOL0     C56277   7.427   5.647   4.224 -0.1864  0.4073 -0.4574
  427MOL0     C56278   7.294   5.627   4.223  0.0232  0.7850 -0.6773
  427MOL0     O56279   7.090   5.634   4.526 -0.0276 -0.2572 -0.3383
  427MOL0     C56280   6.816   5.533   4.323  0.0956  0.0291  0.4825
  427MOL0     C56281   6.668   5.526   4.315 -0.4423  0.5090 -0.5897
  427MOL0     N56282   5.921   5.543   4.141 -0.2926  0.2626  0.0592
  427MOL0     N56283   5.820   5.624   4.142  0.1717  0.2998  0.2209
  427MOL0     C56284   6.486   6.313   3.858  0.1847 -0.0911 -0.2254
  427MOL0     C56285   6.629   6.316   3.865 -0.0732  0.3279 -0.4050
  427MOL0     C56286   7.063   6.287   3.844  0.4247 -0.4435  0.1289
  427MOL0     C56287   7.087   6.288   3.701  0.6695 -1.3856 -0.2260
  427MOL0     C56288   7.218   6.327   3.655  0.4560 -0.0464 -0.2218
  427MOL0     C56289   7.315   6.370   3.750  0.9997 -0.5730 -0.2097
  427MOL0     O56290   7.431   6.412   3.690  0.1278  0.4868  0.5036
  427MOL0     C56291   7.559   6.418   3.755 -0.9168 -0.0331  0.3885
  427MOL0     C56292   7.669   6.388   3.664 -0.7609  0.4023 -0.0770
  427MOL0     C56293   7.802   6.432   3.728  0.2391  0.3336  0.3299
  427MOL0     C56294   7.818   6.580   3.744  1.4313 -0.5186 -0.8504
  427MOL0     C56295   7.956   6.629   3.767  0.1458  0.6098  0.8577
  427MOL0     C56296   8.069   6.659   3.746  0.1903 -0.9454  0.9274
  427MOL0     C56297   7.287   6.355   3.884 -0.3753  0.1147 -1.2704
  427MOL0     C56298   7.170   6.318   3.934 -0.3966 -0.6864 -0.0737
  427MOL0     H56299   6.700   6.058   3.660  3.3143  0.8339  2.0064
  427MOL0     H56300   6.450   6.059   3.641 -2.5030  1.2478 -0.3393
  427MOL0     H56301   6.238   6.036   3.687 -2.1659 -0.5633  0.4447
  427MOL0     H56302   6.261   6.168   3.573 -2.7751  0.5515 -1.1578
  427MOL0     H56303   6.044   6.090   3.588  0.1322 -1.2459  0.2894
  427MOL0     H56304   6.029   6.251   3.669  3.3124  1.3421 -2.6965
  427MOL0     H56305   6.076   6.125   3.888 -0.2295 -0.2121 -0.2328
  427MOL0     H56306   6.052   5.975   3.808 -2.4213  0.2319  0.1084
  427MOL0     H56307   5.844   6.197   3.786  0.2254 -0.6231  0.3236
  427MOL0     H56308   5.819   6.033   3.749  1.5067 -1.0265 -0.1145
  427MOL0     H56309   5.710   6.136   3.957 -1.2204 -1.7778  2.7568
  427MOL0     H56310   5.882   6.175   4.009  3.4723  0.1627 -3.4430
  427MOL0     H56311   5.910   5.924   4.026  0.7892  0.4142  1.6729
  427MOL0     H56312   5.737   5.917   3.960 -0.7176  1.4328 -0.8872
  427MOL0     H56313   5.814   6.052   4.218 -0.8183 -0.4285  0.2198
  427MOL0     H56314   5.645   6.012   4.182 -0.9651 -1.8621  1.8441
  427MOL0     H56315   5.653   5.806   4.225  0.4118 -0.4402  2.3377
  427MOL0     H56316   5.762   5.857   4.353  2.1940  2.8852  0.7471
  427MOL0     H56317   6.021   5.798   4.332 -3.2211  0.6497  0.9013
  427MOL0     H56318   6.242   5.598   4.209  1.5258 -1.4252  0.7155
  427MOL0     H56319   6.147   5.447   4.204 -1.3608  0.8000 -0.1875
  427MOL0     H56320   6.078   5.498   4.437  0.2267 -0.6162 -2.0013
  427MOL0     H56321   6.200   5.612   4.463 -1.5110  0.7109 -1.4241
  427MOL0     H56322   6.255   5.416   4.554 -3.0462 -1.4456 -0.5067
  427MOL0     H56323   6.227   5.315   4.419 -2.9873  1.9683 -1.0572
  427MOL0     H56324   6.434   5.390   4.318 -0.2404  1.4709  0.1668
  427MOL0     H56325   6.473   5.383   4.485  0.8455  0.8702  0.5976
  427MOL0     H56326   6.596   5.683   4.601 -1.6259 -3.4535  0.2765
  427MOL0     H56327   6.858   5.680   4.611 -0.1584 -3.0628  0.7642
  427MOL0     H56328   7.283   5.402   4.484 -0.1005 -0.6697 -0.0623
  427MOL0     H56329   7.518   5.420   4.472  2.1742 -0.8523 -2.4110
  427MOL0     H56330   7.663   5.787   4.329 -1.4837  1.2274 -1.9441
  427MOL0     H56331   7.694   5.706   4.163 -2.3300  1.5527  0.5913
  427MOL0     H56332   7.879   5.639   4.393  0.1747  0.3654 -0.6501
  427MOL0     H56333   7.902   5.794   4.320 -0.7842  1.6234 -0.3151
  427MOL0     H56334   7.927   5.690   4.103 -4.4810  1.3579  1.0023
  427MOL0     H56335   7.889   5.532   4.164 -1.6242 -0.4511  3.9037
  427MOL0     H56336   8.135   5.704   4.227  0.2223 -0.7502 -1.9431
  427MOL0     H56337   8.100   5.568   4.327 -0.2370 -2.8796 -0.4743
  427MOL0     H56338   8.123   5.519   4.032 -0.8970  0.1363  0.0409
  427MOL0     H56339   8.110   5.411   4.175  2.0566 -0.9274  1.2808
  427MOL0     H56340   8.345   5.523   4.243  0.3375 -1.8139 -0.2278
  427MOL0     H56341   8.351   5.602   4.100  3.1100 -0.5078  1.1232
  427MOL0     H56342   8.332   5.295   4.106 -0.0073 -0.9454 -0.5128
  427MOL0     H56343   8.311   5.383   3.961 -0.6493  0.4191  0.4853
  427MOL0     H56344   8.541   5.305   3.961  0.6348  0.3468 -0.0215
  427MOL0     H56345   8.565   5.368   4.132  0.2053 -1.8146  0.6181
  427MOL0     H56346   7.466   5.709   4.144 -1.1396  1.4394 -0.1465
  427MOL0     H56347   7.226   5.680   4.158  0.2979  2.5736  0.4371
  427MOL0     H56348   6.873   5.488   4.243 -1.4457  0.0502 -0.6825
  427MOL0     H56349   6.613   5.478   4.234  0.6854 -0.5893 -0.7443
  427MOL0     H56350   6.426   6.379   3.921  0.0025  0.1002 -0.5915
  427MOL0     H56351   6.688   6.385   3.924  0.0940  0.0795 -0.2837
  427MOL0     H56352   6.998   6.282   3.640 -0.9546 -1.2153  2.0175
  427MOL0     H56353   7.231   6.337   3.548 -0.6836  0.3752 -0.3374
  427MOL0     H56354   7.568   6.355   3.845 -3.6079  0.0509  0.8122
  427MOL0     H56355   7.561   6.521   3.792 -0.1739  0.0370  0.1628
  427MOL0     H56356   7.667   6.283   3.637 -1.2031  0.1893  0.7345
  427MOL0     H56357   7.654   6.431   3.564 -1.6742  1.0098  0.3026
  427MOL0     H56358   7.878   6.399   3.657 -0.3293 -1.3569  0.4548
  427MOL0     H56359   7.824   6.375   3.819 -0.2315 -0.3754  0.0148
  427MOL0     H56360   7.776   6.626   3.655 -2.4703  1.3977  1.7137
  427MOL0     H56361   7.752   6.622   3.821 -1.9350 -3.5461 -1.8026
  427MOL0     H56362   8.170   6.684   3.719  0.0243 -0.6886  0.5242
  427MOL0     H56363   7.357   6.397   3.956  0.9743  0.1675 -2.5690
  427MOL0     H56364   7.148   6.306   4.040  0.1580 -2.2946 -0.1090
  428MOL0     O56365   6.328  11.127   0.047  0.2902  0.2538 -0.0278
  428MOL0     C56366   6.437  11.101  -0.007 -0.1204  0.3479 -0.2426
  428MOL0     O56367   6.479  10.976  -0.039 -0.3718 -0.2647  0.7883
  428MOL0     C56368   6.431  10.864   0.021  0.3895  0.3627  0.4900
  428MOL0     C56369   6.437  10.743  -0.052  0.1872  0.2803  0.5313
  428MOL0     C56370   6.391  10.618  -0.003 -0.9420 -0.4307  0.2640
  428MOL0     C56371   6.328  10.621   0.120  0.7589 -0.4250 -0.0348
  428MOL0     O56372   6.280  10.514   0.186 -0.3565 -0.2036  0.2524
  428MOL0     C56373   6.173  10.441   0.122 -0.0894  0.6619  0.2311
  428MOL0     C56374   6.131  10.325   0.217 -0.1872  0.3969  0.3499
  428MOL0     C56375   6.077  10.384   0.350 -0.8426  0.1793 -0.5202
  428MOL0     C56376   6.015  10.275   0.425 -0.4964  0.2246  0.3937
  428MOL0     C56377   5.913  10.315   0.536  0.6885 -0.7288  0.1194
  428MOL0     C56378   5.815  10.205   0.574 -0.1633  0.3806  0.5655
  428MOL0     C56379   5.763  10.225   0.727 -0.5784 -0.6901  0.3378
  428MOL0     C56380   5.660  10.122   0.764  0.0665 -0.0404  0.1655
  428MOL0     N56381   5.591  10.160   0.886  0.3389  0.9146 -0.6289
  428MOL0     C56382   5.653  10.193   1.005  0.7861 -0.6042 -0.2033
  428MOL0     C56383   5.544  10.234   1.074  0.1194  0.6063 -0.0667
  428MOL0     C56384   5.558  10.301   1.209  0.1747  0.1085 -0.2226
  428MOL0     C56385   5.555  10.211   1.328 -0.5356  0.3644 -0.8700
  428MOL0     C56386   5.519  10.309   1.447 -0.2019 -0.1919 -0.1131
  428MOL0     C56387   5.536  10.236   1.581  0.1957 -0.6206  0.2190
  428MOL0     O56388   5.471  10.111   1.576  0.1555  0.3880  0.9739
  428MOL0     C56389   5.496  10.016   1.677  0.0723 -0.0774  0.1976
  428MOL0     C56390   5.405   9.903   1.681  0.1713 -0.0827  0.2289
  428MOL0     C56391   5.429   9.804   1.782 -0.5414  1.0133 -0.0893
  428MOL0     C56392   5.539   9.807   1.867  0.5455  0.4495 -0.4673
  428MOL0     C56393   5.565   9.701   1.972 -0.2291 -0.4030  1.0636
  428MOL0     O56394   5.673   9.728   2.057  0.2208  0.4002 -0.8233
  428MOL0     C56395   5.691   9.644   2.164  0.1518  0.2619  0.0303
  428MOL0     C56396   5.679   9.500   2.164 -0.3188 -0.1257 -0.2885
  428MOL0     C56397   5.715   9.428   2.284 -0.3988  0.0368  1.2973
  428MOL0     C56398   5.780   9.489   2.387  0.0111  0.2645  0.6059
  428MOL0     O56399   5.823   9.409   2.487 -0.4968  0.1176  0.6624
  428MOL0     C56400   5.961   9.424   2.534 -0.0740  0.0239  0.6057
  428MOL0     C56401   5.977   9.341   2.662  0.3518 -0.1403  0.4201
  428MOL0     C56402   5.981   9.190   2.637 -0.1715 -0.1258  0.8640
  428MOL0     C56403   6.057   9.117   2.751  0.8518 -0.0392  0.2110
  428MOL0     C56404   6.214   9.136   2.730  0.0586 -0.4657 -0.5151
  428MOL0     C56405   6.295   9.043   2.823 -0.5674  0.6040  0.8252
  428MOL0     C56406   6.442   9.085   2.838  0.0897  0.0640  0.7141
  428MOL0     C56407   6.532   9.019   2.738 -0.1499 -0.1260 -0.3483
  428MOL0    Cl56408   6.699   9.089   2.752  0.1732  0.0908  0.0648
  428MOL0     C56409   5.792   9.629   2.385  0.7133 -0.0646  0.0012
  428MOL0     C56410   5.748   9.702   2.278  0.3849 -0.0838 -0.3112
  428MOL0     O56411   5.486   9.605   1.976  0.0466  0.5441 -0.1504
  428MOL0     C56412   5.632   9.911   1.855 -0.2749 -0.6492  0.0276
  428MOL0     C56413   5.613  10.008   1.758 -0.3588 -0.7688 -0.4786
  428MOL0     N56414   5.426  10.216   1.009 -0.3840  0.0323  0.2297
  428MOL0     N56415   5.453  10.170   0.897 -0.0911  0.4322 -0.1805
  428MOL0     C56416   6.315  10.739   0.196 -0.5968 -0.1464  0.7800
  428MOL0     C56417   6.360  10.859   0.141  0.0320 -0.7110  0.0513
  428MOL0     C56418   6.521  11.217  -0.055 -0.2665 -0.0546 -0.6869
  428MOL0     C56419   6.518  11.354  -0.019  0.4819 -1.0744 -0.0838
  428MOL0     C56420   6.611  11.445  -0.084  0.7972 -0.0605 -0.2062
  428MOL0     C56421   6.705  11.408  -0.180  0.6937  0.5680 -0.1434
  428MOL0     O56422   6.789  11.510  -0.216  0.3281 -0.0051 -0.4377
  428MOL0     C56423   6.890  11.477  -0.319  0.3055  1.2349  0.0277
  428MOL0     C56424   6.926  11.601  -0.396 -0.4903  0.0820  0.8162
  428MOL0     C56425   6.809  11.649  -0.481 -0.3802 -0.1117 -0.7872
  428MOL0     C56426   6.837  11.775  -0.555 -0.8447 -0.3678  0.3278
  428MOL0     C56427   6.717  11.807  -0.632  0.0691  0.7635  0.4822
  428MOL0     C56428   6.625  11.832  -0.707 -1.2103  0.7457 -0.2860
  428MOL0     C56429   6.696  11.272  -0.215  0.7251 -0.3571  0.0993
  428MOL0     C56430   6.621  11.184  -0.153 -0.9988  0.1346 -0.0867
  428MOL0     H56431   6.470  10.747  -0.155 -0.5591 -2.9491  0.0685
  428MOL0     H56432   6.402  10.525  -0.057  2.5769 -1.9290  3.2042
  428MOL0     H56433   6.215  10.414   0.024  3.9179  1.6434  1.4565
  428MOL0     H56434   6.087  10.507   0.108  1.5225  2.8742  0.2449
  428MOL0     H56435   6.221  10.267   0.237 -0.1508 -0.0757 -1.0632
  428MOL0     H56436   6.057  10.262   0.167 -1.8501  1.0753  1.8229
  428MOL0     H56437   6.007  10.464   0.324 -0.3606  0.0349 -2.3942
  428MOL0     H56438   6.148  10.442   0.409 -2.6643  2.7925 -0.7056
  428MOL0     H56439   5.965  10.216   0.347 -1.0053  0.5043  0.5008
  428MOL0     H56440   6.084  10.210   0.479 -1.2553 -0.2958  0.7410
  428MOL0     H56441   5.851  10.404   0.524 -0.1622 -1.4352 -0.9779
  428MOL0     H56442   5.968  10.343   0.627 -2.0321  0.8215  1.4177
  428MOL0     H56443   5.845  10.100   0.561 -0.3917  0.6142 -2.4310
  428MOL0     H56444   5.731  10.221   0.506  0.5639  0.4603 -0.3270
  428MOL0     H56445   5.848  10.215   0.796  0.3122 -1.4188 -0.8256
  428MOL0     H56446   5.728  10.328   0.741 -1.0486 -0.8197  0.0970
  428MOL0     H56447   5.718  10.031   0.784  0.1572  0.1409  0.7238
  428MOL0     H56448   5.591  10.106   0.681 -0.3246 -0.7991  0.6318
  428MOL0     H56449   5.756  10.198   1.037  0.1786  1.1236  1.6477
  428MOL0     H56450   5.466  10.358   1.224 -1.0974 -1.5860 -1.2792
  428MOL0     H56451   5.642  10.372   1.209  1.7449 -1.6472 -0.2198
  428MOL0     H56452   5.650  10.157   1.338  1.2165  3.2703 -0.8138
  428MOL0     H56453   5.471  10.146   1.301  0.8290 -1.1822 -1.6143
  428MOL0     H56454   5.595  10.387   1.448  0.2992 -0.6350 -1.1654
  428MOL0     H56455   5.420  10.354   1.448 -0.3945 -0.6121  0.1552
  428MOL0     H56456   5.507  10.293   1.669  2.4053 -0.1797  0.7271
  428MOL0     H56457   5.644  10.221   1.592  0.7418  2.0454 -0.6972
  428MOL0     H56458   5.317   9.898   1.618 -0.7484  0.8970  1.3637
  428MOL0     H56459   5.347   9.732   1.788 -1.8546  2.5610  2.6947
  428MOL0     H56460   5.636   9.461   2.073 -4.0877  3.3878 -0.3027
  428MOL0     H56461   5.718   9.319   2.279  2.1318  0.0977 -3.7006
  428MOL0     H56462   5.991   9.527   2.555 -0.0189 -0.2568  2.0092
  428MOL0     H56463   6.028   9.383   2.458 -1.1007 -2.0207  0.7549
  428MOL0     H56464   5.899   9.370   2.733  0.5264 -1.4609  1.1742
  428MOL0     H56465   6.065   9.376   2.716  0.9205 -0.8428 -0.0291
  428MOL0     H56466   6.039   9.161   2.548  1.8237 -1.4102  2.5062
  428MOL0     H56467   5.881   9.146   2.633  0.4396 -1.5901 -2.8440
  428MOL0     H56468   6.019   9.141   2.851  0.4158 -0.9304  0.2672
  428MOL0     H56469   6.037   9.010   2.738  2.2192 -0.3657  0.6051
  428MOL0     H56470   6.245   9.238   2.751  1.5542 -1.3481  2.0621
  428MOL0     H56471   6.239   9.096   2.631  3.3084 -2.0772  0.8247
  428MOL0     H56472   6.276   8.946   2.778  3.1199  0.1631 -0.1115
  428MOL0     H56473   6.258   9.045   2.926 -0.4054  0.9495  0.8787
  428MOL0     H56474   6.459   9.192   2.824 -0.0954  0.0068  0.0157
  428MOL0     H56475   6.477   9.065   2.940  3.3618 -1.2958 -0.5414
  428MOL0     H56476   6.485   9.026   2.640  1.5780 -2.7457 -1.4945
  428MOL0     H56477   6.543   8.912   2.757  0.5954 -0.2237 -1.2620
  428MOL0     H56478   5.840   9.677   2.471  0.0887  0.3609  0.1200
  428MOL0     H56479   5.776   9.807   2.280 -2.1108  0.6382 -0.6943
  428MOL0     H56480   5.728   9.920   1.905 -0.6811 -0.3467  0.7804
  428MOL0     H56481   5.678  10.095   1.763  1.8056 -2.3578  1.4974
  428MOL0     H56482   6.260  10.728   0.289 -0.0533 -2.9573  0.8372
  428MOL0     H56483   6.333  10.944   0.203 -1.6576  0.1702 -1.7684
  428MOL0     H56484   6.450  11.400   0.053  0.2978  0.1524 -1.0080
  428MOL0     H56485   6.607  11.545  -0.042  0.5253 -0.0353 -0.2926
  428MOL0     H56486   6.854  11.404  -0.392 -1.1681 -1.9255  3.5648
  428MOL0     H56487   6.982  11.443  -0.272 -0.2820 -1.2311 -0.4613
  428MOL0     H56488   6.961  11.671  -0.320  2.0352 -0.1916 -0.0104
  428MOL0     H56489   7.013  11.577  -0.458 -1.4637  0.7143 -0.8524
  428MOL0     H56490   6.728  11.660  -0.409  0.7018  3.6682  0.0641
  428MOL0     H56491   6.790  11.570  -0.555 -3.7995  1.4201 -1.7338
  428MOL0     H56492   6.857  11.860  -0.489 -0.5978 -0.9962  1.0737
  428MOL0     H56493   6.927  11.768  -0.617 -2.0406 -0.2531 -1.5238
  428MOL0     H56494   6.545  11.841  -0.777 -1.5023  4.2399  0.3443
  428MOL0     H56495   6.764  11.230  -0.289  0.2050  1.9016 -1.7954
  428MOL0     H56496   6.619  11.081  -0.185 -0.9715 -0.3544  1.4014
  429MOL0     O56497   0.676   1.935   6.499 -0.2049  0.9861  0.5666
  429MOL0     C56498   0.732   1.956   6.605  0.1772 -0.6267 -0.3087
  429MOL0     O56499   0.680   2.029   6.711  0.4652  0.6853  0.7670
  429MOL0     C56500   0.546   2.061   6.708 -0.1986 -0.3834  0.0416
  429MOL0     C56501   0.450   1.956   6.722 -0.2332 -0.0506  0.0235
  429MOL0     C56502   0.316   1.994   6.733  0.5338 -0.3212  0.9977
  429MOL0     C56503   0.281   2.133   6.733  0.5480  0.6960  0.1279
  429MOL0     O56504   0.149   2.167   6.731  0.6535  0.0745  0.8771
  429MOL0     C56505   0.059   2.099   6.650 -0.8111 -0.9505  0.4188
  429MOL0     C56506  -0.081   2.154   6.670  0.3872  0.4797 -0.0489
  429MOL0     C56507  -0.173   2.089   6.549  0.1014 -0.1496  0.0518
  429MOL0     C56508  -0.316   2.144   6.534  0.2101  0.5738  1.3904
  429MOL0     C56509  -0.354   2.124   6.381  0.3439  0.7380 -0.2115
  429MOL0     C56510  -0.510   2.137   6.347 -0.2759  0.3304 -0.5244
  429MOL0     C56511  -0.532   2.189   6.204 -0.4522  0.4886  0.7071
  429MOL0     C56512  -0.678   2.156   6.163 -0.0375 -0.5456 -0.7754
  429MOL0     N56513  -0.776   2.189   6.269  0.2357  0.1906 -0.1706
  429MOL0     C56514  -0.821   2.309   6.328  0.2202 -0.2569 -0.9690
  429MOL0     C56515  -0.903   2.281   6.432 -0.8399 -0.0713 -0.2134
  429MOL0     C56516  -0.962   2.371   6.529 -0.1650 -0.2013 -0.7966
  429MOL0     C56517  -1.102   2.424   6.494 -0.6266 -0.2789 -0.1802
  429MOL0     C56518  -1.131   2.556   6.568 -0.3847 -0.4302 -0.2054
  429MOL0     C56519  -1.284   2.581   6.568 -0.2805  1.6827 -0.2621
  429MOL0     O56520  -1.328   2.578   6.438 -0.1610  0.2024 -0.7694
  429MOL0     C56521  -1.461   2.590   6.410  0.1811  0.4932 -0.2220
  429MOL0     C56522  -1.487   2.590   6.273  0.8347  0.0410 -0.2105
  429MOL0     C56523  -1.613   2.595   6.217 -0.4933  0.4736 -0.1457
  429MOL0     C56524  -1.728   2.619   6.302  0.2343 -0.2966  0.2966
  429MOL0     C56525  -1.861   2.618   6.249  0.7941  0.5620 -0.2915
  429MOL0     O56526  -1.963   2.679   6.330 -0.9317 -0.2554 -0.8886
  429MOL0     C56527  -2.092   2.646   6.296  0.5906 -0.4315  0.0929
  429MOL0     C56528  -2.162   2.741   6.216  0.3094  0.5257 -0.0538
  429MOL0     C56529  -2.308   2.734   6.194  0.0912  0.1971  0.1826
  429MOL0     C56530  -2.379   2.624   6.238 -0.7522 -0.8374  0.9940
  429MOL0     O56531  -2.515   2.627   6.230 -0.0784  0.3623 -0.1103
  429MOL0     C56532  -2.593   2.530   6.278 -0.0238  0.0938 -0.5047
  429MOL0     C56533  -2.735   2.565   6.242  0.1208 -0.5101 -0.2608
  429MOL0     C56534  -2.827   2.444   6.237  0.3369  0.0841  0.4729
  429MOL0     C56535  -2.971   2.491   6.240  0.5444 -0.4956 -0.3120
  429MOL0     C56536  -3.056   2.364   6.254  0.5416 -0.0420 -0.4702
  429MOL0     C56537  -3.214   2.391   6.241  0.1270  0.4639 -0.2985
  429MOL0     C56538  -3.254   2.415   6.095 -0.2540  0.3274 -0.3267
  429MOL0     C56539  -3.391   2.347   6.069 -0.9391 -0.6488 -0.2390
  429MOL0    Cl56540  -3.373   2.166   6.062 -0.4052 -0.1171  0.1456
  429MOL0     C56541  -2.307   2.537   6.320  0.5593 -0.1680 -0.4493
  429MOL0     C56542  -2.170   2.539   6.350  0.6733 -0.0324 -0.1606
  429MOL0     O56543  -1.886   2.574   6.138 -0.3639  0.2541  0.0826
  429MOL0     C56544  -1.704   2.619   6.443  0.4599 -0.6564  0.6768
  429MOL0     C56545  -1.574   2.603   6.491 -0.9326  0.4706  0.0622
  429MOL0     N56546  -0.924   2.140   6.419 -0.1455  0.1471  0.0710
  429MOL0     N56547  -0.842   2.088   6.334 -0.5929  0.1721  0.1791
  429MOL0     C56548   0.380   2.229   6.722 -0.0715  0.4713 -0.0658
  429MOL0     C56549   0.513   2.199   6.720  0.9427 -0.0834 -0.0303
  429MOL0     C56550   0.870   1.908   6.628 -0.0823 -0.0733  0.7460
  429MOL0     C56551   0.959   2.004   6.682  0.2809  0.2469  0.4160
  429MOL0     C56552   1.094   1.977   6.682  0.2975  0.1850  0.4021
  429MOL0     C56553   1.139   1.851   6.647 -1.2776  0.4753 -0.0730
  429MOL0     O56554   1.276   1.841   6.672 -0.2447  0.4189  0.3350
  429MOL0     C56555   1.359   1.734   6.607 -0.1172 -0.6955  1.1783
  429MOL0     C56556   1.491   1.738   6.681 -0.1772 -0.1875  0.8335
  429MOL0     C56557   1.564   1.871   6.703 -0.2630  0.3930 -0.6659
  429MOL0     C56558   1.680   1.826   6.802 -0.2547  1.1368  0.5036
  429MOL0     C56559   1.754   1.947   6.847 -0.8454 -0.3568  0.6084
  429MOL0     C56560   1.810   2.047   6.882  0.2954  0.1815  0.6175
  429MOL0     C56561   1.051   1.744   6.609  0.2939  0.1776  0.2391
  429MOL0     C56562   0.912   1.778   6.592  0.7932  0.3159  0.2760
  429MOL0     H56563   0.490   1.855   6.719 -2.0527 -0.8235  0.6267
  429MOL0     H56564   0.238   1.922   6.758 -1.4129  1.5788  0.7090
  429MOL0     H56565   0.049   1.992   6.670 -1.0204 -1.4048 -1.8327
  429MOL0     H56566   0.084   2.106   6.543 -3.0321 -5.5264 -0.6323
  429MOL0     H56567  -0.084   2.263   6.675 -0.8575  0.4238  1.7534
  429MOL0     H56568  -0.125   2.131   6.768  1.6461 -0.4967  0.3208
  429MOL0     H56569  -0.164   1.980   6.550 -1.1873 -0.2664  0.8958
  429MOL0     H56570  -0.128   2.121   6.454 -0.6914 -0.9541 -0.6018
  429MOL0     H56571  -0.390   2.085   6.590  1.7666 -0.9602  1.9102
  429MOL0     H56572  -0.312   2.248   6.568  1.3312  1.0318 -0.0565
  429MOL0     H56573  -0.327   2.023   6.350 -0.1407  0.9729 -1.4558
  429MOL0     H56574  -0.298   2.191   6.314 -0.2382 -1.8433 -3.5288
  429MOL0     H56575  -0.534   2.208   6.427  2.3865 -0.0225  0.6847
  429MOL0     H56576  -0.564   2.043   6.364  1.4479 -0.0525  4.3719
  429MOL0     H56577  -0.505   2.294   6.192 -1.3978  0.6903  0.2985
  429MOL0     H56578  -0.465   2.141   6.131  0.4212 -1.2990  2.5902
  429MOL0     H56579  -0.679   2.050   6.138  0.6775  0.2496 -4.8126
  429MOL0     H56580  -0.712   2.203   6.070 -0.1662  0.2490 -0.3390
  429MOL0     H56581  -0.785   2.404   6.291 -0.3855  0.1854 -0.4458
  429MOL0     H56582  -0.897   2.456   6.552 -2.4965  1.9964 -1.8729
  429MOL0     H56583  -0.964   2.316   6.624  2.9936  0.2513 -0.3539
  429MOL0     H56584  -1.171   2.340   6.509  0.9143 -2.0658 -2.4707
  429MOL0     H56585  -1.102   2.438   6.386  0.1311 -1.5209 -0.3618
  429MOL0     H56586  -1.094   2.545   6.670  3.1630  0.5880 -1.2497
  429MOL0     H56587  -1.079   2.633   6.511 -1.7309 -0.1983 -1.1704
  429MOL0     H56588  -1.304   2.679   6.613  1.5134  2.3915 -0.9148
  429MOL0     H56589  -1.328   2.500   6.627  0.0940 -1.0627 -3.4690
  429MOL0     H56590  -1.404   2.597   6.204  0.8780  2.2046 -0.0155
  429MOL0     H56591  -1.633   2.596   6.110  0.9865 -1.1908 -0.4818
  429MOL0     H56592  -2.115   2.836   6.194 -0.5040  1.0034  0.2110
  429MOL0     H56593  -2.354   2.824   6.153 -0.0087 -0.4046 -1.0749
  429MOL0     H56594  -2.594   2.513   6.386 -3.3480 -0.3102 -0.5031
  429MOL0     H56595  -2.565   2.438   6.225 -1.5552 -1.0512  0.5651
  429MOL0     H56596  -2.752   2.634   6.159 -0.9031 -1.2829 -0.7203
  429MOL0     H56597  -2.775   2.627   6.323  1.0706  1.3609 -1.1541
  429MOL0     H56598  -2.807   2.390   6.330  1.7792 -0.1779  0.0361
  429MOL0     H56599  -2.811   2.384   6.147 -0.1770  1.2314 -0.4112
  429MOL0     H56600  -2.994   2.546   6.332 -3.3526 -1.6961 -0.4051
  429MOL0     H56601  -2.991   2.563   6.161 -0.6921  1.3593  1.5646
  429MOL0     H56602  -3.029   2.317   6.349  0.8448  2.0740  0.5668
  429MOL0     H56603  -3.030   2.302   6.168  2.0945  0.5260 -0.4320
  429MOL0     H56604  -3.256   2.469   6.305 -1.1715 -2.2851  2.5339
  429MOL0     H56605  -3.264   2.299   6.273 -1.5772  1.8576  1.2962
  429MOL0     H56606  -3.280   2.520   6.083 -0.2250  0.3066 -0.5667
  429MOL0     H56607  -3.183   2.374   6.023 -1.0357 -1.3975 -0.1715
  429MOL0     H56608  -3.430   2.381   5.973 -0.8866 -1.2106 -0.4586
  429MOL0     H56609  -3.457   2.383   6.149  0.9639  0.5133  0.8839
  429MOL0     H56610  -2.364   2.453   6.359  1.9391 -0.6854  0.5305
  429MOL0     H56611  -2.119   2.457   6.398  1.3379  0.5030  0.0647
  429MOL0     H56612  -1.798   2.618   6.496 -0.0599  0.7921 -0.1558
  429MOL0     H56613  -1.556   2.623   6.597 -2.1820 -0.2681  0.4206
  429MOL0     H56614   0.350   2.333   6.726 -4.4647 -0.6287  0.2113
  429MOL0     H56615   0.586   2.279   6.733  0.8430 -0.4145  3.5430
  429MOL0     H56616   0.917   2.098   6.716 -0.6604 -1.2265  3.6977
  429MOL0     H56617   1.168   2.042   6.728  0.3281 -1.9483  3.7291
  429MOL0     H56618   1.374   1.748   6.500 -0.8693  0.2891  1.1848
  429MOL0     H56619   1.309   1.637   6.616 -0.8969 -0.1423  3.4174
  429MOL0     H56620   1.476   1.678   6.771  1.2268 -1.2097  0.4178
  429MOL0     H56621   1.564   1.687   6.617  1.1284  1.5951  0.8274
  429MOL0     H56622   1.512   1.953   6.753  0.5338 -0.7476  2.2401
  429MOL0     H56623   1.609   1.921   6.617 -2.2734  0.6137 -1.6411
  429MOL0     H56624   1.659   1.763   6.889 -2.8401  0.9828 -0.1276
  429MOL0     H56625   1.747   1.764   6.741 -2.5430 -1.6026  0.5340
  429MOL0     H56626   1.861   2.132   6.923  2.0657 -0.2693 -0.5299
  429MOL0     H56627   1.087   1.643   6.595 -0.2650  0.2939 -2.5379
  429MOL0     H56628   0.840   1.708   6.550  1.1238  0.2526 -0.1897
  430MOL0     O56629   1.953   1.691   3.962  0.9786 -0.2208  0.0535
  430MOL0     C56630   1.976   1.645   4.073 -0.3413 -0.6497 -0.0490
  430MOL0     O56631   1.884   1.634   4.169 -0.8233 -0.0469  0.0886
  430MOL0     C56632   1.763   1.683   4.146 -0.3461 -0.4812 -0.7717
  430MOL0     C56633   1.747   1.824   4.145  0.1463  0.3048  0.3689
  430MOL0     C56634   1.615   1.868   4.130  1.0407 -0.0556 -0.0665
  430MOL0     C56635   1.505   1.787   4.152  0.5065  0.6006  0.1038
  430MOL0     O56636   1.374   1.842   4.149 -0.0258  0.1776 -0.2266
  430MOL0     C56637   1.329   1.966   4.114  0.4336 -0.2488 -0.1521
  430MOL0     C56638   1.176   1.972   4.106 -0.0977 -0.1051 -0.3933
  430MOL0     C56639   1.104   1.933   4.236  0.0264  0.3612 -0.3253
  430MOL0     C56640   0.952   1.913   4.199  0.5718  0.1395  0.4022
  430MOL0     C56641   0.857   1.863   4.313 -0.0005  0.5210 -0.4999
  430MOL0     C56642   0.711   1.869   4.270 -0.3305 -0.5452  0.0827
  430MOL0     C56643   0.610   1.793   4.362  0.0137 -0.0034 -0.3308
  430MOL0     C56644   0.459   1.815   4.311 -0.1463  0.8177 -0.4838
  430MOL0     N56645   0.372   1.780   4.421  0.8698 -0.4993 -0.4567
  430MOL0     C56646   0.267   1.865   4.468  0.4001 -0.8578 -0.0885
  430MOL0     C56647   0.224   1.805   4.584 -0.2546 -0.7540 -0.1474
  430MOL0     C56648   0.121   1.850   4.693  0.3113 -0.2309 -0.0337
  430MOL0     C56649   0.027   1.725   4.734 -0.3247 -0.8969  0.9201
  430MOL0     C56650  -0.063   1.673   4.616  0.3298  0.0560 -0.3207
  430MOL0     C56651  -0.191   1.757   4.590 -0.7384 -0.0240  0.5763
  430MOL0     O56652  -0.258   1.774   4.715  0.3757  0.6523 -1.2794
  430MOL0     C56653  -0.327   1.673   4.782  0.4479  1.0162  0.0147
  430MOL0     C56654  -0.355   1.697   4.917  0.7171 -0.0227 -0.4095
  430MOL0     C56655  -0.435   1.606   4.974 -0.3208  0.3687 -1.7101
  430MOL0     C56656  -0.476   1.484   4.924 -0.1410 -0.0849  0.3964
  430MOL0     C56657  -0.559   1.386   5.008 -0.2232 -0.8772  0.0417
  430MOL0     O56658  -0.573   1.265   4.945 -0.2612 -0.1287 -0.4587
  430MOL0     C56659  -0.658   1.170   4.983 -0.7942  0.2263  0.6283
  430MOL0     C56660  -0.801   1.199   5.001 -0.2311 -0.4522 -0.2923
  430MOL0     C56661  -0.894   1.100   5.042  0.0038  0.1111  0.5237
  430MOL0     C56662  -0.848   0.974   5.053 -1.2278  0.3699  0.2488
  430MOL0     O56663  -0.945   0.882   5.098 -0.1448  0.3547 -0.6307
  430MOL0     C56664  -0.903   0.768   5.177 -0.6910 -0.1250 -0.4850
  430MOL0     C56665  -0.864   0.805   5.321 -0.3522 -0.3370 -0.8895
  430MOL0     C56666  -0.869   0.678   5.399  0.4663  0.2467 -0.1417
  430MOL0     C56667  -0.867   0.715   5.550  0.8091  0.0614 -0.6662
  430MOL0     C56668  -0.827   0.597   5.643  0.1962 -1.0430  0.3335
  430MOL0     C56669  -0.856   0.644   5.792 -0.4578  0.9375 -0.4620
  430MOL0     C56670  -0.791   0.527   5.877 -0.7433  0.2660 -0.2944
  430MOL0     C56671  -0.861   0.396   5.858 -1.6333  0.7054  0.0367
  430MOL0    Cl56672  -0.777   0.318   5.717 -0.6364 -0.2614  0.2113
  430MOL0     C56673  -0.713   0.945   5.024 -0.2193  0.1862  0.0745
  430MOL0     C56674  -0.615   1.040   4.989 -0.2514  0.7884  0.8602
  430MOL0     O56675  -0.611   1.418   5.116 -0.0143  0.2972 -0.0106
  430MOL0     C56676  -0.434   1.455   4.796 -0.5043  0.0570 -0.8344
  430MOL0     C56677  -0.369   1.556   4.718 -0.1387 -0.3051 -1.4215
  430MOL0     N56678   0.286   1.681   4.589  0.1889  0.7777  0.5791
  430MOL0     N56679   0.374   1.665   4.494  0.1362 -0.2773 -0.3492
  430MOL0     C56680   1.523   1.646   4.173  0.0395  0.4823 -0.0401
  430MOL0     C56681   1.650   1.606   4.166  0.0360  0.1969  0.0148
  430MOL0     C56682   2.101   1.587   4.096 -0.6779  0.1822 -1.0325
  430MOL0     C56683   2.141   1.511   4.210 -0.3427 -0.4056 -0.1637
  430MOL0     C56684   2.271   1.470   4.231  0.7791 -0.2943  0.2438
  430MOL0     C56685   2.369   1.490   4.135  0.7565  1.6244 -0.1017
  430MOL0     O56686   2.492   1.435   4.139  0.6503 -0.5114  0.4492
  430MOL0     C56687   2.534   1.373   4.260  0.8622  0.0090  0.2626
  430MOL0     C56688   2.686   1.343   4.259 -0.7480 -0.1797 -0.1148
  430MOL0     C56689   2.756   1.464   4.203  1.0477 -1.0376 -0.1354
  430MOL0     C56690   2.904   1.483   4.244 -0.6281 -0.4627  1.0350
  430MOL0     C56691   2.979   1.363   4.208 -0.3642 -0.4976  0.3339
  430MOL0     C56692   3.066   1.284   4.168 -0.0666  1.1073 -0.6612
  430MOL0     C56693   2.337   1.557   4.018 -0.2069 -0.0065  0.4690
  430MOL0     C56694   2.206   1.608   4.006  0.8925 -0.6031 -0.0618
  430MOL0     H56695   1.840   1.880   4.134  1.2757 -1.8588 -2.5782
  430MOL0     H56696   1.600   1.974   4.118 -1.7717 -0.1656  1.4697
  430MOL0     H56697   1.366   1.991   4.015 -0.0911 -1.5678 -0.7043
  430MOL0     H56698   1.361   2.032   4.196 -0.0026  0.8690 -0.8680
  430MOL0     H56699   1.156   1.902   4.024  1.8221  0.4092 -1.3687
  430MOL0     H56700   1.150   2.074   4.074 -1.9667 -0.8201 -1.3317
  430MOL0     H56701   1.113   2.017   4.306 -0.3453 -0.0300  0.1997
  430MOL0     H56702   1.146   1.844   4.283 -0.7302 -0.7576 -1.6930
  430MOL0     H56703   0.922   2.011   4.161 -0.3424 -0.1289  0.4327
  430MOL0     H56704   0.937   1.836   4.123 -3.1459 -0.4215  1.5652
  430MOL0     H56705   0.874   1.930   4.398  0.9080  1.2295 -1.2236
  430MOL0     H56706   0.888   1.761   4.339  2.0013  1.5881  1.7499
  430MOL0     H56707   0.702   1.825   4.170 -2.1097  4.9586 -2.6248
  430MOL0     H56708   0.677   1.971   4.250 -0.6252 -0.5970  0.3284
  430MOL0     H56709   0.637   1.688   4.376 -2.2554 -0.3842  1.7547
  430MOL0     H56710   0.626   1.836   4.461 -0.0278  0.4156 -0.4987
  430MOL0     H56711   0.442   1.767   4.214 -1.4815 -1.4567  0.8043
  430MOL0     H56712   0.446   1.924   4.307 -1.2145  0.9511  3.2146
  430MOL0     H56713   0.249   1.970   4.448  1.2102 -0.7961 -0.5491
  430MOL0     H56714   0.062   1.940   4.672  1.0946  0.5011  0.8731
  430MOL0     H56715   0.178   1.882   4.780 -1.9400  2.3016  0.6611
  430MOL0     H56716  -0.022   1.747   4.829 -1.1999  0.3093  0.2204
  430MOL0     H56717   0.095   1.640   4.746 -0.1390 -0.5118  3.0253
  430MOL0     H56718   0.000   1.669   4.526 -0.5710 -0.1925 -0.9546
  430MOL0     H56719  -0.107   1.575   4.636 -0.4338  0.4962  0.1877
  430MOL0     H56720  -0.254   1.707   4.516  1.7306  0.3299 -1.9055
  430MOL0     H56721  -0.151   1.844   4.537  1.1907 -0.8846  0.5288
  430MOL0     H56722  -0.330   1.789   4.968 -0.1759  0.0971 -0.1559
  430MOL0     H56723  -0.462   1.626   5.077 -0.1654 -3.1452 -0.8766
  430MOL0     H56724  -0.829   1.304   4.992  3.5643  0.8889  1.3346
  430MOL0     H56725  -1.000   1.124   5.038 -0.0844 -0.3670 -0.5871
  430MOL0     H56726  -0.824   0.712   5.126  1.4311 -0.7156  3.0910
  430MOL0     H56727  -0.985   0.696   5.171  0.3297 -1.8784  3.3208
  430MOL0     H56728  -0.939   0.873   5.363  1.0478 -0.1121  1.4009
  430MOL0     H56729  -0.762   0.845   5.319 -0.6683  0.4713 -0.9703
  430MOL0     H56730  -0.790   0.614   5.359  1.5055  0.8052  0.9690
  430MOL0     H56731  -0.960   0.619   5.385  1.9728 -1.6102 -3.4074
  430MOL0     H56732  -0.791   0.793   5.552  0.2225  0.6387 -0.3680
  430MOL0     H56733  -0.959   0.760   5.589  1.5422 -0.2140  1.4879
  430MOL0     H56734  -0.721   0.568   5.638  0.3636 -1.2529  3.1889
  430MOL0     H56735  -0.895   0.514   5.625  0.8374 -1.1248 -1.9790
  430MOL0     H56736  -0.964   0.652   5.808 -0.5346  2.1934 -1.4730
  430MOL0     H56737  -0.819   0.743   5.822 -2.6799  2.7707 -3.2210
  430MOL0     H56738  -0.686   0.519   5.848 -0.0984 -2.3162  2.2847
  430MOL0     H56739  -0.791   0.555   5.982  1.2718 -1.2147  0.1566
  430MOL0     H56740  -0.970   0.404   5.848 -1.9473 -0.8653  1.6679
  430MOL0     H56741  -0.846   0.333   5.946 -0.9308  0.2750 -0.3821
  430MOL0     H56742  -0.689   0.839   5.029  0.4642  0.2264 -1.6512
  430MOL0     H56743  -0.513   1.007   4.974 -0.3575  0.7304  0.2081
  430MOL0     H56744  -0.466   1.357   4.764  1.2923 -1.3940  1.5112
  430MOL0     H56745  -0.342   1.532   4.616 -2.2601 -0.8596 -1.9175
  430MOL0     H56746   1.435   1.588   4.196 -1.8543  3.8417  1.9322
  430MOL0     H56747   1.673   1.503   4.191 -0.9264  0.2261  1.0847
  430MOL0     H56748   2.075   1.494   4.294  2.2794 -1.8097  1.7941
  430MOL0     H56749   2.283   1.399   4.312  0.3944 -2.9849 -1.8950
  430MOL0     H56750   2.484   1.278   4.284 -0.2167 -0.1621 -2.2617
  430MOL0     H56751   2.512   1.451   4.333  1.5402  0.3088  0.1517
  430MOL0     H56752   2.717   1.317   4.361  1.1072  0.5313 -0.4475
  430MOL0     H56753   2.715   1.252   4.205  0.1153  0.5505 -0.9238
  430MOL0     H56754   2.700   1.554   4.228 -2.2902 -1.6065 -4.3410
  430MOL0     H56755   2.740   1.463   4.095 -3.4541 -1.2043  0.3676
  430MOL0     H56756   2.944   1.565   4.184 -1.0685 -0.4944  0.6920
  430MOL0     H56757   2.916   1.515   4.348 -0.1428  2.0485  0.2729
  430MOL0     H56758   3.113   1.208   4.109 -1.4955 -0.2005 -0.1763
  430MOL0     H56759   2.419   1.582   3.952  0.4039 -0.1417  1.1631
  430MOL0     H56760   2.190   1.674   3.921 -1.6043  0.0828  0.8624
  431MOL0     O56761   8.117   7.122   6.953  0.3442  0.0851  0.0983
  431MOL0     C56762   8.103   7.151   7.076 -0.7118 -0.5843 -0.2218
  431MOL0     O56763   8.033   7.078   7.171  0.6414  0.0038  0.7163
  431MOL0     C56764   7.978   6.960   7.132 -0.1880 -0.1694 -0.5481
  431MOL0     C56765   7.860   6.938   7.192 -0.8689 -0.6522  0.3628
  431MOL0     C56766   7.803   6.815   7.183 -0.4409  0.0530  0.0295
  431MOL0     C56767   7.857   6.705   7.113 -0.0847 -0.3453 -0.4334
  431MOL0     O56768   7.784   6.597   7.107  0.5889 -0.0953  0.0658
  431MOL0     C56769   7.813   6.479   7.031 -0.5149  0.3541 -1.1468
  431MOL0     C56770   7.693   6.381   7.036 -0.3540 -0.2974  0.6972
  431MOL0     C56771   7.583   6.423   6.944 -0.3171 -0.2834 -0.3436
  431MOL0     C56772   7.501   6.299   6.926 -0.0313 -0.1539 -0.7897
  431MOL0     C56773   7.391   6.331   6.821  0.7467 -0.4414  0.4558
  431MOL0     C56774   7.432   6.357   6.670 -0.4586  0.8932 -1.0037
  431MOL0     C56775   7.301   6.389   6.589  0.5122  0.3693 -0.2873
  431MOL0     C56776   7.254   6.537   6.600 -0.7247  0.5019  0.4155
  431MOL0     N56777   7.114   6.577   6.582 -0.8310 -0.4572  0.2372
  431MOL0     C56778   7.048   6.600   6.460 -0.6436  0.4271 -1.1869
  431MOL0     C56779   6.914   6.588   6.493  0.2786 -1.5602  0.5134
  431MOL0     C56780   6.791   6.609   6.413  0.7456  0.2185 -0.1387
  431MOL0     C56781   6.749   6.762   6.397 -0.1474  0.1319 -0.0449
  431MOL0     C56782   6.843   6.844   6.306  0.3943 -0.4982 -0.0361
  431MOL0     C56783   6.785   6.982   6.275 -0.0538  0.0035 -0.4801
  431MOL0     O56784   6.679   6.977   6.180 -0.3390 -0.7257  0.9550
  431MOL0     C56785   6.546   6.997   6.208 -0.2381  0.2548  1.4239
  431MOL0     C56786   6.463   6.962   6.091  0.5933  0.4960 -0.5720
  431MOL0     C56787   6.329   6.971   6.103  0.9285 -0.4376  0.1528
  431MOL0     C56788   6.266   7.037   6.217 -0.7381  0.0979  0.6176
  431MOL0     C56789   6.125   7.060   6.215  0.2856 -0.9386 -0.2142
  431MOL0     O56790   6.049   6.994   6.112 -0.5971  0.2190  0.4322
  431MOL0     C56791   5.921   7.018   6.116 -0.2559  0.2869 -0.2646
  431MOL0     C56792   5.867   7.084   6.012 -0.5622 -0.2337  0.4734
  431MOL0     C56793   5.728   7.099   5.992  0.4372  0.1476  0.8649
  431MOL0     C56794   5.641   7.047   6.087  0.4827  1.4627 -0.0132
  431MOL0     O56795   5.511   7.090   6.079  0.4436 -0.2274  0.4357
  431MOL0     C56796   5.417   7.041   6.183 -0.2822 -0.0110  0.4460
  431MOL0     C56797   5.283   7.116   6.183  0.0164 -0.7083  0.5816
  431MOL0     C56798   5.297   7.259   6.231 -0.8370 -0.0020  0.1617
  431MOL0     C56799   5.162   7.326   6.239 -0.2829  1.5397  0.6726
  431MOL0     C56800   5.161   7.470   6.292  0.3619  0.0642 -0.2991
  431MOL0     C56801   5.035   7.547   6.261  0.5518  0.3937  0.2438
  431MOL0     C56802   4.912   7.485   6.334  0.0957  0.2532  0.1130
  431MOL0     C56803   4.787   7.559   6.290  0.1172  0.3655  0.1742
  431MOL0    Cl56804   4.639   7.453   6.319 -0.0538 -0.2730  0.3140
  431MOL0     C56805   5.697   6.969   6.196  0.6645 -0.4226 -0.3668
  431MOL0     C56806   5.836   6.952   6.204  0.7427 -1.1304 -0.2486
  431MOL0     O56807   6.074   7.136   6.300 -0.1256 -0.6483 -0.0424
  431MOL0     C56808   6.353   7.083   6.318 -0.5445 -0.6177 -0.4140
  431MOL0     C56809   6.494   7.057   6.324  0.3702 -0.1410  0.5019
  431MOL0     N56810   6.917   6.563   6.629  0.2044 -0.1237  0.5123
  431MOL0     N56811   7.034   6.554   6.685 -1.3293  0.3854  1.0119
  431MOL0     C56812   7.972   6.736   7.045  0.1964  0.5346 -0.5896
  431MOL0     C56813   8.034   6.864   7.052  1.2758 -0.2353  0.1164
  431MOL0     C56814   8.158   7.272   7.124  0.0530  0.6149  0.6251
  431MOL0     C56815   8.205   7.369   7.032  1.1567  0.1140  0.0231
  431MOL0     C56816   8.273   7.483   7.078  0.0197  0.6975  0.6355
  431MOL0     C56817   8.298   7.503   7.219 -0.3038 -0.4901  0.6101
  431MOL0     O56818   8.378   7.602   7.265  0.5726 -0.6829 -0.1458
  431MOL0     C56819   8.489   7.638   7.173  0.3694 -0.1037 -0.1483
  431MOL0     C56820   8.607   7.677   7.264  0.0619 -0.5349 -0.0109
  431MOL0     C56821   8.753   7.674   7.200 -0.0869  0.4656 -0.0688
  431MOL0     C56822   8.866   7.722   7.295 -0.6827  0.0952 -0.3972
  431MOL0     C56823   8.875   7.622   7.402  0.3639 -0.5031  0.6403
  431MOL0     C56824   8.909   7.532   7.476  0.9673 -0.3674  0.3583
  431MOL0     C56825   8.241   7.402   7.303  0.1795  0.2571 -0.2854
  431MOL0     C56826   8.170   7.290   7.260  0.1456 -0.5681  0.9504
  431MOL0     H56827   7.818   7.021   7.249 -0.1294 -1.4976  2.2231
  431MOL0     H56828   7.706   6.799   7.230 -0.7118  0.5164 -0.3576
  431MOL0     H56829   7.907   6.439   7.068 -0.7032  0.8468 -0.1020
  431MOL0     H56830   7.833   6.501   6.926 -1.5807 -0.8522 -1.6358
  431MOL0     H56831   7.648   6.344   7.128 -0.7275 -2.6944 -0.3644
  431MOL0     H56832   7.738   6.290   6.995 -0.1541  0.9940 -2.1900
  431MOL0     H56833   7.630   6.469   6.857  3.3231  3.7722  3.2876
  431MOL0     H56834   7.518   6.497   6.991 -0.4289 -1.0986  0.8130
  431MOL0     H56835   7.559   6.214   6.890 -1.7031 -0.8038 -2.0960
  431MOL0     H56836   7.457   6.267   7.021  0.6524  2.8492  0.6818
  431MOL0     H56837   7.335   6.418   6.856 -0.7464  0.4942 -3.7395
  431MOL0     H56838   7.327   6.243   6.811  1.1710 -0.6621 -0.3896
  431MOL0     H56839   7.473   6.265   6.628 -2.7804 -1.8629  2.2303
  431MOL0     H56840   7.504   6.440   6.665  0.0824  0.4115 -1.2633
  431MOL0     H56841   7.326   6.369   6.485  0.6445 -0.1938 -0.1496
  431MOL0     H56842   7.227   6.320   6.629  2.5245  0.3447  3.9769
  431MOL0     H56843   7.314   6.588   6.524 -1.7174  1.0315 -0.0412
  431MOL0     H56844   7.290   6.578   6.695  0.8518  0.9391 -0.3415
  431MOL0     H56845   7.083   6.628   6.360  2.0256 -2.1484 -1.0991
  431MOL0     H56846   6.706   6.557   6.458  0.1084  1.6038  0.3232
  431MOL0     H56847   6.810   6.566   6.314 -0.5054 -1.3466  0.2560
  431MOL0     H56848   6.728   6.814   6.491 -0.6121 -2.9282  1.6965
  431MOL0     H56849   6.651   6.757   6.349 -0.6822  0.5488  0.9702
  431MOL0     H56850   6.932   6.859   6.368  1.6792  0.0972 -1.9157
  431MOL0     H56851   6.865   6.787   6.215 -1.6580 -1.6647  0.1520
  431MOL0     H56852   6.862   7.038   6.220  1.8941  0.1138  2.1770
  431MOL0     H56853   6.762   7.037   6.367 -1.2136  0.5043 -1.0385
  431MOL0     H56854   6.509   6.921   6.002  1.1070 -0.5756  0.1623
  431MOL0     H56855   6.272   6.954   6.012 -1.9414 -0.3932  1.8099
  431MOL0     H56856   5.929   7.139   5.942 -4.3423  1.9552 -1.4870
  431MOL0     H56857   5.687   7.154   5.908 -0.1127 -1.3465  0.1167
  431MOL0     H56858   5.453   7.066   6.284  1.3459  3.7981 -0.8719
  431MOL0     H56859   5.404   6.934   6.165  0.7614  0.0806 -1.0324
  431MOL0     H56860   5.212   7.062   6.245 -0.5752  0.3015  0.8129
  431MOL0     H56861   5.249   7.118   6.079  3.4153  0.3372 -0.6571
  431MOL0     H56862   5.363   7.316   6.166  0.3726 -2.5231 -0.9655
  431MOL0     H56863   5.342   7.256   6.331 -2.5453  1.9619  1.0531
  431MOL0     H56864   5.122   7.324   6.137 -2.3959 -3.4195  1.3208
  431MOL0     H56865   5.093   7.269   6.301  0.2613  1.3672  1.1246
  431MOL0     H56866   5.245   7.523   6.245  1.6108 -1.4632  0.1393
  431MOL0     H56867   5.186   7.468   6.399  0.0787  1.4747 -0.1906
  431MOL0     H56868   5.015   7.560   6.154  0.0946 -0.2877  0.2413
  431MOL0     H56869   5.044   7.648   6.303 -1.7589  1.3136 -1.2396
  431MOL0     H56870   4.905   7.376   6.325 -1.8239  0.4198 -1.0098
  431MOL0     H56871   4.928   7.519   6.437 -0.8644 -2.9051  1.4205
  431MOL0     H56872   4.792   7.587   6.184 -0.7047 -0.6940 -0.1548
  431MOL0     H56873   4.770   7.653   6.344  0.3776  0.7431 -0.3900
  431MOL0     H56874   5.629   6.913   6.258 -0.2314  2.9318  1.9823
  431MOL0     H56875   5.888   6.895   6.280  1.1453  0.2711  0.5632
  431MOL0     H56876   6.312   7.136   6.404  1.1866  1.6234 -0.8709
  431MOL0     H56877   6.550   7.089   6.411  1.3385  0.0894 -0.1890
  431MOL0     H56878   8.016   6.660   6.981  0.0280  1.8921 -2.4166
  431MOL0     H56879   8.123   6.884   6.992  0.0901 -2.3011 -2.5606
  431MOL0     H56880   8.191   7.374   6.924  0.0397  2.6002  0.2106
  431MOL0     H56881   8.334   7.543   7.012  0.7711  1.1223  1.6920
  431MOL0     H56882   8.456   7.707   7.095  2.1717  1.2015  0.1971
  431MOL0     H56883   8.539   7.554   7.124  1.7067 -0.5694  1.9034
  431MOL0     H56884   8.593   7.777   7.308 -0.2838 -0.6837  0.2182
  431MOL0     H56885   8.616   7.593   7.333  1.3006 -0.6271 -0.2676
  431MOL0     H56886   8.751   7.727   7.104 -0.8433  1.1578  0.3180
  431MOL0     H56887   8.770   7.573   7.161 -3.2339  0.1502 -0.9269
  431MOL0     H56888   8.964   7.727   7.247 -0.9122 -3.1372 -1.4618
  431MOL0     H56889   8.854   7.818   7.347  0.5414 -1.0229  2.1203
  431MOL0     H56890   8.938   7.450   7.538  3.6511 -0.2366 -0.5932
  431MOL0     H56891   8.261   7.415   7.409 -3.4446 -0.1495  0.5759
  431MOL0     H56892   8.134   7.213   7.327 -4.1383 -1.6733 -2.1917
  432MOL0     O56893  10.191   8.568   9.999  0.5508  0.3032  0.4485
  432MOL0     C56894  10.213   8.577   9.879 -0.2518  0.3732 -0.6698
  432MOL0     O56895  10.126   8.558   9.779  0.0112 -0.1077 -0.1505
  432MOL0     C56896  10.006   8.493   9.798 -0.3161 -0.2367  0.1640
  432MOL0     C56897   9.892   8.572   9.785  1.0375  0.0942 -1.3228
  432MOL0     C56898   9.766   8.522   9.810 -0.0559 -0.4470 -0.9865
  432MOL0     C56899   9.742   8.395   9.856 -0.2196  0.4508  0.7039
  432MOL0     O56900   9.617   8.339   9.871  0.2329  0.2562 -0.2573
  432MOL0     C56901   9.511   8.429   9.903  0.0677  0.2061 -0.3170
  432MOL0     C56902   9.414   8.343   9.991 -0.5000  0.7668 -0.4220
  432MOL0     C56903   9.274   8.406   9.999 -0.9666 -0.4734 -0.6845
  432MOL0     C56904   9.189   8.336  10.103 -0.3294 -1.0204 -0.9797
  432MOL0     C56905   9.038   8.339  10.050  0.2242 -0.1122 -0.7488
  432MOL0     C56906   8.947   8.282  10.163 -0.5842 -0.7185  0.6595
  432MOL0     C56907   8.808   8.328  10.161  0.6653 -0.6211  0.3380
  432MOL0     C56908   8.796   8.477  10.203 -1.2618 -0.1165  0.0815
  432MOL0     N56909   8.651   8.492  10.227 -0.3905  0.3850  0.5026
  432MOL0     C56910   8.574   8.428  10.322  0.2363  0.2152  0.8733
  432MOL0     C56911   8.450   8.492  10.313  0.8249 -0.4605  0.0768
  432MOL0     C56912   8.334   8.463  10.398  0.1309  0.3975  0.3888
  432MOL0     C56913   8.264   8.570  10.469  0.6164  0.2321  0.2224
  432MOL0     C56914   8.313   8.612  10.606 -0.3024  0.0110 -0.0886
  432MOL0     C56915   8.460   8.665  10.601  0.7876  0.4365  0.3088
  432MOL0     O56916   8.545   8.549  10.622  0.0847  0.4770 -0.3664
  432MOL0     C56917   8.682   8.563  10.621  0.8068 -0.5845 -0.3190
  432MOL0     C56918   8.747   8.684  10.610 -0.1098 -0.0349 -0.4428
  432MOL0     C56919   8.889   8.696  10.623  0.1886  0.3685  0.4323
  432MOL0     C56920   8.965   8.579  10.652  0.2048  0.1343  0.0454
  432MOL0     C56921   9.122   8.581  10.649  0.5568  0.0032  0.4093
  432MOL0     O56922   9.193   8.466  10.629  0.4175 -0.3990  0.3459
  432MOL0     C56923   9.323   8.453  10.662 -0.4703  0.2772 -1.0894
  432MOL0     C56924   9.371   8.447  10.793  0.7303  0.4291 -0.1953
  432MOL0     C56925   9.508   8.450  10.819  1.0379 -0.5107 -0.8720
  432MOL0     C56926   9.597   8.478  10.722  0.3707 -0.5416  0.0335
  432MOL0     O56927   9.727   8.469  10.778 -0.3246  0.4826 -0.1344
  432MOL0     C56928   9.836   8.481  10.688  0.8367  0.6838  0.1942
  432MOL0     C56929   9.967   8.479  10.765  0.2145 -0.0757  0.2447
  432MOL0     C56930  10.085   8.465  10.666 -0.2657 -0.1658 -0.2464
  432MOL0     C56931  10.234   8.465  10.733 -0.3840  0.8050 -0.1673
  432MOL0     C56932  10.332   8.386  10.643 -0.9323  0.4126  0.1768
  432MOL0     C56933  10.483   8.410  10.667  0.7814 -0.1527  0.2392
  432MOL0     C56934  10.525   8.400  10.810 -0.4143  0.0120  0.6258
  432MOL0     C56935  10.672   8.399  10.852  0.3409 -0.3537 -0.0684
  432MOL0    Cl56936  10.766   8.293  10.744  0.3815  0.2204  0.1026
  432MOL0     C56937   9.555   8.486  10.582 -0.4647  0.4844 -1.0765
  432MOL0     C56938   9.418   8.469  10.552  0.6140 -0.2507  1.3414
  432MOL0     O56939   9.177   8.689  10.663  0.5304 -0.1269 -0.0922
  432MOL0     C56940   8.894   8.459  10.665 -0.4513 -0.0776  0.2598
  432MOL0     C56941   8.757   8.453  10.647 -0.0796 -0.5074 -0.2131
  432MOL0     N56942   8.459   8.588  10.206 -0.0354  0.0959 -0.3435
  432MOL0     N56943   8.575   8.588  10.159 -0.1654  0.7051  0.3880
  432MOL0     C56944   9.860   8.308   9.862  0.5570  0.2279  0.3630
  432MOL0     C56945   9.992   8.356   9.830 -1.1116  0.2373  0.4568
  432MOL0     C56946  10.354   8.616   9.852 -0.2270 -0.7657 -0.4264
  432MOL0     C56947  10.451   8.645   9.956  0.2218  0.1455  0.0065
  432MOL0     C56948  10.577   8.690   9.918  0.3246  0.4469 -0.2152
  432MOL0     C56949  10.613   8.713   9.782  0.1511 -0.4418  0.0876
  432MOL0     O56950  10.736   8.761   9.757 -0.4325 -0.0623  0.1710
  432MOL0     C56951  10.823   8.796   9.863 -0.3466  0.0082  0.8033
  432MOL0     C56952  10.948   8.860   9.794  0.0218  0.4078 -0.8600
  432MOL0     C56953  11.060   8.900   9.888 -0.3347  0.3541 -0.2797
  432MOL0     C56954  11.180   8.954   9.803  0.2789 -0.1043  0.2770
  432MOL0     C56955  11.318   8.958   9.859 -0.2008 -0.6206  1.1724
  432MOL0     C56956  11.433   8.980   9.894 -0.4247 -0.3951  0.8652
  432MOL0     C56957  10.518   8.682   9.680 -0.2764 -0.6179 -0.1373
  432MOL0     C56958  10.394   8.630   9.720 -0.8848  0.0771  0.4975
  432MOL0     H56959   9.903   8.678   9.766 -0.6378  0.3102 -1.2045
  432MOL0     H56960   9.688   8.597   9.818  2.3559  2.2548 -1.0408
  432MOL0     H56961   9.469   8.469   9.811 -1.3101 -0.7985 -0.1710
  432MOL0     H56962   9.545   8.514   9.962 -0.7151 -0.3374  0.9783
  432MOL0     H56963   9.459   8.326  10.090  0.6864 -1.6969 -1.3180
  432MOL0     H56964   9.411   8.243   9.947  1.9102  1.5848 -2.6902
  432MOL0     H56965   9.233   8.402   9.898  1.0715 -1.8964 -1.5142
  432MOL0     H56966   9.292   8.512  10.015 -0.1148 -0.8532  1.1223
  432MOL0     H56967   9.202   8.228  10.104 -1.1831 -1.1684  1.7043
  432MOL0     H56968   9.208   8.368  10.206 -0.0518  0.9760 -1.6119
  432MOL0     H56969   9.020   8.284   9.958 -0.8675  2.3723 -2.0988
  432MOL0     H56970   9.007   8.442  10.034  1.7080  1.2388  3.5084
  432MOL0     H56971   8.987   8.334  10.250 -1.6545  2.2946 -0.5324
  432MOL0     H56972   8.960   8.174  10.178  0.4683 -0.7593 -0.3802
  432MOL0     H56973   8.783   8.322  10.054 -1.0035  2.6701  0.4084
  432MOL0     H56974   8.737   8.258  10.204  0.3755 -1.1071 -0.8804
  432MOL0     H56975   8.822   8.554  10.130  0.9136 -1.0794 -0.2209
  432MOL0     H56976   8.855   8.492  10.294 -0.6005  0.9816 -0.5138
  432MOL0     H56977   8.603   8.354  10.396  2.6807 -0.3143 -0.5141
  432MOL0     H56978   8.367   8.396  10.478  2.4573  0.7460 -0.2047
  432MOL0     H56979   8.265   8.399  10.342  3.5258 -1.0722 -2.5316
  432MOL0     H56980   8.158   8.543  10.478  0.5404  0.3035 -0.3905
  432MOL0     H56981   8.260   8.663  10.411  1.8509 -0.0376 -0.3280
  432MOL0     H56982   8.253   8.692  10.651  0.5831  1.8194 -1.9309
  432MOL0     H56983   8.307   8.527  10.674 -2.9964 -1.2743 -1.7319
  432MOL0     H56984   8.481   8.733  10.685 -2.9571  2.2921 -0.0715
  432MOL0     H56985   8.480   8.715  10.506  0.0610 -2.7824 -1.6708
  432MOL0     H56986   8.688   8.771  10.585 -0.7980 -0.5883 -0.7940
  432MOL0     H56987   8.938   8.790  10.605  0.7561  0.5786  2.8025
  432MOL0     H56988   9.293   8.438  10.867  2.0237 -2.9100  0.9788
  432MOL0     H56989   9.538   8.440  10.923  1.9892  0.4019 -1.0321
  432MOL0     H56990   9.827   8.577  10.636 -0.1909  1.5223  1.8286
  432MOL0     H56991   9.828   8.394  10.623 -1.9470 -0.7737  2.2505
  432MOL0     H56992   9.962   8.396  10.836 -0.6530  0.3742  0.7294
  432MOL0     H56993   9.966   8.576  10.815  1.3809 -0.1305  0.4036
  432MOL0     H56994  10.078   8.549  10.595 -0.6450  0.9718  1.0785
  432MOL0     H56995  10.076   8.370  10.614  1.0854 -0.6003  0.2608
  432MOL0     H56996  10.260   8.569  10.755 -4.5906  2.1350 -0.5462
  432MOL0     H56997  10.228   8.417  10.831  2.1583  0.2532 -0.2102
  432MOL0     H56998  10.325   8.399  10.534  0.1958 -1.8702 -0.2283
  432MOL0     H56999  10.312   8.282  10.669 -3.1907  1.3115  2.4143
  432MOL0     H57000  10.505   8.515  10.647  0.3004  0.3580  2.1976
  432MOL0     H57001  10.535   8.339  10.602 -0.1717  1.0243 -1.9191
  432MOL0     H57002  10.490   8.484  10.871  1.6648  0.6172  1.0509
  432MOL0     H57003  10.475   8.309  10.846  1.2841 -1.4558 -0.5224
  432MOL0     H57004  10.689   8.357  10.951  2.3735 -0.4897 -0.4282
  432MOL0     H57005  10.707   8.503  10.848  0.4384 -0.4140 -1.8521
  432MOL0     H57006   9.622   8.521  10.503  0.9860 -0.7472 -0.4383
  432MOL0     H57007   9.386   8.470  10.448  2.2237  1.8743  0.7905
  432MOL0     H57008   8.952   8.370  10.688 -2.7157 -1.7604 -0.2325
  432MOL0     H57009   8.711   8.359  10.676  2.1899 -1.8394 -0.6929
  432MOL0     H57010   9.835   8.206   9.891 -0.4666  0.8807  1.9809
  432MOL0     H57011  10.077   8.289   9.826 -1.0340  0.3590 -2.6782
  432MOL0     H57012  10.421   8.640  10.060  1.3095  2.9261  0.5371
  432MOL0     H57013  10.639   8.708  10.005  0.3107 -1.8286  0.3465
  432MOL0     H57014  10.846   8.713   9.930 -1.6065  0.4309  1.8247
  432MOL0     H57015  10.772   8.871   9.925 -1.3580 -0.7282  0.8882
  432MOL0     H57016  10.978   8.791   9.714  1.5703  0.8094 -0.6557
  432MOL0     H57017  10.923   8.959   9.753  3.0684  1.5838 -0.1648
  432MOL0     H57018  11.091   8.810   9.943  0.4149  0.7380 -0.0677
  432MOL0     H57019  11.018   8.968   9.962 -0.4200 -2.2007  2.2312
  432MOL0     H57020  11.198   8.877   9.728  2.8380 -0.3592  1.0785
  432MOL0     H57021  11.159   9.049   9.753  0.7089 -0.5021 -0.6852
  432MOL0     H57022  11.527   9.008   9.938 -1.8634  1.5481  2.9440
  432MOL0     H57023  10.542   8.699   9.576  3.4237  2.1763  0.9057
  432MOL0     H57024  10.324   8.595   9.644 -0.3879 -0.8790  0.4651
  433MOL0     O57025  10.192   4.910   5.167  0.7305  0.3129  0.6141
  433MOL0     C57026  10.191   5.012   5.242 -0.7251 -0.6496 -0.0698
  433MOL0     O57027  10.074   5.070   5.289  0.1925  0.1800  0.4649
  433MOL0     C57028   9.950   5.014   5.252 -0.5782 -0.8313 -0.0236
  433MOL0     C57029   9.926   4.954   5.128  0.1671  0.0597 -0.0780
  433MOL0     C57030   9.795   4.890   5.102 -0.7019  0.4790 -0.3569
  433MOL0     C57031   9.695   4.886   5.198  0.0653 -0.4214 -0.0781
  433MOL0     O57032   9.577   4.828   5.159 -0.3183 -0.3661 -0.2264
  433MOL0     C57033   9.467   4.874   5.235 -0.7005  0.0795  0.5215
  433MOL0     C57034   9.344   4.821   5.162  0.7235 -0.0508 -0.7837
  433MOL0     C57035   9.227   4.854   5.257  0.0582 -0.6609  0.0532
  433MOL0     C57036   9.099   4.799   5.192 -1.0299 -0.4659 -0.0931
  433MOL0     C57037   8.980   4.857   5.268  0.4695 -0.7775 -0.3424
  433MOL0     C57038   8.859   4.864   5.185  0.9196  0.2004 -0.3787
  433MOL0     C57039   8.713   4.891   5.232  0.1452 -0.1644 -0.8978
  433MOL0     C57040   8.624   4.919   5.112 -0.2796  0.8346 -0.0360
  433MOL0     N57041   8.482   4.927   5.144  0.3330 -0.3437 -0.3328
  433MOL0     C57042   8.428   4.935   5.271  0.1816 -0.3233 -0.1543
  433MOL0     C57043   8.293   4.917   5.264 -0.4138  0.5935  0.6113
  433MOL0     C57044   8.182   4.937   5.361  0.1031 -0.1564 -0.2034
  433MOL0     C57045   8.106   4.802   5.380  0.2082 -0.0559 -0.1251
  433MOL0     C57046   7.997   4.833   5.486  0.0990 -0.0236 -0.2281
  433MOL0     C57047   7.914   4.709   5.503  0.4927  0.3031 -0.0760
  433MOL0     O57048   7.960   4.603   5.585 -0.2179 -0.5835 -0.5519
  433MOL0     C57049   7.866   4.496   5.591 -0.1592 -0.6941  0.4485
  433MOL0     C57050   7.921   4.380   5.641 -0.4859  0.2457  0.1020
  433MOL0     C57051   7.848   4.269   5.679 -0.3473  0.3264  0.3978
  433MOL0     C57052   7.709   4.271   5.662  0.4371  0.1263 -0.2616
  433MOL0     C57053   7.608   4.168   5.706 -0.3528  0.6096  0.2333
  433MOL0     O57054   7.485   4.166   5.646 -0.1346 -0.3541  0.0545
  433MOL0     C57055   7.387   4.076   5.678  0.4062 -0.2864  0.6401
  433MOL0     C57056   7.258   4.112   5.632 -0.5252  0.3210  0.0308
  433MOL0     C57057   7.153   4.017   5.634  0.4648 -0.7387 -0.1642
  433MOL0     C57058   7.169   3.901   5.701  0.8889 -0.0690  0.3946
  433MOL0     O57059   7.064   3.815   5.714  0.1319 -0.2242  0.3478
  433MOL0     C57060   7.055   3.757   5.847  0.5104 -0.0049 -0.4801
  433MOL0     C57061   6.914   3.780   5.912  0.0522 -0.0895 -0.2206
  433MOL0     C57062   6.797   3.722   5.822  1.1813  1.5638 -0.1049
  433MOL0     C57063   6.651   3.714   5.879  0.4834  0.0485 -0.5988
  433MOL0     C57064   6.562   3.666   5.778 -0.0710  0.1728  0.6505
  433MOL0     C57065   6.528   3.787   5.683 -0.8444  0.8850  0.3780
  433MOL0     C57066   6.436   3.752   5.558  0.7748 -0.5700  0.0224
  433MOL0     C57067   6.315   3.834   5.550  0.3809 -0.1278  0.3675
  433MOL0    Cl57068   6.188   3.772   5.661  0.2677  0.1299 -0.3379
  433MOL0     C57069   7.298   3.861   5.747 -0.0241 -0.4939 -0.3310
  433MOL0     C57070   7.407   3.949   5.727  0.4654  0.6655  0.7990
  433MOL0     O57071   7.642   4.091   5.798 -0.2822  1.2489  0.6253
  433MOL0     C57072   7.651   4.382   5.601 -0.2207 -0.5573 -0.1185
  433MOL0     C57073   7.730   4.489   5.564  0.1036  0.2312 -0.1466
  433MOL0     N57074   8.266   4.880   5.128 -0.5814 -0.6464  0.2904
  433MOL0     N57075   8.379   4.885   5.067  0.0080  1.4432 -0.5678
  433MOL0     C57076   9.725   4.946   5.320  1.0772 -0.2173 -0.4962
  433MOL0     C57077   9.845   5.012   5.351 -0.0049  0.0102 -0.1570
  433MOL0     C57078  10.320   5.082   5.273  0.6875 -0.6578  0.2020
  433MOL0     C57079  10.428   5.002   5.303  0.0088  0.4788  1.0433
  433MOL0     C57080  10.542   5.067   5.350  0.2915 -0.0187  0.4417
  433MOL0     C57081  10.559   5.199   5.351 -0.3606 -0.3262  0.2824
  433MOL0     O57082  10.682   5.252   5.395  0.2122  0.1009  0.1087
  433MOL0     C57083  10.721   5.386   5.366  0.4030  0.5916  0.0303
  433MOL0     C57084  10.857   5.411   5.432  0.1570  0.1532 -0.5294
  433MOL0     C57085  10.862   5.375   5.584 -0.3598  0.6708 -0.7653
  433MOL0     C57086  10.978   5.448   5.645 -0.7066 -0.3273  0.1037
  433MOL0     C57087  11.097   5.372   5.629  0.6325 -0.0553 -0.6737
  433MOL0     C57088  11.200   5.308   5.626 -1.0916 -0.5471  0.9860
  433MOL0     C57089  10.454   5.279   5.302 -0.4244 -0.5876 -0.9320
  433MOL0     C57090  10.328   5.220   5.272 -0.3793  1.1506 -1.0697
  433MOL0     H57091   9.994   4.969   5.044  1.2992 -0.5942  0.6912
  433MOL0     H57092   9.785   4.844   5.005 -0.5965 -1.0548  0.3318
  433MOL0     H57093   9.466   4.983   5.249 -0.7960 -0.1319  2.3951
  433MOL0     H57094   9.468   4.828   5.334  0.2731 -0.7163  0.1652
  433MOL0     H57095   9.341   4.713   5.147 -3.8948 -0.0483 -1.2056
  433MOL0     H57096   9.336   4.864   5.062  0.2688  0.3994 -0.5570
  433MOL0     H57097   9.229   4.961   5.276  0.6193 -0.6515 -0.0404
  433MOL0     H57098   9.241   4.814   5.358 -0.6251 -1.8454 -0.2990
  433MOL0     H57099   9.109   4.844   5.092  1.2802 -0.7837 -0.0806
  433MOL0     H57100   9.107   4.690   5.196  1.4192 -0.3278  1.1977
  433MOL0     H57101   9.008   4.958   5.302 -1.4276  0.3565 -1.8809
  433MOL0     H57102   8.951   4.793   5.351  1.7202  1.3989  1.9308
  433MOL0     H57103   8.851   4.767   5.136  0.6461  0.7964 -1.5603
  433MOL0     H57104   8.883   4.939   5.108  0.3350  0.5378 -0.2395
  433MOL0     H57105   8.685   4.801   5.288  2.6135  0.3587  1.3833
  433MOL0     H57106   8.722   4.985   5.286  6.1731 -0.3133 -0.9415
  433MOL0     H57107   8.641   4.846   5.033 -2.4259  1.6518 -1.3190
  433MOL0     H57108   8.639   5.014   5.059  0.5402  0.5479 -0.3299
  433MOL0     H57109   8.482   4.964   5.361 -2.7258 -1.8030  2.2603
  433MOL0     H57110   8.117   5.014   5.320 -0.9184 -1.7168 -1.6716
  433MOL0     H57111   8.214   4.969   5.460 -0.5845  0.3239 -0.1312
  433MOL0     H57112   8.172   4.728   5.427 -2.1207 -2.6160 -0.6495
  433MOL0     H57113   8.071   4.774   5.281  0.9060  0.9388 -0.6720
  433MOL0     H57114   8.049   4.857   5.579 -0.2217 -1.8763  0.4847
  433MOL0     H57115   7.936   4.918   5.455  1.3106  0.9590  0.0381
  433MOL0     H57116   7.877   4.678   5.405  1.6195  0.1621 -0.4726
  433MOL0     H57117   7.816   4.735   5.544 -0.5060 -2.2563 -0.6702
  433MOL0     H57118   8.029   4.376   5.650 -0.4260  0.9054 -0.2434
  433MOL0     H57119   7.882   4.172   5.714  0.3212 -0.4616 -2.1792
  433MOL0     H57120   7.257   4.212   5.590  3.3499  1.5055  2.2297
  433MOL0     H57121   7.053   4.036   5.595 -0.6097 -2.4654  1.5613
  433MOL0     H57122   7.130   3.793   5.917  1.2691  0.1303 -1.3540
  433MOL0     H57123   7.071   3.649   5.835  0.4488  0.2277 -3.2043
  433MOL0     H57124   6.894   3.887   5.928 -2.4856 -0.5017 -0.1789
  433MOL0     H57125   6.902   3.727   6.007 -1.3974 -0.0457 -0.3493
  433MOL0     H57126   6.830   3.621   5.798 -1.9950  0.3455  0.0660
  433MOL0     H57127   6.800   3.782   5.731 -0.1857 -0.6515 -1.6948
  433MOL0     H57128   6.655   3.647   5.966 -3.6299 -1.0023 -1.0165
  433MOL0     H57129   6.602   3.800   5.924 -0.0661 -1.9599  2.9983
  433MOL0     H57130   6.475   3.638   5.838  0.1566  1.6437  1.7286
  433MOL0     H57131   6.604   3.590   5.712  1.2934  0.8322  0.7416
  433MOL0     H57132   6.617   3.838   5.645  0.5874 -0.5004  1.7586
  433MOL0     H57133   6.477   3.865   5.742  0.3695  1.0214  1.2768
  433MOL0     H57134   6.507   3.771   5.477 -0.1965 -1.4080 -1.0670
  433MOL0     H57135   6.408   3.646   5.555  1.3007 -0.7257  0.5065
  433MOL0     H57136   6.271   3.827   5.450  0.8121 -2.8580  0.2851
  433MOL0     H57137   6.332   3.941   5.563  0.3299 -0.1173  0.3465
  433MOL0     H57138   7.314   3.771   5.806  0.7383 -1.2005 -1.5706
  433MOL0     H57139   7.505   3.916   5.760  0.6498  0.3253 -0.0614
  433MOL0     H57140   7.544   4.394   5.596 -0.3912  2.1252  4.3736
  433MOL0     H57141   7.676   4.571   5.519  2.1544  2.4092  1.1723
  433MOL0     H57142   9.653   4.930   5.399  0.3575 -1.4179 -1.3630
  433MOL0     H57143   9.860   5.050   5.452  0.0826  0.5220 -0.3547
  433MOL0     H57144  10.419   4.894   5.313  0.1488  0.3256 -0.3217
  433MOL0     H57145  10.615   5.000   5.396  2.4233  2.4861  0.9263
  433MOL0     H57146  10.642   5.445   5.413 -2.8428 -2.6503 -0.8973
  433MOL0     H57147  10.740   5.408   5.260 -0.7839  2.2095  0.1185
  433MOL0     H57148  10.933   5.351   5.380 -0.0078 -0.7940  0.2756
  433MOL0     H57149  10.872   5.518   5.422  1.6535 -0.0929 -1.2496
  433MOL0     H57150  10.876   5.268   5.604  0.4747  1.1527  1.6355
  433MOL0     H57151  10.769   5.414   5.625  0.4933  1.8552  0.1224
  433MOL0     H57152  10.983   5.547   5.598  0.7288  0.1169  1.1402
  433MOL0     H57153  10.972   5.470   5.752  4.2493 -1.4999  0.8476
  433MOL0     H57154  11.296   5.260   5.627 -0.0596  1.4178  1.2939
  433MOL0     H57155  10.468   5.386   5.293 -0.1673 -0.4804  0.4908
  433MOL0     H57156  10.245   5.283   5.243 -1.3332  0.2044 -0.4802
  434MOL0     O57157  10.592   8.846   5.580  0.8891 -0.2280  0.2958
  434MOL0     C57158  10.643   8.748   5.627 -0.9354  0.2352 -0.3719
  434MOL0     O57159  10.653   8.622   5.572  0.5211  0.5424 -0.6640
  434MOL0     C57160  10.618   8.612   5.440  0.4181  0.0761 -0.3145
  434MOL0     C57161  10.706   8.558   5.341  1.2815 -0.1317 -0.4931
  434MOL0     C57162  10.653   8.516   5.217  1.3279 -0.2890 -0.2762
  434MOL0     C57163  10.509   8.522   5.192 -0.0897  0.0584  0.9017
  434MOL0     O57164  10.442   8.481   5.083 -0.5295 -0.0329  0.3872
  434MOL0     C57165  10.490   8.360   5.017 -0.0667  0.4982  0.2605
  434MOL0     C57166  10.562   8.375   4.884 -0.6051 -0.8430  1.0884
  434MOL0     C57167  10.482   8.449   4.777  0.3398 -0.1548  0.1289
  434MOL0     C57168  10.355   8.373   4.736 -0.2751 -0.6811 -0.7098
  434MOL0     C57169  10.299   8.448   4.626  0.3740  0.2718  0.5886
  434MOL0     C57170  10.166   8.386   4.577 -0.4682  0.1650 -0.7032
  434MOL0     C57171  10.111   8.477   4.470 -0.7917  0.1589 -0.3095
  434MOL0     C57172   9.988   8.413   4.407 -0.8870 -0.9159 -0.2362
  434MOL0     N57173   9.923   8.506   4.322  0.5517  0.3000 -1.0861
  434MOL0     C57174   9.890   8.634   4.355  0.2410  0.1245  0.1602
  434MOL0     C57175   9.845   8.681   4.241 -0.6163  0.4601 -0.8100
  434MOL0     C57176   9.809   8.819   4.229  0.1399 -0.0037 -0.4776
  434MOL0     C57177   9.666   8.831   4.184  0.0263 -0.3237  0.3850
  434MOL0     C57178   9.654   8.988   4.156 -0.3582 -0.2056  0.6826
  434MOL0     C57179   9.524   9.032   4.097  0.0761 -0.1883 -0.7385
  434MOL0     O57180   9.419   8.962   4.153  0.6780  0.1587 -0.6693
  434MOL0     C57181   9.293   8.983   4.099 -0.3400 -1.1561  1.4648
  434MOL0     C57182   9.190   8.898   4.134 -0.0120 -0.3579  0.4416
  434MOL0     C57183   9.063   8.902   4.073 -0.6042 -0.1635 -0.0388
  434MOL0     C57184   9.036   9.009   3.986  0.1683  0.3367 -0.3737
  434MOL0     C57185   8.895   9.010   3.928 -0.9686 -1.3958 -0.4807
  434MOL0     O57186   8.808   8.913   3.951  0.1016 -0.2143 -1.1586
  434MOL0     C57187   8.683   8.910   3.889 -0.4987  0.3373  0.5026
  434MOL0     C57188   8.621   9.008   3.815  0.5329  0.3710 -0.8263
  434MOL0     C57189   8.498   8.989   3.744  0.3348 -0.2947  0.1494
  434MOL0     C57190   8.436   8.870   3.749  0.2697 -0.6530 -0.2355
  434MOL0     O57191   8.333   8.848   3.663  0.1094  0.2785  0.1024
  434MOL0     C57192   8.261   8.728   3.669  0.4350  0.5981  0.2713
  434MOL0     C57193   8.152   8.742   3.570 -0.2068  0.3844  0.2677
  434MOL0     C57194   8.068   8.614   3.563 -0.8701 -1.3617  0.1091
  434MOL0     C57195   7.935   8.645   3.511  1.3290  0.5166  0.2898
  434MOL0     C57196   7.860   8.515   3.474 -0.2449  0.0029 -0.0532
  434MOL0     C57197   7.710   8.546   3.456  0.3745 -0.5596  0.7020
  434MOL0     C57198   7.639   8.417   3.415  0.5869 -0.4866 -1.2334
  434MOL0     C57199   7.489   8.443   3.388 -0.0238  0.3414 -0.0507
  434MOL0    Cl57200   7.462   8.568   3.259  0.0585  0.3541 -0.1915
  434MOL0     C57201   8.495   8.765   3.817 -0.1969 -0.8883  0.0124
  434MOL0     C57202   8.621   8.787   3.886  0.9010  0.5131 -1.1451
  434MOL0     O57203   8.876   9.112   3.866  1.0331 -0.2494 -0.6012
  434MOL0     C57204   9.135   9.102   3.952  0.5062 -0.2461  0.6906
  434MOL0     C57205   9.265   9.094   4.006 -0.0533 -0.2590 -0.4703
  434MOL0     N57206   9.828   8.581   4.148  0.4178  0.8363 -0.8218
  434MOL0     N57207   9.881   8.469   4.195 -1.2628  0.7624 -0.6650
  434MOL0     C57208  10.427   8.590   5.287 -0.5536  0.4036 -0.4812
  434MOL0     C57209  10.483   8.635   5.404  0.9230  0.4932 -0.4635
  434MOL0     C57210  10.681   8.760   5.768 -0.2623 -0.8101 -0.3628
  434MOL0     C57211  10.638   8.872   5.844 -0.1376  0.9373  0.3029
  434MOL0     C57212  10.677   8.881   5.980  0.7173  0.3494  1.0939
  434MOL0     C57213  10.743   8.771   6.046 -0.0442  0.2207  0.3300
  434MOL0     O57214  10.767   8.770   6.183 -0.0036 -0.3702  0.5100
  434MOL0     C57215  10.709   8.871   6.265  0.3792  0.8209 -0.3560
  434MOL0     C57216  10.565   8.839   6.293  0.1053  0.4513 -0.4574
  434MOL0     C57217  10.547   8.709   6.381 -0.5606 -0.1849 -0.5614
  434MOL0     C57218  10.606   8.713   6.524  0.1249 -0.3755  0.1692
  434MOL0     C57219  10.541   8.824   6.595 -0.3984 -0.6360 -0.3214
  434MOL0     C57220  10.463   8.913   6.637  0.4445  0.4205  0.8262
  434MOL0     C57221  10.785   8.657   5.979 -0.4481 -0.3950  0.0479
  434MOL0     C57222  10.751   8.653   5.837 -0.1008  0.3710  0.2400
  434MOL0     H57223  10.809   8.541   5.371  0.6252 -0.9165  1.4855
  434MOL0     H57224  10.717   8.460   5.149 -0.1627 -0.5525 -1.5182
  434MOL0     H57225  10.403   8.296   5.001 -0.0919  1.0888 -2.3800
  434MOL0     H57226  10.553   8.298   5.081  1.0720  0.9404 -0.4034
  434MOL0     H57227  10.602   8.278   4.853  4.8550  1.1301  0.9521
  434MOL0     H57228  10.648   8.440   4.900 -0.6490  0.2587 -2.3996
  434MOL0     H57229  10.545   8.480   4.694  0.5628 -1.7716 -0.3450
  434MOL0     H57230  10.446   8.544   4.817  0.2457 -0.0114 -0.2925
  434MOL0     H57231  10.383   8.274   4.698 -0.7586 -1.3837  0.6894
  434MOL0     H57232  10.293   8.361   4.826 -1.3712  1.3129 -1.1465
  434MOL0     H57233  10.367   8.461   4.541 -0.2804 -0.2905 -0.0336
  434MOL0     H57234  10.277   8.550   4.657 -1.2009  0.6274 -1.4780
  434MOL0     H57235  10.091   8.386   4.657 -1.5583  4.1466 -1.5015
  434MOL0     H57236  10.196   8.290   4.535 -0.2794  0.3233 -0.9366
  434MOL0     H57237  10.104   8.579   4.510  1.0959 -0.9069  3.1970
  434MOL0     H57238  10.178   8.494   4.386  1.9705  0.9538  1.9120
  434MOL0     H57239   9.922   8.403   4.494  0.9448  0.9502  1.4799
  434MOL0     H57240  10.007   8.317   4.358  0.1844 -1.9075  1.9677
  434MOL0     H57241   9.921   8.700   4.436  0.4923  1.4421 -0.9566
  434MOL0     H57242   9.877   8.867   4.159 -0.9425  1.9181 -0.2803
  434MOL0     H57243   9.810   8.864   4.329 -1.5644 -1.9427  0.4939
  434MOL0     H57244   9.599   8.803   4.266 -1.1777 -0.3385 -0.5715
  434MOL0     H57245   9.652   8.768   4.096  1.5997  0.1207 -0.2059
  434MOL0     H57246   9.677   9.043   4.249  0.2819 -0.6062  0.7660
  434MOL0     H57247   9.743   9.013   4.097 -0.2249 -2.8652 -0.3521
  434MOL0     H57248   9.539   9.000   3.994  0.5912 -0.3838 -0.6051
  434MOL0     H57249   9.516   9.141   4.101 -2.2902 -0.1404 -3.3384
  434MOL0     H57250   9.201   8.819   4.207 -0.6009  0.9765  2.0490
  434MOL0     H57251   8.979   8.837   4.093  0.4634 -1.8960 -0.9379
  434MOL0     H57252   8.665   9.105   3.792  0.0836  0.6170 -0.6477
  434MOL0     H57253   8.451   9.067   3.685 -0.3353 -2.4985 -2.4635
  434MOL0     H57254   8.220   8.712   3.769  1.0136 -4.8579 -0.0912
  434MOL0     H57255   8.313   8.635   3.648 -0.3932 -0.4359  2.4918
  434MOL0     H57256   8.200   8.767   3.475 -0.1059  1.9042  0.6879
  434MOL0     H57257   8.086   8.821   3.607 -2.9822 -1.4655 -0.4412
  434MOL0     H57258   8.048   8.576   3.664  0.6412  1.2132  1.4747
  434MOL0     H57259   8.129   8.545   3.504 -2.3033 -1.3602 -1.4753
  434MOL0     H57260   7.883   8.696   3.592  0.7102 -0.4733  0.5325
  434MOL0     H57261   7.942   8.716   3.428  1.8494  0.4231  0.2467
  434MOL0     H57262   7.881   8.433   3.543  1.8485  1.1474  0.7943
  434MOL0     H57263   7.908   8.474   3.384 -2.2892 -0.2871 -1.0662
  434MOL0     H57264   7.693   8.619   3.376 -0.4009 -2.5972 -1.1057
  434MOL0     H57265   7.687   8.593   3.552  0.2125  5.2633 -1.7596
  434MOL0     H57266   7.689   8.384   3.324  1.9954  2.9893 -1.8771
  434MOL0     H57267   7.648   8.341   3.494 -0.1393  0.2672 -0.3963
  434MOL0     H57268   7.437   8.477   3.478 -0.8136  1.8870 -1.0461
  434MOL0     H57269   7.441   8.351   3.351  1.3712 -1.3245  2.0482
  434MOL0     H57270   8.464   8.661   3.820 -1.5485 -0.5068 -0.0032
  434MOL0     H57271   8.666   8.700   3.932 -0.2363 -1.2674 -3.1808
  434MOL0     H57272   9.110   9.186   3.887 -0.2103  1.5954  3.2059
  434MOL0     H57273   9.335   9.174   3.987 -0.7135  0.6350  0.7400
  434MOL0     H57274  10.322   8.614   5.269 -0.6638  0.8641  0.7133
  434MOL0     H57275  10.417   8.683   5.477  1.8460  0.0982  0.6485
  434MOL0     H57276  10.590   8.959   5.799  1.4898 -0.2631 -4.2676
  434MOL0     H57277  10.655   8.979   6.021  1.6539  2.0434 -2.1012
  434MOL0     H57278  10.713   8.972   6.223 -1.3663  1.5270  1.0419
  434MOL0     H57279  10.765   8.877   6.360  2.3622 -0.8987 -1.3184
  434MOL0     H57280  10.529   8.925   6.351 -0.3278  0.8197 -1.2620
  434MOL0     H57281  10.497   8.821   6.210 -4.2545  0.4428  2.7445
  434MOL0     H57282  10.603   8.625   6.339  0.1562  0.4552 -0.9058
  434MOL0     H57283  10.442   8.677   6.383 -0.8010  0.5454 -1.0866
  434MOL0     H57284  10.588   8.616   6.573 -1.8073  0.8708  2.0824
  434MOL0     H57285  10.715   8.718   6.515 -0.0917 -0.0134 -5.3995
  434MOL0     H57286  10.396   8.991   6.668 -0.3705  1.2307 -2.5599
  434MOL0     H57287  10.835   8.574   6.028  0.6048  1.0927  1.6160
  434MOL0     H57288  10.786   8.558   5.798 -1.4575 -1.8181  3.8661
  435MOL0     O57289   9.047   9.783   9.400 -0.4922  0.8777  0.3310
  435MOL0     C57290   9.052   9.674   9.460  0.8110  0.0080  0.6423
  435MOL0     O57291   8.940   9.600   9.489 -0.2556 -0.6524  0.2773
  435MOL0     C57292   8.814   9.649   9.476  0.3734 -0.5542  0.6904
  435MOL0     C57293   8.708   9.559   9.470  0.6438 -0.2228 -0.0278
  435MOL0     C57294   8.575   9.597   9.443 -0.5831 -0.8925  0.0757
  435MOL0     C57295   8.542   9.733   9.425 -0.7097  0.2110  0.7689
  435MOL0     O57296   8.413   9.779   9.388 -0.0052 -0.3896  0.8631
  435MOL0     C57297   8.322   9.683   9.331 -0.1337  0.4586 -0.2248
  435MOL0     C57298   8.212   9.767   9.275  0.1906  0.3007 -0.5039
  435MOL0     C57299   8.089   9.699   9.233 -0.0795 -0.0857  0.8368
  435MOL0     C57300   8.109   9.600   9.112 -0.3442  0.1931 -0.2132
  435MOL0     C57301   7.975   9.555   9.051  0.1122 -0.2131 -0.1219
  435MOL0     C57302   7.908   9.450   9.143 -0.3046 -0.5635  0.0953
  435MOL0     C57303   7.769   9.414   9.094  0.5306 -0.6349  0.1135
  435MOL0     C57304   7.683   9.321   9.179 -0.1657  0.3247  0.2076
  435MOL0     N57305   7.538   9.344   9.179  0.0594 -0.1552 -0.1923
  435MOL0     C57306   7.482   9.408   9.284  0.6920 -0.1569  0.0136
  435MOL0     C57307   7.349   9.359   9.292 -0.2528 -0.1808  0.1203
  435MOL0     C57308   7.248   9.405   9.395  0.0580  0.1210 -0.1811
  435MOL0     C57309   7.107   9.356   9.363 -0.4611  0.3003 -0.2330
  435MOL0     C57310   7.011   9.380   9.485 -1.0421  0.9171  0.5931
  435MOL0     C57311   6.873   9.328   9.462 -0.7800 -0.4324  0.6372
  435MOL0     O57312   6.797   9.398   9.561 -0.3322 -0.4676  0.3976
  435MOL0     C57313   6.660   9.413   9.537 -0.2716 -0.2716 -0.4862
  435MOL0     C57314   6.585   9.455   9.641  1.0787  1.5693 -0.3320
  435MOL0     C57315   6.449   9.463   9.633 -0.4211  0.8209  0.2677
  435MOL0     C57316   6.389   9.453   9.508 -0.9506  1.1237 -0.1578
  435MOL0     C57317   6.238   9.459   9.504  0.2946  0.4806  0.6002
  435MOL0     O57318   6.179   9.418   9.391  0.3412 -0.2984  0.3247
  435MOL0     C57319   6.038   9.431   9.384 -1.3367 -0.1518  0.2163
  435MOL0     C57320   5.986   9.554   9.368 -0.4020  0.1734  0.0787
  435MOL0     C57321   5.846   9.579   9.348  0.2289 -0.8250  0.0989
  435MOL0     C57322   5.762   9.470   9.342 -0.1133 -0.1255 -0.6375
  435MOL0     O57323   5.622   9.464   9.332  0.1207  0.5256  0.7669
  435MOL0     C57324   5.556   9.585   9.332 -0.2427  0.4739 -0.2302
  435MOL0     C57325   5.532   9.628   9.194  0.2167 -0.7644  0.4375
  435MOL0     C57326   5.471   9.774   9.184  0.1674  0.8768 -0.7670
  435MOL0     C57327   5.447   9.826   9.048 -0.0625 -0.2845  0.4344
  435MOL0     C57328   5.415   9.973   9.047 -0.3698 -0.3722  0.8710
  435MOL0     C57329   5.273  10.016   9.102 -0.2079  0.2843 -0.3141
  435MOL0     C57330   5.147   9.951   9.047 -0.8733 -1.1910 -0.2344
  435MOL0     C57331   5.012  10.026   9.085 -0.0900  0.0570  0.7897
  435MOL0    Cl57332   4.961  10.026   9.252  0.6651 -0.8064 -0.5246
  435MOL0     C57333   5.815   9.341   9.363  0.2576  0.4949  0.3883
  435MOL0     C57334   5.954   9.316   9.379  0.3987 -0.0080 -0.7441
  435MOL0     O57335   6.180   9.506   9.602 -0.3202  0.8817  0.1413
  435MOL0     C57336   6.463   9.428   9.395  0.6427 -0.4390 -0.5831
  435MOL0     C57337   6.597   9.403   9.414  0.4842 -0.6758  0.5839
  435MOL0     N57338   7.332   9.263   9.196 -0.2761  0.1380  0.2644
  435MOL0     N57339   7.444   9.258   9.129 -0.4874 -0.2390 -0.0562
  435MOL0     C57340   8.643   9.826   9.454 -0.4962 -0.8043  0.3901
  435MOL0     C57341   8.778   9.792   9.478  0.5895  0.4228  1.0195
  435MOL0     C57342   9.183   9.618   9.491 -0.5765  0.3263 -0.6424
  435MOL0     C57343   9.306   9.689   9.462 -0.2439  0.0045 -0.0506
  435MOL0     C57344   9.431   9.632   9.496 -0.8898 -0.6732  0.1079
  435MOL0     C57345   9.437   9.500   9.551 -0.2763 -0.5131 -0.5165
  435MOL0     O57346   9.555   9.430   9.573 -0.1645  0.1421  0.8426
  435MOL0     C57347   9.679   9.511   9.562  0.6869 -0.1134 -1.3111
  435MOL0     C57348   9.794   9.414   9.605 -0.4012 -0.6518  0.5630
  435MOL0     C57349   9.801   9.420   9.756 -0.4347 -0.3347 -0.3266
  435MOL0     C57350   9.921   9.360   9.831 -0.0614  0.4920 -0.6525
  435MOL0     C57351  10.033   9.451   9.824 -0.5536 -0.2987 -0.2236
  435MOL0     C57352  10.121   9.534   9.806 -0.1587 -0.3195  0.1969
  435MOL0     C57353   9.316   9.438   9.581 -0.1465 -0.3673 -0.1748
  435MOL0     C57354   9.195   9.487   9.550  0.1220 -0.0921 -0.4847
  435MOL0     H57355   8.730   9.455   9.493  2.3883  0.5245  1.9430
  435MOL0     H57356   8.510   9.513   9.423  1.0263 -1.5391 -3.0865
  435MOL0     H57357   8.284   9.623   9.414  2.3841 -2.0436 -0.7230
  435MOL0     H57358   8.365   9.622   9.252  0.4815 -1.5293  1.5407
  435MOL0     H57359   8.254   9.827   9.194  0.7256 -0.5377 -0.8665
  435MOL0     H57360   8.176   9.839   9.348 -3.9182 -0.8878 -1.0731
  435MOL0     H57361   8.021   9.782   9.210  2.4463  2.1884  1.1239
  435MOL0     H57362   8.053   9.642   9.320  1.3080 -1.3986  0.5927
  435MOL0     H57363   8.170   9.653   9.039  2.3949 -0.2442  1.5819
  435MOL0     H57364   8.173   9.514   9.135 -1.1598 -0.3767 -0.0100
  435MOL0     H57365   7.995   9.506   8.955  3.9767 -1.8887  1.3731
  435MOL0     H57366   7.911   9.643   9.040  0.3251 -0.0453 -0.0326
  435MOL0     H57367   7.917   9.486   9.245 -1.8821  0.5391 -0.1117
  435MOL0     H57368   7.960   9.354   9.145 -0.7274 -0.8142 -0.4186
  435MOL0     H57369   7.717   9.509   9.079  1.5729 -0.2374 -1.1160
  435MOL0     H57370   7.770   9.383   8.989 -1.4832 -0.8985  0.1305
  435MOL0     H57371   7.715   9.339   9.282 -2.4623 -3.1771  1.7432
  435MOL0     H57372   7.703   9.214   9.168 -0.3225  0.3341 -0.1996
  435MOL0     H57373   7.532   9.475   9.353  1.6327  0.3383 -1.1077
  435MOL0     H57374   7.262   9.513   9.389 -1.0575  0.2723 -0.3690
  435MOL0     H57375   7.284   9.378   9.494 -2.9606 -0.1340  0.9683
  435MOL0     H57376   7.119   9.249   9.344  0.0263  0.0986  1.1434
  435MOL0     H57377   7.076   9.397   9.266 -0.1753  1.5669  0.1951
  435MOL0     H57378   7.063   9.323   9.562 -0.4266 -1.7119 -1.5857
  435MOL0     H57379   7.025   9.486   9.507  0.8965  1.0886 -1.1093
  435MOL0     H57380   6.867   9.220   9.476 -1.0161 -0.7879 -1.7194
  435MOL0     H57381   6.843   9.346   9.358  4.1139  2.4785 -0.6110
  435MOL0     H57382   6.632   9.446   9.738  0.7421 -2.7051 -0.3664
  435MOL0     H57383   6.411   9.472   9.734  1.7000 -1.8244  1.4387
  435MOL0     H57384   6.052   9.640   9.362 -0.9747  0.7311  1.3218
  435MOL0     H57385   5.809   9.681   9.341  0.1530 -0.7324  1.5548
  435MOL0     H57386   5.603   9.664   9.392 -4.5144  2.0135  1.5076
  435MOL0     H57387   5.463   9.574   9.389  0.1705  5.2123  1.8247
  435MOL0     H57388   5.453   9.562   9.158 -1.1437 -1.7881  4.7053
  435MOL0     H57389   5.626   9.630   9.138  0.4064  2.1013  0.6774
  435MOL0     H57390   5.535   9.841   9.243  0.0992 -0.2967  0.7212
  435MOL0     H57391   5.382   9.794   9.245  1.8142  4.4359  0.7135
  435MOL0     H57392   5.532   9.800   8.984  0.0704  1.1551 -0.0083
  435MOL0     H57393   5.362   9.776   9.000  0.5394 -0.2509 -0.7140
  435MOL0     H57394   5.423  10.002   8.942 -5.0590  1.0695  0.6703
  435MOL0     H57395   5.488  10.037   9.098 -1.0581 -0.1626  1.6111
  435MOL0     H57396   5.271  10.121   9.073  2.5090  0.7859  0.9142
  435MOL0     H57397   5.283  10.007   9.211 -0.5489 -0.8328 -0.3591
  435MOL0     H57398   5.156   9.932   8.940  2.6462 -0.6578 -0.1776
  435MOL0     H57399   5.133   9.852   9.093 -1.4069 -1.3977 -0.8371
  435MOL0     H57400   4.928   9.993   9.024  2.1131 -1.9324 -1.3966
  435MOL0     H57401   5.024  10.131   9.056 -1.8419 -0.1427 -0.8627
  435MOL0     H57402   5.745   9.258   9.358  1.6278 -0.8137  1.8826
  435MOL0     H57403   5.996   9.216   9.376 -0.0800 -0.5556  3.9349
  435MOL0     H57404   6.428   9.438   9.292 -0.3189  1.4673 -0.1285
  435MOL0     H57405   6.649   9.372   9.323  2.1702  0.8000  1.0084
  435MOL0     H57406   8.616   9.931   9.447 -0.0326 -0.6090  1.3819
  435MOL0     H57407   8.857   9.863   9.501  0.7460  0.1374  1.3531
  435MOL0     H57408   9.304   9.790   9.422 -1.0131 -0.1109 -0.3264
  435MOL0     H57409   9.520   9.687   9.465  0.0886 -3.4863 -2.6522
  435MOL0     H57410   9.684   9.606   9.616 -3.3602 -0.3596 -0.2058
  435MOL0     H57411   9.692   9.527   9.455  0.2067 -1.1001 -1.5277
  435MOL0     H57412   9.772   9.311   9.575 -3.2481 -0.0935  0.4783
  435MOL0     H57413   9.883   9.455   9.556 -0.9593 -1.9554 -1.7146
  435MOL0     H57414   9.712   9.368   9.791 -0.7104  1.0523  1.0816
  435MOL0     H57415   9.795   9.523   9.790  1.2894 -0.9554  2.1171
  435MOL0     H57416   9.883   9.352   9.933 -0.4197 -1.6914 -0.9105
  435MOL0     H57417   9.952   9.258   9.806  1.4443  0.1971  1.9794
  435MOL0     H57418  10.203   9.601   9.791  0.0982 -1.4150 -5.3964
  435MOL0     H57419   9.316   9.342   9.633 -0.8724 -1.1525 -1.5560
  435MOL0     H57420   9.105   9.427   9.562 -0.5503  1.1232  0.8089
  436MOL0     O57421   0.847   2.062   0.269  0.2516 -0.1652 -0.1998
  436MOL0     C57422   0.921   2.044   0.366 -0.2782  0.0183 -0.1176
  436MOL0     O57423   0.867   2.001   0.482  0.4182 -0.3762 -0.1604
  436MOL0     C57424   0.741   1.961   0.477 -0.2494  0.4837 -0.5755
  436MOL0     C57425   0.637   2.040   0.526 -0.3872 -0.4335 -0.0062
  436MOL0     C57426   0.505   1.985   0.532 -0.0928 -0.5513  0.8394
  436MOL0     C57427   0.478   1.858   0.476  0.4927  0.2079 -0.7714
  436MOL0     O57428   0.351   1.808   0.488 -0.6306 -0.9135 -0.5236
  436MOL0     C57429   0.321   1.680   0.424 -0.1893 -0.3735 -1.0179
  436MOL0     C57430   0.192   1.605   0.466  0.4700 -1.2907 -0.1351
  436MOL0     C57431   0.134   1.545   0.333  0.3330  1.0881 -0.1629
  436MOL0     C57432   0.026   1.433   0.352  0.3527 -0.5331  0.2711
  436MOL0     C57433   0.003   1.373   0.210 -0.1046 -0.6604 -0.4945
  436MOL0     C57434  -0.098   1.250   0.210  0.2706 -0.6857  0.3238
  436MOL0     C57435  -0.229   1.280   0.284  0.1282 -0.6814 -0.1210
  436MOL0     C57436  -0.321   1.170   0.257  0.3309 -0.5049  0.8616
  436MOL0     N57437  -0.459   1.205   0.301 -0.7833  0.2357  0.4385
  436MOL0     C57438  -0.499   1.211   0.427  0.5015 -0.5051  0.0305
  436MOL0     C57439  -0.637   1.192   0.419 -0.4594 -0.3275  0.3648
  436MOL0     C57440  -0.729   1.189   0.535  0.3723 -0.6292 -0.1894
  436MOL0     C57441  -0.855   1.274   0.528  0.3257 -0.5759  0.8906
  436MOL0     C57442  -0.973   1.211   0.616  0.1837  0.6122 -0.5711
  436MOL0     C57443  -1.085   1.304   0.637  0.6886  0.7093 -0.3163
  436MOL0     O57444  -1.204   1.228   0.670  0.0003 -0.7373 -0.1100
  436MOL0     C57445  -1.301   1.291   0.738  0.1830 -0.2851 -0.1549
  436MOL0     C57446  -1.348   1.421   0.690 -0.9240  0.4510  0.4405
  436MOL0     C57447  -1.456   1.479   0.745  1.0607  0.0572  0.6340
  436MOL0     C57448  -1.540   1.406   0.835 -0.5140  0.0466 -1.3097
  436MOL0     C57449  -1.644   1.464   0.923 -0.0273  0.3467 -0.8815
  436MOL0     O57450  -1.746   1.379   0.969 -0.2258 -0.7525 -0.0004
  436MOL0     C57451  -1.836   1.429   1.061 -0.3316  0.0960 -0.0378
  436MOL0     C57452  -1.831   1.418   1.204  0.8542  0.4213 -0.2471
  436MOL0     C57453  -1.945   1.461   1.285 -0.2634  0.3917  0.3084
  436MOL0     C57454  -2.056   1.517   1.235 -0.6734 -0.1946  0.2389
  436MOL0     O57455  -2.164   1.539   1.320 -0.3846  1.0823  0.9774
  436MOL0     C57456  -2.303   1.543   1.271  0.6602  0.2192 -1.1847
  436MOL0     C57457  -2.356   1.399   1.262 -0.2469 -0.4751  0.4823
  436MOL0     C57458  -2.479   1.420   1.189  0.3172 -0.1729  0.5714
  436MOL0     C57459  -2.561   1.292   1.172 -0.0888  0.1687  1.4939
  436MOL0     C57460  -2.680   1.319   1.073  0.8709 -0.5778  0.1235
  436MOL0     C57461  -2.770   1.192   1.068  0.3238  1.3817 -0.3189
  436MOL0     C57462  -2.912   1.202   1.024  0.3860  0.3373 -0.2884
  436MOL0     C57463  -2.925   1.267   0.884 -0.4585  0.3238  0.0883
  436MOL0    Cl57464  -3.086   1.348   0.879  0.3342  0.1971 -0.0867
  436MOL0     C57465  -2.060   1.544   1.096  0.0325 -0.0300  0.7924
  436MOL0     C57466  -1.952   1.501   1.011  0.1715  0.1303 -0.6478
  436MOL0     O57467  -1.645   1.590   0.941  0.6498  0.3435  0.4284
  436MOL0     C57468  -1.498   1.275   0.879  0.1068  0.1741  0.3763
  436MOL0     C57469  -1.380   1.216   0.820 -0.4253  0.3561 -0.9072
  436MOL0     N57470  -0.677   1.196   0.284  0.1461  0.1265  0.0354
  436MOL0     N57471  -0.568   1.197   0.218 -0.6461 -0.7086 -0.3352
  436MOL0     C57472   0.582   1.786   0.424  0.1276 -0.0336  0.5196
  436MOL0     C57473   0.716   1.835   0.417 -0.2997  0.2676  0.3509
  436MOL0     C57474   1.063   2.074   0.351  0.3201  0.3927  0.4818
  436MOL0     C57475   1.154   2.097   0.457  0.2327  0.6010 -0.1611
  436MOL0     C57476   1.289   2.107   0.443 -0.1991 -0.2986  0.4888
  436MOL0     C57477   1.334   2.128   0.313  0.0099 -0.2282 -0.0117
  436MOL0     O57478   1.470   2.154   0.281  0.0591  0.3830 -0.3785
  436MOL0     C57479   1.570   2.115   0.375 -0.5262 -0.2766 -0.3854
  436MOL0     C57480   1.705   2.111   0.291  0.6182 -0.0218 -0.6385
  436MOL0     C57481   1.726   2.255   0.241 -0.3422  0.4063  0.6819
  436MOL0     C57482   1.750   2.364   0.350  0.9162  0.0719  0.2273
  436MOL0     C57483   1.789   2.491   0.292  0.8039  0.1637 -0.0449
  436MOL0     C57484   1.835   2.592   0.248 -0.2858 -0.2600 -0.0054
  436MOL0     C57485   1.250   2.112   0.205  0.7796  0.6613  0.4133
  436MOL0     C57486   1.118   2.075   0.225 -0.7508  0.3464  0.4203
  436MOL0     H57487   0.645   2.145   0.552 -1.4833 -0.1355 -0.7888
  436MOL0     H57488   0.429   2.050   0.573  3.8385  3.6725  2.2354
  436MOL0     H57489   0.404   1.611   0.440  1.0425  1.2918  0.0500
  436MOL0     H57490   0.324   1.705   0.317  2.2561  1.2428 -0.6487
  436MOL0     H57491   0.122   1.675   0.511 -1.7969 -1.9891 -2.3351
  436MOL0     H57492   0.221   1.526   0.536 -0.9488 -3.4152 -1.8228
  436MOL0     H57493   0.215   1.495   0.279 -2.5485 -2.2278 -1.8334
  436MOL0     H57494   0.079   1.616   0.271 -5.3437 -2.1409  0.5033
  436MOL0     H57495   0.058   1.361   0.427  1.0908 -0.2010  0.2830
  436MOL0     H57496  -0.071   1.475   0.383  0.9735  0.0996  1.4025
  436MOL0     H57497   0.094   1.335   0.162 -0.0947 -1.2066 -0.0552
  436MOL0     H57498  -0.033   1.453   0.145  0.9034  0.4157  0.2410
  436MOL0     H57499  -0.056   1.157   0.249  1.9122  0.2402  0.8633
  436MOL0     H57500  -0.128   1.234   0.106  0.1050  0.1837  0.2274
  436MOL0     H57501  -0.210   1.290   0.391 -4.2984  0.0048  0.7905
  436MOL0     H57502  -0.261   1.377   0.246  1.7890 -0.3632 -0.8161
  436MOL0     H57503  -0.282   1.078   0.301  0.5726 -0.6630  0.3156
  436MOL0     H57504  -0.330   1.157   0.149  0.4909  2.0544  0.4840
  436MOL0     H57505  -0.425   1.216   0.507 -2.1846  0.4436  2.6394
  436MOL0     H57506  -0.675   1.227   0.622  2.1414  1.0934 -1.9510
  436MOL0     H57507  -0.765   1.086   0.547 -2.9213  0.4885  0.7911
  436MOL0     H57508  -0.887   1.283   0.424  0.5403 -2.2647  0.6442
  436MOL0     H57509  -0.840   1.378   0.557 -1.3273 -0.4969  1.5479
  436MOL0     H57510  -1.003   1.124   0.557  0.0574 -0.6310  1.2292
  436MOL0     H57511  -0.947   1.170   0.714  0.6540  1.8308 -0.1675
  436MOL0     H57512  -1.098   1.361   0.544  2.1237 -1.3028 -1.8611
  436MOL0     H57513  -1.076   1.365   0.727  1.4316 -1.4314  1.1588
  436MOL0     H57514  -1.290   1.470   0.613 -1.2145  2.9653  1.7090
  436MOL0     H57515  -1.474   1.584   0.725  2.5111  1.3836  5.0727
  436MOL0     H57516  -1.744   1.381   1.257  1.8645  2.6053 -0.3105
  436MOL0     H57517  -1.947   1.444   1.392 -1.8292  3.8808  0.9561
  436MOL0     H57518  -2.315   1.596   1.177 -0.1848  0.3208 -1.0325
  436MOL0     H57519  -2.363   1.598   1.345  0.2969  1.0472 -2.0885
  436MOL0     H57520  -2.375   1.354   1.360  0.2744 -1.2687  0.2310
  436MOL0     H57521  -2.286   1.342   1.200 -0.7385 -2.6472  1.8260
  436MOL0     H57522  -2.456   1.469   1.093  1.5885 -2.5016 -0.4039
  436MOL0     H57523  -2.536   1.491   1.249 -0.5607  0.0868 -0.5402
  436MOL0     H57524  -2.492   1.223   1.124 -2.8208 -0.4493 -1.9485
  436MOL0     H57525  -2.591   1.260   1.272  0.4860  2.4868  2.4839
  436MOL0     H57526  -2.622   1.344   0.983  1.2708 -0.7746  0.3255
  436MOL0     H57527  -2.731   1.410   1.106  1.1237 -0.8319  1.2423
  436MOL0     H57528  -2.780   1.138   1.163  2.4907  0.7799 -0.3843
  436MOL0     H57529  -2.724   1.124   0.996 -3.0314  1.8833 -3.1790
  436MOL0     H57530  -2.960   1.104   1.024  1.8394 -0.4051  0.3823
  436MOL0     H57531  -2.959   1.259   1.105 -0.2885  1.2829 -1.3176
  436MOL0     H57532  -2.905   1.190   0.809  0.1808 -1.0727  1.6328
  436MOL0     H57533  -2.850   1.347   0.886 -1.5912  1.4125  0.9119
  436MOL0     H57534  -2.138   1.598   1.043 -1.4922 -2.5234  0.2974
  436MOL0     H57535  -1.953   1.528   0.906 -0.6989  0.7854 -0.4831
  436MOL0     H57536  -1.534   1.215   0.962  0.5103 -0.5695  0.0252
  436MOL0     H57537  -1.352   1.121   0.864  1.6041  0.8884 -0.9839
  436MOL0     H57538   0.569   1.691   0.373 -0.8855 -0.7677  2.0551
  436MOL0     H57539   0.788   1.772   0.366 -2.1669  0.6431 -3.0814
  436MOL0     H57540   1.122   2.086   0.560  1.1942  0.1668  0.0956
  436MOL0     H57541   1.353   2.106   0.531  0.4763 -1.1105 -0.0025
  436MOL0     H57542   1.551   2.013   0.410 -0.4444 -0.7212 -1.5981
  436MOL0     H57543   1.572   2.185   0.459  0.7300  0.0610 -0.6719
  436MOL0     H57544   1.783   2.075   0.358 -0.6188  1.8924  2.0238
  436MOL0     H57545   1.689   2.038   0.212 -1.5445 -1.8530  1.3202
  436MOL0     H57546   1.644   2.292   0.179  0.1824  1.9244  0.8564
  436MOL0     H57547   1.804   2.246   0.165 -1.8600 -3.1039 -0.6663
  436MOL0     H57548   1.663   2.365   0.417  0.0885  0.2319 -0.8401
  436MOL0     H57549   1.840   2.337   0.407  1.4851  1.1661 -0.1270
  436MOL0     H57550   1.867   2.689   0.216 -0.5049  0.2798  1.3680
  436MOL0     H57551   1.277   2.128   0.102 -2.4215 -2.2278 -1.0886
  436MOL0     H57552   1.050   2.066   0.140  0.9691  0.6547 -1.0424
  437MOL0     O57553   4.391   9.768   9.188  0.3507  0.1077 -0.3619
  437MOL0     C57554   4.397   9.737   9.069 -0.7435  0.2284 -0.6487
  437MOL0     O57555   4.297   9.728   8.982  0.9188  0.5260 -0.1555
  437MOL0     C57556   4.176   9.798   9.020  0.0832  0.2960 -0.0428
  437MOL0     C57557   4.160   9.930   8.985  0.5863  0.0111 -0.2454
  437MOL0     C57558   4.043  10.002   9.011  0.2168 -0.3821 -1.3581
  437MOL0     C57559   3.947   9.940   9.087  0.2048  0.4835  0.0741
  437MOL0     O57560   3.827  10.014   9.089 -0.1243 -0.2738 -0.1119
  437MOL0     C57561   3.707   9.946   9.091  0.0915 -0.3399 -0.1833
  437MOL0     C57562   3.595  10.056   9.082 -0.0036 -0.8230  0.5552
  437MOL0     C57563   3.462   9.976   9.072 -0.8026  0.7226 -0.8177
  437MOL0     C57564   3.346  10.073   9.071 -0.8606 -0.0620 -0.1286
  437MOL0     C57565   3.194  10.016   9.048 -0.2528 -0.0954  0.0103
  437MOL0     C57566   3.090  10.131   9.032 -0.8888  0.2209  0.8907
  437MOL0     C57567   2.963  10.054   8.989 -0.2568  0.4624  0.0956
  437MOL0     C57568   2.867  10.163   8.931 -1.0815  0.4833 -0.5306
  437MOL0     N57569   2.733  10.099   8.926 -0.4885 -0.2461 -0.1162
  437MOL0     C57570   2.692  10.022   8.820 -0.5446 -0.0515 -1.1398
  437MOL0     C57571   2.584   9.956   8.872  1.2591  0.1610 -1.1136
  437MOL0     C57572   2.511   9.852   8.789  0.7726  0.6326  0.0898
  437MOL0     C57573   2.355   9.857   8.811 -0.1070 -0.3972 -0.7264
  437MOL0     C57574   2.274   9.879   8.680  0.2430 -0.3917 -0.4955
  437MOL0     C57575   2.123   9.877   8.700  1.0378  0.1990 -0.0475
  437MOL0     O57576   2.059   9.904   8.578 -0.1462 -0.6854  0.1777
  437MOL0     C57577   1.919   9.910   8.580  0.6177 -0.6824  0.2969
  437MOL0     C57578   1.846   9.981   8.672 -0.0781  0.3284 -0.4632
  437MOL0     C57579   1.705   9.992   8.655  0.2744 -0.5262 -0.1669
  437MOL0     C57580   1.632   9.938   8.540 -0.4294 -0.5520 -1.2205
  437MOL0     C57581   1.494   9.966   8.501 -0.7445 -0.7835 -0.2681
  437MOL0     O57582   1.434  10.059   8.570  0.2370  0.0030  0.4960
  437MOL0     C57583   1.315  10.111   8.525 -0.3250 -0.2841 -0.0105
  437MOL0     C57584   1.323  10.221   8.435 -0.3884 -0.4602 -0.7153
  437MOL0     C57585   1.210  10.285   8.393 -0.8037 -0.5438 -0.1839
  437MOL0     C57586   1.083  10.244   8.426  0.4879 -0.7400  0.5764
  437MOL0     O57587   0.968  10.309   8.374 -0.6821 -0.2636  0.2244
  437MOL0     C57588   0.848  10.282   8.442  0.5496  0.3495  0.4596
  437MOL0     C57589   0.740  10.370   8.381  0.6155 -0.0788 -0.6787
  437MOL0     C57590   0.613  10.376   8.477 -0.0566 -0.4986 -0.1575
  437MOL0     C57591   0.476  10.382   8.402  0.4000 -0.1534  0.2560
  437MOL0     C57592   0.442  10.523   8.339  0.0501  0.5365  0.1787
  437MOL0     C57593   0.293  10.532   8.294 -0.3309  0.5854  0.2955
  437MOL0     C57594   0.261  10.440   8.173 -0.2992 -0.4717 -0.1394
  437MOL0     C57595   0.135  10.489   8.102 -0.3720  0.1702  0.0605
  437MOL0    Cl57596   0.005  10.462   8.223 -0.4460  0.1140 -0.0654
  437MOL0     C57597   1.075  10.146   8.534 -0.7786 -0.3060 -0.3026
  437MOL0     C57598   1.185  10.088   8.588 -0.7997  0.2980 -0.4240
  437MOL0     O57599   1.453   9.899   8.411 -0.3497  0.6136  0.2581
  437MOL0     C57600   1.715   9.870   8.452  0.8546  0.6965 -0.7195
  437MOL0     C57601   1.847   9.860   8.464  0.4899 -0.0794  0.1739
  437MOL0     N57602   2.555  10.013   9.003  0.0768 -0.7330  0.5850
  437MOL0     N57603   2.651  10.096   9.032 -0.0665  0.3541  0.0877
  437MOL0     C57604   3.958   9.805   9.123 -0.6835 -0.4631 -0.7944
  437MOL0     C57605   4.080   9.737   9.094  0.2829 -0.5172  0.3806
  437MOL0     C57606   4.525   9.682   9.026  0.6480 -0.1865  0.5330
  437MOL0     C57607   4.635   9.671   9.108 -0.8611 -0.3164 -0.0993
  437MOL0     C57608   4.773   9.637   9.069  1.1771 -0.1467 -0.2285
  437MOL0     C57609   4.795   9.613   8.932 -0.6093 -0.8575 -0.0597
  437MOL0     O57610   4.920   9.588   8.865  0.2539  0.6767 -0.0531
  437MOL0     C57611   5.042   9.587   8.937 -0.1693 -0.0224 -0.0956
  437MOL0     C57612   5.150   9.543   8.843 -0.5815  0.0857 -0.4913
  437MOL0     C57613   5.148   9.394   8.796  0.1839  0.3253  1.1211
  437MOL0     C57614   5.122   9.282   8.895  0.2891  0.2142 -0.1118
  437MOL0     C57615   5.221   9.288   9.007  0.1867  0.0469  0.7246
  437MOL0     C57616   5.298   9.298   9.095 -0.5764 -0.0086 -0.0992
  437MOL0     C57617   4.688   9.621   8.843 -0.4952  0.2213  0.3179
  437MOL0     C57618   4.560   9.649   8.894  0.6682  0.6978  0.2084
  437MOL0     H57619   4.234   9.991   8.933 -1.5182  2.0305 -1.0691
  437MOL0     H57620   4.016  10.100   8.973 -0.2559  1.5997  3.3379
  437MOL0     H57621   3.689   9.903   9.190 -2.9951 -0.2259 -0.5951
  437MOL0     H57622   3.700   9.873   9.011 -0.8523 -0.1181 -0.3181
  437MOL0     H57623   3.605  10.118   8.992 -2.1235 -1.2609 -0.0221
  437MOL0     H57624   3.596  10.114   9.174 -3.7724  1.3504 -0.5687
  437MOL0     H57625   3.445   9.903   9.152  0.3224  0.5754 -0.7002
  437MOL0     H57626   3.465   9.918   8.979 -2.0828  0.1723 -0.5470
  437MOL0     H57627   3.358  10.122   9.168 -1.1310 -0.3015  0.0307
  437MOL0     H57628   3.361  10.146   8.991  1.6109 -1.0088 -0.6158
  437MOL0     H57629   3.156   9.947   9.123  2.9107 -2.7247 -0.5904
  437MOL0     H57630   3.202   9.963   8.953 -0.6994 -0.9342  0.4347
  437MOL0     H57631   3.124  10.209   8.963  0.9767 -2.1001 -1.0054
  437MOL0     H57632   3.067  10.180   9.127  0.1038  3.3929 -0.3882
  437MOL0     H57633   2.972   9.979   8.910 -1.0460  0.4282  0.0363
  437MOL0     H57634   2.920   9.995   9.071 -0.8083 -0.7443 -1.0415
  437MOL0     H57635   2.903  10.177   8.828 -0.8190  1.5237 -0.3097
  437MOL0     H57636   2.869  10.258   8.984  0.8234  0.7233 -0.9538
  437MOL0     H57637   2.738   9.999   8.724  0.7664  0.4218 -0.6473
  437MOL0     H57638   2.544   9.753   8.823  1.7683  1.2439  0.9657
  437MOL0     H57639   2.547   9.864   8.687  0.7911  0.2818  0.0548
  437MOL0     H57640   2.325   9.936   8.879  2.3719 -2.1000  2.6523
  437MOL0     H57641   2.317   9.759   8.841 -0.7572 -1.5527 -4.7090
  437MOL0     H57642   2.297   9.980   8.644  1.4859 -0.2972  0.4713
  437MOL0     H57643   2.307   9.820   8.595  1.5531  1.1558 -1.1193
  437MOL0     H57644   2.101   9.960   8.769  0.4176  0.7394 -0.8734
  437MOL0     H57645   2.083   9.789   8.750  0.9130  0.8303  1.0040
  437MOL0     H57646   1.903  10.020   8.755  2.2789 -0.9541 -1.3936
  437MOL0     H57647   1.646  10.051   8.725  2.7120  1.6990  0.1707
  437MOL0     H57648   1.421  10.249   8.399  0.9613  0.2850  3.0927
  437MOL0     H57649   1.223  10.357   8.313  2.0946  0.4780  1.0484
  437MOL0     H57650   0.865  10.300   8.549  1.2623 -2.1876  0.8476
  437MOL0     H57651   0.816  10.178   8.434  0.1069  0.4194  1.2177
  437MOL0     H57652   0.716  10.336   8.280  0.7343  2.3896 -1.5831
  437MOL0     H57653   0.772  10.472   8.362  2.6448 -0.6558 -0.5904
  437MOL0     H57654   0.610  10.454   8.553 -1.1577  0.4828 -1.1734
  437MOL0     H57655   0.611  10.280   8.531 -0.7643 -2.1560 -2.9055
  437MOL0     H57656   0.461  10.304   8.327  0.9881  0.0445 -0.0677
  437MOL0     H57657   0.402  10.359   8.480 -1.2899  0.3114 -1.1331
  437MOL0     H57658   0.509  10.563   8.263 -0.6124  1.5516  0.1025
  437MOL0     H57659   0.460  10.603   8.411  2.4717 -0.7982  1.1663
  437MOL0     H57660   0.258  10.631   8.265  1.8231  0.6564 -2.5092
  437MOL0     H57661   0.235  10.490   8.376  1.1086 -2.7605 -0.2296
  437MOL0     H57662   0.341  10.434   8.099 -2.4547  4.8511 -3.5196
  437MOL0     H57663   0.239  10.341   8.212 -0.7937 -0.6195 -0.7745
  437MOL0     H57664   0.119  10.435   8.008 -0.0572  1.0142 -0.4918
  437MOL0     H57665   0.156  10.595   8.083 -0.9849  0.3642  0.4165
  437MOL0     H57666   0.981  10.113   8.577 -1.1184  2.4281  1.2299
  437MOL0     H57667   1.171  10.016   8.668 -0.4486  0.4958 -0.1823
  437MOL0     H57668   1.682   9.832   8.356  1.4363  0.3302 -0.7782
  437MOL0     H57669   1.907   9.816   8.384 -1.5839 -1.8502 -0.5047
  437MOL0     H57670   3.888   9.747   9.182 -2.9143 -1.6198 -4.2544
  437MOL0     H57671   4.105   9.645   9.146 -1.9925 -0.3400  1.9137
  437MOL0     H57672   4.613   9.701   9.210 -1.2426  4.1564 -1.2773
  437MOL0     H57673   4.858   9.664   9.131  3.0034  0.4856 -2.8224
  437MOL0     H57674   5.036   9.525   9.026 -0.0050 -1.5685 -1.1268
  437MOL0     H57675   5.068   9.689   8.967  3.2472 -1.2181  1.5221
  437MOL0     H57676   5.146   9.610   8.757  0.0337  1.8098  0.7798
  437MOL0     H57677   5.245   9.565   8.893  1.2372  2.8099 -4.6251
  437MOL0     H57678   5.248   9.368   8.761 -0.7349 -0.1626 -1.3172
  437MOL0     H57679   5.076   9.384   8.714  0.4856  2.5901  0.5174
  437MOL0     H57680   5.018   9.285   8.927  0.0067  2.8692 -1.0190
  437MOL0     H57681   5.124   9.190   8.835 -0.1307 -0.3209  0.6688
  437MOL0     H57682   5.371   9.305   9.173 -1.4602 -2.0810  1.0111
  437MOL0     H57683   4.708   9.600   8.738  3.9756 -0.1884  1.0510
  437MOL0     H57684   4.472   9.660   8.832  0.5499 -2.9271 -0.4961
  438MOL0     O57685  10.856  10.653   0.236 -0.3403  0.7952 -0.4365
  438MOL0     C57686  10.891  10.771   0.216  0.1385 -0.8613  0.1658
  438MOL0     O57687  10.807  10.885   0.219  0.1778  0.1911 -0.2561
  438MOL0     C57688  10.672  10.866   0.238 -0.9516 -0.3925 -0.4739
  438MOL0     C57689  10.616  10.790   0.339  0.6834  0.8875  0.1051
  438MOL0     C57690  10.481  10.789   0.365  0.3520 -0.3288 -0.3270
  438MOL0     C57691  10.393  10.874   0.292  0.4030 -0.6312 -1.2264
  438MOL0     O57692  10.251  10.875   0.302  0.0546  0.3814  0.5336
  438MOL0     C57693  10.187  10.772   0.372  1.1863  0.2853  0.2594
  438MOL0     C57694  10.036  10.773   0.365  0.6394 -0.4718  0.5439
  438MOL0     C57695   9.976  10.742   0.226  0.2816 -0.5658 -0.0348
  438MOL0     C57696   9.830  10.785   0.233  0.8386  0.4066  0.3879
  438MOL0     C57697   9.764  10.757   0.105 -0.6852 -0.1339 -0.4614
  438MOL0     C57698   9.611  10.771   0.104  0.3739 -0.1884  1.0595
  438MOL0     C57699   9.547  10.893   0.163  0.2368 -0.1430 -0.8349
  438MOL0     C57700   9.396  10.879   0.160  0.2367  0.8253  0.6670
  438MOL0     N57701   9.349  10.990   0.240 -0.4262 -0.3152  0.3071
  438MOL0     C57702   9.289  10.978   0.367  0.1856  0.3700 -0.2264
  438MOL0     C57703   9.236  11.102   0.389  0.0392 -0.0888 -0.4296
  438MOL0     C57704   9.150  11.143   0.505  0.3061  0.4982 -0.5776
  438MOL0     C57705   9.025  11.051   0.499 -0.8562 -0.0207 -0.1975
  438MOL0     C57706   8.933  11.084   0.384  0.0884 -0.0358 -0.4282
  438MOL0     C57707   8.842  11.210   0.411 -0.6713  0.3459  0.3689
  438MOL0     O57708   8.725  11.203   0.322 -0.3815 -0.3424 -1.4750
  438MOL0     C57709   8.616  11.284   0.362 -0.8125 -0.2347  1.4346
  438MOL0     C57710   8.601  11.370   0.471  0.1263 -0.2909 -0.1854
  438MOL0     C57711   8.489  11.453   0.494  0.0378  0.1911 -0.1990
  438MOL0     C57712   8.386  11.455   0.407  0.3316 -0.1218 -0.6965
  438MOL0     C57713   8.262  11.529   0.448 -0.3730  0.1671  0.3178
  438MOL0     O57714   8.273  11.622   0.560  0.7769 -0.1726  0.9403
  438MOL0     C57715   8.147  11.660   0.606 -0.7575 -0.9878 -0.3121
  438MOL0     C57716   8.066  11.569   0.674 -0.0586 -0.0060  0.6850
  438MOL0     C57717   7.941  11.611   0.728  0.3386 -0.5338 -0.6448
  438MOL0     C57718   7.895  11.748   0.698  0.3027  0.0609 -0.1107
  438MOL0     O57719   7.768  11.776   0.733 -0.2133 -0.4969 -0.8122
  438MOL0     C57720   7.715  11.908   0.718  0.6887  0.2356 -0.1142
  438MOL0     C57721   7.581  11.931   0.764 -0.2895  0.7698  0.1772
  438MOL0     C57722   7.468  11.852   0.684 -0.1259  0.3480 -1.3591
  438MOL0     C57723   7.332  11.861   0.740  0.1222 -0.1129 -0.5771
  438MOL0     C57724   7.242  11.749   0.692  0.1934 -0.8333 -0.1271
  438MOL0     C57725   7.090  11.783   0.690 -0.0708  0.4768  0.3131
  438MOL0     C57726   7.006  11.670   0.636  0.7304 -0.6667 -0.5415
  438MOL0     C57727   6.860  11.709   0.645  0.0715 -0.6083  1.2332
  438MOL0    Cl57728   6.811  11.843   0.520  0.6112  0.2847 -0.4644
  438MOL0     C57729   7.987  11.837   0.641  0.5822 -0.1214 -0.1803
  438MOL0     C57730   8.114  11.793   0.599 -0.0124  0.8369 -1.0879
  438MOL0     O57731   8.163  11.498   0.385  0.0155  0.2154 -0.0604
  438MOL0     C57732   8.398  11.377   0.292 -0.0364  1.0022  0.3505
  438MOL0     C57733   8.511  11.297   0.275 -0.0277 -0.2643  0.9881
  438MOL0     N57734   9.260  11.187   0.284  0.9316 -0.4984 -0.8307
  438MOL0     N57735   9.340  11.122   0.205 -0.5375  0.8664  0.0270
  438MOL0     C57736  10.446  10.955   0.191 -0.5383  0.2066  0.3338
  438MOL0     C57737  10.587  10.945   0.163  0.2451 -0.0408 -0.4579
  438MOL0     C57738  11.037  10.799   0.204 -0.6930  0.1739  0.0584
  438MOL0     C57739  11.080  10.932   0.182  0.5663 -1.3824 -0.2275
  438MOL0     C57740  11.215  10.954   0.165  0.7621 -0.2903  1.1888
  438MOL0     C57741  11.306  10.861   0.179  0.7154  0.1373  1.0463
  438MOL0     O57742  11.434  10.906   0.173 -0.2900 -0.1842 -0.8534
  438MOL0     C57743  11.551  10.824   0.196 -0.4460  0.6877  0.2479
  438MOL0     C57744  11.576  10.796   0.342 -0.9477  0.1053 -0.0109
  438MOL0     C57745  11.617  10.929   0.412 -0.9908  0.2060 -0.2017
  438MOL0     C57746  11.747  11.000   0.373 -0.8053 -0.2485 -0.4267
  438MOL0     C57747  11.868  10.916   0.408  0.3890 -0.0455 -0.1539
  438MOL0     C57748  11.969  10.875   0.455  0.1452  0.7156 -0.9770
  438MOL0     C57749  11.271  10.725   0.191 -0.3245 -0.1323  0.4657
  438MOL0     C57750  11.134  10.698   0.201  0.2660  0.3528 -0.0651
  438MOL0     H57751  10.685  10.730   0.399  1.8502 -0.6428 -2.6087
  438MOL0     H57752  10.437  10.708   0.424 -1.3934  0.8530  0.0703
  438MOL0     H57753  10.216  10.778   0.477  1.9359 -1.0031  0.1369
  438MOL0     H57754  10.218  10.673   0.338  0.7286 -0.7492  2.6694
  438MOL0     H57755  10.005  10.864   0.416 -1.6221 -0.4466 -0.7421
  438MOL0     H57756  10.008  10.687   0.426  1.7061 -2.8293 -2.0375
  438MOL0     H57757   9.979  10.634   0.206  2.6598 -0.2131 -2.0408
  438MOL0     H57758  10.036  10.788   0.147  0.9787 -1.3179  0.0432
  438MOL0     H57759   9.778  10.726   0.309  1.1114 -0.4549 -0.0810
  438MOL0     H57760   9.822  10.888   0.267  1.1693  0.3114  0.7608
  438MOL0     H57761   9.786  10.651   0.087 -4.4513 -1.7132  2.7867
  438MOL0     H57762   9.818  10.824   0.038  0.7355 -2.6789 -2.0155
  438MOL0     H57763   9.574  10.679   0.152  0.9845 -0.8763  0.2421
  438MOL0     H57764   9.584  10.774  -0.002  4.5209  1.2386 -0.1248
  438MOL0     H57765   9.579  10.900   0.267 -1.1179  0.4544 -0.4396
  438MOL0     H57766   9.569  10.986   0.111 -2.4003 -0.1279 -2.1133
  438MOL0     H57767   9.363  10.783   0.201 -0.0869  0.4891 -0.3509
  438MOL0     H57768   9.359  10.873   0.057  0.0971 -2.2712  0.7860
  438MOL0     H57769   9.271  10.893   0.432 -0.3290 -2.0876 -3.3169
  438MOL0     H57770   9.121  11.248   0.506  3.7934  1.6111 -1.2811
  438MOL0     H57771   9.201  11.142   0.602 -0.1879 -2.0309 -0.2805
  438MOL0     H57772   8.972  11.061   0.594 -0.6721  1.4945 -0.2326
  438MOL0     H57773   9.052  10.945   0.489  0.7902  0.2796  0.7608
  438MOL0     H57774   8.992  11.094   0.292  0.4329  1.4196 -0.0690
  438MOL0     H57775   8.866  10.999   0.368  0.5522 -0.3582 -0.6764
  438MOL0     H57776   8.894  11.303   0.386 -1.2448 -0.0909 -3.0398
  438MOL0     H57777   8.810  11.206   0.515 -0.9065  0.3983  0.3011
  438MOL0     H57778   8.681  11.392   0.541  0.0476 -0.6328  0.0117
  438MOL0     H57779   8.490  11.508   0.587 -1.8690 -0.0765  0.0095
  438MOL0     H57780   8.104  11.467   0.683 -0.2849 -0.0379  1.3224
  438MOL0     H57781   7.884  11.543   0.791  0.1062 -1.6838 -2.0330
  438MOL0     H57782   7.722  11.934   0.611  2.4853  3.4559  0.6298
  438MOL0     H57783   7.770  11.976   0.784  1.4536 -1.7799  1.4243
  438MOL0     H57784   7.549  12.034   0.749 -1.9297  0.2133 -0.3444
  438MOL0     H57785   7.568  11.910   0.870 -3.5644 -0.1855 -0.3167
  438MOL0     H57786   7.500  11.748   0.675 -3.6613 -1.0360  0.0792
  438MOL0     H57787   7.464  11.896   0.584  1.0480  1.7255 -0.8448
  438MOL0     H57788   7.345  11.852   0.848 -0.4060  0.3789 -0.4638
  438MOL0     H57789   7.283  11.957   0.722 -3.3307 -1.3648  1.2923
  438MOL0     H57790   7.266  11.663   0.756 -0.5654 -0.5930  0.4870
  438MOL0     H57791   7.280  11.715   0.595  1.9265  1.8374 -0.4824
  438MOL0     H57792   7.092  11.874   0.630  4.9064 -0.2800 -1.1228
  438MOL0     H57793   7.056  11.801   0.793  0.3223 -2.0511  0.9380
  438MOL0     H57794   7.028  11.637   0.534  1.4909 -4.6233  0.7233
  438MOL0     H57795   7.029  11.593   0.711  4.4609  2.7669  2.2489
  438MOL0     H57796   6.843  11.740   0.749  0.7048  2.0365  0.6250
  438MOL0     H57797   6.806  11.618   0.618  0.3463 -0.3201 -0.3540
  438MOL0     H57798   7.961  11.942   0.627 -3.1434 -0.7184  0.9960
  438MOL0     H57799   8.190  11.860   0.561  3.1289 -1.0623  1.3261
  438MOL0     H57800   8.310  11.356   0.232  0.8154 -1.0889 -0.2436
  438MOL0     H57801   8.526  11.239   0.184 -0.2139  2.1899 -0.6980
  438MOL0     H57802  10.380  11.017   0.132 -1.2102  0.3547  1.2229
  438MOL0     H57803  10.628  11.009   0.084  2.7295 -1.0839 -0.1013
  438MOL0     H57804  11.004  11.010   0.179  0.5090 -1.3862  0.9348
  438MOL0     H57805  11.241  11.059   0.162  0.1884 -0.1467  1.1728
  438MOL0     H57806  11.641  10.870   0.155  1.0322 -2.7363 -0.7071
  438MOL0     H57807  11.536  10.724   0.153 -1.5490  0.3058  1.4440
  438MOL0     H57808  11.489  10.752   0.394 -0.6583 -0.4242  0.0336
  438MOL0     H57809  11.657  10.723   0.342 -1.1890 -0.2209 -2.0692
  438MOL0     H57810  11.638  10.898   0.515 -0.7394  1.4666  0.1425
  438MOL0     H57811  11.536  11.001   0.425  1.3072  2.8801  0.3825
  438MOL0     H57812  11.749  11.020   0.265  1.8667 -2.5869 -0.9257
  438MOL0     H57813  11.760  11.099   0.420  0.7197 -0.6458  0.0681
  438MOL0     H57814  12.061  10.863   0.509  0.9761  2.1548 -1.9944
  438MOL0     H57815  11.346  10.648   0.209  2.0791  1.9070 -0.1690
  438MOL0     H57816  11.099  10.596   0.215 -0.5945 -0.1516 -4.5249
  439MOL0     O57817   0.568   8.043   2.257  0.4436  0.5793  0.3186
  439MOL0     C57818   0.658   8.045   2.174  0.4942  0.3029  0.8001
  439MOL0     O57819   0.709   7.936   2.105 -0.3686 -0.3961 -0.3253
  439MOL0     C57820   0.682   7.802   2.158 -0.4753 -0.7380 -0.0741
  439MOL0     C57821   0.558   7.740   2.134  0.0161 -0.2187  0.1339
  439MOL0     C57822   0.540   7.616   2.181 -0.1308 -0.2718 -1.1814
  439MOL0     C57823   0.638   7.546   2.248  0.1494 -0.2094  0.3403
  439MOL0     O57824   0.611   7.426   2.300  0.2824 -0.2307  0.1069
  439MOL0     C57825   0.558   7.441   2.435 -0.5127  0.5601 -0.6218
  439MOL0     C57826   0.404   7.435   2.446  0.5181  0.6195  1.0053
  439MOL0     C57827   0.337   7.302   2.412  0.1737  1.0360  0.1967
  439MOL0     C57828   0.190   7.331   2.372  1.6100  0.2731 -0.1399
  439MOL0     C57829   0.095   7.399   2.473  0.3542 -0.6037  0.0404
  439MOL0     C57830   0.079   7.325   2.604  0.6865 -0.9033 -0.4938
  439MOL0     C57831  -0.057   7.355   2.671 -0.6093  0.2817  1.3050
  439MOL0     C57832  -0.062   7.270   2.793  0.1972  0.0241  1.1075
  439MOL0     N57833   0.037   7.307   2.888 -0.3308 -0.0871 -0.1584
  439MOL0     C57834   0.060   7.437   2.917 -0.6119 -0.0095  0.8071
  439MOL0     C57835   0.188   7.434   2.980  0.4956 -0.5094  0.5708
  439MOL0     C57836   0.258   7.560   3.021 -0.2432 -0.2904 -1.3057
  439MOL0     C57837   0.345   7.610   2.899 -0.8534  0.1224 -0.0259
  439MOL0     C57838   0.270   7.678   2.786 -0.7057 -1.0988 -1.0000
  439MOL0     C57839   0.358   7.771   2.714 -0.0809  0.8569 -0.0079
  439MOL0     O57840   0.350   7.901   2.781  0.4508  0.0940 -0.2283
  439MOL0     C57841   0.465   7.968   2.765 -0.3279  0.1823 -0.7527
  439MOL0     C57842   0.549   8.002   2.867  0.1691  0.5344 -0.1361
  439MOL0     C57843   0.648   8.099   2.845  0.4384 -0.2458 -0.6117
  439MOL0     C57844   0.660   8.155   2.717 -0.4283  0.1069  0.1122
  439MOL0     C57845   0.767   8.258   2.701  0.6332 -0.0671  0.3002
  439MOL0     O57846   0.741   8.343   2.593 -0.5865 -0.0142 -0.3718
  439MOL0     C57847   0.835   8.440   2.574 -0.5551 -0.3185  0.3589
  439MOL0     C57848   0.827   8.560   2.642  0.1446 -1.2045  0.0399
  439MOL0     C57849   0.906   8.674   2.623  0.7829 -0.4367  0.0352
  439MOL0     C57850   1.014   8.659   2.530 -0.4927 -0.1295  0.7701
  439MOL0     O57851   1.101   8.762   2.501  1.0815  0.3951 -0.5998
  439MOL0     C57852   1.122   8.867   2.591  0.1543 -0.1469  0.6422
  439MOL0     C57853   1.244   8.944   2.547 -0.7046  0.2471  0.4132
  439MOL0     C57854   1.274   9.055   2.644 -0.0796 -0.5531  0.3713
  439MOL0     C57855   1.429   9.092   2.670  0.2506 -0.9813 -0.2670
  439MOL0     C57856   1.518   9.124   2.554 -0.2927  0.5627  0.7490
  439MOL0     C57857   1.462   9.220   2.449  0.0592 -0.0313  0.2998
  439MOL0     C57858   1.563   9.239   2.326 -1.1523 -0.3087 -0.8917
  439MOL0     C57859   1.515   9.289   2.192  0.3962  0.5562 -0.8624
  439MOL0    Cl57860   1.402   9.177   2.109  0.1290 -0.2239  0.5289
  439MOL0     C57861   1.028   8.542   2.462 -0.5079 -0.3193 -0.2190
  439MOL0     C57862   0.938   8.431   2.482 -0.5187 -0.6367  0.7388
  439MOL0     O57863   0.857   8.262   2.786  0.4012  0.1348  0.1168
  439MOL0     C57864   0.587   8.108   2.602  0.2818 -0.4506  1.0737
  439MOL0     C57865   0.487   8.015   2.632  0.6826 -0.2430  0.3983
  439MOL0     N57866   0.223   7.306   3.010 -0.5011 -0.3996 -0.5283
  439MOL0     N57867   0.137   7.232   2.943  0.6491 -0.0059 -0.3034
  439MOL0     C57868   0.766   7.606   2.264 -0.0863 -0.4206 -0.6140
  439MOL0     C57869   0.792   7.732   2.216  0.1714  1.0132 -0.2190
  439MOL0     C57870   0.715   8.183   2.138 -0.2972  0.0699 -0.0479
  439MOL0     C57871   0.820   8.208   2.051  0.8086 -0.0722  0.5131
  439MOL0     C57872   0.866   8.336   2.036  0.5379  0.1848  0.6180
  439MOL0     C57873   0.801   8.445   2.095 -0.0116  0.3327  0.6077
  439MOL0     O57874   0.851   8.573   2.097  0.1355 -0.1361  0.2758
  439MOL0     C57875   0.964   8.606   2.014  0.1484  0.3497 -0.2367
  439MOL0     C57876   1.003   8.749   2.045 -0.1444  0.6567  0.1294
  439MOL0     C57877   1.062   8.777   2.183  0.4525  0.4888  0.7344
  439MOL0     C57878   1.201   8.725   2.205 -0.2686 -0.3136  0.3798
  439MOL0     C57879   1.297   8.801   2.119  0.4212  0.3378  0.1372
  439MOL0     C57880   1.383   8.854   2.054  0.3605 -0.1194  0.0611
  439MOL0     C57881   0.695   8.424   2.178  0.3189  0.1595  0.9711
  439MOL0     C57882   0.659   8.295   2.207  0.1800 -0.0014 -0.1617
  439MOL0     H57883   0.484   7.796   2.077  0.8723 -1.3774 -2.2603
  439MOL0     H57884   0.443   7.568   2.185  1.1393 -2.9572  2.1044
  439MOL0     H57885   0.594   7.531   2.486 -2.8311  0.1722  1.9088
  439MOL0     H57886   0.601   7.360   2.495  0.3638 -0.1229 -2.1256
  439MOL0     H57887   0.357   7.518   2.393  0.1246  0.1159  0.5564
  439MOL0     H57888   0.374   7.445   2.551  1.6007  1.9913  1.2046
  439MOL0     H57889   0.347   7.233   2.496 -0.6548  2.3551  1.4048
  439MOL0     H57890   0.382   7.261   2.321 -1.4785  2.5919 -1.4357
  439MOL0     H57891   0.181   7.400   2.288 -1.2233 -0.5572 -0.6286
  439MOL0     H57892   0.135   7.244   2.333  1.5985  0.0139  0.4362
  439MOL0     H57893  -0.006   7.410   2.434 -0.0335 -0.5197  1.0446
  439MOL0     H57894   0.122   7.503   2.492 -1.4211 -0.4137  1.9817
  439MOL0     H57895   0.155   7.360   2.674  0.4156 -1.3743  0.0463
  439MOL0     H57896   0.090   7.218   2.586 -0.9449 -1.0035 -1.0755
  439MOL0     H57897  -0.066   7.464   2.681 -0.7580  0.9003 -3.3536
  439MOL0     H57898  -0.132   7.324   2.598 -1.9255  0.4350  2.5568
  439MOL0     H57899  -0.058   7.162   2.775 -0.5240 -0.0331  1.2846
  439MOL0     H57900  -0.165   7.277   2.828 -0.8618  1.9469 -1.9897
  439MOL0     H57901  -0.001   7.516   2.876 -0.4258  0.9347  2.2716
  439MOL0     H57902   0.326   7.551   3.105 -2.5823 -2.3674  0.5281
  439MOL0     H57903   0.186   7.638   3.048  0.8815  1.2312 -2.4791
  439MOL0     H57904   0.407   7.531   2.855 -0.0819 -0.4587  1.9769
  439MOL0     H57905   0.414   7.688   2.933  0.7942 -0.8396 -1.0133
  439MOL0     H57906   0.223   7.608   2.716 -2.5275 -0.2516 -0.6962
  439MOL0     H57907   0.197   7.740   2.839  1.6015  0.6326  0.3433
  439MOL0     H57908   0.313   7.790   2.616  0.5720  2.1383 -0.0833
  439MOL0     H57909   0.457   7.734   2.687 -0.6271  1.0480 -2.5430
  439MOL0     H57910   0.531   7.960   2.965  1.4110  2.1161  0.8173
  439MOL0     H57911   0.716   8.121   2.926  0.4943 -3.4034  0.3528
  439MOL0     H57912   0.738   8.562   2.705 -1.1895  0.4968 -1.7699
  439MOL0     H57913   0.872   8.775   2.645 -1.3923 -0.6044 -2.0993
  439MOL0     H57914   1.155   8.830   2.689  3.4927 -1.2498 -0.7611
  439MOL0     H57915   1.030   8.925   2.608  0.4832 -0.1922  3.0321
  439MOL0     H57916   1.242   8.984   2.445 -0.9801 -1.3074 -0.2264
  439MOL0     H57917   1.332   8.880   2.541 -0.1708  1.0827 -4.1295
  439MOL0     H57918   1.227   9.033   2.741 -0.3671  1.1992  0.6679
  439MOL0     H57919   1.216   9.143   2.617 -0.1119  0.3758  3.1016
  439MOL0     H57920   1.426   9.172   2.745 -2.7005  0.4545 -1.7358
  439MOL0     H57921   1.476   9.007   2.720 -1.6315 -1.2686  1.1166
  439MOL0     H57922   1.542   9.029   2.506  1.4264  0.3760  1.9010
  439MOL0     H57923   1.612   9.164   2.593  1.2066 -3.1799  1.4036
  439MOL0     H57924   1.429   9.312   2.497 -0.0979  0.1107 -0.0737
  439MOL0     H57925   1.371   9.170   2.415 -0.3464 -0.7713  2.3796
  439MOL0     H57926   1.637   9.311   2.362  0.2447 -2.6165  1.2450
  439MOL0     H57927   1.614   9.145   2.302  2.2135  1.7057 -2.3112
  439MOL0     H57928   1.597   9.305   2.121  1.5310 -0.6047  0.1486
  439MOL0     H57929   1.466   9.384   2.213  0.0283  0.3173 -0.6160
  439MOL0     H57930   1.108   8.539   2.388  0.7768  1.9223  0.9624
  439MOL0     H57931   0.948   8.341   2.422  0.2335  0.2235 -0.4628
  439MOL0     H57932   0.594   8.151   2.503 -2.1261 -3.3354 -0.5032
  439MOL0     H57933   0.408   7.994   2.561  0.9413  2.2631 -0.7409
  439MOL0     H57934   0.836   7.547   2.323 -0.1921 -0.2455 -0.3101
  439MOL0     H57935   0.891   7.771   2.233  0.2267  0.6431  0.3399
  439MOL0     H57936   0.857   8.123   1.995 -0.1223 -1.9912  2.6293
  439MOL0     H57937   0.947   8.345   1.964  0.0745  0.4764  0.1200
  439MOL0     H57938   0.930   8.600   1.910  0.0312 -3.1740 -0.1123
  439MOL0     H57939   1.048   8.540   2.038  2.1298  3.1990  1.2611
  439MOL0     H57940   1.064   8.789   1.964  0.8549 -0.7808  0.1342
  439MOL0     H57941   0.907   8.801   2.045  1.0676  3.0365  0.8861
  439MOL0     H57942   1.001   8.737   2.265  1.3289 -1.3310  0.5517
  439MOL0     H57943   1.062   8.886   2.193  2.7009  0.9351 -2.6716
  439MOL0     H57944   1.227   8.744   2.309 -1.0675  3.9357 -0.0050
  439MOL0     H57945   1.199   8.621   2.170 -2.6135  0.6348 -2.7495
  439MOL0     H57946   1.472   8.882   2.001 -0.5106  0.4879 -1.1330
  439MOL0     H57947   0.654   8.514   2.223  0.2161  0.4058  0.3858
  439MOL0     H57948   0.587   8.287   2.288  2.5367  1.5909  2.2651
  440MOL0     O57949  10.223   6.987   2.864  0.4930 -0.0611 -0.6558
  440MOL0     C57950  10.208   6.888   2.791  0.3732 -0.0348 -0.1430
  440MOL0     O57951  10.168   6.766   2.824  0.0802  0.1918  0.4261
  440MOL0     C57952  10.093   6.752   2.937  0.6638  0.3779 -0.2250
  440MOL0     C57953  10.125   6.802   3.068  0.2177  0.2526 -0.4238
  440MOL0     C57954  10.047   6.776   3.182  0.1731 -0.1973 -0.4694
  440MOL0     C57955   9.931   6.701   3.168 -0.4263 -0.2912 -0.1280
  440MOL0     O57956   9.854   6.650   3.269  0.4293 -0.3035 -0.0075
  440MOL0     C57957   9.722   6.704   3.292  0.3782 -0.1415  0.0105
  440MOL0     C57958   9.657   6.629   3.415  0.3487 -0.1933  0.4874
  440MOL0     C57959   9.497   6.636   3.417  0.4508  0.3989  0.6608
  440MOL0     C57960   9.435   6.595   3.549  0.6941 -0.3127  0.0030
  440MOL0     C57961   9.282   6.625   3.548  0.5662  1.0470  0.3853
  440MOL0     C57962   9.220   6.760   3.595  0.0186 -0.8645 -0.6534
  440MOL0     C57963   9.240   6.786   3.749 -0.4332  0.9358  0.8646
  440MOL0     C57964   9.194   6.930   3.786  0.2891 -0.0930 -0.3135
  440MOL0     N57965   9.048   6.936   3.776  0.2864 -0.0351 -0.1882
  440MOL0     C57966   8.965   6.914   3.887  0.4513  0.9168  0.3507
  440MOL0     C57967   8.841   6.925   3.831 -0.1904  0.0627  0.1008
  440MOL0     C57968   8.717   6.908   3.914  0.2232 -0.1917  0.8934
  440MOL0     C57969   8.675   7.039   3.987  0.1920  0.3219 -0.1429
  440MOL0     C57970   8.601   7.133   3.891 -0.1431 -0.3354 -0.6135
  440MOL0     C57971   8.464   7.087   3.856  0.3354  0.1956 -0.8548
  440MOL0     O57972   8.376   7.192   3.898 -0.9381  0.6402 -0.7278
  440MOL0     C57973   8.239   7.166   3.896 -0.5451  0.0765 -0.5982
  440MOL0     C57974   8.154   7.258   3.966  0.2180 -0.5387  0.4359
  440MOL0     C57975   8.015   7.231   3.977  0.0736 -0.2328 -0.8031
  440MOL0     C57976   7.963   7.107   3.932 -0.4726 -0.0321  1.2906
  440MOL0     C57977   7.825   7.067   3.934 -0.6521  0.1041 -0.6856
  440MOL0     O57978   7.789   6.940   3.888 -0.1311  0.2566  0.6144
  440MOL0     C57979   7.658   6.908   3.891 -0.0420  0.0898  0.3978
  440MOL0     C57980   7.600   6.849   3.776  0.0726 -0.1632 -0.5552
  440MOL0     C57981   7.473   6.795   3.775  0.6396  1.2908 -0.1792
  440MOL0     C57982   7.395   6.804   3.895  0.9110  0.3354  0.2911
  440MOL0     O57983   7.266   6.760   3.911 -0.1692  1.0926  0.7731
  440MOL0     C57984   7.205   6.732   3.785 -0.2761  0.8992 -0.0697
  440MOL0     C57985   7.053   6.714   3.799  0.6002 -1.1721 -0.4249
  440MOL0     C57986   6.991   6.678   3.655 -0.2760 -0.3198 -0.0941
  440MOL0     C57987   6.836   6.633   3.656  0.0687 -0.4197 -0.3831
  440MOL0     C57988   6.793   6.594   3.509  0.0760  0.5708  0.2107
  440MOL0     C57989   6.670   6.507   3.509 -0.1095  0.2721 -0.2719
  440MOL0     C57990   6.552   6.594   3.564 -0.5785 -0.3166  0.1018
  440MOL0     C57991   6.425   6.519   3.517 -0.9621 -0.1311 -1.1701
  440MOL0    Cl57992   6.277   6.612   3.561  0.2874  0.1452  0.0635
  440MOL0     C57993   7.451   6.858   4.009 -0.0849 -0.6013 -0.5442
  440MOL0     C57994   7.580   6.917   4.008 -0.2725 -0.6253  0.1632
  440MOL0     O57995   7.744   7.143   3.997 -0.0149 -0.3737 -0.1396
  440MOL0     C57996   8.045   7.019   3.859  0.5827  0.0714 -0.4265
  440MOL0     C57997   8.183   7.045   3.846  0.2117 -0.3875 -0.2573
  440MOL0     N57998   8.855   6.970   3.704  0.2558 -0.6965 -0.0742
  440MOL0     N57999   8.979   6.967   3.672 -0.5868 -0.2639  0.9153
  440MOL0     C58000   9.903   6.641   3.047  0.5356 -0.2612 -0.1102
  440MOL0     C58001   9.981   6.663   2.936 -0.5266 -0.0855 -0.8119
  440MOL0     C58002  10.278   6.896   2.659 -0.5572  0.7267  0.3382
  440MOL0     C58003  10.299   6.794   2.568 -0.2708  0.6977  0.4181
  440MOL0     C58004  10.376   6.806   2.451  0.0948 -0.1472 -0.5760
  440MOL0     C58005  10.436   6.921   2.421 -0.1825 -0.4802 -0.3515
  440MOL0     O58006  10.519   6.927   2.306  0.0258  0.0382 -0.5730
  440MOL0     C58007  10.587   7.052   2.274 -0.5669 -0.4240  1.2895
  440MOL0     C58008  10.741   7.029   2.273 -0.2266  0.7874 -0.2479
  440MOL0     C58009  10.835   7.137   2.227  0.4328 -0.8566  0.0247
  440MOL0     C58010  10.983   7.099   2.250  0.4234  0.7935  0.8967
  440MOL0     C58011  11.070   7.222   2.249  1.1280  0.5627  0.3896
  440MOL0     C58012  11.114   7.337   2.246 -0.3527 -0.1486 -0.1978
  440MOL0     C58013  10.434   7.030   2.516 -0.3304 -0.3356 -0.0368
  440MOL0     C58014  10.351   7.014   2.634  0.3006 -0.0873 -0.3392
  440MOL0     H58015  10.220   6.854   3.078  0.1368  0.7970 -2.1652
  440MOL0     H58016  10.074   6.813   3.281 -3.4651  0.6006  0.3769
  440MOL0     H58017   9.649   6.697   3.210  1.2004  0.7994 -0.8350
  440MOL0     H58018   9.729   6.812   3.311 -0.9545  0.6812 -3.3828
  440MOL0     H58019   9.693   6.680   3.505  1.5957 -1.3784  0.7008
  440MOL0     H58020   9.702   6.529   3.419  0.5920 -0.3117 -2.7605
  440MOL0     H58021   9.458   6.578   3.333  0.9567 -0.4806  1.0111
  440MOL0     H58022   9.474   6.742   3.404  0.7253  0.8229  3.0442
  440MOL0     H58023   9.448   6.488   3.568  0.2330 -0.9084 -2.6392
  440MOL0     H58024   9.477   6.671   3.615  1.8863  2.2064 -3.3793
  440MOL0     H58025   9.232   6.558   3.619 -2.1116  1.0070 -1.4042
  440MOL0     H58026   9.235   6.597   3.454  0.5392  0.0278  0.6821
  440MOL0     H58027   9.114   6.769   3.571  0.7403  0.5001 -3.7650
  440MOL0     H58028   9.277   6.840   3.548 -0.0705 -1.2905 -1.4943
  440MOL0     H58029   9.194   6.712   3.815 -1.8548  0.6825 -0.3430
  440MOL0     H58030   9.346   6.786   3.775  0.0152  1.8479 -0.8483
  440MOL0     H58031   9.237   6.999   3.713 -0.0152 -0.4120 -0.7994
  440MOL0     H58032   9.228   6.965   3.884  0.1142 -1.4606  0.2523
  440MOL0     H58033   8.999   6.887   3.987 -2.8913 -1.1331  1.0614
  440MOL0     H58034   8.727   6.820   3.978  1.3663 -0.1088  0.8482
  440MOL0     H58035   8.638   6.884   3.842  0.7593  0.1919  0.1541
  440MOL0     H58036   8.760   7.087   4.037 -0.4182  2.8439 -1.3754
  440MOL0     H58037   8.600   7.013   4.062 -0.5846  0.6259 -0.8042
  440MOL0     H58038   8.602   7.227   3.947  1.1116 -0.4824 -0.3637
  440MOL0     H58039   8.648   7.146   3.793 -0.8259 -3.2551 -1.4182
  440MOL0     H58040   8.440   6.990   3.900 -0.4306  0.5188 -0.5469
  440MOL0     H58041   8.443   7.085   3.749  0.8635 -0.9685 -0.9511
  440MOL0     H58042   8.201   7.346   4.008  1.9749 -1.6916  1.0064
  440MOL0     H58043   7.960   7.305   4.035 -0.2696  0.1991 -1.6521
  440MOL0     H58044   7.673   6.849   3.695 -1.2850 -4.5558 -2.0603
  440MOL0     H58045   7.423   6.756   3.687 -1.7326 -2.3692  2.5117
  440MOL0     H58046   7.237   6.633   3.751 -2.0025  0.0603  0.6381
  440MOL0     H58047   7.219   6.800   3.701 -1.4489  0.1441 -0.8999
  440MOL0     H58048   7.020   6.815   3.828  0.2873 -0.4891 -2.8968
  440MOL0     H58049   7.024   6.638   3.871  0.8519 -1.4865 -0.6551
  440MOL0     H58050   7.059   6.599   3.624 -0.4212 -0.6026  0.3014
  440MOL0     H58051   6.999   6.767   3.591 -2.6543  0.3051  0.3461
  440MOL0     H58052   6.800   6.546   3.713 -0.5694  0.5405  0.7088
  440MOL0     H58053   6.771   6.711   3.695  1.0184 -0.4995  1.5028
  440MOL0     H58054   6.880   6.543   3.465  0.6047 -0.4525  2.3213
  440MOL0     H58055   6.767   6.685   3.454  2.3749  1.0747 -0.1417
  440MOL0     H58056   6.680   6.413   3.564 -2.9137 -0.4239 -0.7777
  440MOL0     H58057   6.654   6.473   3.406  0.8644 -2.3508  0.3508
  440MOL0     H58058   6.567   6.609   3.671 -0.3746 -3.2003  0.5716
  440MOL0     H58059   6.548   6.692   3.516 -2.8235  1.1522  3.0238
  440MOL0     H58060   6.430   6.423   3.568  3.4863  0.4738  0.0218
  440MOL0     H58061   6.424   6.517   3.408 -1.5879  5.6338 -1.5987
  440MOL0     H58062   7.387   6.849   4.097 -2.7122  1.9104 -2.0246
  440MOL0     H58063   7.620   6.965   4.096  1.4899  0.7080 -1.2790
  440MOL0     H58064   8.018   6.927   3.808 -2.6501  0.5256  0.2493
  440MOL0     H58065   8.240   6.966   3.799  0.3966 -0.6554  0.4051
  440MOL0     H58066   9.814   6.580   3.033 -1.4073  1.9926  1.5354
  440MOL0     H58067   9.957   6.611   2.844 -1.2000 -1.4018  0.0701
  440MOL0     H58068  10.254   6.696   2.584  2.7053 -0.4815  2.3491
  440MOL0     H58069  10.384   6.721   2.383  0.9646 -1.7310  1.3868
  440MOL0     H58070  10.554   7.140   2.331 -3.0355 -1.7125  1.9879
  440MOL0     H58071  10.562   7.083   2.172 -1.2554  1.6050  2.0108
  440MOL0     H58072  10.764   7.011   2.379  0.5673  3.5476  0.1345
  440MOL0     H58073  10.765   6.945   2.209  0.7772  0.2486  0.8020
  440MOL0     H58074  10.804   7.224   2.284 -1.4255 -1.8052  0.5481
  440MOL0     H58075  10.812   7.151   2.120  0.1757 -1.9348 -0.0752
  440MOL0     H58076  10.983   7.049   2.348 -1.9868  1.3103  1.2392
  440MOL0     H58077  11.019   7.035   2.169 -0.5623  0.8817  0.3718
  440MOL0     H58078  11.151   7.436   2.228  1.3006 -0.4969  1.0208
  440MOL0     H58079  10.480   7.128   2.504 -0.0924 -0.3715  0.5337
  440MOL0     H58080  10.340   7.103   2.694  0.9602 -0.7686  0.8322
  441MOL0     O58081   2.444   7.390   3.351 -0.0089  0.1063 -0.1335
  441MOL0     C58082   2.462   7.296   3.267 -0.1343  1.1166  0.0420
  441MOL0     O58083   2.359   7.234   3.198 -0.3070 -0.0079  0.1744
  441MOL0     C58084   2.227   7.272   3.194 -0.0265  0.0719 -0.0778
  441MOL0     C58085   2.172   7.353   3.289  0.0533  0.5409 -0.3569
  441MOL0     C58086   2.032   7.384   3.293 -0.1071 -0.4177 -0.3685
  441MOL0     C58087   1.949   7.321   3.202 -1.6646  0.9934 -0.8853
  441MOL0     O58088   1.814   7.334   3.190 -0.7508  0.2976 -0.0745
  441MOL0     C58089   1.742   7.421   3.282  0.0693  0.8987  0.6730
  441MOL0     C58090   1.590   7.401   3.284 -0.0105 -0.8313 -0.8051
  441MOL0     C58091   1.550   7.279   3.362  0.6292  0.2770 -0.2958
  441MOL0     C58092   1.399   7.280   3.386  0.2837 -1.2936 -0.1653
  441MOL0     C58093   1.350   7.195   3.504 -0.9548  0.9986  0.2496
  441MOL0     C58094   1.201   7.218   3.526 -0.1752 -0.3161 -0.1599
  441MOL0     C58095   1.109   7.119   3.449 -0.5581 -0.6766 -0.9629
  441MOL0     C58096   0.960   7.125   3.478  0.1218 -0.1293  0.1302
  441MOL0     N58097   0.941   7.104   3.625  0.2215 -0.0082 -0.5258
  441MOL0     C58098   0.884   6.985   3.672  0.7409  0.1171  0.3783
  441MOL0     C58099   0.837   7.013   3.798  0.4741 -0.1173 -0.0381
  441MOL0     C58100   0.761   6.929   3.889 -0.3283 -0.1681  0.1601
  441MOL0     C58101   0.616   6.898   3.855  0.6985 -0.0617 -0.0108
  441MOL0     C58102   0.543   6.791   3.941  0.0381 -0.4845 -0.3848
  441MOL0     C58103   0.412   6.743   3.870 -0.2394 -0.3108 -0.2626
  441MOL0     O58104   0.302   6.830   3.895  0.6491  0.6827  0.6752
  441MOL0     C58105   0.198   6.829   3.805 -0.2097  0.0949 -0.6625
  441MOL0     C58106   0.084   6.910   3.831 -0.2477 -0.5721 -0.2300
  441MOL0     C58107  -0.032   6.910   3.751  0.1447  0.1447  0.3958
  441MOL0     C58108  -0.045   6.820   3.642  0.1727  0.1207 -0.3282
  441MOL0     C58109  -0.177   6.781   3.573  0.2262  0.6810 -1.1221
  441MOL0     O58110  -0.176   6.682   3.485 -0.4631  0.4460  0.3847
  441MOL0     C58111  -0.286   6.595   3.464  0.1518  0.0400  0.2889
  441MOL0     C58112  -0.274   6.519   3.346  0.8252 -0.0562 -0.0532
  441MOL0     C58113  -0.375   6.430   3.300 -0.5204  0.7192 -0.1277
  441MOL0     C58114  -0.493   6.417   3.377  0.2104 -0.5510  0.3778
  441MOL0     O58115  -0.589   6.326   3.326  0.5549 -0.5513  0.2915
  441MOL0     C58116  -0.729   6.366   3.346 -0.1081 -0.2728  0.7979
  441MOL0     C58117  -0.819   6.255   3.300 -0.2021 -0.0735  0.3422
  441MOL0     C58118  -0.764   6.181   3.175  0.2979  0.9303  0.0262
  441MOL0     C58119  -0.874   6.109   3.098  0.1070  0.2532  0.5769
  441MOL0     C58120  -0.893   5.964   3.130  0.0328  0.2380 -0.0442
  441MOL0     C58121  -1.007   5.957   3.227  0.6166 -0.1588 -0.2686
  441MOL0     C58122  -1.046   5.813   3.261  0.3552  0.7785  0.3689
  441MOL0     C58123  -1.182   5.832   3.329  0.4660  0.4969  0.3918
  441MOL0    Cl58124  -1.242   5.680   3.401  0.6951  0.2060 -0.5329
  441MOL0     C58125  -0.509   6.499   3.487 -0.1539 -1.3745 -0.3987
  441MOL0     C58126  -0.414   6.583   3.532  0.8598  1.0119 -0.3852
  441MOL0     O58127  -0.277   6.845   3.610  0.5031  0.0677 -0.2056
  441MOL0     C58128   0.066   6.743   3.608  0.1236  0.4037  0.2362
  441MOL0     C58129   0.180   6.745   3.689  0.3263 -0.3364  0.5833
  441MOL0     N58130   0.878   7.148   3.837  0.7789  0.1556 -1.0730
  441MOL0     N58131   0.935   7.193   3.734 -0.5240  0.4410 -0.6578
  441MOL0     C58132   1.999   7.231   3.110 -0.2909  0.5208  0.0458
  441MOL0     C58133   2.139   7.213   3.106 -0.3035  0.5833 -0.3224
  441MOL0     C58134   2.607   7.253   3.245  0.3269  0.1550  0.1931
  441MOL0     C58135   2.640   7.137   3.170 -0.3351  0.8229  1.0281
  441MOL0     C58136   2.774   7.104   3.146 -0.0485  0.0595 -0.0244
  441MOL0     C58137   2.871   7.170   3.219 -0.0541 -0.2827 -0.2280
  441MOL0     O58138   2.997   7.127   3.200 -0.1231  0.4638  0.2406
  441MOL0     C58139   3.108   7.226   3.196  1.0388  0.6837  0.1100
  441MOL0     C58140   3.212   7.174   3.099  0.2382  0.7611  0.4634
  441MOL0     C58141   3.328   7.091   3.152 -0.7976 -0.0519 -0.3022
  441MOL0     C58142   3.292   6.947   3.187 -1.0153 -0.2811  0.3315
  441MOL0     C58143   3.404   6.858   3.184 -0.9899  0.5737 -0.1727
  441MOL0     C58144   3.502   6.791   3.165 -0.1101  0.2796  0.4392
  441MOL0     C58145   2.837   7.277   3.301  0.1005 -0.1917  0.5719
  441MOL0     C58146   2.706   7.322   3.315 -0.2128 -0.3365 -0.0414
  441MOL0     H58147   2.217   7.397   3.377  0.6282 -2.3742  0.9331
  441MOL0     H58148   2.007   7.457   3.369 -0.4580 -0.1007 -0.7839
  441MOL0     H58149   1.761   7.527   3.261  1.1110  0.7773  0.9347
  441MOL0     H58150   1.775   7.401   3.384 -1.7238 -2.4468  0.7120
  441MOL0     H58151   1.543   7.378   3.188  2.5283 -2.2516 -1.8171
  441MOL0     H58152   1.549   7.490   3.333  1.7176  0.5315 -1.7106
  441MOL0     H58153   1.597   7.286   3.461  0.7088  1.4273 -0.3954
  441MOL0     H58154   1.590   7.184   3.326  3.2860  1.2693 -0.2664
  441MOL0     H58155   1.366   7.382   3.408  2.8634 -0.8122  2.0067
  441MOL0     H58156   1.363   7.260   3.285  0.2384 -0.3342 -0.3525
  441MOL0     H58157   1.403   7.211   3.598  0.4803 -0.0059 -0.3583
  441MOL0     H58158   1.381   7.096   3.471  0.5284  0.5605  2.6517
  441MOL0     H58159   1.170   7.322   3.508  0.6708  0.3969  2.0420
  441MOL0     H58160   1.179   7.213   3.633 -1.2434 -3.1562 -0.4313
  441MOL0     H58161   1.122   7.124   3.340 -0.2003  1.9789 -0.8717
  441MOL0     H58162   1.141   7.020   3.483  0.6748 -0.1125 -0.4061
  441MOL0     H58163   0.913   7.046   3.419  2.8408 -0.6897 -1.4789
  441MOL0     H58164   0.912   7.219   3.448 -0.1379  0.9685  3.5481
  441MOL0     H58165   0.883   6.885   3.629  1.2618 -0.5611  1.8426
  441MOL0     H58166   0.757   6.967   3.992  0.1178  1.0908 -0.2630
  441MOL0     H58167   0.823   6.841   3.907  0.2632  0.3219  0.5838
  441MOL0     H58168   0.623   6.839   3.764  0.4743 -3.3148  1.9329
  441MOL0     H58169   0.554   6.988   3.848 -0.8057 -1.1219 -0.6163
  441MOL0     H58170   0.613   6.708   3.952 -0.2511 -0.4854  1.9125
  441MOL0     H58171   0.512   6.826   4.040  1.8339  1.5711 -0.4915
  441MOL0     H58172   0.384   6.646   3.912 -1.1454 -0.2126 -0.6229
  441MOL0     H58173   0.432   6.740   3.763 -0.0768  3.1519 -0.4579
  441MOL0     H58174   0.097   6.975   3.917  2.6648 -1.2494 -0.0527
  441MOL0     H58175  -0.109   6.977   3.788  2.4727  2.6118  1.1487
  441MOL0     H58176  -0.194   6.518   3.273 -1.5495  1.1765 -2.8549
  441MOL0     H58177  -0.353   6.374   3.210 -1.3259  1.5601 -0.8722
  441MOL0     H58178  -0.753   6.463   3.301  0.5423  1.3606  3.6469
  441MOL0     H58179  -0.753   6.373   3.453 -0.6587 -0.9912  0.7197
  441MOL0     H58180  -0.922   6.287   3.280 -0.2223  0.1166  0.7478
  441MOL0     H58181  -0.832   6.183   3.382  0.5515  0.9733  1.4068
  441MOL0     H58182  -0.692   6.110   3.215 -1.2830 -0.1488  1.0849
  441MOL0     H58183  -0.711   6.249   3.107  1.6297 -1.7543 -1.8147
  441MOL0     H58184  -0.962   6.173   3.111  0.6176  0.8097  1.3797
  441MOL0     H58185  -0.852   6.113   2.991 -0.0162  1.3143  0.5808
  441MOL0     H58186  -0.803   5.914   3.168 -1.3809 -1.9540  0.5820
  441MOL0     H58187  -0.923   5.926   3.032 -1.0678  0.3835  0.2298
  441MOL0     H58188  -1.094   6.007   3.182  1.2619  1.5180  0.2536
  441MOL0     H58189  -0.990   5.997   3.328 -2.4893 -1.1342  0.7457
  441MOL0     H58190  -1.050   5.760   3.165  1.1486 -1.9923  1.7400
  441MOL0     H58191  -0.966   5.770   3.323  0.2028 -2.5663 -1.5295
  441MOL0     H58192  -1.256   5.867   3.256  1.7923 -0.8385 -1.7049
  441MOL0     H58193  -1.174   5.917   3.398 -2.3683  2.8137 -1.8710
  441MOL0     H58194  -0.595   6.494   3.553  0.1341 -2.7162 -0.0916
  441MOL0     H58195  -0.428   6.643   3.621 -1.1814  1.7806 -1.1462
  441MOL0     H58196   0.065   6.683   3.518 -1.7181  0.7695 -0.0356
  441MOL0     H58197   0.261   6.683   3.651  3.3776  2.3549  2.2314
  441MOL0     H58198   1.935   7.184   3.037 -1.0939  4.5845 -2.1547
  441MOL0     H58199   2.192   7.135   3.052 -1.8760 -2.7569  2.6169
  441MOL0     H58200   2.556   7.090   3.120  0.8108  0.4973 -0.6688
  441MOL0     H58201   2.797   7.020   3.081 -0.7995 -0.9502  0.9765
  441MOL0     H58202   3.155   7.231   3.295  1.7555  0.5818 -0.2204
  441MOL0     H58203   3.076   7.326   3.163 -0.2720 -0.0360 -0.9062
  441MOL0     H58204   3.165   7.127   3.013 -0.6617  0.3950  1.1332
  441MOL0     H58205   3.259   7.263   3.057 -0.8157  0.8246 -0.6301
  441MOL0     H58206   3.370   7.142   3.239 -2.7485 -0.3571  0.8818
  441MOL0     H58207   3.398   7.085   3.068  2.3099 -2.2632  2.2122
  441MOL0     H58208   3.249   6.945   3.287  1.4729 -1.4500  1.4448
  441MOL0     H58209   3.219   6.900   3.119 -1.3954 -0.1317  0.6359
  441MOL0     H58210   3.591   6.734   3.146 -1.1411 -1.2702  0.0735
  441MOL0     H58211   2.914   7.333   3.353 -0.1202  0.5264  0.1494
  441MOL0     H58212   2.686   7.404   3.384  0.6158  1.9431 -2.3452
  442MOL0     O58213   0.419   1.466   8.182 -0.1264 -0.0799 -0.0143
  442MOL0     C58214   0.410   1.548   8.268  0.5290 -1.0451  0.4959
  442MOL0     O58215   0.293   1.594   8.328  0.6031  0.1488  0.6198
  442MOL0     C58216   0.165   1.552   8.305 -0.7037  0.4842  0.1143
  442MOL0     C58217   0.067   1.598   8.396  0.2662 -0.5029  0.5928
  442MOL0     C58218  -0.063   1.558   8.380  0.4706  0.6780  0.2961
  442MOL0     C58219  -0.104   1.485   8.264  0.7436  0.3143  0.2213
  442MOL0     O58220  -0.234   1.449   8.236  1.1205  0.0749  0.2552
  442MOL0     C58221  -0.346   1.527   8.291  0.3285 -0.8428  0.6767
  442MOL0     C58222  -0.406   1.477   8.430 -0.5616 -0.0970  0.3754
  442MOL0     C58223  -0.397   1.331   8.440  0.3813  0.7275 -0.1370
  442MOL0     C58224  -0.483   1.249   8.338  0.5067  0.4492 -0.3525
  442MOL0     C58225  -0.634   1.284   8.322  0.2257  0.4065  0.0002
  442MOL0     C58226  -0.714   1.272   8.456 -0.4342  0.0244  0.6933
  442MOL0     C58227  -0.870   1.260   8.444 -0.6093  0.7451 -0.1708
  442MOL0     C58228  -0.950   1.256   8.572  0.2458 -0.7544  0.0799
  442MOL0     N58229  -1.087   1.219   8.542  0.0625  1.0226 -0.0392
  442MOL0     C58230  -1.200   1.294   8.552 -0.1364 -0.3525  0.2792
  442MOL0     C58231  -1.294   1.201   8.524 -0.4473 -0.5914 -0.9162
  442MOL0     C58232  -1.438   1.237   8.526 -0.6217  0.6537  0.0945
  442MOL0     C58233  -1.484   1.302   8.397 -0.6222  0.9814 -0.9028
  442MOL0     C58234  -1.632   1.277   8.377  0.4092  0.4361 -0.0545
  442MOL0     C58235  -1.680   1.135   8.345 -0.1438  0.3835 -0.6972
  442MOL0     O58236  -1.815   1.122   8.313  0.1220  0.5024 -0.2072
  442MOL0     C58237  -1.868   0.991   8.306 -0.4478 -0.6073  0.6327
  442MOL0     C58238  -2.011   0.982   8.278 -0.5889 -0.4119  0.6020
  442MOL0     C58239  -2.069   0.862   8.265 -0.5733 -0.3637 -0.1268
  442MOL0     C58240  -1.995   0.737   8.286  0.2556  0.0980  0.4974
  442MOL0     C58241  -2.068   0.617   8.264  0.0729  0.3925  0.8564
  442MOL0     O58242  -2.183   0.625   8.193 -0.4556  0.1065 -0.1754
  442MOL0     C58243  -2.259   0.505   8.175 -0.3382  0.8677 -0.2555
  442MOL0     C58244  -2.340   0.456   8.280  0.8003 -0.6046 -0.1208
  442MOL0     C58245  -2.423   0.346   8.272  1.0272 -0.3279  0.1335
  442MOL0     C58246  -2.431   0.266   8.152  1.0652 -0.7798 -0.5045
  442MOL0     O58247  -2.514   0.157   8.129  0.1249 -0.3560  0.5373
  442MOL0     C58248  -2.621   0.145   8.226 -0.6859  0.2112 -0.3486
  442MOL0     C58249  -2.742   0.052   8.175 -0.0748 -0.0852 -0.1271
  442MOL0     C58250  -2.684  -0.071   8.094  0.8060 -0.7347 -0.0245
  442MOL0     C58251  -2.770  -0.182   8.123  1.0987  0.9045 -0.0763
  442MOL0     C58252  -2.755  -0.280   8.000  0.1280 -0.1688 -0.4481
  442MOL0     C58253  -2.629  -0.367   8.014  0.6051 -1.1507  1.0379
  442MOL0     C58254  -2.637  -0.493   7.932 -0.9814  0.2934 -0.1994
  442MOL0     C58255  -2.526  -0.596   7.974 -1.1925  0.2747  0.4281
  442MOL0    Cl58256  -2.460  -0.681   7.823 -0.4148 -0.0695 -0.2172
  442MOL0     C58257  -2.352   0.308   8.047  0.6604  0.7702 -1.3674
  442MOL0     C58258  -2.279   0.435   8.055 -0.0670  0.4386  0.5352
  442MOL0     O58259  -2.019   0.516   8.303  0.3758  0.5670 -0.0026
  442MOL0     C58260  -1.865   0.752   8.315 -0.3573  0.9069  0.2949
  442MOL0     C58261  -1.794   0.865   8.320  0.1498 -1.3765 -0.5283
  442MOL0     N58262  -1.239   1.077   8.506 -1.0122 -0.9286 -0.9467
  442MOL0     N58263  -1.114   1.083   8.519  0.2241 -0.3458 -0.2565
  442MOL0     C58264  -0.008   1.430   8.183 -0.0047 -0.3848  1.1812
  442MOL0     C58265   0.123   1.466   8.200  0.8721  0.6707 -0.1102
  442MOL0     C58266   0.533   1.626   8.301 -0.1677 -0.2286  0.0118
  442MOL0     C58267   0.521   1.751   8.362 -0.1265 -0.0949 -1.0255
  442MOL0     C58268   0.637   1.819   8.396  0.3150 -0.7428  0.5968
  442MOL0     C58269   0.763   1.769   8.369  0.5001 -0.6696 -0.0285
  442MOL0     O58270   0.871   1.825   8.426  0.3869  0.0111 -0.4197
  442MOL0     C58271   0.990   1.813   8.352  1.0526 -0.7045  0.7635
  442MOL0     C58272   1.089   1.899   8.426 -0.3072  1.4709  1.0352
  442MOL0     C58273   1.050   2.051   8.441 -0.0257  0.6264 -0.1517
  442MOL0     C58274   1.159   2.145   8.466 -0.2026 -0.4567 -0.2121
  442MOL0     C58275   1.262   2.146   8.361 -0.4099 -0.0912  0.4612
  442MOL0     C58276   1.345   2.157   8.278  0.4363  0.1454  0.1903
  442MOL0     C58277   0.765   1.651   8.306  0.8589  0.4622  0.1449
  442MOL0     C58278   0.655   1.577   8.267 -0.2568  0.4287  0.5212
  442MOL0     H58279   0.100   1.656   8.481 -2.0262  2.5272 -0.4353
  442MOL0     H58280  -0.144   1.588   8.447  1.7741 -2.0744  3.3903
  442MOL0     H58281  -0.425   1.512   8.217 -1.4317  1.1410  2.0273
  442MOL0     H58282  -0.319   1.633   8.290  0.6950 -0.9245  1.4119
  442MOL0     H58283  -0.509   1.511   8.443 -1.3424 -2.1921  0.0307
  442MOL0     H58284  -0.350   1.522   8.512  0.0461  1.0245 -0.6106
  442MOL0     H58285  -0.438   1.304   8.538 -1.1377  0.9044 -0.6838
  442MOL0     H58286  -0.296   1.294   8.424  0.2755  0.8064 -1.0300
  442MOL0     H58287  -0.437   1.254   8.239  0.7923 -0.3597 -0.2637
  442MOL0     H58288  -0.473   1.145   8.368 -2.5764  0.3081  0.5497
  442MOL0     H58289  -0.676   1.210   8.253  1.5724  1.9568 -2.6606
  442MOL0     H58290  -0.632   1.383   8.274 -1.5298 -0.6234 -2.4135
  442MOL0     H58291  -0.697   1.356   8.524  0.5573  0.0084  0.4773
  442MOL0     H58292  -0.687   1.179   8.506 -2.3230  0.8346  3.4601
  442MOL0     H58293  -0.908   1.329   8.369 -1.7323  2.0000  1.4743
  442MOL0     H58294  -0.877   1.165   8.390  0.8676  0.0864  0.7234
  442MOL0     H58295  -0.935   1.350   8.625  0.7288 -0.5773 -0.3636
  442MOL0     H58296  -0.915   1.186   8.648 -1.4865 -2.1886 -0.3619
  442MOL0     H58297  -1.209   1.402   8.559  0.4676 -0.1776 -1.3287
  442MOL0     H58298  -1.453   1.303   8.612  0.0935 -1.9117  2.3229
  442MOL0     H58299  -1.498   1.148   8.544  0.8713 -0.6786 -1.1676
  442MOL0     H58300  -1.439   1.248   8.312 -0.9695 -1.2014  0.2142
  442MOL0     H58301  -1.464   1.409   8.403  1.3609  0.7967 -2.6642
  442MOL0     H58302  -1.690   1.301   8.466 -0.7525 -0.5284 -0.5125
  442MOL0     H58303  -1.680   1.345   8.305 -0.6372  2.6488  2.5622
  442MOL0     H58304  -1.662   1.077   8.436 -0.3896  0.2783 -0.7154
  442MOL0     H58305  -1.618   1.094   8.265  3.0025  1.5790  0.9566
  442MOL0     H58306  -2.076   1.068   8.265 -0.5350 -0.0813  2.3143
  442MOL0     H58307  -2.176   0.850   8.252 -0.6619  0.2967 -0.0343
  442MOL0     H58308  -2.339   0.512   8.373 -3.3813  2.7739 -1.7791
  442MOL0     H58309  -2.479   0.318   8.360 -5.5806  2.9240 -2.3727
  442MOL0     H58310  -2.655   0.246   8.249  0.6793  0.8346 -0.9061
  442MOL0     H58311  -2.577   0.106   8.318  3.2950  0.7384 -1.8278
  442MOL0     H58312  -2.801   0.106   8.100 -0.8825 -1.3677 -0.4388
  442MOL0     H58313  -2.793   0.027   8.268  0.1697 -1.2851 -0.3003
  442MOL0     H58314  -2.582  -0.092   8.124  0.7805 -1.9221 -0.7347
  442MOL0     H58315  -2.695  -0.048   7.987 -4.6778  0.8151  0.5442
  442MOL0     H58316  -2.736  -0.227   8.217 -1.0746  2.9864  1.8760
  442MOL0     H58317  -2.875  -0.162   8.146  0.2679 -2.8859  0.0448
  442MOL0     H58318  -2.778  -0.233   7.903 -2.0006 -2.5485 -1.2118
  442MOL0     H58319  -2.844  -0.342   8.012 -1.9258  2.9389  1.7836
  442MOL0     H58320  -2.607  -0.389   8.119  0.2999 -0.9938  1.1384
  442MOL0     H58321  -2.548  -0.304   7.977 -0.7925 -0.4721 -1.0416
  442MOL0     H58322  -2.734  -0.544   7.940 -0.6956 -0.2166  0.1246
  442MOL0     H58323  -2.617  -0.442   7.838  2.5597  2.3427  1.4859
  442MOL0     H58324  -2.568  -0.661   8.052 -0.0825 -0.5238  0.3755
  442MOL0     H58325  -2.443  -0.550   8.028 -0.9401 -2.9563  3.1499
  442MOL0     H58326  -2.364   0.244   7.960 -0.5729 -1.2671  0.1897
  442MOL0     H58327  -2.218   0.473   7.973  1.7000 -1.7769  0.7249
  442MOL0     H58328  -1.809   0.662   8.336 -0.6617  1.1050  2.1930
  442MOL0     H58329  -1.686   0.860   8.328 -0.0325 -3.2619  1.7374
  442MOL0     H58330  -0.045   1.382   8.093 -0.5766  1.8400  0.1685
  442MOL0     H58331   0.194   1.418   8.133 -1.5715 -0.2212 -2.2069
  442MOL0     H58332   0.424   1.799   8.375  1.1005  2.0501  0.8337
  442MOL0     H58333   0.616   1.914   8.443  1.9574  2.9505 -5.1136
  442MOL0     H58334   0.975   1.850   8.250  0.7783 -2.3460  0.1667
  442MOL0     H58335   1.022   1.708   8.351  1.9051 -0.4828  2.0135
  442MOL0     H58336   1.093   1.845   8.521 -0.4027 -2.6506 -1.1053
  442MOL0     H58337   1.191   1.885   8.389  0.1153  0.4789  2.4480
  442MOL0     H58338   0.972   2.068   8.515  1.5011  1.0846  1.4248
  442MOL0     H58339   1.004   2.086   8.348 -0.0674  0.1433 -0.3187
  442MOL0     H58340   1.121   2.247   8.477 -1.3471 -0.9271  0.3972
  442MOL0     H58341   1.219   2.134   8.557  2.1838 -0.2816 -1.6797
  442MOL0     H58342   1.408   2.168   8.193 -1.4638 -1.2489 -1.4827
  442MOL0     H58343   0.857   1.595   8.288 -1.0104 -2.9326  0.3961
  442MOL0     H58344   0.680   1.488   8.211 -1.2883  0.3762  0.1283
  443MOL0     O58345   6.712   3.980   6.073  0.2555  0.1325 -0.1436
  443MOL0     C58346   6.679   4.061   6.165 -0.0629  0.5153  1.1086
  443MOL0     O58347   6.581   4.167   6.149  0.2664  0.7804  0.0700
  443MOL0     C58348   6.496   4.149   6.044 -0.4980 -0.7952  0.5179
  443MOL0     C58349   6.453   4.266   5.972  0.3588  0.4573 -0.0525
  443MOL0     C58350   6.369   4.250   5.863 -0.0318  0.1602 -0.5968
  443MOL0     C58351   6.311   4.131   5.828  0.2379  1.3056  0.5442
  443MOL0     O58352   6.212   4.131   5.733 -0.7582  0.4688 -0.4471
  443MOL0     C58353   6.229   4.214   5.613 -0.2863 -0.5093  0.2353
  443MOL0     C58354   6.143   4.164   5.498  0.6822 -0.6812 -0.6383
  443MOL0     C58355   5.993   4.198   5.519  0.5887  0.2378  0.1777
  443MOL0     C58356   5.924   4.158   5.394  0.3153 -0.2702 -0.1369
  443MOL0     C58357   5.771   4.145   5.401 -0.2473 -0.2391 -0.6038
  443MOL0     C58358   5.711   4.239   5.499  0.4587  0.3322  0.2743
  443MOL0     C58359   5.553   4.217   5.520 -0.5076  0.5412 -0.4508
  443MOL0     C58360   5.503   4.096   5.592  0.1596 -0.0410 -0.3279
  443MOL0     N58361   5.582   4.064   5.711 -0.8652 -0.0588  0.3268
  443MOL0     C58362   5.709   4.011   5.719  0.1078 -0.4703 -0.4015
  443MOL0     C58363   5.759   4.034   5.841 -0.7117 -0.2791 -0.0621
  443MOL0     C58364   5.893   3.978   5.878 -0.2699 -1.1546  0.6186
  443MOL0     C58365   5.914   3.978   6.029  0.4814 -0.4800  0.4440
  443MOL0     C58366   6.064   3.948   6.061  0.7883  0.3058 -0.4351
  443MOL0     C58367   6.074   3.885   6.194  1.1075  1.0658  0.4884
  443MOL0     O58368   6.214   3.863   6.226  0.5266  0.8057 -0.1520
  443MOL0     C58369   6.251   3.839   6.355  0.0416 -0.2952  0.2575
  443MOL0     C58370   6.388   3.837   6.389 -0.5309 -0.3628  0.3663
  443MOL0     C58371   6.427   3.831   6.523  0.3500  0.0458  0.5106
  443MOL0     C58372   6.328   3.794   6.618 -0.4257 -0.2410  1.3704
  443MOL0     C58373   6.376   3.765   6.753  0.5491 -0.0471 -0.4350
  443MOL0     O58374   6.509   3.802   6.771 -0.0421 -1.2610  0.4829
  443MOL0     C58375   6.581   3.797   6.890 -1.0337 -0.6134 -0.7212
  443MOL0     C58376   6.712   3.865   6.890 -0.5297 -0.9031 -0.4364
  443MOL0     C58377   6.789   3.867   7.000  0.1236 -0.5368 -0.4837
  443MOL0     C58378   6.756   3.789   7.110  0.6122  1.0044 -1.0554
  443MOL0     O58379   6.831   3.776   7.228 -0.7305 -0.0079  0.1888
  443MOL0     C58380   6.906   3.890   7.259  0.1073 -0.5535  0.4178
  443MOL0     C58381   6.955   3.880   7.402  0.6466 -0.3242 -0.7898
  443MOL0     C58382   7.071   3.973   7.435 -0.4990 -0.0571  0.2936
  443MOL0     C58383   7.143   3.920   7.565 -0.4016  0.5307  0.3486
  443MOL0     C58384   7.235   4.030   7.614 -0.5243 -0.8915  0.2499
  443MOL0     C58385   7.287   4.009   7.754 -0.2727 -0.3250  0.4055
  443MOL0     C58386   7.364   4.134   7.806 -0.3001 -0.1216 -0.2133
  443MOL0     C58387   7.427   4.104   7.949 -0.0150 -0.1104  0.4218
  443MOL0    Cl58388   7.553   3.978   7.935  0.2560 -0.7364 -0.5021
  443MOL0     C58389   6.641   3.713   7.106  0.5636  0.5693 -0.5133
  443MOL0     C58390   6.548   3.718   7.004 -0.0960 -0.3634  0.7742
  443MOL0     O58391   6.302   3.722   6.844 -0.0870  0.1186  0.3504
  443MOL0     C58392   6.191   3.782   6.587 -0.4361  0.2346 -1.1719
  443MOL0     C58393   6.157   3.803   6.453  0.4240  0.6576 -0.3639
  443MOL0     N58394   5.663   4.096   5.913 -0.4942 -0.3051  0.2309
  443MOL0     N58395   5.555   4.114   5.836 -0.9573 -0.0710 -0.4108
  443MOL0     C58396   6.342   4.019   5.914  0.5109 -0.4581 -0.1020
  443MOL0     C58397   6.432   4.027   6.018  0.1268 -0.5012 -0.5370
  443MOL0     C58398   6.759   4.058   6.285  0.5039 -0.6256  0.0366
  443MOL0     C58399   6.689   4.063   6.408  0.0950 -0.6835  0.2842
  443MOL0     C58400   6.755   4.041   6.531 -0.1527 -1.3550  0.1677
  443MOL0     C58401   6.893   4.030   6.542 -0.2242  0.1037 -0.4666
  443MOL0     O58402   6.955   4.011   6.664  0.0793  0.5670  0.1518
  443MOL0     C58403   7.081   3.939   6.675  0.1810  0.0993 -0.0526
  443MOL0     C58404   7.166   4.040   6.751  0.2961  0.3791  0.5228
  443MOL0     C58405   7.139   4.067   6.900  0.7766 -0.3123  0.1952
  443MOL0     C58406   7.027   4.174   6.911  0.3621 -0.7431 -0.0584
  443MOL0     C58407   7.009   4.218   7.053 -0.0846  0.3873 -0.0419
  443MOL0     C58408   7.006   4.259   7.175 -0.1378 -0.3083 -0.0680
  443MOL0     C58409   6.966   4.038   6.416 -0.0163 -0.6145 -0.1109
  443MOL0     C58410   6.901   4.048   6.289  0.6116 -1.1875 -0.1108
  443MOL0     H58411   6.490   4.365   6.001  1.6091 -0.4915  1.8200
  443MOL0     H58412   6.341   4.334   5.801  0.2756 -0.9143 -2.2744
  443MOL0     H58413   6.334   4.218   5.582  0.2836 -0.4040  2.0716
  443MOL0     H58414   6.205   4.317   5.641  2.6940  0.0418  1.0690
  443MOL0     H58415   6.151   4.054   5.497  1.8414 -0.6165  0.1699
  443MOL0     H58416   6.180   4.208   5.406 -1.2559  1.0455 -0.6607
  443MOL0     H58417   5.992   4.307   5.523  1.2371  0.3017 -0.8873
  443MOL0     H58418   5.948   4.158   5.611  2.9212  1.1136  1.8000
  443MOL0     H58419   5.940   4.245   5.331 -0.7621  0.3902  0.4725
  443MOL0     H58420   5.959   4.068   5.342 -3.2839 -2.1121  0.3327
  443MOL0     H58421   5.750   4.045   5.438  1.8292  0.1877  2.0391
  443MOL0     H58422   5.727   4.159   5.302 -1.1404  0.5048 -0.1201
  443MOL0     H58423   5.722   4.340   5.460  2.1740 -0.5774 -1.7802
  443MOL0     H58424   5.748   4.233   5.602 -2.4381  0.1620  1.4140
  443MOL0     H58425   5.513   4.300   5.579  1.1051  1.8905 -1.1804
  443MOL0     H58426   5.505   4.231   5.423  0.7299  2.2319 -0.8615
  443MOL0     H58427   5.511   4.017   5.517  1.4172  2.2797 -2.8325
  443MOL0     H58428   5.397   4.119   5.607 -0.1165 -1.5664  0.1856
  443MOL0     H58429   5.766   3.974   5.634  4.5438  3.6661  0.2932
  443MOL0     H58430   5.971   4.035   5.828  0.8775 -0.1202  3.3848
  443MOL0     H58431   5.895   3.875   5.841 -0.0880 -0.4991 -1.3023
  443MOL0     H58432   5.843   3.901   6.061 -1.7371  1.0917 -0.4425
  443MOL0     H58433   5.890   4.075   6.073  0.9084  0.7463 -1.9040
  443MOL0     H58434   6.109   3.877   5.991 -3.1367 -1.2932 -1.5612
  443MOL0     H58435   6.121   4.042   6.064  1.0500  0.1549 -0.6310
  443MOL0     H58436   6.029   3.786   6.201 -0.2674  1.7023  1.3211
  443MOL0     H58437   6.019   3.947   6.267  0.9913 -0.6560  1.9270
  443MOL0     H58438   6.463   3.867   6.318  2.0668 -3.7762  1.3783
  443MOL0     H58439   6.535   3.840   6.532  0.4268 -0.4870  0.1828
  443MOL0     H58440   6.748   3.911   6.798 -1.1753 -0.7945 -0.6392
  443MOL0     H58441   6.877   3.931   7.003  1.3862 -2.1709  3.2631
  443MOL0     H58442   6.852   3.982   7.235 -1.7021 -1.8712 -0.9308
  443MOL0     H58443   6.988   3.891   7.186 -1.0225  0.4000 -0.8985
  443MOL0     H58444   6.987   3.776   7.415  1.9188  0.2950  1.8121
  443MOL0     H58445   6.886   3.910   7.482  1.1742  4.0722 -1.7320
  443MOL0     H58446   7.045   4.079   7.441  2.8157  0.8464  1.5811
  443MOL0     H58447   7.147   3.969   7.357  0.2670 -1.1298  1.0598
  443MOL0     H58448   7.066   3.915   7.643  2.2219  0.3223  3.1228
  443MOL0     H58449   7.187   3.820   7.557 -1.2678  0.0580  1.2411
  443MOL0     H58450   7.175   4.121   7.615  0.9708  0.1499  1.9128
  443MOL0     H58451   7.325   4.038   7.552 -0.0409  0.3930  1.0733
  443MOL0     H58452   7.357   3.924   7.757  2.2582  1.6368  1.1378
  443MOL0     H58453   7.206   3.986   7.823  1.3133  0.6812  2.7079
  443MOL0     H58454   7.443   4.151   7.732 -1.6722 -1.4762 -2.0922
  443MOL0     H58455   7.303   4.225   7.805 -1.0168 -0.5924 -0.6706
  443MOL0     H58456   7.356   4.071   8.026 -0.2390 -1.0696 -0.1747
  443MOL0     H58457   7.471   4.196   7.989 -0.6227 -1.2667  4.1371
  443MOL0     H58458   6.621   3.646   7.189  0.0021  2.1077  0.6500
  443MOL0     H58459   6.456   3.662   7.019 -1.9313  2.3521  0.4253
  443MOL0     H58460   6.124   3.753   6.667  0.9175 -0.3655 -0.2168
  443MOL0     H58461   6.054   3.778   6.429  0.5367 -0.4076  0.1903
  443MOL0     H58462   6.296   3.921   5.905 -1.7775  0.5148  0.1599
  443MOL0     H58463   6.450   3.945   6.087  1.3032  0.3327  0.1997
  443MOL0     H58464   6.581   4.076   6.410  0.0713  0.5366 -2.8992
  443MOL0     H58465   6.692   4.032   6.619 -1.8913 -0.2595 -0.8871
  443MOL0     H58466   7.125   3.905   6.581 -4.1415 -1.8577 -1.6556
  443MOL0     H58467   7.069   3.846   6.731  0.1055  0.1579  0.0299
  443MOL0     H58468   7.271   4.009   6.745  0.0636 -0.3439  0.0757
  443MOL0     H58469   7.151   4.137   6.702 -3.0522  0.2325  1.0499
  443MOL0     H58470   7.229   4.110   6.944  0.2864  1.4907 -0.4821
  443MOL0     H58471   7.106   3.977   6.952  1.3321 -0.6271  0.0065
  443MOL0     H58472   7.054   4.270   6.866 -0.4381  0.0247  1.0479
  443MOL0     H58473   6.931   4.139   6.871 -0.5710 -0.0925  1.4904
  443MOL0     H58474   7.016   4.290   7.278  0.8969 -0.6688 -0.0435
  443MOL0     H58475   7.073   4.020   6.408 -0.2762 -1.5804 -2.0695
  443MOL0     H58476   6.950   4.047   6.192 -1.1768 -1.6125 -1.0506
  444MOL0     O58477   6.647  11.285   6.027 -0.5827  0.2477 -0.0556
  444MOL0     C58478   6.668  11.309   5.910 -0.6800 -0.6127 -0.3793
  444MOL0     O58479   6.578  11.304   5.809 -0.7563  0.5924  0.2525
  444MOL0     C58480   6.440  11.298   5.841  0.1997  0.6087  0.0169
  444MOL0     C58481   6.362  11.208   5.771  0.4863 -0.9229 -0.8573
  444MOL0     C58482   6.219  11.216   5.786 -0.4427  0.5237  0.3130
  444MOL0     C58483   6.161  11.307   5.865 -0.3649  0.1494  0.3473
  444MOL0     O58484   6.031  11.319   5.895  0.3414  0.3408 -0.5295
  444MOL0     C58485   5.932  11.242   5.823  0.3461  0.2009  0.4865
  444MOL0     C58486   5.890  11.289   5.688 -0.2287 -0.3301  0.4292
  444MOL0     C58487   5.821  11.182   5.595  0.9931 -0.5811 -0.5742
  444MOL0     C58488   5.776  11.244   5.458 -0.5514  0.3229  0.0850
  444MOL0     C58489   5.706  11.139   5.369  0.7277  0.2275 -0.4726
  444MOL0     C58490   5.664  11.210   5.246  0.6483 -0.7654  0.4426
  444MOL0     C58491   5.613  11.116   5.140  0.3084  0.1264  0.3336
  444MOL0     C58492   5.470  11.072   5.173 -0.1665  0.1111  0.4331
  444MOL0     N58493   5.406  10.969   5.083  0.3669 -0.0787 -0.5024
  444MOL0     C58494   5.312  10.878   5.122  0.6861 -0.6509 -0.7901
  444MOL0     C58495   5.254  10.824   5.008  0.2513 -1.1224 -0.2469
  444MOL0     C58496   5.126  10.744   4.982  0.0607  0.1871  0.2057
  444MOL0     C58497   5.023  10.834   4.921  0.2873 -0.2814 -0.2083
  444MOL0     C58498   5.053  10.885   4.775  0.3979 -0.6459 -0.6050
  444MOL0     C58499   5.125  10.794   4.673  0.1722  0.0806 -0.0765
  444MOL0     O58500   5.101  10.820   4.530 -0.3725 -0.6491 -0.6802
  444MOL0     C58501   4.979  10.805   4.469  0.0066 -0.7847  0.4837
  444MOL0     C58502   4.857  10.775   4.537  0.1072  0.8881  0.0579
  444MOL0     C58503   4.730  10.818   4.498  0.0904  0.1269  0.4456
  444MOL0     C58504   4.723  10.875   4.369  0.4526 -0.2633 -0.4902
  444MOL0     C58505   4.590  10.942   4.331  0.6309 -0.7143  0.0300
  444MOL0     O58506   4.489  10.940   4.422 -0.6310 -0.2600  0.5338
  444MOL0     C58507   4.362  10.982   4.389  0.6797 -0.4854  0.0161
  444MOL0     C58508   4.298  11.073   4.479  0.0990  1.1071 -0.4165
  444MOL0     C58509   4.170  11.116   4.449  0.1415 -0.4522  0.3675
  444MOL0     C58510   4.089  11.068   4.348 -0.8002  0.0475 -0.0962
  444MOL0     O58511   3.967  11.120   4.331 -0.2918 -0.3086 -0.4591
  444MOL0     C58512   3.906  11.092   4.203  0.6035 -0.3223 -0.7197
  444MOL0     C58513   3.781  11.181   4.197 -0.1081 -0.2570 -0.9916
  444MOL0     C58514   3.681  11.125   4.096  0.6934  0.3739  0.0946
  444MOL0     C58515   3.568  11.231   4.076 -2.1762 -0.2699  0.3054
  444MOL0     C58516   3.478  11.181   3.971  0.0899 -1.1706 -0.2261
  444MOL0     C58517   3.391  11.060   4.017  0.3521  0.2837 -0.3402
  444MOL0     C58518   3.275  11.033   3.920  0.2241  0.0863 -0.7341
  444MOL0     C58519   3.189  10.928   3.988 -1.5004 -0.6552  0.1176
  444MOL0    Cl58520   3.083  10.858   3.864  0.0035  0.2651 -0.2372
  444MOL0     C58521   4.145  10.963   4.278 -1.1383  0.7230  0.2175
  444MOL0     C58522   4.277  10.929   4.291 -0.1604  0.2281  1.1492
  444MOL0     O58523   4.583  10.991   4.218  0.7774 -0.3165  0.0971
  444MOL0     C58524   4.833  10.885   4.293 -0.3181  0.4824  0.9797
  444MOL0     C58525   4.964  10.859   4.347  0.4016 -0.3154  0.3470
  444MOL0     N58526   5.343  10.879   4.915 -0.4490 -0.0960  0.1600
  444MOL0     N58527   5.429  10.960   4.953  0.1772 -0.3496 -0.3732
  444MOL0     C58528   6.243  11.391   5.936  0.4808  0.7012 -0.5928
  444MOL0     C58529   6.377  11.384   5.928  0.2587  0.4064  0.5279
  444MOL0     C58530   6.791  11.394   5.899  0.1327  0.0984  0.1702
  444MOL0     C58531   6.839  11.471   5.994  0.4428  0.2621 -0.1172
  444MOL0     C58532   6.966  11.537   5.978  0.0394 -0.3299  0.4603
  444MOL0     C58533   7.043  11.517   5.862 -0.4585 -0.4737  0.7119
  444MOL0     O58534   7.162  11.584   5.859 -0.3029 -0.9238  0.0281
  444MOL0     C58535   7.255  11.534   5.752 -1.3759 -0.5936  0.0336
  444MOL0     C58536   7.393  11.603   5.761 -0.9328  0.3511  0.0102
  444MOL0     C58537   7.472  11.558   5.651 -0.8880  0.1897  0.5882
  444MOL0     C58538   7.589  11.658   5.635  0.0238 -0.3272  0.6424
  444MOL0     C58539   7.679  11.639   5.520  0.2803 -0.9860 -0.2584
  444MOL0     C58540   7.749  11.611   5.424 -0.6503  0.6998 -0.4691
  444MOL0     C58541   6.994  11.426   5.760  0.7407 -0.5858  0.0124
  444MOL0     C58542   6.866  11.378   5.779 -0.0322  0.0743  0.0806
  444MOL0     H58543   6.408  11.145   5.696 -0.9136  2.0491 -4.5407
  444MOL0     H58544   6.167  11.142   5.726  2.5061 -1.9791  0.5453
  444MOL0     H58545   5.843  11.240   5.887  2.7570  1.0973  4.1534
  444MOL0     H58546   5.964  11.138   5.808  2.0549  0.7830 -0.0794
  444MOL0     H58547   5.980  11.322   5.636 -2.0705  2.9993 -0.9666
  444MOL0     H58548   5.815  11.368   5.698  2.0266  2.1221 -0.8751
  444MOL0     H58549   5.734  11.141   5.647 -1.0585  0.3133 -3.0947
  444MOL0     H58550   5.892  11.099   5.589  2.4491  0.5174  0.5468
  444MOL0     H58551   5.710  11.330   5.471 -2.0568 -0.8260  0.2084
  444MOL0     H58552   5.862  11.277   5.398  0.1184 -2.0199 -0.3526
  444MOL0     H58553   5.617  11.105   5.424 -0.1997  4.1755  0.8074
  444MOL0     H58554   5.770  11.052   5.348 -0.4902 -0.7724 -0.1890
  444MOL0     H58555   5.751  11.260   5.200 -0.2867  0.9091  0.4095
  444MOL0     H58556   5.592  11.288   5.272  2.3299  1.5655 -1.3868
  444MOL0     H58557   5.612  11.162   5.041 -1.0168  0.4679  0.4854
  444MOL0     H58558   5.674  11.026   5.131  0.6110  0.5514 -3.1895
  444MOL0     H58559   5.406  11.159   5.157  1.9303  1.6114 -0.1194
  444MOL0     H58560   5.463  11.038   5.276 -1.5029  2.4835  1.2068
  444MOL0     H58561   5.280  10.858   5.224 -1.0582 -1.1979 -1.4154
  444MOL0     H58562   5.087  10.710   5.078  0.8919 -0.9677  0.1567
  444MOL0     H58563   5.151  10.658   4.919  1.4771  1.6133 -1.2958
  444MOL0     H58564   5.003  10.922   4.983 -0.8564 -0.4040 -0.3809
  444MOL0     H58565   4.934  10.771   4.926  0.1816 -0.0521  1.4783
  444MOL0     H58566   4.964  10.926   4.725  1.3273 -0.7347 -2.3975
  444MOL0     H58567   5.121  10.970   4.783 -0.6289  0.3184 -1.6889
  444MOL0     H58568   5.091  10.691   4.687 -1.1744  0.5071 -0.0965
  444MOL0     H58569   5.232  10.788   4.694  0.0062  2.1539  1.6344
  444MOL0     H58570   4.873  10.743   4.639  0.7389  0.7377 -0.0799
  444MOL0     H58571   4.651  10.813   4.573  0.5497 -2.2840  0.8623
  444MOL0     H58572   4.354  11.109   4.565 -3.9472  1.2288  2.4329
  444MOL0     H58573   4.123  11.196   4.504 -0.3547  0.9296 -1.9292
  444MOL0     H58574   3.889  10.985   4.195  2.8121 -0.8079  0.3986
  444MOL0     H58575   3.968  11.124   4.119  2.2371 -1.5736 -0.0392
  444MOL0     H58576   3.815  11.281   4.169  2.1150  0.2057  2.6858
  444MOL0     H58577   3.733  11.190   4.295 -0.3751  4.2393 -1.3003
  444MOL0     H58578   3.625  11.046   4.146 -2.1739  2.1915 -0.0262
  444MOL0     H58579   3.725  11.090   4.002  1.9729  1.0864  0.4059
  444MOL0     H58580   3.506  11.257   4.162 -1.4949 -2.9238  1.7205
  444MOL0     H58581   3.609  11.326   4.040 -2.8847 -0.2092 -0.3637
  444MOL0     H58582   3.533  11.162   3.878  1.3656  0.6595  0.1140
  444MOL0     H58583   3.401  11.256   3.952  0.3366 -0.3227  1.8512
  444MOL0     H58584   3.351  11.083   4.116 -2.7381 -6.6451  0.6304
  444MOL0     H58585   3.459  10.975   4.017  3.2286  2.1843  4.4307
  444MOL0     H58586   3.217  11.119   3.888  1.5587  1.2081 -0.2709
  444MOL0     H58587   3.317  10.999   3.825  1.4176 -0.6310  0.0138
  444MOL0     H58588   3.127  10.984   4.059 -2.5133 -0.1949 -1.0964
  444MOL0     H58589   3.248  10.852   4.040  2.5427  1.4210 -1.0364
  444MOL0     H58590   4.083  10.918   4.202 -3.3346  0.6585  1.9629
  444MOL0     H58591   4.305  10.856   4.215 -2.0424  1.0218 -0.3977
  444MOL0     H58592   4.824  10.923   4.191 -1.4473 -1.5192  0.2528
  444MOL0     H58593   5.050  10.886   4.286 -1.1532 -0.0848 -1.8621
  444MOL0     H58594   6.207  11.466   6.006  0.2422 -2.5121  3.0877
  444MOL0     H58595   6.430  11.466   5.974  2.1717 -0.1141 -0.6457
  444MOL0     H58596   6.787  11.493   6.087  3.0286  2.4661  0.9651
  444MOL0     H58597   7.002  11.610   6.050  4.5217 -2.8622  1.2020
  444MOL0     H58598   7.214  11.569   5.657 -2.4773 -1.0761  0.3145
  444MOL0     H58599   7.267  11.425   5.748  3.3491 -0.4632  2.9969
  444MOL0     H58600   7.375  11.710   5.747 -1.3256  0.1231 -1.3710
  444MOL0     H58601   7.444  11.584   5.856 -3.8346 -3.7334  1.0217
  444MOL0     H58602   7.412  11.556   5.559 -2.7039 -0.7731  1.7159
  444MOL0     H58603   7.513  11.457   5.660 -0.4238  0.2528 -0.5899
  444MOL0     H58604   7.552  11.761   5.629  0.5057 -0.0540  1.9555
  444MOL0     H58605   7.656  11.645   5.720  1.7290  1.3447 -0.3845
  444MOL0     H58606   7.815  11.566   5.353  0.1755  0.1077  0.6387
  444MOL0     H58607   7.045  11.399   5.668  1.0952  0.2920 -0.0589
  444MOL0     H58608   6.836  11.317   5.694  2.2763 -0.5124 -0.4025
  445MOL0     O58609  10.205   8.578   6.492  0.7243 -0.2167  0.2893
  445MOL0     C58610  10.179   8.525   6.600 -0.6988  0.1018 -0.3939
  445MOL0     O58611  10.177   8.388   6.623 -0.7284  0.0829  0.4530
  445MOL0     C58612  10.207   8.318   6.502 -1.0799  0.4792 -0.0435
  445MOL0     C58613  10.332   8.297   6.440 -0.4697  0.0137  0.8479
  445MOL0     C58614  10.340   8.235   6.311 -0.1159  0.8582  0.8129
  445MOL0     C58615  10.228   8.166   6.270 -0.7907 -1.1210 -0.7220
  445MOL0     O58616  10.231   8.089   6.154  0.0986  0.3080  0.2513
  445MOL0     C58617  10.343   8.092   6.071  0.1233 -0.0150  0.7872
  445MOL0     C58618  10.311   7.983   5.955  0.5058  0.1828  0.0661
  445MOL0     C58619  10.166   8.011   5.904 -0.5350  0.5149 -0.3204
  445MOL0     C58620  10.150   7.952   5.764  0.1675 -0.0626  0.2862
  445MOL0     C58621  10.015   7.947   5.709  0.1511  0.0492  1.0328
  445MOL0     C58622   9.916   7.870   5.793 -0.4126  0.5797  0.5638
  445MOL0     C58623   9.959   7.729   5.838 -0.8119  0.9995  0.2872
  445MOL0     C58624   9.851   7.665   5.929 -0.1495 -0.0312 -0.7792
  445MOL0     N58625   9.830   7.734   6.064 -0.0034 -0.1659  0.8180
  445MOL0     C58626   9.706   7.763   6.110 -0.0960  1.0047 -0.2919
  445MOL0     C58627   9.729   7.826   6.231 -1.2582  0.3671  0.4211
  445MOL0     C58628   9.631   7.881   6.331  0.1237 -0.4833  0.4280
  445MOL0     C58629   9.648   8.026   6.368  0.0101 -0.3012  0.1342
  445MOL0     C58630   9.596   8.117   6.251  0.9303  0.4630  0.2594
  445MOL0     C58631   9.645   8.264   6.265 -0.7348 -0.9478 -0.3326
  445MOL0     O58632   9.613   8.331   6.394 -1.1666  0.4298 -0.2213
  445MOL0     C58633   9.485   8.340   6.437 -0.4444  0.4642  0.1776
  445MOL0     C58634   9.384   8.363   6.344  0.0652 -0.6112 -0.1279
  445MOL0     C58635   9.251   8.386   6.391  0.2570 -0.2033  0.6037
  445MOL0     C58636   9.224   8.382   6.526 -0.4075 -0.5767 -0.4664
  445MOL0     C58637   9.094   8.391   6.577  0.1087 -0.2557 -0.3147
  445MOL0     O58638   9.067   8.346   6.702  0.0352 -0.0272  0.3286
  445MOL0     C58639   8.945   8.380   6.746 -0.6747  0.0509  0.1693
  445MOL0     C58640   8.863   8.279   6.791  0.1361  0.2911 -0.0599
  445MOL0     C58641   8.735   8.305   6.821  0.7284 -0.6543 -0.6630
  445MOL0     C58642   8.687   8.436   6.812  0.2959  0.0623 -0.9167
  445MOL0     O58643   8.560   8.480   6.856 -0.2214 -0.1284  0.1159
  445MOL0     C58644   8.451   8.400   6.801  0.0051  0.8008 -0.3104
  445MOL0     C58645   8.393   8.328   6.922 -0.5239 -0.3878  0.1114
  445MOL0     C58646   8.294   8.217   6.915  0.3728 -0.4363  0.4941
  445MOL0     C58647   8.150   8.269   6.894  0.2656  0.0551 -0.7477
  445MOL0     C58648   8.051   8.153   6.909 -0.4891 -0.7145 -0.2404
  445MOL0     C58649   7.918   8.199   6.881  0.3186 -0.1986  0.2241
  445MOL0     C58650   7.811   8.089   6.887  0.8437 -0.0768 -0.6952
  445MOL0     C58651   7.662   8.152   6.878 -0.4252 -0.0454 -0.3439
  445MOL0    Cl58652   7.598   8.218   7.023  0.0740  0.6473 -0.2832
  445MOL0     C58653   8.768   8.542   6.786 -0.1414 -0.2728  0.4975
  445MOL0     C58654   8.901   8.509   6.755  0.2416 -0.1038 -0.4060
  445MOL0     O58655   9.009   8.432   6.498 -0.1826 -0.6519  0.9520
  445MOL0     C58656   9.330   8.377   6.618  0.3769  0.1011 -0.2388
  445MOL0     C58657   9.455   8.345   6.573 -0.0052  0.5597 -0.1831
  445MOL0     N58658   9.869   7.830   6.244  0.0256 -0.7352 -0.2346
  445MOL0     N58659   9.929   7.775   6.140  0.9061  0.1480  0.4602
  445MOL0     C58660  10.102   8.190   6.332  0.4404  0.5387  0.5425
  445MOL0     C58661  10.095   8.262   6.449 -0.0903 -0.6918 -0.6983
  445MOL0     C58662  10.142   8.612   6.711 -0.7472  0.6899  0.4652
  445MOL0     C58663  10.162   8.754   6.705  0.9514 -0.1120  0.1986
  445MOL0     C58664  10.137   8.836   6.816 -0.0038  0.4104 -0.0447
  445MOL0     C58665  10.086   8.790   6.936  0.9752  0.2985  0.4515
  445MOL0     O58666  10.050   8.862   7.035 -0.2170  0.2500 -0.8818
  445MOL0     C58667  10.155   8.879   7.123 -0.0549 -0.2077 -0.3550
  445MOL0     C58668  10.099   8.951   7.248 -0.2867 -0.0410  1.2465
  445MOL0     C58669  10.198   8.977   7.360 -0.8515  0.0058  0.1970
  445MOL0     C58670  10.126   9.011   7.491 -0.0257  0.0804 -1.0023
  445MOL0     C58671  10.216   9.033   7.616  0.2750  0.7088  0.0496
  445MOL0     C58672  10.319   9.053   7.775 -0.4398  0.4034  0.2101
  445MOL0     C58673  10.061   8.655   6.947 -0.3574 -0.5610 -0.4078
  445MOL0     C58674  10.092   8.567   6.838 -0.2449 -0.5782  0.4575
  445MOL0     H58675  10.425   8.332   6.485  1.8539 -4.7296  0.3893
  445MOL0     H58676  10.433   8.249   6.257 -2.3996  2.3916 -3.1288
  445MOL0     H58677  10.434   8.064   6.126 -0.4524 -1.5747  0.9782
  445MOL0     H58678  10.350   8.191   6.024 -2.2174  0.9827  2.3937
  445MOL0     H58679  10.318   7.882   5.995  1.3172  0.6478  1.1455
  445MOL0     H58680  10.382   7.997   5.873 -0.2502  0.5248 -0.5417
  445MOL0     H58681  10.142   8.117   5.890 -1.8252  0.2812 -0.0287
  445MOL0     H58682  10.100   7.963   5.977  0.7969 -1.2407 -0.1829
  445MOL0     H58683  10.197   8.008   5.683 -1.8183 -1.9536 -2.3246
  445MOL0     H58684  10.191   7.850   5.762  1.4290  0.3659 -3.3192
  445MOL0     H58685  10.010   7.900   5.610 -0.9581 -0.9470  1.5448
  445MOL0     H58686   9.988   8.052   5.699  0.4243  0.0868  0.6654
  445MOL0     H58687   9.829   7.858   5.727  1.8797  0.1370 -2.6008
  445MOL0     H58688   9.912   7.922   5.889  0.0219  0.4569  0.6482
  445MOL0     H58689   9.953   7.671   5.745  1.3538  0.8024  0.2090
  445MOL0     H58690  10.059   7.722   5.883 -1.2358 -0.1476  1.1060
  445MOL0     H58691   9.873   7.559   5.946 -0.0814  0.4159  2.7024
  445MOL0     H58692   9.765   7.679   5.864 -1.3142 -1.0944  0.4738
  445MOL0     H58693   9.611   7.751   6.059 -0.3160  1.0574  0.1032
  445MOL0     H58694   9.634   7.814   6.418  0.9690 -2.3417 -0.9425
  445MOL0     H58695   9.531   7.883   6.286  1.3401  0.8896 -2.4257
  445MOL0     H58696   9.754   8.034   6.393  0.3201 -1.6926 -0.5843
  445MOL0     H58697   9.602   8.050   6.464  2.9183  1.1961  1.2698
  445MOL0     H58698   9.627   8.082   6.152 -2.1002 -1.9155  0.0133
  445MOL0     H58699   9.487   8.110   6.250  0.8085  1.9039  1.2133
  445MOL0     H58700   9.623   8.325   6.177  0.0268  1.0646  0.8216
  445MOL0     H58701   9.753   8.247   6.269 -0.7283 -0.7347  0.6089
  445MOL0     H58702   9.402   8.367   6.237 -3.3205 -0.3490 -0.7891
  445MOL0     H58703   9.160   8.394   6.334 -0.8671 -2.3663  1.9629
  445MOL0     H58704   8.890   8.174   6.785  1.6100  0.6957 -1.1086
  445MOL0     H58705   8.661   8.236   6.861 -0.3731 -0.9130 -2.9585
  445MOL0     H58706   8.483   8.342   6.715  2.7674  2.5373 -0.5634
  445MOL0     H58707   8.371   8.463   6.760  0.1721  2.9295  2.2868
  445MOL0     H58708   8.359   8.408   6.989  4.0201 -0.0550  2.3893
  445MOL0     H58709   8.475   8.293   6.985 -1.0873 -0.8592  0.5966
  445MOL0     H58710   8.306   8.161   7.008  0.0812 -2.3762 -0.5831
  445MOL0     H58711   8.329   8.154   6.833 -0.5870  0.1298 -0.3860
  445MOL0     H58712   8.122   8.356   6.953  1.0709 -2.8282  4.5187
  445MOL0     H58713   8.155   8.317   6.796  0.2152  1.8603  0.1048
  445MOL0     H58714   8.060   8.124   7.014 -1.1846  1.9100  0.6050
  445MOL0     H58715   8.089   8.075   6.842  0.2860 -0.3296 -0.2636
  445MOL0     H58716   7.926   8.260   6.791 -0.3811  0.3004  0.4946
  445MOL0     H58717   7.878   8.271   6.952  1.1821  0.1755  0.3387
  445MOL0     H58718   7.827   8.019   6.805  2.0021 -1.7627  0.8715
  445MOL0     H58719   7.842   8.032   6.976  2.2260 -2.7507 -2.7255
  445MOL0     H58720   7.596   8.068   6.852 -1.1459 -0.2582  1.9882
  445MOL0     H58721   7.651   8.234   6.806 -1.5846  1.4301  1.4431
  445MOL0     H58722   8.729   8.643   6.796 -0.0662 -0.2273  0.3408
  445MOL0     H58723   8.963   8.594   6.727  0.2368  0.1878  0.4247
  445MOL0     H58724   9.324   8.384   6.726  1.2650 -0.8218 -0.1118
  445MOL0     H58725   9.535   8.338   6.646  1.7008  1.5500 -1.8837
  445MOL0     H58726  10.014   8.146   6.286 -0.2031  0.4045  1.8690
  445MOL0     H58727  10.005   8.284   6.504  1.3893  0.8059  1.2542
  445MOL0     H58728  10.209   8.799   6.618 -2.2260 -0.3733 -1.8140
  445MOL0     H58729  10.162   8.941   6.809 -0.0462  0.5111  1.1615
  445MOL0     H58730  10.230   8.938   7.069  0.2405 -3.0922 -3.4778
  445MOL0     H58731  10.201   8.787   7.160 -0.4920  0.3714  1.7502
  445MOL0     H58732  10.062   9.049   7.217 -2.7526 -1.0514  0.6995
  445MOL0     H58733  10.020   8.895   7.298 -0.6309 -0.2232  0.5220
  445MOL0     H58734  10.261   9.061   7.329 -0.1923 -0.0987  1.1975
  445MOL0     H58735  10.270   8.897   7.379  0.5499  1.1036 -0.4056
  445MOL0     H58736  10.073   9.105   7.474 -1.2812 -0.5263 -0.5744
  445MOL0     H58737  10.053   8.932   7.513  0.7602  0.1010  2.2434
  445MOL0     H58738  10.375   9.067   7.865 -3.6548 -0.9935  2.6185
  445MOL0     H58739  10.020   8.605   7.034  0.2583  2.7861  1.9635
  445MOL0     H58740  10.053   8.466   6.838  0.2722 -0.7861  1.0758
  446MOL0     O58741   9.388   9.817   3.040 -0.1659  0.0782  0.7079
  446MOL0     C58742   9.385   9.938   3.061 -0.5721 -0.5766 -1.4583
  446MOL0     O58743   9.498  10.019   3.069 -0.2218 -0.4945  0.3509
  446MOL0     C58744   9.622   9.986   3.036  0.4317 -0.0923  0.4914
  446MOL0     C58745   9.674   9.861   2.997  0.0680 -0.0852  0.8664
  446MOL0     C58746   9.809   9.851   3.004 -0.8165 -0.3970  0.3690
  446MOL0     C58747   9.895   9.959   3.020  0.2951  0.4805  0.4783
  446MOL0     O58748  10.031   9.929   3.015 -0.2693  0.1271  0.4533
  446MOL0     C58749  10.106  10.019   3.095 -0.7584  0.4850 -0.3493
  446MOL0     C58750  10.222   9.939   3.140  0.2815  0.0521  0.0655
  446MOL0     C58751  10.181   9.821   3.229 -0.3681 -0.1413 -0.1098
  446MOL0     C58752  10.308   9.774   3.298  0.8644  0.5102 -0.5661
  446MOL0     C58753  10.289   9.648   3.381  1.0535  0.3477 -0.0971
  446MOL0     C58754  10.429   9.597   3.422  0.6505  0.8287  0.7513
  446MOL0     C58755  10.444   9.444   3.446  0.2087 -0.0031  0.1425
  446MOL0     C58756  10.383   9.400   3.571 -0.5187 -0.7290  0.5889
  446MOL0     N58757  10.243   9.377   3.559  0.6856 -0.4117 -0.2850
  446MOL0     C58758  10.183   9.316   3.461  1.1267 -0.3871 -0.0892
  446MOL0     C58759  10.044   9.310   3.490 -0.3705  0.5380 -0.1574
  446MOL0     C58760   9.926   9.250   3.418 -0.2780  0.5072  0.1792
  446MOL0     C58761   9.955   9.267   3.265 -0.0369  0.5342  0.0305
  446MOL0     C58762   9.960   9.418   3.223  0.2596  0.2757  1.1463
  446MOL0     C58763   9.986   9.417   3.071  0.4846 -0.1393  0.0412
  446MOL0     O58764  10.099   9.344   3.021 -0.0762 -0.0950 -0.4996
  446MOL0     C58765  10.224   9.403   3.032  0.0852  0.8096  0.4570
  446MOL0     C58766  10.253   9.533   2.982  0.2512  0.3385 -0.1760
  446MOL0     C58767  10.379   9.581   2.992  0.9572  0.3320  0.0795
  446MOL0     C58768  10.487   9.519   3.056  0.0294 -1.1281  0.1200
  446MOL0     C58769  10.627   9.576   3.034  0.4660 -0.0214 -0.3378
  446MOL0     O58770  10.729   9.497   3.082  0.4458 -0.4713 -0.1434
  446MOL0     C58771  10.843   9.568   3.098  0.8190 -0.8687  0.0893
  446MOL0     C58772  10.885   9.602   3.228 -0.0162  0.4680 -0.4437
  446MOL0     C58773  10.989   9.694   3.254 -0.5654 -0.0061 -0.7986
  446MOL0     C58774  11.053   9.754   3.142 -0.3981  1.5788  0.1919
  446MOL0     O58775  11.154   9.843   3.142  0.8063  0.3437 -0.0214
  446MOL0     C58776  11.245   9.843   3.254  0.0937  0.1460 -0.0107
  446MOL0     C58777  11.383   9.882   3.204  0.0411  1.3128 -0.7649
  446MOL0     C58778  11.444   9.999   3.274 -0.4986  0.0878 -0.7203
  446MOL0     C58779  11.583  10.051   3.216  0.0091  0.2903 -0.3157
  446MOL0     C58780  11.644  10.168   3.291  0.5337 -0.4186 -0.2691
  446MOL0     C58781  11.794  10.195   3.246  0.5148  0.2609 -0.2905
  446MOL0     C58782  11.802  10.218   3.100 -0.3915  0.5625 -0.1781
  446MOL0     C58783  11.935  10.277   3.046 -0.5813  0.2928  0.5162
  446MOL0    Cl58784  12.060  10.149   3.016 -0.2615  0.2890  0.2892
  446MOL0     C58785  11.010   9.721   3.012  0.5011 -0.5808  0.4921
  446MOL0     C58786  10.909   9.632   2.998 -0.1599 -0.4313 -0.4236
  446MOL0     O58787  10.641   9.684   2.976  0.2877  0.3487 -0.0721
  446MOL0     C58788  10.458   9.383   3.094 -0.0720 -0.6137  0.7380
  446MOL0     C58789  10.330   9.329   3.079 -0.0829  0.6723 -0.0914
  446MOL0     N58790  10.031   9.384   3.609 -1.1237  0.5931 -0.0946
  446MOL0     N58791  10.154   9.423   3.645  0.9292 -0.1140  0.1717
  446MOL0     C58792   9.843  10.084   3.044  0.8364  0.4255  0.1005
  446MOL0     C58793   9.709  10.096   3.050  0.4258  0.0581 -0.0857
  446MOL0     C58794   9.255   9.994   3.075  0.4592  0.1995 -0.1072
  446MOL0     C58795   9.245  10.133   3.117 -0.4448  0.8702 -0.4815
  446MOL0     C58796   9.114  10.189   3.127 -0.8789 -0.2117 -0.0662
  446MOL0     C58797   9.002  10.119   3.093 -0.5318  0.7841  1.0010
  446MOL0     O58798   8.883  10.192   3.105 -0.2287 -0.5848  0.2620
  446MOL0     C58799   8.757  10.116   3.087 -0.8687 -0.5948  0.4107
  446MOL0     C58800   8.650  10.206   3.156 -0.2108  0.2093  0.7333
  446MOL0     C58801   8.517  10.139   3.171 -0.4069  0.6024 -0.1819
  446MOL0     C58802   8.431  10.138   3.057 -0.7568  0.4064  0.8063
  446MOL0     C58803   8.364  10.270   3.044 -0.8495  0.0302 -0.3263
  446MOL0     C58804   8.322  10.384   3.031  0.5352  0.0515 -0.4273
  446MOL0     C58805   9.015   9.976   3.058  0.9117 -1.2169 -0.6234
  446MOL0     C58806   9.141   9.917   3.047 -0.5222  0.2916 -0.7114
  446MOL0     H58807   9.616   9.778   2.957  2.9430 -3.4714  3.1299
  446MOL0     H58808   9.856   9.755   2.984  1.6218  0.5199  1.3090
  446MOL0     H58809  10.056  10.052   3.186  1.9306 -0.2241  1.5160
  446MOL0     H58810  10.144  10.106   3.040  3.2560  0.0065  1.3239
  446MOL0     H58811  10.288  10.005   3.197  0.5793 -1.1411  1.1621
  446MOL0     H58812  10.273   9.903   3.050 -2.1125 -0.2580 -1.2392
  446MOL0     H58813  10.160   9.742   3.156  1.1629  0.1801 -0.9306
  446MOL0     H58814  10.092   9.838   3.291 -1.4925 -0.1219 -1.6889
  446MOL0     H58815  10.372   9.757   3.211 -0.3445  1.0561 -1.5980
  446MOL0     H58816  10.356   9.849   3.362  0.2570 -0.7614  1.5014
  446MOL0     H58817  10.243   9.573   3.315  0.5635 -0.4040  1.0653
  446MOL0     H58818  10.222   9.657   3.468  1.0229  0.2493 -0.1099
  446MOL0     H58819  10.462   9.653   3.510  1.2187  1.9793 -0.1700
  446MOL0     H58820  10.507   9.620   3.348 -0.7129 -1.5995 -1.6205
  446MOL0     H58821  10.398   9.411   3.352 -1.5986  2.1222  0.1936
  446MOL0     H58822  10.550   9.419   3.436  0.0428 -0.7788  0.2665
  446MOL0     H58823  10.405   9.482   3.640  0.7952 -0.2292 -0.3894
  446MOL0     H58824  10.435   9.310   3.604 -1.9571 -2.7340 -2.1741
  446MOL0     H58825  10.229   9.264   3.378  1.4514 -2.0731  1.0926
  446MOL0     H58826   9.837   9.309   3.445  0.2236  2.0167 -1.3084
  446MOL0     H58827   9.908   9.144   3.438  2.2226 -0.1091 -0.5334
  446MOL0     H58828   9.896   9.198   3.203  1.5344 -1.1569  0.3201
  446MOL0     H58829  10.051   9.226   3.232  1.2066  1.4499  2.3225
  446MOL0     H58830   9.860   9.460   3.237  0.0146 -0.8775  3.3794
  446MOL0     H58831  10.033   9.483   3.269  0.6301  2.8779 -2.6706
  446MOL0     H58832   9.989   9.520   3.033 -0.4222 -1.4871 -4.1951
  446MOL0     H58833   9.898   9.372   3.024  0.9468 -2.6935  1.4297
  446MOL0     H58834  10.179   9.595   2.933 -1.0929  0.6932  2.1503
  446MOL0     H58835  10.394   9.674   2.938  1.6058 -0.5824 -1.3917
  446MOL0     H58836  10.833   9.562   3.315  0.5225 -0.8361 -0.7031
  446MOL0     H58837  11.010   9.703   3.360 -1.6699 -2.6665 -0.2897
  446MOL0     H58838  11.253   9.754   3.317  2.6926  0.9738  0.9793
  446MOL0     H58839  11.199   9.921   3.315 -5.2537 -3.3281  1.0905
  446MOL0     H58840  11.379   9.910   3.098  0.6756  0.0564 -1.1301
  446MOL0     H58841  11.446   9.793   3.207 -1.0714  0.5298  0.3424
  446MOL0     H58842  11.469   9.972   3.377 -0.5306  0.8508 -0.5067
  446MOL0     H58843  11.378  10.087   3.272 -0.3832  0.1644 -1.2927
  446MOL0     H58844  11.652   9.967   3.206  0.8104  1.0587 -1.4412
  446MOL0     H58845  11.566  10.083   3.113  2.5067 -1.6039 -1.3977
  446MOL0     H58846  11.642  10.148   3.398  1.3695 -3.4510 -0.7329
  446MOL0     H58847  11.593  10.264   3.284 -0.0261 -0.3917  2.8307
  446MOL0     H58848  11.859  10.110   3.268  1.3316  1.1318  0.7687
  446MOL0     H58849  11.833  10.280   3.303 -0.9866  0.9539 -0.2352
  446MOL0     H58850  11.777  10.124   3.050 -3.4979  0.7493  0.8378
  446MOL0     H58851  11.724  10.291   3.078  1.7291  2.8928 -0.4811
  446MOL0     H58852  11.970  10.354   3.114 -3.7658 -0.0109  2.7139
  446MOL0     H58853  11.912  10.330   2.953 -0.4235 -2.2129 -1.0666
  446MOL0     H58854  11.047   9.762   2.919  2.1508  0.1278  1.4283
  446MOL0     H58855  10.872   9.611   2.898 -0.0252  0.1606 -0.6002
  446MOL0     H58856  10.534   9.319   3.139 -1.7109 -2.1268  1.4799
  446MOL0     H58857  10.319   9.230   3.121  0.2998  0.6057 -0.1418
  446MOL0     H58858   9.905  10.169   3.071  2.0889  0.1463 -1.7674
  446MOL0     H58859   9.666  10.192   3.079  0.4622 -0.3487  1.3984
  446MOL0     H58860   9.339  10.183   3.135 -0.4307  0.2315  1.4129
  446MOL0     H58861   9.113  10.296   3.149  0.4687 -0.7301  3.0935
  446MOL0     H58862   8.754  10.017   3.134 -0.7093 -1.3840 -1.1594
  446MOL0     H58863   8.742  10.105   2.979 -0.1925 -0.5637  0.3058
  446MOL0     H58864   8.684  10.241   3.254 -0.2641 -0.2473  0.9191
  446MOL0     H58865   8.636  10.293   3.091 -0.1887  0.1521  0.6522
  446MOL0     H58866   8.473  10.169   3.267 -2.8193 -0.8335 -0.7472
  446MOL0     H58867   8.546  10.034   3.180 -0.4889  0.6260  0.3912
  446MOL0     H58868   8.484  10.098   2.970 -2.2476 -1.3942  0.6564
  446MOL0     H58869   8.352  10.065   3.079  0.6829 -1.4968  0.0150
  446MOL0     H58870   8.292  10.484   3.008 -1.8194 -1.0499 -2.5437
  446MOL0     H58871   8.938   9.902   3.040  0.6467 -1.0126 -0.3198
  446MOL0     H58872   9.146   9.811   3.023 -3.4936 -0.1952  0.3617
  447MOL0     O58873  10.473   0.428   7.940  0.3722  0.3273  0.3883
  447MOL0     C58874  10.480   0.468   8.056  0.2137 -0.2224 -1.0409
  447MOL0     O58875  10.372   0.528   8.136 -0.1117 -0.3966  0.2955
  447MOL0     C58876  10.240   0.493   8.105 -0.1125  0.5038 -0.9978
  447MOL0     C58877  10.137   0.585   8.115 -0.1179 -0.4905 -0.4496
  447MOL0     C58878  10.007   0.565   8.083  0.3809  0.0827 -0.1827
  447MOL0     C58879   9.955   0.433   8.057  0.0728  0.1244 -0.1696
  447MOL0     O58880   9.833   0.392   8.005 -0.2039  0.0204 -0.5095
  447MOL0     C58881   9.754   0.490   7.951 -0.0705  0.7749  0.4867
  447MOL0     C58882   9.612   0.439   7.934 -0.4511  0.1143  0.6694
  447MOL0     C58883   9.525   0.538   7.847 -0.5930  0.4399 -0.2958
  447MOL0     C58884   9.381   0.492   7.833 -0.8290  0.2841  0.7449
  447MOL0     C58885   9.374   0.359   7.744  0.2666 -0.0386 -0.5035
  447MOL0     C58886   9.228   0.320   7.756  0.0991 -0.6841  0.0650
  447MOL0     C58887   9.204   0.222   7.641  0.9197  0.0197  0.2553
  447MOL0     C58888   9.060   0.182   7.663  0.5507  0.5721  0.3475
  447MOL0     N58889   8.962   0.293   7.661 -0.4109  0.3015  0.0868
  447MOL0     C58890   8.950   0.384   7.555 -0.4446 -0.0521 -0.6996
  447MOL0     C58891   8.826   0.419   7.556 -0.9544  0.4238 -0.3271
  447MOL0     C58892   8.755   0.519   7.454  0.1144  0.6628 -0.3633
  447MOL0     C58893   8.602   0.514   7.453 -0.3541 -0.1843 -0.2405
  447MOL0     C58894   8.541   0.651   7.419  0.0424  0.0948  0.4299
  447MOL0     C58895   8.395   0.645   7.428  0.0338 -0.0937 -0.1293
  447MOL0     O58896   8.348   0.625   7.564 -0.3046 -0.1752  0.6177
  447MOL0     C58897   8.222   0.577   7.567  0.5744 -0.4833  0.2202
  447MOL0     C58898   8.124   0.646   7.507  0.1404 -0.5572  0.0900
  447MOL0     C58899   7.987   0.604   7.511  0.6496 -0.3949  0.7129
  447MOL0     C58900   7.950   0.484   7.569  1.2261  0.2411 -0.9001
  447MOL0     C58901   7.807   0.444   7.565  0.3454 -0.2725 -0.2470
  447MOL0     O58902   7.766   0.326   7.616  0.0655 -0.3052 -0.0403
  447MOL0     C58903   7.634   0.297   7.600  1.2385  0.1955 -0.6873
  447MOL0     C58904   7.588   0.242   7.478  0.3173 -0.3322 -0.2278
  447MOL0     C58905   7.452   0.220   7.465 -0.2170 -0.1770 -0.4715
  447MOL0     C58906   7.366   0.229   7.581 -0.4452 -0.8507  0.5549
  447MOL0     O58907   7.230   0.204   7.578 -0.0202 -0.0084 -0.3587
  447MOL0     C58908   7.160   0.235   7.452 -0.6967  1.1293  0.2750
  447MOL0     C58909   7.003   0.226   7.454 -0.1729 -0.0011  0.5088
  447MOL0     C58910   6.956   0.085   7.481  0.2286  0.5454  1.0380
  447MOL0     C58911   6.806   0.077   7.516  0.0126  0.7788 -0.6157
  447MOL0     C58912   6.754  -0.071   7.549 -0.0811 -0.4577 -0.4672
  447MOL0     C58913   6.770  -0.176   7.431  0.4708 -0.6918  0.2491
  447MOL0     C58914   6.710  -0.306   7.474  0.6072 -0.6689 -0.1712
  447MOL0     C58915   6.685  -0.386   7.340  0.3328  0.6485  0.1824
  447MOL0    Cl58916   6.630  -0.553   7.386 -0.6345  0.2660  0.7199
  447MOL0     C58917   7.419   0.274   7.701 -0.0959 -0.0204  0.5797
  447MOL0     C58918   7.551   0.306   7.715  0.0190  0.3923 -0.4977
  447MOL0     O58919   7.722   0.535   7.526 -0.3440 -0.1614 -0.0055
  447MOL0     C58920   8.046   0.416   7.630 -0.6434  1.1555 -0.2082
  447MOL0     C58921   8.188   0.453   7.626 -0.3120  0.3711 -0.3297
  447MOL0     N58922   8.764   0.362   7.665  1.0987  0.4209  0.1017
  447MOL0     N58923   8.847   0.290   7.728  0.3374  0.0203 -0.3768
  447MOL0     C58924  10.057   0.332   8.067 -0.6062  0.1414  0.0465
  447MOL0     C58925  10.198   0.353   8.083 -0.2876 -1.0007 -0.5334
  447MOL0     C58926  10.618   0.464   8.112 -0.1066  0.7594 -0.1415
  447MOL0     C58927  10.650   0.482   8.244  0.0289 -0.8396 -0.5526
  447MOL0     C58928  10.779   0.471   8.297 -0.6487 -0.1433 -0.5138
  447MOL0     C58929  10.890   0.454   8.210 -0.4913 -1.0106 -0.0681
  447MOL0     O58930  11.017   0.435   8.273  0.2369  0.3579  0.0886
  447MOL0     C58931  11.129   0.474   8.187  0.7714 -0.6056  0.3640
  447MOL0     C58932  11.188   0.348   8.123  0.6653 -0.4616  0.5595
  447MOL0     C58933  11.331   0.359   8.074  0.1369  0.2026  0.0035
  447MOL0     C58934  11.340   0.440   7.947 -0.0019  0.2798 -0.6395
  447MOL0     C58935  11.257   0.395   7.832  0.1230 -0.2339 -0.3462
  447MOL0     C58936  11.184   0.359   7.743  0.2885 -0.6766  0.3671
  447MOL0     C58937  10.865   0.442   8.077  0.3398  0.9090 -0.3140
  447MOL0     C58938  10.731   0.438   8.030 -0.1899 -0.0884 -0.4247
  447MOL0     H58939  10.163   0.689   8.131 -2.6355  0.4671 -1.9822
  447MOL0     H58940   9.945   0.654   8.075 -0.2432 -0.4592 -1.8196
  447MOL0     H58941   9.800   0.517   7.855  2.8102 -5.3480 -0.3576
  447MOL0     H58942   9.761   0.579   8.014  1.2790  0.2895  1.0463
  447MOL0     H58943   9.561   0.428   8.030 -1.4660  0.3238  0.1681
  447MOL0     H58944   9.625   0.346   7.878  0.0794  0.3817  0.3474
  447MOL0     H58945   9.570   0.556   7.749 -1.6488  1.5770 -0.6027
  447MOL0     H58946   9.538   0.633   7.899  2.3213 -0.3280  0.5522
  447MOL0     H58947   9.335   0.478   7.932 -1.2236 -0.6630  0.4385
  447MOL0     H58948   9.320   0.571   7.787 -0.0367  0.4733 -0.0095
  447MOL0     H58949   9.435   0.274   7.777 -0.4015 -0.9693 -1.5763
  447MOL0     H58950   9.395   0.380   7.639 -1.2121  0.5642 -0.7078
  447MOL0     H58951   9.172   0.413   7.742  3.6075  1.6665  0.1168
  447MOL0     H58952   9.205   0.266   7.848  1.3576 -1.4622 -0.0419
  447MOL0     H58953   9.219   0.266   7.542  0.5536 -0.3912  0.0118
  447MOL0     H58954   9.276   0.140   7.655  2.2725  1.3212  1.2101
  447MOL0     H58955   9.052   0.130   7.759  0.9652 -2.3575 -1.0834
  447MOL0     H58956   9.025   0.100   7.598 -3.2190 -0.1091  2.9250
  447MOL0     H58957   9.029   0.422   7.490  0.4160  0.7435  0.7619
  447MOL0     H58958   8.795   0.518   7.352  0.0373  1.0725 -0.3986
  447MOL0     H58959   8.783   0.620   7.484 -2.4379  1.3758 -0.1170
  447MOL0     H58960   8.569   0.490   7.555 -2.5470 -0.1432 -0.8862
  447MOL0     H58961   8.560   0.440   7.384  0.0202 -0.5772 -0.0535
  447MOL0     H58962   8.580   0.731   7.482 -0.0516 -1.6290  2.8457
  447MOL0     H58963   8.573   0.664   7.316 -0.5697  0.4809  0.2858
  447MOL0     H58964   8.350   0.562   7.372  1.3519  0.1596 -1.6309
  447MOL0     H58965   8.360   0.743   7.395 -1.5427 -0.1342  1.2962
  447MOL0     H58966   8.134   0.744   7.461 -1.7540 -0.3296  0.0982
  447MOL0     H58967   7.912   0.667   7.463  0.4081 -2.0288 -1.2202
  447MOL0     H58968   7.670   0.213   7.413  1.9749  0.6709  1.2978
  447MOL0     H58969   7.407   0.179   7.375 -1.3362  0.0818 -0.0551
  447MOL0     H58970   7.199   0.157   7.386 -2.2345  0.5193  0.0344
  447MOL0     H58971   7.188   0.331   7.407  1.9831 -0.8052 -2.5376
  447MOL0     H58972   6.954   0.261   7.363 -0.3815 -0.1870  0.5465
  447MOL0     H58973   6.971   0.297   7.531  3.5968  1.4930  0.8703
  447MOL0     H58974   7.024   0.067   7.564  2.7928  2.6782 -0.4419
  447MOL0     H58975   6.984   0.018   7.399  1.4372  0.3120  1.6197
  447MOL0     H58976   6.798   0.135   7.609 -0.0113  0.1013 -0.1902
  447MOL0     H58977   6.761   0.129   7.430  1.7389 -2.0837 -3.4600
  447MOL0     H58978   6.647  -0.050   7.564 -0.2590  3.6054 -4.9101
  447MOL0     H58979   6.794  -0.100   7.647  1.8927  1.0651 -0.7708
  447MOL0     H58980   6.876  -0.196   7.416  0.3527 -2.5316  1.5624
  447MOL0     H58981   6.729  -0.137   7.337  3.0783 -1.3133 -1.2349
  447MOL0     H58982   6.778  -0.365   7.536  2.4983 -2.0545 -3.3154
  447MOL0     H58983   6.617  -0.287   7.528  1.9397  3.5181  1.0414
  447MOL0     H58984   6.781  -0.386   7.289 -0.5979 -3.3815 -2.0033
  447MOL0     H58985   6.608  -0.339   7.277  2.1458  1.9671 -1.1626
  447MOL0     H58986   7.351   0.304   7.780  0.7460  3.2286  0.2097
  447MOL0     H58987   7.585   0.349   7.809  1.1501 -0.6488 -0.4099
  447MOL0     H58988   8.033   0.320   7.680 -0.8600 -0.4173 -3.0413
  447MOL0     H58989   8.266   0.399   7.679 -0.6232  1.6823  1.5994
  447MOL0     H58990  10.011   0.234   8.058  1.4445 -0.7146 -2.3825
  447MOL0     H58991  10.271   0.274   8.069 -0.4599 -0.9448 -1.9920
  447MOL0     H58992  10.569   0.490   8.315  1.0828 -0.5185  0.6662
  447MOL0     H58993  10.796   0.477   8.404 -0.1350  2.4102 -0.6844
  447MOL0     H58994  11.212   0.520   8.241 -1.0388  1.1817  1.7637
  447MOL0     H58995  11.102   0.555   8.119  0.6103 -1.2698 -0.3836
  447MOL0     H58996  11.178   0.274   8.204 -1.7285 -0.8724 -0.0377
  447MOL0     H58997  11.124   0.311   8.042 -1.1187 -0.7330  2.0297
  447MOL0     H58998  11.368   0.258   8.052  1.1903  0.4656  0.5044
  447MOL0     H58999  11.398   0.405   8.147 -0.7936  3.0179 -0.7898
  447MOL0     H59000  11.323   0.545   7.974  2.0389 -0.0428  2.4377
  447MOL0     H59001  11.443   0.437   7.911  0.5557  2.5623  0.5903
  447MOL0     H59002  11.103   0.329   7.679 -1.0048  1.0483  1.1144
  447MOL0     H59003  10.953   0.416   8.019  1.2259  1.3567  0.7982
  447MOL0     H59004  10.713   0.429   7.924 -0.8257  0.3637 -0.3641
  448MOL0     O59005   7.819   1.763   7.919  0.2288 -0.1422  0.7243
  448MOL0     C59006   7.870   1.874   7.892  0.0625  0.0950  0.4395
  448MOL0     O59007   7.801   1.993   7.878 -0.0453  0.5358  0.2885
  448MOL0     C59008   7.661   1.997   7.868 -0.0360 -0.2973  0.4423
  448MOL0     C59009   7.588   1.987   7.986  0.4775 -0.3662  0.2659
  448MOL0     C59010   7.451   1.994   7.992 -0.3282 -0.1830 -0.4425
  448MOL0     C59011   7.382   2.008   7.869 -0.6723  1.2640 -0.4090
  448MOL0     O59012   7.246   2.018   7.856 -0.1010  0.2842  0.4645
  448MOL0     C59013   7.155   2.039   7.967 -0.2554  0.7101  0.6301
  448MOL0     C59014   7.015   2.055   7.893 -1.3090 -0.7282 -0.3316
  448MOL0     C59015   6.917   2.100   8.011 -0.1457 -0.0294 -0.8195
  448MOL0     C59016   6.769   2.080   7.967 -0.0393 -0.4920  0.0500
  448MOL0     C59017   6.671   2.151   8.059 -0.5002  0.4986  1.0003
  448MOL0     C59018   6.527   2.155   7.991 -0.4146 -0.3213 -0.3925
  448MOL0     C59019   6.476   2.027   7.931  0.6013  0.9293  0.2571
  448MOL0     C59020   6.426   1.913   8.027  0.4009  0.6172 -0.1139
  448MOL0     N59021   6.326   1.958   8.130 -0.1220 -0.0723 -0.3628
  448MOL0     C59022   6.224   2.039   8.100 -0.1920  0.0111  0.2250
  448MOL0     C59023   6.152   2.040   8.214 -0.5223  0.0874 -0.8517
  448MOL0     C59024   6.026   2.120   8.242  0.7338  0.7377 -0.0316
  448MOL0     C59025   5.908   2.040   8.176 -0.4180 -0.3406  0.8680
  448MOL0     C59026   5.884   1.901   8.224 -0.5563  0.4821 -0.2899
  448MOL0     C59027   5.855   1.904   8.373 -0.3534  0.5033 -0.8765
  448MOL0     O59028   5.835   1.768   8.424 -0.6323  0.2667 -0.2669
  448MOL0     C59029   5.705   1.724   8.438  0.2481  0.7787 -0.0165
  448MOL0     C59030   5.585   1.798   8.460 -0.0243 -0.0808  0.0563
  448MOL0     C59031   5.462   1.729   8.483  0.3057 -0.6848 -0.0106
  448MOL0     C59032   5.458   1.591   8.477 -0.5720 -0.0685  0.5199
  448MOL0     C59033   5.331   1.527   8.490  0.4557  0.9038  1.0628
  448MOL0     O59034   5.313   1.411   8.421  0.5416 -0.2466  0.0702
  448MOL0     C59035   5.203   1.340   8.452 -0.2066  0.5703  0.8629
  448MOL0     C59036   5.219   1.202   8.478 -0.0580  0.0363  0.3041
  448MOL0     C59037   5.112   1.118   8.488  0.0049  0.3735  0.2883
  448MOL0     C59038   4.974   1.164   8.466 -0.7099  0.0386  0.3873
  448MOL0     O59039   4.882   1.071   8.463  0.0984  0.5730 -0.0161
  448MOL0     C59040   4.757   1.119   8.406  0.9042 -1.2046 -0.6288
  448MOL0     C59041   4.665   1.004   8.372  0.1308  0.1709  0.5453
  448MOL0     C59042   4.525   1.051   8.379 -0.0652  0.2282  0.5644
  448MOL0     C59043   4.427   0.950   8.319 -0.4692  0.7355  0.5582
  448MOL0     C59044   4.285   1.006   8.324  0.4669  0.2439 -0.1733
  448MOL0     C59045   4.183   0.901   8.270 -0.5116 -0.6490  0.5242
  448MOL0     C59046   4.038   0.961   8.281 -0.8349 -0.1201 -0.6121
  448MOL0     C59047   3.937   0.863   8.224 -0.0555  0.1607  0.8259
  448MOL0    Cl59048   3.917   0.724   8.319 -0.3306  0.3890 -0.3812
  448MOL0     C59049   4.959   1.306   8.459  0.9492  1.2534 -0.1845
  448MOL0     C59050   5.073   1.385   8.447 -0.1910 -0.0802  0.2595
  448MOL0     O59051   5.248   1.578   8.569  0.1934 -0.3650  0.3185
  448MOL0     C59052   5.571   1.517   8.459 -1.0187  0.2977  0.3800
  448MOL0     C59053   5.692   1.581   8.441  0.1596 -0.8867  0.4394
  448MOL0     N59054   6.215   1.964   8.309 -0.6931  0.1768  0.5002
  448MOL0     N59055   6.327   1.920   8.265 -0.8837 -0.2762 -1.2892
  448MOL0     C59056   7.450   1.999   7.740 -0.1158 -0.2129  0.2795
  448MOL0     C59057   7.589   2.001   7.744  0.2778  0.2938  0.6075
  448MOL0     C59058   8.015   1.872   7.900 -0.7432  0.3962 -0.2737
  448MOL0     C59059   8.086   1.755   7.856 -0.3154  0.6712  0.6612
  448MOL0     C59060   8.219   1.745   7.861 -0.9852 -0.1153 -0.5933
  448MOL0     C59061   8.292   1.864   7.900  0.3833  0.7457 -0.1014
  448MOL0     O59062   8.425   1.862   7.902 -0.6881 -0.8512 -0.7470
  448MOL0     C59063   8.514   1.764   7.855 -0.5809 -0.2970  0.3644
  448MOL0     C59064   8.649   1.844   7.868  0.4471  0.9696  0.3669
  448MOL0     C59065   8.705   1.861   8.016  0.8320  0.1824  0.3444
  448MOL0     C59066   8.838   1.948   8.017 -0.2321  0.4976 -0.6715
  448MOL0     C59067   8.863   1.965   8.163 -0.1879 -0.4592  0.6806
  448MOL0     C59068   8.859   1.978   8.277  0.0444  0.1678  0.1612
  448MOL0     C59069   8.233   1.978   7.935  0.5166 -0.0141  0.5699
  448MOL0     C59070   8.097   1.988   7.931  0.8696  0.8509  0.3241
  448MOL0     H59071   7.633   1.969   8.083  1.1425 -3.0384 -0.4546
  448MOL0     H59072   7.404   2.003   8.089  2.2711 -2.6900  1.1922
  448MOL0     H59073   7.174   2.131   8.024  1.7882  2.0158 -1.9360
  448MOL0     H59074   7.160   1.956   8.038  4.5331  2.5309  2.8228
  448MOL0     H59075   6.981   1.961   7.847 -0.8493 -1.2065  0.2842
  448MOL0     H59076   7.025   2.141   7.827  2.5697  0.1602  1.1475
  448MOL0     H59077   6.933   2.203   8.045 -0.4592 -0.5289  0.9055
  448MOL0     H59078   6.928   2.027   8.092  0.2120 -0.7940 -1.5340
  448MOL0     H59079   6.756   2.127   7.869  2.6702 -1.9615 -1.1472
  448MOL0     H59080   6.734   1.977   7.978 -1.3264  0.1785  3.5277
  448MOL0     H59081   6.705   2.255   8.064 -0.9346  0.7042 -0.0660
  448MOL0     H59082   6.666   2.106   8.158 -0.6335 -3.1956 -0.5144
  448MOL0     H59083   6.523   2.206   7.895 -1.3626 -0.5892 -0.5030
  448MOL0     H59084   6.452   2.200   8.056 -0.5835  1.1523 -1.5701
  448MOL0     H59085   6.394   2.048   7.862  0.8451 -0.8400 -0.6326
  448MOL0     H59086   6.556   1.982   7.872  0.8188  1.6788 -0.0314
  448MOL0     H59087   6.513   1.863   8.070  0.8174  1.5406  0.1228
  448MOL0     H59088   6.372   1.841   7.965 -0.8330  0.2220  1.3566
  448MOL0     H59089   6.206   2.086   8.004 -0.3968 -2.3427 -0.9734
  448MOL0     H59090   6.039   2.222   8.203 -0.4567  1.4141  1.2297
  448MOL0     H59091   6.009   2.130   8.350 -1.1892  2.3669 -0.4223
  448MOL0     H59092   5.922   2.029   8.068  3.2726  0.7155  1.0887
  448MOL0     H59093   5.824   2.107   8.196  0.1292  1.4342 -2.0524
  448MOL0     H59094   5.805   1.851   8.167 -1.4782 -0.0009  1.3293
  448MOL0     H59095   5.969   1.837   8.198 -1.4281 -1.3216  1.0360
  448MOL0     H59096   5.768   1.968   8.383 -0.7715  0.0537 -1.5851
  448MOL0     H59097   5.937   1.932   8.440 -2.6651  0.1123  2.3560
  448MOL0     H59098   5.592   1.906   8.468 -1.8585  0.2506 -1.7789
  448MOL0     H59099   5.377   1.790   8.509  0.7447 -0.2094  0.3268
  448MOL0     H59100   5.318   1.161   8.497  1.2518  2.9080  0.2370
  448MOL0     H59101   5.121   1.010   8.495  3.9834  0.4890 -0.7622
  448MOL0     H59102   4.774   1.185   8.320 -0.6248  0.4916  0.3110
  448MOL0     H59103   4.715   1.174   8.490 -1.4040 -0.3579 -2.2342
  448MOL0     H59104   4.680   0.927   8.448  1.6690 -0.8102 -0.7019
  448MOL0     H59105   4.694   0.961   8.276  1.2025  0.8386  0.5474
  448MOL0     H59106   4.501   1.144   8.327 -1.2740  0.8674  2.1805
  448MOL0     H59107   4.504   1.075   8.484 -2.1754  1.2587 -0.0310
  448MOL0     H59108   4.453   0.917   8.218  0.0243  1.7895  0.3267
  448MOL0     H59109   4.426   0.862   8.384 -2.2457  0.5093  0.2719
  448MOL0     H59110   4.284   1.099   8.267  1.7168  2.0223  2.5025
  448MOL0     H59111   4.259   1.026   8.428  0.2691  0.5543 -0.2834
  448MOL0     H59112   4.194   0.806   8.322  2.0543  0.1106  1.5442
  448MOL0     H59113   4.202   0.882   8.164 -0.8326 -2.2808  0.7409
  448MOL0     H59114   4.011   0.973   8.386 -1.8760 -0.7645 -0.7932
  448MOL0     H59115   4.037   1.056   8.227  0.7365 -0.1829 -0.8046
  448MOL0     H59116   3.967   0.819   8.128  0.2034  0.1832  0.8935
  448MOL0     H59117   3.843   0.913   8.203  0.6488  1.3813  0.4735
  448MOL0     H59118   4.862   1.355   8.461  1.1525  1.6972 -0.9889
  448MOL0     H59119   5.072   1.494   8.448 -1.2907  0.0151 -2.4076
  448MOL0     H59120   5.567   1.409   8.455 -2.5905  0.3299 -3.1239
  448MOL0     H59121   5.783   1.522   8.439  1.5721  1.1982 -0.3836
  448MOL0     H59122   7.407   1.990   7.641  2.0150 -0.5261 -0.6701
  448MOL0     H59123   7.645   1.986   7.653  0.3046 -3.5347  1.0851
  448MOL0     H59124   8.030   1.666   7.829 -1.5779  0.2541  4.1346
  448MOL0     H59125   8.274   1.659   7.822 -1.3566  0.7675 -3.2589
  448MOL0     H59126   8.505   1.711   7.760  1.7358 -4.1217  2.0103
  448MOL0     H59127   8.505   1.691   7.936 -3.5461  2.1817  2.5030
  448MOL0     H59128   8.722   1.797   7.801 -0.1668  0.4069  0.0824
  448MOL0     H59129   8.635   1.946   7.833  1.9144  0.3746 -2.2435
  448MOL0     H59130   8.718   1.765   8.066 -1.2702 -0.4685 -0.2340
  448MOL0     H59131   8.637   1.912   8.085  1.4030  0.1193  0.9669
  448MOL0     H59132   8.925   1.892   7.979 -0.5125 -0.4971  0.0923
  448MOL0     H59133   8.838   2.031   7.946 -0.1187 -0.7922 -2.2475
  448MOL0     H59134   8.857   1.988   8.384 -2.8168  1.0987  0.1248
  448MOL0     H59135   8.285   2.069   7.964  1.6891 -0.1203 -1.0826
  448MOL0     H59136   8.043   2.079   7.954 -0.0317  0.0686  1.4095
  449MOL0     O59137   2.819   4.314   8.980 -0.0755  0.1159  0.4675
  449MOL0     C59138   2.875   4.213   8.934  0.3776  0.5208 -0.1583
  449MOL0     O59139   2.811   4.097   8.893 -0.4724  0.0321 -0.0696
  449MOL0     C59140   2.690   4.068   8.943 -0.0516  0.3309 -0.4185
  449MOL0     C59141   2.668   3.951   9.021 -0.6137 -0.8175 -0.5342
  449MOL0     C59142   2.541   3.916   9.061  0.4772 -0.3638  0.1594
  449MOL0     C59143   2.427   3.994   9.023 -0.3319  0.9761 -0.1973
  449MOL0     O59144   2.303   3.949   9.054  0.0312 -0.3592 -0.0402
  449MOL0     C59145   2.221   3.921   8.937  0.2498  0.5273 -0.1038
  449MOL0     C59146   2.089   3.850   8.978 -0.3172 -0.1849 -0.4241
  449MOL0     C59147   2.004   3.807   8.865 -0.1891  0.5314  0.1267
  449MOL0     C59148   1.865   3.775   8.917 -0.0142 -0.7961 -0.1896
  449MOL0     C59149   1.786   3.737   8.796  0.3957  0.0462 -0.9462
  449MOL0     C59150   1.671   3.661   8.848  0.3769  1.0591  0.7212
  449MOL0     C59151   1.593   3.627   8.718  0.6862 -0.0749  0.2364
  449MOL0     C59152   1.482   3.534   8.764  0.5181 -0.2728 -0.2277
  449MOL0     N59153   1.378   3.608   8.837  0.2074 -0.3679 -0.0361
  449MOL0     C59154   1.272   3.686   8.778 -0.3571  0.1128  0.4692
  449MOL0     C59155   1.203   3.726   8.890 -0.2683  0.9851  0.3214
  449MOL0     C59156   1.088   3.829   8.889  0.3425 -0.3928 -0.6037
  449MOL0     C59157   0.961   3.752   8.841  0.6785 -0.5808  0.5824
  449MOL0     C59158   0.834   3.832   8.834  0.2041  0.3207 -0.3068
  449MOL0     C59159   0.800   3.894   8.975 -0.0315 -0.1877  0.0459
  449MOL0     O59160   0.713   4.012   8.956 -0.1126  0.4140  0.4178
  449MOL0     C59161   0.583   3.999   8.998  0.5360  0.0343 -0.4105
  449MOL0     C59162   0.491   4.093   8.960  0.6817 -0.4933 -0.0777
  449MOL0     C59163   0.350   4.086   8.980 -0.4981 -0.6602  0.1302
  449MOL0     C59164   0.292   3.971   9.045  0.3647 -0.1545  0.4636
  449MOL0     C59165   0.146   3.952   9.076  0.3681  0.5234 -0.1693
  449MOL0     O59166   0.107   3.819   9.097  1.0706 -0.5087  0.0939
  449MOL0     C59167  -0.031   3.783   9.093 -0.1562  0.4439 -0.2722
  449MOL0     C59168  -0.059   3.666   9.021  0.5544  0.6574 -0.3907
  449MOL0     C59169  -0.188   3.612   9.028 -0.4878 -0.0826  0.4395
  449MOL0     C59170  -0.289   3.678   9.108 -1.1505  0.2916 -0.0962
  449MOL0     O59171  -0.419   3.644   9.120 -0.0168  0.4715 -0.8880
  449MOL0     C59172  -0.447   3.508   9.086  0.3481 -0.0864 -0.4821
  449MOL0     C59173  -0.594   3.504   9.060  0.0092  0.6782 -0.2399
  449MOL0     C59174  -0.647   3.368   9.104 -0.6687 -0.5575 -0.8475
  449MOL0     C59175  -0.789   3.350   9.078 -0.1818  0.3281  0.5562
  449MOL0     C59176  -0.849   3.223   9.142  1.1135 -0.1791 -0.1518
  449MOL0     C59177  -0.991   3.207   9.093 -0.6110  0.2651  0.0625
  449MOL0     C59178  -1.039   3.077   9.168 -0.0347  0.3709  0.8801
  449MOL0     C59179  -1.076   3.097   9.319 -0.4506 -0.2431  0.4181
  449MOL0    Cl59180  -1.162   2.945   9.362  0.2305 -0.2951  0.1452
  449MOL0     C59181  -0.256   3.794   9.179 -0.1679  0.5113 -0.7055
  449MOL0     C59182  -0.126   3.842   9.183  1.2146 -0.1267 -0.0807
  449MOL0     O59183   0.071   4.045   9.055  0.6250 -0.2838  0.4322
  449MOL0     C59184   0.382   3.871   9.079 -0.2714  0.7582 -0.7339
  449MOL0     C59185   0.522   3.886   9.055  0.1154  0.0008  0.1469
  449MOL0     N59186   1.267   3.667   9.004  0.6013  0.2493  0.0309
  449MOL0     N59187   1.377   3.614   8.971  0.2789  0.2649 -0.9538
  449MOL0     C59188   2.449   4.106   8.939 -0.8712  0.1410  0.3295
  449MOL0     C59189   2.577   4.145   8.905 -0.6711 -0.1787  0.5954
  449MOL0     C59190   3.022   4.199   8.925  0.3627 -0.6131 -0.1258
  449MOL0     C59191   3.104   4.281   9.000 -0.2754 -0.6571  0.3884
  449MOL0     C59192   3.245   4.286   8.994 -0.1658  0.0434 -0.0907
  449MOL0     C59193   3.306   4.205   8.890 -0.0582 -0.8473  0.7258
  449MOL0     O59194   3.439   4.192   8.853  0.0093 -0.2144 -0.1677
  449MOL0     C59195   3.539   4.227   8.949  0.2852  0.0416 -0.5779
  449MOL0     C59196   3.671   4.141   8.947 -0.5607  0.5504  0.4543
  449MOL0     C59197   3.744   4.164   8.817  0.2198  0.5253  0.2551
  449MOL0     C59198   3.882   4.112   8.841  0.1762  0.7147 -0.0081
  449MOL0     C59199   3.954   4.114   8.718  0.3125 -0.3373  0.0089
  449MOL0     C59200   4.006   4.108   8.608  0.0531  0.3325  0.6517
  449MOL0     C59201   3.227   4.115   8.828 -0.4484 -0.3196  0.5414
  449MOL0     C59202   3.088   4.107   8.840 -0.5067 -0.8400  0.0367
  449MOL0     H59203   2.755   3.896   9.053 -1.1729 -0.4771  1.7232
  449MOL0     H59204   2.531   3.826   9.122  1.3551 -0.0062  0.8423
  449MOL0     H59205   2.264   3.863   8.855 -1.3036  0.2941 -0.8043
  449MOL0     H59206   2.186   4.014   8.890  1.7811 -0.1995 -2.9047
  449MOL0     H59207   2.021   3.917   9.032 -2.0279 -1.1424 -1.2823
  449MOL0     H59208   2.122   3.770   9.045 -0.6491  0.3147  0.3502
  449MOL0     H59209   2.040   3.714   8.819 -0.7782  1.7342 -3.0400
  449MOL0     H59210   2.005   3.875   8.780  0.6854 -1.0859 -1.2137
  449MOL0     H59211   1.879   3.692   8.987  0.6468 -0.1927  0.4148
  449MOL0     H59212   1.822   3.867   8.960 -0.9231 -0.9400 -0.7632
  449MOL0     H59213   1.843   3.668   8.733 -0.2711  0.1326 -1.6634
  449MOL0     H59214   1.751   3.830   8.750  0.6801  1.1582  0.9769
  449MOL0     H59215   1.621   3.719   8.926  0.9344  0.2955  1.6880
  449MOL0     H59216   1.715   3.574   8.899  0.3061 -0.5251 -1.7481
  449MOL0     H59217   1.562   3.716   8.661  0.2787  0.9272  1.9621
  449MOL0     H59218   1.651   3.562   8.651  0.8987 -2.0551  2.2496
  449MOL0     H59219   1.522   3.460   8.834  1.3141  0.3367 -0.0229
  449MOL0     H59220   1.448   3.489   8.670  4.2622 -0.7838 -1.5278
  449MOL0     H59221   1.254   3.708   8.673 -0.4161  2.6208  0.9401
  449MOL0     H59222   1.119   3.910   8.822 -1.9092  1.7717  0.7903
  449MOL0     H59223   1.076   3.864   8.992  1.2211 -0.4597 -0.4720
  449MOL0     H59224   0.950   3.661   8.900  2.4462 -2.1599 -1.3262
  449MOL0     H59225   0.987   3.716   8.740  0.6436  0.6806  0.1096
  449MOL0     H59226   0.835   3.897   8.746  1.4384  0.2533 -0.3592
  449MOL0     H59227   0.746   3.770   8.816  0.0128  1.2209 -2.7470
  449MOL0     H59228   0.880   3.928   9.042 -0.3829  0.4784  0.1426
  449MOL0     H59229   0.762   3.801   9.018 -0.9700 -0.1914 -0.7525
  449MOL0     H59230   0.523   4.171   8.892  0.3361  1.6253  2.0567
  449MOL0     H59231   0.289   4.168   8.942  1.3328  0.0028 -1.5406
  449MOL0     H59232   0.009   3.607   8.960  0.5989  1.4392 -1.1150
  449MOL0     H59233  -0.204   3.524   8.968  0.6172 -0.8245  1.1932
  449MOL0     H59234  -0.418   3.441   9.167  0.9087 -1.2882 -1.6462
  449MOL0     H59235  -0.399   3.464   8.999  1.7539  0.2901  0.0871
  449MOL0     H59236  -0.627   3.526   8.958  0.4873 -1.0270 -0.8014
  449MOL0     H59237  -0.647   3.567   9.131 -1.2414 -0.9992  0.4003
  449MOL0     H59238  -0.632   3.344   9.210  1.3662  0.3414 -0.8863
  449MOL0     H59239  -0.602   3.282   9.053 -2.3355 -2.1073  0.1731
  449MOL0     H59240  -0.845   3.441   9.102  0.0684  0.0622  2.2485
  449MOL0     H59241  -0.818   3.348   8.973 -0.9644  0.5709  0.7581
  449MOL0     H59242  -0.854   3.255   9.246 -3.8513  1.2449 -0.5294
  449MOL0     H59243  -0.790   3.132   9.128  1.9715  0.3730 -0.2196
  449MOL0     H59244  -0.997   3.180   8.987 -2.6721  1.4387 -0.1749
  449MOL0     H59245  -1.055   3.292   9.114 -1.2706 -0.9049  3.3940
  449MOL0     H59246  -1.127   3.040   9.117 -0.1912 -0.3648  1.6667
  449MOL0     H59247  -0.965   2.998   9.151 -1.1967 -0.0350 -3.1051
  449MOL0     H59248  -1.133   3.190   9.331  0.7200  0.5267  0.1488
  449MOL0     H59249  -0.983   3.107   9.376  1.0640 -3.5282 -1.2138
  449MOL0     H59250  -0.331   3.845   9.239 -1.3583 -0.1379 -1.6054
  449MOL0     H59251  -0.115   3.933   9.241 -0.4694  0.0978 -0.0609
  449MOL0     H59252   0.344   3.785   9.132 -1.3593  2.4574  1.4055
  449MOL0     H59253   0.575   3.799   9.092  1.8315 -0.4202 -2.9770
  449MOL0     H59254   2.367   4.159   8.892  0.6120  3.8475  1.5948
  449MOL0     H59255   2.595   4.231   8.841 -0.0469 -2.0207 -1.8032
  449MOL0     H59256   3.063   4.354   9.069 -0.3098  0.8027 -1.1086
  449MOL0     H59257   3.303   4.357   9.053 -0.6503  0.9727 -0.7154
  449MOL0     H59258   3.488   4.216   9.045  2.8859 -2.9678  0.6416
  449MOL0     H59259   3.571   4.330   8.933  0.3818 -0.2161 -2.3086
  449MOL0     H59260   3.732   4.170   9.033 -0.3508  2.2251 -0.2288
  449MOL0     H59261   3.653   4.033   8.957 -2.9210  0.9621  1.2463
  449MOL0     H59262   3.724   4.272   8.814 -0.5177  0.4149  0.8354
  449MOL0     H59263   3.687   4.107   8.742 -0.5703  0.9261  0.5344
  449MOL0     H59264   3.935   4.167   8.919 -0.1470  1.2554 -0.1611
  449MOL0     H59265   3.875   4.007   8.869 -0.8446  0.5399 -0.8144
  449MOL0     H59266   4.054   4.086   8.515 -0.3947 -2.7464  1.0408
  449MOL0     H59267   3.267   4.053   8.748 -3.1797 -1.7184  0.1538
  449MOL0     H59268   3.026   4.037   8.784  0.8279  0.3892 -3.2487
  450MOL0     O59269   0.961   0.764  10.870 -0.2465 -0.4113  0.3472
  450MOL0     C59270   0.893   0.751  10.968  0.3279  0.4558 -0.7612
  450MOL0     O59271   0.786   0.819  10.992  1.5736 -0.4081 -0.0839
  450MOL0     C59272   0.747   0.941  10.953 -0.3064 -0.7651 -1.4046
  450MOL0     C59273   0.819   1.030  10.874 -0.1015  0.2377 -0.1334
  450MOL0     C59274   0.766   1.147  10.825 -0.3269  0.3146 -0.5166
  450MOL0     C59275   0.635   1.171  10.859  1.0024  0.3466  0.5978
  450MOL0     O59276   0.566   1.280  10.796  0.7025  0.0644 -0.5797
  450MOL0     C59277   0.463   1.351  10.864 -0.4446  0.7910 -0.1969
  450MOL0     C59278   0.400   1.462  10.784  0.2878 -0.5826  0.0178
  450MOL0     C59279   0.277   1.423  10.688 -1.1247  0.9997 -0.1296
  450MOL0     C59280   0.157   1.515  10.721 -0.0679  0.0584 -0.0388
  450MOL0     C59281   0.059   1.476  10.610  0.8712  0.3679  1.2771
  450MOL0     C59282  -0.052   1.582  10.601  0.2570 -0.3380 -0.6004
  450MOL0     C59283  -0.156   1.543  10.491 -0.0169 -0.9328  0.2330
  450MOL0     C59284  -0.284   1.623  10.504  0.2008  0.2544  0.7821
  450MOL0     N59285  -0.362   1.605  10.378  0.1285 -0.0804 -0.0509
  450MOL0     C59286  -0.374   1.490  10.309 -0.7447  0.1368  0.2098
  450MOL0     C59287  -0.470   1.514  10.224  0.7914 -0.3036  0.9933
  450MOL0     C59288  -0.521   1.422  10.116 -0.1269 -0.6871 -0.2453
  450MOL0     C59289  -0.430   1.392  10.004 -0.2228  0.5317 -0.6327
  450MOL0     C59290  -0.411   1.492   9.901  0.0156  0.7047  0.9451
  450MOL0     C59291  -0.322   1.435   9.788 -0.4819 -0.8135  1.1151
  450MOL0     O59292  -0.307   1.528   9.682 -0.4015 -0.2241 -0.2325
  450MOL0     C59293  -0.181   1.583   9.671 -0.5986  0.3032 -0.2679
  450MOL0     C59294  -0.111   1.628   9.781 -0.5826 -0.6973  0.0422
  450MOL0     C59295   0.006   1.717   9.773  0.8541 -0.2453  0.2787
  450MOL0     C59296   0.072   1.734   9.651  0.9922  0.3050  0.4427
  450MOL0     C59297   0.213   1.788   9.634  0.2960 -0.3920  0.2369
  450MOL0     O59298   0.238   1.853   9.515 -0.6970 -0.5944 -0.5418
  450MOL0     C59299   0.359   1.917   9.512  0.4786 -0.7845  0.4058
  450MOL0     C59300   0.476   1.844   9.469  0.3106  0.3844  0.2049
  450MOL0     C59301   0.596   1.910   9.443 -0.4318  0.0328  0.0208
  450MOL0     C59302   0.608   2.050   9.480  0.8623 -0.2774 -0.6698
  450MOL0     O59303   0.731   2.104   9.474 -0.7953  0.4216  0.4186
  450MOL0     C59304   0.742   2.237   9.436  0.0167  0.5000  0.5771
  450MOL0     C59305   0.869   2.255   9.361  0.6756  0.6370 -0.6120
  450MOL0     C59306   0.894   2.406   9.337 -0.6884  0.7719  0.1511
  450MOL0     C59307   1.042   2.429   9.304  0.6167 -0.3336  0.1505
  450MOL0     C59308   1.066   2.578   9.287  0.3371 -0.9017  0.1564
  450MOL0     C59309   1.208   2.618   9.340  0.2397  0.3964  0.0172
  450MOL0     C59310   1.314   2.553   9.248  0.4440 -0.0693  0.2499
  450MOL0     C59311   1.453   2.597   9.292  0.2183 -0.4236 -0.0094
  450MOL0    Cl59312   1.583   2.531   9.174  0.2142 -0.7525  0.3373
  450MOL0     C59313   0.490   2.120   9.523 -0.1009 -1.1072  0.2550
  450MOL0     C59314   0.363   2.056   9.532  0.1368 -0.9754  0.3359
  450MOL0     O59315   0.283   1.790   9.738 -0.1685 -0.1373  0.1536
  450MOL0     C59316  -0.010   1.689   9.537 -0.2873 -0.5090  0.1641
  450MOL0     C59317  -0.132   1.614   9.554 -0.9103  0.6063  0.4179
  450MOL0     N59318  -0.525   1.633  10.243  0.8521  1.0535 -0.3337
  450MOL0     N59319  -0.458   1.695  10.335  0.1967 -0.4266 -0.4514
  450MOL0     C59320   0.563   1.087  10.946 -0.2175  0.0646  0.5020
  450MOL0     C59321   0.616   0.966  10.990  0.4817 -0.5416 -0.2526
  450MOL0     C59322   0.919   0.639  11.063  0.4662  0.0630 -0.9216
  450MOL0     C59323   1.054   0.581  11.068 -0.3497 -0.1599  0.3019
  450MOL0     C59324   1.089   0.500  11.175 -0.4561  0.2040 -0.1861
  450MOL0     C59325   1.004   0.475  11.286 -0.0261 -1.3114 -0.4942
  450MOL0     O59326   1.051   0.398  11.394  0.1909 -0.2272 -0.1772
  450MOL0     C59327   1.147   0.291  11.387  0.5484 -0.7481  0.0217
  450MOL0     C59328   1.123   0.187  11.262  0.0185  0.1025 -0.0339
  450MOL0     C59329   1.251   0.100  11.219  0.7468  0.3771 -0.2879
  450MOL0     C59330   1.259   0.074  11.070 -0.0623  0.8330  0.0861
  450MOL0     C59331   1.266   0.194  10.986 -0.7219 -0.8352  0.7832
  450MOL0     C59332   1.261   0.284  10.903 -0.3938  0.2161 -0.4821
  450MOL0     C59333   0.875   0.516  11.275 -0.4059 -0.5331  0.2545
  450MOL0     C59334   0.837   0.603  11.171  0.2143 -0.7252 -0.0090
  450MOL0     H59335   0.919   1.006  10.841 -0.7903 -0.7554 -1.6391
  450MOL0     H59336   0.808   1.222  10.757 -0.5252 -0.8608 -1.9978
  450MOL0     H59337   0.514   1.399  10.947  3.8939  1.6099 -3.0163
  450MOL0     H59338   0.385   1.285  10.902 -0.0838 -0.9122 -2.2005
  450MOL0     H59339   0.475   1.504  10.717  0.6253 -3.3676 -1.5246
  450MOL0     H59340   0.362   1.539  10.852  0.9770 -0.4639  0.2693
  450MOL0     H59341   0.256   1.316  10.698  1.9084  0.0962 -2.1588
  450MOL0     H59342   0.304   1.435  10.583  0.6715  0.4711  0.2434
  450MOL0     H59343   0.115   1.502  10.821  1.1185 -4.3181  0.0614
  450MOL0     H59344   0.184   1.621  10.716 -2.9098  1.2078  3.7818
  450MOL0     H59345   0.022   1.379  10.645  2.4001 -0.9319 -0.5451
  450MOL0     H59346   0.122   1.470  10.522 -0.3953  0.9237  0.3008
  450MOL0     H59347  -0.007   1.680  10.582 -4.0650  1.8052 -1.0213
  450MOL0     H59348  -0.095   1.587  10.701  2.6079  1.6247  0.4361
  450MOL0     H59349  -0.106   1.555  10.395 -0.1767 -3.7743 -0.3135
  450MOL0     H59350  -0.171   1.435  10.500  5.0566 -1.8696  0.2576
  450MOL0     H59351  -0.267   1.730  10.516 -2.7810  1.0259 -0.7034
  450MOL0     H59352  -0.339   1.600  10.596  0.9525  0.4713  1.2945
  450MOL0     H59353  -0.309   1.403  10.307  1.7761  1.9066  0.3066
  450MOL0     H59354  -0.609   1.472  10.074  0.2967 -0.4499 -0.8777
  450MOL0     H59355  -0.565   1.336  10.167  1.3323  0.0095  2.3745
  450MOL0     H59356  -0.466   1.300   9.959 -2.1632  1.5543 -1.2854
  450MOL0     H59357  -0.333   1.378  10.053 -0.5139 -1.9000 -0.6330
  450MOL0     H59358  -0.514   1.502   9.864  0.4845  1.1235 -0.2945
  450MOL0     H59359  -0.370   1.585   9.940  1.2232  0.2446  0.8207
  450MOL0     H59360  -0.382   1.360   9.736 -2.2793  2.1312 -1.4081
  450MOL0     H59361  -0.233   1.381   9.818  1.0429  0.4852 -0.8044
  450MOL0     H59362  -0.153   1.614   9.880  1.5826 -0.8619  1.0075
  450MOL0     H59363   0.036   1.757   9.869  0.4481  0.4695  0.1177
  450MOL0     H59364   0.444   1.742   9.454 -4.2024  0.9724  3.6502
  450MOL0     H59365   0.680   1.848   9.414 -0.7478 -0.4512  0.1300
  450MOL0     H59366   0.736   2.288   9.532 -1.6626 -0.7821  1.2052
  450MOL0     H59367   0.660   2.261   9.368  0.9059 -3.0681 -2.0752
  450MOL0     H59368   0.864   2.200   9.266 -2.5294  0.9738 -0.7359
  450MOL0     H59369   0.950   2.207   9.416  1.7024  2.5944 -0.3271
  450MOL0     H59370   0.867   2.464   9.425  3.1606  2.0823  0.6566
  450MOL0     H59371   0.837   2.444   9.252 -0.6032 -0.8521 -0.6772
  450MOL0     H59372   1.100   2.388   9.388  0.5736 -3.1944 -1.0832
  450MOL0     H59373   1.063   2.365   9.218 -0.0784 -2.0232  1.1588
  450MOL0     H59374   0.997   2.644   9.341 -0.3892 -1.0457 -0.5705
  450MOL0     H59375   1.063   2.600   9.180  2.0238 -0.0499  0.2481
  450MOL0     H59376   1.224   2.581   9.442  1.8205  1.9551  0.3705
  450MOL0     H59377   1.217   2.727   9.339 -0.1420  0.4653  1.2982
  450MOL0     H59378   1.311   2.444   9.260  0.1347 -0.0491  0.3688
  450MOL0     H59379   1.289   2.583   9.146  0.1771  2.6155  1.0372
  450MOL0     H59380   1.471   2.560   9.393  3.4525 -0.2395 -0.3977
  450MOL0     H59381   1.453   2.706   9.298 -1.5418 -0.3946  0.0285
  450MOL0     H59382   0.492   2.227   9.536  1.1868 -0.9120 -1.2934
  450MOL0     H59383   0.286   2.128   9.556  0.0891 -0.7382 -0.4979
  450MOL0     H59384   0.033   1.698   9.438  0.2995 -1.2400  0.3423
  450MOL0     H59385  -0.194   1.591   9.468 -1.2462  0.4162  0.7101
  450MOL0     H59386   0.461   1.113  10.971 -1.3994 -1.9981 -1.8174
  450MOL0     H59387   0.560   0.903  11.058 -1.9053  1.5064 -0.1850
  450MOL0     H59388   1.124   0.594  10.986  2.1133  0.2662  2.3340
  450MOL0     H59389   1.192   0.465  11.169 -0.3508  0.0920  1.7715
  450MOL0     H59390   1.159   0.242  11.484  2.2817 -0.1679  0.1226
  450MOL0     H59391   1.239   0.346  11.367 -0.7519  1.4030 -0.2970
  450MOL0     H59392   1.042   0.118  11.284  2.3478 -1.9981  2.7379
  450MOL0     H59393   1.096   0.243  11.171  5.2431  1.6194 -0.9937
  450MOL0     H59394   1.244   0.008  11.278  1.2955  2.3846  3.1829
  450MOL0     H59395   1.344   0.147  11.252  1.4675 -0.4500 -1.0974
  450MOL0     H59396   1.351   0.018  11.049  0.0322  0.4737  1.3822
  450MOL0     H59397   1.178   0.008  11.038  0.7470 -0.5239  0.7048
  450MOL0     H59398   1.243   0.364  10.834 -2.5163 -0.3693 -0.6708
  450MOL0     H59399   0.800   0.507  11.354 -0.3365 -1.0746  0.2583
  450MOL0     H59400   0.734   0.639  11.168  0.4342 -0.0582  0.3066
  451MOL0     O59401   6.877  10.471   3.436 -0.3689  0.2205  0.2850
  451MOL0     C59402   6.805  10.387   3.389  0.0909  0.9853  0.2177
  451MOL0     O59403   6.846  10.279   3.319  0.7822 -0.0001 -0.5724
  451MOL0     C59404   6.980  10.259   3.290 -0.1138 -0.2854  0.7454
  451MOL0     C59405   7.014  10.129   3.257 -0.0442  0.2752 -0.1607
  451MOL0     C59406   7.132  10.093   3.203  0.0967  0.2639 -0.0953
  451MOL0     C59407   7.236  10.188   3.189 -0.6303  0.2901 -0.2327
  451MOL0     O59408   7.359  10.141   3.133  0.0261  1.2927  0.0469
  451MOL0     C59409   7.471  10.225   3.157  0.1185 -0.2596  0.1560
  451MOL0     C59410   7.598  10.139   3.170  0.4719 -0.5670  0.0466
  451MOL0     C59411   7.719  10.239   3.186  0.1672  1.1415  0.2022
  451MOL0     C59412   7.842  10.156   3.209 -0.0152 -0.3837  0.8077
  451MOL0     C59413   7.962  10.229   3.276 -0.3160  0.0272 -0.1598
  451MOL0     C59414   8.057  10.120   3.323 -0.2938 -0.0270 -0.8386
  451MOL0     C59415   8.177  10.192   3.396  0.1844  1.0667 -0.7944
  451MOL0     C59416   8.172  10.157   3.545  0.5987  0.0716  1.0712
  451MOL0     N59417   8.042  10.206   3.598 -0.3916  0.5543 -0.7272
  451MOL0     C59418   7.929  10.132   3.618  0.1317 -0.9689  0.3902
  451MOL0     C59419   7.836  10.225   3.658 -0.5032  0.1068  0.2848
  451MOL0     C59420   7.697  10.182   3.687  0.6425  0.1790  0.4697
  451MOL0     C59421   7.616  10.175   3.545 -0.1647  0.2059  0.7543
  451MOL0     C59422   7.476  10.152   3.562  0.8407  0.0348  0.0264
  451MOL0     C59423   7.371  10.262   3.582 -0.2808 -0.3555 -1.0517
  451MOL0     O59424   7.365  10.322   3.713  0.4066 -0.8340 -0.7507
  451MOL0     C59425   7.250  10.393   3.761  0.2377  0.2488  0.2755
  451MOL0     C59426   7.140  10.417   3.685 -0.2427  0.0077  0.0875
  451MOL0     C59427   7.030  10.491   3.726 -1.4223  0.3687  0.0564
  451MOL0     C59428   7.029  10.528   3.857  0.8233 -0.1936 -0.1099
  451MOL0     C59429   6.904  10.586   3.908 -0.2700 -0.7347 -0.6306
  451MOL0     O59430   6.827  10.657   3.823 -0.1767  0.2269  0.4056
  451MOL0     C59431   6.694  10.693   3.849  0.8639  0.9408  0.0619
  451MOL0     C59432   6.641  10.790   3.769 -1.1438 -0.4016  0.4250
  451MOL0     C59433   6.507  10.825   3.765 -0.2578 -0.4954 -0.3410
  451MOL0     C59434   6.415  10.747   3.852 -0.1240  0.2751 -0.1315
  451MOL0     O59435   6.279  10.777   3.838 -0.1431  0.4079  0.5033
  451MOL0     C59436   6.192  10.729   3.941  0.0049 -0.4971  0.3043
  451MOL0     C59437   6.078  10.834   3.956 -0.1811  0.4659 -0.1567
  451MOL0     C59438   5.962  10.763   4.019  0.3515  0.5512  0.1194
  451MOL0     C59439   5.843  10.862   4.014 -0.2969 -0.3181 -0.0181
  451MOL0     C59440   5.708  10.801   4.071 -0.4015 -0.4521 -0.5698
  451MOL0     C59441   5.585  10.848   3.979 -0.3004 -0.4201  0.6018
  451MOL0     C59442   5.545  10.996   3.993 -0.3014  0.1374 -0.7749
  451MOL0     C59443   5.541  11.066   3.858  0.2515 -0.2062 -0.0743
  451MOL0    Cl59444   5.395  11.008   3.775 -0.1839 -0.3396 -0.0306
  451MOL0     C59445   6.470  10.654   3.936  0.4347  0.0902 -0.0579
  451MOL0     C59446   6.610  10.625   3.941  0.4040  0.4467  0.4293
  451MOL0     O59447   6.876  10.565   4.027  0.0065 -0.7201  0.7626
  451MOL0     C59448   7.137  10.503   3.938 -0.0671 -0.6745  0.3205
  451MOL0     C59449   7.257  10.438   3.888  0.6226 -0.4385  0.3395
  451MOL0     N59450   7.896  10.345   3.667 -0.0481  1.2765  0.2705
  451MOL0     N59451   8.013  10.335   3.625 -0.7861 -0.5129  0.0114
  451MOL0     C59452   7.211  10.321   3.232  0.1426 -0.0958  0.5693
  451MOL0     C59453   7.084  10.355   3.276  0.2571 -0.1276  1.0352
  451MOL0     C59454   6.669  10.394   3.428  0.8888 -0.0376 -0.7568
  451MOL0     C59455   6.578  10.295   3.379  1.0643 -0.1122 -0.1634
  451MOL0     C59456   6.442  10.293   3.420 -0.2858 -0.2407 -1.0882
  451MOL0     C59457   6.393  10.383   3.509  0.1662 -0.5606 -0.0179
  451MOL0     O59458   6.256  10.373   3.544 -0.3841  0.5866 -0.0534
  451MOL0     C59459   6.197  10.486   3.611  0.6738  0.3687  0.0894
  451MOL0     C59460   6.191  10.609   3.522 -0.2512 -0.3193 -1.4314
  451MOL0     C59461   6.153  10.563   3.376  0.8603  0.2393  0.0512
  451MOL0     C59462   6.104  10.681   3.296  0.2059 -0.0836  0.9594
  451MOL0     C59463   6.218  10.773   3.284  0.9264  0.7194 -0.5092
  451MOL0     C59464   6.320  10.839   3.281  0.3031  0.4896 -0.1793
  451MOL0     C59465   6.483  10.471   3.567  0.0528  0.2281 -0.2645
  451MOL0     C59466   6.614  10.475   3.525  0.1824 -0.1289  0.3483
  451MOL0     H59467   6.932  10.057   3.259  0.0985  0.1362  1.0949
  451MOL0     H59468   7.138   9.985   3.200 -0.2889  0.2396 -0.0220
  451MOL0     H59469   7.477  10.284   3.249 -0.6953  0.8776 -0.5117
  451MOL0     H59470   7.480  10.295   3.074 -2.4209  0.1003  0.1202
  451MOL0     H59471   7.611  10.086   3.075 -2.1050  0.0229 -0.6956
  451MOL0     H59472   7.583  10.073   3.256 -1.2291  2.2219  2.0525
  451MOL0     H59473   7.699  10.303   3.273  2.8421  1.6746  0.4947
  451MOL0     H59474   7.721  10.290   3.089 -0.1968 -0.4824 -0.6832
  451MOL0     H59475   7.809  10.074   3.273 -2.9191  0.3751  0.4230
  451MOL0     H59476   7.872  10.110   3.115  1.8197  4.7807 -1.5359
  451MOL0     H59477   7.925  10.293   3.356  2.1868  2.7487 -1.0197
  451MOL0     H59478   8.016  10.289   3.203  0.2991  0.1564  0.3969
  451MOL0     H59479   8.088  10.078   3.226  1.8770  0.8670 -0.5863
  451MOL0     H59480   8.018  10.044   3.391  1.1576  1.6067  1.9542
  451MOL0     H59481   8.275  10.154   3.363  0.5203  2.1793 -1.1208
  451MOL0     H59482   8.181  10.301   3.384  1.6614  1.1699  0.3294
  451MOL0     H59483   8.256  10.212   3.589  1.1789  1.0073 -1.0700
  451MOL0     H59484   8.176  10.048   3.554 -0.6392 -0.0532  0.2694
  451MOL0     H59485   7.912  10.026   3.604  0.2151 -1.0982  1.1969
  451MOL0     H59486   7.643  10.260   3.741 -0.8144  0.5821 -1.4595
  451MOL0     H59487   7.694  10.085   3.738 -1.1951  1.0076  2.0259
  451MOL0     H59488   7.650  10.090   3.485 -0.4817  0.5473  0.0773
  451MOL0     H59489   7.640  10.262   3.482 -0.1979 -0.4903 -0.2323
  451MOL0     H59490   7.458  10.092   3.473  0.1643 -0.1537  0.2849
  451MOL0     H59491   7.461  10.084   3.647 -0.3146  1.6058  1.1282
  451MOL0     H59492   7.276  10.218   3.550 -0.7426 -0.2992  0.1702
  451MOL0     H59493   7.393  10.342   3.510  1.8450  0.2582  0.1866
  451MOL0     H59494   7.135  10.358   3.594  1.9581 -0.6266  0.3077
  451MOL0     H59495   6.948  10.504   3.657 -0.9515 -1.4960 -0.9207
  451MOL0     H59496   6.702  10.848   3.701 -1.0272  0.9747  1.6583
  451MOL0     H59497   6.471  10.897   3.692  0.7791 -0.0507 -0.4256
  451MOL0     H59498   6.245  10.717   4.036 -0.4778  1.1641  0.8039
  451MOL0     H59499   6.144  10.636   3.908 -2.1876 -1.0107  4.3338
  451MOL0     H59500   6.061  10.868   3.853 -2.0382 -0.5038 -0.2088
  451MOL0     H59501   6.118  10.912   4.021 -2.5447  1.8464 -0.2532
  451MOL0     H59502   6.001  10.741   4.119 -0.5324  0.2669  0.4101
  451MOL0     H59503   5.939  10.670   3.967 -0.8085  0.9426 -0.0853
  451MOL0     H59504   5.872  10.956   4.062  2.3557 -1.7845  1.4701
  451MOL0     H59505   5.834  10.894   3.910  1.1902  0.3053  0.0209
  451MOL0     H59506   5.690  10.833   4.174 -2.6051 -2.3480 -0.2820
  451MOL0     H59507   5.715  10.692   4.072  2.4495 -0.3729 -2.1135
  451MOL0     H59508   5.497  10.793   4.013 -0.8391  1.0076  1.6108
  451MOL0     H59509   5.609  10.823   3.875  1.1459  0.4251  0.7131
  451MOL0     H59510   5.452  11.018   4.046  0.6816  3.3908 -0.1910
  451MOL0     H59511   5.625  11.054   4.040 -0.4081 -0.0604 -0.3493
  451MOL0     H59512   5.623  11.041   3.790 -0.9548 -2.2513 -0.8874
  451MOL0     H59513   5.538  11.174   3.875  2.4476  0.1045 -1.2991
  451MOL0     H59514   6.400  10.607   4.005 -0.7426  2.4632  0.4600
  451MOL0     H59515   6.642  10.551   4.014 -0.0727 -0.9778 -0.7649
  451MOL0     H59516   7.137  10.534   4.042 -0.6622  0.9504 -0.1259
  451MOL0     H59517   7.334  10.416   3.962  0.2599  0.9405  1.1607
  451MOL0     H59518   7.281  10.398   3.201 -0.9699  0.6702 -0.1223
  451MOL0     H59519   7.063  10.461   3.288  1.9816  0.6797 -1.9576
  451MOL0     H59520   6.605  10.223   3.303  0.0888 -0.2917 -0.3582
  451MOL0     H59521   6.372  10.229   3.367  0.0204 -2.2882  0.8185
  451MOL0     H59522   6.238  10.497   3.712 -0.1405 -2.9540  0.9226
  451MOL0     H59523   6.089  10.471   3.626  0.3601  0.5514 -1.7171
  451MOL0     H59524   6.112  10.674   3.560 -0.8959 -2.1816  0.6108
  451MOL0     H59525   6.289  10.658   3.523 -1.0721  1.4014 -2.1553
  451MOL0     H59526   6.074  10.488   3.379 -1.3825  2.4768 -0.3957
  451MOL0     H59527   6.240  10.512   3.332  0.7924 -2.9515  3.1355
  451MOL0     H59528   6.077  10.626   3.205 -0.5750 -2.5024  2.5534
  451MOL0     H59529   6.012  10.729   3.333 -1.0232  1.2134 -3.2514
  451MOL0     H59530   6.416  10.887   3.278  1.4303 -1.3928  2.0777
  451MOL0     H59531   6.464  10.528   3.657 -0.6441  0.7736 -0.7572
  451MOL0     H59532   6.680  10.538   3.585  2.5143 -1.1001 -1.0357
  452MOL0     O59533  10.360  10.032   4.701  0.0500  0.5383 -0.4328
  452MOL0     C59534  10.424  10.005   4.803 -1.0363  0.5743 -0.5207
  452MOL0     O59535  10.374   9.939   4.919  0.5196 -0.1779  0.5355
  452MOL0     C59536  10.243   9.918   4.943 -1.1219 -0.4806 -0.0239
  452MOL0     C59537  10.148  10.025   4.936  0.0398 -0.3444 -0.5476
  452MOL0     C59538  10.017  10.010   4.968  0.4658 -0.1428 -0.3592
  452MOL0     C59539   9.967   9.893   5.018  0.6372  0.0909  0.9155
  452MOL0     O59540   9.840   9.877   5.062  0.0913  0.6467  0.1777
  452MOL0     C59541   9.733   9.968   5.042 -0.0060 -0.6225 -0.5281
  452MOL0     C59542   9.612   9.884   5.041 -0.5436  0.4537  0.4579
  452MOL0     C59543   9.484   9.954   5.079 -0.4498  0.0378 -0.1656
  452MOL0     C59544   9.360   9.895   5.008 -0.1285  0.4703 -0.2655
  452MOL0     C59545   9.229   9.970   5.053 -0.2736 -0.1508  0.4813
  452MOL0     C59546   9.101   9.893   5.027 -0.6593 -0.4877  0.2366
  452MOL0     C59547   9.079   9.860   4.884 -0.0354 -0.0111 -0.0932
  452MOL0     C59548   8.939   9.801   4.876 -0.7241  0.4162  0.4280
  452MOL0     N59549   8.915   9.769   4.739  0.3801 -1.0306  0.2928
  452MOL0     C59550   8.850   9.843   4.628  0.1400  1.2794  0.1550
  452MOL0     C59551   8.877   9.774   4.518  0.0672  0.5986  0.4435
  452MOL0     C59552   8.837   9.834   4.387  0.2907  0.9878  0.0535
  452MOL0     C59553   8.712   9.754   4.337  0.4642  0.8634 -0.6555
  452MOL0     C59554   8.675   9.802   4.199  0.6710 -0.0843 -0.5328
  452MOL0     C59555   8.548   9.742   4.148  0.0722 -0.0193  0.6797
  452MOL0     O59556   8.495   9.815   4.036  0.5077  0.1435  0.2448
  452MOL0     C59557   8.368   9.806   3.993  0.5169 -0.3250  0.6481
  452MOL0     C59558   8.349   9.823   3.855  0.4085  1.1697 -0.5045
  452MOL0     C59559   8.217   9.796   3.801  0.4525  0.8437  0.3148
  452MOL0     C59560   8.107   9.790   3.895 -0.1683  0.2283  0.2939
  452MOL0     C59561   7.968   9.806   3.850 -0.3946 -0.6911  0.1536
  452MOL0     O59562   7.857   9.791   3.934  0.6897  0.0507  0.2005
  452MOL0     C59563   7.732   9.808   3.875  0.3804 -0.4624 -0.0849
  452MOL0     C59564   7.637   9.892   3.930  0.3180  0.6892  0.0939
  452MOL0     C59565   7.504   9.892   3.885  0.3775  0.7550  0.3735
  452MOL0     C59566   7.478   9.824   3.770  0.1997 -0.6853  0.2176
  452MOL0     O59567   7.357   9.847   3.717  0.6592  0.8058  0.4656
  452MOL0     C59568   7.281   9.735   3.655  0.5052 -0.3786 -0.5415
  452MOL0     C59569   7.177   9.773   3.562  0.2928  0.1443 -0.0406
  452MOL0     C59570   7.125   9.917   3.582 -0.5071  0.5506  0.8797
  452MOL0     C59571   7.058   9.959   3.720 -0.1504 -0.3271  0.5497
  452MOL0     C59572   6.948  10.070   3.695  0.3985 -0.9080 -0.4755
  452MOL0     C59573   6.898  10.115   3.826  0.7948  0.2386 -0.5910
  452MOL0     C59574   6.787  10.213   3.816  0.2276 -0.0235 -0.2339
  452MOL0     C59575   6.644  10.162   3.776 -0.7847 -0.0143 -0.6512
  452MOL0    Cl59576   6.568  10.029   3.858  0.1170  0.1670  0.0041
  452MOL0     C59577   7.566   9.736   3.708 -0.5091 -1.0622  0.3964
  452MOL0     C59578   7.695   9.736   3.761  0.7604 -0.0236  0.3517
  452MOL0     O59579   7.960   9.838   3.733 -0.5241 -0.1096 -0.0545
  452MOL0     C59580   8.135   9.789   4.027  0.5073 -0.9341 -1.0869
  452MOL0     C59581   8.263   9.791   4.076  0.0563  0.9753 -0.6341
  452MOL0     N59582   8.932   9.650   4.554 -0.0953 -0.4102  0.2678
  452MOL0     N59583   8.966   9.650   4.688 -0.4413 -0.5983  0.8506
  452MOL0     C59584  10.052   9.781   5.023  0.0996  0.2784 -0.1045
  452MOL0     C59585  10.190   9.791   4.989 -1.2794 -0.4852 -0.0479
  452MOL0     C59586  10.560  10.052   4.806 -0.1509 -0.0866 -0.0006
  452MOL0     C59587  10.633  10.050   4.921  0.0034  0.2503 -0.0688
  452MOL0     C59588  10.755  10.124   4.940 -0.1433  0.3301 -0.3130
  452MOL0     C59589  10.810  10.194   4.831  0.1326 -0.6879  0.2315
  452MOL0     O59590  10.925  10.278   4.831  0.9507 -0.1718 -0.2148
  452MOL0     C59591  11.033  10.243   4.907 -0.1331  0.0546  1.4181
  452MOL0     C59592  11.147  10.189   4.825 -0.0874  0.2317  0.3427
  452MOL0     C59593  11.202  10.289   4.723 -0.3083 -0.5228  0.6533
  452MOL0     C59594  11.303  10.220   4.639  0.1764 -0.0361 -0.7516
  452MOL0     C59595  11.401  10.146   4.707 -0.4654  0.1618 -0.9977
  452MOL0     C59596  11.477  10.075   4.762  0.4346 -0.4280 -0.4304
  452MOL0     C59597  10.736  10.196   4.715  0.3707 -0.0367  0.3684
  452MOL0     C59598  10.614  10.129   4.704 -0.0718  0.2315 -0.2693
  452MOL0     H59599  10.178  10.120   4.893  1.0064 -0.5282 -0.3011
  452MOL0     H59600   9.949  10.095   4.963  1.6787  0.9747  1.2370
  452MOL0     H59601   9.737  10.030   4.952 -2.2834  0.9810  0.3919
  452MOL0     H59602   9.731  10.030   5.132 -0.0389 -0.5896 -0.5522
  452MOL0     H59603   9.618   9.795   5.104 -0.2372 -0.6940 -1.1238
  452MOL0     H59604   9.602   9.849   4.938  0.2592  2.4150 -0.3438
  452MOL0     H59605   9.495  10.060   5.056 -0.1640 -0.0227 -0.3136
  452MOL0     H59606   9.478   9.927   5.184  3.8034 -2.0144 -0.2457
  452MOL0     H59607   9.377   9.884   4.901  1.1637 -0.2549 -0.0113
  452MOL0     H59608   9.363   9.795   5.052 -0.3464  0.1598 -0.9440
  452MOL0     H59609   9.232  10.069   5.006  1.3674 -0.3013  0.2048
  452MOL0     H59610   9.246   9.988   5.160  2.3872  1.3059 -0.0820
  452MOL0     H59611   9.016   9.956   5.057 -1.3085 -0.0875 -2.2112
  452MOL0     H59612   9.096   9.804   5.089 -0.8101  0.9063  2.3190
  452MOL0     H59613   9.090   9.941   4.812 -0.1125 -0.3461 -0.4850
  452MOL0     H59614   9.153   9.783   4.859 -1.7471 -1.7068 -0.1937
  452MOL0     H59615   8.863   9.877   4.895 -1.7826 -0.6202  0.4728
  452MOL0     H59616   8.914   9.715   4.939  0.0841 -0.0334  0.1562
  452MOL0     H59617   8.797   9.937   4.634 -0.8104  0.7666  0.0456
  452MOL0     H59618   8.905   9.824   4.303 -0.8328 -1.0051 -0.6962
  452MOL0     H59619   8.816   9.940   4.402 -0.1818  0.9895 -0.6122
  452MOL0     H59620   8.624   9.779   4.397 -0.4966 -2.8831 -0.2467
  452MOL0     H59621   8.724   9.645   4.337  0.2046  0.6995 -4.6236
  452MOL0     H59622   8.667   9.911   4.207 -0.0230 -0.1403 -0.4342
  452MOL0     H59623   8.756   9.780   4.128 -0.1900 -0.9831 -1.2612
  452MOL0     H59624   8.476   9.722   4.228 -3.5092 -0.8296 -2.4605
  452MOL0     H59625   8.567   9.638   4.119 -0.4641  0.0500  0.0610
  452MOL0     H59626   8.436   9.845   3.795  0.2019  0.9814 -0.8807
  452MOL0     H59627   8.211   9.803   3.693  0.5675  3.5662  0.4246
  452MOL0     H59628   7.662   9.952   4.017 -0.1952  1.7310 -0.4586
  452MOL0     H59629   7.423   9.951   3.927 -1.1872 -2.4272  2.1782
  452MOL0     H59630   7.226   9.693   3.740 -2.2729 -1.0795 -2.5615
  452MOL0     H59631   7.342   9.655   3.611 -0.4636 -2.0759  1.0702
  452MOL0     H59632   7.097   9.698   3.561  0.6727 -0.2798 -2.0178
  452MOL0     H59633   7.221   9.769   3.462 -0.3751 -0.4465 -0.3172
  452MOL0     H59634   7.050   9.929   3.503  1.3304 -1.0017 -1.2147
  452MOL0     H59635   7.204   9.985   3.548  0.3111 -1.6365 -2.0054
  452MOL0     H59636   7.014   9.870   3.767  0.9689 -1.4043 -0.3696
  452MOL0     H59637   7.134   9.991   3.792 -0.3247 -0.9964  1.0498
  452MOL0     H59638   6.869  10.028   3.632 -0.1612  1.4829 -1.4900
  452MOL0     H59639   6.971  10.162   3.641 -3.2297  2.4241  3.0049
  452MOL0     H59640   6.980  10.167   3.876 -0.5140  0.1163  1.8017
  452MOL0     H59641   6.882  10.028   3.890  1.3981 -1.0169 -2.0757
  452MOL0     H59642   6.782  10.274   3.907 -4.5415  0.6045 -0.6391
  452MOL0     H59643   6.808  10.286   3.737  3.3834 -0.7419 -0.1629
  452MOL0     H59644   6.637  10.142   3.669  0.8801 -0.5487 -0.6861
  452MOL0     H59645   6.582  10.252   3.788  2.4192  2.0662  2.4061
  452MOL0     H59646   7.547   9.687   3.613  0.9546  1.9905 -1.6038
  452MOL0     H59647   7.760   9.664   3.713  1.5606  1.6017 -1.1604
  452MOL0     H59648   8.057   9.776   4.101  1.7536 -0.0615  0.4663
  452MOL0     H59649   8.266   9.799   4.184 -0.2640 -0.1859 -0.5214
  452MOL0     H59650  10.012   9.688   5.061  1.4719  0.5195  2.0727
  452MOL0     H59651  10.261   9.709   4.981  1.8217  2.1882 -3.9688
  452MOL0     H59652  10.587  10.002   5.006  1.2111  2.1650  1.7692
  452MOL0     H59653  10.807  10.104   5.033 -2.0239 -0.1163  0.7015
  452MOL0     H59654  10.997  10.184   4.992 -0.8883  0.6115  1.4909
  452MOL0     H59655  11.060  10.343   4.942 -0.5942  1.0452 -0.8781
  452MOL0     H59656  11.219  10.150   4.898  0.3209  1.4735  0.6265
  452MOL0     H59657  11.130  10.089   4.783 -1.9515  0.6684 -0.0182
  452MOL0     H59658  11.245  10.375   4.774 -1.8550  0.3360  0.5873
  452MOL0     H59659  11.122  10.322   4.656 -0.2271  2.5032  1.8708
  452MOL0     H59660  11.251  10.157   4.567  0.9088  0.2680 -1.5757
  452MOL0     H59661  11.364  10.291   4.581  2.1415  1.5745  2.9063
  452MOL0     H59662  11.546  10.017   4.819 -0.4637  1.0794  2.3711
  452MOL0     H59663  10.772  10.260   4.635 -1.2673  4.0494  2.6018
  452MOL0     H59664  10.555  10.129   4.613 -1.5574  2.5272  0.5767
  453MOL0     O59665  11.268   6.949   7.249  0.2565  0.3063  0.2795
  453MOL0     C59666  11.215   6.893   7.147 -0.2935 -0.0463 -0.3682
  453MOL0     O59667  11.254   6.923   7.019  0.7208  0.2984  0.5892
  453MOL0     C59668  11.356   7.009   7.003  0.9598  0.6466 -0.1762
  453MOL0     C59669  11.340   7.140   7.051 -0.0056  0.3996  0.0162
  453MOL0     C59670  11.454   7.225   7.061 -0.3761  0.9121  0.8145
  453MOL0     C59671  11.583   7.181   7.037 -0.7615 -0.4888  0.1078
  453MOL0     O59672  11.697   7.258   7.057  0.7943  0.6116 -0.0304
  453MOL0     C59673  11.791   7.269   6.953 -0.1281  0.8460 -0.1012
  453MOL0     C59674  11.863   7.410   6.968  0.4061  0.5483  0.1914
  453MOL0     C59675  11.776   7.539   6.937  0.5488  0.1805 -0.0213
  453MOL0     C59676  11.699   7.518   6.803  0.5656 -0.0642 -0.4793
  453MOL0     C59677  11.619   7.646   6.767  0.2097  0.4342  0.2882
  453MOL0     C59678  11.511   7.691   6.874  0.6870  1.2857  0.6159
  453MOL0     C59679  11.421   7.582   6.915 -0.8237 -0.0209 -1.2840
  453MOL0     C59680  11.306   7.562   6.814  0.7699  0.2054 -0.6374
  453MOL0     N59681  11.210   7.459   6.849  0.3500 -0.4617  0.0150
  453MOL0     C59682  11.230   7.323   6.811  0.1681 -0.4068  0.8476
  453MOL0     C59683  11.103   7.272   6.810 -0.2490  0.2518  0.1467
  453MOL0     C59684  11.084   7.141   6.759  0.3578 -0.0186  0.7632
  453MOL0     C59685  10.965   7.078   6.820  1.3084  0.8216  0.5704
  453MOL0     C59686  10.841   7.113   6.744 -0.6549  0.2750  0.2329
  453MOL0     C59687  10.736   7.007   6.766  0.4728  0.3865  0.1387
  453MOL0     O59688  10.621   7.032   6.677  0.3874  0.5122 -0.0974
  453MOL0     C59689  10.492   6.979   6.698  0.1284 -1.6375 -0.2958
  453MOL0     C59690  10.396   7.027   6.610  0.8273 -0.4061 -0.8338
  453MOL0     C59691  10.265   6.992   6.636 -0.1845 -0.8168 -0.0332
  453MOL0     C59692  10.223   6.918   6.751 -0.1548  0.5562  0.0964
  453MOL0     C59693  10.082   6.873   6.766  0.5459 -0.6762 -0.2432
  453MOL0     O59694  10.057   6.790   6.874 -0.8522 -0.3495  0.7481
  453MOL0     C59695   9.928   6.759   6.905 -0.4103 -0.1351 -0.5853
  453MOL0     C59696   9.883   6.767   7.039 -0.4339 -0.4124 -0.2298
  453MOL0     C59697   9.744   6.749   7.072 -0.8614 -1.0643 -0.2346
  453MOL0     C59698   9.654   6.718   6.971 -0.3618  0.3437 -0.7521
  453MOL0     O59699   9.523   6.696   7.012  0.2197 -0.7107  0.0636
  453MOL0     C59700   9.411   6.636   6.931  0.5523 -0.3018  0.5997
  453MOL0     C59701   9.284   6.692   6.986 -0.0672  0.0609 -0.7573
  453MOL0     C59702   9.236   6.626   7.115  0.1994  0.5700 -0.4905
  453MOL0     C59703   9.109   6.690   7.163  0.9901 -0.7240 -0.0347
  453MOL0     C59704   9.063   6.625   7.288  0.5079 -1.0616 -0.8766
  453MOL0     C59705   8.929   6.682   7.336  0.0429 -0.1985  0.1850
  453MOL0     C59706   8.905   6.636   7.476  0.7769  0.6278 -0.3916
  453MOL0     C59707   8.859   6.756   7.563 -0.0503 -0.3233 -0.2197
  453MOL0    Cl59708   9.009   6.837   7.596  0.6064 -0.1981 -0.5847
  453MOL0     C59709   9.695   6.714   6.840 -0.4417 -0.7007  0.5950
  453MOL0     C59710   9.829   6.729   6.804 -0.3274 -0.0491  0.4938
  453MOL0     O59711   9.995   6.928   6.700 -0.0521  0.1408  1.0381
  453MOL0     C59712  10.326   6.867   6.831 -0.2871 -0.3057  0.3768
  453MOL0     C59713  10.462   6.889   6.797  0.2100  0.0548 -0.0437
  453MOL0     N59714  11.011   7.361   6.874 -0.4515 -0.1210  0.3248
  453MOL0     N59715  11.082   7.477   6.892  0.0643 -0.3216 -0.1222
  453MOL0     C59716  11.594   7.054   6.970 -0.6131 -0.7877  0.3740
  453MOL0     C59717  11.482   6.967   6.955 -0.5162  0.5531  0.4286
  453MOL0     C59718  11.116   6.787   7.171  0.2926  0.2211  0.6883
  453MOL0     C59719  11.068   6.715   7.065 -0.0096  0.0303 -0.8163
  453MOL0     C59720  10.975   6.608   7.086  0.4730  0.6079  0.3871
  453MOL0     C59721  10.935   6.571   7.215  0.3325 -0.8131 -0.7834
  453MOL0     O59722  10.845   6.471   7.247  0.1720 -0.0822 -0.4735
  453MOL0     C59723  10.751   6.422   7.145 -1.2761  0.3230 -0.4414
  453MOL0     C59724  10.644   6.336   7.208  0.1787 -0.5785 -0.2675
  453MOL0     C59725  10.684   6.199   7.268  0.5740 -0.6274  0.9018
  453MOL0     C59726  10.740   6.107   7.151  0.7133 -0.1606  0.3148
  453MOL0     C59727  10.651   6.096   7.030 -0.0511  0.7620 -0.8123
  453MOL0     C59728  10.579   6.106   6.933  0.1180  0.4755 -0.4912
  453MOL0     C59729  10.986   6.650   7.325 -0.1899  0.6932  0.4515
  453MOL0     C59730  11.076   6.755   7.302 -0.0469 -0.1300  0.7091
  453MOL0     H59731  11.238   7.169   7.075 -0.6288  0.0131 -1.9558
  453MOL0     H59732  11.432   7.324   7.100 -2.1685  0.3594  1.3011
  453MOL0     H59733  11.749   7.256   6.853  0.3316  2.7115 -0.5806
  453MOL0     H59734  11.865   7.188   6.962  0.1068  0.7925 -2.0363
  453MOL0     H59735  11.953   7.413   6.905 -0.0763  5.0001 -0.6554
  453MOL0     H59736  11.901   7.427   7.070  0.0821  0.7290  0.2845
  453MOL0     H59737  11.850   7.619   6.920  1.4074 -0.3509  1.1180
  453MOL0     H59738  11.703   7.576   7.010  0.5963  0.9416 -0.3524
  453MOL0     H59739  11.778   7.509   6.728  2.2058  4.5525  0.3999
  453MOL0     H59740  11.632   7.432   6.800 -1.8718  1.6792  0.5062
  453MOL0     H59741  11.566   7.612   6.678  1.2382 -1.0504  0.2056
  453MOL0     H59742  11.687   7.730   6.749 -1.0317  1.1096 -1.4771
  453MOL0     H59743  11.452   7.772   6.830 -0.1401  1.2499  1.6509
  453MOL0     H59744  11.559   7.717   6.968 -1.0075 -0.2774  1.9861
  453MOL0     H59745  11.473   7.487   6.932 -2.1814 -0.3533  1.6689
  453MOL0     H59746  11.392   7.614   7.015 -2.3501 -3.9247 -0.2623
  453MOL0     H59747  11.357   7.542   6.719 -0.0115  1.8478 -1.4302
  453MOL0     H59748  11.243   7.651   6.812  0.1918 -0.1577  0.4668
  453MOL0     H59749  11.326   7.276   6.795  0.1668 -0.1599  0.1027
  453MOL0     H59750  11.173   7.081   6.776  0.6843  0.9442  2.7539
  453MOL0     H59751  11.069   7.147   6.651  0.8528 -1.7614  0.5767
  453MOL0     H59752  10.961   7.099   6.927  2.0860 -3.0246  1.5068
  453MOL0     H59753  10.977   6.970   6.810  3.8138  0.9561  1.4427
  453MOL0     H59754  10.797   7.209   6.771 -0.1974  0.5816 -0.0995
  453MOL0     H59755  10.858   7.104   6.637  3.9106  0.3846  0.7481
  453MOL0     H59756  10.705   7.003   6.871 -1.0782  0.7584 -0.2788
  453MOL0     H59757  10.775   6.908   6.739 -3.3149 -1.4655  0.7193
  453MOL0     H59758  10.424   7.092   6.527 -2.1983  1.2922 -0.6581
  453MOL0     H59759  10.196   7.037   6.566  1.8186  1.1406 -0.8740
  453MOL0     H59760   9.947   6.797   7.122 -1.0420  1.2704 -0.3288
  453MOL0     H59761   9.710   6.755   7.175 -2.5382  1.8943 -0.8301
  453MOL0     H59762   9.418   6.527   6.939  1.0388 -0.4645 -1.4180
  453MOL0     H59763   9.424   6.672   6.829 -2.5055 -0.8266 -0.0828
  453MOL0     H59764   9.210   6.663   6.912  2.3443 -0.8763 -2.9424
  453MOL0     H59765   9.287   6.800   7.001 -1.4267  0.1397 -0.9310
  453MOL0     H59766   9.309   6.625   7.196 -1.0321 -2.7468  0.7395
  453MOL0     H59767   9.223   6.520   7.092  1.6902  0.1625  0.4563
  453MOL0     H59768   9.129   6.796   7.181  1.5393 -1.2054  2.5368
  453MOL0     H59769   9.033   6.673   7.086  1.3727  0.3466 -0.6717
  453MOL0     H59770   9.141   6.630   7.364  1.1241  3.5396 -1.4932
  453MOL0     H59771   9.056   6.521   7.254  0.8337 -0.7724 -1.8772
  453MOL0     H59772   8.853   6.642   7.269  1.3154 -0.6302 -1.0654
  453MOL0     H59773   8.923   6.792   7.340  0.1812 -0.2330  1.8298
  453MOL0     H59774   8.838   6.549   7.480 -0.6521  1.7092  0.0255
  453MOL0     H59775   8.993   6.597   7.529 -0.9649  0.3968  2.5634
  453MOL0     H59776   8.816   6.727   7.660 -0.2974 -2.2565 -0.8539
  453MOL0     H59777   8.789   6.809   7.498 -1.3469  1.0336  2.1330
  453MOL0     H59778   9.625   6.685   6.762  0.8216 -1.8016 -0.1753
  453MOL0     H59779   9.869   6.710   6.704 -0.4869 -0.2776  0.4747
  453MOL0     H59780  10.301   6.795   6.909  1.1377  0.5987  1.7114
  453MOL0     H59781  10.536   6.843   6.861 -2.3842 -0.4972  2.8038
  453MOL0     H59782  11.682   7.015   6.920 -0.9899  0.4187 -1.3235
  453MOL0     H59783  11.494   6.868   6.913  0.3156  1.2952 -1.1734
  453MOL0     H59784  11.087   6.751   6.964  0.9833  0.2235 -0.5630
  453MOL0     H59785  10.926   6.586   6.991  0.9240  4.6075 -0.9402
  453MOL0     H59786  10.810   6.368   7.070  0.1479  0.5149  0.5130
  453MOL0     H59787  10.703   6.509   7.098  0.3337  1.1030 -0.7491
  453MOL0     H59788  10.591   6.395   7.284  0.2605  0.9570 -1.3554
  453MOL0     H59789  10.567   6.314   7.133 -0.2820 -2.1317  0.6009
  453MOL0     H59790  10.596   6.143   7.303  0.4664 -3.2516 -2.9236
  453MOL0     H59791  10.757   6.204   7.349  0.1671 -2.4443  1.4405
  453MOL0     H59792  10.831   6.156   7.115  1.0434 -2.1840 -1.9066
  453MOL0     H59793  10.757   6.004   7.184 -3.3926 -0.7952  0.9756
  453MOL0     H59794  10.514   6.106   6.847 -0.1623 -3.6475 -0.4705
  453MOL0     H59795  10.948   6.641   7.426  1.6931 -0.7478  1.0857
  453MOL0     H59796  11.114   6.808   7.389 -1.1948  1.1190  0.4787
  454MOL0     O59797   3.324   4.981   8.130 -1.0825 -0.2198  0.1978
  454MOL0     C59798   3.350   5.002   8.245  0.1360  0.7722 -0.2535
  454MOL0     O59799   3.259   5.024   8.346 -1.3690  0.1932 -0.5591
  454MOL0     C59800   3.134   4.980   8.318  0.5714  0.4144  0.4334
  454MOL0     C59801   3.041   5.050   8.238 -0.0586  0.7028 -0.0200
  454MOL0     C59802   2.904   5.015   8.231 -0.3551  0.2681  0.3349
  454MOL0     C59803   2.861   4.903   8.298  0.4923  0.5126 -0.2386
  454MOL0     O59804   2.724   4.877   8.286 -0.4811 -0.3072  0.4148
  454MOL0     C59805   2.679   4.739   8.301  0.6965  1.0255 -0.1071
  454MOL0     C59806   2.538   4.735   8.230 -0.9721  0.7100 -0.0841
  454MOL0     C59807   2.418   4.795   8.306  0.2994 -0.6761  0.2482
  454MOL0     C59808   2.286   4.771   8.228  0.5346  0.8456  0.2950
  454MOL0     C59809   2.168   4.809   8.317 -0.0127 -0.2185  0.1000
  454MOL0     C59810   2.043   4.806   8.232 -0.1007 -0.7622  0.4705
  454MOL0     C59811   1.916   4.854   8.316 -0.7853 -1.1477 -0.2481
  454MOL0     C59812   1.886   4.783   8.450  0.6625  0.4455  0.5117
  454MOL0     N59813   1.859   4.638   8.430  0.7515 -0.4716 -0.1661
  454MOL0     C59814   1.783   4.582   8.330  0.9007  0.6070  0.6595
  454MOL0     C59815   1.772   4.447   8.353  0.3478 -0.2898  0.7899
  454MOL0     C59816   1.720   4.337   8.258  0.6753  0.0861 -0.0342
  454MOL0     C59817   1.575   4.369   8.228  0.2748  0.3665 -0.1837
  454MOL0     C59818   1.485   4.254   8.280 -1.2260  0.6407 -0.0310
  454MOL0     C59819   1.341   4.278   8.248 -0.0312  0.7633 -0.0124
  454MOL0     O59820   1.317   4.309   8.109 -0.6913 -0.0679 -0.6161
  454MOL0     C59821   1.184   4.303   8.071  0.1525  0.0190  0.2406
  454MOL0     C59822   1.062   4.296   8.138  1.0802 -0.1386  0.2718
  454MOL0     C59823   0.936   4.271   8.070 -0.7035  1.1558 -0.3287
  454MOL0     C59824   0.933   4.244   7.928  0.1911 -0.3404 -0.1694
  454MOL0     C59825   0.810   4.204   7.863  0.0560  0.3139 -0.3873
  454MOL0     O59826   0.801   4.220   7.731  0.3496 -0.1087 -0.0622
  454MOL0     C59827   0.700   4.166   7.653  0.5625 -0.0739 -0.4932
  454MOL0     C59828   0.640   4.042   7.674  0.6260 -0.6437  0.4269
  454MOL0     C59829   0.536   4.001   7.592  1.4204 -0.7581 -0.3163
  454MOL0     C59830   0.503   4.068   7.475 -0.4357 -0.4508 -0.2511
  454MOL0     O59831   0.406   4.011   7.396  0.1017  0.3211  0.5262
  454MOL0     C59832   0.401   4.035   7.258  0.2326  0.7493  0.1935
  454MOL0     C59833   0.526   3.991   7.181  0.0077 -0.5125 -1.3394
  454MOL0     C59834   0.562   3.839   7.212 -0.1178  0.5448  0.2325
  454MOL0     C59835   0.672   3.782   7.115 -0.1422 -0.7613 -0.3214
  454MOL0     C59836   0.716   3.643   7.142 -0.6606  0.2216 -0.3918
  454MOL0     C59837   0.603   3.538   7.116 -0.5467 -0.7703 -0.3808
  454MOL0     C59838   0.651   3.394   7.145  1.5956  1.3561  0.9415
  454MOL0     C59839   0.776   3.351   7.070  0.4113 -0.1113  0.3005
  454MOL0    Cl59840   0.735   3.366   6.889 -0.0951 -0.3295 -0.6476
  454MOL0     C59841   0.575   4.186   7.449  1.0280 -1.0778 -0.2636
  454MOL0     C59842   0.669   4.236   7.540  0.0416  0.0719 -0.3246
  454MOL0     O59843   0.720   4.162   7.938  0.6036 -0.7418  0.8250
  454MOL0     C59844   1.055   4.263   7.860 -0.4597  0.2370  0.1267
  454MOL0     C59845   1.176   4.295   7.930  0.3387 -0.0694  0.5346
  454MOL0     N59846   1.840   4.436   8.471  0.1307  0.6059  0.3500
  454MOL0     N59847   1.889   4.547   8.526  0.0370  0.2152  0.2213
  454MOL0     C59848   2.952   4.826   8.374 -0.0001  0.1507  0.9377
  454MOL0     C59849   3.082   4.860   8.383  0.3441 -0.4170  0.5532
  454MOL0     C59850   3.495   5.003   8.276  0.4448  0.4733  1.3984
  454MOL0     C59851   3.543   4.956   8.393 -0.1404  0.4547  0.0416
  454MOL0     C59852   3.678   4.936   8.418 -0.6907  0.6509 -0.3588
  454MOL0     C59853   3.772   4.977   8.324 -0.8904  0.4702 -0.1432
  454MOL0     O59854   3.908   4.982   8.339 -0.1151 -0.1001  0.6903
  454MOL0     C59855   3.967   4.932   8.458  0.0721  0.1537  0.1800
  454MOL0     C59856   3.997   4.781   8.462  0.3152  0.9084 -0.6376
  454MOL0     C59857   4.059   4.739   8.327  0.2185 -0.1840 -0.5372
  454MOL0     C59858   4.115   4.601   8.325  0.2765  0.6544  1.2458
  454MOL0     C59859   4.236   4.600   8.405 -1.0685  0.2317 -0.6190
  454MOL0     C59860   4.330   4.609   8.480 -0.4771  0.1844  0.3728
  454MOL0     C59861   3.722   5.022   8.197 -0.1974  0.6603 -0.5766
  454MOL0     C59862   3.584   5.046   8.179  0.3715  0.1200  0.2802
  454MOL0     H59863   3.058   5.144   8.187  0.1889  0.1059 -1.0554
  454MOL0     H59864   2.833   5.073   8.173 -0.2723  2.6464  2.4187
  454MOL0     H59865   2.666   4.720   8.408  0.4864 -1.2993 -0.5009
  454MOL0     H59866   2.748   4.671   8.251  1.6378  1.2376  0.8647
  454MOL0     H59867   2.518   4.628   8.221  0.3702 -0.0602  3.9586
  454MOL0     H59868   2.536   4.768   8.126 -1.4221 -3.1184 -1.4480
  454MOL0     H59869   2.423   4.904   8.317 -3.8647 -0.4455  1.6162
  454MOL0     H59870   2.405   4.761   8.409  4.0814  3.1343  2.3120
  454MOL0     H59871   2.279   4.822   8.131 -3.1090 -0.3142 -0.1754
  454MOL0     H59872   2.278   4.665   8.202 -0.4502  0.6763  1.2261
  454MOL0     H59873   2.183   4.911   8.354 -0.7370  0.4544 -1.3568
  454MOL0     H59874   2.163   4.736   8.398  2.9954 -3.3257 -2.2058
  454MOL0     H59875   2.020   4.713   8.180 -0.7101 -0.1734 -0.3244
  454MOL0     H59876   2.042   4.886   8.158 -0.3723 -1.3800 -0.1955
  454MOL0     H59877   1.933   4.959   8.339  1.2693 -0.7349 -3.0646
  454MOL0     H59878   1.828   4.842   8.251 -1.2798 -2.2101  0.5972
  454MOL0     H59879   1.797   4.828   8.494 -1.0299 -1.7703 -0.4650
  454MOL0     H59880   1.970   4.768   8.519  1.9030 -1.1172 -1.2380
  454MOL0     H59881   1.740   4.634   8.244 -0.1516  1.3903  1.6144
  454MOL0     H59882   1.740   4.233   8.284 -1.3294 -0.9423 -2.2157
  454MOL0     H59883   1.768   4.352   8.160  0.5795 -0.4475 -0.1679
  454MOL0     H59884   1.562   4.380   8.119  0.7856 -2.4815 -0.6066
  454MOL0     H59885   1.532   4.459   8.273 -2.6312 -0.0125 -1.9114
  454MOL0     H59886   1.522   4.155   8.253 -2.2482  0.4010 -0.6134
  454MOL0     H59887   1.493   4.259   8.389 -0.2642  2.6465 -0.1517
  454MOL0     H59888   1.293   4.357   8.307 -0.7977  0.5428 -0.3265
  454MOL0     H59889   1.275   4.193   8.266  2.3295 -1.1027  0.2872
  454MOL0     H59890   1.060   4.314   8.245  0.0893 -2.0676  0.6179
  454MOL0     H59891   0.846   4.272   8.131 -0.1523 -1.1542  0.6512
  454MOL0     H59892   0.670   3.985   7.761 -2.7016 -0.3966  1.8682
  454MOL0     H59893   0.489   3.906   7.617  0.6374 -0.2352  0.2955
  454MOL0     H59894   0.376   4.140   7.240 -4.8625 -0.1369  0.6908
  454MOL0     H59895   0.327   3.968   7.215  2.3929 -1.0802 -0.9122
  454MOL0     H59896   0.613   4.055   7.200  1.1775 -2.4156  0.1460
  454MOL0     H59897   0.505   3.985   7.074  0.7487 -1.6976 -1.4497
  454MOL0     H59898   0.473   3.776   7.202  0.3708 -0.8293  3.5138
  454MOL0     H59899   0.597   3.832   7.315  1.1579 -0.5464 -0.2460
  454MOL0     H59900   0.630   3.795   7.015 -3.1373  4.1096  1.2076
  454MOL0     H59901   0.759   3.846   7.134 -1.7282  0.6194  3.4137
  454MOL0     H59902   0.768   3.634   7.238  1.7457 -0.6984 -1.6960
  454MOL0     H59903   0.794   3.622   7.068 -1.1531  0.4083 -0.9753
  454MOL0     H59904   0.555   3.548   7.018 -2.6197  0.4087  0.6893
  454MOL0     H59905   0.521   3.560   7.185  0.7867  0.4318  0.8885
  454MOL0     H59906   0.671   3.378   7.251  0.2579  0.5740  1.0951
  454MOL0     H59907   0.581   3.324   7.099  0.2861  3.4702 -0.4780
  454MOL0     H59908   0.793   3.243   7.082 -0.9329 -0.4022 -0.2249
  454MOL0     H59909   0.867   3.404   7.097  0.8780  0.8867 -2.8369
  454MOL0     H59910   0.568   4.246   7.359  0.8491 -0.9379 -0.1577
  454MOL0     H59911   0.714   4.334   7.530  2.3935 -1.0846 -1.6857
  454MOL0     H59912   1.074   4.254   7.753 -1.1239 -2.3220  0.1636
  454MOL0     H59913   1.265   4.314   7.871 -0.2633  1.1243 -0.0110
  454MOL0     H59914   2.918   4.730   8.411 -0.6958 -0.1808 -0.4801
  454MOL0     H59915   3.148   4.796   8.442  0.9190  0.7335  1.2189
  454MOL0     H59916   3.470   4.919   8.466 -0.8703  0.5898 -0.6114
  454MOL0     H59917   3.704   4.916   8.522  0.5805  0.2359 -0.7476
  454MOL0     H59918   3.913   4.961   8.549 -4.9129 -2.5483 -1.5429
  454MOL0     H59919   4.070   4.970   8.463  0.5364 -1.1032  0.4142
  454MOL0     H59920   4.067   4.762   8.543  2.4143 -0.8039 -2.7277
  454MOL0     H59921   3.907   4.718   8.466  0.7517  0.2342 -1.0842
  454MOL0     H59922   4.147   4.801   8.312  0.9288 -1.7018 -3.5426
  454MOL0     H59923   3.983   4.759   8.250 -2.6060  0.3572  2.1577
  454MOL0     H59924   4.037   4.526   8.338 -0.1917  1.1110  1.1166
  454MOL0     H59925   4.147   4.583   8.222 -0.1159  2.3276  0.7906
  454MOL0     H59926   4.411   4.614   8.550 -1.6326  0.1968  1.7422
  454MOL0     H59927   3.787   5.063   8.120 -1.6562  0.2742 -2.0933
  454MOL0     H59928   3.549   5.096   8.089  0.6380  2.6800  1.5027
  455MOL0     O59929   9.830   3.808   7.677 -0.0246  0.1874 -0.6239
  455MOL0     C59930   9.890   3.921   7.660  0.3406  0.2340  0.4096
  455MOL0     O59931   9.832   4.031   7.593  0.4903 -0.2849  0.5568
  455MOL0     C59932   9.714   4.009   7.526  0.2958  0.0751  0.6145
  455MOL0     C59933   9.595   4.026   7.596 -0.0257 -0.4588  0.8140
  455MOL0     C59934   9.474   4.010   7.533 -0.5499 -0.3058 -0.6205
  455MOL0     C59935   9.464   3.960   7.397  0.5199  0.3556 -0.4359
  455MOL0     O59936   9.354   3.910   7.343 -0.0175 -0.5637 -0.3078
  455MOL0     C59937   9.238   3.988   7.360  0.3212  0.3254  0.5816
  455MOL0     C59938   9.129   3.936   7.271  0.1332  0.2464  0.5167
  455MOL0     C59939   9.006   3.909   7.361  0.6734 -0.1975  0.0037
  455MOL0     C59940   8.897   3.825   7.288 -1.2774  0.3956  0.5853
  455MOL0     C59941   8.787   3.790   7.375 -0.8930 -0.2397  1.1291
  455MOL0     C59942   8.673   3.736   7.289  0.7741 -0.1263  0.2539
  455MOL0     C59943   8.547   3.704   7.376 -0.3058  0.1504  1.0178
  455MOL0     C59944   8.469   3.835   7.406  0.1001 -0.2202  0.8347
  455MOL0     N59945   8.324   3.802   7.429  0.2080  0.6056 -0.5147
  455MOL0     C59946   8.216   3.881   7.407 -0.0120 -0.4014  0.2769
  455MOL0     C59947   8.098   3.811   7.440 -0.1786 -0.8080  0.8998
  455MOL0     C59948   7.951   3.858   7.435  0.3984 -0.4705 -0.6197
  455MOL0     C59949   7.920   3.934   7.569 -0.2775 -0.5549 -0.1852
  455MOL0     C59950   7.788   4.008   7.586 -1.0365  0.6186  0.6211
  455MOL0     C59951   7.671   3.921   7.540 -0.0103  0.0120 -0.7632
  455MOL0     O59952   7.674   3.909   7.397 -0.0264  0.0010 -0.3252
  455MOL0     C59953   7.579   3.842   7.324  0.4322 -0.0945 -1.2507
  455MOL0     C59954   7.472   3.780   7.390 -0.1742  1.1858  1.0737
  455MOL0     C59955   7.370   3.728   7.307  0.5658  0.1414  0.3360
  455MOL0     C59956   7.372   3.734   7.171 -0.3008 -0.0457  0.3463
  455MOL0     C59957   7.274   3.672   7.081 -0.7042 -0.3623  0.3384
  455MOL0     O59958   7.154   3.641   7.129 -0.7108  0.5808  0.0033
  455MOL0     C59959   7.063   3.574   7.046 -0.7468  0.2211 -1.1314
  455MOL0     C59960   7.052   3.436   7.077 -0.1752  0.4871 -0.2551
  455MOL0     C59961   6.961   3.356   7.007 -0.3460 -0.0993 -0.1615
  455MOL0     C59962   6.869   3.417   6.919 -1.0979  0.1048 -0.4624
  455MOL0     O59963   6.774   3.342   6.873  0.3899  0.4870  0.9150
  455MOL0     C59964   6.646   3.414   6.875 -0.1008  0.1957 -0.6314
  455MOL0     C59965   6.535   3.313   6.851 -0.0559  0.3897 -0.7533
  455MOL0     C59966   6.506   3.248   6.717  0.3230  1.0214 -0.2725
  455MOL0     C59967   6.459   3.348   6.619 -0.0248  0.0129 -0.3273
  455MOL0     C59968   6.374   3.278   6.511 -0.6182 -0.1877 -0.5621
  455MOL0     C59969   6.239   3.341   6.487  0.0960 -0.6176 -0.5399
  455MOL0     C59970   6.152   3.367   6.615  0.4815  0.1239 -0.3668
  455MOL0     C59971   6.017   3.392   6.565 -0.1853 -0.1908 -0.5652
  455MOL0    Cl59972   5.923   3.439   6.714  0.0121  0.3126  0.0933
  455MOL0     C59973   6.884   3.561   6.900  0.2261  0.6426  0.0180
  455MOL0     C59974   6.987   3.633   6.954  0.3117  0.2419  0.2657
  455MOL0     O59975   7.310   3.636   6.965  0.1151  0.3549  0.2676
  455MOL0     C59976   7.483   3.790   7.113  0.0223 -0.7361 -0.0716
  455MOL0     C59977   7.594   3.838   7.191  0.3700  0.6359  0.3879
  455MOL0     N59978   8.144   3.683   7.470  0.7328 -0.3833 -0.7699
  455MOL0     N59979   8.270   3.681   7.461  0.3153  0.4450 -0.1984
  455MOL0     C59980   9.582   3.932   7.333 -0.4459 -0.0366  0.1112
  455MOL0     C59981   9.710   3.968   7.390 -0.7928 -0.1264  1.1407
  455MOL0     C59982  10.032   3.929   7.708  1.0903 -0.3665  0.8664
  455MOL0     C59983  10.088   3.821   7.770  0.7460  0.6649  0.2872
  455MOL0     C59984  10.219   3.821   7.808  0.2719  0.5097 -0.2511
  455MOL0     C59985  10.290   3.935   7.787  0.2365 -0.3978  0.4015
  455MOL0     O59986  10.434   3.947   7.807  0.0993  1.1656 -0.1456
  455MOL0     C59987  10.518   3.833   7.855  0.7188 -0.5553  0.5313
  455MOL0     C59988  10.583   3.756   7.739  0.0855  0.0342  0.1905
  455MOL0     C59989  10.480   3.692   7.645  0.3295  0.1835  0.0196
  455MOL0     C59990  10.534   3.595   7.546 -0.2307  0.3228  0.7304
  455MOL0     C59991  10.620   3.496   7.610  0.0444 -0.3197 -0.4828
  455MOL0     C59992  10.708   3.436   7.666 -0.0434 -0.5444 -0.3097
  455MOL0     C59993  10.240   4.040   7.723 -0.5328  0.3359  0.0649
  455MOL0     C59994  10.112   4.042   7.678 -0.7638 -0.3357 -0.3379
  455MOL0     H59995   9.589   4.047   7.703 -2.2205  1.5691  0.3860
  455MOL0     H59996   9.392   4.032   7.601  0.7980 -3.4738  2.3268
  455MOL0     H59997   9.256   4.091   7.326 -1.0409 -0.2128 -2.0960
  455MOL0     H59998   9.208   3.986   7.465 -3.4480 -3.0302 -0.3373
  455MOL0     H59999   9.162   3.842   7.226 -2.5950 -0.8162  0.5913
  455MOL0     H60000   9.111   4.002   7.186 -0.0742 -0.0163  0.3553
  455MOL0     H60001   8.962   4.005   7.390  1.7374 -0.2299  1.9075
  455MOL0     H60002   9.036   3.858   7.454 -0.7025  0.6573  0.9544
  455MOL0     H60003   8.858   3.882   7.204  2.2055  0.9681 -0.8239
  455MOL0     H60004   8.948   3.734   7.256  0.6915  0.6331  2.7169
  455MOL0     H60005   8.753   3.877   7.432 -0.8773 -0.1871  1.0579
  455MOL0     H60006   8.823   3.710   7.442  0.4300  0.4553  1.2773
  455MOL0     H60007   8.699   3.645   7.236 -3.1604  0.0429 -2.3463
  455MOL0     H60008   8.649   3.803   7.206 -0.6267 -2.1004 -0.9908
  455MOL0     H60009   8.479   3.635   7.326 -1.2511  0.8946  1.2376
  455MOL0     H60010   8.585   3.648   7.461  3.0565 -0.1819 -0.5591
  455MOL0     H60011   8.470   3.913   7.328 -0.1869 -1.6975 -0.6993
  455MOL0     H60012   8.504   3.887   7.496  0.4709 -3.5530  2.7495
  455MOL0     H60013   8.229   3.984   7.375  2.7001 -0.9981 -0.8005
  455MOL0     H60014   7.888   3.768   7.433 -1.0841  0.4719  0.7788
  455MOL0     H60015   7.943   3.916   7.343  2.8335 -1.5221 -1.5945
  455MOL0     H60016   8.003   4.005   7.575 -2.6011  2.1530  2.0486
  455MOL0     H60017   7.940   3.862   7.649  2.1787 -1.1974 -1.2622
  455MOL0     H60018   7.781   4.034   7.692 -0.4857 -0.2281  0.8808
  455MOL0     H60019   7.794   4.096   7.522  3.3748 -1.5535 -2.5148
  455MOL0     H60020   7.574   3.962   7.568  0.0806  0.2174 -0.7545
  455MOL0     H60021   7.678   3.818   7.577  1.2958  0.4404  0.2540
  455MOL0     H60022   7.472   3.782   7.498 -1.2975 -0.1283  1.1221
  455MOL0     H60023   7.278   3.687   7.348 -2.5080  4.4792 -1.4395
  455MOL0     H60024   7.119   3.392   7.150 -1.8748 -4.3649 -1.3070
  455MOL0     H60025   6.959   3.251   7.032  0.7696  0.2425  1.5177
  455MOL0     H60026   6.650   3.505   6.814  2.9138  0.9855  0.5576
  455MOL0     H60027   6.632   3.454   6.975  1.4776  0.2268 -0.3944
  455MOL0     H60028   6.440   3.350   6.891 -0.8441 -1.5096 -0.7406
  455MOL0     H60029   6.557   3.236   6.925  1.3716  2.6422  1.3039
  455MOL0     H60030   6.435   3.166   6.728  0.7443 -0.0697 -4.0764
  455MOL0     H60031   6.597   3.206   6.672 -0.6754  0.9930 -2.4257
  455MOL0     H60032   6.398   3.414   6.681  0.7520  0.9569 -0.5327
  455MOL0     H60033   6.536   3.410   6.570 -0.3277  0.6356 -0.0223
  455MOL0     H60034   6.348   3.175   6.537  0.3431 -0.5899 -1.1436
  455MOL0     H60035   6.433   3.289   6.419 -1.6457  0.6094 -1.1430
  455MOL0     H60036   6.194   3.282   6.408 -1.2182 -0.7140  0.2543
  455MOL0     H60037   6.252   3.440   6.441  3.2625 -0.4342  0.5039
  455MOL0     H60038   6.158   3.284   6.687 -2.3894 -0.4989 -0.7139
  455MOL0     H60039   6.170   3.459   6.671  1.0145 -0.1050 -0.1543
  455MOL0     H60040   5.974   3.301   6.522 -0.3035  0.3977 -1.7489
  455MOL0     H60041   6.018   3.484   6.505 -1.8193  0.8831  0.9512
  455MOL0     H60042   6.817   3.617   6.835 -1.5366 -0.4604  0.8018
  455MOL0     H60043   6.998   3.737   6.927  3.4210  0.1295  0.7586
  455MOL0     H60044   7.493   3.782   7.005  0.6872  0.0614 -0.0840
  455MOL0     H60045   7.683   3.874   7.140  0.0911  2.5615  1.1830
  455MOL0     H60046   9.575   3.879   7.239 -0.6522  0.4604 -0.1599
  455MOL0     H60047   9.803   3.963   7.335 -1.3535 -0.1461  0.1687
  455MOL0     H60048  10.028   3.732   7.778 -0.3956  1.4772  1.1454
  455MOL0     H60049  10.263   3.734   7.855 -0.4915  1.4291  2.3335
  455MOL0     H60050  10.449   3.765   7.905 -0.3949 -0.5524 -0.9494
  455MOL0     H60051  10.591   3.868   7.929 -1.4275  4.2055  0.7891
  455MOL0     H60052  10.655   3.819   7.686 -1.7972  0.0537 -2.5652
  455MOL0     H60053  10.641   3.675   7.785  1.6469 -0.0981 -1.8772
  455MOL0     H60054  10.432   3.771   7.587 -0.8634 -0.3713  0.2267
  455MOL0     H60055  10.413   3.631   7.707 -0.5588  0.8900 -0.2243
  455MOL0     H60056  10.463   3.534   7.491  0.8790  0.3438 -0.7973
  455MOL0     H60057  10.584   3.655   7.470 -2.7003 -0.0436 -1.3136
  455MOL0     H60058  10.786   3.383   7.718  1.3600  0.2650 -1.5140
  455MOL0     H60059  10.305   4.123   7.698 -0.7820  0.1914 -1.1094
  455MOL0     H60060  10.068   4.127   7.627  0.1812  0.2010 -0.2838
  456MOL0     O60061   5.899   8.008  10.984  0.6736  1.6186  0.1587
  456MOL0     C60062   5.979   7.934  10.919 -0.3878 -0.1576 -0.0272
  456MOL0     O60063   6.025   7.811  10.964 -0.2323  0.1152 -0.2394
  456MOL0     C60064   6.005   7.775  11.099 -0.0119  0.3495  0.4452
  456MOL0     C60065   6.028   7.640  11.132  0.3547  0.0327  0.3263
  456MOL0     C60066   6.027   7.587  11.262  0.0192 -0.0183 -0.0080
  456MOL0     C60067   6.020   7.675  11.368  0.0116 -0.0972  0.0050
  456MOL0     O60068   6.005   7.630  11.494 -0.1475  0.2739 -0.3907
  456MOL0     C60069   6.122   7.574  11.549 -0.3000 -1.0147  0.1062
  456MOL0     C60070   6.078   7.476  11.660  0.4457 -0.6800  0.1591
  456MOL0     C60071   5.993   7.356  11.606 -0.2085 -0.7545  0.1077
  456MOL0     C60072   6.007   7.230  11.687  0.0708 -0.3548 -0.1556
  456MOL0     C60073   5.908   7.121  11.644 -0.0025 -0.0475 -1.0280
  456MOL0     C60074   5.758   7.165  11.648  0.2310  0.0799 -0.6160
  456MOL0     C60075   5.662   7.047  11.629 -0.1235  0.7729 -0.2344
  456MOL0     C60076   5.526   7.107  11.574 -0.2351 -0.6145 -0.6210
  456MOL0     N60077   5.454   7.178  11.679 -0.2039 -0.3623 -0.6115
  456MOL0     C60078   5.388   7.109  11.782 -0.7523 -0.5115 -0.6088
  456MOL0     C60079   5.383   7.199  11.886  0.1948  0.0467  0.6671
  456MOL0     C60080   5.325   7.175  12.016  0.6846  0.7644 -0.3012
  456MOL0     C60081   5.161   7.173  12.008 -0.4372  0.2087 -0.5427
  456MOL0     C60082   5.085   7.152  12.135  0.3337  0.0035  1.0016
  456MOL0     C60083   4.942   7.187  12.127  0.4301 -0.3389  0.3113
  456MOL0     O60084   4.848   7.069  12.115  0.1741 -0.3361 -0.6941
  456MOL0     C60085   4.716   7.096  12.091 -0.8425 -0.0327 -0.3488
  456MOL0     C60086   4.650   7.224  12.096  0.2302 -0.3346  0.6924
  456MOL0     C60087   4.517   7.234  12.068 -0.3427  0.2960 -0.9963
  456MOL0     C60088   4.429   7.122  12.039  0.2424 -0.0831  0.0034
  456MOL0     C60089   4.283   7.130  12.011 -0.4383 -0.7445  0.9768
  456MOL0     O60090   4.230   7.027  11.947  0.0692 -0.1226  0.1946
  456MOL0     C60091   4.093   7.037  11.931 -0.0656 -0.2749  0.0830
  456MOL0     C60092   4.011   6.962  12.020  1.0684 -0.8392 -0.1224
  456MOL0     C60093   3.873   6.964  12.007 -0.3930 -0.2837  0.1595
  456MOL0     C60094   3.815   7.044  11.905 -0.4524 -0.4195 -0.4549
  456MOL0     O60095   3.681   7.049  11.872  0.0261 -0.0160 -0.0793
  456MOL0     C60096   3.578   6.977  11.937 -0.1152 -0.4611 -1.0200
  456MOL0     C60097   3.458   6.959  11.853 -0.5578 -0.0540  0.5122
  456MOL0     C60098   3.435   7.098  11.790  0.5419  0.7892 -0.2545
  456MOL0     C60099   3.295   7.119  11.735  0.3115 -0.7408 -0.1205
  456MOL0     C60100   3.247   7.007  11.634  1.1788  0.2339  0.6566
  456MOL0     C60101   3.116   7.052  11.567  0.2418 -1.3433  0.2222
  456MOL0     C60102   3.066   6.941  11.472  0.0790  0.8791  0.7526
  456MOL0     C60103   2.972   7.002  11.374 -0.1430 -0.7466  0.1183
  456MOL0    Cl60104   2.811   7.064  11.451 -0.1224 -0.3886 -0.1499
  456MOL0     C60105   3.901   7.129  11.820 -0.2634  0.1830 -0.4983
  456MOL0     C60106   4.037   7.110  11.828 -0.1813  0.0950 -0.8439
  456MOL0     O60107   4.223   7.226  12.061  0.7715 -0.1148  0.8507
  456MOL0     C60108   4.492   6.996  12.036 -0.5370  0.0989  0.1790
  456MOL0     C60109   4.636   6.986  12.067  0.3689  0.8284 -0.0691
  456MOL0     N60110   5.430   7.320  11.847 -0.0502  0.5450 -0.5662
  456MOL0     N60111   5.489   7.301  11.732 -0.5043  0.5857 -0.3814
  456MOL0     C60112   6.003   7.809  11.342  0.7838 -0.3949 -0.1930
  456MOL0     C60113   5.999   7.867  11.212  0.7724 -0.0281  0.4082
  456MOL0     C60114   6.031   7.977  10.783 -0.3962  1.3127 -0.1268
  456MOL0     C60115   6.062   7.885  10.682 -0.1432 -0.1387 -0.5581
  456MOL0     C60116   6.107   7.938  10.558 -0.5056  0.4722 -0.4156
  456MOL0     C60117   6.121   8.078  10.530 -0.3019 -0.1012 -0.6384
  456MOL0     O60118   6.162   8.125  10.406  0.0288  0.0752  0.1026
  456MOL0     C60119   6.207   8.026  10.310  0.2463 -0.0547  0.3688
  456MOL0     C60120   6.264   8.087  10.180 -0.2943 -0.0092  0.0382
  456MOL0     C60121   6.336   7.996  10.081  0.9356 -0.4825  0.3341
  456MOL0     C60122   6.415   8.082   9.975  0.0214  0.4314 -0.4625
  456MOL0     C60123   6.557   8.086  10.004 -0.0004 -0.2669 -1.0090
  456MOL0     C60124   6.664   8.077  10.056 -0.9739  0.6868  1.0124
  456MOL0     C60125   6.081   8.163  10.636  0.2582  0.6775  0.6953
  456MOL0     C60126   6.045   8.113  10.761 -0.3567  0.3724 -0.1362
  456MOL0     H60127   6.042   7.568  11.052  0.4429 -1.4497  1.6233
  456MOL0     H60128   6.048   7.483  11.286 -4.0276 -0.6042  1.6290
  456MOL0     H60129   6.183   7.651  11.598  2.8941 -2.4026 -1.4127
  456MOL0     H60130   6.185   7.518  11.480 -1.1625 -1.4349 -0.3641
  456MOL0     H60131   6.022   7.530  11.737  0.6873  1.4105 -1.0628
  456MOL0     H60132   6.173   7.450  11.707  2.6239  2.5301 -2.0293
  456MOL0     H60133   6.012   7.342  11.499  2.1588  2.7843 -0.1470
  456MOL0     H60134   5.887   7.377  11.621 -0.4161 -2.7375  1.7307
  456MOL0     H60135   6.109   7.192  11.678  0.3367  0.1698  0.6091
  456MOL0     H60136   5.991   7.258  11.791  2.3349  3.1266 -0.5822
  456MOL0     H60137   5.918   7.030  11.705 -0.7166 -0.9393 -2.1828
  456MOL0     H60138   5.933   7.075  11.547 -0.2614 -0.7879 -0.7562
  456MOL0     H60139   5.743   7.234  11.564  1.7961  2.2499  0.7695
  456MOL0     H60140   5.740   7.222  11.740 -0.7184  0.8736 -1.2759
  456MOL0     H60141   5.698   6.974  11.556 -0.9648  1.1287 -1.0226
  456MOL0     H60142   5.652   6.996  11.726  1.2196 -0.0800 -0.5196
  456MOL0     H60143   5.453   7.033  11.541 -1.7080  0.9840 -1.1289
  456MOL0     H60144   5.548   7.165  11.484 -1.6318 -0.3100 -0.7934
  456MOL0     H60145   5.359   7.004  11.785 -1.5893 -0.3812 -2.4438
  456MOL0     H60146   5.349   7.242  12.098  0.9240 -1.2149  1.3413
  456MOL0     H60147   5.360   7.075  12.043 -1.3515  0.0919  0.0280
  456MOL0     H60148   5.140   7.097  11.932  3.2640 -0.4984 -1.0721
  456MOL0     H60149   5.137   7.275  11.977  1.4342  1.3896  1.5803
  456MOL0     H60150   5.093   7.050  12.174 -1.9693 -0.1416  1.2435
  456MOL0     H60151   5.129   7.230  12.198 -0.7859  2.7689 -1.4421
  456MOL0     H60152   4.933   7.245  12.035  0.2610 -0.7571  0.0599
  456MOL0     H60153   4.908   7.254  12.206  2.1245 -0.7837  1.4753
  456MOL0     H60154   4.707   7.317  12.102 -2.0488  1.3626 -1.6198
  456MOL0     H60155   4.493   7.339  12.060 -0.8845  0.3381  0.7865
  456MOL0     H60156   4.053   6.908  12.104  3.9561 -1.0967 -1.6385
  456MOL0     H60157   3.805   6.910  12.072 -0.8466  0.0936  0.0065
  456MOL0     H60158   3.539   7.023  12.028 -1.3198 -3.2807 -0.0025
  456MOL0     H60159   3.618   6.886  11.982  1.8983  1.7705  2.1023
  456MOL0     H60160   3.367   6.924  11.904 -0.0805 -1.7356  0.2772
  456MOL0     H60161   3.475   6.884  11.775  2.7441  0.0240  1.0209
  456MOL0     H60162   3.503   7.119  11.708 -1.4782 -0.4348 -2.3743
  456MOL0     H60163   3.456   7.173  11.866 -1.8130 -0.2463  1.5675
  456MOL0     H60164   3.226   7.111  11.819  1.6091 -0.9189  0.9610
  456MOL0     H60165   3.293   7.219  11.691 -0.5794  0.6647  2.8708
  456MOL0     H60166   3.233   6.913  11.688  0.9331 -0.4679 -0.5824
  456MOL0     H60167   3.333   6.984  11.570  0.1679 -1.7015 -0.0758
  456MOL0     H60168   3.130   7.147  11.515 -1.4310 -0.6525  0.9730
  456MOL0     H60169   3.044   7.071  11.646 -0.9402 -1.7650 -0.7251
  456MOL0     H60170   3.156   6.903  11.422  0.3414  0.1799  1.7210
  456MOL0     H60171   3.009   6.865  11.526 -2.7639  2.3561 -0.0113
  456MOL0     H60172   2.933   6.921  11.312  2.2663 -0.5954 -1.7454
  456MOL0     H60173   3.016   7.082  11.313 -0.9664  1.2702  2.0427
  456MOL0     H60174   3.851   7.178  11.737  1.7462  0.4343 -1.6250
  456MOL0     H60175   4.110   7.162  11.767  1.8914 -0.8792  0.6790
  456MOL0     H60176   4.429   6.909  12.022 -2.2442  1.4745 -1.0901
  456MOL0     H60177   4.676   6.885  12.073  0.5207  0.8005 -1.3185
  456MOL0     H60178   5.996   7.880  11.423  0.1894  1.8408 -2.1175
  456MOL0     H60179   5.987   7.975  11.202  2.2007 -0.0312 -2.7595
  456MOL0     H60180   6.040   7.783  10.714 -0.4519  0.8180  2.5866
  456MOL0     H60181   6.135   7.863  10.484  0.1645  2.7378 -2.5872
  456MOL0     H60182   6.124   7.958  10.290  0.3183 -0.6855  2.0296
  456MOL0     H60183   6.286   7.962  10.350 -0.1434  0.0965  1.4156
  456MOL0     H60184   6.195   8.153  10.127  1.0488  0.8409 -0.7122
  456MOL0     H60185   6.341   8.156  10.216 -1.2250 -0.0286  2.2289
  456MOL0     H60186   6.244   7.950  10.042  1.4582 -1.2485 -0.0178
  456MOL0     H60187   6.394   7.908  10.110 -2.0684 -3.1630 -1.0736
  456MOL0     H60188   6.400   8.031   9.880  0.3373 -1.9249  0.6697
  456MOL0     H60189   6.378   8.185   9.972 -2.5546 -0.3856  0.4286
  456MOL0     H60190   6.764   8.059  10.087 -0.5014 -1.0262 -1.2816
  456MOL0     H60191   6.087   8.266  10.602 -1.6548  0.1651 -1.4360
  456MOL0     H60192   6.002   8.179  10.835 -3.5085 -2.4597  0.7968
  457MOL0     O60193  11.004   4.755   8.747 -0.4700 -0.8448  0.3373
  457MOL0     C60194  11.028   4.871   8.693  0.1687  0.5670  0.3418
  457MOL0     O60195  10.956   4.928   8.597 -0.4091  0.2854  0.4783
  457MOL0     C60196  10.842   4.868   8.555  0.2511  0.2721  0.6101
  457MOL0     C60197  10.831   4.859   8.409  1.2491  0.5479  0.3739
  457MOL0     C60198  10.706   4.814   8.355 -0.3473 -0.0172  0.0298
  457MOL0     C60199  10.611   4.765   8.440 -0.5187 -0.1571  0.0659
  457MOL0     O60200  10.503   4.703   8.375 -0.3618  0.4676  0.4425
  457MOL0     C60201  10.474   4.560   8.399 -0.1464 -0.2262  0.0141
  457MOL0     C60202  10.406   4.523   8.270  0.3092  0.1626 -0.6225
  457MOL0     C60203  10.342   4.382   8.266 -0.4664  0.2614 -1.0777
  457MOL0     C60204  10.237   4.358   8.162  0.5492 -0.1005 -0.2988
  457MOL0     C60205  10.192   4.213   8.150 -0.8861  0.7086  0.0369
  457MOL0     C60206  10.068   4.167   8.061  0.3693 -0.1720  0.5006
  457MOL0     C60207  10.034   4.027   8.078 -0.5216  0.5367  0.2925
  457MOL0     C60208  10.011   3.974   8.219  0.5614  0.0689  0.4304
  457MOL0     N60209   9.894   4.041   8.280 -0.2084  0.2244 -0.0813
  457MOL0     C60210   9.761   4.014   8.264 -0.4794 -0.7790  0.2145
  457MOL0     C60211   9.696   4.104   8.343  0.9552 -0.0776  0.9995
  457MOL0     C60212   9.544   4.112   8.365  0.3410  0.0109 -0.8007
  457MOL0     C60213   9.487   4.255   8.397 -0.0425 -0.2000  0.1089
  457MOL0     C60214   9.481   4.270   8.550  0.5746 -0.1626 -0.9384
  457MOL0     C60215   9.427   4.413   8.576  0.2130  0.3024 -0.9263
  457MOL0     O60216   9.304   4.441   8.514  0.4309 -0.4722 -0.9833
  457MOL0     C60217   9.193   4.371   8.567  0.5242  0.0455 -0.1495
  457MOL0     C60218   9.148   4.244   8.523  0.1160 -0.2978  0.4009
  457MOL0     C60219   9.027   4.196   8.565 -0.6409 -0.1138 -1.1345
  457MOL0     C60220   8.936   4.268   8.646 -0.3827 -0.0475  0.7526
  457MOL0     C60221   8.813   4.207   8.687  0.7069  0.9171  0.1263
  457MOL0     O60222   8.713   4.289   8.734  0.7285 -0.0351  0.8057
  457MOL0     C60223   8.595   4.221   8.768 -0.1278 -0.0237  0.1373
  457MOL0     C60224   8.527   4.256   8.890 -0.3268  0.2987  0.0352
  457MOL0     C60225   8.403   4.202   8.934  0.9913 -0.1004  0.1231
  457MOL0     C60226   8.336   4.114   8.843 -0.0250 -0.1416  0.0921
  457MOL0     O60227   8.208   4.088   8.885  0.3004 -0.4112 -0.3153
  457MOL0     C60228   8.107   4.074   8.786  0.9168 -0.4971  0.0791
  457MOL0     C60229   7.965   4.094   8.843 -0.3102 -0.2457  0.4414
  457MOL0     C60230   7.861   4.104   8.726  0.7681  0.1886  0.7503
  457MOL0     C60231   7.721   4.106   8.790  0.2211 -0.1165  0.4328
  457MOL0     C60232   7.696   4.240   8.855  0.3329 -0.6461  0.4274
  457MOL0     C60233   7.558   4.246   8.921  0.4375 -0.2069 -0.4224
  457MOL0     C60234   7.508   4.381   8.969 -0.8056  0.0813  0.0976
  457MOL0     C60235   7.363   4.374   9.006  0.6134  0.9130  0.5547
  457MOL0    Cl60236   7.247   4.300   8.886 -0.6241 -0.0193 -0.2612
  457MOL0     C60237   8.400   4.085   8.716  0.5050  0.4881  1.1646
  457MOL0     C60238   8.527   4.137   8.677  0.8204  0.0001 -0.6169
  457MOL0     O60239   8.811   4.082   8.696 -0.2147  0.1936 -0.0459
  457MOL0     C60240   8.989   4.391   8.692 -0.2296  0.0645 -0.4980
  457MOL0     C60241   9.113   4.447   8.656 -0.3375  0.3221 -0.5957
  457MOL0     N60242   9.794   4.175   8.417  0.4850 -0.1960  0.5092
  457MOL0     N60243   9.912   4.138   8.383  0.0421  0.7151 -0.4100
  457MOL0     C60244  10.627   4.767   8.578 -0.6134  0.3054  0.6080
  457MOL0     C60245  10.742   4.815   8.638 -0.2765  0.1020  0.3825
  457MOL0     C60246  11.150   4.936   8.735 -0.0154  0.7555 -0.2160
  457MOL0     C60247  11.200   5.055   8.674 -0.9731 -0.7071  0.0645
  457MOL0     C60248  11.308   5.121   8.735  0.3739 -0.8793  0.4907
  457MOL0     C60249  11.385   5.061   8.842 -0.2790 -0.6039  0.3779
  457MOL0     O60250  11.496   5.118   8.891  0.3593 -0.0386  0.3470
  457MOL0     C60251  11.596   5.177   8.802  0.2822  0.2149  0.5087
  457MOL0     C60252  11.717   5.206   8.882 -0.1726  0.3660 -0.0160
  457MOL0     C60253  11.812   5.290   8.798 -0.4758 -0.4278 -0.5835
  457MOL0     C60254  11.949   5.238   8.810 -0.9356 -0.3623  0.0808
  457MOL0     C60255  12.038   5.308   8.716  0.8727 -0.1159 -0.4641
  457MOL0     C60256  12.081   5.348   8.610 -0.1362  0.4789  0.5127
  457MOL0     C60257  11.344   4.943   8.899 -0.1270  0.1708  0.6244
  457MOL0     C60258  11.228   4.889   8.844 -0.1654 -0.3211 -0.1681
  457MOL0     H60259  10.912   4.893   8.345  2.3528  0.2943  1.5977
  457MOL0     H60260  10.687   4.821   8.249 -0.7788 -1.3748 -0.0061
  457MOL0     H60261  10.411   4.554   8.488  2.6597  0.1402  2.1792
  457MOL0     H60262  10.564   4.498   8.414 -1.0511 -1.9559 -1.3936
  457MOL0     H60263  10.480   4.522   8.189 -0.9735  1.2818 -1.8492
  457MOL0     H60264  10.325   4.592   8.248  0.4728 -0.2736 -2.8173
  457MOL0     H60265  10.304   4.357   8.365 -1.4179 -2.0298 -1.9294
  457MOL0     H60266  10.420   4.307   8.249 -0.0267  1.1650 -3.4294
  457MOL0     H60267  10.147   4.418   8.175 -1.7499 -3.0021 -1.5154
  457MOL0     H60268  10.276   4.382   8.063 -0.1449  0.3084 -0.4788
  457MOL0     H60269  10.170   4.189   8.255 -1.1248  1.6204  0.2056
  457MOL0     H60270  10.279   4.151   8.128  0.2871  0.9905  3.3146
  457MOL0     H60271  10.080   4.188   7.954  0.8290 -1.6084  0.2514
  457MOL0     H60272   9.984   4.231   8.088 -1.3699 -1.5946 -1.2569
  457MOL0     H60273   9.948   3.997   8.017 -0.0683  1.0063 -0.5848
  457MOL0     H60274  10.115   3.978   8.023 -1.0170 -1.1920  1.0283
  457MOL0     H60275  10.099   3.993   8.280  0.1538  0.3947  0.9315
  457MOL0     H60276   9.981   3.869   8.211 -2.6914  1.0395 -4.6540
  457MOL0     H60277   9.708   3.941   8.203 -0.6635  0.1611 -0.7954
  457MOL0     H60278   9.515   4.041   8.442 -3.3267  1.2394 -0.8478
  457MOL0     H60279   9.494   4.079   8.273  1.0843  0.2459 -1.3030
  457MOL0     H60280   9.391   4.276   8.348  0.0351  1.6057  0.6392
  457MOL0     H60281   9.561   4.329   8.366 -0.3337  0.1051  0.1410
  457MOL0     H60282   9.414   4.194   8.590  1.3951 -1.0471 -1.2201
  457MOL0     H60283   9.578   4.250   8.595 -0.9012 -0.7278  2.2920
  457MOL0     H60284   9.498   4.491   8.546  1.7563 -0.9777 -0.6835
  457MOL0     H60285   9.406   4.416   8.683 -2.2194 -1.7549 -1.2466
  457MOL0     H60286   9.208   4.192   8.449 -0.3825 -1.8340  1.0358
  457MOL0     H60287   8.992   4.100   8.526 -2.2748  0.6543 -1.6452
  457MOL0     H60288   8.571   4.334   8.951 -1.5332  0.8670  0.2231
  457MOL0     H60289   8.367   4.238   9.030  0.1482  5.7481 -1.9607
  457MOL0     H60290   8.120   3.972   8.750  1.0471 -0.5889  0.3787
  457MOL0     H60291   8.120   4.147   8.706  1.6025 -2.2935 -1.5246
  457MOL0     H60292   7.963   4.178   8.914 -2.5972 -1.5516  2.0587
  457MOL0     H60293   7.946   4.004   8.903  0.5241  0.9403  2.6078
  457MOL0     H60294   7.858   4.019   8.658 -1.1848  0.1902  0.7746
  457MOL0     H60295   7.874   4.197   8.670  2.0283  0.3044  1.2023
  457MOL0     H60296   7.652   4.086   8.707  0.4957 -0.0170  0.1768
  457MOL0     H60297   7.716   4.033   8.871  0.8144 -0.3273  0.2890
  457MOL0     H60298   7.701   4.327   8.788 -2.1721 -0.4019  0.4789
  457MOL0     H60299   7.763   4.262   8.939 -0.6645  1.7117  0.6779
  457MOL0     H60300   7.548   4.178   9.006  1.3479 -1.0008 -0.9361
  457MOL0     H60301   7.483   4.219   8.847  0.8105  0.2733 -0.9850
  457MOL0     H60302   7.563   4.413   9.058 -0.6635  1.3947 -0.4384
  457MOL0     H60303   7.521   4.442   8.879 -2.4425 -0.5737 -0.6277
  457MOL0     H60304   7.322   4.470   9.038 -1.8658  0.0208  0.3457
  457MOL0     H60305   7.355   4.305   9.091 -2.4928 -0.8179 -0.9360
  457MOL0     H60306   8.334   4.033   8.647 -1.6989  1.6681  2.2874
  457MOL0     H60307   8.556   4.104   8.578  0.8723 -0.8198 -0.3354
  457MOL0     H60308   8.927   4.444   8.764  0.7088 -0.8652  1.0566
  457MOL0     H60309   9.137   4.543   8.701 -1.0007  0.7615 -1.1592
  457MOL0     H60310  10.558   4.714   8.643  1.5818  0.4860  3.2774
  457MOL0     H60311  10.740   4.817   8.747 -0.0988 -0.2601  0.3961
  457MOL0     H60312  11.155   5.097   8.584 -1.5667  1.6551  1.3661
  457MOL0     H60313  11.341   5.217   8.694  3.1808 -1.6337  0.7504
  457MOL0     H60314  11.554   5.269   8.759 -0.9149 -1.4619 -2.1320
  457MOL0     H60315  11.611   5.115   8.713 -3.0773 -0.0127 -0.0550
  457MOL0     H60316  11.700   5.263   8.973 -0.1607  3.5587 -1.8884
  457MOL0     H60317  11.770   5.114   8.909  1.4595  0.4954 -2.4506
  457MOL0     H60318  11.815   5.394   8.831  3.2355 -0.7708  0.5709
  457MOL0     H60319  11.788   5.286   8.691  2.3488 -1.3326 -1.2709
  457MOL0     H60320  12.001   5.260   8.903  1.0018 -1.0267 -0.7789
  457MOL0     H60321  11.954   5.130   8.791 -0.2723 -0.4729  0.8582
  457MOL0     H60322  12.118   5.386   8.516 -0.3303 -2.3965 -0.8133
  457MOL0     H60323  11.404   4.888   8.970  0.3512 -0.1853 -0.0436
  457MOL0     H60324  11.191   4.792   8.878 -0.5489 -1.2197 -2.9174
  458MOL0     O60325   2.595   2.127   3.296  0.3676 -0.9421 -0.7851
  458MOL0     C60326   2.498   2.200   3.265 -0.1207 -0.8948  0.1905
  458MOL0     O60327   2.495   2.285   3.158  0.4946  0.0206  0.0703
  458MOL0     C60328   2.611   2.284   3.076  0.7281  0.2601 -0.6229
  458MOL0     C60329   2.645   2.186   2.979 -0.2152  0.4299  0.7320
  458MOL0     C60330   2.753   2.205   2.895 -0.7291  0.2580  0.4602
  458MOL0     C60331   2.840   2.318   2.917 -0.1388 -0.0708 -0.7663
  458MOL0     O60332   2.960   2.339   2.845 -0.1018  0.0805 -1.0273
  458MOL0     C60333   3.042   2.227   2.813 -0.0162 -0.1137 -0.1473
  458MOL0     C60334   3.172   2.292   2.754  0.0457 -0.2346 -0.7646
  458MOL0     C60335   3.290   2.195   2.757 -0.1048  0.6664  0.7618
  458MOL0     C60336   3.417   2.249   2.683  0.4430 -0.1990  0.4905
  458MOL0     C60337   3.535   2.165   2.695 -0.4262  0.0595  0.3831
  458MOL0     C60338   3.619   2.194   2.817 -0.2634 -0.0541 -0.4891
  458MOL0     C60339   3.755   2.104   2.804 -0.1414 -0.0431 -0.0722
  458MOL0     C60340   3.869   2.193   2.744  0.1750  0.6607 -0.9452
  458MOL0     N60341   3.866   2.200   2.600  0.0781 -0.7666  0.1553
  458MOL0     C60342   3.865   2.083   2.517  0.3941  0.1100  0.6641
  458MOL0     C60343   3.832   2.132   2.388  0.2174  0.6060 -0.0922
  458MOL0     C60344   3.806   2.053   2.261 -0.1718 -0.5025  0.4105
  458MOL0     C60345   3.671   1.981   2.255 -0.5224 -0.2335 -0.3661
  458MOL0     C60346   3.577   2.045   2.157  0.2898 -0.1706  0.6104
  458MOL0     C60347   3.441   1.995   2.185  0.1502  0.3060 -0.4372
  458MOL0     O60348   3.425   1.851   2.171 -0.1584  0.1604 -0.3524
  458MOL0     C60349   3.305   1.813   2.122 -0.0132  0.9660  0.2265
  458MOL0     C60350   3.296   1.710   2.033 -0.4840  0.5496 -1.4480
  458MOL0     C60351   3.175   1.668   1.977  0.5086 -0.3541  0.5204
  458MOL0     C60352   3.051   1.714   2.032  0.4078  0.8336  0.4827
  458MOL0     C60353   2.916   1.654   1.987 -0.4725  0.3901 -0.3361
  458MOL0     O60354   2.905   1.576   1.876  0.0536  0.4930 -0.3442
  458MOL0     C60355   2.780   1.533   1.830 -0.3064 -0.3164 -0.1700
  458MOL0     C60356   2.789   1.417   1.749  0.6428 -0.2821 -0.2471
  458MOL0     C60357   2.674   1.367   1.683  1.0056  1.3758 -0.0747
  458MOL0     C60358   2.553   1.431   1.691  0.4635  0.5918  0.6039
  458MOL0     O60359   2.438   1.386   1.631 -0.5684 -0.1588 -0.6987
  458MOL0     C60360   2.423   1.247   1.586 -0.2023 -0.3664 -0.2526
  458MOL0     C60361   2.280   1.247   1.523 -0.9007  0.1597  0.5778
  458MOL0     C60362   2.161   1.279   1.625 -0.5897  0.7136 -0.2570
  458MOL0     C60363   2.163   1.183   1.753 -0.1303 -0.4174  0.3191
  458MOL0     C60364   2.038   1.184   1.838 -1.0517 -1.2684  0.0598
  458MOL0     C60365   1.915   1.120   1.765  0.0969 -0.2384  0.1142
  458MOL0     C60366   1.769   1.130   1.836 -0.4355 -0.1572 -0.0439
  458MOL0     C60367   1.677   1.043   1.758 -0.0576  0.0179 -0.3476
  458MOL0    Cl60368   1.643   1.092   1.594  0.4709 -0.0382  0.2144
  458MOL0     C60369   2.546   1.557   1.761  0.0214  0.0879 -0.5881
  458MOL0     C60370   2.663   1.609   1.832 -0.1809 -0.4643  0.4551
  458MOL0     O60371   2.823   1.674   2.064  0.5745 -0.6056  0.5489
  458MOL0     C60372   3.058   1.807   2.130 -0.0276  0.1577  0.0552
  458MOL0     C60373   3.184   1.870   2.165  0.0460  1.1320  0.1297
  458MOL0     N60374   3.820   2.264   2.394 -0.2452  0.2608  0.4021
  458MOL0     N60375   3.845   2.304   2.518  1.0678  0.0805 -0.0451
  458MOL0     C60376   2.798   2.415   3.017 -0.6779  0.7146 -1.1412
  458MOL0     C60377   2.693   2.391   3.101  0.1627 -0.4223 -0.2394
  458MOL0     C60378   2.383   2.197   3.358 -1.2854  0.2851 -0.7087
  458MOL0     C60379   2.345   2.090   3.445  0.2855 -0.4700  0.9206
  458MOL0     C60380   2.217   2.097   3.510 -0.3841  1.2752 -0.6390
  458MOL0     C60381   2.128   2.204   3.490  0.6863  0.7090 -0.5181
  458MOL0     O60382   1.999   2.221   3.538 -0.1554  0.4598  0.9118
  458MOL0     C60383   1.957   2.134   3.638  0.9747  0.1246 -0.7521
  458MOL0     C60384   2.023   2.164   3.769 -0.2293  0.1683 -1.1119
  458MOL0     C60385   1.999   2.051   3.870 -0.5991  0.5036 -0.7803
  458MOL0     C60386   2.107   2.046   3.979  0.0313 -0.5354 -0.4004
  458MOL0     C60387   2.236   1.999   3.940 -0.5201  0.9316  0.1729
  458MOL0     C60388   2.344   1.949   3.914 -0.1130  0.2914  0.1200
  458MOL0     C60389   2.169   2.311   3.409  0.1835  0.0849 -0.0447
  458MOL0     C60390   2.286   2.299   3.341 -0.3044 -1.1891  1.0692
  458MOL0     H60391   2.588   2.095   2.966  0.3639  0.3284 -1.3495
  458MOL0     H60392   2.792   2.123   2.836 -1.0306 -0.7894  1.6845
  458MOL0     H60393   2.996   2.155   2.745 -0.5870  0.7602 -0.7003
  458MOL0     H60394   3.081   2.176   2.901  2.2725 -2.3727 -2.3118
  458MOL0     H60395   3.192   2.382   2.812  1.2792 -1.4346  0.7789
  458MOL0     H60396   3.170   2.324   2.649 -0.5494 -1.7022 -1.2286
  458MOL0     H60397   3.251   2.105   2.709  0.6558 -0.1386  1.6409
  458MOL0     H60398   3.311   2.178   2.863  0.7821 -2.1971  0.2061
  458MOL0     H60399   3.388   2.272   2.580  1.5539  0.0967  0.2263
  458MOL0     H60400   3.436   2.342   2.738  0.7387 -1.5804  2.8733
  458MOL0     H60401   3.599   2.193   2.611  0.7360  2.1498  1.8788
  458MOL0     H60402   3.511   2.058   2.698 -0.9934  0.0754 -1.6981
  458MOL0     H60403   3.570   2.167   2.911 -4.8419  0.2024 -2.5320
  458MOL0     H60404   3.650   2.299   2.821  0.1681 -0.1813 -0.3883
  458MOL0     H60405   3.794   2.062   2.897 -0.9437 -0.6501 -0.0032
  458MOL0     H60406   3.733   2.011   2.751 -2.6838  0.2393  0.3685
  458MOL0     H60407   3.958   2.136   2.771 -1.6174 -0.8662  2.4007
  458MOL0     H60408   3.859   2.287   2.798 -1.6142 -1.0246  1.8975
  458MOL0     H60409   3.855   1.981   2.551  1.5182  0.1508  1.1609
  458MOL0     H60410   3.885   1.977   2.250  0.2138 -0.1556  0.7453
  458MOL0     H60411   3.822   2.112   2.171  0.2539 -0.5582  0.4473
  458MOL0     H60412   3.627   1.991   2.354 -1.5872 -0.0829 -0.8480
  458MOL0     H60413   3.678   1.873   2.236 -0.4111 -0.6689  1.8697
  458MOL0     H60414   3.589   2.153   2.154 -0.3730 -0.1062 -1.2657
  458MOL0     H60415   3.609   2.012   2.057  0.4819 -0.2596  0.7017
  458MOL0     H60416   3.373   2.034   2.109  0.9978 -0.9963 -1.9295
  458MOL0     H60417   3.413   2.036   2.283 -1.8952  0.6926 -1.1474
  458MOL0     H60418   3.386   1.661   1.997  0.3653  1.1949 -0.2739
  458MOL0     H60419   3.184   1.590   1.901 -3.2412  0.4080 -0.9125
  458MOL0     H60420   2.881   1.360   1.749  1.1620  0.4928  1.5924
  458MOL0     H60421   2.686   1.269   1.639  2.4348  2.1051 -1.4173
  458MOL0     H60422   2.436   1.169   1.661  1.0944  0.0013 -0.0797
  458MOL0     H60423   2.500   1.226   1.511 -2.0349 -0.0470 -2.3566
  458MOL0     H60424   2.262   1.148   1.481 -1.7215  0.8311 -0.6882
  458MOL0     H60425   2.288   1.322   1.444  0.5257  0.6255  1.1333
  458MOL0     H60426   2.062   1.269   1.580 -0.5157  3.0273 -1.0794
  458MOL0     H60427   2.175   1.384   1.653  0.2789  0.1023  1.8150
  458MOL0     H60428   2.183   1.082   1.716 -2.3819 -0.2664 -1.5491
  458MOL0     H60429   2.250   1.209   1.815  1.2761  1.2686 -2.2001
  458MOL0     H60430   2.015   1.291   1.847  0.0159 -0.4615 -4.2161
  458MOL0     H60431   2.063   1.146   1.937  1.0686 -2.8745 -0.9978
  458MOL0     H60432   1.938   1.015   1.745 -4.2862 -0.7544 -4.1390
  458MOL0     H60433   1.904   1.163   1.665  0.6830 -4.8147 -2.1920
  458MOL0     H60434   1.773   1.094   1.940  0.3632  0.9258  0.3194
  458MOL0     H60435   1.739   1.235   1.831  1.3142  0.5433  2.2684
  458MOL0     H60436   1.578   1.047   1.805 -0.1305 -2.6964 -0.1210
  458MOL0     H60437   1.705   0.939   1.776  0.3406  0.4949  2.2124
  458MOL0     H60438   2.456   1.615   1.744 -0.1478  0.4405  1.3166
  458MOL0     H60439   2.654   1.707   1.878 -1.4356  0.0542 -0.8640
  458MOL0     H60440   2.969   1.850   2.175  0.1327  1.4768 -0.8458
  458MOL0     H60441   3.186   1.958   2.228  1.4992  2.4245 -1.5663
  458MOL0     H60442   2.863   2.502   3.028  2.5692 -1.4969 -1.5101
  458MOL0     H60443   2.675   2.430   3.201  2.6660 -1.9067  0.9016
  458MOL0     H60444   2.408   2.004   3.466  1.3181 -0.1363 -0.6312
  458MOL0     H60445   2.193   2.005   3.561 -1.2260  1.6421 -0.3664
  458MOL0     H60446   1.976   2.029   3.612  1.7898 -0.5987  2.3597
  458MOL0     H60447   1.853   2.161   3.659  1.8088  1.8169  1.6750
  458MOL0     H60448   2.132   2.162   3.760  0.0642 -1.3953  1.6809
  458MOL0     H60449   1.982   2.256   3.812  0.4388 -0.8773  2.0024
  458MOL0     H60450   2.000   1.951   3.825 -0.7935  0.4258 -0.6149
  458MOL0     H60451   1.902   2.074   3.916 -0.2664  0.6923 -0.1645
  458MOL0     H60452   2.124   2.142   4.029  0.6858 -0.6395 -0.4150
  458MOL0     H60453   2.071   1.985   4.063  0.5215  2.4014  2.1021
  458MOL0     H60454   2.443   1.916   3.891 -0.9646 -1.4315 -1.2782
  458MOL0     H60455   2.102   2.392   3.383  1.3910  0.1603 -3.4201
  458MOL0     H60456   2.298   2.364   3.254 -1.3379 -1.6242  0.5875
  459MOL0     O60457   3.868   3.898   3.019  0.1844 -0.2772  0.7575
  459MOL0     C60458   3.924   3.929   3.121  0.8403  0.4775  0.4461
  459MOL0     O60459   3.859   3.978   3.230  0.0210 -0.0748 -0.0687
  459MOL0     C60460   3.727   4.001   3.215 -0.5196 -0.6126 -0.1962
  459MOL0     C60461   3.676   4.113   3.152  0.6053  0.4480  0.4249
  459MOL0     C60462   3.537   4.141   3.156  0.8624  1.4302 -0.4110
  459MOL0     C60463   3.452   4.055   3.232 -0.7536  0.4594 -0.2341
  459MOL0     O60464   3.319   4.083   3.237 -0.0413  0.2938  0.0362
  459MOL0     C60465   3.232   3.993   3.306 -0.7363  0.3683  0.5041
  459MOL0     C60466   3.107   4.077   3.317 -0.9207 -1.0368 -0.0010
  459MOL0     C60467   2.983   3.998   3.348  0.3305 -0.2674 -0.2605
  459MOL0     C60468   2.857   4.089   3.352 -0.1456  0.1631 -0.2020
  459MOL0     C60469   2.848   4.186   3.469  0.6357 -0.4333  0.1877
  459MOL0     C60470   2.704   4.236   3.485  0.4198  0.4908 -0.2598
  459MOL0     C60471   2.623   4.260   3.358 -0.8846 -0.0625 -0.6353
  459MOL0     C60472   2.515   4.367   3.378 -0.3895 -0.4783 -0.3619
  459MOL0     N60473   2.417   4.381   3.275  0.6057  0.5244 -0.1400
  459MOL0     C60474   2.380   4.284   3.189 -0.2688 -0.8522 -0.4218
  459MOL0     C60475   2.265   4.334   3.134  0.8528  0.6236  0.3017
  459MOL0     C60476   2.199   4.267   3.012  0.4640 -0.6534  0.3968
  459MOL0     C60477   2.142   4.367   2.916  0.2685  0.4962 -0.8270
  459MOL0     C60478   2.149   4.348   2.769  0.6941 -0.8550  0.1224
  459MOL0     C60479   2.047   4.240   2.725  0.4193  0.6533 -0.1234
  459MOL0     O60480   1.908   4.268   2.744  0.2757 -1.0002  0.4927
  459MOL0     C60481   1.833   4.187   2.658 -1.0254 -0.3429  0.2214
  459MOL0     C60482   1.834   4.049   2.692  0.2294  0.1388  0.7075
  459MOL0     C60483   1.751   3.960   2.621 -0.1724 -0.3969  0.3597
  459MOL0     C60484   1.667   4.005   2.517 -0.0241  0.4987  0.0155
  459MOL0     C60485   1.587   3.911   2.446 -0.8704 -0.6432 -0.7513
  459MOL0     O60486   1.549   3.946   2.324  0.0836 -0.0571  0.9378
  459MOL0     C60487   1.466   3.859   2.257 -0.2291  0.4644 -1.0635
  459MOL0     C60488   1.521   3.742   2.195  0.0662 -0.4339  0.9649
  459MOL0     C60489   1.447   3.649   2.134  0.4866 -0.8233 -0.1447
  459MOL0     C60490   1.303   3.669   2.121  0.2923 -0.3400 -0.2424
  459MOL0     O60491   1.221   3.593   2.036  0.5132 -0.5352 -0.3652
  459MOL0     C60492   1.280   3.479   1.972  0.5232 -0.2228 -0.1502
  459MOL0     C60493   1.175   3.421   1.882  0.2672 -0.1310 -0.5772
  459MOL0     C60494   1.207   3.276   1.849  0.4052  0.2625 -0.2640
  459MOL0     C60495   1.141   3.184   1.952  0.6352 -0.3827 -1.4697
  459MOL0     C60496   1.180   3.030   1.951  0.1701  0.4248 -0.3086
  459MOL0     C60497   1.337   3.016   1.966  0.4071 -0.4053 -0.6017
  459MOL0     C60498   1.386   3.067   2.104 -1.3595  0.0221  0.4159
  459MOL0     C60499   1.530   3.123   2.083 -0.5582  0.2580  0.4929
  459MOL0    Cl60500   1.568   3.214   2.226  0.0553  0.6364  0.1730
  459MOL0     C60501   1.247   3.783   2.187  0.3437 -0.0417 -0.0736
  459MOL0     C60502   1.326   3.873   2.251  0.8409 -0.6438  0.6890
  459MOL0     O60503   1.557   3.812   2.513  0.6179 -0.2973  0.1718
  459MOL0     C60504   1.668   4.139   2.481 -0.1220 -0.1373 -1.1684
  459MOL0     C60505   1.756   4.228   2.547 -0.1433 -0.0300  0.4788
  459MOL0     N60506   2.222   4.457   3.198 -0.2317 -0.2469 -0.0867
  459MOL0     N60507   2.323   4.480   3.283  0.5459 -0.7954 -0.0919
  459MOL0     C60508   3.504   3.945   3.294  0.1489 -0.5540  0.1539
  459MOL0     C60509   3.642   3.916   3.288 -0.5221 -0.7725 -0.5129
  459MOL0     C60510   4.070   3.921   3.129  0.1262 -0.0500  0.8355
  459MOL0     C60511   4.141   3.841   3.045 -1.6923  0.0638  0.2853
  459MOL0     C60512   4.287   3.832   3.068  0.7252  0.4578 -0.2700
  459MOL0     C60513   4.350   3.890   3.171 -1.2301 -0.5145 -0.3629
  459MOL0     O60514   4.489   3.880   3.191  0.9622 -0.8768  0.8748
  459MOL0     C60515   4.559   3.768   3.141  0.2552  0.3935  0.2912
  459MOL0     C60516   4.620   3.812   3.002  0.1771  0.4433 -0.4469
  459MOL0     C60517   4.695   3.692   2.942 -0.1374 -0.5711 -0.0785
  459MOL0     C60518   4.596   3.580   2.898  0.3784 -0.6874  0.0995
  459MOL0     C60519   4.657   3.460   2.842  0.1337  0.0936  0.0939
  459MOL0     C60520   4.685   3.351   2.813 -1.5227 -0.6444 -0.2963
  459MOL0     C60521   4.277   3.961   3.264 -0.8389 -0.5541  0.5725
  459MOL0     C60522   4.134   3.981   3.242 -0.2808  0.6810 -0.5377
  459MOL0     H60523   3.737   4.178   3.090  1.7608 -1.6052 -0.7007
  459MOL0     H60524   3.482   4.218   3.101 -1.4459 -0.9708 -1.6926
  459MOL0     H60525   3.259   3.946   3.400 -0.3311 -1.6415 -0.5664
  459MOL0     H60526   3.227   3.911   3.233 -2.4534 -0.4946  1.5304
  459MOL0     H60527   3.091   4.135   3.226 -0.7745 -1.0390 -0.0289
  459MOL0     H60528   3.124   4.143   3.403 -0.9232  0.1993 -0.9340
  459MOL0     H60529   2.993   3.947   3.444 -2.3653  0.0688  0.2763
  459MOL0     H60530   2.962   3.928   3.266  0.4541 -0.9884  0.3108
  459MOL0     H60531   2.843   4.134   3.254 -0.8712  1.5309  0.5014
  459MOL0     H60532   2.775   4.017   3.355  0.0657 -0.0614  0.5408
  459MOL0     H60533   2.928   4.260   3.461  1.7272 -1.7699 -2.4651
  459MOL0     H60534   2.866   4.126   3.559  0.0821 -1.1199 -0.1392
  459MOL0     H60535   2.709   4.328   3.545  0.6635  0.8967 -0.8882
  459MOL0     H60536   2.646   4.165   3.544  2.5180  1.2652  3.0442
  459MOL0     H60537   2.683   4.311   3.282 -1.9034  3.2438  0.6159
  459MOL0     H60538   2.585   4.168   3.313 -1.0145 -1.1761  1.5847
  459MOL0     H60539   2.562   4.465   3.394 -1.1024 -0.5936  3.3115
  459MOL0     H60540   2.464   4.338   3.470 -3.0674 -0.0147 -1.5969
  459MOL0     H60541   2.440   4.203   3.149  2.9880  0.4914  1.3593
  459MOL0     H60542   2.123   4.197   3.047  0.4371 -0.1749  1.3287
  459MOL0     H60543   2.280   4.207   2.969  0.0215 -3.2175  2.8853
  459MOL0     H60544   2.184   4.464   2.946  2.2170 -0.6196  0.2259
  459MOL0     H60545   2.038   4.375   2.950 -0.3171  0.7490 -2.5959
  459MOL0     H60546   2.124   4.439   2.713 -1.8977 -1.7836 -0.3848
  459MOL0     H60547   2.247   4.310   2.740  0.5147 -2.2878  1.2858
  459MOL0     H60548   2.066   4.154   2.789 -0.8567  1.1094  0.9153
  459MOL0     H60549   2.071   4.225   2.619 -0.3994  3.2721 -0.7504
  459MOL0     H60550   1.892   4.019   2.779  4.4514  2.6288 -0.9240
  459MOL0     H60551   1.752   3.854   2.647  3.3095 -0.9711 -1.4734
  459MOL0     H60552   1.628   3.729   2.196  0.5719  2.2276 -2.0779
  459MOL0     H60553   1.488   3.553   2.107 -0.3364 -1.7897  1.8761
  459MOL0     H60554   1.322   3.408   2.044  2.1360 -2.0444 -2.7020
  459MOL0     H60555   1.360   3.517   1.907 -0.0719  0.1624 -0.6738
  459MOL0     H60556   1.187   3.480   1.791 -1.3520 -0.1587 -0.8441
  459MOL0     H60557   1.078   3.444   1.927  1.1776 -0.8009  1.9081
  459MOL0     H60558   1.314   3.261   1.862  0.5894  1.3941 -0.4489
  459MOL0     H60559   1.169   3.251   1.749  0.4425  1.6702 -0.6527
  459MOL0     H60560   1.164   3.225   2.051  2.8391  2.3603 -2.9787
  459MOL0     H60561   1.035   3.197   1.930  0.2463 -0.2351  0.3418
  459MOL0     H60562   1.157   2.988   1.853 -2.2640 -1.1160  0.8227
  459MOL0     H60563   1.131   2.964   2.023  0.5405  0.6505  0.1529
  459MOL0     H60564   1.403   3.058   1.889 -1.7236  2.8772 -0.8423
  459MOL0     H60565   1.362   2.910   1.956  1.1582 -0.1276 -1.9256
  459MOL0     H60566   1.320   3.144   2.146 -2.0071  0.8923 -2.0461
  459MOL0     H60567   1.379   2.986   2.177  0.1172 -1.5399 -1.0823
  459MOL0     H60568   1.535   3.185   1.993 -0.4356 -2.0520 -1.1910
  459MOL0     H60569   1.601   3.040   2.071  1.1159  1.6425  0.4537
  459MOL0     H60570   1.139   3.791   2.190 -0.0763 -3.8080  0.3027
  459MOL0     H60571   1.288   3.959   2.304  0.1772 -2.3648  3.1802
  459MOL0     H60572   1.600   4.181   2.407 -2.0469  3.0777  2.1291
  459MOL0     H60573   1.755   4.333   2.519  0.6303 -0.2558 -0.4170
  459MOL0     H60574   3.449   3.863   3.339  0.1064  0.6408  2.4634
  459MOL0     H60575   3.681   3.824   3.329 -0.3380  0.8612  3.4738
  459MOL0     H60576   4.093   3.791   2.961 -2.8715  0.0020  0.9790
  459MOL0     H60577   4.329   3.774   2.986 -1.5105 -0.3310 -0.9594
  459MOL0     H60578   4.492   3.682   3.134 -4.6111  3.8714 -1.2055
  459MOL0     H60579   4.643   3.751   3.209  0.8614  3.0279  0.3296
  459MOL0     H60580   4.549   3.836   2.923 -1.0674 -0.0510  0.4768
  459MOL0     H60581   4.691   3.893   3.019 -1.5780  1.9837 -0.2223
  459MOL0     H60582   4.756   3.658   3.026 -1.0573  0.5942  1.1026
  459MOL0     H60583   4.756   3.720   2.856 -1.9198  1.6158 -0.7390
  459MOL0     H60584   4.536   3.559   2.987  1.6266  1.5124  1.5502
  459MOL0     H60585   4.530   3.621   2.821 -0.1174  1.2726  1.4897
  459MOL0     H60586   4.718   3.250   2.798 -0.1266 -0.1722 -0.5670
  459MOL0     H60587   4.321   4.017   3.346 -1.7114  1.4732 -0.2875
  459MOL0     H60588   4.079   4.032   3.320 -0.0619 -2.5422  1.9337
  460MOL0     O60589   4.940   0.908   4.674  1.0467 -0.5987 -0.0972
  460MOL0     C60590   4.940   0.788   4.670  0.6298  0.2557  0.4208
  460MOL0     O60591   4.838   0.709   4.634 -0.0988 -0.6565  0.6459
  460MOL0     C60592   4.725   0.762   4.594 -0.1836 -0.6968  0.7667
  460MOL0     C60593   4.670   0.690   4.486 -0.0387 -0.4264  0.2811
  460MOL0     C60594   4.545   0.735   4.431  0.3393  0.6641  0.2200
  460MOL0     C60595   4.470   0.839   4.490  0.2687  0.2173  0.8357
  460MOL0     O60596   4.355   0.875   4.421 -0.2333 -0.3810 -0.1876
  460MOL0     C60597   4.259   0.947   4.492  0.6901 -0.4753  0.0709
  460MOL0     C60598   4.138   0.952   4.406  0.6049  0.6074  0.2936
  460MOL0     C60599   3.996   0.968   4.481  0.1200 -0.6141 -0.1757
  460MOL0     C60600   3.876   1.019   4.388 -0.0804 -0.1186  0.2163
  460MOL0     C60601   3.746   1.029   4.477 -0.5491  0.2176  0.5119
  460MOL0     C60602   3.645   0.924   4.430  0.8612 -0.4950  0.1199
  460MOL0     C60603   3.506   0.941   4.498 -0.4921  1.0767  0.2309
  460MOL0     C60604   3.409   1.040   4.441  0.8942  0.1418 -0.1055
  460MOL0     N60605   3.436   1.176   4.478 -0.3450 -0.7119 -0.3461
  460MOL0     C60606   3.400   1.233   4.597  0.3756 -0.2524 -0.4804
  460MOL0     C60607   3.421   1.362   4.576  0.5273 -0.7375 -0.2627
  460MOL0     C60608   3.364   1.473   4.676  0.0936  0.8127  0.4098
  460MOL0     C60609   3.215   1.475   4.646  0.5204  0.7372 -0.9475
  460MOL0     C60610   3.152   1.552   4.768  0.0438  0.5561 -0.2765
  460MOL0     C60611   3.002   1.559   4.742  0.8060 -0.2743  0.4586
  460MOL0     O60612   2.940   1.429   4.725 -0.1357  0.1859 -0.2149
  460MOL0     C60613   2.805   1.432   4.702  0.3015  0.1541  0.2109
  460MOL0     C60614   2.741   1.308   4.693 -0.5679  0.0138 -0.6005
  460MOL0     C60615   2.602   1.291   4.685  0.1477  0.0596 -0.6435
  460MOL0     C60616   2.526   1.401   4.666  0.0720 -0.0883  0.5877
  460MOL0     C60617   2.383   1.387   4.627 -0.3382 -0.3423  0.4155
  460MOL0     O60618   2.308   1.504   4.603 -0.6756  0.3640  0.4608
  460MOL0     C60619   2.174   1.490   4.577  0.4635 -0.5788 -0.1989
  460MOL0     C60620   2.099   1.375   4.538  0.8033 -0.5379  0.9077
  460MOL0     C60621   1.961   1.379   4.525 -0.2879  0.7339 -0.3024
  460MOL0     C60622   1.884   1.495   4.536  0.2175  0.1840 -0.0277
  460MOL0     O60623   1.752   1.518   4.500 -0.3527 -0.0018 -0.5300
  460MOL0     C60624   1.666   1.406   4.530  0.3177 -0.2714 -0.3866
  460MOL0     C60625   1.514   1.422   4.485 -0.6596 -0.9110 -0.1591
  460MOL0     C60626   1.427   1.317   4.551 -0.1757 -0.3622  0.1841
  460MOL0     C60627   1.357   1.358   4.680 -0.5156 -0.0551 -0.0454
  460MOL0     C60628   1.287   1.238   4.735  0.5666 -0.8889  0.5082
  460MOL0     C60629   1.238   1.271   4.872 -0.4256 -0.8053 -0.8929
  460MOL0     C60630   1.148   1.157   4.931 -0.3146  0.2667  0.1073
  460MOL0     C60631   1.067   1.203   5.052  0.0607  1.4255  0.1701
  460MOL0    Cl60632   1.172   1.296   5.172  0.2584  0.1757  0.3749
  460MOL0     C60633   1.953   1.602   4.585 -0.3314 -0.0643 -0.2540
  460MOL0     C60634   2.097   1.608   4.604  0.1716 -0.5585  0.0136
  460MOL0     O60635   2.341   1.275   4.628 -0.0876  0.4084 -0.1729
  460MOL0     C60636   2.592   1.527   4.656 -0.4207  0.0620 -0.4033
  460MOL0     C60637   2.726   1.545   4.678 -0.4532 -0.4752  0.3287
  460MOL0     N60638   3.471   1.388   4.452  0.8725  0.0293 -0.3569
  460MOL0     N60639   3.480   1.275   4.395  0.3940  0.1193  0.6100
  460MOL0     C60640   4.524   0.893   4.607 -0.4841 -0.7391 -0.1669
  460MOL0     C60641   4.652   0.859   4.658  0.6070  0.0127 -0.3606
  460MOL0     C60642   5.054   0.720   4.735  0.9784  0.2987  0.1797
  460MOL0     C60643   5.080   0.590   4.723  0.5250 -0.2567  0.4438
  460MOL0     C60644   5.189   0.523   4.767 -0.6343  0.0335  0.3212
  460MOL0     C60645   5.298   0.603   4.822  0.3758 -0.0395 -0.3002
  460MOL0     O60646   5.412   0.558   4.888  0.0452  0.4435  0.7800
  460MOL0     C60647   5.431   0.422   4.885  0.0912  0.8561  0.1504
  460MOL0     C60648   5.546   0.388   4.984 -0.0200 -0.9063  0.1694
  460MOL0     C60649   5.512   0.347   5.122 -0.5445 -0.0891 -0.4729
  460MOL0     C60650   5.630   0.273   5.194  0.0273  0.3691  0.3442
  460MOL0     C60651   5.619   0.273   5.344 -0.1859  0.5454  0.1612
  460MOL0     C60652   5.617   0.264   5.466  0.3714 -0.9249 -0.4567
  460MOL0     C60653   5.277   0.744   4.836 -0.5037  0.3254 -0.1949
  460MOL0     C60654   5.152   0.793   4.802 -0.3628  0.0831 -0.0438
  460MOL0     H60655   4.703   0.597   4.441 -3.2873 -0.1818 -3.1791
  460MOL0     H60656   4.496   0.691   4.345  0.0275  0.9862  0.2300
  460MOL0     H60657   4.294   1.048   4.515  2.5561 -1.3902  1.4706
  460MOL0     H60658   4.238   0.900   4.589 -0.2816 -0.0085  0.1032
  460MOL0     H60659   4.125   0.858   4.350 -1.9584  1.0311  0.0589
  460MOL0     H60660   4.150   1.027   4.327  2.8903  0.0110 -0.0176
  460MOL0     H60661   4.000   1.042   4.562 -0.9208  0.0158 -0.6808
  460MOL0     H60662   3.964   0.873   4.522  2.8775 -0.8676  1.6887
  460MOL0     H60663   3.908   1.117   4.350  1.9987 -1.3361 -1.3919
  460MOL0     H60664   3.869   0.953   4.302 -3.7603 -1.6012  1.4588
  460MOL0     H60665   3.693   1.125   4.483 -1.5331 -0.2427 -0.4980
  460MOL0     H60666   3.764   1.027   4.585  1.5377  0.0134  0.1923
  460MOL0     H60667   3.677   0.822   4.455 -2.9894 -1.4428  1.8340
  460MOL0     H60668   3.632   0.934   4.322  1.0226  0.9755  0.2180
  460MOL0     H60669   3.462   0.843   4.479  0.8064  0.8871 -2.0691
  460MOL0     H60670   3.531   0.946   4.605  2.0620 -1.1410 -0.1749
  460MOL0     H60671   3.316   1.005   4.486  1.1801 -1.7878 -0.9500
  460MOL0     H60672   3.403   1.030   4.333 -1.3937  0.3101 -0.0449
  460MOL0     H60673   3.343   1.180   4.672  0.8055  1.8896  1.4687
  460MOL0     H60674   3.411   1.567   4.646 -0.1846  1.4451  1.9015
  460MOL0     H60675   3.387   1.435   4.776  1.2424 -2.8474 -1.0528
  460MOL0     H60676   3.176   1.373   4.645  0.1191  0.8832 -0.6120
  460MOL0     H60677   3.197   1.517   4.547 -3.7426  0.0455 -0.6275
  460MOL0     H60678   3.154   1.498   4.863 -0.5434 -1.6065 -1.4192
  460MOL0     H60679   3.195   1.652   4.763  1.0767  0.0896 -3.0147
  460MOL0     H60680   2.997   1.616   4.649 -0.5726  0.1888  0.7991
  460MOL0     H60681   2.951   1.624   4.814  3.0358  1.0710  0.8976
  460MOL0     H60682   2.796   1.216   4.707  1.1119  0.5609 -2.9314
  460MOL0     H60683   2.566   1.190   4.699  1.7513 -0.2635  2.0643
  460MOL0     H60684   2.152   1.280   4.535  4.0074  1.0285  2.6388
  460MOL0     H60685   1.912   1.287   4.496  1.8350 -0.9118  0.9894
  460MOL0     H60686   1.663   1.394   4.639 -0.2499  0.1408 -0.3593
  460MOL0     H60687   1.711   1.312   4.495  2.5224 -0.9481  3.5337
  460MOL0     H60688   1.522   1.416   4.376  5.7890 -1.4061 -0.0661
  460MOL0     H60689   1.469   1.516   4.517  2.2424  0.8606 -0.8510
  460MOL0     H60690   1.485   1.225   4.556 -1.2285 -1.0153  0.6903
  460MOL0     H60691   1.350   1.313   4.473  0.5136 -0.1004 -0.5251
  460MOL0     H60692   1.438   1.390   4.746  1.4009 -1.5999 -1.5298
  460MOL0     H60693   1.292   1.445   4.668 -0.8674 -0.3481 -0.2953
  460MOL0     H60694   1.357   1.153   4.740  1.4213 -0.1976  0.4801
  460MOL0     H60695   1.207   1.215   4.664  0.3078  1.6461 -0.1089
  460MOL0     H60696   1.175   1.360   4.868 -0.3554 -0.7258 -0.3561
  460MOL0     H60697   1.322   1.290   4.940 -0.9597 -0.1814 -0.3916
  460MOL0     H60698   1.074   1.133   4.854 -0.8729  2.3755 -0.0750
  460MOL0     H60699   1.204   1.065   4.952 -2.0987 -0.6192  1.2947
  460MOL0     H60700   1.035   1.111   5.102  2.2581  0.7144  0.3732
  460MOL0     H60701   0.980   1.263   5.023 -1.5077 -0.8191 -0.0548
  460MOL0     H60702   1.909   1.698   4.610  0.2336  0.4688 -1.2323
  460MOL0     H60703   2.147   1.697   4.640 -3.2749  1.1250  1.0214
  460MOL0     H60704   2.543   1.620   4.629 -1.6528 -0.1433  0.9970
  460MOL0     H60705   2.776   1.639   4.661 -1.7358  0.4575  1.4654
  460MOL0     H60706   4.461   0.966   4.658  0.4525  0.0098 -0.0598
  460MOL0     H60707   4.687   0.901   4.751  1.1951 -1.6932  0.2075
  460MOL0     H60708   5.003   0.537   4.668 -0.2944  2.6684 -1.4700
  460MOL0     H60709   5.186   0.415   4.757 -0.2058 -0.0721  1.2100
  460MOL0     H60710   5.466   0.391   4.786 -3.5680 -2.2860 -0.3947
  460MOL0     H60711   5.341   0.370   4.917  1.0431 -0.5385  0.6925
  460MOL0     H60712   5.607   0.309   4.938 -0.5397 -0.5138 -1.2702
  460MOL0     H60713   5.608   0.478   4.990 -3.0107  1.5247 -1.9568
  460MOL0     H60714   5.430   0.275   5.119  1.1080 -2.2208  1.8936
  460MOL0     H60715   5.482   0.428   5.190 -1.6325 -1.3386  0.5936
  460MOL0     H60716   5.649   0.172   5.156  0.0953 -0.2626  2.0002
  460MOL0     H60717   5.725   0.316   5.159  1.5352 -1.5113  1.9177
  460MOL0     H60718   5.604   0.248   5.571 -0.9825 -4.2090 -0.9932
  460MOL0     H60719   5.354   0.810   4.874  1.6191 -1.2929 -1.4609
  460MOL0     H60720   5.131   0.900   4.805 -1.9148 -0.2119  1.9699
  461MOL0     O60721   8.867   7.208   0.687  0.4500  0.3788  0.7206
  461MOL0     C60722   8.860   7.292   0.781  1.0607 -0.2264  0.5003
  461MOL0     O60723   8.743   7.346   0.830  0.3001  0.4491 -0.3996
  461MOL0     C60724   8.614   7.320   0.786  0.3374 -0.2931 -0.1003
  461MOL0     C60725   8.512   7.416   0.808  0.0728  0.0715 -0.0802
  461MOL0     C60726   8.380   7.388   0.759 -0.3283  0.8877 -0.2856
  461MOL0     C60727   8.347   7.261   0.702 -0.1133  0.5576 -0.3986
  461MOL0     O60728   8.214   7.234   0.676 -0.6192 -0.3287 -1.0523
  461MOL0     C60729   8.159   7.098   0.652  0.2532  0.9006  0.4675
  461MOL0     C60730   8.009   7.102   0.686 -0.0215  0.1539  0.3165
  461MOL0     C60731   7.938   7.019   0.575  0.7495 -0.4582  0.2098
  461MOL0     C60732   7.792   6.986   0.606  0.3343  0.4865  0.4463
  461MOL0     C60733   7.740   6.883   0.523 -0.0069  0.7759  0.8695
  461MOL0     C60734   7.585   6.878   0.548  0.0916  0.4542 -0.4771
  461MOL0     C60735   7.515   6.746   0.499 -0.9959 -0.6238  0.6933
  461MOL0     C60736   7.511   6.746   0.344 -0.6864 -0.4080 -1.1725
  461MOL0     N60737   7.437   6.855   0.293  0.0983 -0.6764  0.8233
  461MOL0     C60738   7.496   6.966   0.228  0.5005 -0.4572  0.6605
  461MOL0     C60739   7.400   7.063   0.220 -0.5360 -0.2950 -0.0313
  461MOL0     C60740   7.403   7.195   0.146  0.4568  0.1402 -0.3307
  461MOL0     C60741   7.470   7.284   0.242  0.9160  0.5021 -0.2902
  461MOL0     C60742   7.472   7.421   0.196 -0.6243  0.2224 -0.0572
  461MOL0     C60743   7.495   7.526   0.305  1.1307  0.7133  0.0985
  461MOL0     O60744   7.520   7.658   0.253  0.1485 -1.3381 -1.1747
  461MOL0     C60745   7.414   7.730   0.187  0.1391  0.1838 -0.0315
  461MOL0     C60746   7.458   7.843   0.110  0.2820  0.0990  0.2437
  461MOL0     C60747   7.368   7.924   0.039 -0.0291  1.0551  0.8002
  461MOL0     C60748   7.229   7.891   0.056 -0.3493  0.1674  0.6230
  461MOL0     C60749   7.133   7.975  -0.008 -0.2530  0.9378  0.2468
  461MOL0     O60750   7.177   8.082  -0.074 -0.3276 -0.1809  0.1933
  461MOL0     C60751   7.101   8.176  -0.139 -0.1670 -0.4223  0.3578
  461MOL0     C60752   7.165   8.299  -0.183  0.8988 -0.6413 -0.3124
  461MOL0     C60753   7.108   8.385  -0.281 -0.2758 -0.6884  0.0312
  461MOL0     C60754   6.980   8.366  -0.335 -0.0578  0.0588  1.1410
  461MOL0     O60755   6.929   8.466  -0.427  0.1001  0.4866 -0.5317
  461MOL0     C60756   6.800   8.458  -0.479  0.3738  0.2563 -0.6864
  461MOL0     C60757   6.764   8.581  -0.556 -0.7650  0.4423 -0.1309
  461MOL0     C60758   6.617   8.557  -0.602 -0.0485  0.9177 -0.7617
  461MOL0     C60759   6.602   8.608  -0.747  1.4169 -0.9649  0.7690
  461MOL0     C60760   6.541   8.754  -0.755  1.3611 -0.4877  0.9957
  461MOL0     C60761   6.511   8.802  -0.899 -0.1483  0.0135 -0.2574
  461MOL0     C60762   6.431   8.932  -0.910  0.4180 -0.7324 -0.6497
  461MOL0     C60763   6.439   8.999  -1.050 -0.5371 -0.4999 -1.0909
  461MOL0    Cl60764   6.422   8.891  -1.188  0.1429  0.2165 -0.0372
  461MOL0     C60765   6.909   8.246  -0.288 -0.0125  0.2381  0.1035
  461MOL0     C60766   6.969   8.157  -0.197 -0.2758  0.0100  0.0158
  461MOL0     O60767   7.016   7.954   0.008 -0.0591 -0.4800  0.5428
  461MOL0     C60768   7.192   7.784   0.147  1.1360 -0.2805  0.4469
  461MOL0     C60769   7.279   7.703   0.214 -0.4498 -0.2017  0.1564
  461MOL0     N60770   7.287   7.011   0.278  0.7319  0.1523 -0.3284
  461MOL0     N60771   7.315   6.893   0.329  0.2018 -0.2956  0.0476
  461MOL0     C60772   8.454   7.166   0.682  0.3436 -0.1356  0.0991
  461MOL0     C60773   8.583   7.201   0.719  0.1944 -0.3318 -0.2137
  461MOL0     C60774   8.982   7.317   0.858  0.0575  0.1217 -1.0617
  461MOL0     C60775   8.991   7.400   0.977  0.3329 -0.0601  0.6148
  461MOL0     C60776   9.095   7.388   1.071 -0.4273 -0.0314  0.1452
  461MOL0     C60777   9.208   7.321   1.033 -0.6585 -0.0729 -0.6957
  461MOL0     O60778   9.327   7.317   1.107 -0.1660  0.8613 -0.2583
  461MOL0     C60779   9.348   7.400   1.222 -0.0536  0.8697  0.0566
  461MOL0     C60780   9.445   7.340   1.326  0.1665 -0.4211 -0.0151
  461MOL0     C60781   9.577   7.307   1.263 -0.5169  0.7173 -0.4527
  461MOL0     C60782   9.690   7.279   1.366  0.2325  0.8269 -0.8377
  461MOL0     C60783   9.822   7.269   1.301 -1.1310 -0.5461  0.4864
  461MOL0     C60784   9.927   7.270   1.243  0.4726  0.1479  1.0954
  461MOL0     C60785   9.210   7.240   0.921 -0.1763  0.3371  0.3775
  461MOL0     C60786   9.096   7.234   0.838  0.8222 -0.3586  0.3698
  461MOL0     H60787   8.554   7.507   0.849  1.5590  0.6160 -2.5872
  461MOL0     H60788   8.298   7.457   0.778 -0.2346  0.6302  1.1709
  461MOL0     H60789   8.206   7.021   0.715  1.4004  1.0013 -0.2489
  461MOL0     H60790   8.173   7.072   0.547  0.9982 -0.5086  0.8817
  461MOL0     H60791   7.963   7.201   0.678 -2.0244 -0.7417  0.1091
  461MOL0     H60792   7.988   7.073   0.790  0.5560 -2.3570 -0.1986
  461MOL0     H60793   7.993   6.925   0.557 -1.1658 -1.4498 -0.7872
  461MOL0     H60794   7.933   7.080   0.484 -1.3084 -0.9437 -0.0378
  461MOL0     H60795   7.780   6.958   0.712 -1.2371 -0.3134  0.0891
  461MOL0     H60796   7.721   7.069   0.601  0.0684  0.2794  0.7614
  461MOL0     H60797   7.791   6.792   0.555 -0.5492  0.6930  1.5057
  461MOL0     H60798   7.761   6.899   0.417  0.2427  0.7285  0.9104
  461MOL0     H60799   7.548   6.965   0.493 -0.3637  1.3942  1.2460
  461MOL0     H60800   7.545   6.903   0.646  2.2231 -0.2784  0.6322
  461MOL0     H60801   7.568   6.664   0.548 -0.2134 -0.4351  0.1719
  461MOL0     H60802   7.411   6.739   0.532 -2.0889  1.6531 -1.9099
  461MOL0     H60803   7.461   6.653   0.314  1.7322 -2.3041  0.3142
  461MOL0     H60804   7.614   6.743   0.307 -0.4693 -2.3588 -0.5333
  461MOL0     H60805   7.599   6.983   0.199 -0.5983 -0.4377 -4.1135
  461MOL0     H60806   7.300   7.226   0.129  1.0147  1.6580 -1.1425
  461MOL0     H60807   7.458   7.178   0.053  0.8420 -3.4233  0.4041
  461MOL0     H60808   7.569   7.239   0.252  1.6005  2.2553  1.4171
  461MOL0     H60809   7.409   7.267   0.332  0.4062  0.0887 -0.7064
  461MOL0     H60810   7.546   7.435   0.117  0.0518 -1.4053  0.2412
  461MOL0     H60811   7.370   7.441   0.162 -0.4728  1.1485  0.0190
  461MOL0     H60812   7.580   7.504   0.371  0.1189  0.5749  1.3835
  461MOL0     H60813   7.402   7.540   0.361  0.1387 -1.1740 -0.9661
  461MOL0     H60814   7.565   7.850   0.095  0.2321 -1.2318 -0.9980
  461MOL0     H60815   7.419   7.982  -0.037  3.4198 -1.0397  1.3224
  461MOL0     H60816   7.259   8.321  -0.134  2.5652 -3.3974 -2.0153
  461MOL0     H60817   7.168   8.468  -0.316 -0.5096  0.6831  2.5893
  461MOL0     H60818   6.731   8.446  -0.395  1.5790  2.0830  0.6238
  461MOL0     H60819   6.784   8.367  -0.537 -1.7969 -0.4924  0.9339
  461MOL0     H60820   6.832   8.603  -0.638 -1.8582  0.2780 -1.1197
  461MOL0     H60821   6.770   8.663  -0.485  1.1396  1.1618 -1.0626
  461MOL0     H60822   6.534   8.608  -0.551 -1.8640 -1.4295 -1.1700
  461MOL0     H60823   6.589   8.452  -0.597  1.6553  0.4772  0.1148
  461MOL0     H60824   6.696   8.610  -0.805  0.7483  3.3044 -0.5199
  461MOL0     H60825   6.527   8.542  -0.790 -0.4505  1.2730  0.4162
  461MOL0     H60826   6.617   8.827  -0.728  1.3084  0.0961 -0.3266
  461MOL0     H60827   6.458   8.755  -0.684 -0.1458 -2.8008 -0.5775
  461MOL0     H60828   6.447   8.733  -0.955 -2.2094  0.6759  1.1624
  461MOL0     H60829   6.609   8.820  -0.945  0.1129 -1.1898 -0.2078
  461MOL0     H60830   6.325   8.932  -0.884  0.5201  1.3463 -0.0166
  461MOL0     H60831   6.485   9.003  -0.846  1.2971 -0.3383 -1.7939
  461MOL0     H60832   6.527   9.063  -1.059 -0.7116 -0.3308 -1.6269
  461MOL0     H60833   6.349   9.061  -1.051 -0.5319 -0.4968 -1.3953
  461MOL0     H60834   6.809   8.217  -0.319  0.2669 -1.5436  0.7205
  461MOL0     H60835   6.922   8.059  -0.189  0.6305 -0.5082 -0.7595
  461MOL0     H60836   7.089   7.751   0.159  0.8179 -0.1228 -1.5454
  461MOL0     H60837   7.233   7.629   0.279 -1.9347  2.1574  1.9829
  461MOL0     H60838   8.437   7.067   0.640 -1.6014 -1.2077  3.1011
  461MOL0     H60839   8.654   7.119   0.712  0.4262 -0.2007  0.5525
  461MOL0     H60840   8.897   7.449   1.000  0.7701  0.5986  1.0548
  461MOL0     H60841   9.085   7.446   1.163 -2.9109 -1.1329  0.6500
  461MOL0     H60842   9.256   7.419   1.278 -0.3206 -2.0057  0.7346
  461MOL0     H60843   9.374   7.494   1.172 -1.3574  0.5667 -1.2294
  461MOL0     H60844   9.466   7.411   1.407  0.9696  0.8383 -1.2908
  461MOL0     H60845   9.411   7.246   1.369 -0.4014  1.3037  3.7911
  461MOL0     H60846   9.609   7.388   1.197 -1.9142 -0.2820 -2.4720
  461MOL0     H60847   9.562   7.219   1.200 -0.1437  0.2337  0.1187
  461MOL0     H60848   9.692   7.372   1.424  0.3514 -0.2767  1.0097
  461MOL0     H60849   9.665   7.194   1.429  0.3149  0.7021 -0.9741
  461MOL0     H60850  10.017   7.258   1.188  0.7196 -3.4904  2.0575
  461MOL0     H60851   9.296   7.176   0.905 -1.4468 -1.0954 -1.1012
  461MOL0     H60852   9.092   7.156   0.763 -1.0159  1.7935 -1.9255
  462MOL0     O60853   3.766   4.600   9.383  0.4945  0.7933 -0.1747
  462MOL0     C60854   3.814   4.658   9.287  0.1750  0.4647 -0.1524
  462MOL0     O60855   3.746   4.724   9.194  0.3036 -0.2948 -0.3371
  462MOL0     C60856   3.615   4.734   9.212 -0.5786 -0.2267  0.2927
  462MOL0     C60857   3.557   4.847   9.272 -0.6877  0.0220  0.5382
  462MOL0     C60858   3.419   4.858   9.296  0.2903  0.2459 -0.3715
  462MOL0     C60859   3.342   4.748   9.257 -0.2529 -0.3044  0.5162
  462MOL0     O60860   3.206   4.759   9.268 -0.9732 -1.0749 -0.0826
  462MOL0     C60861   3.153   4.810   9.144  0.0004  0.0253  1.1483
  462MOL0     C60862   3.001   4.837   9.147  0.1208  0.1374 -0.2728
  462MOL0     C60863   2.917   4.714   9.168  0.5029  0.2034 -0.5483
  462MOL0     C60864   2.772   4.745   9.186  0.3946 -0.4037 -0.8930
  462MOL0     C60865   2.686   4.621   9.146  0.0758 -0.3684 -0.6055
  462MOL0     C60866   2.538   4.667   9.137 -0.0938  0.1271  0.6015
  462MOL0     C60867   2.448   4.543   9.114  0.3077  0.3877  0.3263
  462MOL0     C60868   2.308   4.585   9.074 -0.6041 -0.1863 -0.1257
  462MOL0     N60869   2.251   4.703   9.146  0.4063  0.2263 -0.5016
  462MOL0     C60870   2.202   4.709   9.276  0.6114 -0.2173 -0.3020
  462MOL0     C60871   2.171   4.840   9.294 -0.8520 -0.4372 -0.7260
  462MOL0     C60872   2.110   4.909   9.408  0.7554 -0.1135  0.4253
  462MOL0     C60873   1.966   4.902   9.389 -0.1933  0.5309 -0.2103
  462MOL0     C60874   1.880   4.937   9.518 -0.7129 -0.0453 -0.8429
  462MOL0     C60875   1.736   4.884   9.504  0.0272 -0.1370 -0.4175
  462MOL0     O60876   1.677   4.936   9.383 -0.6480  1.2971 -0.3108
  462MOL0     C60877   1.573   5.024   9.411 -0.9729 -0.6760  0.3315
  462MOL0     C60878   1.600   5.158   9.433 -0.2623  0.6521  0.0256
  462MOL0     C60879   1.490   5.243   9.466 -0.3752  0.0927  0.3016
  462MOL0     C60880   1.366   5.196   9.477 -0.0309  0.0064 -1.2413
  462MOL0     C60881   1.253   5.287   9.510  0.5408  0.3524  0.6010
  462MOL0     O60882   1.134   5.242   9.475 -0.5594  0.6244 -0.2304
  462MOL0     C60883   1.017   5.289   9.522 -0.2149  0.6223 -0.9752
  462MOL0     C60884   1.000   5.316   9.655 -0.2846  0.2061 -0.7010
  462MOL0     C60885   0.881   5.365   9.709 -1.6856 -0.7970 -0.8769
  462MOL0     C60886   0.774   5.381   9.627  0.7692 -0.7514 -0.5182
  462MOL0     O60887   0.659   5.439   9.687 -0.1613 -0.1089  0.4549
  462MOL0     C60888   0.534   5.433   9.629 -0.2583  0.1247 -0.0150
  462MOL0     C60889   0.431   5.491   9.727 -0.0571 -0.2034 -0.2125
  462MOL0     C60890   0.298   5.507   9.651 -0.0164  0.4201 -0.1393
  462MOL0     C60891   0.232   5.371   9.605  0.1791 -0.4101  0.3449
  462MOL0     C60892   0.158   5.286   9.711 -0.2375 -0.2143  0.1108
  462MOL0     C60893   0.047   5.346   9.795  0.8662 -0.1884 -0.5172
  462MOL0     C60894  -0.032   5.238   9.870 -0.0482  0.4211 -0.2314
  462MOL0     C60895  -0.123   5.159   9.785  0.1734  0.3343  0.1593
  462MOL0    Cl60896  -0.238   5.065   9.893  0.0075 -0.6399  0.1430
  462MOL0     C60897   0.785   5.349   9.492  0.4616 -0.0789  0.7557
  462MOL0     C60898   0.906   5.307   9.440  0.5200 -0.9367  0.2006
  462MOL0     O60899   1.272   5.394   9.562 -0.1438  0.3177  0.6389
  462MOL0     C60900   1.337   5.053   9.440  0.1483  0.1635  0.3246
  462MOL0     C60901   1.449   4.971   9.407  0.2712  0.2751 -0.3527
  462MOL0     N60902   2.205   4.913   9.179  0.0295  0.0859 -0.5310
  462MOL0     N60903   2.242   4.831   9.088 -0.3661  0.2036  0.1963
  462MOL0     C60904   3.392   4.633   9.211 -0.4896 -0.5712 -0.0737
  462MOL0     C60905   3.534   4.620   9.182 -0.3952  0.1377 -1.2224
  462MOL0     C60906   3.954   4.640   9.267 -0.0507 -0.5559 -0.7741
  462MOL0     C60907   4.031   4.725   9.191  0.2952 -0.3397  0.1627
  462MOL0     C60908   4.169   4.720   9.181 -1.3364  0.3752  0.2664
  462MOL0     C60909   4.233   4.611   9.240  1.0214 -0.5805  0.4746
  462MOL0     O60910   4.372   4.589   9.216 -0.3745 -0.2747  0.2727
  462MOL0     C60911   4.434   4.481   9.279  1.3367  0.1898 -0.4941
  462MOL0     C60912   4.585   4.477   9.252  0.2190  0.1756 -0.0419
  462MOL0     C60913   4.653   4.334   9.294  0.0487  0.0469  1.0411
  462MOL0     C60914   4.709   4.337   9.436  0.5804  0.2017 -0.1399
  462MOL0     C60915   4.825   4.428   9.447  0.0128  0.0951  0.2774
  462MOL0     C60916   4.914   4.505   9.466  0.3922  0.2418  0.1621
  462MOL0     C60917   4.155   4.513   9.315 -0.2810  0.4714 -0.4821
  462MOL0     C60918   4.023   4.533   9.335 -0.2052 -0.7241 -0.1042
  462MOL0     H60919   3.621   4.931   9.298 -0.6253  1.2136 -2.9277
  462MOL0     H60920   3.378   4.952   9.331 -0.3035  0.4755 -1.6284
  462MOL0     H60921   3.173   4.728   9.074 -0.6185  0.2219  0.7349
  462MOL0     H60922   3.202   4.904   9.117 -1.8341  1.3425  2.1832
  462MOL0     H60923   2.965   4.873   9.050  0.0749 -0.2574 -0.4042
  462MOL0     H60924   2.975   4.908   9.226  0.8569 -0.1259  0.2189
  462MOL0     H60925   2.952   4.664   9.258  0.8619  2.1363  0.4365
  462MOL0     H60926   2.916   4.652   9.077 -1.5107 -1.2112  0.3514
  462MOL0     H60927   2.756   4.779   9.289  0.6931  1.1797 -1.3467
  462MOL0     H60928   2.744   4.825   9.118 -2.1789 -0.4300  0.0299
  462MOL0     H60929   2.701   4.539   9.215 -0.1209  1.4098  1.6803
  462MOL0     H60930   2.711   4.596   9.042 -1.0319  0.1810 -1.0309
  462MOL0     H60931   2.520   4.737   9.055 -0.6195 -0.5848  0.0990
  462MOL0     H60932   2.527   4.721   9.231  1.6571  0.1424  0.8419
  462MOL0     H60933   2.495   4.480   9.037 -2.8424  1.0815 -2.4034
  462MOL0     H60934   2.438   4.485   9.206  1.0866 -3.0842 -1.5761
  462MOL0     H60935   2.236   4.502   9.077 -1.2506  0.1522 -3.0508
  462MOL0     H60936   2.304   4.604   8.966 -3.5784  2.0005  0.2505
  462MOL0     H60937   2.181   4.625   9.341  1.4163 -0.0335  0.2196
  462MOL0     H60938   2.128   5.016   9.423 -1.1271  0.8191 -2.9342
  462MOL0     H60939   2.137   4.860   9.502  1.8158  2.7942  1.7757
  462MOL0     H60940   1.941   4.800   9.358 -2.2723  0.9250 -0.0022
  462MOL0     H60941   1.935   4.963   9.304 -2.8881  1.2113  1.1142
  462MOL0     H60942   1.925   4.903   9.611  1.9148  2.2224 -1.1532
  462MOL0     H60943   1.882   5.046   9.528  0.1784 -0.0798 -0.5257
  462MOL0     H60944   1.676   4.895   9.595  0.6381  0.9972 -0.1334
  462MOL0     H60945   1.743   4.778   9.479  0.1253 -0.2361  0.0089
  462MOL0     H60946   1.699   5.193   9.406  0.0849 -0.5273 -0.2618
  462MOL0     H60947   1.499   5.351   9.456 -0.9832  0.0139 -1.2795
  462MOL0     H60948   1.079   5.309   9.729  0.8295 -1.6853 -1.9885
  462MOL0     H60949   0.878   5.396   9.813  0.2457 -2.6469 -0.2101
  462MOL0     H60950   0.528   5.328   9.600  0.4414  0.1033 -0.0817
  462MOL0     H60951   0.538   5.496   9.539  1.5626  0.6519  0.3972
  462MOL0     H60952   0.457   5.590   9.766 -1.0712 -0.8812  2.3708
  462MOL0     H60953   0.432   5.421   9.811 -0.5951  2.3657  2.0724
  462MOL0     H60954   0.319   5.553   9.554 -1.6268  0.2143 -0.6166
  462MOL0     H60955   0.221   5.559   9.709  0.7171 -1.6699  2.9632
  462MOL0     H60956   0.162   5.387   9.522  0.8894 -1.5641 -0.4966
  462MOL0     H60957   0.307   5.309   9.555  0.3572  2.5991 -3.6002
  462MOL0     H60958   0.231   5.239   9.778 -0.8811 -1.9680 -0.3545
  462MOL0     H60959   0.113   5.205   9.652  0.0266 -0.5100  0.3069
  462MOL0     H60960  -0.016   5.414   9.737  1.8502 -0.8546 -2.4680
  462MOL0     H60961   0.098   5.410   9.868  0.7093 -2.0459  1.3224
  462MOL0     H60962   0.040   5.168   9.913 -1.5672 -0.4916  0.9109
  462MOL0     H60963  -0.088   5.287   9.951 -0.5059  2.0195 -1.4706
  462MOL0     H60964  -0.079   5.089   9.713 -3.9792 -1.5029 -0.9358
  462MOL0     H60965  -0.187   5.229   9.730 -0.2341  0.4016  0.7119
  462MOL0     H60966   0.695   5.368   9.435  2.0466 -0.7404 -2.1288
  462MOL0     H60967   0.915   5.290   9.333 -1.5792 -0.6954 -0.0630
  462MOL0     H60968   1.236   5.015   9.444  0.3589 -0.3849  0.4337
  462MOL0     H60969   1.450   4.863   9.392  1.1561  0.2763 -0.3461
  462MOL0     H60970   3.330   4.547   9.187  1.3070 -1.4746 -1.8258
  462MOL0     H60971   3.575   4.533   9.133 -1.1345  0.2772 -2.1225
  462MOL0     H60972   3.979   4.810   9.150 -0.2769 -1.2050 -0.9523
  462MOL0     H60973   4.223   4.792   9.121  0.9149  0.7037  2.5205
  462MOL0     H60974   4.384   4.388   9.249  1.8686 -0.6944  1.2295
  462MOL0     H60975   4.418   4.488   9.387 -1.4972 -0.0047 -0.8339
  462MOL0     H60976   4.594   4.490   9.144 -3.6188 -1.0175 -0.6592
  462MOL0     H60977   4.637   4.562   9.297  1.5437 -0.5424 -0.1935
  462MOL0     H60978   4.732   4.322   9.220 -0.3558  0.3353  0.5517
  462MOL0     H60979   4.580   4.253   9.292 -0.5894  0.6272 -0.8265
  462MOL0     H60980   4.639   4.364   9.516  1.0274 -1.4193  0.8411
  462MOL0     H60981   4.745   4.237   9.460  1.0618  0.2332 -0.7186
  462MOL0     H60982   5.006   4.555   9.487  0.0121  0.4286  1.4802
  462MOL0     H60983   4.202   4.425   9.357 -1.2315 -0.1045 -0.5965
  462MOL0     H60984   3.973   4.455   9.392  1.7771 -1.5739  0.5573
  463MOL0     O60985   6.295   4.317  10.530  0.3709  0.4431  0.5988
  463MOL0     C60986   6.384   4.312  10.615  1.1431  0.4878  0.7347
  463MOL0     O60987   6.367   4.337  10.751 -0.7253  0.6625 -0.6947
  463MOL0     C60988   6.248   4.392  10.796  0.3205 -0.0970  0.5149
  463MOL0     C60989   6.192   4.510  10.749 -0.2106  0.7384  0.0626
  463MOL0     C60990   6.067   4.549  10.801 -0.3431  0.9485 -0.4464
  463MOL0     C60991   6.005   4.486  10.909 -0.5021 -0.8756 -0.3420
  463MOL0     O60992   5.902   4.567  10.954 -0.6382  0.5335 -0.3581
  463MOL0     C60993   5.816   4.502  11.054 -0.3798  0.0877  0.4077
  463MOL0     C60994   5.705   4.599  11.093 -0.6938 -0.6321  1.0813
  463MOL0     C60995   5.571   4.543  11.121  0.6011 -1.0259  0.1087
  463MOL0     C60996   5.480   4.662  11.152 -0.6232  0.2197  0.2593
  463MOL0     C60997   5.351   4.622  11.221  0.6819 -0.1101  0.2063
  463MOL0     C60998   5.278   4.510  11.140 -0.5169 -0.6956  0.2141
  463MOL0     C60999   5.239   4.546  10.995  0.5385  0.6885  0.3671
  463MOL0     C61000   5.182   4.688  10.988  0.4103 -0.0695  0.0443
  463MOL0     N61001   5.127   4.711  10.854  0.1879  0.4563  0.2058
  463MOL0     C61002   5.023   4.800  10.821  0.2622 -0.3473 -1.2051
  463MOL0     C61003   4.990   4.772  10.695  0.8393 -0.5818  0.2501
  463MOL0     C61004   4.880   4.840  10.615  0.1992  0.0945 -0.4923
  463MOL0     C61005   4.758   4.900  10.698  0.2755 -0.9942 -0.5039
  463MOL0     C61006   4.684   4.773  10.768  0.0643 -0.5332  0.3043
  463MOL0     C61007   4.544   4.815  10.797  0.9733  0.0898 -0.6916
  463MOL0     O61008   4.462   4.863  10.682 -0.5513  0.7199 -0.3416
  463MOL0     C61009   4.329   4.901  10.707 -0.1133  0.1682 -0.8657
  463MOL0     C61010   4.271   4.891  10.833 -0.2266  1.1484 -0.1651
  463MOL0     C61011   4.134   4.915  10.836  1.0115  0.2432 -0.0152
  463MOL0     C61012   4.056   4.954  10.725 -0.7690  0.2564  0.3801
  463MOL0     C61013   3.904   4.972  10.749 -0.1670  0.5762  0.6167
  463MOL0     O61014   3.834   5.001  10.645 -0.0193  0.0840  0.5634
  463MOL0     C61015   3.692   4.976  10.656 -0.0689 -0.3872  0.3820
  463MOL0     C61016   3.635   4.854  10.623 -0.0584  0.4421 -0.6707
  463MOL0     C61017   3.504   4.824  10.643  0.3062 -0.2300 -0.0262
  463MOL0     C61018   3.417   4.926  10.687 -0.1665  0.9953  0.1423
  463MOL0     O61019   3.277   4.889  10.703  0.2301 -0.4465  0.6721
  463MOL0     C61020   3.189   4.994  10.731 -0.6410  0.0875 -0.0594
  463MOL0     C61021   3.048   4.945  10.688 -0.0730  0.1533 -0.3179
  463MOL0     C61022   3.012   4.979  10.547  0.0389 -0.2654 -0.1076
  463MOL0     C61023   2.863   4.968  10.509 -0.0202 -0.1962 -0.3547
  463MOL0     C61024   2.829   4.974  10.366  0.3307  0.7544 -0.0607
  463MOL0     C61025   2.882   5.099  10.311  0.9572  0.4194  0.7628
  463MOL0     C61026   2.835   5.229  10.383  0.2140  0.1276  0.3683
  463MOL0     C61027   2.894   5.349  10.288  0.4620  0.0495  0.1124
  463MOL0    Cl61028   2.812   5.376  10.130  0.0394 -0.0890  0.0166
  463MOL0     C61029   3.476   5.052  10.714 -0.4637  0.5996  0.6352
  463MOL0     C61030   3.610   5.080  10.703  0.7887  0.3965 -0.2596
  463MOL0     O61031   3.865   4.956  10.859 -0.8966  0.0583 -0.3064
  463MOL0     C61032   4.127   4.978  10.602  0.1769 -1.2521  0.5536
  463MOL0     C61033   4.264   4.956  10.599 -0.2184  0.1091  0.3240
  463MOL0     N61034   5.075   4.675  10.639  0.4170 -0.3734 -0.3331
  463MOL0     N61035   5.155   4.637  10.739  0.2485  0.6696 -0.1745
  463MOL0     C61036   6.054   4.365  10.949  0.5344  0.0795 -1.0375
  463MOL0     C61037   6.174   4.321  10.899  0.4081  0.0444  0.5342
  463MOL0     C61038   6.511   4.263  10.569 -0.1159 -0.1181  0.2215
  463MOL0     C61039   6.616   4.252  10.652  0.1659 -1.1280 -0.0255
  463MOL0     C61040   6.746   4.237  10.614  0.3357  0.5761  0.1579
  463MOL0     C61041   6.766   4.215  10.478  0.1929  0.5868 -0.7175
  463MOL0     O61042   6.895   4.183  10.461  0.2542 -0.4241 -1.0927
  463MOL0     C61043   6.965   4.235  10.356 -0.0981  0.0914  0.1744
  463MOL0     C61044   7.103   4.178  10.355 -1.4607  0.3323  0.2382
  463MOL0     C61045   7.193   4.196  10.483 -0.3118 -0.6748 -0.7626
  463MOL0     C61046   7.344   4.206  10.452 -1.0927 -0.0860  0.3596
  463MOL0     C61047   7.395   4.072  10.420 -0.5441  1.1921  0.1550
  463MOL0     C61048   7.442   3.960  10.391  0.2630 -0.6443  0.5576
  463MOL0     C61049   6.666   4.229  10.389  0.1272 -0.3017 -1.2795
  463MOL0     C61050   6.538   4.250  10.433 -0.0532 -0.1820  0.4030
  463MOL0     H61051   6.241   4.565  10.669 -1.7659  0.0824 -1.4004
  463MOL0     H61052   6.018   4.641  10.770 -4.0367  0.2611  2.5766
  463MOL0     H61053   5.876   4.469  11.139 -1.9759 -1.8434  0.8560
  463MOL0     H61054   5.762   4.410  11.028 -0.3710 -0.6888  2.8761
  463MOL0     H61055   5.702   4.668  11.008  3.2126 -1.9854 -0.3420
  463MOL0     H61056   5.741   4.661  11.176  3.4400  0.3754 -1.2086
  463MOL0     H61057   5.589   4.484  11.211  1.4489 -0.9479 -0.0041
  463MOL0     H61058   5.535   4.502  11.027  1.9279  1.3975 -1.5678
  463MOL0     H61059   5.528   4.731  11.221 -3.4543  2.4987  0.1262
  463MOL0     H61060   5.460   4.707  11.055  2.1154 -2.2817 -1.6472
  463MOL0     H61061   5.294   4.714  11.233  3.5488  1.7000  0.8988
  463MOL0     H61062   5.373   4.580  11.320 -1.2008 -0.7149  0.4027
  463MOL0     H61063   5.179   4.497  11.184 -0.9373  2.5040  0.4729
  463MOL0     H61064   5.317   4.409  11.152  2.7767  0.5034  0.9379
  463MOL0     H61065   5.331   4.538  10.938  0.2624  1.0019 -0.1246
  463MOL0     H61066   5.174   4.463  10.967  1.8347 -0.1819 -0.1391
  463MOL0     H61067   5.251   4.773  10.999 -0.5392  0.6706  0.4497
  463MOL0     H61068   5.104   4.705  11.062 -0.1139 -0.5672 -0.3953
  463MOL0     H61069   4.975   4.865  10.893 -4.3641 -5.7364  1.3957
  463MOL0     H61070   4.831   4.780  10.537 -0.0019 -1.6158  0.9013
  463MOL0     H61071   4.936   4.914  10.556  3.0494 -1.3945  0.1795
  463MOL0     H61072   4.696   4.953  10.625 -1.2166 -0.9397  0.7371
  463MOL0     H61073   4.789   4.980  10.767  1.2501 -0.4072 -1.5831
  463MOL0     H61074   4.673   4.689  10.700  0.2808 -0.0726 -0.3122
  463MOL0     H61075   4.730   4.746  10.863  0.0333  0.3106  0.5745
  463MOL0     H61076   4.555   4.905  10.858  3.9665 -1.5981  1.4969
  463MOL0     H61077   4.487   4.735  10.845  1.6742 -0.6727 -1.1272
  463MOL0     H61078   4.319   4.860  10.924 -1.5331 -0.5619 -0.0019
  463MOL0     H61079   4.081   4.919  10.931 -1.9070  3.3259 -1.5421
  463MOL0     H61080   3.698   4.773  10.589  0.5824  0.7563 -0.2443
  463MOL0     H61081   3.451   4.731  10.622  1.4895 -1.4311  1.8877
  463MOL0     H61082   3.218   5.085  10.677 -0.2046 -1.3191 -2.3192
  463MOL0     H61083   3.196   5.022  10.836  1.6017  0.7412 -0.3308
  463MOL0     H61084   2.977   5.007  10.744  1.3433  3.2724 -1.7056
  463MOL0     H61085   3.040   4.838  10.709  1.5428  0.1857  0.6656
  463MOL0     H61086   3.070   4.904  10.492 -0.1604 -1.7182  1.5420
  463MOL0     H61087   3.051   5.079  10.525 -0.5754 -0.3491 -1.6377
  463MOL0     H61088   2.831   4.871  10.548 -0.5429  0.4453  0.8368
  463MOL0     H61089   2.801   5.046  10.553 -0.3309  0.5840 -2.0964
  463MOL0     H61090   2.723   4.977  10.339  1.1854 -1.1162 -4.6280
  463MOL0     H61091   2.875   4.886  10.319  1.0764  0.8360  0.4948
  463MOL0     H61092   2.840   5.099  10.210 -0.7803 -0.4387  1.4568
  463MOL0     H61093   2.991   5.091  10.315  1.1163  2.4476  1.8160
  463MOL0     H61094   2.726   5.233  10.392  0.2411  0.7364  0.4403
  463MOL0     H61095   2.882   5.230  10.482  0.3623 -0.7253  0.3202
  463MOL0     H61096   2.999   5.328  10.263  0.8814  1.4301  0.6169
  463MOL0     H61097   2.892   5.439  10.349 -1.1486 -0.3857  0.7380
  463MOL0     H61098   3.415   5.134  10.752 -3.1245 -1.6585  1.5771
  463MOL0     H61099   3.646   5.182  10.714 -0.0242  0.4134  3.6469
  463MOL0     H61100   4.078   5.017  10.513 -0.1167  2.8964  2.2865
  463MOL0     H61101   4.328   4.990  10.519 -0.4122  2.0469  0.9371
  463MOL0     H61102   5.996   4.315  11.026  0.9152  0.8045 -0.2517
  463MOL0     H61103   6.212   4.222  10.923  0.3891  0.3818  2.0575
  463MOL0     H61104   6.602   4.258  10.759  3.7693  2.3585  0.4844
  463MOL0     H61105   6.828   4.240  10.686  0.6810  1.3704 -0.2595
  463MOL0     H61106   6.981   4.341  10.376 -0.4382  0.4480 -1.2703
  463MOL0     H61107   6.924   4.205  10.258  0.6699  1.3841 -0.5630
  463MOL0     H61108   7.097   4.077  10.314 -2.3161  0.7125 -0.6034
  463MOL0     H61109   7.149   4.238  10.276  1.2845 -0.7535  0.8941
  463MOL0     H61110   7.184   4.127  10.568  0.4948  0.1507  0.0152
  463MOL0     H61111   7.167   4.291  10.530 -0.9339 -0.7672 -0.9028
  463MOL0     H61112   7.345   4.269  10.362  0.7195  0.3399  0.6416
  463MOL0     H61113   7.398   4.256  10.533 -0.5592 -0.3328  0.1595
  463MOL0     H61114   7.493   3.871  10.362 -0.1307 -0.2950 -1.3463
  463MOL0     H61115   6.702   4.209  10.288  0.2400  1.9761 -1.7504
  463MOL0     H61116   6.464   4.271  10.356  0.7043  2.1088  0.2201
  464MOL0     O61117   6.091   3.940   9.644  0.1670 -0.1996 -0.0151
  464MOL0     C61118   6.114   3.815   9.651  0.5456 -0.4638 -0.1500
  464MOL0     O61119   6.031   3.719   9.618 -0.4257  0.7713  0.0337
  464MOL0     C61120   5.900   3.761   9.608  0.4786  0.2523 -0.9064
  464MOL0     C61121   5.833   3.763   9.490  0.3397 -0.2079  0.7014
  464MOL0     C61122   5.695   3.797   9.484 -0.0488  0.3211 -0.0490
  464MOL0     C61123   5.630   3.842   9.608 -0.8812 -0.6597 -0.2965
  464MOL0     O61124   5.511   3.908   9.593  0.5055 -0.3937  0.3261
  464MOL0     C61125   5.432   3.947   9.703  0.3625  0.1057  0.2009
  464MOL0     C61126   5.295   4.005   9.658  0.2788 -0.6611  0.1622
  464MOL0     C61127   5.310   4.137   9.580  0.5257  0.0286  0.1483
  464MOL0     C61128   5.184   4.217   9.534  0.1863  0.1786  0.0414
  464MOL0     C61129   5.121   4.193   9.394  0.0382  0.2532  0.0802
  464MOL0     C61130   5.060   4.057   9.391  0.3231  0.0166 -0.3933
  464MOL0     C61131   4.957   4.050   9.284  0.5970  0.5529 -0.0043
  464MOL0     C61132   5.010   4.060   9.135  0.3120  0.2189 -0.1868
  464MOL0     N61133   4.899   4.015   9.051 -0.4196  0.3686 -0.2945
  464MOL0     C61134   4.889   3.893   8.984  1.2321 -0.0234 -0.2264
  464MOL0     C61135   4.758   3.894   8.935 -0.4386  0.3165 -0.5925
  464MOL0     C61136   4.701   3.774   8.865  0.2159  0.1734 -0.4578
  464MOL0     C61137   4.761   3.757   8.722  0.2962  0.1154  0.1636
  464MOL0     C61138   4.710   3.859   8.625  0.1477 -0.1052  0.5845
  464MOL0     C61139   4.793   3.853   8.497 -0.3892 -0.6645 -0.1551
  464MOL0     O61140   4.902   3.947   8.532  0.0388 -0.1796  0.7219
  464MOL0     C61141   5.034   3.918   8.549 -0.0691 -1.2412  0.9716
  464MOL0     C61142   5.083   3.808   8.472 -0.0897 -0.9349 -0.6473
  464MOL0     C61143   5.211   3.761   8.498  0.2282  0.7541  0.2389
  464MOL0     C61144   5.300   3.834   8.576 -0.5082  0.0500  0.2086
  464MOL0     C61145   5.443   3.793   8.590 -0.8895 -0.2358 -0.1798
  464MOL0     O61146   5.525   3.887   8.642 -0.9462  0.8310 -1.2471
  464MOL0     C61147   5.660   3.853   8.620 -0.3944 -0.5135 -1.0772
  464MOL0     C61148   5.728   3.755   8.699 -0.6712 -0.3119  0.1398
  464MOL0     C61149   5.862   3.740   8.689  0.4258  0.4496  0.2106
  464MOL0     C61150   5.942   3.813   8.609  0.3121 -0.0970 -0.5338
  464MOL0     O61151   6.074   3.791   8.608  0.6405 -0.1726 -0.5042
  464MOL0     C61152   6.162   3.880   8.542 -0.5883  0.0134 -0.5048
  464MOL0     C61153   6.303   3.846   8.554  0.4294  0.2440 -0.6443
  464MOL0     C61154   6.400   3.937   8.478  0.0431  0.1564  0.4435
  464MOL0     C61155   6.550   3.903   8.493 -0.0958 -1.0085  0.2304
  464MOL0     C61156   6.654   4.011   8.434  0.7595  0.3029 -0.5225
  464MOL0     C61157   6.774   4.011   8.526  0.2723  0.8030  0.4578
  464MOL0     C61158   6.875   4.115   8.459 -0.0233  0.4925 -0.4880
  464MOL0     C61159   6.994   4.132   8.544 -0.7601 -1.4518  0.0926
  464MOL0    Cl61160   7.084   3.972   8.564  0.1957 -0.0489 -0.0226
  464MOL0     C61161   5.881   3.914   8.526 -0.0017  0.2797 -0.3402
  464MOL0     C61162   5.741   3.935   8.536 -0.0263 -0.2072 -1.5669
  464MOL0     O61163   5.475   3.686   8.541 -0.5681 -0.9094  0.6981
  464MOL0     C61164   5.252   3.941   8.646 -0.5905 -1.3652  0.2967
  464MOL0     C61165   5.125   3.986   8.626 -0.1290 -0.3338 -0.4782
  464MOL0     N61166   4.689   4.000   8.987 -0.2491  0.2011  0.1955
  464MOL0     N61167   4.775   4.077   9.052 -0.1103 -0.1837  0.6560
  464MOL0     C61168   5.696   3.838   9.729 -0.3950  0.2915  0.2705
  464MOL0     C61169   5.829   3.794   9.731 -0.1214  1.2530  0.1159
  464MOL0     C61170   6.249   3.772   9.692 -0.4162  0.0707  0.0639
  464MOL0     C61171   6.277   3.632   9.699 -1.4378 -0.2207  0.6990
  464MOL0     C61172   6.409   3.587   9.747  0.2781  0.8698  0.5711
  464MOL0     C61173   6.501   3.670   9.804  1.1953 -0.4003 -1.0386
  464MOL0     O61174   6.608   3.608   9.859  0.0865  0.5291  0.4747
  464MOL0     C61175   6.726   3.678   9.839 -0.9081  0.3261  0.3243
  464MOL0     C61176   6.843   3.590   9.880  0.4212  0.5210  0.3760
  464MOL0     C61177   6.865   3.463   9.789 -0.4672  0.1114 -0.0204
  464MOL0     C61178   7.015   3.439   9.771 -0.4335  0.3538 -1.0155
  464MOL0     C61179   7.082   3.393   9.897  0.1891  0.2466 -0.3667
  464MOL0     C61180   7.139   3.354  10.002 -0.4790  0.2358  0.2960
  464MOL0     C61181   6.480   3.812   9.796 -0.0428  0.5510  0.9377
  464MOL0     C61182   6.352   3.857   9.742  0.0203  0.5259  0.4759
  464MOL0     H61183   5.878   3.739   9.394 -3.1551 -2.5437 -0.5261
  464MOL0     H61184   5.644   3.781   9.390 -0.7640 -0.5447  0.4762
  464MOL0     H61185   5.490   4.022   9.759  1.3584  0.2805 -1.0189
  464MOL0     H61186   5.407   3.863   9.769  2.0704  0.2626  1.1023
  464MOL0     H61187   5.228   4.023   9.743 -1.5163  0.5909 -1.4401
  464MOL0     H61188   5.252   3.933   9.589 -2.7266 -0.1070  1.3175
  464MOL0     H61189   5.369   4.123   9.489 -0.1500  0.6373 -0.3979
  464MOL0     H61190   5.369   4.197   9.650 -1.0779  3.2501 -1.0525
  464MOL0     H61191   5.107   4.217   9.611 -2.0228  0.5080 -2.0517
  464MOL0     H61192   5.213   4.323   9.528 -1.4548  0.7799  1.8303
  464MOL0     H61193   5.194   4.205   9.314  1.6584 -2.2682  1.0690
  464MOL0     H61194   5.041   4.268   9.394 -1.0212 -0.8150  1.0443
  464MOL0     H61195   5.012   4.027   9.484  1.3058 -3.4048 -0.8539
  464MOL0     H61196   5.136   3.982   9.365  0.3899 -0.9187  2.2033
  464MOL0     H61197   4.904   3.955   9.291 -3.4271  2.6517  1.4678
  464MOL0     H61198   4.877   4.123   9.300 -0.0307  0.1547 -1.1929
  464MOL0     H61199   5.110   4.019   9.121  0.3416  0.5838 -1.1391
  464MOL0     H61200   5.013   4.167   9.113 -1.3038 -0.5068 -5.4943
  464MOL0     H61201   4.967   3.821   8.964  1.8652  0.2630  1.1445
  464MOL0     H61202   4.592   3.777   8.864  0.2105  1.8005 -2.9887
  464MOL0     H61203   4.726   3.690   8.930 -1.0206  0.6315  0.6434
  464MOL0     H61204   4.726   3.658   8.694  2.9279 -0.5018 -1.3174
  464MOL0     H61205   4.870   3.758   8.710  0.0472  2.1366 -3.0331
  464MOL0     H61206   4.608   3.825   8.608 -2.2457  5.4029  1.6585
  464MOL0     H61207   4.707   3.964   8.656  0.4580 -0.5121  2.0680
  464MOL0     H61208   4.731   3.887   8.415 -2.5937  0.8899  2.0165
  464MOL0     H61209   4.831   3.752   8.475 -1.3614 -0.6334 -2.1357
  464MOL0     H61210   5.017   3.764   8.397 -3.2337  0.0755  1.3117
  464MOL0     H61211   5.245   3.677   8.438 -1.1818  0.2538  0.1253
  464MOL0     H61212   5.689   3.710   8.791  1.1597  2.0404  2.1949
  464MOL0     H61213   5.903   3.669   8.760 -0.5801 -0.8819 -0.4904
  464MOL0     H61214   6.154   3.984   8.574 -0.0873  0.4894 -1.8352
  464MOL0     H61215   6.133   3.881   8.436 -0.1068 -0.6624 -0.6527
  464MOL0     H61216   6.326   3.743   8.525 -2.2138 -0.7518  0.4843
  464MOL0     H61217   6.329   3.852   8.660 -1.3660 -2.7019  0.0640
  464MOL0     H61218   6.378   4.039   8.511 -0.5530 -0.0620  0.7324
  464MOL0     H61219   6.375   3.930   8.372  1.1865 -3.6119  0.2539
  464MOL0     H61220   6.560   3.898   8.602 -2.5008 -1.9850  0.4766
  464MOL0     H61221   6.575   3.801   8.462 -2.6637 -1.1677 -1.6076
  464MOL0     H61222   6.624   4.116   8.441 -0.4435 -0.1421  1.8746
  464MOL0     H61223   6.676   3.985   8.330 -1.6779  1.0299 -1.3065
  464MOL0     H61224   6.814   3.910   8.527 -1.3369  0.0596 -1.5267
  464MOL0     H61225   6.757   4.054   8.625  0.0772  2.1063 -0.1185
  464MOL0     H61226   6.907   4.085   8.359  0.9406  0.0214 -0.0394
  464MOL0     H61227   6.816   4.207   8.464  1.7676  1.6506  0.3873
  464MOL0     H61228   6.961   4.164   8.643 -0.9301 -0.6970 -0.2035
  464MOL0     H61229   7.047   4.213   8.494  0.3818 -2.1564  0.1414
  464MOL0     H61230   5.942   3.980   8.465  4.2185 -1.2617  1.7949
  464MOL0     H61231   5.704   4.021   8.481  1.5626 -0.3552 -2.9254
  464MOL0     H61232   5.315   3.984   8.722 -1.6662 -1.9733  1.5604
  464MOL0     H61233   5.089   4.070   8.685  2.9611  0.5604  0.3706
  464MOL0     H61234   5.656   3.877   9.822 -0.7360  1.2330 -0.2550
  464MOL0     H61235   5.885   3.804   9.824 -0.2249  2.0604  0.0959
  464MOL0     H61236   6.202   3.560   9.668 -0.3442 -0.5604 -1.3494
  464MOL0     H61237   6.426   3.480   9.747  1.2259  1.0142  0.4916
  464MOL0     H61238   6.735   3.771   9.896  0.2078 -0.8018  2.0914
  464MOL0     H61239   6.742   3.712   9.736  2.3589  3.3372  1.5952
  464MOL0     H61240   6.928   3.658   9.866  0.6201  0.2279  0.1664
  464MOL0     H61241   6.836   3.564   9.986  0.9944 -1.6458 -0.0765
  464MOL0     H61242   6.820   3.470   9.689  0.5558 -2.8973 -0.8094
  464MOL0     H61243   6.831   3.372   9.840 -0.0818  1.2022  2.2771
  464MOL0     H61244   7.033   3.369   9.689  1.5513  0.7463 -0.9670
  464MOL0     H61245   7.066   3.532   9.746 -2.8577  1.5139 -1.8682
  464MOL0     H61246   7.198   3.333  10.089  1.2193  1.2188 -0.5771
  464MOL0     H61247   6.553   3.884   9.833  0.6604  1.1937 -1.4888
  464MOL0     H61248   6.344   3.965   9.730 -0.9874  0.5927  1.5962
  465MOL0     O61249   4.019   1.326   6.547 -0.1154  0.0427  0.2689
  465MOL0     C61250   4.038   1.342   6.667 -0.4357 -0.2858 -0.4948
  465MOL0     O61251   3.963   1.423   6.747  0.0142 -0.0759  0.2960
  465MOL0     C61252   3.846   1.487   6.701  0.1303  0.5346  0.1601
  465MOL0     C61253   3.817   1.519   6.568 -0.2324 -0.5125  0.0787
  465MOL0     C61254   3.692   1.566   6.532 -0.1445  0.0609 -0.5173
  465MOL0     C61255   3.596   1.587   6.626  1.0302  0.3555 -0.3041
  465MOL0     O61256   3.481   1.640   6.581 -0.2200  0.1325 -0.4615
  465MOL0     C61257   3.359   1.562   6.604 -0.4659  0.0946  0.5064
  465MOL0     C61258   3.249   1.625   6.516  0.7530 -0.7358 -0.3809
  465MOL0     C61259   3.125   1.536   6.524 -0.6079  0.2187  0.4261
  465MOL0     C61260   3.019   1.580   6.425 -0.2659  0.3619  0.5388
  465MOL0     C61261   2.871   1.550   6.458  0.1270  0.0405 -0.2018
  465MOL0     C61262   2.778   1.567   6.339  0.2136  1.0054 -0.0816
  465MOL0     C61263   2.631   1.566   6.377  0.6544  0.0504 -1.1212
  465MOL0     C61264   2.539   1.585   6.257 -0.4717 -0.0355  0.0631
  465MOL0     N61265   2.397   1.559   6.285 -0.0815 -0.9058  0.0696
  465MOL0     C61266   2.332   1.441   6.253 -0.6161 -0.4106 -0.1534
  465MOL0     C61267   2.212   1.458   6.309 -0.0147 -0.7781 -0.6107
  465MOL0     C61268   2.100   1.366   6.300 -0.8342 -0.1226  0.6203
  465MOL0     C61269   1.975   1.413   6.227  0.3375 -0.4671  0.7374
  465MOL0     C61270   1.868   1.312   6.256 -0.9445 -1.1603  0.1248
  465MOL0     C61271   1.733   1.391   6.237 -0.3884 -0.0803 -0.3431
  465MOL0     O61272   1.626   1.298   6.253 -0.0272 -0.3527  0.9149
  465MOL0     C61273   1.500   1.339   6.287 -0.3052 -0.9046  0.1069
  465MOL0     C61274   1.462   1.474   6.284  0.1941  0.3937  0.3547
  465MOL0     C61275   1.325   1.514   6.308 -0.3746 -0.5801 -0.6497
  465MOL0     C61276   1.229   1.417   6.338  0.3447 -0.9383 -1.6997
  465MOL0     C61277   1.085   1.468   6.370 -0.7165 -0.1464  0.3394
  465MOL0     O61278   0.999   1.378   6.421 -0.1804  0.0464  0.2185
  465MOL0     C61279   0.865   1.414   6.448  0.0804  0.0267  0.4334
  465MOL0     C61280   0.805   1.363   6.561 -0.7556 -0.3524 -0.4425
  465MOL0     C61281   0.674   1.400   6.591  0.4760 -1.0554 -0.4419
  465MOL0     C61282   0.606   1.491   6.516 -0.1469 -0.2048  0.6395
  465MOL0     O61283   0.486   1.527   6.570 -0.1200  0.5211  0.0424
  465MOL0     C61284   0.412   1.627   6.500 -1.0998  0.1113 -0.2768
  465MOL0     C61285   0.271   1.654   6.557 -0.0574  0.1129 -0.5593
  465MOL0     C61286   0.192   1.525   6.580 -0.1955 -0.8538 -0.3167
  465MOL0     C61287   0.045   1.568   6.617 -0.0032  0.1746  0.4017
  465MOL0     C61288  -0.050   1.536   6.502  0.0089 -1.0567 -0.0758
  465MOL0     C61289  -0.185   1.597   6.518  0.3669  0.3460 -0.4849
  465MOL0     C61290  -0.278   1.546   6.402  0.1161 -0.0614  0.8849
  465MOL0     C61291  -0.404   1.624   6.409  0.5278 -0.3102  0.5721
  465MOL0    Cl61292  -0.501   1.592   6.542  0.0261 -0.0538  0.5106
  465MOL0     C61293   0.662   1.532   6.396 -0.0916  0.3385 -0.0095
  465MOL0     C61294   0.797   1.500   6.365  0.7913  0.1114  0.1616
  465MOL0     O61295   1.069   1.590   6.361 -0.7591  0.1106 -0.2399
  465MOL0     C61296   1.277   1.286   6.349 -0.0352  0.6028 -0.4491
  465MOL0     C61297   1.405   1.247   6.324  0.4407 -0.7754  0.1211
  465MOL0     N61298   2.210   1.578   6.382  0.1266 -0.2055 -0.1705
  465MOL0     N61299   2.314   1.643   6.352 -0.6044 -0.4006 -0.0159
  465MOL0     C61300   3.627   1.572   6.765 -0.1585 -0.4163  1.0314
  465MOL0     C61301   3.758   1.517   6.799  0.4666 -0.1070  0.2622
  465MOL0     C61302   4.156   1.268   6.729 -0.2267  1.0140 -0.4823
  465MOL0     C61303   4.241   1.198   6.652  0.9854  0.2229 -0.5247
  465MOL0     C61304   4.349   1.125   6.712  0.3952 -0.5022  0.6129
  465MOL0     C61305   4.363   1.120   6.852  0.5248 -0.9162 -0.6308
  465MOL0     O61306   4.480   1.054   6.899 -0.7650  0.0494 -0.3773
  465MOL0     C61307   4.475   1.018   7.044  0.0925  0.6088 -0.7461
  465MOL0     C61308   4.595   0.920   7.079  0.9366 -0.7419  0.2058
  465MOL0     C61309   4.612   0.801   6.974 -0.0595  0.7413 -0.5514
  465MOL0     C61310   4.667   0.658   7.029 -0.2343  0.1792 -0.4364
  465MOL0     C61311   4.808   0.666   7.063 -0.0261  0.2359 -0.5864
  465MOL0     C61312   4.924   0.677   7.095  0.5467  0.2482 -1.0282
  465MOL0     C61313   4.269   1.183   6.935 -0.3399  0.1256 -0.7229
  465MOL0     C61314   4.169   1.264   6.874  0.2864 -0.3832  0.4670
  465MOL0     H61315   3.889   1.526   6.487  0.5091  1.8353  0.8490
  465MOL0     H61316   3.672   1.565   6.425  3.2156 -1.4558 -1.2844
  465MOL0     H61317   3.344   1.571   6.712  0.8629  3.2445  0.5313
  465MOL0     H61318   3.374   1.460   6.566  1.5151  0.6787 -0.3885
  465MOL0     H61319   3.291   1.628   6.415 -0.3893 -0.0735 -0.8552
  465MOL0     H61320   3.229   1.725   6.556  0.3062 -0.4781 -1.2299
  465MOL0     H61321   3.082   1.530   6.624 -1.0059  0.3996  0.2678
  465MOL0     H61322   3.163   1.433   6.515  0.5699  0.8024 -2.0284
  465MOL0     H61323   3.026   1.688   6.411 -1.1599  0.2706 -0.8834
  465MOL0     H61324   3.034   1.532   6.328 -1.0421 -2.4713  1.7023
  465MOL0     H61325   2.838   1.628   6.528 -4.3940 -1.9221  0.2122
  465MOL0     H61326   2.848   1.450   6.497 -3.1529  0.9289  0.5221
  465MOL0     H61327   2.796   1.481   6.275  2.4516 -0.6785  2.5833
  465MOL0     H61328   2.798   1.662   6.288  1.9035  1.6466  1.6370
  465MOL0     H61329   2.611   1.462   6.405  0.9914  0.3691  0.3965
  465MOL0     H61330   2.616   1.634   6.461  0.5101 -1.7078  0.3425
  465MOL0     H61331   2.577   1.515   6.182 -2.4343 -1.1040 -0.0187
  465MOL0     H61332   2.546   1.692   6.234  1.6298 -0.2371 -0.3863
  465MOL0     H61333   2.376   1.350   6.212  0.6841 -0.7404  1.8249
  465MOL0     H61334   2.082   1.327   6.401  1.0767  0.5157  1.2634
  465MOL0     H61335   2.138   1.275   6.253  0.8539  0.4358  0.8413
  465MOL0     H61336   1.992   1.408   6.119 -2.7780 -0.2335  0.1477
  465MOL0     H61337   1.955   1.518   6.253 -0.3976 -0.4626  0.1735
  465MOL0     H61338   1.869   1.218   6.200 -2.9679 -1.1593  0.0100
  465MOL0     H61339   1.873   1.280   6.360 -1.9974 -0.0543  0.5412
  465MOL0     H61340   1.744   1.448   6.144  2.6018 -0.6252 -0.4108
  465MOL0     H61341   1.733   1.464   6.318  3.1401 -1.4404  1.0535
  465MOL0     H61342   1.531   1.554   6.258  1.3727 -0.4305  0.8876
  465MOL0     H61343   1.293   1.615   6.283 -0.1291  0.1111  1.6676
  465MOL0     H61344   0.848   1.302   6.640 -0.5086  3.1976  2.4149
  465MOL0     H61345   0.624   1.362   6.679  1.1999  0.1236  0.5199
  465MOL0     H61346   0.398   1.596   6.396 -2.0019  0.7537 -0.3594
  465MOL0     H61347   0.457   1.727   6.501 -3.4435  1.2278 -0.8105
  465MOL0     H61348   0.213   1.718   6.489 -0.5409  0.4119  0.1243
  465MOL0     H61349   0.274   1.708   6.652  0.8317  0.1268 -0.5895
  465MOL0     H61350   0.244   1.475   6.662  0.1808  2.3227  1.5678
  465MOL0     H61351   0.184   1.462   6.491 -1.4868 -0.5844 -0.4145
  465MOL0     H61352   0.015   1.506   6.702 -0.8536 -0.2298 -0.1821
  465MOL0     H61353   0.045   1.676   6.635 -2.1385  0.3246 -0.2703
  465MOL0     H61354  -0.053   1.428   6.485 -0.0447 -0.8948 -1.1535
  465MOL0     H61355  -0.007   1.581   6.413  2.5458 -2.7272  0.2029
  465MOL0     H61356  -0.170   1.705   6.522  1.0885  0.2261  3.2766
  465MOL0     H61357  -0.235   1.577   6.613  0.1969  2.0166 -0.2040
  465MOL0     H61358  -0.217   1.569   6.314  1.6194 -4.4688  0.5565
  465MOL0     H61359  -0.303   1.440   6.401  2.4186 -0.6669  0.8550
  465MOL0     H61360  -0.462   1.591   6.322  2.0374 -0.0242 -0.5879
  465MOL0     H61361  -0.389   1.732   6.407 -4.3946  0.6311  0.5883
  465MOL0     H61362   0.610   1.603   6.332  1.2848  0.4145 -1.0854
  465MOL0     H61363   0.851   1.539   6.280  3.3954 -0.1376  1.5562
  465MOL0     H61364   1.197   1.216   6.370  0.4538  0.7482  2.1248
  465MOL0     H61365   1.439   1.144   6.327 -2.1421 -1.6756  1.7987
  465MOL0     H61366   3.541   1.589   6.829  0.1708  0.6349  1.2281
  465MOL0     H61367   3.783   1.509   6.905  0.0000  2.1546  0.6025
  465MOL0     H61368   4.232   1.200   6.544 -0.7971  0.9320 -0.3964
  465MOL0     H61369   4.426   1.070   6.659  0.8094 -2.0687  2.7238
  465MOL0     H61370   4.382   0.967   7.069  1.5798 -1.3880  1.0386
  465MOL0     H61371   4.485   1.102   7.113  3.1003 -0.8788  0.7890
  465MOL0     H61372   4.692   0.968   7.093 -0.9029  3.3751  0.2106
  465MOL0     H61373   4.557   0.865   7.165 -1.4620 -1.7032 -1.3518
  465MOL0     H61374   4.672   0.830   6.887  2.4738  0.4642  0.9859
  465MOL0     H61375   4.507   0.778   6.953  0.3087 -1.0189 -0.6078
  465MOL0     H61376   4.598   0.631   7.109 -2.6317  2.7888 -1.4488
  465MOL0     H61377   4.661   0.580   6.953 -1.4731  0.6602 -0.8445
  465MOL0     H61378   5.021   0.696   7.137 -1.2613  1.4721  3.0208
  465MOL0     H61379   4.288   1.190   7.042  3.6350  1.6573 -1.3860
  465MOL0     H61380   4.095   1.322   6.927  1.0572  2.2687 -1.1545
  466MOL0     O61381   5.398  10.314   5.368  0.6295 -0.2936 -0.0908
  466MOL0     C61382   5.459  10.376   5.279  0.0183  0.0484 -0.1176
  466MOL0     O61383   5.406  10.448   5.184 -0.1844  0.5689  0.9015
  466MOL0     C61384   5.273  10.461   5.167 -0.0613 -0.9442 -0.0171
  466MOL0     C61385   5.216  10.397   5.055 -0.3874  0.1371  0.0808
  466MOL0     C61386   5.074  10.395   5.049 -0.3185  0.8102  0.0942
  466MOL0     C61387   4.996  10.464   5.136  0.0541  1.2959  0.1939
  466MOL0     O61388   4.864  10.438   5.133 -0.0988  0.1697 -0.2859
  466MOL0     C61389   4.814  10.482   5.001  0.6336 -0.7986  0.9069
  466MOL0     C61390   4.753  10.358   4.931  0.6105  0.0493 -0.6682
  466MOL0     C61391   4.604  10.381   4.883 -0.7141  0.6310  0.0922
  466MOL0     C61392   4.583  10.495   4.780  0.5485  0.4938  0.7817
  466MOL0     C61393   4.434  10.515   4.738  0.0869  0.3844 -0.1423
  466MOL0     C61394   4.441  10.640   4.644  1.5837 -0.1832 -0.2955
  466MOL0     C61395   4.303  10.654   4.569  0.2083  1.0558  0.1170
  466MOL0     C61396   4.176  10.673   4.657  1.3540 -0.1342  0.6624
  466MOL0     N61397   4.056  10.668   4.559 -0.6211 -0.2078 -0.1310
  466MOL0     C61398   3.976  10.773   4.515  0.9135 -0.7644  1.0362
  466MOL0     C61399   3.878  10.705   4.443 -0.3601 -0.2064 -0.0220
  466MOL0     C61400   3.765  10.778   4.365  0.5721 -0.3055 -0.1077
  466MOL0     C61401   3.629  10.708   4.400 -0.4182 -0.5401 -0.0869
  466MOL0     C61402   3.516  10.779   4.329 -0.6630  0.1313 -0.2376
  466MOL0     C61403   3.382  10.714   4.356  0.7236 -0.0462  0.0236
  466MOL0     O61404   3.378  10.606   4.266 -0.5466  1.2010  0.2043
  466MOL0     C61405   3.262  10.544   4.232 -0.4898 -0.5541 -0.1806
  466MOL0     C61406   3.156  10.609   4.194  0.5953 -0.6260 -0.5107
  466MOL0     C61407   3.040  10.541   4.148 -0.2436  0.0918  1.0084
  466MOL0     C61408   3.037  10.397   4.137 -0.5063 -0.0359  0.9615
  466MOL0     C61409   2.923  10.319   4.075  0.4264  0.3908  0.0146
  466MOL0     O61410   2.926  10.181   4.090  0.2744  0.2398 -1.2757
  466MOL0     C61411   2.828  10.100   4.041  0.3589 -0.5224 -0.1032
  466MOL0     C61412   2.770  10.001   4.123  0.5743  0.1503  0.8768
  466MOL0     C61413   2.660   9.917   4.081 -0.6820  0.3031 -0.5254
  466MOL0     C61414   2.611   9.913   3.953 -0.3042  0.0868  0.2869
  466MOL0     O61415   2.496   9.844   3.929  0.2091 -1.1239  0.1053
  466MOL0     C61416   2.461   9.815   3.789 -0.4983 -0.6090 -0.1844
  466MOL0     C61417   2.370   9.692   3.817  0.6734 -0.0667  0.7004
  466MOL0     C61418   2.309   9.643   3.688  0.5011  0.0845  0.6271
  466MOL0     C61419   2.199   9.539   3.712 -0.0938 -0.1678 -0.7993
  466MOL0     C61420   2.132   9.471   3.594  0.5955 -0.2474 -0.5283
  466MOL0     C61421   2.225   9.429   3.482  0.8031  0.7758  1.1899
  466MOL0     C61422   2.147   9.321   3.402  0.0939 -0.0217 -0.0584
  466MOL0     C61423   2.202   9.187   3.433  0.1959  0.4915 -0.8090
  466MOL0    Cl61424   2.327   9.144   3.321  0.0340  0.3742 -0.2891
  466MOL0     C61425   2.681  10.002   3.863  0.4367  0.0284 -0.2422
  466MOL0     C61426   2.775  10.102   3.908  0.1933  1.0207 -0.4914
  466MOL0     O61427   2.834  10.387   4.019  0.3013  0.2171  0.2399
  466MOL0     C61428   3.166  10.334   4.163 -0.1978  0.1711  0.2976
  466MOL0     C61429   3.272  10.411   4.225  0.5959  0.9675  1.1390
  466MOL0     N61430   3.896  10.568   4.460  0.4614 -0.0333  0.3998
  466MOL0     N61431   3.999  10.546   4.529 -0.1032  0.3680 -0.5567
  466MOL0     C61432   5.052  10.528   5.249  0.7908 -0.0934  0.9212
  466MOL0     C61433   5.189  10.530   5.259 -0.4647  0.1689  0.1854
  466MOL0     C61434   5.602  10.374   5.315  0.9040  0.1755  0.1512
  466MOL0     C61435   5.636  10.308   5.426 -1.0785  0.7932 -0.3624
  466MOL0     C61436   5.770  10.313   5.481  0.1803  0.0474 -0.0487
  466MOL0     C61437   5.868  10.375   5.407 -1.5244 -0.2559 -1.1301
  466MOL0     O61438   6.006  10.380   5.430 -0.5864  0.2562 -0.2587
  466MOL0     C61439   6.055  10.296   5.543  0.9182  0.2685 -0.0980
  466MOL0     C61440   6.054  10.368   5.676  0.3373  0.1753 -0.7226
  466MOL0     C61441   6.153  10.294   5.772 -0.5801 -0.8880  0.5580
  466MOL0     C61442   6.137  10.144   5.789  0.0113 -0.2467  0.5546
  466MOL0     C61443   5.996  10.107   5.815  0.0252  0.6641 -0.2379
  466MOL0     C61444   5.893  10.054   5.846  0.0697 -0.0945  0.4866
  466MOL0     C61445   5.829  10.439   5.290  0.7216 -0.1675  0.1422
  466MOL0     C61446   5.697  10.443   5.242 -0.4505 -0.2337  0.4294
  466MOL0     H61447   5.282  10.350   4.984 -0.6543 -1.5602  0.9044
  466MOL0     H61448   5.033  10.331   4.972 -1.0422  1.2872  0.0673
  466MOL0     H61449   4.893  10.531   4.943  1.5629 -2.5947  0.6016
  466MOL0     H61450   4.740  10.560   5.022  0.2092 -1.6468  2.7766
  466MOL0     H61451   4.738  10.273   4.998 -0.1642  1.5821  1.1912
  466MOL0     H61452   4.816  10.333   4.845  1.1308 -2.2515  0.3090
  466MOL0     H61453   4.542  10.387   4.973  1.1691 -2.2584  1.7420
  466MOL0     H61454   4.589  10.284   4.836  1.9010  0.1386  0.1097
  466MOL0     H61455   4.627  10.590   4.811  1.9127  0.5588 -1.1433
  466MOL0     H61456   4.650  10.469   4.697 -1.2043 -1.5540 -0.0971
  466MOL0     H61457   4.368  10.527   4.824 -1.6939 -2.7859 -0.9027
  466MOL0     H61458   4.398  10.425   4.688  2.0455 -2.2208  2.7993
  466MOL0     H61459   4.515  10.618   4.566  1.5815 -1.2819 -0.0066
  466MOL0     H61460   4.469  10.735   4.690 -0.8057  1.7352 -2.4903
  466MOL0     H61461   4.302  10.733   4.493 -1.3829  2.4800  1.5551
  466MOL0     H61462   4.294  10.557   4.518  1.9934  0.8629  0.0952
  466MOL0     H61463   4.184  10.771   4.704 -0.1743  0.0112  0.6667
  466MOL0     H61464   4.159  10.596   4.733 -0.9235 -1.8736 -1.4182
  466MOL0     H61465   3.987  10.879   4.537  0.6839 -1.0680  2.7022
  466MOL0     H61466   3.778  10.776   4.257  2.7905 -2.6736  0.1315
  466MOL0     H61467   3.759  10.881   4.403 -3.6249 -0.6228  0.5562
  466MOL0     H61468   3.609  10.729   4.505 -0.8203 -0.2540 -0.2189
  466MOL0     H61469   3.643  10.602   4.375 -1.7903 -0.6130 -0.6913
  466MOL0     H61470   3.525  10.884   4.359  3.4363  0.1580 -1.0001
  466MOL0     H61471   3.530  10.789   4.221 -0.9479  2.8278 -0.1054
  466MOL0     H61472   3.302  10.784   4.331  0.6098 -1.1506 -3.1162
  466MOL0     H61473   3.363  10.677   4.457 -2.8905 -1.3736 -0.9836
  466MOL0     H61474   3.150  10.717   4.185 -4.0795 -0.7447 -1.6453
  466MOL0     H61475   2.948  10.583   4.111 -0.3543  0.2171  1.4141
  466MOL0     H61476   2.810  10.025   4.221 -2.7263  0.4618  2.2532
  466MOL0     H61477   2.604   9.855   4.151 -0.3234 -0.2515 -0.7312
  466MOL0     H61478   2.547   9.792   3.725 -1.4189  2.3140 -2.7098
  466MOL0     H61479   2.402   9.899   3.750  0.6401  1.5079  2.3388
  466MOL0     H61480   2.283   9.730   3.871  0.7193 -0.9085  1.3779
  466MOL0     H61481   2.411   9.610   3.876  2.1500 -3.5553 -4.4669
  466MOL0     H61482   2.385   9.603   3.620 -1.9886  1.3716 -3.2684
  466MOL0     H61483   2.276   9.723   3.621  0.3946  0.6093  1.2888
  466MOL0     H61484   2.243   9.455   3.765 -1.6097 -0.6713 -0.2727
  466MOL0     H61485   2.118   9.588   3.767 -0.9223  0.5664 -2.5774
  466MOL0     H61486   2.054   9.537   3.553  0.0798 -1.2363 -1.1768
  466MOL0     H61487   2.087   9.375   3.620 -1.0630 -0.3027 -3.2408
  466MOL0     H61488   2.316   9.382   3.521 -0.9708 -2.7216  1.5215
  466MOL0     H61489   2.251   9.515   3.420 -2.4322  0.3453 -1.0128
  466MOL0     H61490   2.042   9.340   3.426  0.9005  2.2518  2.1557
  466MOL0     H61491   2.172   9.331   3.296 -1.7041 -1.4557 -0.6753
  466MOL0     H61492   2.126   9.108   3.426 -2.1820  2.3556  1.5939
  466MOL0     H61493   2.244   9.174   3.534  0.0787  1.2871 -0.6531
  466MOL0     H61494   2.668  10.009   3.756  1.9484 -4.8622 -1.0157
  466MOL0     H61495   2.815  10.170   3.834 -0.6613  1.4719 -0.5497
  466MOL0     H61496   3.182  10.229   4.143 -0.1570  0.5193 -1.6590
  466MOL0     H61497   3.364  10.362   4.255  1.3516  2.1710  0.8479
  466MOL0     H61498   4.986  10.574   5.322  2.5491  1.4813  1.6214
  466MOL0     H61499   5.237  10.574   5.346 -3.4682  0.1509  1.9981
  466MOL0     H61500   5.575  10.238   5.482  1.8272  0.0019  2.0914
  466MOL0     H61501   5.798  10.265   5.574  4.1486  0.8420 -0.6620
  466MOL0     H61502   6.158  10.272   5.514  1.5463  0.4521  1.8636
  466MOL0     H61503   6.011  10.197   5.544  2.3358 -0.3911  0.0439
  466MOL0     H61504   6.094  10.466   5.650 -2.4451  1.2752 -1.2140
  466MOL0     H61505   5.957  10.383   5.726  0.3017 -1.4645 -0.2406
  466MOL0     H61506   6.144  10.334   5.874 -1.1860 -0.5954  0.3979
  466MOL0     H61507   6.255  10.310   5.736  0.3271 -0.5926  3.0100
  466MOL0     H61508   6.173  10.092   5.700 -2.0927  0.6212 -0.8867
  466MOL0     H61509   6.197  10.115   5.876  1.3499 -2.5911 -1.0521
  466MOL0     H61510   5.804  10.000   5.869 -0.6908  0.8242 -0.2344
  466MOL0     H61511   5.905  10.471   5.218  3.4079 -0.5621  2.6196
  466MOL0     H61512   5.681  10.511   5.159 -1.4282  0.2560  0.9946
  467MOL0     O61513  10.930   2.657   3.267  0.0092  0.4006  0.2964
  467MOL0     C61514  11.002   2.616   3.354  0.3388  0.4491  0.5715
  467MOL0     O61515  10.971   2.518   3.439  0.6429  0.5376 -0.3268
  467MOL0     C61516  10.846   2.461   3.430  0.2845  0.5826  1.2942
  467MOL0     C61517  10.761   2.492   3.528 -0.5392 -0.8613  0.1467
  467MOL0     C61518  10.629   2.440   3.533  0.5826  0.4740 -0.0253
  467MOL0     C61519  10.584   2.341   3.435  0.0799  1.2475 -0.5067
  467MOL0     O61520  10.454   2.285   3.432 -0.5540  1.6818 -0.0326
  467MOL0     C61521  10.347   2.352   3.500 -0.3567  0.6134  0.1308
  467MOL0     C61522  10.206   2.294   3.476  0.2949 -0.0392  0.5667
  467MOL0     C61523  10.141   2.324   3.339 -0.1827  0.5300  0.2579
  467MOL0     C61524   9.989   2.286   3.339  0.5190 -0.4451  0.0936
  467MOL0     C61525   9.934   2.321   3.201  0.9737 -0.6674 -0.3423
  467MOL0     C61526   9.991   2.254   3.079 -0.0530 -0.0571 -0.9279
  467MOL0     C61527   9.896   2.286   2.958 -0.5523  0.3760  0.7913
  467MOL0     C61528   9.940   2.210   2.835  0.8022 -0.0991  0.1821
  467MOL0     N61529  10.066   2.250   2.781  0.1199 -0.1379  0.2917
  467MOL0     C61530  10.180   2.226   2.852  0.1077 -0.9368  0.0037
  467MOL0     C61531  10.276   2.287   2.781 -1.1895 -0.0328  0.5288
  467MOL0     C61532  10.434   2.290   2.813  0.1695  0.0091 -0.2071
  467MOL0     C61533  10.477   2.428   2.852  0.1502  0.6439  0.3601
  467MOL0     C61534  10.441   2.460   2.999  0.4336  0.6048  0.8098
  467MOL0     C61535  10.511   2.576   3.061  0.2028 -0.0149 -0.1109
  467MOL0     O61536  10.499   2.696   2.994 -0.1243  0.0969 -0.5155
  467MOL0     C61537  10.582   2.800   3.032 -0.8224 -0.0708 -0.7502
  467MOL0     C61538  10.601   2.907   2.939  0.4017 -0.1431 -0.4401
  467MOL0     C61539  10.699   3.002   2.944 -1.5633 -0.1674 -0.4463
  467MOL0     C61540  10.789   3.002   3.058 -0.6561  0.3118  0.1021
  467MOL0     C61541  10.893   3.105   3.071 -0.2078  0.7133 -0.2797
  467MOL0     O61542  10.969   3.089   3.180  0.0374 -0.1267  0.4726
  467MOL0     C61543  11.089   3.157   3.200 -0.8377  0.3656 -0.0940
  467MOL0     C61544  11.115   3.239   3.310 -0.0484  0.8994  0.7622
  467MOL0     C61545  11.245   3.291   3.331 -0.1757  0.0954  0.3051
  467MOL0     C61546  11.347   3.267   3.243 -0.0215  0.2429  0.0217
  467MOL0     O61547  11.460   3.333   3.281  0.3044  0.0680  0.8111
  467MOL0     C61548  11.560   3.352   3.185 -0.0651 -0.4555 -0.9160
  467MOL0     C61549  11.687   3.444   3.237 -0.2147  0.6247  0.7304
  467MOL0     C61550  11.639   3.574   3.302  0.1361 -0.2427  0.9562
  467MOL0     C61551  11.753   3.678   3.319 -0.2126  0.5472 -0.1344
  467MOL0     C61552  11.838   3.655   3.452  0.5138  0.0993  0.4237
  467MOL0     C61553  11.958   3.759   3.457 -0.2779  0.1496  0.4155
  467MOL0     C61554  12.044   3.702   3.571 -0.1615  0.2315  0.6131
  467MOL0     C61555  12.127   3.811   3.633 -0.6336 -0.9821 -0.7623
  467MOL0    Cl61556  12.192   3.764   3.791 -0.7202  0.3818 -0.5607
  467MOL0     C61557  11.322   3.179   3.132  0.5610 -0.4907 -0.2535
  467MOL0     C61558  11.193   3.123   3.113 -0.0985  0.0599 -0.0943
  467MOL0     O61559  10.896   3.205   3.000 -0.7550 -0.4903  0.9293
  467MOL0     C61560  10.764   2.905   3.152 -0.1104  0.4406 -0.6606
  467MOL0     C61561  10.676   2.802   3.141  0.1756 -0.3675  0.4957
  467MOL0     N61562  10.212   2.345   2.666 -0.0059 -0.2071 -0.6045
  467MOL0     N61563  10.088   2.322   2.668  0.6677 -0.5155  0.6011
  467MOL0     C61564  10.680   2.297   3.349 -0.5718  0.0869 -2.0661
  467MOL0     C61565  10.808   2.363   3.344 -0.3764  0.6848  0.7120
  467MOL0     C61566  11.128   2.676   3.373 -0.4859  0.2052 -0.2835
  467MOL0     C61567  11.232   2.618   3.454  0.9707  0.2788 -0.3439
  467MOL0     C61568  11.359   2.660   3.442 -0.3715 -0.4124  0.3378
  467MOL0     C61569  11.398   2.760   3.352  0.6251  0.5145  0.4679
  467MOL0     O61570  11.521   2.814   3.340 -1.4266  0.4808  0.1511
  467MOL0     C61571  11.621   2.770   3.431 -0.4442 -1.4932 -0.2818
  467MOL0     C61572  11.620   2.827   3.572 -0.2281 -0.3223  0.2496
  467MOL0     C61573  11.635   2.982   3.575  0.1356  0.0854  0.5623
  467MOL0     C61574  11.775   3.050   3.553 -1.4130 -0.5050 -0.6227
  467MOL0     C61575  11.869   3.001   3.660 -0.6236  0.0463  1.2154
  467MOL0     C61576  11.947   2.969   3.742  0.0835  0.8645 -0.4905
  467MOL0     C61577  11.299   2.818   3.271 -0.2130 -0.3525 -0.4018
  467MOL0     C61578  11.169   2.782   3.286  0.9362  0.4014 -0.6520
  467MOL0     H61579  10.798   2.562   3.601 -0.0417 -2.3449  1.3649
  467MOL0     H61580  10.566   2.474   3.614  0.5197 -0.1808  0.2050
  467MOL0     H61581  10.360   2.455   3.466  2.6395  0.7397  1.3668
  467MOL0     H61582  10.368   2.355   3.607 -1.6950  0.1613  0.4260
  467MOL0     H61583  10.139   2.347   3.545 -1.7622 -1.7238 -0.0555
  467MOL0     H61584  10.201   2.187   3.496 -0.7710 -0.2778 -0.8533
  467MOL0     H61585  10.192   2.271   3.259 -0.0173  2.0280 -0.6723
  467MOL0     H61586  10.143   2.432   3.318 -1.6443  0.4545 -0.4400
  467MOL0     H61587   9.968   2.183   3.371 -0.7723 -0.1739  0.1840
  467MOL0     H61588   9.935   2.345   3.414 -1.0866 -2.6537  0.7905
  467MOL0     H61589   9.928   2.430   3.196  0.9405 -0.6443  0.1073
  467MOL0     H61590   9.829   2.292   3.212  0.4309  0.7078 -1.6075
  467MOL0     H61591  10.006   2.149   3.106  0.3037 -0.4085 -2.3953
  467MOL0     H61592  10.086   2.306   3.067 -1.5864  3.4105  0.5663
  467MOL0     H61593   9.794   2.254   2.984 -0.5619  1.3513  2.0159
  467MOL0     H61594   9.894   2.392   2.933  1.9355  0.0950 -0.9483
  467MOL0     H61595   9.864   2.236   2.760 -1.3084 -4.3309  0.5433
  467MOL0     H61596   9.938   2.101   2.840  0.7272 -0.1875 -1.3990
  467MOL0     H61597  10.189   2.184   2.951  2.6019  1.4390  0.9318
  467MOL0     H61598  10.475   2.261   2.715 -3.3554 -4.4811 -0.7424
  467MOL0     H61599  10.458   2.209   2.882  0.4889 -0.5950 -1.0066
  467MOL0     H61600  10.426   2.502   2.788  0.3007  0.2988 -0.1591
  467MOL0     H61601  10.585   2.432   2.833  0.1400 -1.1883 -0.2384
  467MOL0     H61602  10.337   2.493   2.992  0.2261  0.3301  2.3233
  467MOL0     H61603  10.452   2.370   3.061 -1.1418 -3.2016 -3.8146
  467MOL0     H61604  10.618   2.552   3.058 -0.0108 -1.1287  0.6861
  467MOL0     H61605  10.478   2.595   3.163  1.4801  0.7778  0.1756
  467MOL0     H61606  10.531   2.907   2.856 -2.5905 -2.8243  1.8335
  467MOL0     H61607  10.709   3.086   2.876  0.9534  0.5967  0.7075
  467MOL0     H61608  11.031   3.270   3.371 -1.9069 -0.0513 -1.1850
  467MOL0     H61609  11.268   3.344   3.423  0.1475  1.8045 -0.7138
  467MOL0     H61610  11.513   3.404   3.102 -1.5316 -0.2063  0.0350
  467MOL0     H61611  11.602   3.257   3.150  0.1510  0.2429 -2.6156
  467MOL0     H61612  11.745   3.472   3.148 -0.0663  0.5567  0.8066
  467MOL0     H61613  11.758   3.405   3.310  2.6458  2.6798 -0.7465
  467MOL0     H61614  11.575   3.541   3.385 -1.1029  0.0457  0.1513
  467MOL0     H61615  11.568   3.621   3.233  0.9800 -1.2718 -0.6699
  467MOL0     H61616  11.822   3.660   3.237 -2.1266 -2.6713 -1.2087
  467MOL0     H61617  11.709   3.779   3.316 -0.3261  0.4980 -2.9204
  467MOL0     H61618  11.867   3.549   3.456 -2.0630 -0.6526  0.8640
  467MOL0     H61619  11.781   3.675   3.543 -3.6311 -1.3968 -1.5796
  467MOL0     H61620  11.905   3.853   3.475  0.6686  0.9954 -1.0148
  467MOL0     H61621  12.006   3.758   3.359  1.1089 -2.1765  1.0464
  467MOL0     H61622  11.989   3.659   3.655  0.1739 -0.6180  0.4084
  467MOL0     H61623  12.095   3.618   3.523 -2.7831 -1.2234  0.1845
  467MOL0     H61624  12.062   3.897   3.657  1.1926  0.5484 -1.0833
  467MOL0     H61625  12.209   3.852   3.573 -2.0859  2.2205 -0.7877
  467MOL0     H61626  11.395   3.160   3.054 -1.5469  0.8156 -2.7232
  467MOL0     H61627  11.175   3.065   3.023  0.9289 -0.0874 -0.2215
  467MOL0     H61628  10.836   2.910   3.233 -0.7386  1.2659 -0.1298
  467MOL0     H61629  10.669   2.712   3.201 -0.8694 -2.5150 -2.5821
  467MOL0     H61630  10.649   2.204   3.301 -1.3936 -0.8415  0.1319
  467MOL0     H61631  10.883   2.298   3.301 -0.9014 -0.2012  1.1129
  467MOL0     H61632  11.210   2.544   3.531  0.6029 -1.6482 -2.1979
  467MOL0     H61633  11.433   2.609   3.503  1.5708  0.2948 -1.2985
  467MOL0     H61634  11.707   2.791   3.367 -1.5437  0.9502 -1.0660
  467MOL0     H61635  11.627   2.660   3.433  0.5360 -1.4511  0.9116
  467MOL0     H61636  11.528   2.805   3.626 -0.0707  0.3181  0.8015
  467MOL0     H61637  11.702   2.785   3.632  0.5500 -2.5827 -2.2169
  467MOL0     H61638  11.620   3.024   3.675  0.4727  1.1032  0.1887
  467MOL0     H61639  11.553   3.021   3.514 -1.1533 -2.4355  0.5400
  467MOL0     H61640  11.821   3.027   3.457  1.6201 -0.6220  0.7365
  467MOL0     H61641  11.768   3.158   3.565 -0.8699 -0.7091  2.4895
  467MOL0     H61642  12.002   2.925   3.823 -1.5126 -0.8923 -0.3113
  467MOL0     H61643  11.327   2.886   3.192  1.7694  0.5410  0.9636
  467MOL0     H61644  11.097   2.824   3.216  0.9705 -0.0049 -0.9322
  468MOL0     O61645   9.048   4.258   4.597  0.1236 -0.0138 -0.5460
  468MOL0     C61646   9.066   4.137   4.567  0.2318 -0.6406 -0.0702
  468MOL0     O61647   8.976   4.045   4.506 -0.2144 -0.1943 -0.0635
  468MOL0     C61648   8.840   4.072   4.482 -0.3367  0.3017 -0.9975
  468MOL0     C61649   8.771   4.184   4.547 -1.0796 -0.0818 -0.2896
  468MOL0     C61650   8.642   4.215   4.503 -0.5033 -0.0571  0.7046
  468MOL0     C61651   8.577   4.138   4.415 -0.4676  0.5979  0.3096
  468MOL0     O61652   8.451   4.164   4.383  1.0169  0.1963 -0.2125
  468MOL0     C61653   8.359   4.069   4.327 -0.9405  0.7187  0.6285
  468MOL0     C61654   8.236   4.123   4.274 -0.1348 -1.5437  0.5596
  468MOL0     C61655   8.150   4.188   4.373 -0.6715 -0.2641 -0.4361
  468MOL0     C61656   8.017   4.223   4.305  1.0941  0.4656 -0.1382
  468MOL0     C61657   7.930   4.312   4.397  1.3805 -0.2562  0.5322
  468MOL0     C61658   7.782   4.281   4.356  0.8661  0.1516  0.2603
  468MOL0     C61659   7.680   4.352   4.450 -0.5418  1.2541 -0.0793
  468MOL0     C61660   7.675   4.503   4.416  0.8931  0.2062  0.3715
  468MOL0     N61661   7.589   4.577   4.502 -0.5823 -0.4434  0.0266
  468MOL0     C61662   7.577   4.561   4.642  0.5059 -0.2342 -0.3913
  468MOL0     C61663   7.471   4.632   4.685  0.6858  0.7290  0.6997
  468MOL0     C61664   7.418   4.638   4.830  0.5497  0.2219 -0.2861
  468MOL0     C61665   7.288   4.725   4.841 -0.1068  0.3017 -0.4286
  468MOL0     C61666   7.226   4.720   4.975  1.2226 -0.2027  0.0118
  468MOL0     C61667   7.282   4.816   5.069 -0.0370  0.0630 -0.7886
  468MOL0     O61668   7.280   4.956   5.026 -0.1555 -0.6675 -0.7317
  468MOL0     C61669   7.161   5.025   5.026  0.8660 -0.0969  1.0356
  468MOL0     C61670   7.161   5.155   4.956 -0.5827  1.0677 -0.2283
  468MOL0     C61671   7.045   5.226   4.945  0.3142  0.1601 -1.1236
  468MOL0     C61672   6.921   5.181   4.997  0.7571  0.5702 -0.4946
  468MOL0     C61673   6.805   5.263   4.981 -0.1659  0.5262  0.7484
  468MOL0     O61674   6.782   5.314   4.852 -0.0962  0.4192 -0.2030
  468MOL0     C61675   6.672   5.402   4.850 -0.3696  0.4761 -0.5685
  468MOL0     C61676   6.546   5.350   4.818  0.5978 -0.5245  0.3570
  468MOL0     C61677   6.436   5.439   4.820  0.3041 -0.0442  0.5336
  468MOL0     C61678   6.452   5.575   4.858 -0.3826  0.0326  0.1341
  468MOL0     O61679   6.349   5.671   4.856 -0.1755 -0.1476 -0.4935
  468MOL0     C61680   6.216   5.634   4.804  0.0857 -0.8918 -0.9961
  468MOL0     C61681   6.134   5.746   4.848  0.0694 -0.3040 -1.1605
  468MOL0     C61682   5.995   5.747   4.782 -0.1166 -0.1307  0.3420
  468MOL0     C61683   5.937   5.617   4.736  0.6208 -0.1773  0.0110
  468MOL0     C61684   5.822   5.634   4.638  0.1999 -0.2970 -0.3928
  468MOL0     C61685   5.720   5.743   4.677  0.8690  0.0564  0.2269
  468MOL0     C61686   5.575   5.701   4.606  0.2195  0.6340  0.0292
  468MOL0     C61687   5.456   5.795   4.638 -0.1179 -0.6364 -0.0148
  468MOL0    Cl61688   5.460   5.951   4.555  0.1937  0.0653 -0.2622
  468MOL0     C61689   6.583   5.629   4.873  0.3468 -0.5254  0.5020
  468MOL0     C61690   6.693   5.536   4.873 -0.1918 -0.1414  0.5652
  468MOL0     O61691   6.738   5.290   5.079 -0.4471 -0.6717  0.0810
  468MOL0     C61692   6.926   5.061   5.067 -0.1234 -0.0823 -0.2906
  468MOL0     C61693   7.040   4.979   5.075 -0.0712 -0.2216  0.4131
  468MOL0     N61694   7.412   4.690   4.574 -0.1053 -0.2208 -0.3335
  468MOL0     N61695   7.471   4.642   4.469 -0.6466 -0.4373 -0.1734
  468MOL0     C61696   8.641   4.027   4.360 -0.4948  0.6898  0.2842
  468MOL0     C61697   8.769   3.994   4.390  0.3725 -0.5928  0.2375
  468MOL0     C61698   9.205   4.105   4.595  0.0864  0.4954 -0.9850
  468MOL0     C61699   9.269   4.001   4.530  0.3226  0.2039  0.4612
  468MOL0     C61700   9.406   3.975   4.549 -0.0227  0.0863 -0.9572
  468MOL0     C61701   9.474   4.048   4.644 -0.6098  0.6287 -0.3032
  468MOL0     O61702   9.599   3.994   4.669 -0.2166 -0.1135 -0.0860
  468MOL0     C61703   9.696   4.076   4.742  0.2135 -0.6130 -1.0522
  468MOL0     C61704   9.828   4.007   4.727  0.5859  0.2665 -0.5812
  468MOL0     C61705   9.936   4.078   4.807 -0.7371 -0.2273 -0.4540
  468MOL0     C61706  10.076   4.018   4.777  0.2555  0.1391  0.3285
  468MOL0     C61707  10.087   3.887   4.844 -0.3932 -0.3375  0.2208
  468MOL0     C61708  10.111   3.773   4.886 -0.6736 -0.4374  0.1243
  468MOL0     C61709   9.421   4.161   4.706 -0.2852 -0.4997  0.3055
  468MOL0     C61710   9.281   4.178   4.687 -0.6447 -0.1630 -0.0793
  468MOL0     H61711   8.823   4.239   4.624  0.7616 -1.9484 -0.1080
  468MOL0     H61712   8.585   4.296   4.547 -1.3344  1.5706 -2.9420
  468MOL0     H61713   8.348   3.987   4.399  4.1466  2.0674  3.4791
  468MOL0     H61714   8.401   4.026   4.235  0.6077  1.6975  0.8337
  468MOL0     H61715   8.175   4.043   4.231 -2.5643  0.7989 -0.6449
  468MOL0     H61716   8.254   4.205   4.204  2.0212 -2.4698 -0.0279
  468MOL0     H61717   8.199   4.279   4.411 -0.2638  0.6655 -2.9895
  468MOL0     H61718   8.140   4.117   4.455  0.3129  0.2133  0.1173
  468MOL0     H61719   8.044   4.284   4.218  1.0682  1.8028  0.7446
  468MOL0     H61720   7.965   4.133   4.274 -2.1684  1.8900  0.7927
  468MOL0     H61721   7.958   4.415   4.371 -3.7750  0.0789 -6.4043
  468MOL0     H61722   7.940   4.299   4.505 -0.6567 -0.2031  0.7668
  468MOL0     H61723   7.766   4.173   4.369 -3.8717  0.3276 -2.1276
  468MOL0     H61724   7.759   4.307   4.252  1.1850 -3.7210 -0.9445
  468MOL0     H61725   7.581   4.305   4.439  0.2924 -0.3620 -0.9822
  468MOL0     H61726   7.718   4.339   4.551  2.4988 -0.2094 -1.2837
  468MOL0     H61727   7.632   4.516   4.316  1.3246  1.8647  0.3794
  468MOL0     H61728   7.776   4.545   4.415  1.7082 -1.4234 -3.0144
  468MOL0     H61729   7.645   4.504   4.705 -0.0235 -3.0628 -2.1825
  468MOL0     H61730   7.488   4.696   4.889  0.1823 -0.2623  0.6429
  468MOL0     H61731   7.410   4.537   4.871  0.0310 -0.5049 -2.0483
  468MOL0     H61732   7.224   4.673   4.771 -1.9627  2.1839 -0.2230
  468MOL0     H61733   7.303   4.829   4.811 -0.4302  1.0048  1.6413
  468MOL0     H61734   7.119   4.737   4.969  1.1641  0.5888  2.3674
  468MOL0     H61735   7.239   4.618   5.013  0.7191 -0.5246 -0.6759
  468MOL0     H61736   7.389   4.802   5.090  0.1354  1.3856 -0.6944
  468MOL0     H61737   7.231   4.807   5.165 -0.8506 -0.8511 -1.2905
  468MOL0     H61738   7.255   5.197   4.923 -1.3117  3.1746  0.1934
  468MOL0     H61739   7.064   5.324   4.902 -0.4295  0.9723  0.3101
  468MOL0     H61740   6.522   5.245   4.803 -1.0088 -0.2773  1.0356
  468MOL0     H61741   6.338   5.399   4.799  0.8179 -0.9822 -0.1186
  468MOL0     H61742   6.177   5.537   4.835  1.5266 -0.5346  2.4509
  468MOL0     H61743   6.216   5.636   4.695 -1.0489  2.1553 -1.0333
  468MOL0     H61744   6.194   5.835   4.832  2.0032 -1.3297 -0.0033
  468MOL0     H61745   6.123   5.742   4.957 -0.2462  0.4098 -1.1610
  468MOL0     H61746   6.019   5.805   4.693 -3.4541  0.1634 -0.4876
  468MOL0     H61747   5.932   5.810   4.845  0.4486  1.3307 -0.5036
  468MOL0     H61748   6.017   5.558   4.692  0.2638 -2.9166  2.7312
  468MOL0     H61749   5.900   5.561   4.822  4.1144 -0.8646  1.1892
  468MOL0     H61750   5.772   5.537   4.640 -0.2400 -0.0843  2.1091
  468MOL0     H61751   5.847   5.639   4.531 -3.2771 -0.6704 -1.3487
  468MOL0     H61752   5.763   5.837   4.642 -0.7811  0.4422 -0.8574
  468MOL0     H61753   5.700   5.746   4.784 -0.7261 -0.6963 -0.0103
  468MOL0     H61754   5.593   5.687   4.500 -2.1889 -0.4488 -0.3034
  468MOL0     H61755   5.548   5.600   4.639 -3.9287  0.4043 -3.2482
  468MOL0     H61756   5.463   5.814   4.745  3.2723 -2.3052  0.2051
  468MOL0     H61757   5.360   5.751   4.610  0.0791 -0.5332 -0.8944
  468MOL0     H61758   6.604   5.734   4.892 -2.2400 -0.3240  2.8076
  468MOL0     H61759   6.797   5.562   4.889  1.0088 -4.7365  1.5876
  468MOL0     H61760   6.838   5.024   5.118 -1.1491  1.3816 -0.9449
  468MOL0     H61761   7.027   4.884   5.124 -0.4535 -1.6430 -2.2579
  468MOL0     H61762   8.598   3.960   4.285  0.2190 -0.0366  0.5124
  468MOL0     H61763   8.829   3.915   4.345 -1.8345 -1.3186 -1.6428
  468MOL0     H61764   9.213   3.943   4.458 -2.7488  2.0024  1.2399
  468MOL0     H61765   9.447   3.888   4.498 -0.3049  0.3407 -1.6357
  468MOL0     H61766   9.654   4.074   4.844 -1.0173 -1.5164 -1.5441
  468MOL0     H61767   9.714   4.171   4.692  1.1615 -2.1951 -3.9415
  468MOL0     H61768   9.815   3.903   4.759 -1.7593 -0.2989 -2.9930
  468MOL0     H61769   9.854   3.996   4.621  0.7934 -4.4360 -0.2515
  468MOL0     H61770   9.923   4.072   4.916  1.2673  0.1097 -0.1489
  468MOL0     H61771   9.932   4.185   4.786 -2.8472  0.4554  2.6515
  468MOL0     H61772  10.090   4.011   4.669 -0.7188  0.9138  0.1378
  468MOL0     H61773  10.165   4.078   4.798  2.3276 -2.4692 -0.4246
  468MOL0     H61774  10.122   3.674   4.924  2.4629 -0.0889  0.4161
  468MOL0     H61775   9.476   4.228   4.772 -1.5490  4.7871 -3.3795
  468MOL0     H61776   9.244   4.263   4.743  0.0681  1.0322 -1.3682
  469MOL0     O61777   6.167   1.770   7.630  0.4016 -0.1011  0.6197
  469MOL0     C61778   6.195   1.882   7.675  0.0100  0.2453  0.2862
  469MOL0     O61779   6.119   1.954   7.771 -0.1253  0.0007  0.0347
  469MOL0     C61780   6.019   1.880   7.837  0.2604 -0.2404 -0.0503
  469MOL0     C61781   6.070   1.765   7.902 -0.0259  0.9369  0.4109
  469MOL0     C61782   5.979   1.666   7.951 -0.6527 -0.7561  0.2461
  469MOL0     C61783   5.836   1.684   7.944  0.6206  0.4102  0.0857
  469MOL0     O61784   5.750   1.584   7.975 -0.2556  0.3858 -0.3510
  469MOL0     C61785   5.610   1.617   7.982  0.1922 -1.2150 -0.1606
  469MOL0     C61786   5.538   1.500   8.041  0.6017 -0.7867  0.2343
  469MOL0     C61787   5.387   1.528   8.065 -0.3511  1.1720 -0.8761
  469MOL0     C61788   5.311   1.387   8.080  0.5908 -0.2542 -0.0987
  469MOL0     C61789   5.163   1.407   8.061  0.0016 -0.2912 -0.7179
  469MOL0     C61790   5.091   1.261   8.054 -0.2112 -0.2207 -0.1467
  469MOL0     C61791   4.955   1.277   7.980  0.1403  0.5754  0.0985
  469MOL0     C61792   4.881   1.153   7.959 -0.9771  1.0316  0.4884
  469MOL0     N61793   4.746   1.194   7.924 -0.4839  0.1524  0.4884
  469MOL0     C61794   4.646   1.214   8.013 -0.0824  0.3158  0.6377
  469MOL0     C61795   4.535   1.238   7.938  0.3317 -0.4557 -0.3782
  469MOL0     C61796   4.391   1.250   7.983 -0.1484  0.0703 -0.7395
  469MOL0     C61797   4.303   1.156   7.899  0.3957  0.3411 -0.6259
  469MOL0     C61798   4.154   1.195   7.924 -0.6168  0.3930  0.0490
  469MOL0     C61799   4.054   1.084   7.901  0.6575  0.1242 -0.3086
  469MOL0     O61800   3.929   1.115   7.955  0.9766  0.0872 -0.3524
  469MOL0     C61801   3.826   1.020   7.958  0.2042  1.0372  0.2078
  469MOL0     C61802   3.708   1.065   8.017 -0.1032 -1.3303  0.1744
  469MOL0     C61803   3.589   0.985   8.013 -0.2678  0.0981  0.1006
  469MOL0     C61804   3.589   0.864   7.942  0.6386  0.5359 -0.8593
  469MOL0     C61805   3.465   0.790   7.933 -0.1764  0.6248 -1.3650
  469MOL0     O61806   3.351   0.837   7.988 -0.1338 -0.1301 -0.2481
  469MOL0     C61807   3.244   0.746   7.980  0.5475  0.7670 -0.3648
  469MOL0     C61808   3.147   0.748   7.875 -0.3343 -0.1847 -0.6155
  469MOL0     C61809   3.036   0.657   7.871 -0.2254 -0.0604 -0.6156
  469MOL0     C61810   3.005   0.575   7.983  0.1311  0.7675 -0.2623
  469MOL0     O61811   2.906   0.485   7.975 -0.4641  0.3884 -0.0919
  469MOL0     C61812   2.775   0.538   7.979 -0.7574  0.1849 -0.9708
  469MOL0     C61813   2.692   0.502   8.105  0.2840 -0.3715 -0.2352
  469MOL0     C61814   2.765   0.483   8.236 -0.3107 -0.2252  0.0117
  469MOL0     C61815   2.668   0.448   8.342  0.0930  0.0423 -0.1350
  469MOL0     C61816   2.724   0.457   8.489 -0.5112 -0.0967 -0.0189
  469MOL0     C61817   2.858   0.382   8.500 -0.3875 -0.4148 -0.6382
  469MOL0     C61818   2.915   0.406   8.640 -0.9980 -0.3977 -0.2866
  469MOL0     C61819   3.056   0.342   8.650  0.4770 -0.1684  0.0915
  469MOL0    Cl61820   3.103   0.337   8.824  0.1312 -0.1234  0.0078
  469MOL0     C61821   3.098   0.580   8.088 -0.9990  0.1744 -0.6928
  469MOL0     C61822   3.223   0.653   8.082  0.9127 -0.9260 -0.4932
  469MOL0     O61823   3.475   0.674   7.885  0.2795 -0.2150  0.1439
  469MOL0     C61824   3.720   0.808   7.900 -0.3517  0.1083  0.7212
  469MOL0     C61825   3.833   0.895   7.904  0.5422  0.1058  0.0192
  469MOL0     N61826   4.584   1.248   7.805  0.5556 -0.8135 -0.0249
  469MOL0     N61827   4.699   1.205   7.800 -0.4396  0.3072 -0.3511
  469MOL0     C61828   5.796   1.794   7.871 -0.0238  0.3484  1.0536
  469MOL0     C61829   5.884   1.889   7.814  0.6787 -0.2410  0.1003
  469MOL0     C61830   6.311   1.958   7.620 -0.4971 -1.2081 -0.2681
  469MOL0     C61831   6.415   1.890   7.559 -0.0953 -0.1824  0.7329
  469MOL0     C61832   6.533   1.949   7.518  0.3136  0.1931  0.0688
  469MOL0     C61833   6.545   2.088   7.531 -0.1316  0.7354  0.1881
  469MOL0     O61834   6.663   2.139   7.496  0.5933 -0.5090  0.4644
  469MOL0     C61835   6.678   2.280   7.484 -0.6861  0.1391  0.9429
  469MOL0     C61836   6.826   2.319   7.450  1.3050  0.4120  0.1531
  469MOL0     C61837   6.923   2.286   7.557  0.8214  0.5215  0.1228
  469MOL0     C61838   6.904   2.386   7.674 -0.2217  0.3690 -0.2032
  469MOL0     C61839   6.955   2.523   7.651 -0.3596  0.5329  0.0815
  469MOL0     C61840   6.992   2.638   7.623  0.0566 -0.5154 -0.2422
  469MOL0     C61841   6.441   2.163   7.588  0.7010  0.6594 -0.2276
  469MOL0     C61842   6.319   2.096   7.633  0.4963 -0.1563  0.5015
  469MOL0     H61843   6.175   1.747   7.924 -0.1033  1.0800  0.9223
  469MOL0     H61844   6.010   1.572   7.995 -0.2250  0.0915  1.8134
  469MOL0     H61845   5.562   1.634   7.885  1.0940 -1.5770 -0.6785
  469MOL0     H61846   5.589   1.701   8.048 -2.0840  0.1731 -2.4349
  469MOL0     H61847   5.578   1.491   8.143  2.6001 -1.0756 -0.5445
  469MOL0     H61848   5.553   1.413   7.977 -1.1732 -1.6809  0.9650
  469MOL0     H61849   5.355   1.589   7.980 -2.5796  1.6599  0.2559
  469MOL0     H61850   5.368   1.580   8.159 -2.1088 -3.1702  1.4207
  469MOL0     H61851   5.358   1.332   7.998  1.7655  2.3286 -1.2647
  469MOL0     H61852   5.325   1.338   8.177 -4.5272 -0.0855  1.0256
  469MOL0     H61853   5.148   1.461   7.967  1.5341 -0.0416 -0.8381
  469MOL0     H61854   5.125   1.476   8.137 -0.4603  0.4476 -1.6006
  469MOL0     H61855   5.073   1.222   8.155  0.2995  1.2567  0.5556
  469MOL0     H61856   5.154   1.196   7.993 -0.3865 -0.4213 -0.1130
  469MOL0     H61857   4.890   1.341   8.040 -2.1126 -0.4958 -1.0483
  469MOL0     H61858   4.970   1.323   7.882 -1.8799  1.7759  0.2885
  469MOL0     H61859   4.888   1.098   8.054  0.7332 -0.2677 -0.3333
  469MOL0     H61860   4.909   1.086   7.878 -2.9977 -1.1588  1.4749
  469MOL0     H61861   4.651   1.181   8.116  0.4078  2.0849  1.2205
  469MOL0     H61862   4.360   1.354   7.968  0.2012  0.2904 -0.0314
  469MOL0     H61863   4.388   1.230   8.091 -0.3690  0.1807 -0.7242
  469MOL0     H61864   4.322   1.059   7.945 -0.7902  0.6116  0.4617
  469MOL0     H61865   4.320   1.158   7.791  0.0021  1.3842 -0.6800
  469MOL0     H61866   4.146   1.245   8.021  0.7969  0.3850  0.1924
  469MOL0     H61867   4.132   1.281   7.859  2.7296  0.8963 -0.6106
  469MOL0     H61868   4.089   0.991   7.945  0.6260 -0.3591 -1.2775
  469MOL0     H61869   4.035   1.079   7.793 -1.1308 -1.7185  0.0413
  469MOL0     H61870   3.698   1.163   8.062 -1.2953 -1.8589  1.1329
  469MOL0     H61871   3.492   1.021   8.047 -0.5582 -0.0890 -0.5163
  469MOL0     H61872   3.163   0.819   7.795  0.9159  0.5743  0.2820
  469MOL0     H61873   2.977   0.648   7.781 -4.6670 -0.3543  2.0624
  469MOL0     H61874   2.726   0.498   7.890 -1.8210  0.8778 -0.7077
  469MOL0     H61875   2.771   0.646   7.962  0.2558  0.9618  2.8585
  469MOL0     H61876   2.627   0.418   8.081 -0.9706  0.4828  0.0749
  469MOL0     H61877   2.633   0.592   8.125  1.5658  0.7212 -1.2058
  469MOL0     H61878   2.823   0.572   8.261 -1.1774  0.1512  0.7085
  469MOL0     H61879   2.847   0.410   8.226 -0.4218 -0.1140 -2.5086
  469MOL0     H61880   2.576   0.507   8.339 -1.1491 -1.8320 -1.2022
  469MOL0     H61881   2.628   0.346   8.332 -3.3885  1.0137  1.8902
  469MOL0     H61882   2.657   0.424   8.568  0.4647  0.8661  1.2624
  469MOL0     H61883   2.739   0.563   8.513 -0.1637 -0.0676 -0.3398
  469MOL0     H61884   2.936   0.402   8.426  1.3993 -3.5001  0.2396
  469MOL0     H61885   2.835   0.276   8.492  0.9849 -0.8827  0.9694
  469MOL0     H61886   2.911   0.508   8.678 -0.9673 -0.1314 -0.9908
  469MOL0     H61887   2.849   0.340   8.698 -1.8337  0.0655 -0.6882
  469MOL0     H61888   3.128   0.404   8.596  0.3815  0.4140  0.6271
  469MOL0     H61889   3.049   0.239   8.613 -0.0254  0.2729 -1.0918
  469MOL0     H61890   3.070   0.517   8.172 -6.1398  0.5477 -1.8154
  469MOL0     H61891   3.301   0.652   8.157  2.0386 -0.2456 -1.6186
  469MOL0     H61892   3.728   0.711   7.851 -0.1507  0.8912 -0.8546
  469MOL0     H61893   3.930   0.865   7.866  0.6829  0.8932 -0.2697
  469MOL0     H61894   5.694   1.807   7.837  0.1773  1.1386  0.7125
  469MOL0     H61895   5.849   1.974   7.756 -1.4495 -0.3796  1.0747
  469MOL0     H61896   6.395   1.784   7.549 -2.4789  0.3262 -0.5865
  469MOL0     H61897   6.614   1.887   7.481 -0.6005 -0.5258 -0.7804
  469MOL0     H61898   6.645   2.336   7.572  2.2301  1.1871  1.4949
  469MOL0     H61899   6.611   2.307   7.402  0.5418 -2.7541 -1.1789
  469MOL0     H61900   6.862   2.264   7.362 -0.6075 -0.5733 -0.0753
  469MOL0     H61901   6.826   2.428   7.444 -1.1692  0.5106  0.6837
  469MOL0     H61902   7.022   2.296   7.514 -0.4367  0.2803 -3.1003
  469MOL0     H61903   6.910   2.184   7.595 -1.5212  0.3844 -0.8809
  469MOL0     H61904   6.798   2.390   7.703  0.3477  0.6597  2.0446
  469MOL0     H61905   6.958   2.339   7.757 -2.5681  0.9118  1.7683
  469MOL0     H61906   7.005   2.730   7.569 -1.2055 -0.4110 -0.4100
  469MOL0     H61907   6.455   2.267   7.616  0.7981  0.3440  0.9944
  469MOL0     H61908   6.243   2.150   7.689 -0.2181  1.1891 -1.6302
  470MOL0     O61909   5.578   2.742   7.482  0.0177  0.0877  0.0811
  470MOL0     C61910   5.509   2.769   7.572  0.6590  0.6894 -0.2070
  470MOL0     O61911   5.549   2.815   7.694  1.3535  0.5740  0.2852
  470MOL0     C61912   5.689   2.844   7.718  0.2909  0.1794  0.4344
  470MOL0     C61913   5.720   2.982   7.694  0.1867  0.5653 -0.2127
  470MOL0     C61914   5.845   3.032   7.699 -0.5325 -0.7383  0.2309
  470MOL0     C61915   5.952   2.954   7.744  0.6612  0.9664  0.5273
  470MOL0     O61916   6.081   2.995   7.742 -0.6746 -0.3485  0.6247
  470MOL0     C61917   6.099   3.081   7.855 -0.7567 -0.5577 -0.3336
  470MOL0     C61918   6.248   3.120   7.884  0.5705  0.2461  0.5373
  470MOL0     C61919   6.324   3.154   7.756  0.5396  0.0532  0.8723
  470MOL0     C61920   6.266   3.269   7.672 -0.4324 -0.6050 -0.1436
  470MOL0     C61921   6.370   3.301   7.565  0.1268  0.5259 -0.1456
  470MOL0     C61922   6.469   3.417   7.616  0.2169 -0.3282  0.4461
  470MOL0     C61923   6.539   3.454   7.483 -0.7686  0.1547 -0.2610
  470MOL0     C61924   6.614   3.585   7.494 -0.3458 -0.0286 -0.0967
  470MOL0     N61925   6.731   3.577   7.591 -0.6629 -0.1385  0.6060
  470MOL0     C61926   6.818   3.468   7.586 -0.4903 -0.5016  0.0854
  470MOL0     C61927   6.901   3.485   7.695  0.3334  0.6261 -0.8005
  470MOL0     C61928   7.023   3.411   7.748 -0.5342 -0.5436 -0.0189
  470MOL0     C61929   7.148   3.495   7.717  0.7789 -0.8268  0.4339
  470MOL0     C61930   7.204   3.491   7.574  0.0163 -0.1204  0.2945
  470MOL0     C61931   7.232   3.355   7.516  0.1630 -0.2822 -0.5494
  470MOL0     O61932   7.262   3.361   7.379  0.4604  0.1959  0.7783
  470MOL0     C61933   7.390   3.398   7.330 -0.5530 -0.4313  0.1276
  470MOL0     C61934   7.423   3.399   7.194 -0.4387  0.6563 -0.1507
  470MOL0     C61935   7.554   3.443   7.149 -0.5324 -0.0701 -0.0681
  470MOL0     C61936   7.660   3.480   7.233 -0.0611 -0.0539  0.5419
  470MOL0     C61937   7.790   3.539   7.189 -0.1241 -0.4018  0.1691
  470MOL0     O61938   7.795   3.606   7.076 -0.3411 -0.0437  0.8861
  470MOL0     C61939   7.920   3.632   7.018 -0.1710  1.1009 -0.0232
  470MOL0     C61940   7.946   3.582   6.892 -0.4814  0.2101  0.3133
  470MOL0     C61941   8.073   3.601   6.830  0.6738  0.6319 -0.2196
  470MOL0     C61942   8.179   3.675   6.899  0.6190 -0.2525 -0.2884
  470MOL0     O61943   8.302   3.692   6.841  0.0970 -0.3108  0.2995
  470MOL0     C61944   8.413   3.745   6.922  0.1715  0.0970 -0.4942
  470MOL0     C61945   8.529   3.791   6.840 -0.1492  0.8406  0.0165
  470MOL0     C61946   8.639   3.863   6.921  0.0906  0.7568 -0.8698
  470MOL0     C61947   8.730   3.945   6.827 -0.0260  0.3183 -0.0068
  470MOL0     C61948   8.851   4.004   6.907 -0.0565 -0.2516 -0.5745
  470MOL0     C61949   8.936   4.081   6.812 -0.1224 -0.0707  0.1269
  470MOL0     C61950   9.067   4.144   6.858  0.3379 -0.6824  1.2844
  470MOL0     C61951   9.049   4.250   6.972  0.9113 -0.3950 -0.3027
  470MOL0    Cl61952   8.948   4.390   6.908 -0.0445  0.1753  0.1536
  470MOL0     C61953   8.144   3.722   7.034 -0.3014 -0.3694  0.5623
  470MOL0     C61954   8.021   3.692   7.086  0.2387 -0.8515  0.0523
  470MOL0     O61955   7.892   3.503   7.256 -0.4111  0.1888  0.7300
  470MOL0     C61956   7.628   3.479   7.371  0.4148  0.0855  0.9252
  470MOL0     C61957   7.494   3.428   7.411 -0.7822 -0.6736 -0.3984
  470MOL0     N61958   6.851   3.599   7.758 -0.4364 -0.1591 -0.3753
  470MOL0     N61959   6.754   3.658   7.699  0.3920 -0.4676  0.5796
  470MOL0     C61960   5.925   2.817   7.784  0.1912 -0.5688  0.8360
  470MOL0     C61961   5.795   2.766   7.773  0.2292  0.1105  0.0059
  470MOL0     C61962   5.372   2.729   7.556  0.0252  0.3771 -0.5952
  470MOL0     C61963   5.317   2.701   7.430 -0.4772 -0.4157  0.1699
  470MOL0     C61964   5.180   2.671   7.418 -0.1532 -0.4314 -0.2090
  470MOL0     C61965   5.090   2.673   7.525  0.8806 -0.9631  0.6497
  470MOL0     O61966   4.953   2.642   7.501  0.7730 -0.7425 -0.0599
  470MOL0     C61967   4.881   2.590   7.617  0.7406  0.5447  0.3839
  470MOL0     C61968   4.789   2.470   7.579  0.1978 -0.7088  0.8290
  470MOL0     C61969   4.693   2.537   7.465  0.1131 -0.1745 -0.3538
  470MOL0     C61970   4.584   2.435   7.436 -0.6712  0.2827  0.5910
  470MOL0     C61971   4.488   2.504   7.348  0.2641  1.4133  0.3069
  470MOL0     C61972   4.413   2.566   7.279 -0.4506 -0.3983 -0.1928
  470MOL0     C61973   5.146   2.703   7.655  0.8387  0.3982  0.1152
  470MOL0     C61974   5.286   2.731   7.668 -0.4492  0.4167  0.5368
  470MOL0     H61975   5.636   3.036   7.652  0.4956  0.4528 -1.0042
  470MOL0     H61976   5.856   3.137   7.673  1.4826 -0.8788  0.3650
  470MOL0     H61977   6.060   3.051   7.952 -1.6849 -1.5676 -1.0026
  470MOL0     H61978   6.034   3.164   7.828 -0.3044 -0.1116 -0.0768
  470MOL0     H61979   6.293   3.040   7.943 -1.1998 -0.8432  0.4885
  470MOL0     H61980   6.242   3.210   7.947 -4.1999  0.2821  0.3820
  470MOL0     H61981   6.328   3.062   7.697 -1.6853  0.3611  0.1515
  470MOL0     H61982   6.425   3.181   7.788  2.4599 -3.2498 -1.7365
  470MOL0     H61983   6.171   3.233   7.631 -0.8141  0.7031 -0.4588
  470MOL0     H61984   6.255   3.354   7.740  1.5516 -0.8619  0.5351
  470MOL0     H61985   6.322   3.329   7.471 -0.9257 -4.1193 -1.2360
  470MOL0     H61986   6.430   3.212   7.543 -1.8389 -0.7769 -0.4732
  470MOL0     H61987   6.542   3.377   7.688  3.2860  1.3712 -1.4834
  470MOL0     H61988   6.407   3.496   7.659  0.3906  0.4805 -0.7525
  470MOL0     H61989   6.612   3.377   7.459  1.9927  1.5874  2.6759
  470MOL0     H61990   6.471   3.473   7.399  1.8256  1.1968 -2.2652
  470MOL0     H61991   6.544   3.659   7.536 -1.5981 -1.8792  1.2631
  470MOL0     H61992   6.641   3.613   7.392 -0.1569  1.5989  0.3725
  470MOL0     H61993   6.823   3.386   7.515 -2.7320 -0.0303 -0.7103
  470MOL0     H61994   7.023   3.314   7.697 -0.1410  0.7119 -2.6070
  470MOL0     H61995   7.029   3.395   7.856  0.5006  2.6025  0.4993
  470MOL0     H61996   7.220   3.459   7.791  0.0215 -3.1490  0.1217
  470MOL0     H61997   7.131   3.601   7.739  1.7607 -0.0357 -2.1503
  470MOL0     H61998   7.127   3.537   7.511 -0.9216  1.2800  2.3524
  470MOL0     H61999   7.294   3.552   7.569 -1.0582  1.7134  1.8942
  470MOL0     H62000   7.141   3.295   7.529  0.4346 -0.5327  0.2174
  470MOL0     H62001   7.305   3.305   7.579  0.0967 -1.1769 -1.1712
  470MOL0     H62002   7.345   3.365   7.128 -2.0781  3.4776  0.1676
  470MOL0     H62003   7.571   3.438   7.042  1.0978  0.2479  0.1605
  470MOL0     H62004   7.873   3.525   6.837 -1.1774 -0.2049  1.6460
  470MOL0     H62005   8.078   3.564   6.727 -1.1557  1.6598 -0.7238
  470MOL0     H62006   8.444   3.667   6.992 -0.0619  0.1446 -0.3402
  470MOL0     H62007   8.384   3.830   6.984  1.1250  1.3886 -1.7393
  470MOL0     H62008   8.493   3.855   6.759  3.0203  1.9368 -0.6615
  470MOL0     H62009   8.575   3.705   6.789 -1.5616  1.0624 -1.7303
  470MOL0     H62010   8.694   3.796   6.987  0.8898  1.5094 -0.7512
  470MOL0     H62011   8.596   3.937   6.989  2.0329  0.1579  1.1438
  470MOL0     H62012   8.763   3.884   6.743 -0.9261  2.3066 -1.8852
  470MOL0     H62013   8.672   4.032   6.796 -0.2631  0.9746  2.0992
  470MOL0     H62014   8.906   3.916   6.942  3.8950  1.3275 -2.2822
  470MOL0     H62015   8.809   4.062   6.990  1.2476 -0.9890  0.6393
  470MOL0     H62016   8.871   4.154   6.762  0.5512 -0.2426 -1.0624
  470MOL0     H62017   8.968   4.019   6.728 -1.2029  0.0259 -0.3709
  470MOL0     H62018   9.139   4.066   6.887 -0.3960 -1.4889  0.9700
  470MOL0     H62019   9.114   4.191   6.771 -0.8955 -0.8145  0.5273
  470MOL0     H62020   9.147   4.287   7.006  0.2727 -0.7854  2.1794
  470MOL0     H62021   8.997   4.202   7.055  0.3281 -1.7635 -1.4356
  470MOL0     H62022   8.212   3.773   7.102  0.0989 -0.1102 -0.0182
  470MOL0     H62023   8.009   3.722   7.190 -0.8170  1.2145 -0.6223
  470MOL0     H62024   7.696   3.524   7.443 -0.0454  0.6738  1.0017
  470MOL0     H62025   7.491   3.431   7.520 -0.1894  3.3071 -0.3237
  470MOL0     H62026   6.001   2.761   7.837  1.3561  0.7391  0.5983
  470MOL0     H62027   5.769   2.664   7.801 -1.2537 -0.8791 -4.2688
  470MOL0     H62028   5.381   2.708   7.342 -1.3837  2.5234 -0.3415
  470MOL0     H62029   5.137   2.647   7.321  3.7474  0.1737 -2.2877
  470MOL0     H62030   4.810   2.666   7.650  0.5503  0.2140  0.7496
  470MOL0     H62031   4.949   2.550   7.693  0.7339  2.3255  1.3880
  470MOL0     H62032   4.848   2.389   7.534  0.7068  0.3671 -0.5168
  470MOL0     H62033   4.728   2.436   7.663  2.1169  0.7507  2.9435
  470MOL0     H62034   4.743   2.565   7.372 -1.4148 -2.1199 -1.8646
  470MOL0     H62035   4.643   2.624   7.509 -1.7163 -1.8167  0.9626
  470MOL0     H62036   4.622   2.345   7.386 -3.4355 -0.5801 -0.1383
  470MOL0     H62037   4.537   2.404   7.530 -2.6894  0.5509 -0.2901
  470MOL0     H62038   4.360   2.636   7.218 -0.1838 -0.0961 -0.0813
  470MOL0     H62039   5.087   2.724   7.743  1.4838 -0.0632  0.6659
  470MOL0     H62040   5.327   2.763   7.763 -1.4528  2.9936  0.1813
  471MOL0     O62041   6.045   2.630   6.073  0.6401 -0.3684  0.2677
  471MOL0     C62042   6.096   2.536   6.006  0.2547 -0.3534  1.1276
  471MOL0     O62043   6.037   2.417   5.969 -0.0409  0.1773  0.8413
  471MOL0     C62044   5.903   2.409   5.964  0.0750 -0.2620 -0.4825
  471MOL0     C62045   5.858   2.294   5.915 -0.2861  0.6141 -0.0497
  471MOL0     C62046   5.729   2.259   5.888  0.4251 -0.7586  0.3626
  471MOL0     C62047   5.621   2.350   5.891 -0.8456 -0.2468 -0.1620
  471MOL0     O62048   5.495   2.323   5.851 -0.1073 -0.1488 -0.1767
  471MOL0     C62049   5.380   2.405   5.867 -0.5387  0.0475  0.8975
  471MOL0     C62050   5.267   2.343   5.773  0.3935  0.0364 -0.0354
  471MOL0     C62051   5.127   2.410   5.788 -0.2223 -0.7433 -0.2028
  471MOL0     C62052   5.137   2.563   5.768 -0.6641  0.4503 -0.2349
  471MOL0     C62053   5.001   2.615   5.736  0.5142  0.1218 -0.4908
  471MOL0     C62054   4.929   2.581   5.605  0.8517 -0.4523 -0.5912
  471MOL0     C62055   4.783   2.632   5.639  0.4957 -0.3988  0.5769
  471MOL0     C62056   4.720   2.694   5.510  0.3904  1.0031  0.0817
  471MOL0     N62057   4.728   2.607   5.393 -0.5799  0.9662  0.2883
  471MOL0     C62058   4.643   2.502   5.381  0.7684  0.3599  0.1947
  471MOL0     C62059   4.676   2.454   5.258 -1.0233  0.1642 -0.3642
  471MOL0     C62060   4.607   2.334   5.185 -0.6467 -0.3891 -0.9173
  471MOL0     C62061   4.491   2.374   5.101  1.2278  0.4441  0.3164
  471MOL0     C62062   4.370   2.410   5.188 -0.2663  0.7755 -0.2661
  471MOL0     C62063   4.248   2.448   5.112 -0.0193 -0.1377  0.1799
  471MOL0     O62064   4.141   2.503   5.202 -0.1947  0.5198  0.1816
  471MOL0     C62065   4.018   2.538   5.146  0.0290  0.2897  0.0702
  471MOL0     C62066   3.918   2.580   5.229 -0.3505  0.0241 -0.2725
  471MOL0     C62067   3.779   2.591   5.182 -0.4392  0.3651 -0.1889
  471MOL0     C62068   3.752   2.568   5.044  1.2543 -0.3050 -0.0382
  471MOL0     C62069   3.610   2.582   4.990 -0.1704 -0.1870  0.2092
  471MOL0     O62070   3.600   2.611   4.854 -0.3720  0.5627  0.1178
  471MOL0     C62071   3.494   2.656   4.791  1.0488  0.3219  0.1646
  471MOL0     C62072   3.520   2.722   4.670  0.3288  0.6581 -1.0890
  471MOL0     C62073   3.407   2.785   4.600 -0.7053 -0.5161 -1.4535
  471MOL0     C62074   3.275   2.786   4.647 -0.3040  0.0441  0.4181
  471MOL0     O62075   3.164   2.856   4.594 -0.6203  0.3495 -0.6954
  471MOL0     C62076   3.184   2.937   4.478  0.3815  0.2647 -0.0639
  471MOL0     C62077   3.075   3.035   4.458 -0.3337 -0.7778  1.5354
  471MOL0     C62078   2.942   2.969   4.401 -0.1931 -0.1874 -0.2624
  471MOL0     C62079   2.824   3.054   4.423  0.2614 -0.4918  0.0565
  471MOL0     C62080   2.809   3.177   4.332  0.6801 -0.6561 -0.5628
  471MOL0     C62081   2.798   3.141   4.181 -0.5349 -0.5447 -0.3763
  471MOL0     C62082   2.645   3.115   4.147 -0.0502 -1.0045  0.1163
  471MOL0     C62083   2.556   3.238   4.154 -0.1697 -0.7852  0.1877
  471MOL0    Cl62084   2.607   3.379   4.061  0.0790 -0.4361 -0.0158
  471MOL0     C62085   3.247   2.710   4.764 -0.4976 -0.2943 -0.2733
  471MOL0     C62086   3.354   2.649   4.838 -0.8565  0.5305 -0.1143
  471MOL0     O62087   3.516   2.589   5.070  0.3844  0.1851 -0.0344
  471MOL0     C62088   3.855   2.541   4.955 -0.6806 -0.2400  0.2424
  471MOL0     C62089   3.987   2.532   5.004  0.0579 -0.0415  0.0804
  471MOL0     N62090   4.770   2.539   5.203  0.1517  0.2427 -1.1494
  471MOL0     N62091   4.811   2.625   5.285  0.1795 -0.4770  0.6016
  471MOL0     C62092   5.663   2.474   5.952 -0.2637  0.2929 -0.1262
  471MOL0     C62093   5.797   2.498   5.997  0.1705 -0.6847  0.8873
  471MOL0     C62094   6.240   2.536   6.009 -0.3894 -0.1146 -0.1999
  471MOL0     C62095   6.312   2.417   5.982 -1.0938  0.5379  0.8687
  471MOL0     C62096   6.448   2.421   5.955 -0.7311  0.2036  0.4028
  471MOL0     C62097   6.520   2.531   5.994 -0.0691 -0.1372  0.8125
  471MOL0     O62098   6.655   2.521   5.962  0.2697 -0.1802 -0.6657
  471MOL0     C62099   6.747   2.593   6.046  0.7654 -0.4407 -0.1585
  471MOL0     C62100   6.804   2.491   6.136 -0.1237 -0.4611 -0.0026
  471MOL0     C62101   6.926   2.548   6.223  0.1400  0.4919  0.8212
  471MOL0     C62102   7.009   2.434   6.290  0.1017  0.5547  0.2345
  471MOL0     C62103   7.091   2.363   6.193 -0.4892  0.3745 -0.6907
  471MOL0     C62104   7.168   2.318   6.110  0.0930 -0.6447  0.0820
  471MOL0     C62105   6.456   2.641   6.037 -0.0297 -0.2642 -0.2074
  471MOL0     C62106   6.316   2.655   6.033  0.7098 -0.1245  0.5449
  471MOL0     H62107   5.922   2.209   5.892 -2.6040 -1.2212 -0.1625
  471MOL0     H62108   5.698   2.161   5.852  1.6651 -0.7900 -0.7085
  471MOL0     H62109   5.411   2.505   5.837 -2.7260  0.8085  1.0380
  471MOL0     H62110   5.346   2.409   5.971 -0.2950 -1.5628  1.0645
  471MOL0     H62111   5.270   2.234   5.772 -0.8811 -0.1220  3.0880
  471MOL0     H62112   5.295   2.370   5.670 -1.4611  1.9359 -0.1100
  471MOL0     H62113   5.082   2.389   5.885 -5.9012 -1.2424 -2.5445
  471MOL0     H62114   5.055   2.357   5.725 -2.7958 -0.3123  2.1931
  471MOL0     H62115   5.177   2.612   5.857 -2.9429  1.8990  0.0880
  471MOL0     H62116   5.208   2.586   5.689  0.9359 -1.5042  0.5438
  471MOL0     H62117   5.012   2.724   5.733 -1.6672  0.3634 -2.5850
  471MOL0     H62118   4.935   2.594   5.821  1.7932 -1.1117  0.2311
  471MOL0     H62119   4.925   2.473   5.591  1.5216 -0.7062  0.9861
  471MOL0     H62120   4.982   2.632   5.524  0.0914 -1.2506 -1.6093
  471MOL0     H62121   4.718   2.545   5.653  1.1908 -1.2878 -1.3903
  471MOL0     H62122   4.770   2.698   5.725 -1.3481 -0.7085  0.5786
  471MOL0     H62123   4.782   2.781   5.486 -1.4836  2.3788 -0.0570
  471MOL0     H62124   4.621   2.736   5.530  0.6150  1.6963 -0.2195
  471MOL0     H62125   4.573   2.462   5.454 -1.5874  0.8382 -1.6715
  471MOL0     H62126   4.578   2.253   5.252  1.4853 -0.6904 -0.2685
  471MOL0     H62127   4.688   2.292   5.124 -2.4080  0.6110 -4.1807
  471MOL0     H62128   4.451   2.293   5.040 -3.4733  0.8861  2.3424
  471MOL0     H62129   4.515   2.456   5.033  0.6727 -1.0735 -1.7939
  471MOL0     H62130   4.342   2.323   5.248 -0.6634  0.1183 -1.3745
  471MOL0     H62131   4.398   2.497   5.248  1.3490  2.3085 -3.0463
  471MOL0     H62132   4.209   2.358   5.063 -0.7993  0.3618 -0.1243
  471MOL0     H62133   4.271   2.532   5.046 -0.1099  0.6631  1.1556
  471MOL0     H62134   3.934   2.560   5.335  1.3948  0.3743 -0.4464
  471MOL0     H62135   3.691   2.604   5.244 -0.5463 -1.1739  0.0168
  471MOL0     H62136   3.616   2.714   4.620 -0.1950  2.7353 -2.5570
  471MOL0     H62137   3.440   2.839   4.512  1.2100 -1.2312 -1.2227
  471MOL0     H62138   3.190   2.876   4.387  1.6693  1.8693 -1.1102
  471MOL0     H62139   3.278   2.993   4.483  0.9210 -0.3745 -2.1576
  471MOL0     H62140   3.115   3.105   4.384 -0.9222  1.0558  2.8787
  471MOL0     H62141   3.065   3.084   4.555  1.1022 -0.1014  1.3669
  471MOL0     H62142   2.915   2.870   4.440  1.1539 -0.5961 -0.3317
  471MOL0     H62143   2.959   2.957   4.294 -0.9621  1.6718 -0.6279
  471MOL0     H62144   2.735   2.994   4.400  1.0591 -1.6388 -0.1069
  471MOL0     H62145   2.832   3.085   4.528  1.3922  0.2803 -0.2369
  471MOL0     H62146   2.900   3.238   4.338  1.0147 -0.8625 -2.5942
  471MOL0     H62147   2.728   3.237   4.373  0.4543 -1.0240 -0.4637
  471MOL0     H62148   2.854   3.053   4.150  0.7063  0.4746 -1.1599
  471MOL0     H62149   2.834   3.218   4.112 -3.4227  1.8543  0.5470
  471MOL0     H62150   2.640   3.079   4.043 -1.5318 -1.6670  0.4039
  471MOL0     H62151   2.610   3.029   4.205  1.8713 -1.3080  0.9006
  471MOL0     H62152   2.539   3.278   4.255  0.9275  0.7848 -0.2080
  471MOL0     H62153   2.456   3.221   4.113 -0.7901  1.7604  0.4666
  471MOL0     H62154   3.147   2.693   4.802 -0.1639 -0.4216  0.5647
  471MOL0     H62155   3.338   2.601   4.933 -2.6301  2.1223  0.4469
  471MOL0     H62156   3.838   2.522   4.850  2.5474 -1.0493 -0.2351
  471MOL0     H62157   4.060   2.509   4.927  0.3915  0.9886  0.0784
  471MOL0     H62158   5.585   2.550   5.956 -1.9988 -1.3968 -0.0991
  471MOL0     H62159   5.807   2.596   6.044 -2.9270  0.0245  0.2955
  471MOL0     H62160   6.249   2.329   5.972  0.5555 -0.4925 -1.1780
  471MOL0     H62161   6.486   2.333   5.905  1.1453  2.1128 -1.8126
  471MOL0     H62162   6.702   2.677   6.098  3.3337  3.5208 -3.6672
  471MOL0     H62163   6.821   2.628   5.973  0.1094 -3.3319 -2.4141
  471MOL0     H62164   6.730   2.459   6.210 -0.2694  4.1489  2.2080
  471MOL0     H62165   6.850   2.414   6.075 -1.9970 -3.0715  1.6769
  471MOL0     H62166   6.882   2.601   6.307  1.5128  0.7563  1.4088
  471MOL0     H62167   6.995   2.614   6.169  1.9228 -1.3660  0.7038
  471MOL0     H62168   7.074   2.488   6.360 -1.0525  5.4354 -1.9976
  471MOL0     H62169   6.943   2.355   6.328  0.3690  1.1806  2.1322
  471MOL0     H62170   7.243   2.283   6.043 -0.8465 -2.4653 -0.0713
  471MOL0     H62171   6.511   2.730   6.066  0.4369 -1.5077  3.3287
  471MOL0     H62172   6.267   2.751   6.044 -3.6540 -1.9729 -0.6537
  472MOL0     O62173   3.271   7.945   9.570 -0.1404 -0.6375 -0.9181
  472MOL0     C62174   3.297   8.061   9.533 -1.2141 -0.8986 -0.1928
  472MOL0     O62175   3.213   8.141   9.463 -0.3955  1.0164 -0.1129
  472MOL0     C62176   3.111   8.083   9.401  0.0985  0.0504  1.3646
  472MOL0     C62177   2.988   8.059   9.460  0.7967 -0.6087  0.2101
  472MOL0     C62178   2.883   8.003   9.388 -0.2644 -0.4823 -0.0951
  472MOL0     C62179   2.903   7.965   9.252 -0.6263  0.4191  0.3196
  472MOL0     O62180   2.799   7.901   9.184 -0.2376 -0.5396  0.3113
  472MOL0     C62181   2.833   7.854   9.052 -0.2469  0.1765 -0.8621
  472MOL0     C62182   2.703   7.791   9.002 -0.6543  1.1860  0.1922
  472MOL0     C62183   2.593   7.896   8.967  0.4932 -0.2630  1.0559
  472MOL0     C62184   2.478   7.815   8.911 -0.4470 -0.8439 -0.1499
  472MOL0     C62185   2.346   7.901   8.921 -0.5451 -0.5037 -0.3814
  472MOL0     C62186   2.229   7.801   8.900 -0.7028  0.4761 -0.5820
  472MOL0     C62187   2.214   7.739   8.759 -0.2055  0.9635 -0.1814
  472MOL0     C62188   2.100   7.635   8.759 -0.7577  0.1132  0.2064
  472MOL0     N62189   1.967   7.693   8.772  0.1051  1.0912 -0.4980
  472MOL0     C62190   1.914   7.734   8.892  0.4614 -0.6950 -0.6159
  472MOL0     C62191   1.801   7.793   8.856 -0.2756 -0.2620  0.5567
  472MOL0     C62192   1.710   7.854   8.961 -1.0928  0.7094 -0.4970
  472MOL0     C62193   1.628   7.743   9.024 -0.5861  0.3015  0.6812
  472MOL0     C62194   1.508   7.711   8.937 -0.5504 -0.1909  0.5650
  472MOL0     C62195   1.424   7.597   8.989 -0.4595  0.4092 -0.3348
  472MOL0     O62196   1.392   7.615   9.129 -0.0598 -0.5299  0.5528
  472MOL0     C62197   1.267   7.634   9.170  0.2668  0.3883  0.0764
  472MOL0     C62198   1.243   7.708   9.288  0.5484 -0.0539  0.4585
  472MOL0     C62199   1.113   7.715   9.337  0.3294 -0.1284 -0.5243
  472MOL0     C62200   1.003   7.655   9.271 -0.0906 -0.3782 -0.5523
  472MOL0     C62201   0.861   7.672   9.336 -0.2970 -0.7314  0.2290
  472MOL0     O62202   0.868   7.723   9.465 -0.5568  0.0510  0.5319
  472MOL0     C62203   0.761   7.739   9.552  0.9678  0.0707  0.0171
  472MOL0     C62204   0.782   7.703   9.684 -0.4642 -0.2683  0.4144
  472MOL0     C62205   0.685   7.719   9.784  0.3044  1.2617 -0.4204
  472MOL0     C62206   0.571   7.786   9.757 -0.2165 -0.4844 -0.5075
  472MOL0     O62207   0.501   7.813   9.875  0.0229 -0.5822  0.1852
  472MOL0     C62208   0.363   7.845   9.849  1.4001  0.4434  0.7801
  472MOL0     C62209   0.278   7.815   9.967  0.7385  0.1095 -0.3645
  472MOL0     C62210   0.143   7.893   9.986  0.0854 -0.3390  0.5701
  472MOL0     C62211   0.060   7.822  10.098 -0.2794 -0.6370 -0.3020
  472MOL0     C62212  -0.075   7.894  10.130  0.1825  1.2019 -0.4156
  472MOL0     C62213  -0.092   8.047  10.113  0.0308  0.5198  0.8906
  472MOL0     C62214  -0.015   8.133  10.214  0.5366 -0.4078  0.0078
  472MOL0     C62215  -0.017   8.282  10.164  0.1559  0.5114 -0.2220
  472MOL0    Cl62216   0.086   8.291  10.015 -0.2137 -0.0887  0.4933
  472MOL0     C62217   0.541   7.817   9.621 -0.2867 -0.3101 -1.1040
  472MOL0     C62218   0.634   7.789   9.524  0.0720 -0.2235  1.0448
  472MOL0     O62219   0.761   7.642   9.275  0.0590 -0.3687  0.1884
  472MOL0     C62220   1.027   7.581   9.150  0.5819 -1.2158  0.4167
  472MOL0     C62221   1.157   7.575   9.101  0.2385 -0.0842  0.5168
  472MOL0     N62222   1.788   7.794   8.719  0.4255  0.3350  0.4759
  472MOL0     N62223   1.897   7.736   8.670  0.2910 -1.0325 -0.2079
  472MOL0     C62224   3.028   7.993   9.203 -0.1329 -0.6210  1.0622
  472MOL0     C62225   3.124   8.054   9.270  0.6935 -0.0551 -0.6046
  472MOL0     C62226   3.431   8.115   9.558 -0.8958 -0.0038  0.0728
  472MOL0     C62227   3.526   8.025   9.602 -0.2020  0.4693  0.0228
  472MOL0     C62228   3.649   8.077   9.646  0.6312 -0.6389  0.2365
  472MOL0     C62229   3.695   8.214   9.621  0.1902  0.5223  0.9190
  472MOL0     O62230   3.809   8.273   9.664 -0.4834 -0.2904 -0.7092
  472MOL0     C62231   3.918   8.190   9.712  0.0453 -0.3087 -0.1212
  472MOL0     C62232   3.976   8.093   9.610 -0.1559 -0.0969 -0.0857
  472MOL0     C62233   4.061   7.990   9.688 -0.5856  0.1894  0.3389
  472MOL0     C62234   4.063   7.851   9.619  0.2012  0.6072 -0.3556
  472MOL0     C62235   4.148   7.850   9.506 -0.2647  1.0354 -0.1039
  472MOL0     C62236   4.229   7.841   9.420  0.2735  0.0980 -0.1545
  472MOL0     C62237   3.606   8.290   9.544 -0.9566  0.3398  0.0609
  472MOL0     C62238   3.478   8.247   9.515  0.6826 -0.5734 -0.9682
  472MOL0     H62239   2.962   8.103   9.556 -3.1392  0.4569 -1.1518
  472MOL0     H62240   2.789   7.988   9.441 -1.8156 -0.9279 -2.7951
  472MOL0     H62241   2.913   7.779   9.055 -1.8363 -1.5537  0.8676
  472MOL0     H62242   2.854   7.925   8.972 -0.2265  0.0604 -0.9611
  472MOL0     H62243   2.654   7.719   9.068 -1.3529  1.2706 -0.2252
  472MOL0     H62244   2.733   7.731   8.915  0.6619  1.0112  0.7414
  472MOL0     H62245   2.615   7.985   8.908 -2.4952  1.4029  2.1874
  472MOL0     H62246   2.563   7.937   9.064 -1.1034 -0.1860  0.5668
  472MOL0     H62247   2.501   7.776   8.811 -0.6904 -1.0440 -0.1280
  472MOL0     H62248   2.470   7.727   8.975 -0.9849 -1.8112 -1.5025
  472MOL0     H62249   2.350   7.981   8.846  0.0191  1.9255  2.0801
  472MOL0     H62250   2.330   7.944   9.020 -3.0213 -1.2440 -0.4008
  472MOL0     H62251   2.146   7.871   8.908  0.0205  1.3369 -0.5043
  472MOL0     H62252   2.229   7.725   8.979 -0.2644  0.0525 -0.9758
  472MOL0     H62253   2.195   7.817   8.684  1.0898  0.4743 -1.0630
  472MOL0     H62254   2.308   7.691   8.729  0.5301  1.8619  0.6005
  472MOL0     H62255   2.123   7.559   8.835 -0.9988  2.4946  2.8041
  472MOL0     H62256   2.101   7.595   8.657  0.6290  3.0372 -1.0253
  472MOL0     H62257   1.964   7.734   8.989  0.4075  0.8390 -0.5751
  472MOL0     H62258   1.649   7.929   8.912 -1.2212 -0.4265 -2.1401
  472MOL0     H62259   1.784   7.894   9.032 -1.8455 -0.2327  0.8531
  472MOL0     H62260   1.585   7.780   9.118  0.1168 -0.8410  1.4689
  472MOL0     H62261   1.691   7.655   9.037 -0.7492 -0.2077 -1.5381
  472MOL0     H62262   1.447   7.799   8.915 -0.6195 -0.0907  1.1427
  472MOL0     H62263   1.547   7.683   8.839  2.5981  0.2714  1.5601
  472MOL0     H62264   1.477   7.501   8.982 -1.8078 -0.4008  0.0756
  472MOL0     H62265   1.335   7.586   8.925 -1.4972 -3.0289  1.4093
  472MOL0     H62266   1.330   7.746   9.342 -1.1577  0.4009  3.0359
  472MOL0     H62267   1.107   7.768   9.431  1.2470 -1.0855  0.0848
  472MOL0     H62268   0.875   7.650   9.698 -0.3702 -0.6835 -1.4496
  472MOL0     H62269   0.724   7.685   9.879  3.5068  1.7029 -1.4358
  472MOL0     H62270   0.328   7.778   9.770  1.9262  1.3264 -0.2276
  472MOL0     H62271   0.357   7.949   9.815  0.4458  0.2290  0.2575
  472MOL0     H62272   0.345   7.843  10.049 -0.4203 -1.2454  1.0817
  472MOL0     H62273   0.269   7.706   9.963  4.7841 -0.4865  1.8597
  472MOL0     H62274   0.080   7.901   9.897  1.0198  0.8731 -0.0190
  472MOL0     H62275   0.178   7.997   9.997 -0.5067  0.4253 -3.2130
  472MOL0     H62276   0.043   7.721  10.060 -1.3359 -0.3891 -0.5328
  472MOL0     H62277   0.126   7.805  10.184  0.1790  2.2487  0.0165
  472MOL0     H62278  -0.085   7.874  10.238 -1.2623 -1.6441 -0.9847
  472MOL0     H62279  -0.159   7.850  10.076  0.6376 -2.4982  1.5671
  472MOL0     H62280  -0.197   8.072  10.124 -0.2232 -0.2679  0.3773
  472MOL0     H62281  -0.061   8.067  10.010  0.1042 -1.8271  0.3940
  472MOL0     H62282  -0.056   8.116  10.314  2.6591 -1.6289  0.7317
  472MOL0     H62283   0.087   8.092  10.217 -0.1863 -2.3476  3.2290
  472MOL0     H62284   0.022   8.333  10.253  1.9133 -3.0199  1.2009
  472MOL0     H62285  -0.123   8.306  10.152 -0.4710  1.3624  4.7957
  472MOL0     H62286   0.449   7.866   9.592 -0.8157  0.2723  1.3607
  472MOL0     H62287   0.603   7.801   9.421  1.0778 -1.4389  0.5899
  472MOL0     H62288   0.946   7.532   9.097  2.0019 -2.1932 -0.9360
  472MOL0     H62289   1.168   7.514   9.012 -1.5131 -0.8663  0.7901
  472MOL0     H62290   3.055   7.963   9.102 -4.8522 -2.1986 -0.0044
  472MOL0     H62291   3.219   8.062   9.218  0.8658  1.3153 -0.1137
  472MOL0     H62292   3.505   7.919   9.618  0.8129  0.5403  2.0658
  472MOL0     H62293   3.713   8.006   9.697 -0.9245 -1.2188  1.4401
  472MOL0     H62294   3.881   8.134   9.798  1.0745 -1.2996 -0.3054
  472MOL0     H62295   3.998   8.257   9.742 -0.2633 -0.0983  0.2346
  472MOL0     H62296   3.899   8.047   9.547  0.2110 -0.2413 -0.4373
  472MOL0     H62297   4.036   8.149   9.537 -0.2714 -0.5484 -0.5394
  472MOL0     H62298   4.025   7.997   9.791 -0.0164 -1.2753  0.6607
  472MOL0     H62299   4.158   8.038   9.702 -2.2554  4.0959 -0.2064
  472MOL0     H62300   4.114   7.787   9.691 -0.0306 -0.6893 -1.3012
  472MOL0     H62301   3.963   7.808   9.603  1.1399 -1.6075 -0.5426
  472MOL0     H62302   4.299   7.838   9.339  0.4485  0.6754 -0.0257
  472MOL0     H62303   3.645   8.389   9.521  1.8133 -1.0109 -1.6953
  472MOL0     H62304   3.405   8.309   9.466  0.0327  0.6150  1.3404
  473MOL0     O62305   0.133   2.185   4.606 -0.5565 -0.4233  0.0939
  473MOL0     C62306   0.055   2.211   4.702  0.2434  0.1320  0.0863
  473MOL0     O62307   0.103   2.224   4.827  0.1624  0.0804 -0.3711
  473MOL0     C62308   0.225   2.275   4.856 -0.0148  0.3110 -0.0083
  473MOL0     C62309   0.275   2.367   4.774  0.5883 -0.0678 -0.4109
  473MOL0     C62310   0.401   2.426   4.793 -0.8922  0.5546 -0.4480
  473MOL0     C62311   0.483   2.381   4.895  0.6230 -0.3417 -1.1829
  473MOL0     O62312   0.601   2.445   4.928  0.1357 -1.1858 -0.1455
  473MOL0     C62313   0.660   2.533   4.828 -0.3868  0.5371  0.5626
  473MOL0     C62314   0.807   2.569   4.851  0.6399  0.4024 -0.4826
  473MOL0     C62315   0.840   2.708   4.788  0.1174  0.3562 -0.2837
  473MOL0     C62316   0.999   2.733   4.782 -0.3083 -0.4128  0.0876
  473MOL0     C62317   1.052   2.868   4.737 -0.2931 -0.4700  0.3421
  473MOL0     C62318   0.965   2.926   4.624  0.0287  0.1557 -0.4880
  473MOL0     C62319   1.003   3.074   4.604 -0.0769  0.6573 -0.7291
  473MOL0     C62320   1.143   3.092   4.544  0.2642 -0.0900  0.0003
  473MOL0     N62321   1.130   3.051   4.398 -0.5978 -0.5380 -0.6594
  473MOL0     C62322   1.068   3.127   4.301 -0.0336  0.4255 -0.2802
  473MOL0     C62323   1.046   3.048   4.196 -0.2732  0.7050 -0.0798
  473MOL0     C62324   0.985   3.099   4.071  0.2384  0.1743 -0.8660
  473MOL0     C62325   0.836   3.114   4.074  0.9090 -0.3716 -0.6959
  473MOL0     C62326   0.787   3.223   3.979  0.2943 -0.4275 -0.0213
  473MOL0     C62327   0.639   3.232   3.967  0.0624 -0.3593 -0.5932
  473MOL0     O62328   0.607   3.299   3.847  0.3941  0.5218  0.7135
  473MOL0     C62329   0.480   3.307   3.813 -0.2839 -0.5765 -1.1313
  473MOL0     C62330   0.364   3.248   3.874  0.6784  0.2180  0.1193
  473MOL0     C62331   0.236   3.261   3.823  0.5394 -0.2009 -0.2951
  473MOL0     C62332   0.207   3.350   3.718  0.6667 -0.1890 -0.2890
  473MOL0     C62333   0.061   3.386   3.678 -0.5023  0.6372  0.3220
  473MOL0     O62334  -0.030   3.308   3.738  0.3076  0.3136 -0.2682
  473MOL0     C62335  -0.161   3.328   3.734  0.0278 -0.2774  0.0625
  473MOL0     C62336  -0.234   3.237   3.818 -0.6683  0.2105 -0.2861
  473MOL0     C62337  -0.369   3.237   3.816  0.8820  0.0143  0.6939
  473MOL0     C62338  -0.439   3.326   3.733  0.5154  0.0330 -0.6578
  473MOL0     O62339  -0.579   3.319   3.755 -0.1712  0.3597 -0.4495
  473MOL0     C62340  -0.670   3.410   3.684  0.6385 -0.6330  0.1359
  473MOL0     C62341  -0.811   3.416   3.742  0.1708 -0.4205 -0.4512
  473MOL0     C62342  -0.819   3.455   3.893 -0.5537  0.8862  0.8215
  473MOL0     C62343  -0.971   3.446   3.946  0.0908 -0.6931 -1.0638
  473MOL0     C62344  -1.040   3.309   3.947 -0.7326  0.4822 -0.4544
  473MOL0     C62345  -1.173   3.331   4.008  0.5783  0.0465 -0.8037
  473MOL0     C62346  -1.273   3.218   3.977  0.5255 -0.7244  0.1405
  473MOL0     C62347  -1.417   3.251   4.005  0.1252 -1.0151  0.3889
  473MOL0    Cl62348  -1.456   3.288   4.178  0.0704 -0.2752  0.5503
  473MOL0     C62349  -0.375   3.423   3.647  0.2212  0.3830 -0.4969
  473MOL0     C62350  -0.234   3.414   3.644 -0.0022 -0.1967  0.3772
  473MOL0     O62351   0.038   3.486   3.616 -0.0890 -0.4514 -0.2532
  473MOL0     C62352   0.318   3.429   3.667  0.4038 -0.6140  0.0777
  473MOL0     C62353   0.447   3.410   3.718 -0.2838  0.8842 -0.2118
  473MOL0     N62354   1.075   2.921   4.233 -0.2561  1.4023 -0.7965
  473MOL0     N62355   1.131   2.925   4.349  0.0868  0.0778 -0.5424
  473MOL0     C62356   0.438   2.287   4.982  0.2577  0.4939 -0.0620
  473MOL0     C62357   0.303   2.235   4.965  0.2116 -0.5482 -0.6225
  473MOL0     C62358  -0.091   2.204   4.671  0.4104 -0.6001 -0.1085
  473MOL0     C62359  -0.144   2.170   4.544  0.8172 -0.2316  0.0449
  473MOL0     C62360  -0.284   2.144   4.524 -0.6138  0.5164  0.0210
  473MOL0     C62361  -0.373   2.186   4.624 -0.1590 -0.3351  1.0120
  473MOL0     O62362  -0.510   2.160   4.610 -0.3812 -0.1228 -0.0100
  473MOL0     C62363  -0.526   2.035   4.681 -0.8089 -0.0710  0.6056
  473MOL0     C62364  -0.668   1.980   4.654 -0.5888 -0.2353 -0.9120
  473MOL0     C62365  -0.699   1.849   4.721 -0.0127  0.3402  0.1431
  473MOL0     C62366  -0.834   1.797   4.663  0.2827  0.6963  0.4102
  473MOL0     C62367  -0.888   1.685   4.735 -0.2887 -0.3876 -0.6935
  473MOL0     C62368  -0.937   1.597   4.808 -0.8032 -0.7535 -0.4241
  473MOL0     C62369  -0.322   2.248   4.742 -0.4455  0.1687  0.0536
  473MOL0     C62370  -0.184   2.258   4.764  0.2123 -0.6921  0.0364
  473MOL0     H62371   0.215   2.418   4.699  0.8189  2.4340  0.9823
  473MOL0     H62372   0.425   2.510   4.729 -2.5217  1.4356  0.0383
  473MOL0     H62373   0.592   2.616   4.849 -1.3587 -0.1486  0.2288
  473MOL0     H62374   0.647   2.502   4.724  1.6922  3.5519 -0.7079
  473MOL0     H62375   0.872   2.491   4.809  2.5096  0.6975  1.6577
  473MOL0     H62376   0.832   2.577   4.957  1.6743  2.6295 -0.8171
  473MOL0     H62377   0.782   2.785   4.840 -0.4341  1.6147 -2.6660
  473MOL0     H62378   0.810   2.707   4.683 -1.5179  0.7686  0.1398
  473MOL0     H62379   1.037   2.736   4.884  2.7904  0.6256 -0.9750
  473MOL0     H62380   1.046   2.653   4.723  1.1104  1.1127 -0.9169
  473MOL0     H62381   1.152   2.854   4.694 -0.5347  2.2783 -1.3771
  473MOL0     H62382   1.062   2.940   4.819 -1.0951  3.5153 -2.7545
  473MOL0     H62383   0.865   2.922   4.666  0.1967  0.7190 -0.0167
  473MOL0     H62384   0.976   2.862   4.536  0.9723 -2.0880  1.1556
  473MOL0     H62385   0.927   3.120   4.540 -2.0924 -1.2681  0.1387
  473MOL0     H62386   0.992   3.128   4.699 -2.2573 -1.4977  0.3687
  473MOL0     H62387   1.215   3.031   4.600 -1.9153 -1.2486  1.7411
  473MOL0     H62388   1.181   3.194   4.540  1.2768 -0.4411  0.2682
  473MOL0     H62389   1.047   3.234   4.294  0.2339  0.3766 -2.5255
  473MOL0     H62390   0.992   3.030   3.986 -3.7943 -0.8441 -0.5956
  473MOL0     H62391   1.033   3.193   4.042  0.5374  0.0707 -0.7043
  473MOL0     H62392   0.813   3.125   4.180  2.3067 -0.1847 -0.3954
  473MOL0     H62393   0.786   3.018   4.061 -2.1833  0.3750  3.5585
  473MOL0     H62394   0.813   3.321   4.020 -2.1514  0.6889 -0.9347
  473MOL0     H62395   0.833   3.213   3.880  2.0860  0.2709  0.7016
  473MOL0     H62396   0.597   3.287   4.052  3.1445  2.6629 -0.7776
  473MOL0     H62397   0.604   3.130   3.949  1.2419 -0.4500 -2.7361
  473MOL0     H62398   0.373   3.190   3.965 -2.6931  0.7702  0.9356
  473MOL0     H62399   0.153   3.208   3.869 -1.1134  0.5361 -2.2654
  473MOL0     H62400  -0.181   3.165   3.879  0.7545  0.1037 -1.5938
  473MOL0     H62401  -0.432   3.170   3.874 -1.1974 -0.1209 -1.5180
  473MOL0     H62402  -0.672   3.377   3.580 -1.4358 -1.3773  0.3724
  473MOL0     H62403  -0.630   3.512   3.690  2.4318 -1.2092 -1.1102
  473MOL0     H62404  -0.869   3.323   3.741 -0.7676  0.1503 -0.5960
  473MOL0     H62405  -0.870   3.496   3.695 -1.0145 -0.3248  1.1195
  473MOL0     H62406  -0.793   3.560   3.905 -2.9862  1.3705  2.4366
  473MOL0     H62407  -0.753   3.404   3.964  1.2897  1.5108 -0.3723
  473MOL0     H62408  -0.968   3.494   4.044  4.4537 -0.1957 -1.2388
  473MOL0     H62409  -1.022   3.526   3.892 -0.0232  1.2385  1.7480
  473MOL0     H62410  -0.992   3.233   4.009 -1.9031 -0.3953 -0.5811
  473MOL0     H62411  -1.048   3.262   3.848 -1.2230 -1.9263  0.6437
  473MOL0     H62412  -1.209   3.429   3.974  1.5835  0.5091 -0.5718
  473MOL0     H62413  -1.173   3.334   4.117 -1.1010 -0.4821 -0.7661
  473MOL0     H62414  -1.263   3.196   3.870  0.7339 -0.4968  0.1127
  473MOL0     H62415  -1.232   3.126   4.020  0.9812 -0.0380  1.2213
  473MOL0     H62416  -1.471   3.161   3.971 -2.0894  0.2622  0.2912
  473MOL0     H62417  -1.457   3.330   3.940  2.4834 -0.7376 -0.8205
  473MOL0     H62418  -0.435   3.491   3.587 -1.7556 -1.1920 -0.4316
  473MOL0     H62419  -0.182   3.481   3.575 -2.1024  1.7406  0.5371
  473MOL0     H62420   0.299   3.509   3.596  1.0358 -0.5480 -0.0189
  473MOL0     H62421   0.532   3.470   3.689  1.3394 -1.4955 -0.6650
  473MOL0     H62422   0.498   2.255   5.067  0.6053 -0.1776 -0.5479
  473MOL0     H62423   0.250   2.161   5.025 -1.6302 -1.1997 -2.8973
  473MOL0     H62424  -0.078   2.155   4.459  2.2368 -2.4974  1.4480
  473MOL0     H62425  -0.315   2.105   4.428 -2.9798  0.8313  0.6029
  473MOL0     H62426  -0.520   2.061   4.787 -3.1531  4.6389 -0.1251
  473MOL0     H62427  -0.450   1.961   4.655  1.8620  1.1969  4.0166
  473MOL0     H62428  -0.739   2.055   4.689  0.6005 -0.1551  1.6007
  473MOL0     H62429  -0.678   1.972   4.546 -1.8589  0.6493 -0.8752
  473MOL0     H62430  -0.703   1.862   4.830  1.4268 -1.2789  0.4343
  473MOL0     H62431  -0.619   1.776   4.704  0.0643  0.1838  1.0739
  473MOL0     H62432  -0.901   1.880   4.639  0.9891  0.7537 -1.5613
  473MOL0     H62433  -0.812   1.757   4.564  2.4711  1.1126  0.6603
  473MOL0     H62434  -0.973   1.520   4.873 -1.7149 -0.2035 -0.2559
  473MOL0     H62435  -0.401   2.272   4.813  1.4625  0.2432  2.2811
  473MOL0     H62436  -0.140   2.295   4.856  2.0197  0.8565 -1.3607
  474MOL0     O62437   5.975   9.305   3.713  1.0323  0.9713  0.5574
  474MOL0     C62438   5.979   9.251   3.826 -0.2481  0.0442  0.7689
  474MOL0     O62439   5.888   9.169   3.870 -0.5118 -0.3855 -0.1193
  474MOL0     C62440   5.798   9.119   3.774 -0.5920  0.3962 -0.1574
  474MOL0     C62441   5.823   8.985   3.732 -0.6677 -0.3990  0.0988
  474MOL0     C62442   5.741   8.924   3.636  0.4332 -0.6440 -0.4960
  474MOL0     C62443   5.616   8.987   3.600  1.0961 -1.1316 -0.2555
  474MOL0     O62444   5.529   8.932   3.513 -0.0109  0.4683 -0.4030
  474MOL0     C62445   5.544   8.795   3.474  0.1719  0.7840 -0.6843
  474MOL0     C62446   5.444   8.764   3.357  0.6596 -0.1575 -0.3953
  474MOL0     C62447   5.293   8.808   3.368 -0.1673 -0.2728 -0.0308
  474MOL0     C62448   5.220   8.734   3.474 -0.1265 -0.0135 -0.5620
  474MOL0     C62449   5.080   8.682   3.418  0.1234  0.1915  0.4061
  474MOL0     C62450   4.990   8.619   3.517  0.2989 -0.6298  0.2683
  474MOL0     C62451   4.974   8.688   3.652 -0.0696 -0.3879 -0.4523
  474MOL0     C62452   4.869   8.615   3.728  0.4787 -0.1886 -0.0371
  474MOL0     N62453   4.854   8.676   3.863  0.4134  1.0535  0.8110
  474MOL0     C62454   4.739   8.748   3.886 -0.5295  0.2089 -0.5514
  474MOL0     C62455   4.757   8.775   4.015  0.9124 -0.3757  0.7927
  474MOL0     C62456   4.650   8.847   4.094  0.5642  0.6083  1.3019
  474MOL0     C62457   4.705   8.957   4.172  0.3766 -0.0036  0.0162
  474MOL0     C62458   4.744   9.084   4.097  0.0600  0.0535  0.2806
  474MOL0     C62459   4.637   9.168   4.022 -0.4715  0.1396 -0.3551
  474MOL0     O62460   4.529   9.210   4.107  0.2612 -0.4199 -0.2576
  474MOL0     C62461   4.419   9.275   4.059 -0.5982  0.2817  0.9512
  474MOL0     C62462   4.303   9.252   4.128 -0.0153  0.3733  0.1667
  474MOL0     C62463   4.186   9.318   4.077 -0.3251  0.9146  0.7037
  474MOL0     C62464   4.188   9.409   3.976 -1.0082  0.3081  1.2301
  474MOL0     C62465   4.060   9.469   3.934  0.6132  0.5215 -0.3432
  474MOL0     O62466   3.945   9.470   4.013 -0.3406 -0.1055  0.2007
  474MOL0     C62467   3.828   9.518   3.959  0.3880  0.6521  0.0050
  474MOL0     C62468   3.751   9.444   3.860  0.0184 -0.4245 -0.3746
  474MOL0     C62469   3.627   9.482   3.820 -0.3378 -0.9534  0.4688
  474MOL0     C62470   3.570   9.597   3.883 -0.2709  0.0988  0.0402
  474MOL0     O62471   3.445   9.625   3.828  0.5580  0.3171 -1.1241
  474MOL0     C62472   3.396   9.760   3.811 -0.0833  0.1896 -0.3392
  474MOL0     C62473   3.263   9.761   3.744 -0.3034 -0.1247  0.0461
  474MOL0     C62474   3.152   9.699   3.821  0.2251 -1.7429  0.4202
  474MOL0     C62475   3.032   9.686   3.740  0.3909 -0.8628  0.0892
  474MOL0     C62476   2.909   9.676   3.836  0.4434 -0.0202 -0.0340
  474MOL0     C62477   2.884   9.522   3.869  0.2898 -0.4654 -0.1625
  474MOL0     C62478   2.734   9.534   3.914  0.4679  0.5277  0.1656
  474MOL0     C62479   2.691   9.404   3.977 -0.6800  0.7151 -0.3064
  474MOL0    Cl62480   2.552   9.434   4.088 -0.3153 -0.0430  0.1382
  474MOL0     C62481   3.653   9.685   3.961  0.0361  0.2997  0.2937
  474MOL0     C62482   3.779   9.642   3.998 -0.3145  0.8511 -1.0142
  474MOL0     O62483   4.072   9.540   3.835 -0.2156  0.2627  0.8435
  474MOL0     C62484   4.309   9.434   3.916  0.5699 -0.6421  0.0843
  474MOL0     C62485   4.428   9.372   3.958 -0.0777 -0.0267  0.0723
  474MOL0     N62486   4.867   8.714   4.074  0.1315 -0.1980 -0.5628
  474MOL0     N62487   4.926   8.666   3.981 -0.0565 -0.2793 -0.5371
  474MOL0     C62488   5.586   9.115   3.656  0.2586  0.1731 -1.1433
  474MOL0     C62489   5.678   9.183   3.736 -0.7626 -0.0152 -0.1743
  474MOL0     C62490   6.082   9.302   3.914 -0.5754 -0.2062  0.3029
  474MOL0     C62491   6.078   9.281   4.055 -0.4315  0.4237  0.4991
  474MOL0     C62492   6.173   9.340   4.139  0.1051  0.1151 -0.1051
  474MOL0     C62493   6.280   9.410   4.090 -0.0964  0.2458  0.1847
  474MOL0     O62494   6.380   9.464   4.165 -1.0252 -0.4006 -0.6064
  474MOL0     C62495   6.402   9.402   4.298  0.5912  0.3753 -0.8969
  474MOL0     C62496   6.547   9.425   4.344 -0.0113 -0.4596 -0.7254
  474MOL0     C62497   6.580   9.558   4.422 -0.2286  0.1491 -0.6763
  474MOL0     C62498   6.639   9.666   4.324  0.3458  0.1376  0.0343
  474MOL0     C62499   6.676   9.782   4.395  0.2681  0.0777 -0.5545
  474MOL0     C62500   6.717   9.872   4.472 -0.5083  0.4159  0.1081
  474MOL0     C62501   6.286   9.429   3.951  0.1102  0.2268  0.7042
  474MOL0     C62502   6.189   9.377   3.863 -0.7841  0.1736 -0.0861
  474MOL0     H62503   5.916   8.932   3.752 -2.0179 -3.2426 -0.7264
  474MOL0     H62504   5.783   8.831   3.598  0.0476 -0.6105 -1.0192
  474MOL0     H62505   5.529   8.729   3.561 -1.7248  0.3029 -1.3316
  474MOL0     H62506   5.644   8.765   3.443  0.5282  0.5770  0.5768
  474MOL0     H62507   5.449   8.655   3.342 -1.4864 -0.1190 -1.8870
  474MOL0     H62508   5.494   8.810   3.271  1.1689  0.2014  0.0866
  474MOL0     H62509   5.256   8.788   3.267  0.5596  2.3120 -0.8968
  474MOL0     H62510   5.295   8.915   3.387 -0.3372 -0.1881 -0.4783
  474MOL0     H62511   5.275   8.645   3.506 -3.1200 -1.9049 -0.3504
  474MOL0     H62512   5.208   8.806   3.556  0.2222  1.3286 -1.6543
  474MOL0     H62513   5.097   8.603   3.345  0.5380  0.6431  0.0093
  474MOL0     H62514   5.024   8.763   3.369 -1.3592 -1.9210 -1.6230
  474MOL0     H62515   5.039   8.523   3.534  1.7726  0.1885  0.8383
  474MOL0     H62516   4.894   8.611   3.466  0.1191 -1.7178  0.7362
  474MOL0     H62517   5.069   8.697   3.705  0.4731  0.6584 -1.5397
  474MOL0     H62518   4.925   8.785   3.638  1.8511  0.7833  0.5935
  474MOL0     H62519   4.910   8.515   3.741  0.3290 -0.0331  1.8146
  474MOL0     H62520   4.775   8.599   3.675  1.2746 -0.5433 -1.3892
  474MOL0     H62521   4.647   8.780   3.839 -2.0996 -0.8607  1.6147
  474MOL0     H62522   4.589   8.772   4.145  0.9088 -0.4848  0.1703
  474MOL0     H62523   4.577   8.885   4.022  2.6675 -0.4112 -1.5565
  474MOL0     H62524   4.783   8.922   4.240 -2.4547 -1.6908  2.6539
  474MOL0     H62525   4.624   8.990   4.239  0.5014  0.1960  0.0697
  474MOL0     H62526   4.793   9.144   4.174  0.3631  1.1339 -0.7285
  474MOL0     H62527   4.825   9.061   4.028  0.7129 -0.4483  1.1970
  474MOL0     H62528   4.595   9.126   3.931 -3.4714  2.3340 -0.1325
  474MOL0     H62529   4.685   9.263   3.994  0.6181  1.0559  3.9259
  474MOL0     H62530   4.316   9.174   4.203 -0.5049 -0.3718 -0.4995
  474MOL0     H62531   4.089   9.303   4.123 -0.3313  1.6719  0.9518
  474MOL0     H62532   3.801   9.350   3.840 -1.1001 -1.1831  0.2324
  474MOL0     H62533   3.567   9.438   3.741 -1.6774  1.9874 -0.2655
  474MOL0     H62534   3.473   9.810   3.752  1.9338 -1.0930  1.0941
  474MOL0     H62535   3.380   9.805   3.910 -3.9683  2.6537 -1.8526
  474MOL0     H62536   3.279   9.697   3.657  3.4700 -1.7183  1.6841
  474MOL0     H62537   3.249   9.868   3.727  0.1792  0.2847  1.9852
  474MOL0     H62538   3.138   9.762   3.909  1.7105 -0.8021  0.0299
  474MOL0     H62539   3.178   9.600   3.857 -0.2953 -0.9838  3.1013
  474MOL0     H62540   3.023   9.764   3.664  3.1534 -0.5818 -0.0610
  474MOL0     H62541   3.029   9.592   3.685  0.3238 -1.8301  1.6853
  474MOL0     H62542   2.825   9.701   3.770 -0.7483 -0.1859  1.3559
  474MOL0     H62543   2.911   9.752   3.914  0.4518 -0.6805  0.6170
  474MOL0     H62544   2.945   9.480   3.950  2.8769  1.9005 -0.7143
  474MOL0     H62545   2.886   9.455   3.783  0.4603  1.1875 -1.4987
  474MOL0     H62546   2.705   9.622   3.973  0.3377 -0.7851  2.1894
  474MOL0     H62547   2.672   9.553   3.827 -1.6521  1.1050  1.7087
  474MOL0     H62548   2.766   9.361   4.043 -0.4560  0.2414 -0.8691
  474MOL0     H62549   2.663   9.345   3.889  0.7130 -0.8967  0.2877
  474MOL0     H62550   3.610   9.783   3.979 -0.8207 -0.2657  1.4373
  474MOL0     H62551   3.827   9.695   4.080 -2.3088 -0.0247  0.8296
  474MOL0     H62552   4.310   9.515   3.843  0.7806 -0.2620  0.5064
  474MOL0     H62553   4.523   9.386   3.906 -0.4621  1.3653 -0.3069
  474MOL0     H62554   5.486   9.152   3.633  1.2363  1.6873 -3.3793
  474MOL0     H62555   5.661   9.287   3.764  1.4446  0.0518  1.1974
  474MOL0     H62556   6.000   9.242   4.119 -1.6831  2.9393  0.6120
  474MOL0     H62557   6.159   9.314   4.243 -1.2714 -1.2786 -0.5943
  474MOL0     H62558   6.387   9.294   4.307 -2.5621  0.9153  3.1773
  474MOL0     H62559   6.324   9.435   4.367  0.5276  2.1580 -1.7541
  474MOL0     H62560   6.566   9.354   4.425  1.5322  2.0353  1.2587
  474MOL0     H62561   6.621   9.413   4.265  3.3042  1.0900  1.8810
  474MOL0     H62562   6.669   9.550   4.486  1.1995 -1.0620 -2.6916
  474MOL0     H62563   6.491   9.588   4.477  1.7075  3.5855  0.9185
  474MOL0     H62564   6.727   9.624   4.276  0.5389  2.4065 -1.7551
  474MOL0     H62565   6.578   9.690   4.236 -0.8852  0.1510  0.8668
  474MOL0     H62566   6.741   9.951   4.540  1.0318  1.4327 -1.5555
  474MOL0     H62567   6.372   9.480   3.910 -0.4329  1.0168  0.5244
  474MOL0     H62568   6.206   9.400   3.758 -0.9935 -0.7248 -0.3199
  475MOL0     O62569   1.842  10.274   4.817  0.0574 -0.5159 -0.5877
  475MOL0     C62570   1.912  10.272   4.716  0.4740  0.2461  0.8288
  475MOL0     O62571   1.872  10.209   4.600 -0.2074 -0.3291  0.8634
  475MOL0     C62572   1.742  10.157   4.588 -1.0445 -0.4193  0.5194
  475MOL0     C62573   1.723  10.025   4.549  0.5931 -0.2180  0.3895
  475MOL0     C62574   1.590   9.967   4.536 -0.0125  0.2302  0.0422
  475MOL0     C62575   1.480  10.055   4.547  0.1009  0.7297  0.1746
  475MOL0     O62576   1.349  10.018   4.524  0.0917 -0.0668 -0.2823
  475MOL0     C62577   1.316   9.879   4.502  0.0356 -0.7412 -0.8770
  475MOL0     C62578   1.168   9.849   4.482  0.5400 -0.0647 -0.1254
  475MOL0     C62579   1.142   9.700   4.453 -0.0544  0.0242 -0.7746
  475MOL0     C62580   0.992   9.665   4.477 -0.5228  0.1124 -0.1498
  475MOL0     C62581   0.906   9.758   4.396  0.7165 -0.5247  0.1871
  475MOL0     C62582   0.760   9.727   4.425  0.7862 -0.0497 -0.1252
  475MOL0     C62583   0.674   9.773   4.310  0.1736 -0.0745  0.4483
  475MOL0     C62584   0.660   9.676   4.189  0.0163  0.1263  0.9554
  475MOL0     N62585   0.583   9.557   4.228 -0.8752 -0.1169  0.5840
  475MOL0     C62586   0.448   9.556   4.229 -0.6873 -0.5407  1.1251
  475MOL0     C62587   0.422   9.425   4.261  0.0555  1.2890  0.1048
  475MOL0     C62588   0.288   9.359   4.249  0.2645  0.5864 -0.0686
  475MOL0     C62589   0.190   9.402   4.354 -0.4116 -1.2605 -0.1228
  475MOL0     C62590   0.086   9.289   4.356 -0.6072  0.3414  0.4249
  475MOL0     C62591  -0.039   9.334   4.411 -0.0102 -1.0671  0.7235
  475MOL0     O62592  -0.135   9.246   4.363 -1.0850  0.0726 -0.2843
  475MOL0     C62593  -0.265   9.283   4.376  1.1906 -0.3286  0.6294
  475MOL0     C62594  -0.317   9.389   4.457 -0.2843 -0.6463  0.3831
  475MOL0     C62595  -0.450   9.430   4.470 -0.6991 -0.0958 -0.0128
  475MOL0     C62596  -0.547   9.360   4.391  0.0658 -0.8105  0.7899
  475MOL0     C62597  -0.692   9.391   4.405  0.2659  0.1709  0.6104
  475MOL0     O62598  -0.737   9.501   4.468  0.6220  0.5109 -0.5271
  475MOL0     C62599  -0.872   9.523   4.500 -0.3140  1.5230 -0.5305
  475MOL0     C62600  -0.893   9.624   4.598  0.1186  0.1764  0.4593
  475MOL0     C62601  -1.027   9.662   4.621  0.3803 -0.9831 -0.4911
  475MOL0     C62602  -1.138   9.599   4.562 -0.7526  0.3585  0.7244
  475MOL0     O62603  -1.272   9.629   4.568 -0.1192 -0.4586  0.2744
  475MOL0     C62604  -1.313   9.700   4.684  0.0940  0.3974 -0.1695
  475MOL0     C62605  -1.452   9.759   4.662  1.3764 -0.7874  0.8200
  475MOL0     C62606  -1.561   9.647   4.666  0.1045 -0.1576  0.4111
  475MOL0     C62607  -1.685   9.716   4.599 -0.0174  0.5759  0.0780
  475MOL0     C62608  -1.824   9.648   4.631  0.3632  0.6949  0.6258
  475MOL0     C62609  -1.936   9.745   4.633  0.0153  0.1735  0.7698
  475MOL0     C62610  -1.992   9.787   4.493  0.2115 -0.3603 -0.4644
  475MOL0     C62611  -2.100   9.900   4.499  0.5444 -0.5754  0.8538
  475MOL0    Cl62612  -2.034  10.057   4.537 -0.2335  0.3884  0.0171
  475MOL0     C62613  -1.111   9.494   4.473  0.2990 -0.1451  0.3633
  475MOL0     C62614  -0.983   9.459   4.437 -0.8706  1.2905 -0.3000
  475MOL0     O62615  -0.762   9.298   4.363  0.6339 -0.1202 -0.2062
  475MOL0     C62616  -0.501   9.259   4.298  0.4499  0.0798 -0.1513
  475MOL0     C62617  -0.362   9.211   4.305  0.7131 -0.7034  0.7377
  475MOL0     N62618   0.546   9.362   4.299  0.8681 -0.5060  0.0452
  475MOL0     N62619   0.646   9.449   4.284  0.2614  0.1447  0.5960
  475MOL0     C62620   1.499  10.184   4.580  0.6600 -0.1951  0.0385
  475MOL0     C62621   1.631  10.231   4.600  0.1317  0.0794  0.4909
  475MOL0     C62622   2.036  10.344   4.734  0.5267 -0.1727  0.6771
  475MOL0     C62623   2.067  10.424   4.854 -0.7269 -0.4419 -0.6090
  475MOL0     C62624   2.188  10.496   4.870 -0.3987 -0.0799 -0.5286
  475MOL0     C62625   2.278  10.495   4.757 -1.1319 -0.2707  0.1136
  475MOL0     O62626   2.401  10.553   4.757 -0.5573 -0.5549  0.6168
  475MOL0     C62627   2.424  10.682   4.817  0.5128 -0.4219 -0.0736
  475MOL0     C62628   2.496  10.776   4.718 -0.2214 -0.2907 -0.5785
  475MOL0     C62629   2.413  10.790   4.593  0.0635  1.1858 -0.0757
  475MOL0     C62630   2.464  10.891   4.487  0.2748 -0.0280 -0.5258
  475MOL0     C62631   2.489  11.025   4.547 -0.3624 -0.5011 -0.7038
  475MOL0     C62632   2.503  11.135   4.593  0.7602  0.2190 -0.2321
  475MOL0     C62633   2.249  10.410   4.647  0.4923 -0.4120  0.7654
  475MOL0     C62634   2.132  10.332   4.638 -1.0447  0.0598  0.0312
  475MOL0     H62635   1.811   9.969   4.517  0.5807  0.6864 -1.3716
  475MOL0     H62636   1.574   9.863   4.511 -0.9187  0.4733 -0.4484
  475MOL0     H62637   1.341   9.823   4.592 -0.6842 -0.7502 -0.6778
  475MOL0     H62638   1.369   9.839   4.415 -0.0451 -0.9930 -0.8095
  475MOL0     H62639   1.123   9.917   4.409  0.9629  2.0319  1.4871
  475MOL0     H62640   1.115   9.870   4.574 -0.7347  0.2226 -0.9025
  475MOL0     H62641   1.213   9.646   4.516  0.0135  0.9841  0.0029
  475MOL0     H62642   1.176   9.680   4.351  1.5066 -2.0766  0.0817
  475MOL0     H62643   0.976   9.560   4.452  1.5551  0.1935 -2.2254
  475MOL0     H62644   0.960   9.689   4.579  1.5386  0.0549  0.5568
  475MOL0     H62645   0.919   9.744   4.288  3.5357  0.1753  0.3462
  475MOL0     H62646   0.923   9.864   4.412  2.6919 -0.8566  0.5640
  475MOL0     H62647   0.730   9.778   4.516  0.8684 -0.1572 -0.0373
  475MOL0     H62648   0.757   9.618   4.434 -0.2532 -0.1921 -1.8012
  475MOL0     H62649   0.580   9.804   4.356 -0.5687  0.2871 -1.2215
  475MOL0     H62650   0.702   9.872   4.271  1.4927 -0.8740 -0.7551
  475MOL0     H62651   0.761   9.660   4.148 -1.0534 -2.6023 -0.9390
  475MOL0     H62652   0.596   9.711   4.107  1.4192 -1.9896 -1.1731
  475MOL0     H62653   0.375   9.633   4.204 -2.2890 -2.0557  0.9477
  475MOL0     H62654   0.303   9.251   4.256  1.5656  0.7054 -0.7169
  475MOL0     H62655   0.246   9.389   4.152  2.3340 -0.2862 -1.3053
  475MOL0     H62656   0.142   9.496   4.328 -0.8632 -0.6033  2.7355
  475MOL0     H62657   0.240   9.420   4.450  0.8124  3.0960 -1.3758
  475MOL0     H62658   0.069   9.259   4.253  1.9331  1.4601 -0.4148
  475MOL0     H62659   0.119   9.198   4.408  0.6270 -1.2781 -2.9344
  475MOL0     H62660  -0.070   9.433   4.378 -0.3004 -1.1688  0.6933
  475MOL0     H62661  -0.039   9.348   4.519 -1.3626  1.0801  0.4999
  475MOL0     H62662  -0.249   9.445   4.521  1.0087 -0.5593 -1.0112
  475MOL0     H62663  -0.486   9.513   4.529  2.1030  1.5723 -0.5006
  475MOL0     H62664  -0.816   9.679   4.650  1.6554 -1.4698  0.0026
  475MOL0     H62665  -1.053   9.741   4.691  1.7212 -2.1019  1.3521
  475MOL0     H62666  -1.248   9.785   4.705  0.4333  0.3940 -1.1469
  475MOL0     H62667  -1.313   9.627   4.765  0.6063  1.5004  0.8598
  475MOL0     H62668  -1.447   9.811   4.565 -0.9861 -2.1599 -0.1255
  475MOL0     H62669  -1.465   9.836   4.739 -0.5182 -1.5653  1.3454
  475MOL0     H62670  -1.581   9.617   4.769 -0.4933 -1.3294 -0.0322
  475MOL0     H62671  -1.531   9.558   4.610 -3.7624 -3.0887  2.4930
  475MOL0     H62672  -1.696   9.823   4.618  0.2520  1.4509 -3.9666
  475MOL0     H62673  -1.670   9.702   4.492 -1.4684  1.3789 -0.2555
  475MOL0     H62674  -1.819   9.595   4.726 -0.9419 -1.0320 -0.2143
  475MOL0     H62675  -1.839   9.573   4.553 -0.0022 -0.7501  2.0214
  475MOL0     H62676  -1.895   9.829   4.690  2.4699 -2.0472  2.5242
  475MOL0     H62677  -2.020   9.715   4.696  0.0097  2.7524  2.0824
  475MOL0     H62678  -1.906   9.816   4.431  0.9304  1.4200  1.2732
  475MOL0     H62679  -2.038   9.693   4.460 -4.5484  2.0403 -1.4859
  475MOL0     H62680  -2.166   9.882   4.584 -0.5071 -0.9658 -0.0209
  475MOL0     H62681  -2.149   9.891   4.401 -0.0055  2.5559  0.7229
  475MOL0     H62682  -1.193   9.443   4.424  0.2377 -1.5079  1.7973
  475MOL0     H62683  -0.982   9.379   4.364 -0.7562  1.6415 -0.6819
  475MOL0     H62684  -0.569   9.204   4.234 -1.6234 -0.9832  2.7330
  475MOL0     H62685  -0.330   9.129   4.241  2.4466  1.3897 -1.2353
  475MOL0     H62686   1.427  10.264   4.600 -0.3871 -1.0523 -0.1771
  475MOL0     H62687   1.643  10.334   4.630  1.4748  0.9244 -2.5084
  475MOL0     H62688   1.989  10.430   4.928 -0.3794 -0.5668 -0.2276
  475MOL0     H62689   2.199  10.554   4.961 -4.5974  0.9797 -0.4947
  475MOL0     H62690   2.482  10.673   4.909 -2.6190 -0.3298  2.0994
  475MOL0     H62691   2.336  10.737   4.854  0.7900 -0.1933  0.2535
  475MOL0     H62692   2.497  10.878   4.758  1.1388 -1.0581  1.4571
  475MOL0     H62693   2.597  10.738   4.704 -0.1114 -0.9071  1.5496
  475MOL0     H62694   2.312  10.815   4.625 -0.7298 -0.9300 -0.7075
  475MOL0     H62695   2.415  10.689   4.550 -1.9446  0.5655  1.1336
  475MOL0     H62696   2.555  10.849   4.442 -0.5237 -0.0074 -2.2468
  475MOL0     H62697   2.378  10.891   4.421 -1.4720 -1.6941  1.5954
  475MOL0     H62698   2.513  11.233   4.635  0.8296 -0.7232  2.1427
  475MOL0     H62699   2.319  10.391   4.566 -0.8060 -0.2341 -0.4299
  475MOL0     H62700   2.112  10.264   4.556 -1.2470 -1.5906  1.4096
  476MOL0     O62701   2.771   4.738   1.740  0.5681  0.2215  0.2206
  476MOL0     C62702   2.773   4.834   1.816  0.2910  0.2182  0.6976
  476MOL0     O62703   2.675   4.859   1.908  0.2666 -0.4350  0.1025
  476MOL0     C62704   2.571   4.774   1.916 -0.0587  0.5724 -0.3319
  476MOL0     C62705   2.448   4.833   1.921  0.0407 -0.6098 -1.2028
  476MOL0     C62706   2.340   4.750   1.967  0.1072  0.5048  0.1988
  476MOL0     C62707   2.354   4.610   1.981 -0.9143  0.7777  0.1148
  476MOL0     O62708   2.252   4.518   2.011  0.4136  0.7752  0.0954
  476MOL0     C62709   2.120   4.572   2.018 -0.3273  0.3393 -0.6196
  476MOL0     C62710   2.015   4.464   2.018  0.0757  0.4004  0.0678
  476MOL0     C62711   1.867   4.507   2.008 -0.4975  0.1951 -1.0523
  476MOL0     C62712   1.821   4.579   2.125 -0.3399  0.2772 -0.5927
  476MOL0     C62713   1.684   4.643   2.094 -0.4744  0.0239 -0.1044
  476MOL0     C62714   1.566   4.565   2.168 -0.0020 -0.0637 -0.1356
  476MOL0     C62715   1.462   4.668   2.212 -0.5021 -0.0179  0.3639
  476MOL0     C62716   1.374   4.616   2.321  0.4325 -0.3794 -0.2710
  476MOL0     N62717   1.305   4.497   2.286  0.5570  0.0724 -0.8877
  476MOL0     C62718   1.264   4.466   2.161 -0.0433  0.0429  0.4824
  476MOL0     C62719   1.211   4.339   2.165 -0.1688  0.5113  0.3042
  476MOL0     C62720   1.169   4.269   2.035  0.5159  0.3071  0.7938
  476MOL0     C62721   1.018   4.258   1.997  0.1215 -0.1660 -0.1318
  476MOL0     C62722   0.929   4.255   2.122  0.0644  0.4214  0.2249
  476MOL0     C62723   0.932   4.135   2.217 -0.0208  0.3660  1.4918
  476MOL0     O62724   0.946   4.011   2.145  0.2903 -0.2328  0.4613
  476MOL0     C62725   0.837   3.930   2.154  0.6382 -0.2229  0.2141
  476MOL0     C62726   0.816   3.838   2.256  0.3845 -1.0732  0.4118
  476MOL0     C62727   0.699   3.770   2.268 -0.6862 -0.1997 -0.0571
  476MOL0     C62728   0.608   3.771   2.160 -0.3696 -0.2900  0.2368
  476MOL0     C62729   0.498   3.681   2.158 -0.0179  0.3595 -0.1083
  476MOL0     O62730   0.489   3.592   2.263  0.3178 -0.7523 -0.5787
  476MOL0     C62731   0.384   3.507   2.272  0.0694 -0.4719 -0.9263
  476MOL0     C62732   0.392   3.370   2.250  0.0853 -0.0758  0.4501
  476MOL0     C62733   0.288   3.286   2.259  1.0092  0.1410  0.5558
  476MOL0     C62734   0.156   3.328   2.290 -1.1556 -0.8119  0.3222
  476MOL0     O62735   0.065   3.241   2.312 -0.0862  0.8852 -0.0647
  476MOL0     C62736   0.028   3.165   2.194 -0.6912  0.5691  0.3499
  476MOL0     C62737  -0.095   3.090   2.235  0.0907  0.3093 -0.8233
  476MOL0     C62738  -0.218   3.180   2.271 -0.2197  0.6554  0.2841
  476MOL0     C62739  -0.335   3.088   2.301 -0.1952 -0.3871 -0.5120
  476MOL0     C62740  -0.453   3.159   2.360  0.3103  0.3780 -0.4549
  476MOL0     C62741  -0.432   3.180   2.513 -1.2256 -0.2449  0.1243
  476MOL0     C62742  -0.560   3.247   2.561 -0.4345  0.4195 -0.2820
  476MOL0     C62743  -0.530   3.328   2.686 -0.1682  0.3938  1.0869
  476MOL0    Cl62744  -0.682   3.398   2.735 -0.5798 -0.0901 -0.1470
  476MOL0     C62745   0.153   3.461   2.322  0.7716 -0.1102 -0.2710
  476MOL0     C62746   0.264   3.551   2.320  0.7264 -0.3161 -0.3029
  476MOL0     O62747   0.412   3.694   2.069 -0.0476  0.2224 -0.2943
  476MOL0     C62748   0.639   3.841   2.046  1.5137  0.8785 -0.7363
  476MOL0     C62749   0.735   3.942   2.056  0.6168 -0.4601  0.3062
  476MOL0     N62750   1.239   4.296   2.292  0.6630 -0.2871  0.3117
  476MOL0     N62751   1.272   4.395   2.371 -0.5236  0.9067  0.2846
  476MOL0     C62752   2.483   4.560   1.980 -0.1976 -0.0001  0.6229
  476MOL0     C62753   2.592   4.638   1.953  0.5792 -0.5715  0.5432
  476MOL0     C62754   2.879   4.933   1.810 -0.7560 -0.7397 -0.1937
  476MOL0     C62755   3.000   4.915   1.731  0.1659 -0.0084 -0.5859
  476MOL0     C62756   3.116   5.002   1.728  0.3778  0.4791  0.6473
  476MOL0     C62757   3.116   5.112   1.804 -0.1620 -0.7844  0.0773
  476MOL0     O62758   3.216   5.215   1.811 -0.1758  0.1364 -0.5486
  476MOL0     C62759   3.337   5.210   1.727 -0.0908  0.1677 -0.6202
  476MOL0     C62760   3.428   5.309   1.792 -0.3597  0.7026  0.0612
  476MOL0     C62761   3.387   5.453   1.779 -0.8999 -0.0168 -0.1237
  476MOL0     C62762   3.488   5.534   1.709 -0.5310 -0.3094  0.0357
  476MOL0     C62763   3.513   5.469   1.578 -0.5891 -1.3476 -0.1111
  476MOL0     C62764   3.537   5.419   1.471  0.1891 -0.1446  0.0395
  476MOL0     C62765   3.000   5.133   1.876  0.6854 -0.2723  0.2655
  476MOL0     C62766   2.880   5.048   1.884  0.4884 -1.0233  0.3715
  476MOL0     H62767   2.435   4.939   1.904  1.2130 -0.4586 -1.2315
  476MOL0     H62768   2.243   4.799   1.970 -0.1223  0.2277 -1.5200
  476MOL0     H62769   2.100   4.640   1.935  0.9456 -1.7112 -2.7270
  476MOL0     H62770   2.107   4.624   2.113 -0.6318  0.0608 -0.5046
  476MOL0     H62771   2.023   4.408   2.112 -2.0790  1.4046  0.9194
  476MOL0     H62772   2.034   4.392   1.937 -1.7080  1.6241 -1.5380
  476MOL0     H62773   1.802   4.427   1.971 -3.8771  3.1396 -2.0826
  476MOL0     H62774   1.871   4.576   1.923 -0.1413  0.4382 -0.8419
  476MOL0     H62775   1.820   4.512   2.212  2.0163 -1.0275 -1.4872
  476MOL0     H62776   1.897   4.653   2.153 -1.5590  0.8156  1.5707
  476MOL0     H62777   1.662   4.656   1.987  0.2152 -0.3303 -0.2971
  476MOL0     H62778   1.680   4.739   2.146  2.0591  0.2807 -0.2871
  476MOL0     H62779   1.605   4.508   2.253 -1.0357  1.5342  1.4767
  476MOL0     H62780   1.531   4.483   2.105 -0.5542  0.0315  0.0470
  476MOL0     H62781   1.497   4.759   2.261 -0.1228 -0.2746  0.5779
  476MOL0     H62782   1.407   4.704   2.125 -2.6913 -0.0633  1.6560
  476MOL0     H62783   1.302   4.692   2.352 -0.9124 -1.6138 -0.2567
  476MOL0     H62784   1.439   4.584   2.403  0.8473 -0.8494 -0.7804
  476MOL0     H62785   1.264   4.535   2.077  0.5091 -0.3648  0.1334
  476MOL0     H62786   1.207   4.167   2.048 -3.6458 -2.0037 -2.5458
  476MOL0     H62787   1.221   4.312   1.949  1.1966  1.5333  1.7880
  476MOL0     H62788   1.013   4.161   1.947 -0.0549 -1.0070  1.4402
  476MOL0     H62789   0.989   4.341   1.933 -2.2946 -1.7300 -1.2221
  476MOL0     H62790   0.935   4.350   2.176 -0.6865 -0.2492  1.5338
  476MOL0     H62791   0.837   4.243   2.064  1.2311  3.3791 -2.5514
  476MOL0     H62792   0.851   4.132   2.292 -1.4694 -3.1141  0.0059
  476MOL0     H62793   1.022   4.142   2.279 -0.5675 -0.5361  2.4351
  476MOL0     H62794   0.895   3.845   2.330  0.7117 -1.2867  0.0830
  476MOL0     H62795   0.691   3.707   2.356 -1.7566  0.1445  0.1118
  476MOL0     H62796   0.495   3.337   2.238  0.0062 -0.4069  0.6746
  476MOL0     H62797   0.302   3.178   2.257  0.7985  0.1058  0.8892
  476MOL0     H62798   0.107   3.091   2.179  0.6655  1.8100  1.0181
  476MOL0     H62799   0.006   3.231   2.110  1.4568  1.7538  0.6342
  476MOL0     H62800  -0.066   3.036   2.326  0.0799  2.4017  0.4891
  476MOL0     H62801  -0.111   3.019   2.154  2.3940  0.8578 -1.8581
  476MOL0     H62802  -0.243   3.250   2.190 -2.4456 -2.7474 -2.2548
  476MOL0     H62803  -0.185   3.242   2.354 -2.5388  0.8514  1.1255
  476MOL0     H62804  -0.364   3.034   2.210  0.6110 -1.9988  0.1419
  476MOL0     H62805  -0.309   3.009   2.372  1.0196  0.9270  0.5410
  476MOL0     H62806  -0.543   3.099   2.344  0.6289 -0.3436  0.3694
  476MOL0     H62807  -0.462   3.261   2.322  1.3881  1.1059  1.1365
  476MOL0     H62808  -0.349   3.249   2.527  0.3995 -1.7232 -1.6801
  476MOL0     H62809  -0.421   3.083   2.563 -5.1119  0.4530  2.8446
  476MOL0     H62810  -0.604   3.309   2.482 -2.7606 -0.3432  0.3219
  476MOL0     H62811  -0.634   3.174   2.595 -0.3259 -0.7179 -2.3372
  476MOL0     H62812  -0.465   3.409   2.652 -0.5511  0.2025 -0.1379
  476MOL0     H62813  -0.488   3.263   2.764 -0.3037 -2.0837 -0.7879
  476MOL0     H62814   0.060   3.507   2.355  1.5288  0.5076  1.1452
  476MOL0     H62815   0.245   3.653   2.352 -0.8056 -0.7144  0.1596
  476MOL0     H62816   0.567   3.845   1.965 -1.8818  1.1242  2.0609
  476MOL0     H62817   0.755   3.993   1.962 -0.3962 -0.1299  0.2639
  476MOL0     H62818   2.510   4.458   2.003  0.5740  0.2219  0.7152
  476MOL0     H62819   2.692   4.602   1.976  1.5647 -0.0574 -2.5318
  476MOL0     H62820   2.997   4.825   1.671 -0.6104 -0.8461  0.6772
  476MOL0     H62821   3.209   4.995   1.674 -0.7280  0.6619 -1.3756
  476MOL0     H62822   3.300   5.232   1.626 -1.2400 -1.5971 -0.6177
  476MOL0     H62823   3.398   5.119   1.727 -1.5192 -0.8264 -1.6389
  476MOL0     H62824   3.441   5.284   1.898 -0.1778 -1.8427 -0.5183
  476MOL0     H62825   3.529   5.291   1.753 -0.9217  0.0162 -1.1173
  476MOL0     H62826   3.369   5.487   1.882 -1.2398  0.8350 -0.4515
  476MOL0     H62827   3.293   5.461   1.723  0.3767  0.2450 -2.3506
  476MOL0     H62828   3.450   5.635   1.690 -0.1705 -0.6333 -2.7399
  476MOL0     H62829   3.577   5.561   1.767 -0.2412  2.4453 -1.5019
  476MOL0     H62830   3.552   5.359   1.384 -0.9491 -1.3032  0.6058
  476MOL0     H62831   2.992   5.226   1.932 -1.9037 -1.0068  1.2464
  476MOL0     H62832   2.807   5.095   1.949  0.9839  4.8255 -2.6640
  477MOL0     O62833   4.709   8.884   4.908 -0.1295  1.1531 -0.3501
  477MOL0     C62834   4.760   8.942   5.003  0.3480  0.2929 -0.6825
  477MOL0     O62835   4.698   8.985   5.119 -0.7916  0.2200  0.4162
  477MOL0     C62836   4.568   8.940   5.139 -0.0158  0.3177  0.1206
  477MOL0     C62837   4.529   8.866   5.256  0.9451  0.5722 -0.2049
  477MOL0     C62838   4.399   8.821   5.269  0.5695 -0.8216 -0.9690
  477MOL0     C62839   4.297   8.862   5.181 -1.4600  0.0522 -0.3282
  477MOL0     O62840   4.167   8.836   5.190  0.5461 -0.8682  0.3637
  477MOL0     C62841   4.123   8.749   5.297 -0.4971 -0.4104  0.1176
  477MOL0     C62842   3.972   8.772   5.310  0.4131 -0.4794 -0.2456
  477MOL0     C62843   3.896   8.713   5.198  0.1678 -0.0396  0.6421
  477MOL0     C62844   3.753   8.774   5.193  0.7121  0.5514  0.0078
  477MOL0     C62845   3.649   8.708   5.298 -0.6955  0.2485  0.6797
  477MOL0     C62846   3.594   8.581   5.249  0.4484  0.5417  0.8309
  477MOL0     C62847   3.495   8.516   5.347 -0.4258 -0.4150 -0.0878
  477MOL0     C62848   3.384   8.614   5.399 -0.5742  0.0123  0.2312
  477MOL0     N62849   3.282   8.631   5.289  0.0670 -0.6578  0.4233
  477MOL0     C62850   3.147   8.599   5.303  0.7552 -0.2422 -0.2590
  477MOL0     C62851   3.091   8.626   5.171 -0.5634 -0.1256 -0.7286
  477MOL0     C62852   2.950   8.590   5.125 -0.5053 -0.1968 -0.5868
  477MOL0     C62853   2.841   8.700   5.149 -0.5485 -0.5034 -0.1314
  477MOL0     C62854   2.698   8.643   5.127  0.5843  0.0059  0.0939
  477MOL0     C62855   2.651   8.555   5.243 -0.1502 -0.3790 -0.1913
  477MOL0     O62856   2.523   8.500   5.207 -0.4942 -0.6670  0.4713
  477MOL0     C62857   2.411   8.534   5.277 -0.8018 -1.3334  0.1173
  477MOL0     C62858   2.299   8.455   5.244  0.1643 -0.1904  0.4135
  477MOL0     C62859   2.171   8.488   5.302 -0.1178  0.4648 -0.0783
  477MOL0     C62860   2.149   8.588   5.394 -0.1573 -0.6979 -1.0504
  477MOL0     C62861   2.021   8.619   5.454 -0.1362  0.3225  0.0378
  477MOL0     O62862   1.922   8.519   5.457 -0.3324 -0.4660 -0.2904
  477MOL0     C62863   1.790   8.545   5.486  0.2234 -0.4447  0.1808
  477MOL0     C62864   1.721   8.422   5.521  0.1204  0.4896 -0.1724
  477MOL0     C62865   1.590   8.433   5.562 -0.0398 -0.2537  0.1782
  477MOL0     C62866   1.523   8.558   5.578  0.5936  0.6971 -0.6403
  477MOL0     O62867   1.404   8.552   5.638  0.5545 -0.1707  0.1755
  477MOL0     C62868   1.297   8.484   5.563 -0.0580 -0.0573  0.0345
  477MOL0     C62869   1.246   8.353   5.635 -0.0335  0.2938  0.0843
  477MOL0     C62870   1.115   8.318   5.578  0.1499  0.3668 -0.0634
  477MOL0     C62871   1.003   8.424   5.592  0.9310  0.5660  0.5671
  477MOL0     C62872   0.866   8.353   5.619 -0.0233 -0.1859 -0.1468
  477MOL0     C62873   0.875   8.300   5.760 -0.2785 -0.3667 -0.0441
  477MOL0     C62874   0.734   8.285   5.812 -0.2674 -0.9203  0.1498
  477MOL0     C62875   0.667   8.166   5.748 -0.6011  0.0371  0.7157
  477MOL0    Cl62876   0.745   8.013   5.798 -0.5002  0.1074  0.1480
  477MOL0     C62877   1.590   8.670   5.539 -0.9645 -0.4919 -0.8403
  477MOL0     C62878   1.723   8.665   5.492 -0.1471 -0.5172 -0.6308
  477MOL0     O62879   2.005   8.736   5.495  0.1345 -0.1782 -0.1994
  477MOL0     C62880   2.262   8.672   5.421 -0.8449 -0.9132  0.1231
  477MOL0     C62881   2.385   8.649   5.362 -0.7851  0.6837  0.3680
  477MOL0     N62882   3.184   8.695   5.097 -0.1691  0.7220 -0.4795
  477MOL0     N62883   3.292   8.694   5.166 -0.4000 -0.0720 -0.6123
  477MOL0     C62884   4.339   8.945   5.069  0.9485  0.4135 -0.7799
  477MOL0     C62885   4.473   8.983   5.050 -0.1768 -0.3580  0.0597
  477MOL0     C62886   4.905   8.965   4.999  0.0383 -0.0186 -0.2453
  477MOL0     C62887   4.973   8.993   5.116 -0.1221  0.3400 -0.4170
  477MOL0     C62888   5.115   9.007   5.110 -0.5170 -0.3547  0.9322
  477MOL0     C62889   5.192   8.981   4.992 -0.6404 -0.1216  0.0292
  477MOL0     O62890   5.331   8.992   4.973 -0.1222 -0.4605 -0.5088
  477MOL0     C62891   5.411   9.029   5.089  0.0786  0.7112 -0.3301
  477MOL0     C62892   5.563   9.021   5.053 -0.7583  0.6328 -0.9481
  477MOL0     C62893   5.622   9.151   4.965  0.0555 -0.1842 -0.6552
  477MOL0     C62894   5.774   9.128   4.956 -0.7556 -1.0338 -0.4182
  477MOL0     C62895   5.844   9.249   4.970 -0.0263  0.2438  0.1926
  477MOL0     C62896   5.916   9.345   4.992  0.1289  0.1567 -0.1906
  477MOL0     C62897   5.118   8.955   4.878 -0.9020  0.3211 -0.3192
  477MOL0     C62898   4.981   8.943   4.893  0.2178  0.6391  0.5172
  477MOL0     H62899   4.602   8.846   5.333  0.6122 -0.7901 -0.2235
  477MOL0     H62900   4.373   8.773   5.363 -2.4641  2.0947 -0.1173
  477MOL0     H62901   4.166   8.779   5.393 -0.2189 -0.4782  0.0135
  477MOL0     H62902   4.149   8.644   5.279  2.4309  0.5598 -2.2181
  477MOL0     H62903   3.942   8.877   5.311  0.6890 -0.3991 -0.4611
  477MOL0     H62904   3.937   8.726   5.403  1.1510 -1.3913 -0.4099
  477MOL0     H62905   3.896   8.604   5.204 -0.2433 -0.3014 -2.4672
  477MOL0     H62906   3.955   8.746   5.112 -0.9759  0.1151 -0.1053
  477MOL0     H62907   3.765   8.882   5.212  0.8520  0.3176  1.4025
  477MOL0     H62908   3.721   8.754   5.091  3.3396 -0.8772 -0.5936
  477MOL0     H62909   3.567   8.780   5.290  0.0283  0.9914 -0.4208
  477MOL0     H62910   3.689   8.693   5.398 -2.6228  2.6981  1.9266
  477MOL0     H62911   3.661   8.495   5.235 -2.8069 -2.5371  2.5396
  477MOL0     H62912   3.537   8.583   5.156  0.4740  2.0433  0.8246
  477MOL0     H62913   3.442   8.431   5.303 -5.7656  0.7775  3.1775
  477MOL0     H62914   3.553   8.470   5.427 -1.5157 -0.4479  0.6941
  477MOL0     H62915   3.436   8.707   5.426  2.7296  0.2947 -5.4590
  477MOL0     H62916   3.335   8.575   5.488  0.5978  0.1793  0.9682
  477MOL0     H62917   3.104   8.530   5.374 -2.1649 -1.2594 -2.7824
  477MOL0     H62918   2.922   8.498   5.178 -0.1561  0.3288  0.5428
  477MOL0     H62919   2.955   8.557   5.021 -1.9716 -0.3202 -0.6377
  477MOL0     H62920   2.843   8.773   5.067 -1.2883  1.1089  1.2206
  477MOL0     H62921   2.862   8.747   5.245  0.8521 -0.1665 -0.5764
  477MOL0     H62922   2.629   8.727   5.113 -0.5600 -1.1027 -1.1797
  477MOL0     H62923   2.678   8.602   5.027  1.8066  2.2290 -1.1583
  477MOL0     H62924   2.657   8.614   5.334 -0.0767  1.9218 -1.6213
  477MOL0     H62925   2.719   8.473   5.268 -2.1232 -1.4631  2.0004
  477MOL0     H62926   2.318   8.389   5.161  0.7720 -0.9328  1.1276
  477MOL0     H62927   2.082   8.442   5.260 -0.2196  3.0767 -3.1310
  477MOL0     H62928   1.765   8.324   5.504  0.7405  0.6235  0.6444
  477MOL0     H62929   1.533   8.341   5.573  2.1977 -1.5944  1.3202
  477MOL0     H62930   1.329   8.474   5.459  1.3125 -0.7026  0.4887
  477MOL0     H62931   1.211   8.550   5.580 -0.5279 -0.9573  1.2645
  477MOL0     H62932   1.227   8.377   5.740 -2.6605 -0.3279 -0.1938
  477MOL0     H62933   1.323   8.275   5.628 -0.2004  0.0121  1.0869
  477MOL0     H62934   1.087   8.226   5.630 -0.6591  0.1458 -0.8617
  477MOL0     H62935   1.124   8.292   5.471 -2.2249 -1.2668  0.0460
  477MOL0     H62936   1.015   8.493   5.676  1.5207 -0.6827  1.5438
  477MOL0     H62937   0.995   8.483   5.500 -0.4282 -1.6091 -0.8227
  477MOL0     H62938   0.839   8.271   5.552 -1.0519 -0.4903  0.6199
  477MOL0     H62939   0.800   8.441   5.615  2.0577  1.7489  3.2165
  477MOL0     H62940   0.940   8.364   5.821  2.2098  1.3197 -4.0499
  477MOL0     H62941   0.928   8.205   5.768 -0.2682 -0.4811 -1.3713
  477MOL0     H62942   0.731   8.287   5.921  0.9323  1.6158  0.1904
  477MOL0     H62943   0.676   8.371   5.777 -3.0610  0.0166  6.0030
  477MOL0     H62944   0.658   8.176   5.640 -4.7681 -1.3962  0.7858
  477MOL0     H62945   0.565   8.174   5.787 -2.0097  2.1113 -2.9417
  477MOL0     H62946   1.539   8.766   5.546 -1.2795 -0.6296 -1.2026
  477MOL0     H62947   1.764   8.760   5.460 -1.4680  0.4059  0.3196
  477MOL0     H62948   2.257   8.760   5.485 -1.8219 -0.5565 -0.4182
  477MOL0     H62949   2.455   8.732   5.374 -2.4172  2.3228 -0.8737
  477MOL0     H62950   4.256   8.967   5.002 -0.5397 -1.3067  0.3884
  477MOL0     H62951   4.495   9.038   4.959 -0.7592 -1.0865 -0.5273
  477MOL0     H62952   4.916   9.002   5.208 -1.3841  1.2186 -1.2413
  477MOL0     H62953   5.165   9.043   5.200 -0.3210 -0.2139  0.7674
  477MOL0     H62954   5.385   8.960   5.169  1.4340  0.2530 -0.2642
  477MOL0     H62955   5.393   9.133   5.119  1.0293  1.5400 -2.3771
  477MOL0     H62956   5.617   9.014   5.147 -0.9722  0.8937 -0.8043
  477MOL0     H62957   5.590   8.921   5.019 -0.0437  0.5408 -0.1578
  477MOL0     H62958   5.607   9.244   5.022  0.1014 -2.5295  3.5919
  477MOL0     H62959   5.570   9.154   4.869 -2.0531 -0.3940  0.4141
  477MOL0     H62960   5.810   9.073   5.044 -0.2363 -1.8922 -1.1453
  477MOL0     H62961   5.805   9.095   4.856 -2.3345  2.7391 -2.3606
  477MOL0     H62962   5.983   9.428   5.003  0.8248  0.4170 -4.5320
  477MOL0     H62963   5.167   8.932   4.784 -0.6664 -0.9698  0.1032
  477MOL0     H62964   4.931   8.898   4.807 -1.4219 -0.2010  1.8404
  478MOL0     O62965  10.913   4.073  10.475  0.8126  0.5098 -0.2160
  478MOL0     C62966  10.863   3.978  10.539 -0.5246 -0.5061  0.5905
  478MOL0     O62967  10.731   3.949  10.543 -0.8486  0.1464 -0.1578
  478MOL0     C62968  10.632   4.024  10.477  0.7406 -0.2212 -1.1984
  478MOL0     C62969  10.604   3.990  10.343  0.4326  0.2013  0.7522
  478MOL0     C62970  10.500   4.058  10.277  0.0064 -0.6612  0.1952
  478MOL0     C62971  10.429   4.159  10.342  0.0727  0.5332 -0.7497
  478MOL0     O62972  10.324   4.220  10.276 -0.2471 -0.5316  0.5524
  478MOL0     C62973  10.193   4.233  10.332 -0.5378 -0.2597 -0.6544
  478MOL0     C62974  10.117   4.353  10.267 -0.3925  0.0655 -0.2527
  478MOL0     C62975  10.177   4.470  10.337 -0.8149 -0.9195  0.4375
  478MOL0     C62976  10.136   4.615  10.294  0.4566 -0.8660 -0.0975
  478MOL0     C62977  10.209   4.711  10.379 -0.2605 -0.3145  0.4065
  478MOL0     C62978  10.194   4.858  10.346  0.5015 -0.6059  0.3326
  478MOL0     C62979  10.295   4.916  10.241 -0.5716  0.1372 -0.1203
  478MOL0     C62980  10.443   4.873  10.248  0.1429  0.3622 -0.0132
  478MOL0     N62981  10.512   4.907  10.375 -0.5786  0.1361  0.3364
  478MOL0     C62982  10.520   5.027  10.436  0.3642  0.0001 -0.4479
  478MOL0     C62983  10.602   5.017  10.539  0.0411  0.0090  0.1712
  478MOL0     C62984  10.661   5.120  10.629 -0.2145  0.7605 -0.2812
  478MOL0     C62985  10.558   5.168  10.732  0.6996  0.3494  1.4210
  478MOL0     C62986  10.496   5.052  10.814  0.8290  1.3536 -0.1650
  478MOL0     C62987  10.363   5.077  10.885 -0.0878  0.1013  0.1656
  478MOL0     O62988  10.286   5.154  10.805 -0.0753 -1.0589  0.7887
  478MOL0     C62989  10.152   5.118  10.810  0.3350 -0.6609  0.4510
  478MOL0     C62990  10.095   5.107  10.682  0.6575  0.9068  0.3525
  478MOL0     C62991   9.953   5.075  10.670 -0.2799  0.1571 -0.3853
  478MOL0     C62992   9.888   5.033  10.784  0.1891  0.5981  0.6896
  478MOL0     C62993   9.743   5.008  10.778 -0.4671  0.6496  1.1043
  478MOL0     O62994   9.655   5.076  10.860  0.4033  0.4149  0.0329
  478MOL0     C62995   9.523   5.051  10.837  0.5520 -0.9834 -0.4895
  478MOL0     C62996   9.434   5.010  10.938 -0.4521 -0.2160 -0.6662
  478MOL0     C62997   9.300   4.995  10.910  0.1671  0.8380 -0.5335
  478MOL0     C62998   9.242   5.004  10.784  0.5879 -0.7412 -0.7229
  478MOL0     O62999   9.105   4.976  10.783 -0.2741 -0.0950 -0.2417
  478MOL0     C63000   9.044   4.909  10.672 -0.4827 -1.3205  0.0896
  478MOL0     C63001   8.896   4.881  10.684  0.2517  0.2600  0.1798
  478MOL0     C63002   8.810   5.006  10.656 -0.4993  0.5770 -0.0071
  478MOL0     C63003   8.657   4.979  10.668  0.4714 -0.1291  0.6622
  478MOL0     C63004   8.576   5.109  10.656  0.2508 -0.2610  0.6487
  478MOL0     C63005   8.428   5.099  10.648 -0.1364 -0.8167 -0.6692
  478MOL0     C63006   8.369   5.080  10.785 -0.2686 -1.1133  0.4917
  478MOL0     C63007   8.229   5.029  10.787  0.0011 -0.3209 -0.0926
  478MOL0    Cl63008   8.222   4.863  10.737 -0.1139 -0.2118 -0.1049
  478MOL0     C63009   9.328   5.045  10.679  0.6503 -0.2800  0.0997
  478MOL0     C63010   9.467   5.074  10.709  0.2827  0.0313  1.1435
  478MOL0     O63011   9.706   4.921  10.695 -0.1809  0.1118 -0.3805
  478MOL0     C63012   9.946   5.043  10.912  0.6600 -0.3588  0.1356
  478MOL0     C63013  10.076   5.089  10.919  0.9734 -0.4911 -0.5167
  478MOL0     N63014  10.646   4.882  10.537  0.5425 -0.3942 -0.6953
  478MOL0     N63015  10.586   4.821  10.440  0.6038  0.6876 -0.0600
  478MOL0     C63016  10.465   4.189  10.476 -0.1629  0.0829 -0.3616
  478MOL0     C63017  10.563   4.126  10.539 -0.1113 -0.0452 -0.0793
  478MOL0     C63018  10.961   3.896  10.616  0.1738  0.3583 -0.4639
  478MOL0     C63019  10.906   3.792  10.693  0.1418 -0.6231  0.5209
  478MOL0     C63020  10.998   3.693  10.743 -0.0443  0.6817  0.0739
  478MOL0     C63021  11.139   3.705  10.722  0.7586 -0.1537 -0.0064
  478MOL0     O63022  11.228   3.606  10.772  0.4194 -0.2706 -0.4632
  478MOL0     C63023  11.364   3.641  10.790 -0.0164  0.4505  0.2122
  478MOL0     C63024  11.435   3.530  10.862 -0.0084 -0.1752  0.6344
  478MOL0     C63025  11.565   3.583  10.915  1.0887 -0.4636  0.1616
  478MOL0     C63026  11.658   3.479  10.970 -0.9214 -0.5245  0.4962
  478MOL0     C63027  11.777   3.534  11.041  0.2267 -0.1321  0.3748
  478MOL0     C63028  11.865   3.597  11.100  1.1629 -0.4009  0.1406
  478MOL0     C63029  11.180   3.810  10.650  0.1406 -0.1411  0.7702
  478MOL0     C63030  11.100   3.910  10.597  0.1881  0.1548 -0.1232
  478MOL0     H63031  10.659   3.916  10.285 -2.6914 -0.7772 -1.2155
  478MOL0     H63032  10.484   4.041  10.171  2.2925 -0.5594 -0.2084
  478MOL0     H63033  10.187   4.246  10.441 -2.7356 -0.2012 -0.7349
  478MOL0     H63034  10.142   4.139  10.310 -2.8858  1.1914 -1.8203
  478MOL0     H63035  10.009   4.337  10.278  0.0709 -2.6300  1.1790
  478MOL0     H63036  10.135   4.358  10.159 -0.8253 -1.5132 -0.4294
  478MOL0     H63037  10.286   4.472  10.334 -0.7926 -0.1108  1.3953
  478MOL0     H63038  10.150   4.460  10.443 -1.9246  0.8194  0.3470
  478MOL0     H63039  10.162   4.623  10.188 -1.8394  1.4045 -0.5802
  478MOL0     H63040  10.028   4.632  10.291  0.7328  1.5091 -3.9039
  478MOL0     H63041  10.312   4.682  10.400 -1.0127 -1.7949  2.3982
  478MOL0     H63042  10.162   4.710  10.477 -0.7937 -0.4005  0.1558
  478MOL0     H63043  10.226   4.904  10.440  1.5504 -2.1556  0.7589
  478MOL0     H63044  10.092   4.881  10.313  1.8873  0.5225 -3.6887
  478MOL0     H63045  10.274   4.898  10.135  0.4811  1.1015 -0.5221
  478MOL0     H63046  10.298   5.025  10.251  1.2937  0.0746  0.5019
  478MOL0     H63047  10.504   4.922  10.172 -2.4047  2.5197 -0.8138
  478MOL0     H63048  10.445   4.764  10.235  0.3988  0.4028 -0.3080
  478MOL0     H63049  10.470   5.119  10.405 -1.0892 -0.7379 -0.3631
  478MOL0     H63050  10.689   5.208  10.571  2.7678  0.7052  0.8944
  478MOL0     H63051  10.748   5.071  10.674 -2.5389 -3.6004  0.0120
  478MOL0     H63052  10.476   5.211  10.673  0.6485 -0.4537  0.8972
  478MOL0     H63053  10.614   5.238  10.795  2.0875  0.5482  0.0504
  478MOL0     H63054  10.478   4.969  10.744 -1.2453  2.6452 -1.2650
  478MOL0     H63055  10.571   5.008  10.881 -1.7882 -1.0858  1.4057
  478MOL0     H63056  10.375   5.123  10.983 -3.0003 -0.9975  1.1511
  478MOL0     H63057  10.320   4.980  10.908 -3.6657  1.6148  0.4835
  478MOL0     H63058  10.162   5.121  10.598 -1.7215 -3.4704 -2.6405
  478MOL0     H63059   9.906   5.086  10.573 -0.6853  0.6305 -0.1400
  478MOL0     H63060   9.463   5.007  11.043 -2.5622 -0.3456 -0.0427
  478MOL0     H63061   9.228   4.965  10.985 -1.2465 -0.3497 -2.2728
  478MOL0     H63062   9.094   4.812  10.669 -1.1768 -1.7960  2.0886
  478MOL0     H63063   9.049   4.971  10.582  0.6242  1.1160  1.7203
  478MOL0     H63064   8.877   4.843  10.785 -0.2879 -4.0631 -1.3185
  478MOL0     H63065   8.876   4.795  10.620 -0.4432  0.5550 -0.0067
  478MOL0     H63066   8.833   5.044  10.556  2.4077 -0.4056  0.1990
  478MOL0     H63067   8.847   5.071  10.735  1.1703  1.3269 -1.3441
  478MOL0     H63068   8.612   4.906  10.601 -1.2730  0.0775  1.5280
  478MOL0     H63069   8.635   4.943  10.769  1.5017 -2.5918  0.0758
  478MOL0     H63070   8.608   5.169  10.570 -0.9488  2.5684  2.0700
  478MOL0     H63071   8.612   5.176  10.735  2.6404 -1.2455  0.4984
  478MOL0     H63072   8.392   5.025  10.575 -1.2958 -3.2591  2.1888
  478MOL0     H63073   8.389   5.195  10.613  3.2224  0.7423 -0.5197
  478MOL0     H63074   8.433   5.006  10.833  1.7499 -0.6570 -1.3261
  478MOL0     H63075   8.370   5.175  10.840  2.4771 -1.4761  1.2085
  478MOL0     H63076   8.165   5.086  10.718 -1.2365  0.6012  1.7462
  478MOL0     H63077   8.177   5.042  10.882 -2.3659 -4.3167 -0.6349
  478MOL0     H63078   9.282   5.064  10.583  0.7143  3.6841  0.7032
  478MOL0     H63079   9.530   5.110  10.628 -0.5408  0.5583  0.7207
  478MOL0     H63080   9.888   5.005  10.996 -0.6973  2.0039  0.3796
  478MOL0     H63081  10.125   5.102  11.015  0.1811  0.7046 -0.2478
  478MOL0     H63082  10.410   4.269  10.524  0.8230  0.9721 -0.6922
  478MOL0     H63083  10.591   4.151  10.641  1.8796 -1.5340 -0.2054
  478MOL0     H63084  10.799   3.774  10.699  0.1012 -0.3696  0.5361
  478MOL0     H63085  10.981   3.608  10.809 -2.7206  0.1935 -1.0990
  478MOL0     H63086  11.370   3.729  10.854  2.6625  0.0791  0.5726
  478MOL0     H63087  11.425   3.666  10.702  1.5951  0.1513  1.2091
  478MOL0     H63088  11.368   3.505  10.945 -1.8917  0.1633 -0.7320
  478MOL0     H63089  11.451   3.440  10.802 -0.6221  0.8620 -1.1638
  478MOL0     H63090  11.537   3.648  10.998 -1.3026 -1.1298 -0.0398
  478MOL0     H63091  11.622   3.632  10.836  1.6018  0.1631  0.9036
  478MOL0     H63092  11.598   3.410  11.029 -1.3057 -1.2275 -0.6766
  478MOL0     H63093  11.690   3.422  10.881 -0.2504  0.3508  0.1579
  478MOL0     H63094  11.939   3.647  11.159  0.3080 -1.1856  1.9873
  478MOL0     H63095  11.284   3.824  10.620 -0.6781 -0.5637 -2.7066
  478MOL0     H63096  11.139   3.986  10.530 -2.4171  0.5103 -1.3481
  479MOL0     O63097   1.876   6.387  10.626  0.1447 -0.0182 -0.3145
  479MOL0     C63098   1.917   6.404  10.513 -0.9396  0.4284  0.5081
  479MOL0     O63099   1.842   6.414  10.398  0.3953  0.7247  0.7868
  479MOL0     C63100   1.700   6.432  10.396 -0.7757  0.6602  0.1484
  479MOL0     C63101   1.642   6.493  10.503  0.5367 -0.9985 -0.7423
  479MOL0     C63102   1.501   6.491  10.500 -0.4880 -0.7239  0.2704
  479MOL0     C63103   1.426   6.443  10.399  0.9145 -0.2676 -0.2470
  479MOL0     O63104   1.282   6.439  10.394 -0.2109 -0.1979 -0.3908
  479MOL0     C63105   1.203   6.556  10.408  0.4066  0.0043 -0.3341
  479MOL0     C63106   1.058   6.528  10.445  0.2721  0.2572 -0.1280
  479MOL0     C63107   1.039   6.453  10.577 -0.4078  0.1433  0.8216
  479MOL0     C63108   0.905   6.388  10.593  0.6716 -0.7826 -0.6445
  479MOL0     C63109   0.792   6.471  10.651 -0.1671  0.1459  0.4620
  479MOL0     C63110   0.664   6.406  10.609 -0.4701 -0.2384 -0.2731
  479MOL0     C63111   0.549   6.462  10.690  0.4858 -0.9584 -0.1348
  479MOL0     C63112   0.415   6.396  10.646 -0.2896 -0.7737  0.9331
  479MOL0     N63113   0.298   6.411  10.732  0.0073  0.0653  0.1423
  479MOL0     C63114   0.280   6.348  10.853 -0.1105 -0.0319 -0.6735
  479MOL0     C63115   0.163   6.397  10.904 -1.2355 -0.0139  0.3985
  479MOL0     C63116   0.098   6.338  11.020  0.4790 -0.3590 -0.6284
  479MOL0     C63117  -0.044   6.284  10.988  0.8583 -0.3548  0.6172
  479MOL0     C63118  -0.148   6.395  10.956  0.6908  0.1374 -0.2485
  479MOL0     C63119  -0.274   6.325  10.917  0.1182  0.8932  0.1943
  479MOL0     O63120  -0.378   6.427  10.931 -0.3140  0.0399  0.0052
  479MOL0     C63121  -0.509   6.404  10.897  0.0970  0.5259 -0.3852
  479MOL0     C63122  -0.584   6.519  10.923 -0.0641  0.4975 -0.3605
  479MOL0     C63123  -0.719   6.525  10.897  0.7170  0.6519  0.1006
  479MOL0     C63124  -0.780   6.407  10.841  0.4272  0.0688 -0.1330
  479MOL0     C63125  -0.925   6.395  10.824  1.3363 -0.3594 -0.8180
  479MOL0     O63126  -1.001   6.504  10.843 -0.2827  0.8375 -0.3573
  479MOL0     C63127  -1.141   6.484  10.831  0.2386 -0.0957  0.9589
  479MOL0     C63128  -1.212   6.564  10.746  0.0389  0.3168 -0.0659
  479MOL0     C63129  -1.355   6.554  10.736  0.3960 -0.2265 -0.7393
  479MOL0     C63130  -1.426   6.452  10.807 -0.2794  0.1466  0.0791
  479MOL0     O63131  -1.561   6.429  10.781  0.0666 -0.3220 -0.1742
  479MOL0     C63132  -1.620   6.321  10.842 -0.4109 -0.3718 -0.2237
  479MOL0     C63133  -1.771   6.342  10.816 -0.8826  0.7092  0.4991
  479MOL0     C63134  -1.871   6.252  10.894 -1.3920  0.4884 -0.9074
  479MOL0     C63135  -2.007   6.316  10.921  0.2949 -0.8973  0.5692
  479MOL0     C63136  -2.114   6.220  10.961 -0.1694  0.5793  0.0486
  479MOL0     C63137  -2.249   6.280  10.973  0.6062 -0.5391  0.0904
  479MOL0     C63138  -2.362   6.174  11.001 -0.1042 -0.5000 -0.5461
  479MOL0     C63139  -2.492   6.234  11.045 -0.2670  0.0962  0.8995
  479MOL0    Cl63140  -2.612   6.121  11.114  0.1255  0.5389 -0.4304
  479MOL0     C63141  -1.347   6.374  10.889 -0.2074 -0.8449 -0.7504
  479MOL0     C63142  -1.213   6.385  10.907  0.1611 -0.3507  0.0560
  479MOL0     O63143  -0.969   6.285  10.789 -0.2822 -0.0002  0.0905
  479MOL0     C63144  -0.704   6.295  10.819 -0.3419 -1.3102  0.6449
  479MOL0     C63145  -0.570   6.294  10.838  0.1846  0.6074 -0.5743
  479MOL0     N63146   0.124   6.506  10.829 -0.2820 -0.7145 -0.0739
  479MOL0     N63147   0.206   6.513  10.728  0.3052  0.0869 -0.1159
  479MOL0     C63148   1.488   6.372  10.300  0.2949  0.8370 -0.0832
  479MOL0     C63149   1.625   6.361  10.295  1.1624  0.0468 -0.2849
  479MOL0     C63150   2.061   6.408  10.484 -0.3224  0.1662 -0.3002
  479MOL0     C63151   2.124   6.439  10.359  1.0007  0.0362  0.1322
  479MOL0     C63152   2.257   6.426  10.334 -0.2207  0.3018  0.2541
  479MOL0     C63153   2.340   6.372  10.436  0.4130  0.3373 -0.0343
  479MOL0     O63154   2.476   6.351  10.424  0.0752 -0.2555 -0.6129
  479MOL0     C63155   2.520   6.323  10.289 -1.2030  0.7290 -0.3755
  479MOL0     C63156   2.494   6.178  10.233 -0.4384 -0.6861 -0.6230
  479MOL0     C63157   2.555   6.073  10.330 -0.0168  0.5068  0.5622
  479MOL0     C63158   2.571   5.934  10.250 -0.7565 -0.7735 -0.1721
  479MOL0     C63159   2.438   5.889  10.211 -0.5051  0.2907 -0.0100
  479MOL0     C63160   2.331   5.864  10.173 -0.6084 -0.0118 -0.5491
  479MOL0     C63161   2.284   6.348  10.558 -0.0920  0.5642 -0.8632
  479MOL0     C63162   2.147   6.370  10.585 -0.2880 -0.2430 -0.4701
  479MOL0     H63163   1.694   6.539  10.587 -0.4404 -1.0859 -0.0669
  479MOL0     H63164   1.444   6.536  10.581  0.7913 -0.5366  1.1056
  479MOL0     H63165   1.208   6.620  10.320 -1.3130 -0.8518 -1.1011
  479MOL0     H63166   1.248   6.618  10.486  0.2920 -1.7266  1.1692
  479MOL0     H63167   1.017   6.471  10.361 -1.7816  1.1133  0.2156
  479MOL0     H63168   0.997   6.619  10.447  2.3920  1.7336  1.3604
  479MOL0     H63169   1.059   6.517  10.663 -1.7194  0.0059  1.2526
  479MOL0     H63170   1.111   6.371  10.580 -0.7666 -0.1616  1.1480
  479MOL0     H63171   0.866   6.346  10.500  1.7847 -0.3040 -1.3441
  479MOL0     H63172   0.911   6.301  10.659 -0.4221 -0.7706 -0.5110
  479MOL0     H63173   0.801   6.573  10.611 -0.2231  0.2538  0.7216
  479MOL0     H63174   0.809   6.484  10.758  2.7010  2.2644 -0.1186
  479MOL0     H63175   0.667   6.297  10.619 -1.2629 -0.6469 -3.4011
  479MOL0     H63176   0.652   6.418  10.501  0.2719 -3.1245 -0.7587
  479MOL0     H63177   0.560   6.436  10.796 -1.5220 -1.0450  0.1045
  479MOL0     H63178   0.546   6.571  10.683  1.7877 -0.9190 -0.2480
  479MOL0     H63179   0.419   6.288  10.635 -1.5641 -0.8688  1.2861
  479MOL0     H63180   0.390   6.436  10.547  2.1920  0.6581  0.7823
  479MOL0     H63181   0.338   6.271  10.902  3.6221  2.2103 -1.1725
  479MOL0     H63182   0.096   6.420  11.093  0.5048 -1.7674  1.0357
  479MOL0     H63183   0.159   6.254  11.054  0.8943 -0.1416 -0.8370
  479MOL0     H63184  -0.077   6.227  11.074  0.6439 -0.4233  0.4903
  479MOL0     H63185  -0.038   6.224  10.897 -1.4187  1.5063 -0.8869
  479MOL0     H63186  -0.154   6.451  11.050 -1.6247 -1.5650  0.7031
  479MOL0     H63187  -0.122   6.456  10.869  0.1827 -0.2273 -0.6582
  479MOL0     H63188  -0.302   6.242  10.981 -1.2301 -1.2573 -2.9145
  479MOL0     H63189  -0.269   6.286  10.815 -3.1443  2.1661 -0.5926
  479MOL0     H63190  -0.534   6.612  10.948  0.0250  0.7354 -1.3896
  479MOL0     H63191  -0.778   6.617  10.899  0.8341  0.8066 -1.9472
  479MOL0     H63192  -1.159   6.630  10.678 -1.3928  0.9879 -0.5615
  479MOL0     H63193  -1.411   6.627  10.677 -2.7736 -1.3091  0.6909
  479MOL0     H63194  -1.601   6.321  10.950  1.1654  4.7790 -0.2336
  479MOL0     H63195  -1.604   6.221  10.801 -2.8185 -2.4724  3.3446
  479MOL0     H63196  -1.802   6.326  10.712  2.4335 -5.0214  0.0383
  479MOL0     H63197  -1.789   6.445  10.850  0.2866  0.4519  2.0167
  479MOL0     H63198  -1.824   6.233  10.991  1.6000  2.4229 -1.8308
  479MOL0     H63199  -1.879   6.155  10.844 -0.2131 -0.6518  1.0023
  479MOL0     H63200  -1.993   6.389  11.001  2.0535  0.5743 -0.9783
  479MOL0     H63201  -2.037   6.370  10.830  0.8021 -0.2907  0.7608
  479MOL0     H63202  -2.092   6.176  11.059  1.1993  0.3041 -0.3488
  479MOL0     H63203  -2.122   6.138  10.889 -1.1958  1.3747 -0.7579
  479MOL0     H63204  -2.273   6.343  10.886 -0.1292  0.7197  1.1635
  479MOL0     H63205  -2.242   6.347  11.058 -4.0705 -2.0746  1.9969
  479MOL0     H63206  -2.354   6.116  10.908  1.7526  0.8784 -1.3211
  479MOL0     H63207  -2.337   6.120  11.093  0.7186  0.0287 -0.4487
  479MOL0     H63208  -2.534   6.280  10.955  1.7811 -1.4526 -0.9576
  479MOL0     H63209  -2.486   6.314  11.120 -0.6777  0.4129  0.5992
  479MOL0     H63210  -1.397   6.304  10.955  0.1854 -0.0477  0.4267
  479MOL0     H63211  -1.165   6.317  10.977 -2.2078 -2.7272 -0.4790
  479MOL0     H63212  -0.743   6.214  10.756  2.7829  0.4265 -4.0691
  479MOL0     H63213  -0.508   6.211  10.809 -0.1327 -0.3965  1.4550
  479MOL0     H63214   1.424   6.332  10.222 -1.4262 -0.0662  1.7021
  479MOL0     H63215   1.679   6.313  10.214 -0.1506  0.0490 -1.1892
  479MOL0     H63216   2.057   6.463  10.277 -0.5780 -2.2962  0.6337
  479MOL0     H63217   2.299   6.447  10.236  1.1307 -0.1146  0.7283
  479MOL0     H63218   2.629   6.335  10.295 -1.3087  1.2820  0.6984
  479MOL0     H63219   2.495   6.405  10.220 -1.9526 -0.4934 -1.6124
  479MOL0     H63220   2.387   6.157  10.218 -0.1007 -1.0575 -2.8041
  479MOL0     H63221   2.548   6.167  10.139 -1.1783 -1.8854 -0.9335
  479MOL0     H63222   2.477   6.064  10.406 -1.8462 -1.5729 -1.3838
  479MOL0     H63223   2.652   6.108  10.365  1.1632 -0.9039 -1.1349
  479MOL0     H63224   2.644   5.950  10.170  2.0567  1.3426  2.5288
  479MOL0     H63225   2.617   5.869  10.325  1.6852  1.3016  0.2851
  479MOL0     H63226   2.239   5.839  10.126 -1.3656  0.7699  0.4724
  479MOL0     H63227   2.342   6.306  10.639  1.4896  4.2939  0.1400
  479MOL0     H63228   2.105   6.353  10.684 -1.5994  1.3622 -0.7050
  480MOL0     O63229   3.438   3.223   4.356 -0.1717 -0.3711 -0.3195
  480MOL0     C63230   3.524   3.191   4.442  0.3460  0.3172  1.1092
  480MOL0     O63231   3.500   3.181   4.575 -0.1774  0.6611  0.0476
  480MOL0     C63232   3.381   3.243   4.629  0.6429  0.8295  0.6800
  480MOL0     C63233   3.302   3.168   4.713 -0.7508  1.3875  0.4337
  480MOL0     C63234   3.184   3.225   4.763  0.0943 -0.8232 -1.2664
  480MOL0     C63235   3.148   3.355   4.735 -0.0551  0.8427 -0.0345
  480MOL0     O63236   3.030   3.388   4.792  0.6001  0.3755  0.3768
  480MOL0     C63237   2.952   3.458   4.693 -0.3900 -0.8166 -0.2517
  480MOL0     C63238   2.800   3.485   4.728 -0.0425 -0.0063 -0.2745
  480MOL0     C63239   2.717   3.376   4.669  0.7626 -0.0246  0.2736
  480MOL0     C63240   2.572   3.396   4.717 -0.8435 -1.4053  0.0663
  480MOL0     C63241   2.481   3.300   4.659  0.3969  0.7651 -0.0040
  480MOL0     C63242   2.369   3.247   4.744  0.9769  0.4620 -0.4913
  480MOL0     C63243   2.246   3.345   4.751 -0.5167  0.5174 -0.2187
  480MOL0     C63244   2.119   3.271   4.731  0.0291 -0.1218 -0.5195
  480MOL0     N63245   2.005   3.367   4.711  0.2667 -0.2472  1.0741
  480MOL0     C63246   1.997   3.502   4.686 -0.4089 -0.3337 -0.1202
  480MOL0     C63247   1.876   3.530   4.640  0.1304  0.4981  1.3916
  480MOL0     C63248   1.834   3.665   4.573 -0.4549 -0.6677  0.7293
  480MOL0     C63249   1.869   3.667   4.416 -0.8302 -0.4084  0.0510
  480MOL0     C63250   1.834   3.540   4.337 -0.9468 -0.5064 -0.6553
  480MOL0     C63251   1.692   3.495   4.343 -0.1618 -0.1830 -0.2347
  480MOL0     O63252   1.611   3.616   4.330  0.5880  0.1949 -0.4173
  480MOL0     C63253   1.476   3.588   4.315 -0.4493 -0.9355 -0.4803
  480MOL0     C63254   1.422   3.461   4.292  0.0780  0.0823 -0.7526
  480MOL0     C63255   1.286   3.452   4.260  0.1812 -0.3960 -0.0899
  480MOL0     C63256   1.197   3.566   4.262 -0.8115  0.2149 -0.4046
  480MOL0     C63257   1.052   3.548   4.224  0.4657 -0.1762  0.1661
  480MOL0     O63258   0.962   3.658   4.232 -0.1199  0.4078 -0.1776
  480MOL0     C63259   0.827   3.645   4.207  0.3783 -0.8720  0.1377
  480MOL0     C63260   0.768   3.569   4.104  0.7836 -0.0804  0.5643
  480MOL0     C63261   0.625   3.562   4.094  0.6123 -0.1791  0.0311
  480MOL0     C63262   0.548   3.638   4.186 -0.3629 -0.4136 -0.1322
  480MOL0     O63263   0.413   3.619   4.191 -0.7168  0.0612  1.1660
  480MOL0     C63264   0.351   3.546   4.077  0.3218 -0.1606  0.5543
  480MOL0     C63265   0.207   3.531   4.109 -0.5769 -0.0368 -0.1834
  480MOL0     C63266   0.125   3.667   4.125 -1.0918  0.3806  0.2472
  480MOL0     C63267  -0.014   3.651   4.066 -0.0909  0.0331  0.2324
  480MOL0     C63268  -0.072   3.792   4.038 -0.2647  0.6303 -0.1688
  480MOL0     C63269  -0.216   3.783   4.000  0.0526  1.1388  0.0085
  480MOL0     C63270  -0.264   3.687   3.888  0.4007 -0.1728  0.3939
  480MOL0     C63271  -0.409   3.691   3.862  1.2296 -0.1270 -0.7395
  480MOL0    Cl63272  -0.501   3.565   3.963  0.1020 -0.1081  0.1455
  480MOL0     C63273   0.605   3.707   4.290 -0.1730  0.0510 -0.1196
  480MOL0     C63274   0.746   3.715   4.293  0.6711  0.0888  0.1451
  480MOL0     O63275   1.017   3.436   4.181 -0.2218  0.5369  0.3918
  480MOL0     C63276   1.253   3.685   4.298  0.0740 -0.1053 -0.5942
  480MOL0     C63277   1.393   3.691   4.311  0.6608 -0.6129  0.3217
  480MOL0     N63278   1.810   3.412   4.632 -0.0451 -0.4838  0.0025
  480MOL0     N63279   1.881   3.322   4.679  0.2137 -0.5458 -0.2606
  480MOL0     C63280   3.227   3.428   4.650 -0.2887  0.2466  0.5448
  480MOL0     C63281   3.344   3.369   4.598  0.0876 -0.1673 -0.4102
  480MOL0     C63282   3.662   3.143   4.395  1.3189 -0.3902  0.0842
  480MOL0     C63283   3.759   3.131   4.493 -0.3986 -0.5545  0.1155
  480MOL0     C63284   3.890   3.090   4.464 -0.0441  1.0007 -0.5272
  480MOL0     C63285   3.928   3.067   4.336 -0.2250  0.0440  1.3440
  480MOL0     O63286   4.059   3.038   4.291  0.3291 -0.2599 -0.1644
  480MOL0     C63287   4.164   3.036   4.392  0.0291  0.1160  0.3181
  480MOL0     C63288   4.294   3.000   4.314  0.3872 -0.2172  0.3907
  480MOL0     C63289   4.409   2.998   4.415 -0.3773  0.4258  0.5906
  480MOL0     C63290   4.539   2.977   4.341  0.2176  0.5448 -1.1291
  480MOL0     C63291   4.584   3.089   4.266 -0.2201 -0.6605 -0.2254
  480MOL0     C63292   4.594   3.191   4.205 -0.4974  0.1462  0.1886
  480MOL0     C63293   3.834   3.078   4.230  0.7659  0.6816 -0.1881
  480MOL0     C63294   3.698   3.122   4.257 -0.1278  0.1754 -0.7202
  480MOL0     H63295   3.322   3.063   4.728 -3.6914  0.7968  0.9389
  480MOL0     H63296   3.116   3.161   4.819  0.1894  2.4810  3.1972
  480MOL0     H63297   2.949   3.401   4.599 -3.8396  1.5622 -1.8157
  480MOL0     H63298   2.991   3.560   4.682  1.9494 -1.4932  1.1434
  480MOL0     H63299   2.765   3.577   4.679 -0.8624  0.1551  0.5760
  480MOL0     H63300   2.792   3.485   4.837  0.3960 -0.6700 -0.2386
  480MOL0     H63301   2.761   3.280   4.698 -0.2052 -0.8614 -0.9108
  480MOL0     H63302   2.723   3.368   4.560  0.6257 -6.6085  0.3729
  480MOL0     H63303   2.588   3.389   4.825  2.3471 -1.2414 -0.3087
  480MOL0     H63304   2.533   3.494   4.690  0.0282 -1.3027 -0.8586
  480MOL0     H63305   2.536   3.210   4.630  1.1218  0.8495  1.0215
  480MOL0     H63306   2.435   3.337   4.567 -0.2601 -1.6613 -0.7155
  480MOL0     H63307   2.404   3.211   4.842  1.3167  0.7236 -0.5143
  480MOL0     H63308   2.347   3.150   4.699 -0.4189  0.1380  0.7741
  480MOL0     H63309   2.235   3.386   4.852  1.1014  0.6247 -0.0708
  480MOL0     H63310   2.257   3.423   4.674  1.0163 -0.5103 -1.0810
  480MOL0     H63311   2.098   3.205   4.816  1.1377 -1.1370 -0.9964
  480MOL0     H63312   2.126   3.207   4.642  0.9468  2.0488 -2.1026
  480MOL0     H63313   2.074   3.578   4.682  1.4975 -2.1708  0.5192
  480MOL0     H63314   1.891   3.739   4.629  0.2128 -0.4229 -0.2585
  480MOL0     H63315   1.730   3.689   4.597  0.4407  1.2934  3.0640
  480MOL0     H63316   1.975   3.692   4.409 -0.9303  0.4795  1.2930
  480MOL0     H63317   1.806   3.743   4.370  0.7335 -0.3863 -2.2287
  480MOL0     H63318   1.876   3.552   4.237  0.2074  0.7291 -0.0553
  480MOL0     H63319   1.898   3.458   4.370 -1.2185 -0.6177 -0.3977
  480MOL0     H63320   1.655   3.445   4.433  1.4290 -2.4665 -0.7678
  480MOL0     H63321   1.693   3.427   4.257 -1.5112  1.2354 -1.4436
  480MOL0     H63322   1.480   3.370   4.305  0.1563  0.2094 -0.2187
  480MOL0     H63323   1.259   3.348   4.247 -2.0016  0.1702 -0.5926
  480MOL0     H63324   0.832   3.517   4.033  1.2676  1.2894 -0.0353
  480MOL0     H63325   0.587   3.496   4.017  0.6905  0.9648 -1.0393
  480MOL0     H63326   0.392   3.445   4.081 -0.9816 -0.6927  0.9555
  480MOL0     H63327   0.361   3.588   3.976 -2.0772 -0.9795 -0.1003
  480MOL0     H63328   0.198   3.473   4.202  2.7444  3.2229  2.4369
  480MOL0     H63329   0.170   3.472   4.024  4.2912 -2.1164 -1.2381
  480MOL0     H63330   0.183   3.732   4.059  2.0443 -1.9589  0.4082
  480MOL0     H63331   0.128   3.711   4.225  0.4522  2.6193 -0.7101
  480MOL0     H63332   0.000   3.600   3.970 -0.7903  0.7458 -0.2605
  480MOL0     H63333  -0.085   3.597   4.130 -0.1898  0.8531  0.8264
  480MOL0     H63334  -0.027   3.834   3.948 -2.1037 -0.0457 -1.4766
  480MOL0     H63335  -0.062   3.858   4.125  0.0150  1.2262 -0.6491
  480MOL0     H63336  -0.244   3.884   3.972 -0.4906  0.4742 -2.0024
  480MOL0     H63337  -0.274   3.752   4.087 -2.3291  2.9956 -0.8134
  480MOL0     H63338  -0.223   3.726   3.794  1.8524  3.8399  2.4088
  480MOL0     H63339  -0.232   3.584   3.903 -0.3572 -0.5190 -0.3287
  480MOL0     H63340  -0.426   3.674   3.755  0.6467  3.0686 -1.2551
  480MOL0     H63341  -0.451   3.784   3.901  2.4539 -1.1268  3.4927
  480MOL0     H63342   0.547   3.746   4.373 -1.5844 -0.9554 -0.5883
  480MOL0     H63343   0.788   3.773   4.374  0.4777  0.1506  0.2012
  480MOL0     H63344   1.192   3.774   4.297 -2.6771 -1.8503  0.6966
  480MOL0     H63345   1.423   3.795   4.320  0.4666 -0.4113 -1.1462
  480MOL0     H63346   3.208   3.528   4.614 -1.5337 -0.7263 -1.7357
  480MOL0     H63347   3.414   3.432   4.545 -0.1964  2.0999  1.7110
  480MOL0     H63348   3.735   3.166   4.592 -0.5902 -1.0613  0.2543
  480MOL0     H63349   3.963   3.100   4.544  0.6844  0.2217 -1.0691
  480MOL0     H63350   4.151   2.955   4.464  0.7306 -0.4224 -0.1507
  480MOL0     H63351   4.183   3.135   4.435  1.8289 -0.0902  0.0943
  480MOL0     H63352   4.285   2.898   4.276 -1.4590  0.3475 -0.8241
  480MOL0     H63353   4.303   3.071   4.231  1.0049  5.0266  4.3870
  480MOL0     H63354   4.389   2.920   4.488 -0.5095 -0.3196 -0.2201
  480MOL0     H63355   4.413   3.091   4.473 -0.7998  1.9708 -1.7128
  480MOL0     H63356   4.623   2.942   4.402 -0.0605  1.0809 -0.4203
  480MOL0     H63357   4.519   2.897   4.270  0.6179 -1.3742  0.7807
  480MOL0     H63358   4.612   3.281   4.150 -0.2122  0.1881  0.3456
  480MOL0     H63359   3.865   3.051   4.129  1.0014  2.0302 -0.4949
  480MOL0     H63360   3.617   3.128   4.185 -4.4739 -3.6818  3.2002
  481MOL0     O63361   4.394   5.226   5.693  0.2441 -0.0242 -0.5444
  481MOL0     C63362   4.385   5.204   5.815  0.2126 -0.9403  1.0522
  481MOL0     O63363   4.270   5.196   5.888 -0.0842  0.4438 -0.0293
  481MOL0     C63364   4.155   5.182   5.814  0.9992 -0.6240  0.2604
  481MOL0     C63365   4.083   5.060   5.821  0.6877  0.3845 -0.1672
  481MOL0     C63366   3.963   5.052   5.753  0.6344 -0.0180  0.4085
  481MOL0     C63367   3.912   5.159   5.685 -0.8364 -0.3256  0.8294
  481MOL0     O63368   3.792   5.153   5.617 -0.3191  0.1107 -0.0107
  481MOL0     C63369   3.681   5.194   5.688 -0.1811 -0.4917  0.8531
  481MOL0     C63370   3.565   5.191   5.595  0.4886 -0.6794 -1.0991
  481MOL0     C63371   3.535   5.050   5.531 -0.3408  0.1534 -0.0831
  481MOL0     C63372   3.399   5.036   5.472 -0.3426 -0.4012 -0.2993
  481MOL0     C63373   3.399   4.934   5.355 -0.1442  0.4649  0.7320
  481MOL0     C63374   3.411   4.790   5.409  0.3703 -0.3141 -0.0564
  481MOL0     C63375   3.374   4.687   5.308  0.5817  0.9921  0.9494
  481MOL0     C63376   3.374   4.551   5.372 -1.0757 -0.4793 -0.3733
  481MOL0     N63377   3.510   4.503   5.415 -0.7498  0.1980 -0.4779
  481MOL0     C63378   3.582   4.399   5.358  0.3983 -0.4332 -0.0783
  481MOL0     C63379   3.683   4.376   5.439  0.1502 -0.6240  0.2571
  481MOL0     C63380   3.787   4.265   5.448 -0.9365 -0.7345 -0.7669
  481MOL0     C63381   3.927   4.309   5.410 -0.4891 -0.5855  0.8785
  481MOL0     C63382   3.995   4.420   5.489 -0.4329 -0.2268  0.8508
  481MOL0     C63383   4.130   4.460   5.428 -1.0814  0.1555  0.9939
  481MOL0     O63384   4.214   4.345   5.414  0.0842  0.1467  0.6273
  481MOL0     C63385   4.353   4.372   5.412  0.6098 -0.7027  0.6395
  481MOL0     C63386   4.423   4.496   5.411  0.2125  0.1122  0.2816
  481MOL0     C63387   4.561   4.500   5.386  0.2542  0.7173  0.2543
  481MOL0     C63388   4.639   4.384   5.359 -0.0261 -0.1374  0.5443
  481MOL0     C63389   4.781   4.390   5.332 -0.2270 -0.9295 -0.1201
  481MOL0     O63390   4.840   4.514   5.360 -0.1569  0.1364 -0.6123
  481MOL0     C63391   4.978   4.513   5.325 -0.1798  0.6542  0.4379
  481MOL0     C63392   5.021   4.611   5.232 -0.3685  0.4613  0.5482
  481MOL0     C63393   5.153   4.608   5.199  0.9748 -0.7643  0.2620
  481MOL0     C63394   5.251   4.526   5.267  0.4974  0.6070  0.3514
  481MOL0     O63395   5.382   4.529   5.231 -0.5734  0.4261  0.6519
  481MOL0     C63396   5.429   4.422   5.152 -0.0657 -0.1180 -0.0620
  481MOL0     C63397   5.572   4.440   5.104  0.4943  0.9637  0.1620
  481MOL0     C63398   5.616   4.304   5.041  0.2110 -0.5819 -0.6244
  481MOL0     C63399   5.772   4.325   5.007  0.8341 -0.4298 -0.3267
  481MOL0     C63400   5.839   4.191   4.986 -0.3543  0.2267 -0.3418
  481MOL0     C63401   5.988   4.206   5.016 -0.4432 -0.1835 -0.8209
  481MOL0     C63402   6.059   4.069   5.023 -0.6404 -0.2916 -0.1043
  481MOL0     C63403   6.207   4.092   5.041  0.5932 -1.0070  0.4887
  481MOL0    Cl63404   6.297   3.940   5.014  0.3117  0.3600  0.2481
  481MOL0     C63405   5.209   4.443   5.369  0.4399 -0.5942 -0.4653
  481MOL0     C63406   5.068   4.438   5.399  0.0603  0.6940  0.6280
  481MOL0     O63407   4.841   4.283   5.288 -0.4653 -0.9798 -0.0767
  481MOL0     C63408   4.564   4.263   5.359  0.1566  0.7830 -0.2973
  481MOL0     C63409   4.430   4.264   5.381 -0.3783  0.3713 -0.2131
  481MOL0     N63410   3.676   4.467   5.547  0.6384 -0.0022 -0.1341
  481MOL0     N63411   3.567   4.544   5.538 -0.9631 -0.2368 -0.3866
  481MOL0     C63412   3.980   5.276   5.686  0.2459 -0.8292 -0.8182
  481MOL0     C63413   4.103   5.287   5.745  0.3350  0.3469  0.0874
  481MOL0     C63414   4.517   5.205   5.881  0.4300  0.5036  0.1721
  481MOL0     C63415   4.636   5.223   5.817 -0.2805  0.4184  0.8316
  481MOL0     C63416   4.754   5.244   5.878  0.2825 -0.6683  0.3056
  481MOL0     C63417   4.765   5.217   6.014  1.0083 -0.6322 -0.2057
  481MOL0     O63418   4.879   5.236   6.084 -0.3447  0.9397  0.5299
  481MOL0     C63419   5.006   5.175   6.028 -0.2153  0.4252 -0.3804
  481MOL0     C63420   5.104   5.128   6.135 -0.1723  0.6049 -0.1545
  481MOL0     C63421   5.244   5.099   6.100  0.9467 -0.0560 -0.2913
  481MOL0     C63422   5.260   4.998   5.983  0.2318 -0.2176  0.1666
  481MOL0     C63423   5.392   4.945   5.969 -0.0327  0.5759 -0.6246
  481MOL0     C63424   5.507   4.904   5.962  0.7044 -0.8109 -0.0864
  481MOL0     C63425   4.643   5.201   6.086  0.0523  0.0885 -0.0270
  481MOL0     C63426   4.522   5.201   6.018 -0.5225 -0.3309  0.1702
  481MOL0     H63427   4.122   4.990   5.895  0.2946  1.9148  1.5480
  481MOL0     H63428   3.903   4.961   5.744 -0.4758  0.9534 -5.0593
  481MOL0     H63429   3.701   5.289   5.739 -3.3699  0.0268  1.3603
  481MOL0     H63430   3.648   5.127   5.768 -0.1494 -0.7374  0.6614
  481MOL0     H63431   3.576   5.268   5.517  0.6550 -0.8073 -1.2024
  481MOL0     H63432   3.493   5.219   5.672  1.9803 -1.4414  0.6569
  481MOL0     H63433   3.550   4.976   5.610 -0.3243  1.4579  1.1796
  481MOL0     H63434   3.610   5.023   5.455  1.6050 -0.5739  1.9895
  481MOL0     H63435   3.330   5.016   5.554  0.0414  1.2483  0.4743
  481MOL0     H63436   3.375   5.133   5.428 -2.7548 -0.3595  0.9648
  481MOL0     H63437   3.489   4.965   5.301 -0.4540  1.9052  1.0236
  481MOL0     H63438   3.314   4.941   5.286  1.4470  0.0517 -1.3826
  481MOL0     H63439   3.343   4.783   5.494  1.1852 -1.9430  0.4989
  481MOL0     H63440   3.513   4.775   5.445  1.0958  1.6710 -1.1380
  481MOL0     H63441   3.277   4.704   5.261  0.8690 -2.4445 -1.3188
  481MOL0     H63442   3.449   4.675   5.229 -0.1392  0.9298  0.2677
  481MOL0     H63443   3.341   4.473   5.303 -0.4771  0.7554 -2.1405
  481MOL0     H63444   3.298   4.568   5.449 -0.0760  3.7812 -0.0810
  481MOL0     H63445   3.558   4.343   5.268  2.4239 -0.2228 -0.7890
  481MOL0     H63446   3.749   4.191   5.377  2.1684 -3.9451  0.6383
  481MOL0     H63447   3.795   4.218   5.547  1.4482 -0.4563 -0.7724
  481MOL0     H63448   3.922   4.330   5.303  0.8919 -5.9412 -0.5480
  481MOL0     H63449   3.994   4.222   5.415  0.6553  0.0426 -1.9031
  481MOL0     H63450   3.925   4.503   5.505  0.2399  0.3609  0.7862
  481MOL0     H63451   4.013   4.388   5.592 -0.6512 -0.0138  0.9572
  481MOL0     H63452   4.189   4.534   5.483 -1.4314  2.3364 -1.3922
  481MOL0     H63453   4.119   4.502   5.328  2.3407  0.5090  0.6484
  481MOL0     H63454   4.368   4.589   5.413 -1.8815 -1.0483  0.1577
  481MOL0     H63455   4.608   4.597   5.390  2.1446 -0.0163 -1.7580
  481MOL0     H63456   4.942   4.678   5.198  1.2696  1.7822 -0.8920
  481MOL0     H63457   5.187   4.676   5.122 -1.8053  0.3084 -0.1331
  481MOL0     H63458   5.363   4.411   5.065 -0.7241 -1.0644  0.5357
  481MOL0     H63459   5.423   4.329   5.208  1.2184 -0.3884 -0.3437
  481MOL0     H63460   5.635   4.455   5.193 -0.4281 -3.1664  1.7244
  481MOL0     H63461   5.578   4.519   5.028  1.8549 -0.4378 -1.2697
  481MOL0     H63462   5.556   4.291   4.950 -2.9843  1.7383  0.9469
  481MOL0     H63463   5.604   4.218   5.107 -0.0249 -0.3646 -0.3790
  481MOL0     H63464   5.794   4.384   4.918  1.0248  0.4290  0.2690
  481MOL0     H63465   5.809   4.382   5.094 -2.7131  1.0148  0.4010
  481MOL0     H63466   5.825   4.150   4.885 -1.0088 -0.6970  0.1120
  481MOL0     H63467   5.796   4.109   5.044 -0.4023  0.6907  0.2779
  481MOL0     H63468   5.989   4.256   5.113  1.3031  4.0478 -2.7684
  481MOL0     H63469   6.033   4.275   4.944 -0.8690  1.1510  0.1607
  481MOL0     H63470   6.032   4.010   5.111  3.0929 -0.5389  1.0283
  481MOL0     H63471   6.033   4.015   4.931  0.8628  0.4995 -1.0401
  481MOL0     H63472   6.220   4.133   5.142 -0.4676 -0.2425  0.3214
  481MOL0     H63473   6.246   4.169   4.975 -0.5597  1.1733  2.2331
  481MOL0     H63474   5.278   4.387   5.431 -1.7875 -0.2722  2.5281
  481MOL0     H63475   5.038   4.372   5.480 -1.7940  2.0821  1.1373
  481MOL0     H63476   4.603   4.162   5.349  2.8414  1.6591  0.5278
  481MOL0     H63477   4.380   4.168   5.375  0.4994 -0.2741  1.9006
  481MOL0     H63478   3.948   5.365   5.634  4.2851  1.0838 -0.4093
  481MOL0     H63479   4.152   5.384   5.742 -2.5221  1.9014 -0.2088
  481MOL0     H63480   4.637   5.209   5.710 -0.4012 -2.5307  1.1231
  481MOL0     H63481   4.843   5.276   5.825  0.4781  1.2067  1.6678
  481MOL0     H63482   5.043   5.260   5.969 -2.8675  2.6298  0.9498
  481MOL0     H63483   4.981   5.090   5.964  0.6893 -0.2155  0.1040
  481MOL0     H63484   5.106   5.207   6.211  0.5818  0.5978 -0.1625
  481MOL0     H63485   5.067   5.035   6.180  2.1646 -0.5113 -0.4206
  481MOL0     H63486   5.302   5.056   6.183  2.7092 -0.3207 -1.5963
  481MOL0     H63487   5.294   5.188   6.062  0.0984  0.8028  0.5771
  481MOL0     H63488   5.179   4.925   5.995 -0.6043  0.8646  1.3957
  481MOL0     H63489   5.235   5.053   5.891  0.7541 -0.2417  0.0095
  481MOL0     H63490   5.604   4.866   5.938  1.4261  0.2115  1.0996
  481MOL0     H63491   4.657   5.184   6.192 -0.0119  2.1828  0.3537
  481MOL0     H63492   4.431   5.193   6.075 -0.5343  0.5496  0.2972
  482MOL0     O63493   0.905   9.328  10.748 -0.5583  0.1097 -0.1831
  482MOL0     C63494   0.894   9.203  10.753  0.2386 -0.1137  0.1977
  482MOL0     O63495   0.828   9.122  10.668 -0.2162  0.7186 -0.2459
  482MOL0     C63496   0.767   9.178  10.554  0.5548  0.6567  0.2480
  482MOL0     C63497   0.763   9.104  10.430 -0.7809  0.5745  0.0971
  482MOL0     C63498   0.693   9.162  10.325  0.4555  0.3781  1.0117
  482MOL0     C63499   0.623   9.280  10.336 -0.3971 -0.3612 -0.4860
  482MOL0     O63500   0.548   9.350  10.241 -0.5790 -0.0800  0.2900
  482MOL0     C63501   0.569   9.313  10.103 -0.4837 -0.2307  0.5964
  482MOL0     C63502   0.490   9.408  10.002  0.6854  0.7380  0.2815
  482MOL0     C63503   0.348   9.368  10.000  0.1452  0.0926  0.2311
  482MOL0     C63504   0.273   9.447   9.891 -0.3616 -1.0690  0.4360
  482MOL0     C63505   0.133   9.409   9.908  0.1077  0.2858 -0.6529
  482MOL0     C63506   0.049   9.494   9.816 -0.3025  0.3915  0.0594
  482MOL0     C63507  -0.080   9.424   9.767  0.0993 -0.4869 -0.1507
  482MOL0     C63508  -0.199   9.412   9.868 -0.7288 -0.4756 -0.1637
  482MOL0     N63509  -0.307   9.333   9.821  0.5332 -1.6933  0.5897
  482MOL0     C63510  -0.377   9.361   9.706  0.0851  0.0134 -1.5121
  482MOL0     C63511  -0.480   9.271   9.710 -0.4019 -0.4823 -0.3380
  482MOL0     C63512  -0.584   9.270   9.609  0.6458  0.7477  0.3659
  482MOL0     C63513  -0.524   9.247   9.464  0.5272 -0.1759  0.1326
  482MOL0     C63514  -0.617   9.210   9.357  0.7904 -0.6233 -0.4654
  482MOL0     C63515  -0.575   9.100   9.266  0.3655 -0.0668 -0.6473
  482MOL0     O63516  -0.684   9.056   9.170 -0.9498  0.3871 -0.0868
  482MOL0     C63517  -0.798   9.000   9.219  0.5523  0.3401 -0.3176
  482MOL0     C63518  -0.798   8.883   9.299 -1.1500 -0.7754 -0.4691
  482MOL0     C63519  -0.921   8.828   9.340 -0.5122 -0.5707 -0.0101
  482MOL0     C63520  -1.045   8.884   9.299  0.2549  0.3461 -0.8640
  482MOL0     C63521  -1.162   8.823   9.370  0.7347  0.1357  0.5081
  482MOL0     O63522  -1.280   8.869   9.317 -0.0593 -0.2903  0.4109
  482MOL0     C63523  -1.389   8.782   9.338 -0.2529 -0.8977 -0.6431
  482MOL0     C63524  -1.445   8.761   9.466  0.1220  0.7599 -0.1644
  482MOL0     C63525  -1.549   8.671   9.472  0.1289  0.0076 -0.3436
  482MOL0     C63526  -1.601   8.604   9.360  0.1308  0.4274  0.3885
  482MOL0     O63527  -1.697   8.513   9.398 -0.4858  0.3659  0.7102
  482MOL0     C63528  -1.775   8.451   9.293 -0.5951  0.1872  0.3865
  482MOL0     C63529  -1.859   8.345   9.366  0.9949 -0.2988 -0.1515
  482MOL0     C63530  -1.937   8.414   9.489  0.2367 -0.0695 -0.0289
  482MOL0     C63531  -2.003   8.554   9.450  0.3299  0.0416 -0.4898
  482MOL0     C63532  -2.079   8.619   9.560  0.0165  0.2365 -0.1639
  482MOL0     C63533  -2.181   8.527   9.623  0.1931  0.3032 -0.3798
  482MOL0     C63534  -2.278   8.595   9.721 -0.7162  0.1383  1.2945
  482MOL0     C63535  -2.409   8.526   9.728  0.2689  0.3746  0.6029
  482MOL0    Cl63536  -2.523   8.642   9.805 -0.1909  0.7128 -0.1079
  482MOL0     C63537  -1.531   8.614   9.234 -0.2835 -0.6795 -0.5159
  482MOL0     C63538  -1.422   8.702   9.229 -0.0546  0.3041 -0.1496
  482MOL0     O63539  -1.157   8.731   9.451 -0.7959 -0.2525  0.2183
  482MOL0     C63540  -1.039   9.010   9.235  0.4422  1.2944 -0.1992
  482MOL0     C63541  -0.917   9.061   9.195 -0.1992 -0.4347 -0.0386
  482MOL0     N63542  -0.468   9.195   9.823 -0.2712 -0.0015  0.4658
  482MOL0     N63543  -0.362   9.235   9.886  0.3724  0.5440 -0.3250
  482MOL0     C63544   0.613   9.344  10.458 -0.5292  0.9892 -0.4354
  482MOL0     C63545   0.691   9.292  10.568 -0.2080  0.5427  0.4644
  482MOL0     C63546   0.989   9.152  10.846  0.2541  0.8763 -0.3368
  482MOL0     C63547   0.997   9.011  10.860 -1.2643 -0.4263  0.0926
  482MOL0     C63548   1.084   8.956  10.957  0.9705 -0.1644  1.0265
  482MOL0     C63549   1.165   9.033  11.039  0.0945 -0.1854  0.0665
  482MOL0     O63550   1.242   8.966  11.129 -0.5886  0.2974 -0.0848
  482MOL0     C63551   1.349   9.029  11.194  0.1448 -1.1620  0.0791
  482MOL0     C63552   1.304   9.085  11.330  1.4905 -0.0186  0.1540
  482MOL0     C63553   1.235   8.990  11.434 -0.1245 -0.0884  0.3954
  482MOL0     C63554   1.339   8.884  11.465 -0.3790  0.6041  0.2125
  482MOL0     C63555   1.278   8.792  11.563 -0.8018 -0.4388 -0.5241
  482MOL0     C63556   1.225   8.712  11.639 -0.4017 -0.1440 -0.1323
  482MOL0     C63557   1.155   9.169  11.030 -0.4143 -0.2006  0.5255
  482MOL0     C63558   1.065   9.236  10.936  0.1948  0.6977 -0.8224
  482MOL0     H63559   0.821   9.013  10.413 -2.6070 -0.2556 -2.2092
  482MOL0     H63560   0.705   9.121  10.225 -2.9087  0.6132  0.3862
  482MOL0     H63561   0.551   9.207  10.084 -0.2629 -0.2943  0.7304
  482MOL0     H63562   0.678   9.317  10.095 -0.4744 -0.5345  0.5623
  482MOL0     H63563   0.525   9.392   9.899 -4.2395  0.5363 -1.5954
  482MOL0     H63564   0.490   9.515  10.023 -0.4621  0.5436  1.3934
  482MOL0     H63565   0.322   9.388  10.105  1.7840  0.3532  0.6134
  482MOL0     H63566   0.332   9.260   9.987 -3.1528  0.1114  2.7397
  482MOL0     H63567   0.286   9.555   9.894  2.0783 -1.1899 -1.8556
  482MOL0     H63568   0.323   9.422   9.798  1.2014 -2.1846  1.5165
  482MOL0     H63569   0.107   9.418  10.014 -1.4999 -0.4435 -0.9569
  482MOL0     H63570   0.127   9.304   9.878 -2.3485  0.1868 -0.0115
  482MOL0     H63571   0.111   9.524   9.731 -0.3672  2.2965  0.6318
  482MOL0     H63572   0.025   9.594   9.854  4.0201  0.8782  2.0530
  482MOL0     H63573  -0.111   9.474   9.674  2.7367 -0.7184 -1.2362
  482MOL0     H63574  -0.054   9.320   9.747 -0.5367 -0.6969  0.0951
  482MOL0     H63575  -0.239   9.513   9.880 -0.1685 -0.1933 -0.6505
  482MOL0     H63576  -0.156   9.370   9.959 -0.0585 -3.2136 -1.6305
  482MOL0     H63577  -0.376   9.440   9.631 -0.9311  0.6970 -0.8422
  482MOL0     H63578  -0.647   9.359   9.620 -0.7943 -0.4306  2.4306
  482MOL0     H63579  -0.659   9.193   9.629  0.5696  0.3298 -1.3680
  482MOL0     H63580  -0.465   9.156   9.473 -0.2882 -0.5880  1.5970
  482MOL0     H63581  -0.467   9.336   9.437 -0.2620  0.1811 -0.4181
  482MOL0     H63582  -0.718   9.183   9.390 -0.1315 -0.5736 -2.9869
  482MOL0     H63583  -0.637   9.304   9.304  1.6620 -0.0113  0.2604
  482MOL0     H63584  -0.542   9.013   9.323 -2.2581  0.3119  1.6777
  482MOL0     H63585  -0.492   9.142   9.209 -0.4318  0.9215 -1.1247
  482MOL0     H63586  -0.707   8.831   9.330 -1.1876 -0.8227 -0.4369
  482MOL0     H63587  -0.917   8.733   9.393  0.5142 -1.0671 -0.9558
  482MOL0     H63588  -1.425   8.816   9.557 -0.8876 -1.2188  1.3159
  482MOL0     H63589  -1.604   8.666   9.565 -1.1649  1.2650 -0.9948
  482MOL0     H63590  -1.709   8.396   9.225 -0.4390  0.5398  0.2496
  482MOL0     H63591  -1.842   8.518   9.238 -0.6996  0.6554  1.0715
  482MOL0     H63592  -1.804   8.262   9.410  0.3580 -1.1157 -0.8646
  482MOL0     H63593  -1.930   8.305   9.294  1.3957  0.3354 -0.9272
  482MOL0     H63594  -1.877   8.414   9.580  1.2375 -1.8319 -0.6281
  482MOL0     H63595  -2.021   8.347   9.512 -1.7014  0.5418 -4.3644
  482MOL0     H63596  -1.935   8.628   9.406 -2.9771  1.5203 -3.6535
  482MOL0     H63597  -2.075   8.539   9.370  0.0177  0.8534 -0.3682
  482MOL0     H63598  -2.115   8.716   9.525  1.1905  0.5547 -0.5353
  482MOL0     H63599  -2.010   8.642   9.642 -2.0239  3.9092  0.7375
  482MOL0     H63600  -2.127   8.450   9.678  1.2058  0.8896 -0.5291
  482MOL0     H63601  -2.234   8.475   9.543  0.1131  0.1406 -0.2226
  482MOL0     H63602  -2.242   8.614   9.822  1.1633  1.0030  0.5226
  482MOL0     H63603  -2.286   8.698   9.682 -0.1364 -0.0368  0.6976
  482MOL0     H63604  -2.405   8.432   9.783  0.3227  0.6042  0.9917
  482MOL0     H63605  -2.450   8.501   9.629 -0.1388 -1.5027  1.2024
  482MOL0     H63606  -1.557   8.545   9.154  1.4356  0.3529 -2.0351
  482MOL0     H63607  -1.365   8.703   9.137 -0.4232 -1.2726 -0.4229
  482MOL0     H63608  -1.128   9.063   9.205  1.0165  2.0844 -0.5337
  482MOL0     H63609  -0.913   9.153   9.137  1.0746 -0.2915  0.2320
  482MOL0     H63610   0.547   9.430  10.461  0.1818  1.5981 -1.5764
  482MOL0     H63611   0.687   9.336  10.667 -0.1823  2.6432 -0.4077
  482MOL0     H63612   0.923   8.952  10.807 -1.5604  0.1981 -0.1997
  482MOL0     H63613   1.089   8.848  10.959 -2.0471 -0.3827  1.1106
  482MOL0     H63614   1.395   9.107  11.134 -0.4038 -1.0789 -0.2436
  482MOL0     H63615   1.425   8.956  11.225  2.5683  1.9482  2.0042
  482MOL0     H63616   1.382   9.140  11.384  0.4617  1.5051  0.1443
  482MOL0     H63617   1.233   9.164  11.304  0.8636 -0.7473 -0.4003
  482MOL0     H63618   1.144   8.944  11.394  0.4711 -0.4720 -0.5319
  482MOL0     H63619   1.214   9.039  11.530 -1.8953 -5.3902  3.1663
  482MOL0     H63620   1.359   8.827  11.374  1.8247  0.4917  0.7143
  482MOL0     H63621   1.433   8.929  11.497  1.3673 -1.0921 -2.1349
  482MOL0     H63622   1.177   8.638  11.699  0.8397 -0.4025  0.5673
  482MOL0     H63623   1.224   9.231  11.087  0.8277  0.8926 -2.0207
  482MOL0     H63624   1.062   9.343  10.922  3.9074  0.6707 -3.2097
  483MOL0     O63625   7.629   7.887   4.751  0.3283  0.0561  0.4947
  483MOL0     C63626   7.710   7.859   4.846 -0.6728  0.5398  1.4337
  483MOL0     O63627   7.719   7.737   4.908  0.7535  0.4231  0.1230
  483MOL0     C63628   7.608   7.655   4.891 -0.6099 -0.2651 -0.5981
  483MOL0     C63629   7.483   7.699   4.926  1.0958  0.3353  0.3857
  483MOL0     C63630   7.371   7.613   4.923  0.0837  0.2053 -0.4211
  483MOL0     C63631   7.386   7.481   4.885 -0.3282  0.3349  0.6769
  483MOL0     O63632   7.279   7.387   4.898 -0.8652  0.2805 -0.0417
  483MOL0     C63633   7.295   7.253   4.851 -0.1009  0.1236  0.6530
  483MOL0     C63634   7.157   7.183   4.847  0.1550 -0.2512 -0.1557
  483MOL0     C63635   7.068   7.208   4.726 -0.5314 -0.2962 -0.2804
  483MOL0     C63636   6.918   7.158   4.745 -0.5309 -0.3431  0.7412
  483MOL0     C63637   6.833   7.175   4.616 -0.7201 -0.4441 -0.2458
  483MOL0     C63638   6.817   7.325   4.583 -0.0590 -0.2581 -0.2043
  483MOL0     C63639   6.780   7.419   4.701  0.3778  0.5115  0.9804
  483MOL0     C63640   6.634   7.395   4.746  0.3925  0.3070 -0.6819
  483MOL0     N63641   6.552   7.425   4.637  0.0828  0.4475 -0.2430
  483MOL0     C63642   6.505   7.548   4.602 -0.3082  0.3075  0.1781
  483MOL0     C63643   6.422   7.516   4.499 -0.3276 -0.3922 -0.3084
  483MOL0     C63644   6.351   7.607   4.414  0.0984 -1.3489 -0.4048
  483MOL0     C63645   6.249   7.693   4.500 -0.9507 -0.4843  1.3043
  483MOL0     C63646   6.147   7.624   4.586  0.0255  0.2913  0.7327
  483MOL0     C63647   6.070   7.502   4.516 -0.0917  0.0245  0.4172
  483MOL0     O63648   5.997   7.546   4.397  0.1116  0.1908  0.0549
  483MOL0     C63649   5.859   7.544   4.400  0.1350  0.2728  0.5127
  483MOL0     C63650   5.794   7.518   4.286 -0.0232  0.3945  0.8005
  483MOL0     C63651   5.658   7.509   4.283  0.8040 -0.4510 -0.5402
  483MOL0     C63652   5.583   7.531   4.399 -0.4905  0.3223 -0.7220
  483MOL0     C63653   5.443   7.514   4.396  0.2702 -1.0223 -0.4188
  483MOL0     O63654   5.389   7.461   4.515  0.0232  0.1281  0.4707
  483MOL0     C63655   5.255   7.487   4.536 -0.0492 -0.7259 -0.7276
  483MOL0     C63656   5.156   7.418   4.470 -0.6942 -0.2180 -0.5234
  483MOL0     C63657   5.022   7.460   4.472  0.4147  0.9147 -0.2047
  483MOL0     C63658   4.984   7.569   4.551  0.2313  0.5485 -0.3250
  483MOL0     O63659   4.848   7.593   4.537 -0.4086  0.7622 -0.1511
  483MOL0     C63660   4.815   7.726   4.567 -0.7191  0.9170  0.2587
  483MOL0     C63661   4.680   7.763   4.510  0.3372 -0.3663  0.2299
  483MOL0     C63662   4.572   7.668   4.552 -0.0619  0.3338  0.3493
  483MOL0     C63663   4.434   7.704   4.494  0.4126  0.0220  0.2197
  483MOL0     C63664   4.329   7.591   4.491 -0.2032 -0.1314 -0.2017
  483MOL0     C63665   4.191   7.642   4.460  0.6663 -0.5130  0.3469
  483MOL0     C63666   4.183   7.667   4.303 -0.5295 -0.1921  0.4918
  483MOL0     C63667   4.031   7.679   4.266 -0.1345 -0.0514 -0.0042
  483MOL0    Cl63668   4.006   7.847   4.246 -0.5104 -0.4274  0.1028
  483MOL0     C63669   5.082   7.643   4.624  0.2377  0.4942  0.1591
  483MOL0     C63670   5.219   7.603   4.605 -0.3750 -0.5989  0.1133
  483MOL0     O63671   5.386   7.526   4.289 -0.1801 -0.8932 -0.2723
  483MOL0     C63672   5.651   7.564   4.515 -0.2452 -0.1367 -0.2999
  483MOL0     C63673   5.787   7.583   4.510 -0.3862 -0.1870  0.3269
  483MOL0     N63674   6.439   7.381   4.462 -0.2168  0.5431  0.2749
  483MOL0     N63675   6.507   7.325   4.552 -0.7975 -0.0500 -0.2616
  483MOL0     C63676   7.520   7.440   4.851 -0.5759 -0.0345  0.9071
  483MOL0     C63677   7.631   7.524   4.850 -0.6232  0.2027 -0.9589
  483MOL0     C63678   7.811   7.961   4.884 -0.0545  0.3658 -0.0482
  483MOL0     C63679   7.878   7.946   5.007  0.7188 -0.5257  0.6497
  483MOL0     C63680   7.970   8.045   5.051  1.2791  0.5401 -0.8685
  483MOL0     C63681   8.015   8.145   4.964 -0.1764 -0.2092  1.4121
  483MOL0     O63682   8.108   8.236   4.999 -0.1610  0.3031  0.5437
  483MOL0     C63683   8.118   8.359   4.932  0.1836  0.2229  0.1282
  483MOL0     C63684   8.220   8.432   5.022 -0.7862  0.5604 -0.1880
  483MOL0     C63685   8.233   8.583   4.982  0.0801  0.5808 -0.2393
  483MOL0     C63686   8.342   8.607   4.867 -0.3435  0.0194 -0.7227
  483MOL0     C63687   8.317   8.718   4.781  0.1567  0.5398  1.0582
  483MOL0     C63688   8.291   8.810   4.709 -0.5927 -0.2232  0.4857
  483MOL0     C63689   7.964   8.145   4.832 -0.2776  0.0118  0.4665
  483MOL0     C63690   7.853   8.061   4.796  0.4363  0.7659  0.3490
  483MOL0     H63691   7.471   7.798   4.968  1.6391  1.6446 -2.3170
  483MOL0     H63692   7.272   7.642   4.955  0.4335  3.2293 -1.7097
  483MOL0     H63693   7.359   7.204   4.925 -1.5183 -0.0297  1.8074
  483MOL0     H63694   7.344   7.247   4.753 -2.3363 -1.2828 -0.4696
  483MOL0     H63695   7.104   7.224   4.934  1.7655  1.6466 -0.0093
  483MOL0     H63696   7.169   7.077   4.869  2.5932 -0.1696 -0.8260
  483MOL0     H63697   7.109   7.176   4.630 -0.9230 -1.0439 -0.2008
  483MOL0     H63698   7.055   7.316   4.714  0.9944 -0.0921 -0.3162
  483MOL0     H63699   6.911   7.054   4.779 -0.2134 -1.1575 -1.5197
  483MOL0     H63700   6.888   7.223   4.829  3.6670  3.2323 -0.1385
  483MOL0     H63701   6.731   7.141   4.635 -1.5347  2.5966  1.4292
  483MOL0     H63702   6.879   7.124   4.531 -0.5168  0.3480 -0.6168
  483MOL0     H63703   6.746   7.342   4.502  0.7809  1.1777 -0.6746
  483MOL0     H63704   6.913   7.367   4.550 -0.5848  0.3241 -1.0393
  483MOL0     H63705   6.859   7.419   4.777  4.3247  2.3947 -2.6779
  483MOL0     H63706   6.797   7.520   4.663 -2.2029  0.0064 -1.9417
  483MOL0     H63707   6.629   7.461   4.833  0.3834 -0.9401  0.2886
  483MOL0     H63708   6.618   7.289   4.768  0.6563 -0.1391 -2.4512
  483MOL0     H63709   6.520   7.641   4.656  1.4818 -0.2275  0.6857
  483MOL0     H63710   6.286   7.557   4.342 -0.3964  1.5240 -2.1346
  483MOL0     H63711   6.420   7.680   4.370 -0.5063  0.4840  1.5204
  483MOL0     H63712   6.203   7.762   4.430  1.2247 -0.5613 -0.3209
  483MOL0     H63713   6.293   7.760   4.575 -1.7000  4.0684 -1.9212
  483MOL0     H63714   6.182   7.576   4.678  0.2065  0.7358  0.8959
  483MOL0     H63715   6.073   7.701   4.609  0.5556  2.1071 -2.8540
  483MOL0     H63716   5.992   7.453   4.576 -1.2114  0.5245 -0.5824
  483MOL0     H63717   6.137   7.419   4.491  1.9741  0.4240  3.8890
  483MOL0     H63718   5.855   7.504   4.198 -1.5655  0.0765 -0.2658
  483MOL0     H63719   5.619   7.463   4.194  0.6813 -2.6672  0.5913
  483MOL0     H63720   5.186   7.334   4.409 -0.2151 -1.4034  1.2573
  483MOL0     H63721   4.937   7.405   4.432 -0.9148  0.8519  2.5123
  483MOL0     H63722   4.891   7.793   4.527  0.3451 -1.7125 -2.4860
  483MOL0     H63723   4.805   7.731   4.676  2.5359 -2.5719  0.9240
  483MOL0     H63724   4.677   7.768   4.400 -1.2556  0.8498  0.2787
  483MOL0     H63725   4.670   7.867   4.543  1.2497 -1.1862  3.4184
  483MOL0     H63726   4.565   7.664   4.661  0.9336  0.9070  0.4461
  483MOL0     H63727   4.596   7.573   4.503  0.5273  1.9370 -2.7385
  483MOL0     H63728   4.407   7.785   4.562  2.7919  0.1989  1.0306
  483MOL0     H63729   4.451   7.738   4.391 -0.3345 -1.6398 -0.4977
  483MOL0     H63730   4.324   7.537   4.586 -2.0526  2.6905  1.4438
  483MOL0     H63731   4.366   7.524   4.413  1.4387 -0.2178  0.6079
  483MOL0     H63732   4.166   7.737   4.509 -1.3836 -1.9935  2.3777
  483MOL0     H63733   4.116   7.563   4.470 -3.7030  3.3560  1.4217
  483MOL0     H63734   4.216   7.767   4.274 -0.3093 -0.3857  0.0573
  483MOL0     H63735   4.237   7.591   4.246 -2.3328 -1.6395  0.6224
  483MOL0     H63736   3.957   7.635   4.333 -2.9826  0.6322 -2.4842
  483MOL0     H63737   4.045   7.623   4.173  1.2965 -0.4287  0.4121
  483MOL0     H63738   5.057   7.740   4.665  0.7959  0.5271  0.4323
  483MOL0     H63739   5.305   7.653   4.648 -0.0591 -0.8249 -0.2555
  483MOL0     H63740   5.600   7.565   4.611 -1.7922 -0.6459 -1.0838
  483MOL0     H63741   5.829   7.623   4.602  0.1284  0.4852 -0.1862
  483MOL0     H63742   7.544   7.334   4.850  1.4062  0.3614  0.4905
  483MOL0     H63743   7.729   7.483   4.827 -0.1261  0.9629 -0.2765
  483MOL0     H63744   7.844   7.866   5.073 -1.9445  1.5367  1.9864
  483MOL0     H63745   8.008   8.055   5.152  3.4537  2.6557 -1.8127
  483MOL0     H63746   8.021   8.408   4.919 -0.9251 -1.9753 -0.2496
  483MOL0     H63747   8.163   8.338   4.835  1.6680 -0.5861  0.9592
  483MOL0     H63748   8.180   8.420   5.123 -1.7144 -3.3104 -0.8345
  483MOL0     H63749   8.318   8.384   5.027 -1.6064 -1.0801  3.6573
  483MOL0     H63750   8.258   8.619   5.082 -0.1665 -0.9405  0.3919
  483MOL0     H63751   8.135   8.624   4.959 -0.9254 -0.4238  1.9933
  483MOL0     H63752   8.446   8.610   4.899 -0.1758 -2.0948 -0.9173
  483MOL0     H63753   8.330   8.516   4.808  3.1260  0.1511 -1.8219
  483MOL0     H63754   8.277   8.898   4.648  0.7601  0.5770  1.2870
  483MOL0     H63755   8.008   8.214   4.760 -0.9160  1.3116  1.2898
  483MOL0     H63756   7.825   8.061   4.691  3.2964  1.5581 -0.5070
  484MOL0     O63757   8.014   7.812  10.257 -0.4730 -0.0577 -0.2517
  484MOL0     C63758   8.086   7.710  10.257  0.0712  0.4270 -0.2698
  484MOL0     O63759   8.097   7.626  10.356 -0.3437  0.3439 -0.0317
  484MOL0     C63760   8.050   7.654  10.482  1.2512  0.1153 -0.6221
  484MOL0     C63761   7.913   7.676  10.507  0.7825  0.9564 -0.3979
  484MOL0     C63762   7.869   7.698  10.643  0.2576  0.1199 -0.3190
  484MOL0     C63763   7.961   7.704  10.745  0.2126 -1.0482 -0.2001
  484MOL0     O63764   7.919   7.728  10.876 -0.5442  0.3573  0.7229
  484MOL0     C63765   7.948   7.619  10.968  0.0755  0.4146 -0.1557
  484MOL0     C63766   7.863   7.647  11.102  0.0842 -1.5583  0.5257
  484MOL0     C63767   7.879   7.535  11.201 -0.1862  0.0486  0.7097
  484MOL0     C63768   7.810   7.585  11.337 -0.0319  0.0645 -0.9042
  484MOL0     C63769   7.899   7.562  11.456 -0.3876 -0.6693 -0.3923
  484MOL0     C63770   7.889   7.668  11.572  0.1582  1.0364  0.6100
  484MOL0     C63771   7.967   7.644  11.699  0.4518 -0.1720 -0.8086
  484MOL0     C63772   8.016   7.781  11.757 -0.5848 -0.5592 -1.0906
  484MOL0     N63773   8.020   7.795  11.902  0.4823  0.5438 -0.0103
  484MOL0     C63774   7.905   7.820  11.980 -0.1557 -0.4472  0.6777
  484MOL0     C63775   7.944   7.783  12.100 -0.6623 -0.8440  0.5754
  484MOL0     C63776   7.867   7.809  12.231 -0.0445  0.8807  0.2935
  484MOL0     C63777   7.822   7.948  12.245 -0.3146 -1.4249  0.1097
  484MOL0     C63778   7.922   8.029  12.325  0.5211  0.0063 -0.1352
  484MOL0     C63779   7.964   7.951  12.453 -0.9190 -0.5776  0.3209
  484MOL0     O63780   8.017   8.031  12.553 -0.9596 -0.8105  0.0016
  484MOL0     C63781   8.139   8.095  12.519  0.7792 -0.1301 -0.4576
  484MOL0     C63782   8.183   8.198  12.603 -0.9734  0.1614 -0.1054
  484MOL0     C63783   8.309   8.266  12.593  0.2339  0.8125  0.6987
  484MOL0     C63784   8.398   8.223  12.499  0.1893 -0.4585  0.5172
  484MOL0     C63785   8.541   8.282  12.501  0.1447 -0.2096 -0.4281
  484MOL0     O63786   8.584   8.341  12.621  0.9366  0.3539 -0.6566
  484MOL0     C63787   8.714   8.378  12.619 -0.3963 -0.2704 -0.6421
  484MOL0     C63788   8.761   8.482  12.538 -0.2612  0.3489 -0.5281
  484MOL0     C63789   8.895   8.530  12.549 -0.2310 -0.7880  0.1540
  484MOL0     C63790   8.980   8.480  12.652  0.5446 -0.5613 -0.2815
  484MOL0     O63791   9.104   8.541  12.674 -0.4618 -0.0171 -0.2472
  484MOL0     C63792   9.144   8.545  12.811  0.3683 -0.4363 -0.1280
  484MOL0     C63793   9.256   8.660  12.830  0.0818 -0.1527  0.7784
  484MOL0     C63794   9.399   8.626  12.796  1.0740 -0.6341  0.4419
  484MOL0     C63795   9.474   8.755  12.737 -0.6860  0.5422  0.4719
  484MOL0     C63796   9.597   8.711  12.661 -0.1952  0.0928 -0.2447
  484MOL0     C63797   9.709   8.672  12.752  0.7349  0.0337  0.2526
  484MOL0     C63798   9.834   8.624  12.691  0.7082  0.0815 -0.5946
  484MOL0     C63799   9.927   8.578  12.799 -0.0965 -0.0761  0.0885
  484MOL0    Cl63800   9.991   8.717  12.877 -0.0680 -0.1139 -0.5682
  484MOL0     C63801   8.925   8.377  12.732 -0.1916  0.6683 -0.4599
  484MOL0     C63802   8.803   8.315  12.710  0.1682 -0.0821  0.2452
  484MOL0     O63803   8.610   8.252  12.409  0.0694  0.5402 -0.7137
  484MOL0     C63804   8.362   8.113  12.418  1.0982  0.4003  0.3832
  484MOL0     C63805   8.232   8.060  12.422 -0.6692 -0.1338  0.5992
  484MOL0     N63806   8.064   7.722  12.098 -0.1974 -0.5629 -0.2755
  484MOL0     N63807   8.106   7.721  11.972 -0.9354  0.0299 -0.5228
  484MOL0     C63808   8.101   7.682  10.715 -0.8988 -0.3302 -1.0842
  484MOL0     C63809   8.132   7.646  10.592 -1.1978  0.1730  0.8237
  484MOL0     C63810   8.152   7.687  10.128  0.8161  0.2557 -0.3214
  484MOL0     C63811   8.083   7.724  10.009 -0.9282 -0.1912  1.5287
  484MOL0     C63812   8.156   7.723   9.884  0.4895 -0.0548 -0.4799
  484MOL0     C63813   8.294   7.690   9.887 -0.9579 -0.2727 -0.0457
  484MOL0     O63814   8.370   7.712   9.769  0.3947  0.4959 -0.3345
  484MOL0     C63815   8.512   7.718   9.764 -0.1179 -0.1438  0.7740
  484MOL0     C63816   8.582   7.828   9.854  0.3699  0.3397  0.0932
  484MOL0     C63817   8.733   7.824   9.820  0.9463  0.1546 -0.5124
  484MOL0     C63818   8.795   7.950   9.870  0.1081  0.5461  1.3595
  484MOL0     C63819   8.941   7.932   9.891  0.6270  0.1036 -0.3057
  484MOL0     C63820   9.055   7.942   9.933  0.3097 -0.0285  0.4306
  484MOL0     C63821   8.354   7.651  10.006 -0.7584  0.0804  0.3843
  484MOL0     C63822   8.285   7.645  10.125 -0.0292  0.9051  0.6562
  484MOL0     H63823   7.852   7.662  10.418  0.8729 -0.9019 -0.1962
  484MOL0     H63824   7.763   7.693  10.665  0.6498 -0.6338  1.5424
  484MOL0     H63825   8.056   7.620  10.986  0.2873 -0.9464 -1.1801
  484MOL0     H63826   7.908   7.526  10.926 -4.0533  2.1216 -0.4645
  484MOL0     H63827   7.761   7.663  11.067 -0.1235  1.6380  2.2157
  484MOL0     H63828   7.905   7.735  11.151  0.4246 -1.7042  0.5003
  484MOL0     H63829   7.984   7.506  11.208  0.2593  1.0313 -1.2062
  484MOL0     H63830   7.825   7.446  11.168 -0.4239  0.7093 -0.7490
  484MOL0     H63831   7.779   7.689  11.325 -1.6733  0.0536  2.2870
  484MOL0     H63832   7.724   7.519  11.351  1.4521 -1.4019  2.6064
  484MOL0     H63833   8.006   7.546  11.435  0.0454 -1.6349  2.1607
  484MOL0     H63834   7.867   7.464  11.494  0.6836 -0.4553  1.1671
  484MOL0     H63835   7.782   7.662  11.598 -0.4558  0.5928 -1.8230
  484MOL0     H63836   7.903   7.766  11.526 -0.5936  0.6262 -0.5344
  484MOL0     H63837   7.915   7.582  11.773 -0.6129  0.9997 -0.5346
  484MOL0     H63838   8.051   7.584  11.663  0.8127 -1.9217  2.5426
  484MOL0     H63839   7.962   7.865  11.712 -2.0455 -0.9328 -0.1176
  484MOL0     H63840   8.113   7.807  11.714  0.5161  1.6705  2.2937
  484MOL0     H63841   7.822   7.883  11.953  0.5240  0.2995  0.2795
  484MOL0     H63842   7.897   7.753  12.320 -2.4165  0.2711  0.7964
  484MOL0     H63843   7.768   7.766  12.211  0.5771 -1.0874  1.1463
  484MOL0     H63844   7.734   7.951  12.310 -0.2484 -0.4970  0.1653
  484MOL0     H63845   7.797   8.002  12.153 -1.1404  0.4567  1.3629
  484MOL0     H63846   8.010   8.058  12.266 -0.3882  0.5489 -1.2507
  484MOL0     H63847   7.879   8.123  12.358  0.1683 -0.5383  1.0183
  484MOL0     H63848   8.036   7.871  12.434 -2.2670 -1.6079 -0.6592
  484MOL0     H63849   7.882   7.903  12.507 -1.1609 -2.2150 -1.4047
  484MOL0     H63850   8.120   8.245  12.679  0.5248  0.8586  0.7575
  484MOL0     H63851   8.333   8.353  12.652 -1.7385  0.5346  2.0019
  484MOL0     H63852   8.699   8.544  12.474  0.5726  1.1247 -0.6124
  484MOL0     H63853   8.938   8.606  12.485 -1.4656  2.0992  2.5661
  484MOL0     H63854   9.183   8.452  12.851 -0.1601  0.0130  1.4850
  484MOL0     H63855   9.062   8.586  12.870 -0.7009 -2.1711 -0.3597
  484MOL0     H63856   9.261   8.700  12.931 -1.4296  0.3799  0.6707
  484MOL0     H63857   9.234   8.742  12.760 -1.2571  0.3367  1.7286
  484MOL0     H63858   9.399   8.542  12.726 -2.2201 -0.7541  0.4190
  484MOL0     H63859   9.446   8.587  12.887 -0.1513  0.0884  1.4229
  484MOL0     H63860   9.427   8.821  12.664  0.2007  2.2595  1.3957
  484MOL0     H63861   9.497   8.827  12.816 -0.7775  0.0315  0.9701
  484MOL0     H63862   9.631   8.791  12.594 -0.4041 -0.2558 -0.7798
  484MOL0     H63863   9.572   8.624  12.600  0.9685 -0.2761 -0.2226
  484MOL0     H63864   9.660   8.613  12.830  0.1146  1.9700  1.4026
  484MOL0     H63865   9.745   8.756  12.811  1.4865 -2.2828  3.3707
  484MOL0     H63866   9.811   8.543  12.622 -1.5451 -1.9624  2.3079
  484MOL0     H63867   9.890   8.705  12.642 -1.6864  2.2517  0.0018
  484MOL0     H63868  10.017   8.537  12.752  0.1439 -0.4032  0.8186
  484MOL0     H63869   9.888   8.504  12.869  2.0083  0.6096  2.1127
  484MOL0     H63870   8.996   8.333  12.802 -0.6456  0.9148  0.1657
  484MOL0     H63871   8.763   8.234  12.771 -0.7941 -0.3895 -0.7665
  484MOL0     H63872   8.423   8.078  12.335 -0.0786  2.6957 -1.5576
  484MOL0     H63873   8.201   7.981  12.354  1.1454  0.4430 -1.0041
  484MOL0     H63874   8.184   7.680  10.785 -1.7547  0.0528 -0.0408
  484MOL0     H63875   8.234   7.613  10.578 -0.1558  3.1615  0.5823
  484MOL0     H63876   7.986   7.772  10.017  0.0651  2.4066 -0.3783
  484MOL0     H63877   8.115   7.761   9.791 -1.5643 -0.4001  0.2521
  484MOL0     H63878   8.537   7.745   9.660  1.0878  3.1375  1.7828
  484MOL0     H63879   8.547   7.617   9.787 -4.9644 -1.8002  2.1251
  484MOL0     H63880   8.547   7.927   9.825  2.1982  0.1717 -3.0731
  484MOL0     H63881   8.585   7.807   9.962  5.5644 -0.9637 -0.0580
  484MOL0     H63882   8.742   7.815   9.711 -1.6110  0.0041 -0.7810
  484MOL0     H63883   8.783   7.735   9.859  2.3077  0.7728 -0.7655
  484MOL0     H63884   8.786   8.018   9.786  1.6608 -2.2735 -1.2812
  484MOL0     H63885   8.739   7.986   9.957  0.3209 -2.9228  3.1043
  484MOL0     H63886   9.161   7.950   9.948  0.7932  0.1255 -2.4242
  484MOL0     H63887   8.459   7.626  10.010 -0.6372  0.5016 -0.0136
  484MOL0     H63888   8.333   7.620  10.219 -0.3747  0.2843  0.6705
  485MOL0     O63889   2.545   2.616   2.056 -0.4030 -0.6942 -0.9828
  485MOL0     C63890   2.588   2.724   2.090 -0.4299 -0.2918 -0.3756
  485MOL0     O63891   2.522   2.819   2.164 -0.0627 -0.3774  0.0152
  485MOL0     C63892   2.413   2.765   2.223  0.1419  0.7049 -0.2434
  485MOL0     C63893   2.296   2.843   2.206  0.1926  0.2564 -0.8480
  485MOL0     C63894   2.178   2.802   2.274  1.0557 -0.7412  0.5683
  485MOL0     C63895   2.176   2.687   2.357  0.1524 -0.2398  0.1721
  485MOL0     O63896   2.060   2.669   2.426 -0.2557 -0.6621 -0.6052
  485MOL0     C63897   2.056   2.567   2.532  0.3424 -0.3005 -0.0577
  485MOL0     C63898   1.911   2.552   2.598  1.0956 -0.6908  0.0860
  485MOL0     C63899   1.894   2.398   2.630  0.6280  0.5375 -0.0141
  485MOL0     C63900   1.762   2.362   2.692  0.7542  0.4114  0.2655
  485MOL0     C63901   1.742   2.206   2.704  0.0278  0.8976  0.9135
  485MOL0     C63902   1.617   2.174   2.785  0.2947 -0.0701  0.0155
  485MOL0     C63903   1.546   2.049   2.734 -0.2858  0.0773 -0.6167
  485MOL0     C63904   1.429   2.007   2.824 -0.3290 -0.4032 -0.2229
  485MOL0     N63905   1.377   1.871   2.791 -0.1501 -0.5513  0.4953
  485MOL0     C63906   1.257   1.847   2.743  0.3628 -0.0143 -0.8923
  485MOL0     C63907   1.262   1.718   2.713  0.7869 -0.5328  0.5078
  485MOL0     C63908   1.157   1.644   2.628 -0.0412 -0.2010  0.3507
  485MOL0     C63909   1.024   1.642   2.708 -1.1265  0.9469 -0.3132
  485MOL0     C63910   0.905   1.590   2.614 -0.3183 -0.5453 -0.7534
  485MOL0     C63911   0.773   1.578   2.694 -0.3343 -0.6207 -0.1832
  485MOL0     O63912   0.664   1.577   2.599 -0.5566 -1.0089  0.6434
  485MOL0     C63913   0.541   1.526   2.632  0.5199  0.6061  0.8595
  485MOL0     C63914   0.452   1.518   2.524 -0.5252  0.0873 -0.1487
  485MOL0     C63915   0.328   1.453   2.539  0.0817  0.3395 -0.1053
  485MOL0     C63916   0.294   1.389   2.658 -0.4284 -0.3364  0.5639
  485MOL0     C63917   0.175   1.314   2.673  0.6260  0.0569 -0.4556
  485MOL0     O63918   0.132   1.294   2.803 -0.1564 -0.4300  0.4241
  485MOL0     C63919  -0.001   1.287   2.844 -0.2746  0.1802 -0.2540
  485MOL0     C63920  -0.115   1.308   2.775 -0.4694  0.0122 -0.4605
  485MOL0     C63921  -0.244   1.262   2.807 -0.0984  0.9836 -0.5141
  485MOL0     C63922  -0.267   1.203   2.938  0.5108 -0.4034  0.0949
  485MOL0     O63923  -0.400   1.171   2.985 -0.3116  0.2813  0.1282
  485MOL0     C63924  -0.410   1.113   3.115 -0.0691 -0.1977 -0.9170
  485MOL0     C63925  -0.553   1.078   3.144  0.3558  0.8317 -0.1268
  485MOL0     C63926  -0.646   1.028   3.026 -0.3225  0.2665 -0.0105
  485MOL0     C63927  -0.781   0.979   3.082 -0.1399  0.3923  0.6033
  485MOL0     C63928  -0.821   0.852   3.019  0.6025 -0.3156 -0.2088
  485MOL0     C63929  -0.839   0.869   2.866 -0.0976 -0.1636  0.4699
  485MOL0     C63930  -0.900   0.740   2.813  0.6696 -0.9571 -0.2659
  485MOL0     C63931  -0.941   0.750   2.669 -0.0384 -0.0367 -0.1374
  485MOL0    Cl63932  -1.053   0.621   2.641  0.6423 -0.0647 -0.0073
  485MOL0     C63933  -0.154   1.198   3.024 -0.1009  0.2252  1.3168
  485MOL0     C63934  -0.029   1.233   2.972 -0.2548 -0.8499  0.3381
  485MOL0     O63935   0.107   1.292   2.572  0.2943  0.0560 -0.2662
  485MOL0     C63936   0.390   1.404   2.765  0.3984  0.3190  0.3394
  485MOL0     C63937   0.517   1.463   2.751  1.2907 -0.1767 -0.7717
  485MOL0     N63938   1.374   1.653   2.751 -0.2202  0.3510  0.1063
  485MOL0     N63939   1.441   1.748   2.805 -1.2585 -0.6950 -0.3667
  485MOL0     C63940   2.295   2.616   2.367 -0.2104  0.4500  0.6652
  485MOL0     C63941   2.411   2.652   2.301 -0.9607 -0.7764 -0.1553
  485MOL0     C63942   2.724   2.748   2.050  0.8005 -0.4970  0.0692
  485MOL0     C63943   2.776   2.872   2.049 -0.1703  0.2985 -0.2423
  485MOL0     C63944   2.911   2.893   2.015  0.7398 -0.8202  0.4128
  485MOL0     C63945   2.990   2.790   1.962  0.4792  0.2336 -0.4881
  485MOL0     O63946   3.116   2.813   1.920  0.2513 -0.3164  0.1798
  485MOL0     C63947   3.160   2.746   1.797 -0.2970 -0.4875 -0.5460
  485MOL0     C63948   3.306   2.790   1.779  0.9215 -0.0239 -0.4236
  485MOL0     C63949   3.383   2.698   1.669  0.9799  0.0336 -0.2717
  485MOL0     C63950   3.522   2.757   1.682 -0.3883  0.3237  0.9633
  485MOL0     C63951   3.608   2.673   1.592 -0.2696  0.5894 -0.3581
  485MOL0     C63952   3.671   2.597   1.527 -0.1832 -0.1852  0.1254
  485MOL0     C63953   2.939   2.656   1.967  0.0356 -0.1312 -0.5047
  485MOL0     C63954   2.803   2.638   2.004 -0.2605 -0.3518  0.9201
  485MOL0     H63955   2.298   2.935   2.149 -0.4950  0.9287  0.1736
  485MOL0     H63956   2.088   2.860   2.257  1.0127 -0.5035  1.5710
  485MOL0     H63957   2.132   2.584   2.609  1.4743  3.4494 -1.7512
  485MOL0     H63958   2.078   2.471   2.483 -1.0782  0.4324 -2.2832
  485MOL0     H63959   1.840   2.570   2.517  0.7760  1.4567  0.7924
  485MOL0     H63960   1.884   2.611   2.686  0.5464 -3.4163  1.8712
  485MOL0     H63961   1.981   2.379   2.693 -0.6210 -1.5680  1.1752
  485MOL0     H63962   1.901   2.332   2.543 -1.0762 -1.3756  1.2055
  485MOL0     H63963   1.758   2.392   2.797 -1.9867  0.7800  0.1177
  485MOL0     H63964   1.676   2.405   2.639  1.3474  0.7284 -0.4566
  485MOL0     H63965   1.829   2.160   2.752 -0.7319  0.0755  1.5330
  485MOL0     H63966   1.731   2.160   2.606  0.0253 -3.4654  2.7588
  485MOL0     H63967   1.549   2.260   2.799 -1.8093 -1.9037  1.9965
  485MOL0     H63968   1.650   2.148   2.886  3.8285 -0.3567 -1.0832
  485MOL0     H63969   1.508   2.055   2.632  0.1119 -0.7072 -0.8263
  485MOL0     H63970   1.616   1.966   2.749 -0.3295  0.3282  1.1401
  485MOL0     H63971   1.353   2.086   2.832 -2.1306 -2.1554  0.8981
  485MOL0     H63972   1.471   2.001   2.924 -0.7428  1.4164  0.0987
  485MOL0     H63973   1.177   1.916   2.718  0.1110  0.5501  1.2614
  485MOL0     H63974   1.193   1.542   2.610 -0.6088 -0.0919 -1.6248
  485MOL0     H63975   1.142   1.689   2.529 -0.8220 -0.6020  0.2810
  485MOL0     H63976   0.994   1.738   2.750 -2.0680 -1.2278  4.7919
  485MOL0     H63977   1.037   1.571   2.790  0.1140  0.4127 -0.9345
  485MOL0     H63978   0.878   1.664   2.538  0.1317 -1.5431 -1.9311
  485MOL0     H63979   0.929   1.494   2.566  0.7223 -0.9988  0.5976
  485MOL0     H63980   0.769   1.664   2.762  1.9226 -0.8201  0.2892
  485MOL0     H63981   0.778   1.497   2.768 -3.2348 -0.0766  0.7575
  485MOL0     H63982   0.481   1.567   2.432  1.6300  0.6545  0.7758
  485MOL0     H63983   0.253   1.448   2.462 -2.4899  3.7659  1.8956
  485MOL0     H63984  -0.111   1.370   2.686  3.0194  0.7737  0.0634
  485MOL0     H63985  -0.340   1.270   2.757 -1.8131 -0.3847  2.3125
  485MOL0     H63986  -0.357   1.169   3.193  1.4787 -3.0384  0.2123
  485MOL0     H63987  -0.351   1.021   3.113  1.5167  0.7341  0.5505
  485MOL0     H63988  -0.601   1.159   3.199 -1.0094 -0.0341 -0.0063
  485MOL0     H63989  -0.549   1.005   3.225 -0.1698  2.1045  1.0732
  485MOL0     H63990  -0.586   0.947   2.983  2.2615  1.9577  0.1795
  485MOL0     H63991  -0.658   1.101   2.945  0.0769  1.5648  1.0459
  485MOL0     H63992  -0.755   0.966   3.187 -0.3048  2.3692  0.9300
  485MOL0     H63993  -0.859   1.054   3.070  0.2934  0.6001 -1.1838
  485MOL0     H63994  -0.924   0.825   3.043 -0.0057  0.0759 -2.1750
  485MOL0     H63995  -0.752   0.768   3.028  1.1586 -0.3301 -3.2961
  485MOL0     H63996  -0.740   0.885   2.822  1.1338 -0.1531  3.0823
  485MOL0     H63997  -0.901   0.954   2.838  0.5994 -0.5432 -2.6203
  485MOL0     H63998  -0.817   0.669   2.810  1.2687 -0.2776  0.0331
  485MOL0     H63999  -0.976   0.695   2.877  0.9564 -0.3824  0.4938
  485MOL0     H64000  -0.848   0.740   2.613 -0.1691  0.5147 -0.4550
  485MOL0     H64001  -0.998   0.841   2.646  0.2403  0.6610  1.6857
  485MOL0     H64002  -0.178   1.176   3.127 -2.0684 -2.5310  0.3867
  485MOL0     H64003   0.062   1.221   3.030 -0.6941  0.3243  1.3145
  485MOL0     H64004   0.362   1.346   2.853  0.8733 -0.6181 -0.1115
  485MOL0     H64005   0.590   1.468   2.831  0.4398  0.4989 -0.0152
  485MOL0     H64006   2.319   2.528   2.425 -1.5556 -2.2677 -2.5271
  485MOL0     H64007   2.508   2.606   2.317  0.5129  1.8458 -0.9014
  485MOL0     H64008   2.721   2.963   2.071 -0.3015 -0.1668  1.4796
  485MOL0     H64009   2.947   2.995   2.009  0.0438 -0.6391 -1.1351
  485MOL0     H64010   3.104   2.774   1.708 -0.5506  0.9148  0.0347
  485MOL0     H64011   3.153   2.637   1.806 -3.4182 -0.2450  1.2485
  485MOL0     H64012   3.309   2.897   1.759  1.3658  0.3292  1.3875
  485MOL0     H64013   3.353   2.771   1.875 -2.2298  1.4366  1.5678
  485MOL0     H64014   3.346   2.694   1.567 -0.0873  1.6151  0.0171
  485MOL0     H64015   3.379   2.592   1.695 -1.9509  0.0478 -0.3371
  485MOL0     H64016   3.517   2.858   1.641 -2.3769  0.3978  1.2874
  485MOL0     H64017   3.563   2.757   1.784  1.9945 -3.9973  0.2481
  485MOL0     H64018   3.738   2.534   1.472  1.9150  0.2832  1.9928
  485MOL0     H64019   2.997   2.565   1.967  0.6826  0.2673 -0.2325
  485MOL0     H64020   2.765   2.536   2.008 -3.9221  0.6239 -2.5071
  486MOL0     O64021   3.770  10.201   0.973 -0.0928  0.1442 -0.3036
  486MOL0     C64022   3.794  10.118   1.060  0.6726 -0.2482  0.0234
  486MOL0     O64023   3.726  10.005   1.094 -0.1832  0.5492  0.2308
  486MOL0     C64024   3.630   9.963   1.002 -0.0125 -0.5687 -0.0419
  486MOL0     C64025   3.622   9.975   0.856 -0.1867  0.7301 -0.3935
  486MOL0     C64026   3.507   9.937   0.788 -0.2402 -0.2633  0.4800
  486MOL0     C64027   3.392   9.877   0.847  0.2840  0.9807 -0.1746
  486MOL0     O64028   3.276   9.840   0.791 -1.0183  0.1555 -0.2055
  486MOL0     C64029   3.242   9.878   0.654  0.0261 -0.2601  0.0035
  486MOL0     C64030   3.113   9.824   0.607  0.5826  0.2552  0.0620
  486MOL0     C64031   3.008   9.896   0.686  0.3867  0.3583  0.2971
  486MOL0     C64032   2.868   9.881   0.623  0.0861  0.7299  0.2637
  486MOL0     C64033   2.750   9.879   0.717  1.0170 -0.3728  1.0891
  486MOL0     C64034   2.762   9.984   0.816 -0.2368  0.4885  0.9910
  486MOL0     C64035   2.643   9.973   0.904 -0.3272  0.3302  0.3841
  486MOL0     C64036   2.631  10.087   1.006  0.5153 -0.7592 -0.6865
  486MOL0     N64037   2.513  10.058   1.091 -0.3662 -0.3063  0.3965
  486MOL0     C64038   2.402  10.141   1.083 -0.4384 -0.3269  0.4081
  486MOL0     C64039   2.314  10.084   1.154 -0.2906 -0.9914 -0.9130
  486MOL0     C64040   2.176  10.124   1.178 -0.1020  0.3683  0.6842
  486MOL0     C64041   2.161  10.179   1.319 -0.6625 -0.0351 -0.7825
  486MOL0     C64042   2.032  10.132   1.383 -0.8390 -0.1843  0.2115
  486MOL0     C64043   1.905  10.182   1.315 -0.4432  0.7011  0.3321
  486MOL0     O64044   1.798  10.134   1.394 -0.1739 -0.5506 -0.0155
  486MOL0     C64045   1.698  10.218   1.434 -0.6872  0.0434  0.1670
  486MOL0     C64046   1.638  10.173   1.549  0.6285  0.0799 -0.5793
  486MOL0     C64047   1.541  10.251   1.609 -0.0477  0.3942 -0.0311
  486MOL0     C64048   1.517  10.384   1.559  0.3229  0.1377 -0.3877
  486MOL0     C64049   1.435  10.468   1.647  0.0830  0.7185 -0.1637
  486MOL0     O64050   1.383  10.419   1.769  0.0148 -0.1050  0.5231
  486MOL0     C64051   1.277  10.484   1.822 -0.0668 -0.2793  0.7062
  486MOL0     C64052   1.285  10.613   1.884  0.5229 -0.1479  0.8879
  486MOL0     C64053   1.177  10.676   1.952 -0.1789 -0.0156 -0.3402
  486MOL0     C64054   1.051  10.617   1.948 -0.7129  0.4877  0.5066
  486MOL0     O64055   0.946  10.674   2.006  0.5757  0.1057 -0.0910
  486MOL0     C64056   0.927  10.810   1.971 -0.7507 -1.0157  0.1359
  486MOL0     C64057   0.808  10.862   2.050  0.7179  0.7478  0.1692
  486MOL0     C64058   0.685  10.763   2.054  1.0869  0.2307  0.4067
  486MOL0     C64059   0.582  10.796   2.163 -0.2520  0.3359  0.9088
  486MOL0     C64060   0.491  10.684   2.190  0.3920  0.1896 -0.0836
  486MOL0     C64061   0.365  10.734   2.264  0.0762 -0.5190 -0.2630
  486MOL0     C64062   0.232  10.667   2.237  0.1741 -0.1332  0.1171
  486MOL0     C64063   0.248  10.522   2.278 -0.1277 -0.4808  0.1821
  486MOL0    Cl64064   0.306  10.489   2.444 -0.3105 -0.0426 -0.0863
  486MOL0     C64065   1.036  10.494   1.885 -0.2063 -0.3076  0.6140
  486MOL0     C64066   1.146  10.424   1.833 -0.0234 -0.6714  0.6655
  486MOL0     O64067   1.392  10.571   1.594 -0.6538  0.0305 -0.6077
  486MOL0     C64068   1.566  10.420   1.430 -0.7405 -0.8141 -0.7493
  486MOL0     C64069   1.665  10.340   1.369 -0.1224  0.4362 -1.2407
  486MOL0     N64070   2.366   9.971   1.216 -0.0154  0.2603 -0.0776
  486MOL0     N64071   2.483   9.945   1.167  0.3764  0.8090  0.5861
  486MOL0     C64072   3.401   9.856   0.983 -0.0816 -0.3837 -0.6111
  486MOL0     C64073   3.513   9.904   1.061  0.6284  0.1967 -0.7009
  486MOL0     C64074   3.919  10.141   1.130 -0.0346 -1.1761 -0.9047
  486MOL0     C64075   3.949  10.271   1.173  0.2637 -0.6460 -0.3136
  486MOL0     C64076   4.074  10.308   1.224 -0.0448  0.0253  0.3571
  486MOL0     C64077   4.174  10.205   1.240  0.7825  0.1439 -0.5800
  486MOL0     O64078   4.286  10.240   1.309 -0.4308  0.3694  1.0010
  486MOL0     C64079   4.261  10.307   1.431 -0.0271  0.0894 -0.0802
  486MOL0     C64080   4.357  10.245   1.531  0.7324 -0.1235 -0.2896
  486MOL0     C64081   4.359  10.318   1.665  0.1223 -0.2709  0.3544
  486MOL0     C64082   4.412  10.239   1.775 -0.6216  0.3797 -0.0379
  486MOL0     C64083   4.554  10.200   1.737 -0.0800  0.0430  0.9234
  486MOL0     C64084   4.678  10.187   1.721 -0.6979 -0.2131  0.1346
  486MOL0     C64085   4.143  10.074   1.185 -0.4394  0.2898 -0.3264
  486MOL0     C64086   4.017  10.042   1.132 -1.0217 -0.4050  0.5732
  486MOL0     H64087   3.696  10.025   0.793 -0.2252  1.2061 -0.0709
  486MOL0     H64088   3.494   9.967   0.685  2.5488  0.3935  0.2330
  486MOL0     H64089   3.321   9.853   0.582 -0.0725  1.6386 -0.8326
  486MOL0     H64090   3.239   9.987   0.644  0.6585 -0.1510  0.7995
  486MOL0     H64091   3.103   9.715   0.616  2.2177  0.1535  1.1647
  486MOL0     H64092   3.104   9.838   0.499 -1.0171 -1.2219 -0.0433
  486MOL0     H64093   3.032  10.001   0.702  2.3981  0.1298 -0.9637
  486MOL0     H64094   3.008   9.840   0.780 -1.8370 -2.2411 -1.0938
  486MOL0     H64095   2.855   9.963   0.552 -1.5257  0.6098  0.3866
  486MOL0     H64096   2.857   9.789   0.564  2.1127  1.4775 -1.4369
  486MOL0     H64097   2.736   9.785   0.772  0.2506 -1.0601 -0.2267
  486MOL0     H64098   2.665   9.894   0.649  1.1296 -0.7309  0.8656
  486MOL0     H64099   2.772  10.082   0.768  0.0001 -0.2425 -0.5347
  486MOL0     H64100   2.852   9.980   0.878 -1.1277 -2.5906  2.2849
  486MOL0     H64101   2.547   9.983   0.851  1.0476  3.0497 -1.9213
  486MOL0     H64102   2.654   9.876   0.953  2.9789 -1.0322 -2.5839
  486MOL0     H64103   2.627  10.180   0.949  2.2695 -0.9811 -1.2245
  486MOL0     H64104   2.712  10.081   1.078  1.9202  0.6115 -2.0872
  486MOL0     H64105   2.391  10.228   1.019  0.6484  1.7354  2.8183
  486MOL0     H64106   2.105  10.047   1.149 -1.5467  2.8040 -2.9863
  486MOL0     H64107   2.154  10.199   1.101 -1.9659 -0.7072  0.1104
  486MOL0     H64108   2.176  10.285   1.298 -0.9409 -0.5277 -3.9794
  486MOL0     H64109   2.246  10.145   1.379  0.8288  0.9098 -2.2771
  486MOL0     H64110   2.023  10.023   1.384 -2.1112 -0.0813  1.4593
  486MOL0     H64111   2.038  10.173   1.484  0.0466  1.1695 -0.3491
  486MOL0     H64112   1.899  10.143   1.213  0.5014 -3.0648  1.5239
  486MOL0     H64113   1.920  10.290   1.318  1.9674  0.6641 -3.3390
  486MOL0     H64114   1.661  10.074   1.586  1.6387  0.0640 -1.2288
  486MOL0     H64115   1.493  10.224   1.703  1.0498  1.3107  0.8195
  486MOL0     H64116   1.382  10.659   1.891  1.9797 -3.1703  3.0344
  486MOL0     H64117   1.208  10.761   2.011  4.6055 -1.0770 -0.9252
  486MOL0     H64118   0.909  10.818   1.863 -0.1624 -1.2437  0.0157
  486MOL0     H64119   1.015  10.874   1.980 -1.1726  0.1457 -2.7342
  486MOL0     H64120   0.784  10.957   2.002  1.2295  0.3198 -0.9582
  486MOL0     H64121   0.838  10.874   2.155  2.4464  2.4336 -0.4669
  486MOL0     H64122   0.710  10.659   2.075  0.6584 -0.2413 -1.2747
  486MOL0     H64123   0.633  10.761   1.958  1.9212  1.7093 -0.1147
  486MOL0     H64124   0.635  10.825   2.255  0.7671  2.1735 -0.2011
  486MOL0     H64125   0.527  10.883   2.128  0.5079  0.1765 -0.7392
  486MOL0     H64126   0.547  10.612   2.250  0.3489 -0.6755 -1.0505
  486MOL0     H64127   0.470  10.638   2.093  4.4012 -0.7736 -0.6662
  486MOL0     H64128   0.365  10.841   2.239  1.8681 -0.4719 -0.2177
  486MOL0     H64129   0.373  10.728   2.373 -0.5170  0.8137 -0.1232
  486MOL0     H64130   0.146  10.708   2.291  0.4220 -0.4436  0.7648
  486MOL0     H64131   0.206  10.678   2.132 -2.3596  0.3599  0.7280
  486MOL0     H64132   0.325  10.483   2.211 -0.3930  0.1855 -0.5329
  486MOL0     H64133   0.149  10.477   2.262 -0.3929  0.4996 -1.1334
  486MOL0     H64134   0.936  10.452   1.892  0.2603 -1.3330  1.5858
  486MOL0     H64135   1.147  10.322   1.797 -0.4098 -0.7313  0.8180
  486MOL0     H64136   1.530  10.517   1.398 -0.9942 -0.9841 -0.9829
  486MOL0     H64137   1.710  10.372   1.275  0.0096  2.0732 -0.6645
  486MOL0     H64138   3.312   9.806   1.022  0.3227 -0.0320  0.8226
  486MOL0     H64139   3.507   9.906   1.169 -2.0299  3.1894 -0.7471
  486MOL0     H64140   3.872  10.346   1.180 -0.6103 -1.6354  1.0722
  486MOL0     H64141   4.090  10.405   1.269  1.2515 -0.5167  1.1117
  486MOL0     H64142   4.163  10.310   1.479 -0.4457  1.7383 -0.9261
  486MOL0     H64143   4.287  10.412   1.414  2.3642 -0.6025 -1.0205
  486MOL0     H64144   4.327  10.144   1.559 -0.4637  0.4983  0.7535
  486MOL0     H64145   4.461  10.236   1.497  2.3478 -0.0851  3.9906
  486MOL0     H64146   4.254  10.342   1.684  0.2037 -0.2643  0.8127
  486MOL0     H64147   4.420  10.409   1.661  2.3053 -1.5647  1.5830
  486MOL0     H64148   4.412  10.288   1.872 -2.1052  0.0519  0.1509
  486MOL0     H64149   4.347  10.151   1.786  1.3317 -1.0580  0.7551
  486MOL0     H64150   4.783  10.179   1.700 -0.0423  4.2820  0.7152
  486MOL0     H64151   4.230  10.009   1.176  2.5405  3.5533  2.1562
  486MOL0     H64152   3.995   9.943   1.093 -4.2336  0.6273 -0.4899
  487MOL0     O64153   8.926   2.035   6.805  0.1909  0.3443  0.1167
  487MOL0     C64154   8.943   1.916   6.782  0.5283  0.6337 -0.0494
  487MOL0     O64155   8.850   1.810   6.804  0.2412 -0.2151 -0.0343
  487MOL0     C64156   8.726   1.857   6.852  0.1034  0.1628 -0.2355
  487MOL0     C64157   8.637   1.931   6.771  0.8140 -0.3085  0.1452
  487MOL0     C64158   8.530   2.003   6.826 -0.0616 -0.0229  0.3579
  487MOL0     C64159   8.502   1.998   6.964 -0.9656  0.0534 -0.1133
  487MOL0     O64160   8.396   2.035   7.025 -0.1602  0.6091  0.4018
  487MOL0     C64161   8.274   2.026   6.957  0.0962  0.0013 -0.2525
  487MOL0     C64162   8.176   2.054   7.069 -0.0436 -0.1860 -0.6481
  487MOL0     C64163   8.040   2.102   7.007 -0.5150  0.0317 -0.9469
  487MOL0     C64164   7.921   2.111   7.100 -0.5091 -0.3431 -0.2819
  487MOL0     C64165   7.788   2.167   7.053 -0.8232 -0.6407  0.1402
  487MOL0     C64166   7.788   2.325   7.019 -0.2290 -0.7606 -0.7972
  487MOL0     C64167   7.655   2.366   6.972 -0.8160 -0.8595 -1.1459
  487MOL0     C64168   7.649   2.493   6.882  0.7731 -0.6392  0.0054
  487MOL0     N64169   7.525   2.507   6.810  0.2487 -0.3958  0.0106
  487MOL0     C64170   7.435   2.608   6.820 -0.4109 -0.2734 -0.5514
  487MOL0     C64171   7.342   2.556   6.739  0.2046  0.2623 -0.0176
  487MOL0     C64172   7.216   2.640   6.734 -0.4051 -0.7026  0.8281
  487MOL0     C64173   7.125   2.617   6.845 -0.1173  0.4030 -1.0959
  487MOL0     C64174   7.092   2.467   6.882  0.1569  1.0161  0.0800
  487MOL0     C64175   7.029   2.398   6.769  0.7374  0.5192 -0.2529
  487MOL0     O64176   6.979   2.274   6.803 -0.2908 -0.3834 -0.3834
  487MOL0     C64177   6.925   2.195   6.704 -0.0673 -0.0104 -0.1396
  487MOL0     C64178   6.980   2.183   6.579 -0.2039 -0.5416 -0.3373
  487MOL0     C64179   6.923   2.097   6.477 -0.3276  0.5312 -0.5451
  487MOL0     C64180   6.803   2.028   6.511  0.1639  0.2278 -0.2662
  487MOL0     C64181   6.734   1.928   6.412 -0.9560 -0.6681 -0.7827
  487MOL0     O64182   6.610   1.902   6.447  0.4852  0.9755 -0.0675
  487MOL0     C64183   6.534   1.834   6.360  0.6782  0.6692  0.0539
  487MOL0     C64184   6.568   1.723   6.277  0.0528  0.7679 -1.2625
  487MOL0     C64185   6.474   1.664   6.189  0.0792 -0.2116 -0.4484
  487MOL0     C64186   6.346   1.723   6.170 -0.7253  0.1853 -0.3059
  487MOL0     O64187   6.257   1.679   6.077  0.1372  0.3757 -0.3426
  487MOL0     C64188   6.159   1.591   6.141 -0.5539  0.1259  1.0809
  487MOL0     C64189   6.076   1.495   6.050  0.3629  0.7160 -0.5612
  487MOL0     C64190   6.000   1.391   6.137  0.5646 -0.2806 -0.8627
  487MOL0     C64191   5.889   1.308   6.056 -0.4117  1.0614 -0.0769
  487MOL0     C64192   5.748   1.359   6.035 -0.3681 -0.9907  0.5060
  487MOL0     C64193   5.644   1.262   6.004  0.2220 -0.2148 -0.3483
  487MOL0     C64194   5.515   1.341   5.991 -0.5427  0.8713 -0.3876
  487MOL0     C64195   5.419   1.250   5.933 -0.5473  0.3695  0.0256
  487MOL0    Cl64196   5.272   1.361   5.936  0.6489  0.2168 -0.0779
  487MOL0     C64197   6.314   1.839   6.240  0.4870 -0.9636 -0.2004
  487MOL0     C64198   6.407   1.899   6.333 -0.1375  0.8936  0.4630
  487MOL0     O64199   6.796   1.887   6.316  0.0882 -0.3444  0.3408
  487MOL0     C64200   6.755   2.031   6.645 -0.4849  0.3555 -0.3383
  487MOL0     C64201   6.813   2.122   6.735 -0.0304 -0.7708 -0.0637
  487MOL0     N64202   7.366   2.434   6.692  0.5893  0.7675 -0.5054
  487MOL0     N64203   7.482   2.407   6.726 -0.5577  0.5804  0.1230
  487MOL0     C64204   8.590   1.924   7.034  0.2219 -0.2053 -0.1939
  487MOL0     C64205   8.701   1.861   6.984 -0.6290 -0.1067  0.3245
  487MOL0     C64206   9.063   1.884   6.700  0.0660  0.6780 -0.1693
  487MOL0     C64207   9.173   1.976   6.694  1.2196 -0.2451  0.4496
  487MOL0     C64208   9.294   1.949   6.630 -0.7965 -0.7678  0.0984
  487MOL0     C64209   9.316   1.829   6.561 -0.1599 -0.2844  0.1142
  487MOL0     O64210   9.421   1.777   6.493  0.0298  0.0315 -0.1585
  487MOL0     C64211   9.548   1.830   6.541  0.6591  0.2320  0.1408
  487MOL0     C64212   9.640   1.779   6.426  0.9085 -0.8277  0.1839
  487MOL0     C64213   9.781   1.812   6.463  0.3917  0.0429 -0.2503
  487MOL0     C64214   9.872   1.796   6.345  0.1622  0.5265  0.0049
  487MOL0     C64215  10.005   1.832   6.391 -0.4567  0.5785  0.5838
  487MOL0     C64216  10.118   1.866   6.413 -0.9962  0.7274  0.8160
  487MOL0     C64217   9.213   1.738   6.575 -0.2564  0.6168  0.7522
  487MOL0     C64218   9.100   1.754   6.650 -0.2939  0.3101  0.0903
  487MOL0     H64219   8.649   1.940   6.663 -1.8284  1.3218 -0.1081
  487MOL0     H64220   8.475   2.075   6.767 -0.5031 -0.5995  0.0516
  487MOL0     H64221   8.262   1.923   6.921  1.2994  0.2503 -1.4285
  487MOL0     H64222   8.266   2.096   6.874  1.4136 -1.9430 -2.1403
  487MOL0     H64223   8.204   2.127   7.145 -0.0044 -3.0738  2.3036
  487MOL0     H64224   8.157   1.961   7.124  2.8766 -1.7259 -1.9991
  487MOL0     H64225   8.022   2.029   6.928  1.7655 -0.0461 -1.4457
  487MOL0     H64226   8.054   2.199   6.959  0.7576 -0.0483 -0.7628
  487MOL0     H64227   7.905   2.004   7.114 -1.2929 -0.6263 -2.7371
  487MOL0     H64228   7.953   2.153   7.195  0.7067  0.3990 -1.0013
  487MOL0     H64229   7.710   2.146   7.127 -0.0594 -0.6896  0.9530
  487MOL0     H64230   7.765   2.110   6.963 -2.2459  0.9122 -0.5212
  487MOL0     H64231   7.861   2.324   6.938  1.2012 -1.0804  0.4622
  487MOL0     H64232   7.827   2.389   7.098 -2.7996 -1.6609  1.3646
  487MOL0     H64233   7.619   2.283   6.910 -0.9080  1.4732 -4.4520
  487MOL0     H64234   7.584   2.378   7.055  1.5142 -0.7084  0.9500
  487MOL0     H64235   7.721   2.482   6.801  0.6704 -1.1814 -0.0176
  487MOL0     H64236   7.658   2.585   6.941 -2.0718 -1.7994  2.5093
  487MOL0     H64237   7.430   2.707   6.865  0.9448 -0.2009 -0.5435
  487MOL0     H64238   7.163   2.617   6.641  1.4577 -3.2730  0.3064
  487MOL0     H64239   7.246   2.745   6.736 -0.9163 -0.4686 -1.2502
  487MOL0     H64240   7.027   2.661   6.824 -0.0330 -0.1726 -2.9573
  487MOL0     H64241   7.176   2.643   6.938 -2.6297 -2.3367  1.2821
  487MOL0     H64242   7.183   2.411   6.910  0.4037  1.0409 -0.6676
  487MOL0     H64243   7.021   2.467   6.965  1.5477 -1.5072  1.4133
  487MOL0     H64244   7.086   2.388   6.676 -0.6082 -1.1152 -0.9639
  487MOL0     H64245   6.936   2.452   6.746  0.7452  1.2957  1.4273
  487MOL0     H64246   7.079   2.227   6.570 -0.2184 -0.5031 -0.3091
  487MOL0     H64247   6.972   2.091   6.380  1.1843 -0.5311  0.2416
  487MOL0     H64248   6.660   1.671   6.303  0.1775  2.4969  2.2489
  487MOL0     H64249   6.494   1.579   6.124  4.3966  1.3322 -1.4915
  487MOL0     H64250   6.084   1.650   6.195 -0.0690  0.5465  1.2970
  487MOL0     H64251   6.218   1.536   6.214  4.0196  1.3024 -1.3097
  487MOL0     H64252   6.154   1.448   5.989 -1.7320 -1.3314 -1.8225
  487MOL0     H64253   6.010   1.567   5.999  0.9784  1.8891  0.2547
  487MOL0     H64254   5.952   1.438   6.224 -0.4795 -0.2687 -1.4153
  487MOL0     H64255   6.067   1.321   6.186 -3.2992 -2.2453  2.1140
  487MOL0     H64256   5.943   1.280   5.966  2.3937  0.9239  1.5486
  487MOL0     H64257   5.886   1.215   6.115  2.2354  1.8762  1.5144
  487MOL0     H64258   5.751   1.434   5.955 -1.5787  0.8492  2.1184
  487MOL0     H64259   5.720   1.410   6.127 -0.1913  1.2625 -0.6300
  487MOL0     H64260   5.630   1.184   6.079 -0.4233  0.4987  0.2925
  487MOL0     H64261   5.667   1.220   5.906 -2.3389 -3.1217  0.1307
  487MOL0     H64262   5.494   1.370   6.095  1.6463  1.6491 -0.1028
  487MOL0     H64263   5.524   1.430   5.928  1.0182  0.4927 -0.7406
  487MOL0     H64264   5.410   1.156   5.989  4.6541  0.3443  1.2856
  487MOL0     H64265   5.449   1.224   5.832 -2.2765 -2.6461  0.1679
  487MOL0     H64266   6.218   1.891   6.234  1.8380  2.1906  2.4261
  487MOL0     H64267   6.385   1.996   6.377 -2.0005  0.2704  0.9478
  487MOL0     H64268   6.663   1.982   6.677 -2.0055  0.7965 -3.6067
  487MOL0     H64269   6.765   2.156   6.826  3.2489  4.3834  0.1186
  487MOL0     H64270   8.569   1.910   7.140  2.9768 -0.2228  0.4370
  487MOL0     H64271   8.781   1.822   7.047  0.0855  0.3750 -0.2592
  487MOL0     H64272   9.163   2.074   6.740 -0.0922  0.8640 -2.0454
  487MOL0     H64273   9.377   2.017   6.643 -2.1287  0.7667  0.8457
  487MOL0     H64274   9.589   1.774   6.626  1.1232  1.0964  0.4967
  487MOL0     H64275   9.569   1.937   6.551  0.0064  0.2762  1.0962
  487MOL0     H64276   9.623   1.673   6.408 -1.8225 -0.2032 -1.6459
  487MOL0     H64277   9.613   1.827   6.331  2.6325 -0.8894 -0.3642
  487MOL0     H64278   9.813   1.745   6.543  0.5351 -1.4391 -1.4917
  487MOL0     H64279   9.787   1.919   6.484 -0.8413  0.3300 -1.2070
  487MOL0     H64280   9.874   1.694   6.306 -0.8129  0.4907  0.0289
  487MOL0     H64281   9.853   1.859   6.257  2.3327  1.1452 -0.0801
  487MOL0     H64282  10.220   1.892   6.433 -0.5716 -1.2509  1.4991
  487MOL0     H64283   9.237   1.648   6.519  0.2817  1.1801  0.0659
  487MOL0     H64284   9.033   1.668   6.662 -1.1647  1.0361  0.5835
  488MOL0     O64285   1.328   4.148   7.360 -1.1701  0.2436  0.8391
  488MOL0     C64286   1.449   4.107   7.352  1.2141  0.0109 -1.1144
  488MOL0     O64287   1.491   4.022   7.257 -0.1657 -0.5999  0.5439
  488MOL0     C64288   1.399   3.983   7.168  1.0066 -0.4474 -0.0148
  488MOL0     C64289   1.364   3.845   7.166  0.5275 -0.6721  0.3617
  488MOL0     C64290   1.282   3.793   7.064 -1.3206 -0.5640  0.3133
  488MOL0     C64291   1.221   3.884   6.971  0.1232  1.4884 -0.2657
  488MOL0     O64292   1.129   3.836   6.881 -0.1780 -0.3550 -0.2065
  488MOL0     C64293   0.999   3.819   6.934  0.3311  0.0199  0.0516
  488MOL0     C64294   0.913   3.795   6.805 -0.6921  0.6329 -0.3841
  488MOL0     C64295   0.949   3.669   6.738  0.0250 -0.0996  0.3710
  488MOL0     C64296   0.842   3.645   6.629 -0.3030  0.3206  0.5452
  488MOL0     C64297   0.884   3.712   6.497  0.2075 -0.0031  1.0395
  488MOL0     C64298   0.765   3.703   6.392  0.1830 -0.3292 -0.2221
  488MOL0     C64299   0.797   3.774   6.256 -0.3517 -0.9350  0.7153
  488MOL0     C64300   0.854   3.907   6.273 -0.9637 -0.7812 -0.2726
  488MOL0     N64301   0.816   3.994   6.162  0.3091  0.3677  0.6760
  488MOL0     C64302   0.700   4.054   6.146  0.7322 -0.8093  0.8782
  488MOL0     C64303   0.700   4.128   6.032  0.4101 -0.3324  0.3421
  488MOL0     C64304   0.587   4.216   5.986 -0.3990  0.0136 -0.3108
  488MOL0     C64305   0.529   4.169   5.850 -0.0802  0.4696 -0.4732
  488MOL0     C64306   0.448   4.289   5.791  0.1979 -0.4974 -0.2069
  488MOL0     C64307   0.350   4.238   5.694  0.2120  1.0771  0.7119
  488MOL0     O64308   0.318   4.341   5.600 -0.6192  0.7635 -0.5244
  488MOL0     C64309   0.225   4.306   5.501  0.0713 -0.2286 -0.4351
  488MOL0     C64310   0.108   4.222   5.529 -0.2828  0.2665  0.8154
  488MOL0     C64311   0.029   4.180   5.428 -0.3839 -0.9719  0.1609
  488MOL0     C64312   0.038   4.220   5.292  0.7688 -0.2699  0.4666
  488MOL0     C64313  -0.075   4.190   5.193  0.4164 -0.2216 -0.3348
  488MOL0     O64314  -0.167   4.091   5.235  0.4121  0.2385 -0.0159
  488MOL0     C64315  -0.261   4.037   5.156  0.6421 -0.6825  0.3369
  488MOL0     C64316  -0.254   4.036   5.017  0.1034 -0.7343  0.5387
  488MOL0     C64317  -0.355   3.992   4.938  0.2541 -0.6215 -1.0117
  488MOL0     C64318  -0.467   3.940   4.998  0.5078  0.6526 -1.0211
  488MOL0     O64319  -0.562   3.883   4.921  0.6598 -0.1365  0.2446
  488MOL0     C64320  -0.689   3.853   4.974  0.4989 -0.3599  0.1098
  488MOL0     C64321  -0.792   3.808   4.875 -0.1923  0.1998  0.4023
  488MOL0     C64322  -0.790   3.896   4.752  0.1046  0.0104 -0.0022
  488MOL0     C64323  -0.899   3.846   4.653  0.2491 -0.1643  0.3946
  488MOL0     C64324  -0.923   3.933   4.533 -0.4171 -0.0486  0.7477
  488MOL0     C64325  -1.028   3.854   4.444 -0.7240 -0.6833  0.5830
  488MOL0     C64326  -0.962   3.736   4.374 -0.5722  0.2614  0.0363
  488MOL0     C64327  -0.834   3.769   4.299 -0.6115 -0.0052  0.7645
  488MOL0    Cl64328  -0.800   3.638   4.171 -0.0568 -0.3590  0.2675
  488MOL0     C64329  -0.476   3.938   5.143 -0.4669  0.3141 -0.0657
  488MOL0     C64330  -0.373   3.992   5.224 -0.2222 -0.3083  0.4262
  488MOL0     O64331  -0.087   4.263   5.093 -0.1353 -0.4076 -0.5672
  488MOL0     C64332   0.149   4.306   5.259  0.7538 -0.4043  0.0542
  488MOL0     C64333   0.237   4.348   5.366  1.2865  0.4560 -0.5475
  488MOL0     N64334   0.828   4.116   5.981 -0.3460 -0.6190  0.2438
  488MOL0     N64335   0.895   4.035   6.056  0.3314  0.5049  0.9528
  488MOL0     C64336   1.243   4.016   6.978 -0.6105  0.5530  0.6611
  488MOL0     C64337   1.326   4.069   7.072 -0.7760  0.4813 -0.3727
  488MOL0     C64338   1.540   4.177   7.447 -0.7641  0.5127  1.1195
  488MOL0     C64339   1.674   4.186   7.413 -0.8738  0.2695 -0.3802
  488MOL0     C64340   1.761   4.262   7.494 -0.6193 -0.2124  0.4929
  488MOL0     C64341   1.713   4.334   7.605 -0.0313 -0.1985 -1.2592
  488MOL0     O64342   1.792   4.410   7.694  0.7568 -0.1369 -0.4646
  488MOL0     C64343   1.932   4.407   7.683 -0.1305 -0.5309  0.0987
  488MOL0     C64344   1.982   4.500   7.791 -0.8600 -0.2968 -0.2974
  488MOL0     C64345   2.133   4.510   7.777  0.2414 -0.2039  0.2548
  488MOL0     C64346   2.194   4.568   7.900 -0.4152  0.1363  0.9346
  488MOL0     C64347   2.334   4.602   7.896 -0.1899 -0.3936 -0.5623
  488MOL0     C64348   2.447   4.644   7.884  0.7880 -0.7049  0.2344
  488MOL0     C64349   1.582   4.316   7.640  0.9398 -0.4493 -0.1803
  488MOL0     C64350   1.497   4.240   7.558  0.0410 -0.8302 -0.9356
  488MOL0     H64351   1.406   3.782   7.245  2.2816 -0.2482 -0.1771
  488MOL0     H64352   1.267   3.686   7.079  1.9933 -1.0165  1.2402
  488MOL0     H64353   0.968   3.913   6.979  0.8139  2.2682 -3.8473
  488MOL0     H64354   0.992   3.732   7.000  2.9063  0.4686  1.0768
  488MOL0     H64355   0.913   3.873   6.728 -2.6570  1.1166  0.0731
  488MOL0     H64356   0.810   3.785   6.839 -2.0583  3.6367 -3.1163
  488MOL0     H64357   0.948   3.590   6.813  1.3774 -1.0146 -0.5410
  488MOL0     H64358   1.051   3.670   6.700 -0.0210  0.1573  0.2512
  488MOL0     H64359   0.827   3.537   6.630 -1.8633  0.5076  0.3177
  488MOL0     H64360   0.741   3.677   6.656 -0.9023 -1.6086  0.7009
  488MOL0     H64361   0.971   3.657   6.458 -0.8762 -2.2495  1.6255
  488MOL0     H64362   0.913   3.815   6.521 -0.7258 -0.1569  2.9934
  488MOL0     H64363   0.674   3.748   6.433 -0.7627 -1.7349 -0.7183
  488MOL0     H64364   0.757   3.595   6.377 -1.6566 -0.3432  0.6272
  488MOL0     H64365   0.870   3.723   6.192  1.5722  1.5962  0.7351
  488MOL0     H64366   0.708   3.777   6.193  0.6677 -0.3026 -0.7494
  488MOL0     H64367   0.962   3.896   6.277 -0.8674 -0.3940 -1.3394
  488MOL0     H64368   0.819   3.950   6.367  1.3391 -0.7450  0.6190
  488MOL0     H64369   0.610   4.041   6.205 -0.2611 -1.8883 -0.7788
  488MOL0     H64370   0.636   4.314   5.983  3.5702 -1.8415 -2.5149
  488MOL0     H64371   0.513   4.203   6.066 -0.1104 -1.8223 -0.3046
  488MOL0     H64372   0.464   4.084   5.876 -1.8236  1.0047 -2.7948
  488MOL0     H64373   0.607   4.131   5.783 -1.3400 -0.7525 -1.3150
  488MOL0     H64374   0.394   4.333   5.875 -0.6664  0.9532 -1.4600
  488MOL0     H64375   0.520   4.361   5.750 -2.9428  3.2020  0.1602
  488MOL0     H64376   0.260   4.200   5.742  0.2142 -2.4540 -1.7238
  488MOL0     H64377   0.383   4.156   5.631 -0.0472  2.9167 -1.9689
  488MOL0     H64378   0.083   4.206   5.633  1.9814 -0.6044  1.2733
  488MOL0     H64379  -0.058   4.122   5.456 -2.1039  0.8770 -1.1156
  488MOL0     H64380  -0.167   4.070   4.961 -0.2064 -1.3608 -0.3467
  488MOL0     H64381  -0.365   3.999   4.830 -1.1633 -3.7405 -1.1992
  488MOL0     H64382  -0.723   3.944   5.025 -0.0505 -0.1466 -0.6267
  488MOL0     H64383  -0.684   3.766   5.040  0.4356 -0.3666  0.1054
  488MOL0     H64384  -0.892   3.816   4.918 -1.2789 -1.5216 -1.6104
  488MOL0     H64385  -0.776   3.703   4.850  4.4321 -0.1193  3.4968
  488MOL0     H64386  -0.692   3.914   4.707  0.7814  1.3204  1.8652
  488MOL0     H64387  -0.818   3.998   4.778  0.0810  0.1733 -0.6530
  488MOL0     H64388  -0.859   3.745   4.635  1.1021 -0.3035  2.6502
  488MOL0     H64389  -0.991   3.825   4.708  2.1443 -0.4104  3.7342
  488MOL0     H64390  -0.831   3.968   4.483  0.4785  1.9816  3.5696
  488MOL0     H64391  -0.959   4.028   4.574  1.0923  2.0984 -2.3933
  488MOL0     H64392  -1.075   3.920   4.372 -0.2631  1.0441  1.7907
  488MOL0     H64393  -1.109   3.808   4.502 -0.3799 -1.4463  0.4710
  488MOL0     H64394  -0.953   3.656   4.448  0.8051 -0.4546 -0.8488
  488MOL0     H64395  -1.021   3.683   4.298  1.0455 -1.1360 -0.3035
  488MOL0     H64396  -0.750   3.781   4.368  0.0579  0.9094 -0.1776
  488MOL0     H64397  -0.827   3.869   4.255 -0.3169  0.1716  1.2006
  488MOL0     H64398  -0.558   3.894   5.198 -0.9479  1.2990  0.0293
  488MOL0     H64399  -0.392   3.997   5.330 -1.1456 -0.2836  0.2711
  488MOL0     H64400   0.142   4.344   5.158  0.4073 -3.9936 -1.4433
  488MOL0     H64401   0.320   4.410   5.332  1.6950  0.8877  1.1316
  488MOL0     H64402   1.196   4.084   6.908 -0.9553 -0.7500 -0.4263
  488MOL0     H64403   1.341   4.176   7.067  1.3491  0.1705 -2.0626
  488MOL0     H64404   1.710   4.129   7.329 -3.1546 -1.7921 -0.0646
  488MOL0     H64405   1.864   4.268   7.460 -0.1161 -0.4260  1.9212
  488MOL0     H64406   1.964   4.446   7.586  1.5749 -0.0990  0.8041
  488MOL0     H64407   1.974   4.309   7.704 -1.4132 -1.3127 -0.8155
  488MOL0     H64408   1.937   4.596   7.763  0.3032 -0.4473 -3.0077
  488MOL0     H64409   1.949   4.461   7.888 -3.2583 -0.2532 -1.0326
  488MOL0     H64410   2.151   4.563   7.683  0.4736  1.6231  1.2854
  488MOL0     H64411   2.177   4.415   7.749  2.1543  0.1644  1.8090
  488MOL0     H64412   2.142   4.655   7.943  0.5132  0.1829  1.9992
  488MOL0     H64413   2.180   4.490   7.975  0.6630  1.1982  2.2674
  488MOL0     H64414   2.550   4.670   7.889  0.6018 -0.0742  0.9015
  488MOL0     H64415   1.539   4.376   7.720 -2.2682 -1.8922 -0.6664
  488MOL0     H64416   1.392   4.234   7.585  0.2871 -1.8027 -0.1415
  489MOL0     O64417   9.642  10.528   9.754  0.0546 -0.0736 -0.4686
  489MOL0     C64418   9.609  10.501   9.637 -0.3361 -0.0215  0.6474
  489MOL0     O64419   9.679  10.529   9.522 -1.0241 -0.0105 -0.2414
  489MOL0     C64420   9.807  10.589   9.547 -0.7523  0.1879 -0.0360
  489MOL0     C64421   9.815  10.726   9.575  0.1129 -0.3352  1.4456
  489MOL0     C64422   9.935  10.778   9.605 -0.0943  0.1251 -0.2716
  489MOL0     C64423  10.053  10.698   9.598 -0.9724  0.6113  0.1913
  489MOL0     O64424  10.187  10.735   9.621 -0.3378  0.1848 -0.1641
  489MOL0     C64425  10.219  10.866   9.650 -1.0195 -0.1385 -0.9805
  489MOL0     C64426  10.378  10.889   9.635  1.2412  0.0212 -0.3406
  489MOL0     C64427  10.430  10.934   9.498  0.3076 -0.0450  0.1982
  489MOL0     C64428  10.357  10.861   9.384  0.0071  0.2888  0.5807
  489MOL0     C64429  10.426  10.876   9.253 -0.8182  0.4054  0.3030
  489MOL0     C64430  10.322  10.850   9.146 -0.4893  0.1655  0.1633
  489MOL0     C64431  10.281  10.701   9.147 -0.6865 -0.0797 -0.1202
  489MOL0     C64432  10.217  10.675   9.011  0.3340  0.4826  0.0206
  489MOL0     N64433  10.141  10.549   9.018 -0.0823 -0.3689 -0.1591
  489MOL0     C64434  10.019  10.526   9.077 -0.5802 -0.4304  0.2591
  489MOL0     C64435   9.990  10.393   9.057  0.3078 -0.6247 -0.8344
  489MOL0     C64436   9.871  10.304   9.097 -1.4171  0.0102 -0.9169
  489MOL0     C64437   9.737  10.374   9.117 -0.8887  0.4928 -0.1268
  489MOL0     C64438   9.613  10.283   9.131  0.6053  0.5455  0.1213
  489MOL0     C64439   9.632  10.162   9.222  0.4648  0.0534 -0.2581
  489MOL0     O64440   9.506  10.120   9.282  0.1119 -0.9604 -0.0380
  489MOL0     C64441   9.405  10.067   9.200  0.2526 -0.1249  0.1977
  489MOL0     C64442   9.419  10.038   9.064 -0.1592  0.0992 -0.6619
  489MOL0     C64443   9.309   9.998   8.988 -0.1775  1.0071  1.2118
  489MOL0     C64444   9.183   9.986   9.045 -0.2633  0.6222 -0.2487
  489MOL0     C64445   9.059   9.951   8.969  0.3427 -1.0786  0.4029
  489MOL0     O64446   8.941   9.945   9.049 -0.1838 -0.7635 -0.0917
  489MOL0     C64447   8.816   9.913   8.994 -0.4509  0.2247 -0.5267
  489MOL0     C64448   8.707   9.870   9.082 -0.3421 -0.3970  0.6304
  489MOL0     C64449   8.588   9.833   9.022  0.4882  0.0684 -0.5994
  489MOL0     C64450   8.554   9.862   8.882 -0.4456  0.0138 -0.2619
  489MOL0     O64451   8.433   9.823   8.835  0.3828 -0.1983 -0.8305
  489MOL0     C64452   8.413   9.830   8.696  0.0123  0.2270 -0.1094
  489MOL0     C64453   8.270   9.788   8.652 -0.9640  0.3390 -0.1772
  489MOL0     C64454   8.162   9.879   8.725  0.1428  0.1624  0.7667
  489MOL0     C64455   8.020   9.846   8.697 -0.0018  0.3590 -0.4490
  489MOL0     C64456   7.974   9.695   8.729 -0.1042  0.9701  0.3160
  489MOL0     C64457   7.816   9.688   8.731  0.4996  0.1483  0.7718
  489MOL0     C64458   7.743   9.721   8.602  0.2367 -0.3806  0.0051
  489MOL0     C64459   7.595   9.683   8.622 -0.1911 -0.6623  0.4488
  489MOL0    Cl64460   7.576   9.522   8.562  0.7965  0.0204 -0.5065
  489MOL0     C64461   8.661   9.908   8.804 -0.3901 -0.2701  0.6238
  489MOL0     C64462   8.788   9.932   8.860  0.5990  0.1256 -0.2888
  489MOL0     O64463   9.066   9.913   8.854 -0.3120  0.3753 -0.3500
  489MOL0     C64464   9.176  10.011   9.188  0.5222  0.7795  0.7674
  489MOL0     C64465   9.285  10.052   9.259 -0.5945 -0.5277  0.9647
  489MOL0     N64466  10.083  10.349   8.970 -0.2921  0.6420  0.6171
  489MOL0     N64467  10.175  10.436   8.952  0.1819 -0.1211 -0.7011
  489MOL0     C64468  10.042  10.570   9.547  0.6719 -0.3852  0.4701
  489MOL0     C64469   9.922  10.510   9.529 -0.1276  0.0866 -0.9895
  489MOL0     C64470   9.478  10.434   9.613  0.5543 -0.3860  0.2929
  489MOL0     C64471   9.380  10.418   9.713  0.1156  0.2027  0.5428
  489MOL0     C64472   9.261  10.347   9.701  1.3278 -0.6706  0.2231
  489MOL0     C64473   9.216  10.312   9.570 -1.4606 -0.4293  0.7774
  489MOL0     O64474   9.100  10.251   9.540  0.8982 -0.9090  0.2590
  489MOL0     C64475   9.000  10.219   9.636 -0.5517  0.4636  0.1121
  489MOL0     C64476   8.893  10.136   9.565  0.2648 -0.9568  0.0337
  489MOL0     C64477   8.768  10.107   9.658  0.1650  0.3353 -0.1116
  489MOL0     C64478   8.687  10.244   9.678 -0.2959  0.1016 -0.2640
  489MOL0     C64479   8.545  10.240   9.705  0.7151  1.0331 -0.1177
  489MOL0     C64480   8.432  10.242   9.759 -0.1898 -0.2540  0.0936
  489MOL0     C64481   9.303  10.349   9.469  0.1402 -0.4299 -0.2675
  489MOL0     C64482   9.435  10.401   9.488  0.3829  0.0490  0.0211
  489MOL0     H64483   9.726  10.787   9.570  1.8057  2.2237 -0.2515
  489MOL0     H64484   9.936  10.885   9.621  1.2017  0.2476 -1.0336
  489MOL0     H64485  10.192  10.888   9.754 -0.4910  1.5990 -1.1810
  489MOL0     H64486  10.173  10.935   9.579 -0.8272  0.4022 -0.5888
  489MOL0     H64487  10.422  10.792   9.661  0.2445 -0.0845  1.1012
  489MOL0     H64488  10.418  10.956   9.712 -1.2925  2.2578 -0.8313
  489MOL0     H64489  10.539  10.931   9.502  0.4529  2.0920 -0.5362
  489MOL0     H64490  10.418  11.042   9.485  0.9556 -0.0222 -0.2043
  489MOL0     H64491  10.346  10.755   9.408  0.0030  0.0825 -0.2702
  489MOL0     H64492  10.259  10.907   9.369 -1.0938 -2.4143 -1.3533
  489MOL0     H64493  10.514  10.813   9.239  0.5347  1.6117  2.6873
  489MOL0     H64494  10.465  10.977   9.239  1.9883 -0.9196 -2.6061
  489MOL0     H64495  10.377  10.883   9.057 -1.8690  1.3160 -0.3082
  489MOL0     H64496  10.231  10.909   9.162 -1.0399 -0.7566  0.4825
  489MOL0     H64497  10.369  10.643   9.176 -1.1423  0.4921  2.7656
  489MOL0     H64498  10.203  10.684   9.222 -1.3811 -2.9619 -1.3480
  489MOL0     H64499  10.293  10.666   8.932 -1.1335 -3.3911 -1.1686
  489MOL0     H64500  10.157  10.763   8.985 -0.6983  0.6070  2.5661
  489MOL0     H64501   9.966  10.609   9.124 -2.2613  0.1952 -2.4843
  489MOL0     H64502   9.909  10.249   9.184  2.2127  0.0393 -2.3096
  489MOL0     H64503   9.848  10.234   9.016  3.6244  1.6276 -4.1854
  489MOL0     H64504   9.728  10.427   9.022 -2.4455 -1.0473 -0.9036
  489MOL0     H64505   9.730  10.453   9.192 -3.5547  3.0083 -2.7736
  489MOL0     H64506   9.527  10.341   9.167 -0.8377 -0.1182 -2.0819
  489MOL0     H64507   9.584  10.245   9.033 -2.9759  3.1907 -0.0588
  489MOL0     H64508   9.703  10.195   9.298 -2.2169  1.1242  1.9486
  489MOL0     H64509   9.676  10.077   9.168  0.8634 -0.8954  1.4775
  489MOL0     H64510   9.516  10.029   9.016  0.2930  0.9297  0.0650
  489MOL0     H64511   9.320   9.977   8.882 -1.2914 -0.5543  1.3843
  489MOL0     H64512   8.727   9.863   9.189  1.5187 -4.0937  0.2052
  489MOL0     H64513   8.514   9.795   9.092  1.7268 -0.8966  0.2266
  489MOL0     H64514   8.489   9.762   8.656  1.1394  0.2561  1.8801
  489MOL0     H64515   8.430   9.928   8.652 -0.1322  0.2744 -0.0625
  489MOL0     H64516   8.254   9.681   8.665  0.3440 -0.0396 -1.4106
  489MOL0     H64517   8.266   9.795   8.543 -1.1848  0.4649 -0.1625
  489MOL0     H64518   8.180   9.984   8.701 -1.0839 -0.0648 -1.3879
  489MOL0     H64519   8.173   9.859   8.832  0.4208  1.9746  1.1053
  489MOL0     H64520   7.963   9.915   8.761  2.8965  1.2501  1.3291
  489MOL0     H64521   7.994   9.876   8.595  2.1275  0.2279 -1.0645
  489MOL0     H64522   8.008   9.659   8.827 -1.4385 -1.1653  0.0677
  489MOL0     H64523   8.002   9.634   8.643 -2.0965  1.7540 -0.9557
  489MOL0     H64524   7.784   9.755   8.812  0.0156 -1.6471  2.1284
  489MOL0     H64525   7.788   9.587   8.762 -0.2900 -0.0157 -0.4020
  489MOL0     H64526   7.743   9.829   8.583 -3.6587  0.0116  1.2242
  489MOL0     H64527   7.788   9.672   8.516 -1.6733  1.0391 -1.8922
  489MOL0     H64528   7.535   9.750   8.560 -1.9595 -0.9656  1.7517
  489MOL0     H64529   7.556   9.705   8.722 -0.4928 -0.3212  0.2571
  489MOL0     H64530   8.646   9.940   8.702  0.8486  2.7007  1.2410
  489MOL0     H64531   8.854   9.983   8.790  2.7968 -1.8434  0.1940
  489MOL0     H64532   9.084   9.990   9.243 -0.5418 -1.6182 -1.7075
  489MOL0     H64533   9.285  10.056   9.367  0.3640  3.1389  0.9356
  489MOL0     H64534  10.126  10.511   9.511 -0.6289 -2.0901  0.1209
  489MOL0     H64535   9.927  10.408   9.491  1.7272 -1.0671  2.0392
  489MOL0     H64536   9.405  10.466   9.807 -1.6518  1.1453  0.5874
  489MOL0     H64537   9.205  10.329   9.792  1.0260  1.5502  0.5402
  489MOL0     H64538   8.960  10.310   9.681  2.1018  2.4383 -1.2280
  489MOL0     H64539   9.047  10.157   9.714 -1.2566 -0.6139 -0.2951
  489MOL0     H64540   8.859  10.186   9.473  0.4846 -1.8284 -0.5315
  489MOL0     H64541   8.931  10.043   9.522  2.5903  0.9374 -2.3256
  489MOL0     H64542   8.789  10.069   9.758 -2.7467  0.4140  0.6071
  489MOL0     H64543   8.692  10.045   9.610  0.9857 -0.9074  0.1619
  489MOL0     H64544   8.729  10.293   9.767 -0.7300 -1.2955  0.7419
  489MOL0     H64545   8.703  10.316   9.597 -2.7460  0.3924 -0.5588
  489MOL0     H64546   8.336  10.232   9.806  0.4287  1.0524  1.7418
  489MOL0     H64547   9.274  10.330   9.366 -1.9512  3.5879 -0.6154
  489MOL0     H64548   9.495  10.423   9.400  1.5095  1.6788  1.1381
  490MOL0     O64549   9.411   7.379   8.023  0.7298  0.2281  0.0116
  490MOL0     C64550   9.320   7.333   8.094  0.3868  0.0571 -0.7860
  490MOL0     O64551   9.216   7.264   8.048  0.5260 -0.2065  0.7353
  490MOL0     C64552   9.195   7.232   7.915  0.1010 -0.2273  0.9787
  490MOL0     C64553   9.296   7.203   7.826 -0.7848  0.3405 -0.0400
  490MOL0     C64554   9.268   7.204   7.681  0.1772 -0.2282 -0.4802
  490MOL0     C64555   9.126   7.204   7.646 -0.1406 -0.2517  0.0475
  490MOL0     O64556   9.075   7.199   7.513 -0.0274  0.7187 -0.3621
  490MOL0     C64557   9.167   7.172   7.414  0.0192  0.0315 -1.1374
  490MOL0     C64558   9.091   7.123   7.289 -0.2017  0.6216  0.0659
  490MOL0     C64559   8.957   7.201   7.258 -1.0348  0.6012  0.3150
  490MOL0     C64560   8.883   7.143   7.141 -0.5254 -0.5483  0.4226
  490MOL0     C64561   8.755   7.221   7.099 -0.2597 -0.0461  0.6543
  490MOL0     C64562   8.675   7.155   6.980  0.1227 -0.4571 -0.1281
  490MOL0     C64563   8.543   7.233   6.961  1.0648  0.4793  0.5541
  490MOL0     C64564   8.424   7.137   6.906  0.0015 -0.2264  0.0584
  490MOL0     N64565   8.395   7.028   7.008  0.2890 -0.1390  0.2291
  490MOL0     C64566   8.401   7.042   7.143  0.1027  0.8440 -0.3896
  490MOL0     C64567   8.382   6.915   7.194 -0.2467 -0.7328 -0.3824
  490MOL0     C64568   8.358   6.895   7.345 -0.6394 -0.2492 -0.5864
  490MOL0     C64569   8.287   6.752   7.362  0.0772 -0.4698  0.0550
  490MOL0     C64570   8.244   6.718   7.506 -0.3255  0.4826 -1.0201
  490MOL0     C64571   8.141   6.806   7.560  0.1705 -0.0661  0.0162
  490MOL0     O64572   8.051   6.737   7.637 -0.5290 -0.0635 -0.4114
  490MOL0     C64573   7.925   6.715   7.587 -0.9166 -0.4258 -0.1294
  490MOL0     C64574   7.849   6.817   7.568 -0.0773  0.2641 -0.7872
  490MOL0     C64575   7.723   6.799   7.519 -0.1177  0.3985  0.3264
  490MOL0     C64576   7.671   6.670   7.483  0.4297 -0.1476 -0.4803
  490MOL0     C64577   7.525   6.653   7.441  0.5738 -0.4588  0.0357
  490MOL0     O64578   7.473   6.526   7.455  0.4177 -0.9275  0.7962
  490MOL0     C64579   7.357   6.487   7.394 -0.8979  0.7438  0.0028
  490MOL0     C64580   7.328   6.517   7.260 -0.5487 -0.6361 -0.1511
  490MOL0     C64581   7.209   6.475   7.207  1.3676  0.2189  0.6021
  490MOL0     C64582   7.120   6.385   7.273 -0.4688 -0.4481 -0.2570
  490MOL0     O64583   7.003   6.341   7.217  0.2146  0.0717 -0.4455
  490MOL0     C64584   6.902   6.438   7.245  1.1818  0.6662 -0.0561
  490MOL0     C64585   6.784   6.388   7.174  1.1464  1.0773  0.2346
  490MOL0     C64586   6.674   6.495   7.144  0.7340  0.1473  0.0849
  490MOL0     C64587   6.546   6.425   7.081  0.2459 -0.2876 -0.2946
  490MOL0     C64588   6.453   6.513   6.997 -0.8085  0.4246 -0.0438
  490MOL0     C64589   6.528   6.581   6.880  0.4513  0.0209 -0.6680
  490MOL0     C64590   6.428   6.631   6.780  0.4203  1.9193  0.3794
  490MOL0     C64591   6.466   6.773   6.726 -0.9498 -0.3120  0.2191
  490MOL0    Cl64592   6.369   6.821   6.589 -0.0524 -0.0284 -0.4772
  490MOL0     C64593   7.148   6.348   7.404  0.1996  0.6406 -0.1526
  490MOL0     C64594   7.273   6.395   7.461  0.2346 -0.0251 -0.6482
  490MOL0     O64595   7.462   6.752   7.405 -0.4786  0.4719  0.1090
  490MOL0     C64596   7.750   6.560   7.520  0.6850  0.4673 -0.3067
  490MOL0     C64597   7.879   6.579   7.562  0.0971 -0.2433  0.4652
  490MOL0     N64598   8.391   6.828   7.092 -0.3079 -0.7243 -0.0422
  490MOL0     N64599   8.401   6.895   6.984 -0.0786  0.5619 -0.6440
  490MOL0     C64600   9.024   7.232   7.742  0.5254 -0.4131  0.3898
  490MOL0     C64601   9.054   7.237   7.876 -0.5115 -0.1229  0.0502
  490MOL0     C64602   9.340   7.356   8.239 -0.1632  0.0339 -0.4495
  490MOL0     C64603   9.246   7.318   8.345 -0.6982  0.6384  0.1671
  490MOL0     C64604   9.267   7.353   8.476 -0.6800 -0.0152  0.6047
  490MOL0     C64605   9.382   7.411   8.514 -0.4663  0.7494  0.3303
  490MOL0     O64606   9.399   7.444   8.645 -0.5194  0.4177 -0.1221
  490MOL0     C64607   9.506   7.521   8.700 -0.1993 -0.7938 -0.7349
  490MOL0     C64608   9.626   7.431   8.727 -0.8303  1.0892 -0.2009
  490MOL0     C64609   9.599   7.335   8.841  0.3841  0.3883 -0.6734
  490MOL0     C64610   9.691   7.213   8.838  0.2357 -0.4706  0.5823
  490MOL0     C64611   9.619   7.117   8.915  0.1547 -0.0790  0.2531
  490MOL0     C64612   9.544   7.059   8.995 -0.4845  0.0263  0.0758
  490MOL0     C64613   9.474   7.442   8.416 -1.0345 -0.4493 -0.8586
  490MOL0     C64614   9.458   7.415   8.284 -0.0833 -0.5802 -0.4050
  490MOL0     H64615   9.398   7.181   7.856 -0.3738  3.1477  0.9270
  490MOL0     H64616   9.352   7.191   7.614  0.6310 -0.5193  0.1351
  490MOL0     H64617   9.232   7.091   7.446 -0.2587  1.0792  2.4657
  490MOL0     H64618   9.220   7.266   7.393 -0.1443  0.5948  0.7920
  490MOL0     H64619   9.061   7.020   7.309  0.6524 -0.2971 -2.8464
  490MOL0     H64620   9.145   7.110   7.194 -0.4051  0.2301  0.0014
  490MOL0     H64621   8.985   7.305   7.242 -0.4610  0.9675  3.1409
  490MOL0     H64622   8.896   7.198   7.349 -1.0312  1.2665  0.3439
  490MOL0     H64623   8.955   7.159   7.060  0.7771  1.6609  1.9286
  490MOL0     H64624   8.858   7.038   7.158 -0.0664 -0.5713  0.9600
  490MOL0     H64625   8.781   7.326   7.084  2.9394 -0.8993 -0.3730
  490MOL0     H64626   8.681   7.230   7.180 -1.4254 -1.2429 -0.2253
  490MOL0     H64627   8.649   7.053   7.010 -1.7079  0.0294  0.0236
  490MOL0     H64628   8.719   7.153   6.879 -2.4253  0.6613 -1.3443
  490MOL0     H64629   8.509   7.282   7.053  0.0846  0.5431  0.1781
  490MOL0     H64630   8.570   7.312   6.891 -1.7355 -0.2408 -1.5438
  490MOL0     H64631   8.455   7.085   6.816 -0.5298  1.6450 -1.2605
  490MOL0     H64632   8.338   7.198   6.877  1.4787  0.8755 -2.3115
  490MOL0     H64633   8.421   7.133   7.199 -0.2685  1.0773 -0.6326
  490MOL0     H64634   8.299   6.971   7.398 -0.3116 -0.4928  0.1490
  490MOL0     H64635   8.456   6.897   7.395 -1.1640 -1.6634  0.5800
  490MOL0     H64636   8.358   6.675   7.330  0.5276 -1.2183  2.5601
  490MOL0     H64637   8.204   6.749   7.291 -1.0309  1.3750  1.1918
  490MOL0     H64638   8.205   6.616   7.501  2.2761 -0.5969 -0.5450
  490MOL0     H64639   8.326   6.730   7.577 -0.9480  1.8043 -0.4857
  490MOL0     H64640   8.085   6.859   7.482 -2.3188 -1.2840  0.8688
  490MOL0     H64641   8.195   6.881   7.619  0.3645  2.0636 -2.6434
  490MOL0     H64642   7.876   6.920   7.592 -1.5057  1.1784 -2.8510
  490MOL0     H64643   7.659   6.886   7.514  0.1998  0.6658  0.8629
  490MOL0     H64644   7.395   6.575   7.197 -0.7774 -0.9415 -0.6875
  490MOL0     H64645   7.176   6.498   7.106 -0.0119 -3.8035 -0.0887
  490MOL0     H64646   6.931   6.541   7.223  2.3722  0.1281 -1.1441
  490MOL0     H64647   6.890   6.440   7.354 -0.2191 -0.3335 -0.1609
  490MOL0     H64648   6.734   6.307   7.228  2.6603 -2.8438 -3.6683
  490MOL0     H64649   6.818   6.352   7.077 -3.9898 -0.0211 -1.4394
  490MOL0     H64650   6.708   6.562   7.065 -1.5237 -0.8450 -1.8406
  490MOL0     H64651   6.639   6.548   7.233  1.1218 -0.9067  0.8848
  490MOL0     H64652   6.570   6.338   7.019 -0.5622 -0.6263 -0.1534
  490MOL0     H64653   6.481   6.387   7.161  1.2659 -1.2286  0.1025
  490MOL0     H64654   6.410   6.595   7.054 -3.3373 -0.1428 -1.0109
  490MOL0     H64655   6.380   6.444   6.953 -1.7388  0.7029  1.0472
  490MOL0     H64656   6.588   6.508   6.823  0.7132 -0.2132 -0.0991
  490MOL0     H64657   6.596   6.662   6.908  0.3806 -1.2115  3.6436
  490MOL0     H64658   6.415   6.553   6.705 -1.7595  1.2308  1.3862
  490MOL0     H64659   6.328   6.650   6.822 -0.8090 -1.8884 -0.4314
  490MOL0     H64660   6.573   6.768   6.706 -1.0356 -0.9203 -0.1177
  490MOL0     H64661   6.463   6.847   6.806  1.0404 -1.6289  1.5965
  490MOL0     H64662   7.082   6.281   7.459  0.9239 -0.5238 -0.6608
  490MOL0     H64663   7.286   6.358   7.562 -1.9128  0.9000  0.0444
  490MOL0     H64664   7.730   6.454   7.505  2.8675  0.1778 -1.6830
  490MOL0     H64665   7.950   6.499   7.580  0.8326 -0.2351 -1.9826
  490MOL0     H64666   8.922   7.241   7.708  0.7704  0.0060 -0.2631
  490MOL0     H64667   8.990   7.262   7.960  2.3117  2.7470  1.5453
  490MOL0     H64668   9.150   7.278   8.316 -0.2407 -0.4355  0.0734
  490MOL0     H64669   9.187   7.337   8.548 -1.2743 -0.9272 -0.2507
  490MOL0     H64670   9.464   7.570   8.789  0.0129  0.7640 -1.4649
  490MOL0     H64671   9.540   7.597   8.629  0.3645 -0.9392 -0.6212
  490MOL0     H64672   9.653   7.378   8.635  0.9509  0.4517  0.6457
  490MOL0     H64673   9.716   7.480   8.764 -0.7207  1.0159 -0.3680
  490MOL0     H64674   9.494   7.303   8.844  1.0437 -1.9433  0.0798
  490MOL0     H64675   9.625   7.386   8.934  1.0590 -1.2057  0.0517
  490MOL0     H64676   9.697   7.181   8.734 -0.5295 -0.4981  0.5410
  490MOL0     H64677   9.791   7.233   8.878 -0.1485 -2.0594  2.4603
  490MOL0     H64678   9.481   7.016   9.070 -0.5045  0.0043  0.0474
  490MOL0     H64679   9.572   7.477   8.445 -0.7648  0.0132 -2.2234
  490MOL0     H64680   9.538   7.455   8.223  0.1800  0.2921  0.4758
  491MOL0     O64681   6.354   1.455  10.539  0.0479  0.0183 -0.4291
  491MOL0     C64682   6.464   1.397  10.536 -0.6823 -0.5580 -0.5528
  491MOL0     O64683   6.503   1.300  10.625  0.5397  0.5622  0.2196
  491MOL0     C64684   6.426   1.253  10.729 -0.1499  0.3278 -0.5339
  491MOL0     C64685   6.501   1.183  10.834  0.7825  0.2778  0.0647
  491MOL0     C64686   6.432   1.127  10.946  0.3886 -0.3141 -0.2073
  491MOL0     C64687   6.292   1.138  10.960 -0.7726 -0.0143 -0.6622
  491MOL0     O64688   6.238   1.082  11.076  0.0165 -0.6796 -0.4673
  491MOL0     C64689   6.095   1.085  11.102 -0.7304  0.1743  0.2842
  491MOL0     C64690   6.024   0.983  11.012  0.2186  0.1161 -0.9387
  491MOL0     C64691   5.876   0.978  11.007 -0.2658  0.5485  0.1120
  491MOL0     C64692   5.841   0.864  10.912  0.0274  0.9997 -0.3510
  491MOL0     C64693   5.688   0.861  10.882 -0.4116 -0.4067 -0.3145
  491MOL0     C64694   5.647   0.905  10.740 -0.1179  0.0836 -0.0800
  491MOL0     C64695   5.659   1.046  10.707  0.1850  0.0036 -0.1785
  491MOL0     C64696   5.606   1.148  10.813  0.5003 -0.1848 -0.1976
  491MOL0     N64697   5.460   1.138  10.834  0.5033  1.0842  0.7781
  491MOL0     C64698   5.398   1.191  10.944 -0.7510  0.4482  0.2597
  491MOL0     C64699   5.264   1.184  10.911  0.5951 -0.6253  0.4730
  491MOL0     C64700   5.169   1.266  10.993  0.9895 -0.6776  0.1208
  491MOL0     C64701   5.018   1.233  10.965 -0.3817 -0.2070  0.0605
  491MOL0     C64702   4.913   1.298  11.059 -0.2610 -0.6821 -0.1266
  491MOL0     C64703   4.892   1.232  11.191 -0.3512  0.0455  0.5983
  491MOL0     O64704   4.828   1.107  11.166  0.0261  0.7069  0.3707
  491MOL0     C64705   4.692   1.089  11.154 -0.6718  0.5639  0.4417
  491MOL0     C64706   4.645   0.963  11.117  0.1365  0.0402 -0.1514
  491MOL0     C64707   4.506   0.939  11.091  0.0359 -0.6764 -0.1149
  491MOL0     C64708   4.414   1.048  11.095  0.3528  0.1238  0.3149
  491MOL0     C64709   4.268   1.036  11.057 -0.1707  0.1242  0.4561
  491MOL0     O64710   4.213   0.908  11.069 -1.0642 -0.1320 -0.1646
  491MOL0     C64711   4.095   0.877  11.005 -0.1986  0.5846 -0.6042
  491MOL0     C64712   4.101   0.789  10.895  1.2140  0.3926  1.2404
  491MOL0     C64713   3.988   0.762  10.822 -0.0402  0.2698  0.8519
  491MOL0     C64714   3.861   0.813  10.859 -0.3538  0.5230 -0.4698
  491MOL0     O64715   3.745   0.780  10.792 -0.6654  0.0765 -0.2936
  491MOL0     C64716   3.745   0.703  10.667  0.1817  0.3606 -0.4855
  491MOL0     C64717   3.610   0.693  10.611 -0.2369  0.0499 -0.5373
  491MOL0     C64718   3.550   0.556  10.652 -0.5204  0.1628 -0.6419
  491MOL0     C64719   3.529   0.537  10.803  0.2977  0.2670 -0.6938
  491MOL0     C64720   3.458   0.652  10.875  0.2785 -0.0247  0.1109
  491MOL0     C64721   3.307   0.672  10.837  0.5957  0.9474  1.0721
  491MOL0     C64722   3.212   0.551  10.880  1.1763 -0.3372  0.4688
  491MOL0     C64723   3.188   0.519  11.028 -0.3081  0.1099  0.3146
  491MOL0    Cl64724   3.092   0.363  11.057  0.1083  0.0494 -0.1309
  491MOL0     C64725   3.861   0.906  10.963 -1.1340  1.0122 -0.4200
  491MOL0     C64726   3.970   0.932  11.037  0.2102 -0.3123 -1.8190
  491MOL0     O64727   4.215   1.135  11.018 -0.4312 -0.2535 -0.5097
  491MOL0     C64728   4.467   1.173  11.122 -0.2207 -0.2584 -0.2034
  491MOL0     C64729   4.597   1.192  11.159 -0.8251  0.3448 -0.0327
  491MOL0     N64730   5.245   1.122  10.791 -1.4142 -0.5013  0.2139
  491MOL0     N64731   5.363   1.108  10.738  0.8856 -0.3187 -0.6429
  491MOL0     C64732   6.222   1.212  10.861 -0.1713 -0.1066 -0.3102
  491MOL0     C64733   6.288   1.263  10.746 -0.1898 -0.5977 -0.3316
  491MOL0     C64734   6.579   1.466  10.462  0.3577 -0.4560  0.6832
  491MOL0     C64735   6.705   1.403  10.455  0.5235  0.1050 -0.1956
  491MOL0     C64736   6.811   1.470  10.396  0.2482  0.4312 -0.4399
  491MOL0     C64737   6.804   1.607  10.349  0.9331  0.1637 -0.0442
  491MOL0     O64738   6.909   1.677  10.292  0.4971 -0.6175 -0.3626
  491MOL0     C64739   6.995   1.740  10.394  0.9387 -0.0291  0.6117
  491MOL0     C64740   7.101   1.657  10.453 -0.6737  0.3704  0.0392
  491MOL0     C64741   7.198   1.596  10.350  0.1737 -0.2346  0.5527
  491MOL0     C64742   7.289   1.701  10.277  0.2469  0.4255 -0.9382
  491MOL0     C64743   7.405   1.633  10.227 -1.0137  0.5740 -0.3174
  491MOL0     C64744   7.494   1.567  10.180  0.2442  0.1059  0.1549
  491MOL0     C64745   6.670   1.661  10.353 -0.3735 -0.1998  0.3580
  491MOL0     C64746   6.564   1.598  10.415  0.3099 -0.3111  0.5974
  491MOL0     H64747   6.608   1.168  10.837  0.7457  0.1234  2.0608
  491MOL0     H64748   6.486   1.091  11.033 -2.3944 -0.8928  1.3868
  491MOL0     H64749   6.047   1.181  11.079 -1.0056  0.5861  2.3985
  491MOL0     H64750   6.090   1.076  11.211  0.7076  1.3989  0.4700
  491MOL0     H64751   6.065   0.886  11.042 -1.3580 -0.2840  0.0581
  491MOL0     H64752   6.053   1.000  10.908 -0.1342 -1.5059 -1.3238
  491MOL0     H64753   5.844   1.076  10.969  1.6173  1.5093  0.8450
  491MOL0     H64754   5.828   0.973  11.104 -1.1333 -0.3487 -0.3521
  491MOL0     H64755   5.903   0.874  10.822  0.2229 -0.1917 -0.3573
  491MOL0     H64756   5.850   0.761  10.947 -1.9301  0.6515 -0.7621
  491MOL0     H64757   5.637   0.918  10.959 -0.2814  0.7289 -1.0388
  491MOL0     H64758   5.666   0.753  10.877  1.4875 -0.7920 -1.1760
  491MOL0     H64759   5.544   0.878  10.715 -0.7127  2.2727 -0.1999
  491MOL0     H64760   5.709   0.857  10.664  1.7176 -0.4266  1.6606
  491MOL0     H64761   5.763   1.078  10.705 -0.0303  0.7573  0.0723
  491MOL0     H64762   5.615   1.070  10.610 -0.0850  1.3752  0.2655
  491MOL0     H64763   5.627   1.251  10.782  0.8535 -0.2712 -0.2443
  491MOL0     H64764   5.654   1.140  10.911  0.4531  0.8450 -0.0776
  491MOL0     H64765   5.440   1.221  11.039 -3.2781  2.2792  0.9198
  491MOL0     H64766   5.189   1.372  10.975  3.7506 -1.5553 -2.7062
  491MOL0     H64767   5.199   1.240  11.095 -1.0277  0.6022  1.1184
  491MOL0     H64768   5.013   1.125  10.975 -0.6955 -0.2764 -0.7227
  491MOL0     H64769   4.997   1.262  10.861  2.0306 -3.8996 -1.6318
  491MOL0     H64770   4.956   1.395  11.083 -1.1955  0.1636 -1.7408
  491MOL0     H64771   4.813   1.310  11.016 -0.3348  2.0245  0.6226
  491MOL0     H64772   4.844   1.309  11.253 -1.7679  0.0266 -0.4175
  491MOL0     H64773   4.990   1.229  11.238 -0.7614  2.8094  1.8185
  491MOL0     H64774   4.719   0.886  11.098  0.8455  0.4774  0.7632
  491MOL0     H64775   4.483   0.836  11.067  1.7116 -1.3005  0.8284
  491MOL0     H64776   4.200   0.755  10.866  0.1052 -0.3855 -2.1202
  491MOL0     H64777   3.997   0.685  10.746  1.5360  1.5377 -0.2859
  491MOL0     H64778   3.783   0.604  10.695 -1.6119 -0.3119 -0.3039
  491MOL0     H64779   3.809   0.750  10.591  1.7862 -0.8373  0.0638
  491MOL0     H64780   3.625   0.696  10.502 -2.0585  2.4859 -0.7976
  491MOL0     H64781   3.537   0.767  10.644 -0.4369 -0.6599  0.6910
  491MOL0     H64782   3.619   0.476  10.624  0.3466  0.6175  0.1064
  491MOL0     H64783   3.456   0.536  10.600 -0.1018 -3.9992 -0.0981
  491MOL0     H64784   3.474   0.444  10.822  4.6612 -2.6100 -0.7697
  491MOL0     H64785   3.622   0.518  10.857 -0.4128  0.2217  0.5585
  491MOL0     H64786   3.509   0.746  10.854  1.0097 -0.5885 -0.6824
  491MOL0     H64787   3.454   0.633  10.983  0.2279  1.5868  0.4214
  491MOL0     H64788   3.308   0.676  10.728 -1.4038  2.4779  1.0734
  491MOL0     H64789   3.265   0.762  10.881  0.3003  1.8527 -0.9386
  491MOL0     H64790   3.115   0.575  10.834  1.0926  2.2658  1.8046
  491MOL0     H64791   3.242   0.461  10.827  3.3781  0.6154 -0.0223
  491MOL0     H64792   3.136   0.604  11.073 -0.4275  1.3485 -2.0148
  491MOL0     H64793   3.285   0.504  11.076  0.4690  0.2933 -1.1557
  491MOL0     H64794   3.770   0.959  10.989 -0.4534 -0.3595  6.6492
  491MOL0     H64795   3.963   1.006  11.117 -1.1334 -0.5140 -1.7216
  491MOL0     H64796   4.407   1.262  11.111 -0.9094 -0.7982 -0.9721
  491MOL0     H64797   4.627   1.295  11.177 -0.7707  0.3986 -0.4164
  491MOL0     H64798   6.117   1.230  10.880  0.2074  0.6163  1.2174
  491MOL0     H64799   6.220   1.315  10.679 -1.7677  0.9800  2.3195
  491MOL0     H64800   6.708   1.308  10.507  0.9906  0.0052 -0.4041
  491MOL0     H64801   6.899   1.408  10.404 -1.5162 -2.0388  1.4267
  491MOL0     H64802   6.925   1.770  10.473  0.8571 -2.7128  1.6863
  491MOL0     H64803   7.029   1.831  10.345 -2.0355  0.1542 -1.4016
  491MOL0     H64804   7.146   1.709  10.538 -0.5221  0.0460  0.1593
  491MOL0     H64805   7.058   1.569  10.502 -2.0321  2.1685  2.2300
  491MOL0     H64806   7.137   1.535  10.283  1.5463 -2.2497  1.0653
  491MOL0     H64807   7.271   1.538  10.406  1.6058  0.6796 -0.2848
  491MOL0     H64808   7.228   1.736  10.193  1.5964 -0.4363 -2.3500
  491MOL0     H64809   7.309   1.789  10.338  0.9163 -0.1572 -0.2987
  491MOL0     H64810   7.577   1.514  10.139  1.1136  2.1699 -0.9470
  491MOL0     H64811   6.654   1.762  10.315 -0.1866  0.2775  1.5167
  491MOL0     H64812   6.477   1.659  10.435  0.4408  0.3531 -0.7195
  492MOL0     O64813   1.519   2.401   4.638  0.2484  0.8402 -0.0313
  492MOL0     C64814   1.427   2.481   4.613  0.2942  0.0900 -0.2131
  492MOL0     O64815   1.385   2.585   4.690 -0.5824  0.0540  0.1973
  492MOL0     C64816   1.449   2.609   4.813  0.5934 -0.4009 -0.9622
  492MOL0     C64817   1.587   2.598   4.838  0.6560 -0.8328  0.2362
  492MOL0     C64818   1.635   2.628   4.970 -0.6029 -0.7696 -0.0153
  492MOL0     C64819   1.559   2.669   5.082  0.5642 -0.4408 -0.3526
  492MOL0     O64820   1.622   2.698   5.199  0.3394 -0.4789 -0.4476
  492MOL0     C64821   1.591   2.831   5.236 -0.4866 -0.2650  0.0646
  492MOL0     C64822   1.681   2.868   5.347 -0.3435  0.3889  0.1977
  492MOL0     C64823   1.619   2.991   5.426 -0.9249  0.4714 -0.1202
  492MOL0     C64824   1.699   3.029   5.546 -0.2560 -0.1737 -0.3430
  492MOL0     C64825   1.667   3.166   5.616  0.3320  0.6699  0.5531
  492MOL0     C64826   1.545   3.148   5.699 -0.1543 -0.5491 -0.2623
  492MOL0     C64827   1.534   3.287   5.775  0.0137 -0.5954 -0.5691
  492MOL0     C64828   1.584   3.277   5.918 -0.4986 -0.3266  0.1104
  492MOL0     N64829   1.586   3.404   5.996 -0.6270 -0.2359  0.4060
  492MOL0     C64830   1.470   3.450   6.068 -1.0701 -1.3425 -0.5278
  492MOL0     C64831   1.516   3.561   6.144  0.4128  0.5575  0.4971
  492MOL0     C64832   1.459   3.661   6.232 -0.0785  0.1870 -0.4375
  492MOL0     C64833   1.321   3.713   6.193 -0.3426  0.5911 -0.5404
  492MOL0     C64834   1.331   3.795   6.074 -0.5248  0.4672  0.4163
  492MOL0     C64835   1.197   3.795   6.000 -0.1536 -0.3949  0.4157
  492MOL0     O64836   1.170   3.660   5.958  0.3855  0.0563  0.2160
  492MOL0     C64837   1.049   3.634   5.899  0.2873  1.3378  0.8383
  492MOL0     C64838   1.039   3.504   5.843 -0.0779 -1.2089 -1.0373
  492MOL0     C64839   0.924   3.473   5.767 -0.5543 -0.4592  1.0498
  492MOL0     C64840   0.814   3.561   5.759 -0.2586 -0.0442  0.4811
  492MOL0     C64841   0.687   3.525   5.687  0.0057  1.3808 -0.2437
  492MOL0     O64842   0.686   3.402   5.627 -0.2960  0.9411  0.3331
  492MOL0     C64843   0.579   3.358   5.572  0.4380 -0.1216 -0.2383
  492MOL0     C64844   0.584   3.327   5.442  0.5000 -0.3144  0.4820
  492MOL0     C64845   0.473   3.272   5.381 -0.7885  0.8342  0.2882
  492MOL0     C64846   0.353   3.236   5.457 -0.1145  0.0644 -0.3959
  492MOL0     O64847   0.247   3.167   5.402  0.0321  0.3732  0.1998
  492MOL0     C64848   0.207   3.226   5.272 -0.0506  0.2382  0.4101
  492MOL0     C64849   0.107   3.135   5.196  0.0334  0.2723  0.1382
  492MOL0     C64850   0.044   3.216   5.082 -0.5552  0.5625  0.6620
  492MOL0     C64851  -0.074   3.136   5.040 -0.6814  0.8684 -0.0114
  492MOL0     C64852  -0.148   3.199   4.920 -0.3519  0.0755 -0.7281
  492MOL0     C64853  -0.215   3.084   4.854  0.4731 -0.7241 -0.2470
  492MOL0     C64854  -0.293   3.130   4.724 -0.5952 -0.2208  0.1812
  492MOL0     C64855  -0.332   2.997   4.654  0.6445  1.0531  0.1208
  492MOL0    Cl64856  -0.445   3.032   4.525  0.3237  0.0912 -0.2276
  492MOL0     C64857   0.345   3.272   5.592 -0.1235 -0.8563 -0.2343
  492MOL0     C64858   0.462   3.338   5.646  0.2520  0.7572 -0.2044
  492MOL0     O64859   0.595   3.599   5.678 -0.6288 -0.4164  0.1500
  492MOL0     C64860   0.819   3.677   5.830 -0.5323 -0.4014  0.0022
  492MOL0     C64861   0.934   3.721   5.891 -0.4895 -0.0753 -1.1448
  492MOL0     N64862   1.651   3.573   6.104 -0.9450 -0.5937 -0.1194
  492MOL0     N64863   1.691   3.481   6.030  0.3729  0.0537  0.4881
  492MOL0     C64864   1.418   2.664   5.059 -0.2282  0.4995 -0.3753
  492MOL0     C64865   1.370   2.640   4.927  0.2945  0.4756  0.3912
  492MOL0     C64866   1.347   2.460   4.486  1.0253 -0.1538 -0.7183
  492MOL0     C64867   1.259   2.556   4.435  1.2840 -1.1611 -0.9163
  492MOL0     C64868   1.206   2.545   4.301  0.5310 -0.3897  0.3574
  492MOL0     C64869   1.233   2.438   4.213 -0.1605  0.1445 -0.2274
  492MOL0     O64870   1.197   2.435   4.082 -0.4382  0.3277  0.4895
  492MOL0     C64871   1.118   2.545   4.019 -0.3822  0.3970 -0.4181
  492MOL0     C64872   1.098   2.520   3.873  0.2516 -0.7080  0.2040
  492MOL0     C64873   1.014   2.631   3.809 -0.1595 -0.3274  0.5032
  492MOL0     C64874   1.019   2.641   3.660  0.2849 -0.8552  0.1652
  492MOL0     C64875   0.924   2.538   3.605  0.5040  0.6516  0.1296
  492MOL0     C64876   0.856   2.448   3.567 -0.2971  0.1414  0.0349
  492MOL0     C64877   1.304   2.331   4.271 -0.4380  0.2615  0.6780
  492MOL0     C64878   1.347   2.341   4.411  0.2462 -0.1728  0.6307
  492MOL0     H64879   1.658   2.580   4.758  0.1608  0.2758 -0.4726
  492MOL0     H64880   1.742   2.617   4.982 -0.5053  0.9732  1.0728
  492MOL0     H64881   1.487   2.841   5.268 -0.4911 -1.0381  0.3289
  492MOL0     H64882   1.604   2.894   5.147 -2.0162 -1.3058 -0.9550
  492MOL0     H64883   1.783   2.891   5.314 -0.7553 -1.9890 -3.3434
  492MOL0     H64884   1.691   2.776   5.405 -3.7334 -1.3497 -1.6265
  492MOL0     H64885   1.517   2.969   5.461 -0.8220  0.5528  0.2329
  492MOL0     H64886   1.618   3.073   5.355  1.1330  1.3686  0.8179
  492MOL0     H64887   1.707   2.952   5.623  2.3186  1.1163  0.8133
  492MOL0     H64888   1.800   3.040   5.505  0.1609  3.0614  1.2045
  492MOL0     H64889   1.651   3.241   5.537  4.3495 -0.4051 -1.5705
  492MOL0     H64890   1.751   3.202   5.677  0.7281  3.1955 -1.3022
  492MOL0     H64891   1.562   3.066   5.769 -0.6024 -0.5516 -0.1513
  492MOL0     H64892   1.454   3.133   5.640  1.4062  0.5423 -3.1629
  492MOL0     H64893   1.583   3.365   5.717 -1.0600 -0.3150 -1.1287
  492MOL0     H64894   1.426   3.299   5.789 -0.0184 -1.9313  0.5557
  492MOL0     H64895   1.688   3.245   5.922 -0.6917 -0.8338  1.9428
  492MOL0     H64896   1.525   3.201   5.969 -0.5185  1.4588  2.9583
  492MOL0     H64897   1.369   3.416   6.048 -0.9759 -0.8103 -2.0876
  492MOL0     H64898   1.526   3.747   6.248 -1.0786  0.9800 -0.4184
  492MOL0     H64899   1.458   3.619   6.333  2.5445 -0.8162 -0.7412
  492MOL0     H64900   1.276   3.774   6.271  0.0462 -0.7031  0.7459
  492MOL0     H64901   1.251   3.629   6.185  0.8445 -0.2778 -2.8733
  492MOL0     H64902   1.343   3.902   6.096 -1.8366  0.4652  1.2614
  492MOL0     H64903   1.412   3.770   6.005  0.8056  0.7714  1.8245
  492MOL0     H64904   1.201   3.865   5.915 -0.9387 -0.6425  0.1657
  492MOL0     H64905   1.118   3.835   6.065  0.6771 -0.8555  1.7447
  492MOL0     H64906   1.114   3.428   5.863 -0.5806 -1.1249  1.6707
  492MOL0     H64907   0.920   3.379   5.712 -0.6461 -0.9885  1.9378
  492MOL0     H64908   0.685   3.330   5.402 -0.3480  0.0571 -1.7795
  492MOL0     H64909   0.486   3.259   5.274  3.6283  2.9657  0.3587
  492MOL0     H64910   0.295   3.242   5.210  0.1984 -0.8663  0.4652
  492MOL0     H64911   0.150   3.315   5.299 -3.3437 -1.2348 -1.1093
  492MOL0     H64912   0.035   3.104   5.272  0.1925  0.4304  0.3551
  492MOL0     H64913   0.163   3.045   5.167  2.8054  0.9458  2.9112
  492MOL0     H64914   0.107   3.214   4.993 -1.4517 -2.8345 -0.0178
  492MOL0     H64915   0.017   3.314   5.123  1.8207  0.5895  2.3538
  492MOL0     H64916  -0.029   3.044   5.002  1.8134  1.2107  1.8205
  492MOL0     H64917  -0.143   3.123   5.123 -1.5172  5.3678  0.2774
  492MOL0     H64918  -0.082   3.248   4.848  0.8576  0.7482  0.7838
  492MOL0     H64919  -0.213   3.278   4.959  1.6365  1.9886 -1.0884
  492MOL0     H64920  -0.283   3.030   4.920 -2.2808  0.9493 -1.5211
  492MOL0     H64921  -0.143   3.011   4.817  1.7938  0.4870 -0.1560
  492MOL0     H64922  -0.391   3.171   4.749  0.6143  1.8402  1.8348
  492MOL0     H64923  -0.237   3.185   4.648 -0.3496 -2.5147 -1.4158
  492MOL0     H64924  -0.377   2.932   4.730  0.5549  0.9548 -0.0165
  492MOL0     H64925  -0.243   2.948   4.615  0.7924 -0.8516  2.6346
  492MOL0     H64926   0.256   3.256   5.651 -0.6326  1.0794 -0.4023
  492MOL0     H64927   0.453   3.364   5.751  2.3458 -1.1329  0.5259
  492MOL0     H64928   0.733   3.742   5.834 -2.2796 -2.5999 -0.2139
  492MOL0     H64929   0.935   3.817   5.942  1.6902 -0.8700  0.4377
  492MOL0     H64930   1.348   2.682   5.140  0.7482 -3.2486  1.5147
  492MOL0     H64931   1.262   2.647   4.917  0.5514  0.9696 -4.6278
  492MOL0     H64932   1.236   2.647   4.491 -1.4856 -1.5971 -1.1884
  492MOL0     H64933   1.147   2.629   4.266  0.8925  0.1272  0.9712
  492MOL0     H64934   1.167   2.640   4.043  1.3988 -0.3529 -0.9290
  492MOL0     H64935   1.019   2.539   4.064 -1.0075 -1.3534 -1.8784
  492MOL0     H64936   1.192   2.527   3.817  1.1164  1.3583  1.7474
  492MOL0     H64937   1.038   2.431   3.856 -0.9516  0.4606 -2.2718
  492MOL0     H64938   1.063   2.727   3.829 -0.7643  0.7295 -2.4461
  492MOL0     H64939   0.914   2.634   3.853 -0.5246 -2.2336 -0.0843
  492MOL0     H64940   0.998   2.743   3.625  1.9671 -0.7121 -0.4988
  492MOL0     H64941   1.118   2.617   3.621 -0.1267  0.0008 -1.4918
  492MOL0     H64942   0.800   2.371   3.518 -0.0809  0.9991 -1.6293
  492MOL0     H64943   1.344   2.248   4.213  1.0812  3.2398 -2.9788
  492MOL0     H64944   1.403   2.260   4.458 -0.2339 -3.0275 -3.2114
  493MOL0     O64945   5.464   3.368   7.467 -0.4624  0.0811  0.1474
  493MOL0     C64946   5.490   3.249   7.453 -0.6414  0.3554  0.5804
  493MOL0     O64947   5.403   3.149   7.480  0.0551 -0.3312 -0.2324
  493MOL0     C64948   5.262   3.163   7.458 -1.1950  0.0158  1.0952
  493MOL0     C64949   5.182   3.051   7.482 -0.5608 -0.2253 -0.5444
  493MOL0     C64950   5.051   3.050   7.466 -0.1886  0.0893 -0.4692
  493MOL0     C64951   4.991   3.149   7.389 -0.3566 -0.5903  0.2337
  493MOL0     O64952   4.864   3.157   7.346 -0.6931  0.6583  0.5482
  493MOL0     C64953   4.841   3.089   7.215  0.5262 -1.0560 -0.0272
  493MOL0     C64954   4.694   3.054   7.202  0.9786  0.9384 -0.3857
  493MOL0     C64955   4.611   3.184   7.195  0.1454  0.2055 -0.8007
  493MOL0     C64956   4.454   3.159   7.186  0.4832  0.0722 -0.8329
  493MOL0     C64957   4.429   3.078   7.055 -0.2176 -0.0031 -0.3363
  493MOL0     C64958   4.289   3.112   7.013 -0.2747  0.0490  0.1347
  493MOL0     C64959   4.188   3.035   7.097  0.1846  0.4594  0.0046
  493MOL0     C64960   4.048   3.018   7.033  0.0330  0.7288  0.0901
  493MOL0     N64961   3.978   3.140   7.016  0.0146 -0.5170  0.1329
  493MOL0     C64962   3.960   3.223   7.131 -0.1131  0.2455  0.6451
  493MOL0     C64963   3.905   3.338   7.070  0.3577  0.7067 -0.6657
  493MOL0     C64964   3.859   3.456   7.144  0.3017  0.0334 -0.4801
  493MOL0     C64965   3.876   3.586   7.062 -0.3030  0.5979  0.2426
  493MOL0     C64966   3.829   3.692   7.154  0.2377 -0.6199  0.1626
  493MOL0     C64967   3.836   3.838   7.087 -0.3531 -0.0682 -1.2458
  493MOL0     O64968   3.759   3.864   6.967 -0.8546  0.5527 -0.4816
  493MOL0     C64969   3.627   3.859   6.982  0.3973 -0.5365  0.0353
  493MOL0     C64970   3.553   3.812   6.868 -0.7285  0.9626 -1.2317
  493MOL0     C64971   3.413   3.790   6.881 -0.0293  0.6583  0.7334
  493MOL0     C64972   3.339   3.831   6.987 -0.8195 -0.6019 -0.3626
  493MOL0     C64973   3.195   3.804   7.003 -0.0580 -0.3926  0.9307
  493MOL0     O64974   3.139   3.730   6.896 -0.5409 -0.4114  0.0976
  493MOL0     C64975   3.008   3.691   6.914 -0.0371  0.0420  0.4973
  493MOL0     C64976   2.897   3.777   6.918  0.4441 -0.4881 -0.4073
  493MOL0     C64977   2.769   3.730   6.924  0.4251 -0.9769  0.3367
  493MOL0     C64978   2.737   3.592   6.917 -0.4604 -0.2841  0.6049
  493MOL0     O64979   2.616   3.531   6.899 -0.1641  0.4690 -0.1839
  493MOL0     C64980   2.513   3.561   6.995 -0.3109  0.3334 -0.3525
  493MOL0     C64981   2.372   3.523   6.943  0.1882 -0.3078  1.0174
  493MOL0     C64982   2.314   3.617   6.841  0.2883  0.2564 -0.1718
  493MOL0     C64983   2.387   3.593   6.707 -0.5730 -0.4483  0.2163
  493MOL0     C64984   2.303   3.665   6.597 -0.8720  0.0111  0.2309
  493MOL0     C64985   2.201   3.568   6.538 -0.2185  0.1809 -0.2457
  493MOL0     C64986   2.079   3.642   6.492 -0.2086  0.1412 -0.4951
  493MOL0     C64987   2.009   3.699   6.620 -0.3070  0.3204  0.0872
  493MOL0    Cl64988   2.043   3.872   6.663 -0.0941  0.6004 -0.0865
  493MOL0     C64989   2.849   3.503   6.926  0.3784  0.4834 -0.3771
  493MOL0     C64990   2.981   3.560   6.923  0.4601  1.2404  0.3484
  493MOL0     O64991   3.130   3.839   7.102 -0.9500  0.4684  0.0354
  493MOL0     C64992   3.411   3.879   7.094 -0.4755  0.2098 -0.4927
  493MOL0     C64993   3.553   3.899   7.097  0.2146  0.6538  0.7562
  493MOL0     N64994   3.899   3.321   6.937 -1.5000 -0.2203  0.7488
  493MOL0     N64995   3.942   3.207   6.903  0.3015 -0.4937 -0.0543
  493MOL0     C64996   5.067   3.263   7.356 -0.3945 -0.0784 -0.4983
  493MOL0     C64997   5.206   3.267   7.389  1.0289 -0.4330  0.2503
  493MOL0     C64998   5.623   3.210   7.403  0.2131  0.9062 -0.3028
  493MOL0     C64999   5.624   3.090   7.332 -0.4493  0.0981  0.9494
  493MOL0     C65000   5.751   3.044   7.279 -0.9562 -0.4620 -1.1247
  493MOL0     C65001   5.867   3.120   7.306  0.8688 -0.3605 -0.0576
  493MOL0     O65002   5.984   3.072   7.253  0.0291  0.9624 -0.2538
  493MOL0     C65003   6.091   3.022   7.332  0.2168  0.5545  0.1090
  493MOL0     C65004   6.059   2.899   7.416 -0.0151  0.7648  0.5887
  493MOL0     C65005   6.008   2.770   7.332 -0.5239  0.3290 -0.1426
  493MOL0     C65006   5.952   2.659   7.426 -0.1786  0.4972 -0.0449
  493MOL0     C65007   5.878   2.560   7.354 -0.4040  0.4373  0.3300
  493MOL0     C65008   5.821   2.476   7.293  0.6210  0.9254  0.7602
  493MOL0     C65009   5.849   3.245   7.367  0.3869 -1.0672 -0.3880
  493MOL0     C65010   5.735   3.286   7.423  0.3110 -0.2901  0.3861
  493MOL0     H65011   5.232   2.973   7.538 -0.6989  0.6212  0.7928
  493MOL0     H65012   4.992   2.974   7.516 -3.8607  1.9956 -1.5501
  493MOL0     H65013   4.895   2.994   7.208 -1.7798 -2.3291 -1.9411
  493MOL0     H65014   4.857   3.152   7.128 -2.4205 -3.8887 -2.8953
  493MOL0     H65015   4.665   2.999   7.292 -1.4626  0.9205 -1.1177
  493MOL0     H65016   4.678   2.980   7.124  5.5613 -1.2009  0.3436
  493MOL0     H65017   4.653   3.234   7.107  1.3518  0.4751 -0.0898
  493MOL0     H65018   4.630   3.250   7.280 -1.5389  0.1851 -0.3634
  493MOL0     H65019   4.413   3.100   7.269 -2.5001  3.1498  0.1650
  493MOL0     H65020   4.401   3.255   7.182 -1.0721 -0.7894 -1.6459
  493MOL0     H65021   4.442   2.970   7.064 -0.0136  0.1309  1.3430
  493MOL0     H65022   4.490   3.115   6.972 -0.2753  0.8434 -0.0111
  493MOL0     H65023   4.278   3.091   6.906  1.6538  1.0860 -0.3245
  493MOL0     H65024   4.274   3.221   7.015  1.1226  0.2539  1.3988
  493MOL0     H65025   4.224   2.932   7.106 -2.3440 -0.6392 -1.3860
  493MOL0     H65026   4.177   3.065   7.202  0.5654  0.6378 -0.0073
  493MOL0     H65027   3.991   2.967   7.111 -0.4502 -0.7623 -1.1943
  493MOL0     H65028   4.048   2.953   6.945  2.4824  0.8982 -0.0903
  493MOL0     H65029   3.989   3.199   7.232  2.1969 -2.4835 -0.5152
  493MOL0     H65030   3.917   3.475   7.235  1.1113  0.2055 -1.0285
  493MOL0     H65031   3.751   3.450   7.161  0.5140  1.1688  1.6123
  493MOL0     H65032   3.811   3.580   6.974  1.8384 -0.6250 -1.3392
  493MOL0     H65033   3.980   3.597   7.029  0.4341 -3.0609  0.9468
  493MOL0     H65034   3.725   3.676   7.183 -0.7022  1.6154 -1.6632
  493MOL0     H65035   3.900   3.683   7.236 -1.3808 -0.6694  1.6101
  493MOL0     H65036   3.938   3.873   7.069  1.4494 -2.0268  3.5216
  493MOL0     H65037   3.794   3.898   7.168  0.4745 -0.6217 -0.3795
  493MOL0     H65038   3.601   3.786   6.775  0.6801 -1.4362  0.0621
  493MOL0     H65039   3.354   3.744   6.803 -1.4419  3.5038 -0.0340
  493MOL0     H65040   2.901   3.886   6.917 -0.2541 -0.4586 -0.9047
  493MOL0     H65041   2.688   3.801   6.909  2.6457  1.6101 -0.2033
  493MOL0     H65042   2.515   3.668   7.020 -0.4393 -0.4308  3.4780
  493MOL0     H65043   2.529   3.511   7.091  1.6774  3.8576  1.3576
  493MOL0     H65044   2.297   3.505   7.021 -0.4888  0.2069  0.5014
  493MOL0     H65045   2.380   3.423   6.900  1.0235 -0.7837  2.2304
  493MOL0     H65046   2.321   3.721   6.874 -0.9211  0.0206  0.9557
  493MOL0     H65047   2.211   3.583   6.826  0.2580 -0.9553  2.2569
  493MOL0     H65048   2.490   3.628   6.706 -0.3851 -0.9720  0.7177
  493MOL0     H65049   2.403   3.486   6.687  1.6530  0.2911 -2.5514
  493MOL0     H65050   2.370   3.713   6.525 -1.1080  0.4657  0.3095
  493MOL0     H65051   2.250   3.745   6.650  0.1434  0.2006  1.0021
  493MOL0     H65052   2.165   3.495   6.611 -2.8735  1.3253 -0.2745
  493MOL0     H65053   2.235   3.519   6.446 -0.3847 -2.0200  0.8047
  493MOL0     H65054   2.118   3.732   6.442  3.0547 -0.0414  1.4617
  493MOL0     H65055   2.015   3.569   6.442 -1.1751 -2.7009  4.3092
  493MOL0     H65056   2.041   3.648   6.711 -0.1214 -3.0536 -1.6872
  493MOL0     H65057   1.901   3.679   6.618 -0.6771  2.1156  0.2951
  493MOL0     H65058   2.824   3.398   6.918  2.2783 -0.1142  0.7487
  493MOL0     H65059   3.063   3.491   6.902 -1.1860  0.0258 -2.6936
  493MOL0     H65060   3.368   3.916   7.186  1.7672  4.2364 -0.7929
  493MOL0     H65061   3.594   3.946   7.186 -1.8516  0.6964  1.7413
  493MOL0     H65062   5.017   3.343   7.301 -3.0946 -2.3069 -1.5220
  493MOL0     H65063   5.251   3.361   7.359 -1.1023  0.5997  0.0657
  493MOL0     H65064   5.540   3.022   7.329 -1.3594  1.1899 -1.1669
  493MOL0     H65065   5.757   2.952   7.223 -1.8635  0.1146 -2.2050
  493MOL0     H65066   6.108   3.107   7.399  2.2989  1.4639 -1.4573
  493MOL0     H65067   6.177   3.022   7.265 -0.4444  2.4069 -0.8350
  493MOL0     H65068   6.146   2.871   7.476  2.6083 -0.5609 -3.4599
  493MOL0     H65069   5.977   2.935   7.480 -1.8986  0.1357 -1.3500
  493MOL0     H65070   6.094   2.727   7.281  0.5853 -0.9212  2.6038
  493MOL0     H65071   5.938   2.811   7.259  1.7516 -0.1493 -2.7649
  493MOL0     H65072   6.034   2.608   7.476 -2.1320 -0.9089  1.9259
  493MOL0     H65073   5.887   2.697   7.506 -0.4242 -1.1860  0.5839
  493MOL0     H65074   5.774   2.399   7.236 -1.7584  2.8660 -0.0324
  493MOL0     H65075   5.938   3.307   7.368 -0.0490 -0.3905 -1.4603
  493MOL0     H65076   5.739   3.383   7.473  0.5837 -0.6389  1.0665
  494MOL0     O65077  10.302   9.566   2.388  0.0610  0.2846 -0.1550
  494MOL0     C65078  10.357   9.508   2.486 -0.5861 -0.3161 -0.3088
  494MOL0     O65079  10.297   9.420   2.581  0.1961  0.1655  0.5472
  494MOL0     C65080  10.157   9.409   2.584 -0.6306 -0.1268  0.6016
  494MOL0     C65081  10.072   9.516   2.565  0.0301  0.5241  0.4654
  494MOL0     C65082   9.933   9.495   2.599 -0.4003  1.0151 -0.4439
  494MOL0     C65083   9.886   9.370   2.646 -0.1112  0.4335  0.4965
  494MOL0     O65084   9.755   9.367   2.684  0.8255 -0.4505 -0.3502
  494MOL0     C65085   9.713   9.253   2.755 -0.8603 -0.3024  0.1091
  494MOL0     C65086   9.575   9.272   2.812 -0.4357 -0.1349 -0.5595
  494MOL0     C65087   9.458   9.293   2.713 -0.5871  0.7141 -0.6865
  494MOL0     C65088   9.320   9.267   2.784  0.3818 -0.8808  0.0088
  494MOL0     C65089   9.205   9.273   2.678  0.8894 -0.1387  0.1380
  494MOL0     C65090   9.223   9.162   2.576 -0.2816 -0.3566  0.0258
  494MOL0     C65091   9.103   9.129   2.490 -0.1311 -0.5689  0.2791
  494MOL0     C65092   8.996   9.060   2.566 -0.0887  0.3221 -0.7755
  494MOL0     N65093   8.859   9.066   2.504  0.2176 -0.8836  0.1841
  494MOL0     C65094   8.820   9.044   2.374 -0.2411  0.1100 -0.4530
  494MOL0     C65095   8.690   9.069   2.374  0.0881  0.3055 -0.1630
  494MOL0     C65096   8.601   9.037   2.251 -0.8305 -1.3821  0.2890
  494MOL0     C65097   8.501   8.926   2.294 -0.0372  0.4372  0.5584
  494MOL0     C65098   8.362   8.905   2.224 -1.7444 -0.6396  1.0264
  494MOL0     C65099   8.266   9.012   2.264 -0.4030 -0.1003  1.0740
  494MOL0     O65100   8.271   9.126   2.170 -0.6580  0.3595 -0.8595
  494MOL0     C65101   8.154   9.150   2.113  0.3903  0.5434 -0.3416
  494MOL0     C65102   8.024   9.147   2.172 -0.1095  0.0547 -0.7179
  494MOL0     C65103   7.903   9.184   2.107 -0.7235  0.7272  0.4439
  494MOL0     C65104   7.912   9.212   1.972 -0.1986  0.2005  0.5101
  494MOL0     C65105   7.788   9.229   1.893 -0.4722  0.1628  0.5351
  494MOL0     O65106   7.679   9.260   1.968  0.5182 -0.2954  0.0741
  494MOL0     C65107   7.562   9.283   1.911  0.5030  0.3642  0.6341
  494MOL0     C65108   7.487   9.179   1.846  0.1076 -0.2203  0.7020
  494MOL0     C65109   7.360   9.218   1.801  0.2858  0.2147  0.0573
  494MOL0     C65110   7.307   9.351   1.810 -0.4008  0.6347 -0.6914
  494MOL0     O65111   7.188   9.391   1.764  0.1837  0.3062  0.2173
  494MOL0     C65112   7.106   9.300   1.705  0.6946  0.7168 -0.2251
  494MOL0     C65113   6.967   9.353   1.700  0.2214  0.3956  0.2921
  494MOL0     C65114   6.891   9.291   1.576  0.0865 -1.2923 -0.0074
  494MOL0     C65115   6.761   9.360   1.544  0.1293  0.0599 -0.0170
  494MOL0     C65116   6.704   9.313   1.419  0.5284  0.0735  0.0365
  494MOL0     C65117   6.646   9.171   1.435  0.4480  0.6001  0.9257
  494MOL0     C65118   6.544   9.136   1.322 -0.3496  0.5047 -0.3887
  494MOL0     C65119   6.594   9.148   1.183 -1.0352 -0.1583 -0.2285
  494MOL0    Cl65120   6.707   9.009   1.143  0.0668 -0.0803  0.3185
  494MOL0     C65121   7.388   9.449   1.872  0.0210  0.0169  0.0340
  494MOL0     C65122   7.506   9.413   1.929 -0.5447  0.4967  0.8268
  494MOL0     O65123   7.784   9.200   1.773 -0.0976 -0.2522 -0.2780
  494MOL0     C65124   8.035   9.214   1.912 -0.7995 -0.5040  0.0465
  494MOL0     C65125   8.155   9.182   1.979 -0.4049 -0.4770 -0.1767
  494MOL0     N65126   8.650   9.105   2.506  0.2755 -0.8611  0.1754
  494MOL0     N65127   8.752   9.098   2.580  0.5260 -0.1438 -0.8129
  494MOL0     C65128   9.976   9.259   2.649  0.3309  0.1861  0.0755
  494MOL0     C65129  10.112   9.284   2.624 -0.5213 -0.4000 -0.6658
  494MOL0     C65130  10.502   9.532   2.497 -0.0560  0.1481  0.2042
  494MOL0     C65131  10.582   9.605   2.399 -0.5137 -0.6499 -0.3461
  494MOL0     C65132  10.722   9.610   2.428 -0.0335 -0.3670  0.4473
  494MOL0     C65133  10.775   9.554   2.544  0.2707  0.0750 -0.4263
  494MOL0     O65134  10.911   9.550   2.575  0.7230  0.1548 -0.0910
  494MOL0     C65135  11.012   9.605   2.485  0.7018  0.4091 -0.4195
  494MOL0     C65136  11.140   9.632   2.562  0.4138  0.0033  0.1415
  494MOL0     C65137  11.235   9.726   2.489 -0.6250 -0.6056 -0.3323
  494MOL0     C65138  11.339   9.668   2.371  1.1332  0.2234 -0.8834
  494MOL0     C65139  11.270   9.629   2.252 -0.2582 -0.0311  0.4367
  494MOL0     C65140  11.204   9.608   2.153  0.6136 -0.1403  1.2999
  494MOL0     C65141  10.694   9.484   2.632  0.0954 -0.1715  1.1006
  494MOL0     C65142  10.561   9.469   2.610 -1.0060 -1.0278 -0.0303
  494MOL0     H65143  10.097   9.609   2.516  0.7959  0.7369  1.2491
  494MOL0     H65144   9.858   9.574   2.602 -2.0402 -0.5046  1.6336
  494MOL0     H65145   9.773   9.238   2.845 -1.4214 -0.6274  0.4394
  494MOL0     H65146   9.712   9.162   2.694 -0.8990 -1.2227  1.4393
  494MOL0     H65147   9.583   9.355   2.882  2.4114  1.4497 -2.5942
  494MOL0     H65148   9.555   9.186   2.878 -0.2274  1.1985  1.3221
  494MOL0     H65149   9.478   9.238   2.621  0.8112  1.4998 -0.8853
  494MOL0     H65150   9.462   9.400   2.688  0.6186  1.0023  0.6424
  494MOL0     H65151   9.319   9.170   2.834  0.6439  1.0442  4.0983
  494MOL0     H65152   9.296   9.331   2.869  1.2553 -0.1249 -0.2869
  494MOL0     H65153   9.192   9.368   2.625 -1.0920 -0.1589  0.5088
  494MOL0     H65154   9.111   9.260   2.733  2.6769  3.2041  4.6427
  494MOL0     H65155   9.253   9.065   2.615 -0.9091 -1.6387 -2.4793
  494MOL0     H65156   9.310   9.192   2.516  0.5193 -0.4989  1.0785
  494MOL0     H65157   9.063   9.224   2.451  1.6884 -1.0751 -3.2682
  494MOL0     H65158   9.124   9.064   2.405 -1.6555 -3.6733  2.1251
  494MOL0     H65159   8.979   9.090   2.670  3.4320  0.9523 -0.2501
  494MOL0     H65160   9.029   8.956   2.573 -0.9731 -0.1834 -3.2249
  494MOL0     H65161   8.870   8.997   2.290 -1.9658 -3.3804  0.2968
  494MOL0     H65162   8.659   9.015   2.161 -0.4238 -0.6021  0.3531
  494MOL0     H65163   8.556   9.135   2.235  0.4849 -0.8764 -0.4763
  494MOL0     H65164   8.498   8.925   2.403  1.2148 -0.8936  0.6147
  494MOL0     H65165   8.565   8.843   2.261  1.0713  1.2245  0.6413
  494MOL0     H65166   8.370   8.893   2.116  1.0189  1.5560  0.8713
  494MOL0     H65167   8.319   8.815   2.270  1.1366 -2.5812  0.1935
  494MOL0     H65168   8.277   9.041   2.368 -1.8556  0.0246  1.2037
  494MOL0     H65169   8.164   8.973   2.263 -0.3162 -0.4017 -0.7757
  494MOL0     H65170   8.017   9.142   2.280 -0.4011 -0.3629 -0.7531
  494MOL0     H65171   7.807   9.180   2.158  0.1613  0.2212  2.1430
  494MOL0     H65172   7.539   9.085   1.833  2.7620  0.7342  3.3055
  494MOL0     H65173   7.310   9.154   1.728 -0.9055  0.5291  0.5777
  494MOL0     H65174   7.096   9.201   1.750 -1.8522  1.2221  0.4950
  494MOL0     H65175   7.137   9.291   1.601  0.2002 -2.7295 -0.1813
  494MOL0     H65176   6.966   9.463   1.697 -0.2613  0.3751 -0.2427
  494MOL0     H65177   6.916   9.319   1.791  0.1618 -0.4069 -0.0342
  494MOL0     H65178   6.882   9.183   1.593 -2.9358 -1.0507  0.4754
  494MOL0     H65179   6.952   9.299   1.486  1.4209  1.6023  1.0220
  494MOL0     H65180   6.699   9.332   1.630  0.0080 -2.0053 -0.7359
  494MOL0     H65181   6.770   9.469   1.551  0.3836 -0.0616  2.6767
  494MOL0     H65182   6.780   9.302   1.342  0.9752  1.4065  0.2612
  494MOL0     H65183   6.627   9.381   1.381 -1.2413 -1.9287 -0.1533
  494MOL0     H65184   6.599   9.156   1.533 -0.1947  1.7111  0.7968
  494MOL0     H65185   6.730   9.102   1.426  0.5894  0.7311  1.2421
  494MOL0     H65186   6.480   9.048   1.338  0.0432  0.7645  4.0485
  494MOL0     H65187   6.463   9.210   1.319 -2.0486 -1.2691 -0.3310
  494MOL0     H65188   6.643   9.244   1.168 -3.6381  1.0247 -1.7426
  494MOL0     H65189   6.504   9.161   1.122 -1.8139  1.0133  1.1091
  494MOL0     H65190   7.337   9.544   1.883 -2.8412 -1.0686 -2.3088
  494MOL0     H65191   7.561   9.490   1.981  1.0845  2.2696 -3.1352
  494MOL0     H65192   8.044   9.228   1.805 -1.7641  2.3899  0.2670
  494MOL0     H65193   8.250   9.192   1.928 -0.0044 -0.1034  0.6251
  494MOL0     H65194   9.950   9.157   2.673 -3.6320  0.7624 -1.0878
  494MOL0     H65195  10.182   9.202   2.640  0.0839 -0.0436 -1.4174
  494MOL0     H65196  10.539   9.672   2.325  1.8636  2.7435  1.0768
  494MOL0     H65197  10.778   9.665   2.353  1.4314 -1.0046  1.0338
  494MOL0     H65198  10.973   9.696   2.439 -3.3530 -1.2664 -0.7246
  494MOL0     H65199  11.037   9.523   2.417  0.2532 -1.2034  1.2582
  494MOL0     H65200  11.111   9.680   2.656 -0.9607 -1.4435  0.5056
  494MOL0     H65201  11.197   9.544   2.594  1.8235  1.1448  0.8894
  494MOL0     H65202  11.292   9.789   2.558  0.1476 -2.7313  1.0857
  494MOL0     H65203  11.168   9.793   2.435 -1.3094 -0.9660  0.0551
  494MOL0     H65204  11.413   9.742   2.338  2.5206  0.1199  1.7429
  494MOL0     H65205  11.393   9.581   2.409 -1.1147 -0.7456  0.2715
  494MOL0     H65206  11.147   9.588   2.066 -0.3198 -1.4260  2.1772
  494MOL0     H65207  10.738   9.451   2.726 -0.4216  2.1041  2.2148
  494MOL0     H65208  10.511   9.415   2.689 -0.8883 -0.4289  0.4588
  495MOL0     O65209   1.344   4.433   3.012  0.3478 -0.8734  0.8630
  495MOL0     C65210   1.451   4.433   2.957  0.6784 -0.3179  0.3202
  495MOL0     O65211   1.484   4.346   2.855 -0.0792 -0.4789  0.6207
  495MOL0     C65212   1.408   4.249   2.799 -0.0273  0.5837 -0.0671
  495MOL0     C65213   1.311   4.173   2.868 -0.1855  0.1360  0.4697
  495MOL0     C65214   1.233   4.070   2.804 -0.6980  0.2466  0.2006
  495MOL0     C65215   1.274   4.039   2.673 -0.4932 -0.3750  0.3107
  495MOL0     O65216   1.227   3.925   2.607 -0.1966  0.0210  1.0355
  495MOL0     C65217   1.098   3.882   2.642 -0.2411 -0.4792  0.4928
  495MOL0     C65218   1.084   3.757   2.557 -0.0044  0.5233 -0.0381
  495MOL0     C65219   0.944   3.702   2.594 -0.0621 -0.8233  0.1829
  495MOL0     C65220   0.909   3.569   2.526  0.4185 -0.0838 -0.1155
  495MOL0     C65221   0.788   3.518   2.598  0.1958 -0.0356  0.6543
  495MOL0     C65222   0.720   3.405   2.517 -1.2082 -0.3690 -0.2854
  495MOL0     C65223   0.627   3.320   2.608  0.3761  0.2181 -0.3838
  495MOL0     C65224   0.528   3.402   2.691  0.4150 -0.0582 -0.6486
  495MOL0     N65225   0.406   3.326   2.725  0.4568  0.4111  0.0633
  495MOL0     C65226   0.303   3.313   2.629 -0.0579  1.0325 -0.3729
  495MOL0     C65227   0.212   3.239   2.696 -0.0527 -0.2584  0.5898
  495MOL0     C65228   0.078   3.181   2.655  0.6485 -0.4517 -0.7083
  495MOL0     C65229  -0.032   3.282   2.647  0.4566 -0.3927  0.4489
  495MOL0     C65230  -0.081   3.326   2.781  0.4085  0.0305  1.2279
  495MOL0     C65231  -0.146   3.463   2.780 -0.4979 -0.1503 -0.0876
  495MOL0     O65232  -0.077   3.566   2.702  0.9074  1.0872 -0.1768
  495MOL0     C65233   0.049   3.606   2.726  0.0426  0.4448  0.0504
  495MOL0     C65234   0.111   3.588   2.844  0.7471 -0.7142  0.3723
  495MOL0     C65235   0.243   3.628   2.870  0.0093 -0.3146 -0.3646
  495MOL0     C65236   0.324   3.683   2.770  0.0705  0.1009 -0.9542
  495MOL0     C65237   0.467   3.713   2.805 -0.4157 -0.2121  0.0171
  495MOL0     O65238   0.507   3.681   2.932 -0.2410  0.0139  0.1328
  495MOL0     C65239   0.636   3.705   2.968  0.1475  0.9776 -0.1035
  495MOL0     C65240   0.702   3.825   2.940 -0.7770  0.2363 -0.1620
  495MOL0     C65241   0.834   3.841   2.979  0.6880  0.7219  0.5336
  495MOL0     C65242   0.902   3.739   3.057 -0.3202 -0.4790  0.4372
  495MOL0     O65243   1.026   3.753   3.124 -0.5188 -0.8349  0.3833
  495MOL0     C65244   1.090   3.877   3.127 -0.0136  0.6173 -0.3808
  495MOL0     C65245   1.202   3.862   3.233 -0.2016  0.0172  0.0155
  495MOL0     C65246   1.301   3.983   3.213 -0.5190 -0.2023 -1.3055
  495MOL0     C65247   1.249   4.111   3.293  0.0372 -0.5010  0.4510
  495MOL0     C65248   1.353   4.215   3.288 -0.0462  0.1522 -1.2903
  495MOL0     C65249   1.315   4.329   3.385 -0.0473 -0.5023  0.6171
  495MOL0     C65250   1.424   4.434   3.426  0.2842 -0.0442 -0.6844
  495MOL0     C65251   1.524   4.373   3.514 -0.9392 -0.5774 -0.5989
  495MOL0    Cl65252   1.448   4.328   3.674  0.0622 -0.2420  0.1005
  495MOL0     C65253   0.830   3.625   3.093  0.8069  0.8128  0.2099
  495MOL0     C65254   0.698   3.607   3.049  1.2909 -0.2142  0.6476
  495MOL0     O65255   0.534   3.752   2.715 -0.5956 -0.0261  0.1794
  495MOL0     C65256   0.263   3.708   2.638  0.6340  0.4594 -0.0639
  495MOL0     C65257   0.128   3.666   2.621 -0.1166  0.5299 -0.3765
  495MOL0     N65258   0.261   3.205   2.820  0.4702  0.1222  0.3408
  495MOL0     N65259   0.378   3.247   2.837  0.8328 -1.4837  0.0469
  495MOL0     C65260   1.368   4.123   2.604  0.2661  0.0954 -0.0495
  495MOL0     C65261   1.423   4.232   2.666  0.4114 -0.8463 -0.2087
  495MOL0     C65262   1.555   4.530   3.000 -0.7263  0.2911  0.4174
  495MOL0     C65263   1.687   4.512   2.946 -0.2060 -0.0786 -0.5722
  495MOL0     C65264   1.786   4.602   2.983  0.2656  0.5019  0.9718
  495MOL0     C65265   1.768   4.708   3.075  0.4338 -0.3986  0.3313
  495MOL0     O65266   1.870   4.788   3.120 -0.1498  0.3756  0.3501
  495MOL0     C65267   2.003   4.773   3.076  0.2146  1.1184  0.3536
  495MOL0     C65268   2.083   4.885   3.144  0.0006 -0.1164 -0.3010
  495MOL0     C65269   2.216   4.919   3.098  0.6860 -0.2335  0.1177
  495MOL0     C65270   2.289   5.014   3.195  0.1948 -0.8232 -0.1451
  495MOL0     C65271   2.226   5.151   3.207 -0.1823  0.3018  0.0546
  495MOL0     C65272   2.174   5.257   3.231 -0.2398  0.1075 -0.3120
  495MOL0     C65273   1.645   4.727   3.126 -0.2539 -0.4833  0.8143
  495MOL0     C65274   1.537   4.644   3.088  0.4210  0.7994 -0.2694
  495MOL0     H65275   1.296   4.184   2.975 -0.5614  1.1118  0.3316
  495MOL0     H65276   1.152   4.017   2.852 -1.5890  2.8726  1.8123
  495MOL0     H65277   1.027   3.957   2.604  0.7935 -0.4318 -1.4888
  495MOL0     H65278   1.073   3.865   2.747  2.2638 -2.2127  0.8690
  495MOL0     H65279   1.163   3.682   2.565 -0.5183 -0.3585 -2.3745
  495MOL0     H65280   1.083   3.772   2.449 -2.7327 -0.9186 -0.3141
  495MOL0     H65281   0.865   3.772   2.564  1.6962  0.4180 -1.8461
  495MOL0     H65282   0.946   3.674   2.700  1.1266 -1.8616 -0.0884
  495MOL0     H65283   0.877   3.584   2.422  1.5506  0.7439 -0.3592
  495MOL0     H65284   0.994   3.500   2.534  0.0789 -0.2549  3.4163
  495MOL0     H65285   0.721   3.603   2.615  0.5660  0.6547 -1.1307
  495MOL0     H65286   0.809   3.465   2.692 -0.0866 -1.5488 -0.1136
  495MOL0     H65287   0.801   3.339   2.486 -0.8427  0.2564 -0.6816
  495MOL0     H65288   0.665   3.447   2.432 -2.1983 -0.3117  0.3611
  495MOL0     H65289   0.567   3.253   2.545  1.0771  0.5575 -1.4253
  495MOL0     H65290   0.680   3.267   2.688 -1.1451  0.3621  0.7687
  495MOL0     H65291   0.503   3.497   2.643 -0.7628  0.4113  0.8128
  495MOL0     H65292   0.572   3.426   2.788  1.1589  0.4861 -1.1175
  495MOL0     H65293   0.307   3.341   2.524 -1.2237 -1.3773 -1.1399
  495MOL0     H65294   0.052   3.102   2.726  2.4524  0.1111  0.6390
  495MOL0     H65295   0.075   3.132   2.557  2.5429  0.0995 -1.0939
  495MOL0     H65296  -0.108   3.233   2.586  1.9875  0.2831 -2.1644
  495MOL0     H65297   0.005   3.368   2.590  1.0033 -0.1546  1.1523
  495MOL0     H65298  -0.152   3.250   2.818  1.4750 -0.9981  1.2079
  495MOL0     H65299   0.005   3.327   2.848  2.5459 -2.1707 -1.2605
  495MOL0     H65300  -0.163   3.496   2.883 -1.3740  0.3389 -0.3787
  495MOL0     H65301  -0.247   3.466   2.737  0.4391 -0.1168 -2.4647
  495MOL0     H65302   0.054   3.556   2.930 -0.9941  3.5121  1.0097
  495MOL0     H65303   0.272   3.604   2.972 -1.7957  0.1022  0.2897
  495MOL0     H65304   0.648   3.901   2.885 -1.2780 -0.2307 -0.3177
  495MOL0     H65305   0.884   3.937   2.965  2.0681 -0.0324  0.0574
  495MOL0     H65306   1.010   3.944   3.160  0.0288  0.4130  0.1532
  495MOL0     H65307   1.123   3.912   3.029 -1.3647 -2.1261 -1.9064
  495MOL0     H65308   1.244   3.764   3.208 -0.2367 -0.0992  0.4177
  495MOL0     H65309   1.160   3.863   3.334 -3.4613 -0.2351 -1.2212
  495MOL0     H65310   1.338   4.003   3.112 -2.0923  2.2951 -1.4619
  495MOL0     H65311   1.392   3.953   3.266 -0.2553  3.8146  0.9242
  495MOL0     H65312   1.164   4.155   3.239  0.0325  1.1249  1.7309
  495MOL0     H65313   1.227   4.073   3.393 -0.0039 -2.7478 -0.3436
  495MOL0     H65314   1.373   4.246   3.184 -1.9108  3.0450 -0.9029
  495MOL0     H65315   1.453   4.179   3.314  0.6972  2.2480 -0.9883
  495MOL0     H65316   1.277   4.283   3.477  2.1732 -3.5309  0.1842
  495MOL0     H65317   1.236   4.379   3.329  0.1596 -2.2934 -1.3974
  495MOL0     H65318   1.466   4.468   3.330  0.4073  0.0261 -0.6071
  495MOL0     H65319   1.386   4.522   3.479  1.2878 -0.7249  1.2658
  495MOL0     H65320   1.606   4.445   3.522  1.0728 -2.8533  0.5614
  495MOL0     H65321   1.572   4.283   3.474  0.6648 -2.1169  4.0498
  495MOL0     H65322   0.865   3.546   3.160 -0.9193 -1.1587 -1.0689
  495MOL0     H65323   0.652   3.509   3.052  2.6556 -1.0251 -1.8832
  495MOL0     H65324   0.318   3.749   2.554  2.3439  0.4788  1.0093
  495MOL0     H65325   0.092   3.666   2.519 -1.5381 -2.6470 -0.0144
  495MOL0     H65326   1.388   4.091   2.502  0.6974 -1.1955  0.4189
  495MOL0     H65327   1.489   4.286   2.598  0.4352 -0.5841  0.0193
  495MOL0     H65328   1.708   4.436   2.871  1.2313  1.4116 -1.7775
  495MOL0     H65329   1.882   4.579   2.937 -0.0332 -0.2135  0.6869
  495MOL0     H65330   2.009   4.807   2.972 -0.7532  0.1120 -0.0495
  495MOL0     H65331   2.046   4.673   3.085 -0.7455  0.5096 -1.3383
  495MOL0     H65332   2.024   4.973   3.115  0.7217 -0.4000 -2.8151
  495MOL0     H65333   2.082   4.864   3.252  1.9147  0.1912 -0.1903
  495MOL0     H65334   2.220   4.966   2.999  1.2024 -0.4112  0.0470
  495MOL0     H65335   2.264   4.820   3.101 -2.1976 -1.7606 -0.0008
  495MOL0     H65336   2.300   4.984   3.300  1.4686  0.3456  0.0913
  495MOL0     H65337   2.388   5.043   3.158 -0.6613  1.7868 -0.6568
  495MOL0     H65338   2.144   5.359   3.247 -0.1658  0.3208 -1.4833
  495MOL0     H65339   1.616   4.807   3.192  0.1139  1.4048 -1.1981
  495MOL0     H65340   1.439   4.669   3.127 -0.4709 -2.6671  0.0669
  496MOL0     O65341   0.107   9.919   5.433  0.1915  0.6457  0.1902
  496MOL0     C65342   0.133   9.988   5.331  0.1050 -0.5442  0.2672
  496MOL0     O65343   0.038  10.013   5.238  0.6070  0.4249 -0.1915
  496MOL0     C65344  -0.083   9.951   5.246  0.8720 -0.4633 -0.2481
  496MOL0     C65345  -0.122   9.874   5.138  0.2812  0.9297 -0.9823
  496MOL0     C65346  -0.248   9.814   5.138 -1.0660 -0.9463 -0.0473
  496MOL0     C65347  -0.339   9.830   5.241 -0.2361 -0.4266  0.0325
  496MOL0     O65348  -0.449   9.757   5.220 -0.7984  0.3712 -0.0719
  496MOL0     C65349  -0.562   9.794   5.299 -0.3140 -0.0094  0.0797
  496MOL0     C65350  -0.657   9.675   5.295 -0.4402  0.3421 -0.5391
  496MOL0     C65351  -0.775   9.682   5.390 -0.6832  0.4999  0.5052
  496MOL0     C65352  -0.878   9.591   5.320  0.5902  0.4814  0.5802
  496MOL0     C65353  -1.013   9.560   5.376  1.0805  0.1668 -0.6612
  496MOL0     C65354  -1.099   9.681   5.361  0.6703  0.2161 -1.0143
  496MOL0     C65355  -1.231   9.629   5.400 -0.0789  1.0606  0.5854
  496MOL0     C65356  -1.322   9.744   5.442 -0.8909  0.9822  0.2246
  496MOL0     N65357  -1.458   9.701   5.465 -0.0090  0.2687  0.6143
  496MOL0     C65358  -1.549   9.712   5.369 -0.0946  0.0143  0.0484
  496MOL0     C65359  -1.669   9.681   5.433  0.0289 -0.2569 -0.4445
  496MOL0     C65360  -1.796   9.702   5.380  0.0505  0.7609  0.3861
  496MOL0     C65361  -1.891   9.783   5.469  0.6077 -0.3383  0.0989
  496MOL0     C65362  -2.022   9.818   5.398 -0.0346 -0.0074 -0.3816
  496MOL0     C65363  -2.141   9.828   5.494  0.0578 -0.9109 -0.2730
  496MOL0     O65364  -2.246   9.903   5.423 -0.0859 -0.1907  0.4465
  496MOL0     C65365  -2.323   9.825   5.341  0.0429  0.2177  0.2823
  496MOL0     C65366  -2.430   9.887   5.271 -0.2254 -0.1436  0.4168
  496MOL0     C65367  -2.530   9.815   5.200  0.0962  0.9349 -0.4921
  496MOL0     C65368  -2.517   9.678   5.179 -0.7268 -0.3954  0.5028
  496MOL0     C65369  -2.619   9.587   5.113 -0.0122 -0.5808 -0.0673
  496MOL0     O65370  -2.737   9.650   5.089  0.6082  0.2626  0.5359
  496MOL0     C65371  -2.850   9.573   5.064  0.0298 -0.0091 -0.1126
  496MOL0     C65372  -2.917   9.598   4.951 -0.3749 -0.1074  0.2590
  496MOL0     C65373  -3.041   9.525   4.910 -0.7991 -0.6811  0.5521
  496MOL0     C65374  -3.093   9.421   4.993 -0.6329  0.8574 -0.0160
  496MOL0     O65375  -3.197   9.337   4.963  0.0771 -0.5689  0.1415
  496MOL0     C65376  -3.196   9.268   4.842 -0.0381  0.5190 -0.0061
  496MOL0     C65377  -3.279   9.358   4.744  0.6114 -0.8018  0.3230
  496MOL0     C65378  -3.310   9.260   4.629 -0.5747  0.0351  0.5096
  496MOL0     C65379  -3.433   9.296   4.538  0.5002  0.0887 -0.2744
  496MOL0     C65380  -3.500   9.183   4.455 -1.2450  0.6398 -0.0386
  496MOL0     C65381  -3.575   9.073   4.524  0.6890  0.3240 -0.4199
  496MOL0     C65382  -3.585   8.949   4.438 -0.1613  0.1205  0.1276
  496MOL0     C65383  -3.647   8.834   4.512  1.0694 -0.3093 -0.2591
  496MOL0    Cl65384  -3.833   8.852   4.519 -0.5705  0.8209 -0.0574
  496MOL0     C65385  -3.020   9.392   5.110  0.9665 -0.4721  0.1010
  496MOL0     C65386  -2.902   9.466   5.147  0.0740  0.2106  1.1356
  496MOL0     O65387  -2.589   9.477   5.067  0.0564 -0.1500 -0.1689
  496MOL0     C65388  -2.407   9.617   5.237  0.0832  0.1472 -0.7430
  496MOL0     C65389  -2.311   9.686   5.309  0.9166 -0.4083  0.3206
  496MOL0     N65390  -1.646   9.635   5.559 -0.2436 -0.0654 -0.0395
  496MOL0     N65391  -1.520   9.662   5.583  0.1890 -0.4434 -0.2132
  496MOL0     C65392  -0.310   9.924   5.339  0.3646 -0.0992 -0.6442
  496MOL0     C65393  -0.183   9.985   5.340 -0.3702  0.0427 -0.5590
  496MOL0     C65394   0.268  10.045   5.309 -0.0880 -0.8988  0.4958
  496MOL0     C65395   0.367  10.017   5.405 -0.0087 -0.1244 -0.7882
  496MOL0     C65396   0.494  10.057   5.370  0.1787 -0.2241  0.3348
  496MOL0     C65397   0.528  10.127   5.251 -0.4066  0.5755  0.2059
  496MOL0     O65398   0.657  10.142   5.217  0.5776  0.6723  0.5322
  496MOL0     C65399   0.709  10.269   5.201  0.1249  0.3649  0.1957
  496MOL0     C65400   0.865  10.262   5.191 -0.2193  0.0079 -0.2636
  496MOL0     C65401   0.929  10.370   5.275  0.1630  0.0434  0.1381
  496MOL0     C65402   1.081  10.373   5.285  0.4916 -0.4459 -0.2048
  496MOL0     C65403   1.142  10.358   5.154  0.8457 -0.3504  0.4028
  496MOL0     C65404   1.191  10.326   5.056 -0.6042 -0.0637  1.6239
  496MOL0     C65405   0.428  10.162   5.160 -0.6172  0.3018  0.2783
  496MOL0     C65406   0.294  10.115   5.193  0.1265  0.6053 -1.0579
  496MOL0     H65407  -0.055   9.854   5.054  2.2257  2.4073  0.1164
  496MOL0     H65408  -0.268   9.753   5.051  0.8312 -3.0622  0.8875
  496MOL0     H65409  -0.599   9.888   5.260  1.2245 -0.2219 -2.0893
  496MOL0     H65410  -0.537   9.804   5.405  1.8017  1.1732 -0.4686
  496MOL0     H65411  -0.602   9.584   5.323 -1.0442 -0.2244 -1.1621
  496MOL0     H65412  -0.688   9.654   5.193 -1.8208  2.7137 -0.6528
  496MOL0     H65413  -0.805   9.784   5.416  1.3229  0.4418  3.5380
  496MOL0     H65414  -0.741   9.644   5.487  0.0196  1.7480  0.7760
  496MOL0     H65415  -0.896   9.630   5.219 -0.3224 -2.3025 -0.4084
  496MOL0     H65416  -0.835   9.494   5.297 -2.1856 -0.1994 -2.3557
  496MOL0     H65417  -1.004   9.533   5.481 -2.3032 -1.1795 -0.5917
  496MOL0     H65418  -1.056   9.478   5.318 -0.1036 -0.9598  1.6805
  496MOL0     H65419  -1.103   9.711   5.256  1.5340 -1.3528 -1.5312
  496MOL0     H65420  -1.069   9.761   5.430 -2.9674  3.3864 -2.7296
  496MOL0     H65421  -1.277   9.585   5.310 -4.6264  2.0577  2.1717
  496MOL0     H65422  -1.213   9.573   5.493  3.8263 -0.4992 -0.8729
  496MOL0     H65423  -1.319   9.813   5.357  0.5226  0.8516  0.1456
  496MOL0     H65424  -1.288   9.791   5.536 -1.4795  0.1680  0.8583
  496MOL0     H65425  -1.537   9.761   5.273  2.2025 -1.7705 -0.6860
  496MOL0     H65426  -1.843   9.612   5.339 -1.9384  2.6619 -1.8853
  496MOL0     H65427  -1.785   9.746   5.280  1.8667  0.1257  0.2721
  496MOL0     H65428  -1.848   9.879   5.499  0.4192 -0.3826  0.5200
  496MOL0     H65429  -1.914   9.727   5.560 -2.9265  1.1905  0.2965
  496MOL0     H65430  -2.010   9.914   5.348  2.1653 -0.3695 -0.6637
  496MOL0     H65431  -2.044   9.748   5.317  0.7263  0.3962 -0.9554
  496MOL0     H65432  -2.109   9.892   5.576  1.0305  0.3289 -1.5816
  496MOL0     H65433  -2.177   9.730   5.525 -5.7076  0.4179 -1.5500
  496MOL0     H65434  -2.434   9.995   5.259  2.2471  0.0247  0.5572
  496MOL0     H65435  -2.615   9.865   5.153 -2.4494 -1.9004  0.7023
  496MOL0     H65436  -2.869   9.669   4.885  1.5727 -2.5872 -1.1879
  496MOL0     H65437  -3.092   9.559   4.821 -0.4393  0.9396  0.9249
  496MOL0     H65438  -3.233   9.167   4.860 -0.7266 -0.1091 -4.0403
  496MOL0     H65439  -3.096   9.276   4.800 -0.5642  0.0419 -1.4016
  496MOL0     H65440  -3.215   9.435   4.699  2.7744 -1.7187  1.6468
  496MOL0     H65441  -3.374   9.387   4.788  0.0180  0.5981 -1.7678
  496MOL0     H65442  -3.329   9.164   4.678  1.3994 -1.3575 -1.2801
  496MOL0     H65443  -3.223   9.247   4.565  1.9096  4.8197  2.4296
  496MOL0     H65444  -3.515   9.322   4.606 -1.3477 -2.9707 -1.1187
  496MOL0     H65445  -3.403   9.371   4.465  1.1532  0.3044  0.2143
  496MOL0     H65446  -3.426   9.127   4.397 -2.1175 -0.1243 -0.4251
  496MOL0     H65447  -3.569   9.234   4.387  1.2333  3.5141 -0.6078
  496MOL0     H65448  -3.676   9.109   4.549  0.8363 -0.1641  0.9434
  496MOL0     H65449  -3.538   9.062   4.627 -2.1051  1.2964  0.7901
  496MOL0     H65450  -3.638   8.965   4.344 -0.5888 -2.5671 -0.1549
  496MOL0     H65451  -3.484   8.910   4.428 -0.7987 -1.3985 -0.8375
  496MOL0     H65452  -3.618   8.808   4.614 -2.0885 -4.0188 -0.0792
  496MOL0     H65453  -3.619   8.746   4.454  1.9592 -1.1939  1.4285
  496MOL0     H65454  -3.067   9.323   5.179 -1.6186  0.7053 -0.3547
  496MOL0     H65455  -2.837   9.439   5.229  2.0727  0.1804 -0.3924
  496MOL0     H65456  -2.398   9.509   5.235 -2.6193 -0.1938  0.7493
  496MOL0     H65457  -2.224   9.634   5.347  2.2174  1.5605  0.2203
  496MOL0     H65458  -0.386   9.959   5.409 -1.5405  2.3939 -3.6696
  496MOL0     H65459  -0.172  10.063   5.415  1.6623  1.0865 -1.8740
  496MOL0     H65460   0.342   9.957   5.492  3.4015 -0.9801 -0.2641
  496MOL0     H65461   0.584  10.027   5.424 -0.6730 -2.1347  0.7728
  496MOL0     H65462   0.691  10.324   5.294  0.1299 -0.3244  0.6094
  496MOL0     H65463   0.662  10.330   5.123 -0.1517  0.4648  0.4378
  496MOL0     H65464   0.895  10.164   5.229  3.5620  0.6649 -1.2249
  496MOL0     H65465   0.899  10.262   5.087  0.4753 -2.5161 -0.1003
  496MOL0     H65466   0.893  10.350   5.377 -2.3365  1.1727 -0.4445
  496MOL0     H65467   0.900  10.474   5.257  3.2744  1.7348  3.5647
  496MOL0     H65468   1.118  10.466   5.328  0.8929 -1.2066  1.1730
  496MOL0     H65469   1.113  10.289   5.347  2.5740 -0.2281 -0.9164
  496MOL0     H65470   1.257  10.297   4.977 -0.9424  1.4252  0.7517
  496MOL0     H65471   0.457  10.195   5.061  1.3803 -0.6379  0.4943
  496MOL0     H65472   0.212  10.145   5.128 -1.9118 -1.8851  0.2105
  497MOL0     O65473   6.201   4.654   7.547  0.3859 -1.1002 -0.0775
  497MOL0     C65474   6.319   4.625   7.518 -0.7401  0.1624 -0.3842
  497MOL0     O65475   6.355   4.529   7.433  0.4537  0.0333  0.1314
  497MOL0     C65476   6.275   4.515   7.320 -1.2202 -0.1209 -0.0497
  497MOL0     C65477   6.274   4.387   7.264  0.7364 -0.1072  0.4480
  497MOL0     C65478   6.208   4.355   7.149 -0.4496  0.3114  0.7510
  497MOL0     C65479   6.137   4.458   7.074  0.0224 -0.1374  0.2779
  497MOL0     O65480   6.068   4.418   6.959 -0.0109 -0.3431 -0.1072
  497MOL0     C65481   6.049   4.513   6.854 -0.2646 -0.8486 -1.0753
  497MOL0     C65482   6.092   4.437   6.730 -0.0258 -0.1373  0.0243
  497MOL0     C65483   6.011   4.312   6.688 -0.3969  0.4924  0.4889
  497MOL0     C65484   6.047   4.288   6.536 -0.7193  0.0642  0.0500
  497MOL0     C65485   5.988   4.165   6.475  0.4439  0.1980  0.9530
  497MOL0     C65486   5.838   4.146   6.464  0.1097  0.3900  0.3184
  497MOL0     C65487   5.761   4.272   6.402 -0.4592 -0.4266  1.3376
  497MOL0     C65488   5.810   4.313   6.264  0.1305 -0.3568  0.7484
  497MOL0     N65489   5.725   4.423   6.207 -0.4995 -0.2137  0.2761
  497MOL0     C65490   5.609   4.399   6.140 -0.8459  0.5210 -0.6346
  497MOL0     C65491   5.583   4.511   6.062  0.5720  0.7312  0.0920
  497MOL0     C65492   5.469   4.531   5.962  0.4453  0.2783  1.2408
  497MOL0     C65493   5.362   4.428   5.971 -0.1632  0.2116 -0.8958
  497MOL0     C65494   5.256   4.456   5.865 -0.2907  0.5461  0.2988
  497MOL0     C65495   5.132   4.373   5.890 -0.0802  0.1123  0.3079
  497MOL0     O65496   5.024   4.421   5.809  0.1238 -0.0088  0.7494
  497MOL0     C65497   4.894   4.374   5.840 -0.2891 -0.7037  0.0293
  497MOL0     C65498   4.795   4.404   5.751 -0.2088  0.4837 -0.1080
  497MOL0     C65499   4.669   4.347   5.750  0.7502  0.9375  0.3724
  497MOL0     C65500   4.630   4.268   5.860 -0.1520  0.4375 -0.0287
  497MOL0     C65501   4.502   4.203   5.849  0.5634 -0.3871  0.5539
  497MOL0     O65502   4.422   4.203   5.736 -1.1513 -0.5926  0.3401
  497MOL0     C65503   4.296   4.142   5.744 -0.2861  0.1430 -0.6012
  497MOL0     C65504   4.203   4.177   5.849  1.4726 -0.1507 -0.8458
  497MOL0     C65505   4.069   4.140   5.827 -0.2928 -0.4822  0.3318
  497MOL0     C65506   4.037   4.050   5.728 -0.3912 -0.0014  0.3362
  497MOL0     O65507   3.902   4.018   5.712 -0.0088  0.7255  0.2911
  497MOL0     C65508   3.857   3.920   5.612  0.1081 -0.1243 -0.0199
  497MOL0     C65509   3.715   3.885   5.637 -1.3814 -0.1221  0.2282
  497MOL0     C65510   3.705   3.840   5.795 -0.1934  0.2860 -0.3412
  497MOL0     C65511   3.577   3.767   5.831 -0.6945  1.1396 -1.6274
  497MOL0     C65512   3.457   3.851   5.781 -0.1406 -0.5328 -0.9129
  497MOL0     C65513   3.320   3.804   5.837  0.6523 -0.3649 -1.3139
  497MOL0     C65514   3.213   3.907   5.800  0.1326 -0.2281 -0.6288
  497MOL0     C65515   3.081   3.836   5.808 -0.8362 -0.1425  0.8889
  497MOL0    Cl65516   3.059   3.688   5.710  0.6706 -0.0902 -0.2185
  497MOL0     C65517   4.138   3.998   5.649  0.2003 -0.8200  0.5155
  497MOL0     C65518   4.267   4.046   5.646  1.0147  0.2379  0.1520
  497MOL0     O65519   4.470   4.155   5.959 -0.4804  0.4963  0.0958
  497MOL0     C65520   4.732   4.239   5.957  0.3110 -0.1325 -0.5681
  497MOL0     C65521   4.861   4.293   5.943 -0.2143  0.3743 -0.4866
  497MOL0     N65522   5.690   4.599   6.086  0.3512  1.0316  0.3093
  497MOL0     N65523   5.775   4.543   6.171 -0.5170  0.2436 -0.0347
  497MOL0     C65524   6.144   4.587   7.131 -0.9200 -0.4425  0.1847
  497MOL0     C65525   6.203   4.615   7.248 -0.5072  0.0232 -1.3520
  497MOL0     C65526   6.430   4.678   7.595  0.5025 -0.9758 -0.4973
  497MOL0     C65527   6.539   4.594   7.619  0.9931 -0.1429 -1.1950
  497MOL0     C65528   6.641   4.631   7.706 -0.5649 -0.2270 -0.0977
  497MOL0     C65529   6.638   4.758   7.755 -0.3195 -0.2997  0.4997
  497MOL0     O65530   6.742   4.789   7.836  0.5807 -0.7022  0.2096
  497MOL0     C65531   6.786   4.931   7.867  1.0138  0.0657  0.3939
  497MOL0     C65532   6.942   4.937   7.879 -0.2088  0.5169  0.9371
  497MOL0     C65533   7.001   4.878   8.013  0.0666 -0.2813 -0.5757
  497MOL0     C65534   7.009   4.983   8.123 -0.1054 -0.4188 -0.8971
  497MOL0     C65535   7.040   4.917   8.257  0.5365  0.1537 -0.4419
  497MOL0     C65536   7.076   4.875   8.366  0.0820  0.9730 -0.1818
  497MOL0     C65537   6.539   4.852   7.714  0.2980 -0.0625 -0.0331
  497MOL0     C65538   6.429   4.807   7.636 -0.4933  0.1720  0.9973
  497MOL0     H65539   6.333   4.325   7.332  0.1468  0.7956  1.8259
  497MOL0     H65540   6.215   4.255   7.107  0.5444  1.3950 -1.8352
  497MOL0     H65541   6.115   4.601   6.860  0.3082 -1.2001 -1.9520
  497MOL0     H65542   5.946   4.548   6.844 -0.6694 -1.7272 -0.1145
  497MOL0     H65543   6.198   4.415   6.747  0.3456  1.7528  0.3107
  497MOL0     H65544   6.082   4.508   6.647 -2.2173 -0.0618  0.2905
  497MOL0     H65545   5.910   4.352   6.677 -0.5724  0.0544  0.4697
  497MOL0     H65546   6.011   4.225   6.754 -2.1660  0.0335 -0.0506
  497MOL0     H65547   6.011   4.368   6.471 -0.7282 -0.5175 -0.6691
  497MOL0     H65548   6.156   4.286   6.528 -0.7791 -1.1385 -0.7584
  497MOL0     H65549   6.036   4.079   6.521  2.0764  2.0388  2.9022
  497MOL0     H65550   6.019   4.167   6.370 -1.2667 -0.5929  0.4111
  497MOL0     H65551   5.803   4.141   6.568  1.0510 -1.4936  0.6004
  497MOL0     H65552   5.822   4.055   6.404 -1.9367 -0.3771  1.8815
  497MOL0     H65553   5.654   4.248   6.396 -0.4793 -0.1426  0.3010
  497MOL0     H65554   5.780   4.355   6.471  0.0560  0.0244  0.6705
  497MOL0     H65555   5.807   4.234   6.189  2.2937  0.4003 -0.2225
  497MOL0     H65556   5.914   4.347   6.272  0.0077  0.7231 -1.4499
  497MOL0     H65557   5.541   4.314   6.146  0.5144 -0.6482 -1.2994
  497MOL0     H65558   5.511   4.535   5.861 -2.0866 -1.4989 -0.0102
  497MOL0     H65559   5.428   4.631   5.979 -0.1274  0.9144 -2.8351
  497MOL0     H65560   5.315   4.438   6.069 -3.6035 -1.4832 -2.2075
  497MOL0     H65561   5.406   4.330   5.951  4.5951  1.1448  3.1249
  497MOL0     H65562   5.245   4.565   5.862 -1.1353  0.5094  1.4084
  497MOL0     H65563   5.293   4.417   5.770  1.7194 -1.0286  1.6326
  497MOL0     H65564   5.106   4.396   5.994 -0.2377  0.4668  0.1923
  497MOL0     H65565   5.140   4.264   5.882  2.2314  0.3718 -2.3478
  497MOL0     H65566   4.821   4.467   5.666  0.8874  0.0446 -0.1130
  497MOL0     H65567   4.605   4.370   5.665  0.8973  2.0065  0.5285
  497MOL0     H65568   4.233   4.254   5.919 -2.3916  0.7177  0.0560
  497MOL0     H65569   3.992   4.189   5.885  0.5395  0.4226  0.6947
  497MOL0     H65570   3.922   3.832   5.622  2.1842  1.5361  2.0053
  497MOL0     H65571   3.865   3.963   5.512 -4.0437  0.8969 -0.1178
  497MOL0     H65572   3.688   3.804   5.568 -0.8785 -0.8153  0.8237
  497MOL0     H65573   3.650   3.970   5.617 -1.0784  0.8140  2.8933
  497MOL0     H65574   3.709   3.931   5.856 -5.3677  0.2156  0.5920
  497MOL0     H65575   3.791   3.777   5.820  1.0460  1.2907 -1.9051
  497MOL0     H65576   3.583   3.666   5.790  1.9557 -0.1026  1.3809
  497MOL0     H65577   3.568   3.758   5.940  0.3751 -2.7870 -1.7276
  497MOL0     H65578   3.448   3.853   5.672  0.4193  2.3912 -0.9750
  497MOL0     H65579   3.475   3.955   5.810 -1.7325  0.0114 -1.7518
  497MOL0     H65580   3.331   3.809   5.946 -0.0989  0.6453 -1.2655
  497MOL0     H65581   3.293   3.704   5.802 -0.5196  0.4028 -2.7018
  497MOL0     H65582   3.219   3.986   5.876  1.2472 -1.2781  0.4125
  497MOL0     H65583   3.243   3.950   5.704  0.6103 -1.5352 -1.0798
  497MOL0     H65584   3.004   3.905   5.772 -0.7935  1.6945  3.9846
  497MOL0     H65585   3.053   3.813   5.911  4.7098  3.7888  3.7950
  497MOL0     H65586   4.103   3.924   5.577 -3.3856  0.8854  0.2907
  497MOL0     H65587   4.332   4.003   5.571  0.2408 -3.3801  1.3874
  497MOL0     H65588   4.711   4.164   6.032 -1.1710  0.2330 -0.5856
  497MOL0     H65589   4.929   4.253   6.017 -0.6541 -0.2036 -0.3822
  497MOL0     H65590   6.090   4.664   7.077 -0.5529  0.2065  0.7263
  497MOL0     H65591   6.215   4.719   7.275  1.7102  0.2367 -2.9113
  497MOL0     H65592   6.542   4.498   7.569  1.7017 -0.2101 -1.0432
  497MOL0     H65593   6.714   4.556   7.734 -1.0535 -0.2903  1.0988
  497MOL0     H65594   6.742   4.963   7.962 -0.5745  0.5211 -0.4678
  497MOL0     H65595   6.749   4.996   7.787 -0.8155 -2.1106 -0.6237
  497MOL0     H65596   6.972   4.878   7.792  0.4492  1.1466  0.7302
  497MOL0     H65597   6.977   5.039   7.866  0.2520  0.2135 -0.3874
  497MOL0     H65598   7.102   4.850   7.979 -1.2630 -3.2155 -2.4694
  497MOL0     H65599   6.945   4.789   8.042  0.7901 -1.0556 -1.4628
  497MOL0     H65600   7.083   5.061   8.103 -0.3323  0.0497  0.0404
  497MOL0     H65601   6.911   5.028   8.141  0.1511 -0.1955 -0.0472
  497MOL0     H65602   7.114   4.838   8.459  0.7930  1.9387 -0.0813
  497MOL0     H65603   6.539   4.953   7.754  0.2970  0.2205 -0.7376
  497MOL0     H65604   6.347   4.877   7.620  1.0954  2.0684  0.8304
  498MOL0     O65605   1.139  10.534   4.444  0.3401  0.4573 -0.0838
  498MOL0     C65606   1.180  10.468   4.538 -0.5201  0.1884 -0.7683
  498MOL0     O65607   1.272  10.511   4.635 -0.0014 -0.7007 -0.1156
  498MOL0     C65608   1.371  10.599   4.586 -0.6591  0.6708  0.0485
  498MOL0     C65609   1.473  10.552   4.498 -0.0091  0.2305 -0.9309
  498MOL0     C65610   1.571  10.646   4.456 -0.4939 -0.6719  0.3570
  498MOL0     C65611   1.584  10.777   4.505 -0.4321 -0.5193 -0.5696
  498MOL0     O65612   1.678  10.862   4.448 -0.1039 -0.2178 -0.2822
  498MOL0     C65613   1.664  11.003   4.477 -1.2668  0.2041  0.4217
  498MOL0     C65614   1.749  11.071   4.372  0.3214 -0.6567  0.6740
  498MOL0     C65615   1.881  11.115   4.436  0.6430 -0.6326  0.4929
  498MOL0     C65616   1.996  11.155   4.333 -0.6068  0.6892 -0.4380
  498MOL0     C65617   2.142  11.150   4.389 -0.2836 -0.6357  0.1842
  498MOL0     C65618   2.165  11.231   4.519 -0.3132  0.1820  0.1386
  498MOL0     C65619   2.149  11.379   4.497  0.0386  0.0268 -0.7480
  498MOL0     C65620   2.217  11.451   4.382  0.2018  0.3458  0.4189
  498MOL0     N65621   2.139  11.566   4.328 -0.7657 -0.5286  0.1371
  498MOL0     C65622   2.082  11.673   4.394  0.1170  0.3077  0.1905
  498MOL0     C65623   2.052  11.758   4.300 -0.5154 -0.3808 -0.1058
  498MOL0     C65624   1.975  11.888   4.320  0.0680  0.6318  1.0418
  498MOL0     C65625   1.833  11.886   4.258  0.3182 -0.0536  0.8666
  498MOL0     C65626   1.830  11.924   4.107 -0.3237 -0.0097 -0.7508
  498MOL0     C65627   1.688  11.907   4.051 -0.3547 -0.1266  2.1157
  498MOL0     O65628   1.606  12.003   4.111  0.4805 -0.0453 -0.6310
  498MOL0     C65629   1.470  11.997   4.101 -0.2668  0.3030  0.0669
  498MOL0     C65630   1.397  11.888   4.039 -0.7346 -0.4974  0.5403
  498MOL0     C65631   1.263  11.880   4.066  0.3176  0.2342  0.4481
  498MOL0     C65632   1.186  11.981   4.133  0.3856 -0.3042 -0.6933
  498MOL0     C65633   1.037  11.979   4.146 -1.0320 -0.8615  0.3054
  498MOL0     O65634   0.979  12.093   4.178 -0.2676 -0.8463 -0.2882
  498MOL0     C65635   0.849  12.119   4.187 -0.9198 -1.1934  0.1083
  498MOL0     C65636   0.739  12.053   4.138  0.6882  0.4555 -0.0207
  498MOL0     C65637   0.609  12.104   4.153  0.5971 -0.5427  0.1095
  498MOL0     C65638   0.592  12.236   4.211  0.1662  0.5931  0.2600
  498MOL0     O65639   0.466  12.291   4.226  0.0159 -0.3705  0.1266
  498MOL0     C65640   0.349  12.236   4.152 -0.0534  0.7207 -0.3006
  498MOL0     C65641   0.224  12.324   4.176  0.2931  0.2936 -0.6228
  498MOL0     C65642   0.181  12.330   4.318 -0.8003 -0.2556 -0.2704
  498MOL0     C65643   0.039  12.391   4.325  0.2967  0.0298 -0.1594
  498MOL0     C65644   0.026  12.413   4.476 -0.4740 -0.4607  0.3397
  498MOL0     C65645  -0.118  12.460   4.512 -0.7716  0.1032 -0.1759
  498MOL0     C65646  -0.143  12.486   4.662 -1.1924  0.1391  0.2651
  498MOL0     C65647  -0.260  12.413   4.711 -0.1146  0.0725 -0.2026
  498MOL0    Cl65648  -0.412  12.436   4.606  0.2336 -0.0479 -0.1026
  498MOL0     C65649   0.704  12.306   4.257 -0.4692 -0.0023  0.4925
  498MOL0     C65650   0.827  12.252   4.231 -0.5656  0.4907  0.0328
  498MOL0     O65651   0.976  11.877   4.116  0.0256 -0.0816 -0.7012
  498MOL0     C65652   1.261  12.079   4.197  0.2539 -0.3629 -0.1030
  498MOL0     C65653   1.405  12.097   4.179  0.4171 -0.1905 -0.0098
  498MOL0     N65654   2.074  11.706   4.175 -0.3201  0.0604 -0.4656
  498MOL0     N65655   2.129  11.591   4.202 -0.0280 -0.2502  0.5330
  498MOL0     C65656   1.485  10.815   4.596 -0.7065  0.2734 -0.6329
  498MOL0     C65657   1.382  10.725   4.631 -0.5670 -0.2424  0.2169
  498MOL0     C65658   1.098  10.351   4.565 -0.2124  0.3117  0.3101
  498MOL0     C65659   0.985  10.298   4.493 -0.5485  0.0856 -0.7646
  498MOL0     C65660   0.933  10.175   4.531 -0.2748  0.0192  0.5714
  498MOL0     C65661   0.971  10.111   4.647  0.2105 -1.2482  0.2829
  498MOL0     O65662   0.906   9.996   4.671  0.1454  0.3385  0.1235
  498MOL0     C65663   0.938   9.919   4.790  0.1655  0.2792 -0.2463
  498MOL0     C65664   0.815   9.863   4.840  0.6974  1.2098 -0.1585
  498MOL0     C65665   0.721   9.950   4.925 -0.7344 -0.6747  0.3250
  498MOL0     C65666   0.578   9.899   4.929  0.4386 -0.5475 -0.1378
  498MOL0     C65667   0.533   9.889   4.788  0.4879  0.4728 -0.2637
  498MOL0     C65668   0.490   9.868   4.673 -0.2830  0.7814  0.1748
  498MOL0     C65669   1.078  10.166   4.722 -0.2343  0.2238  0.2671
  498MOL0     C65670   1.132  10.284   4.687 -0.8759 -0.1324 -0.0039
  498MOL0     H65671   1.455  10.448   4.472 -0.4884  0.1433 -0.2960
  498MOL0     H65672   1.635  10.600   4.381  0.8191  3.2360 -1.1658
  498MOL0     H65673   1.701  11.017   4.579  3.8207 -2.6029 -0.7019
  498MOL0     H65674   1.563  11.044   4.481 -1.3327  0.0106  0.9511
  498MOL0     H65675   1.701  11.163   4.335  0.7657 -1.3589 -1.8236
  498MOL0     H65676   1.760  11.008   4.283 -1.2118  1.2164 -0.9377
  498MOL0     H65677   1.918  11.028   4.493 -3.8397 -2.2705  1.2895
  498MOL0     H65678   1.873  11.193   4.512  3.6202  0.1184  0.1733
  498MOL0     H65679   1.982  11.085   4.250 -1.3628  0.6265 -0.2679
  498MOL0     H65680   1.980  11.253   4.286  1.0459  0.2609 -2.0159
  498MOL0     H65681   2.208  11.180   4.306  1.7565 -2.4125  1.0681
  498MOL0     H65682   2.163  11.043   4.392 -3.9774 -1.5455 -1.3488
  498MOL0     H65683   2.267  11.212   4.555 -1.3147  0.6595  3.5627
  498MOL0     H65684   2.100  11.186   4.594 -0.9286  0.4639 -0.2161
  498MOL0     H65685   2.045  11.411   4.484  0.0394  1.1541  1.4912
  498MOL0     H65686   2.186  11.418   4.593  0.8986 -0.2399 -0.9613
  498MOL0     H65687   2.230  11.390   4.293 -2.7141  0.9425 -0.5197
  498MOL0     H65688   2.312  11.492   4.417  1.9854 -0.7289 -2.8261
  498MOL0     H65689   2.085  11.693   4.500  1.7213  0.7962  0.0682
  498MOL0     H65690   2.032  11.963   4.264  0.5390 -2.4613 -3.0653
  498MOL0     H65691   1.972  11.918   4.426  2.5295  2.9484  0.5815
  498MOL0     H65692   1.762  11.956   4.304 -0.8528  0.6116 -1.7584
  498MOL0     H65693   1.789  11.788   4.281  1.5764 -1.0205 -0.6294
  498MOL0     H65694   1.858  12.029   4.093 -0.3601 -0.0698 -1.3180
  498MOL0     H65695   1.906  11.869   4.050  0.8482  0.5033  0.2618
  498MOL0     H65696   1.651  11.805   4.058  1.1735 -0.6524  3.1572
  498MOL0     H65697   1.684  11.918   3.942  0.1306  0.8501  2.1851
  498MOL0     H65698   1.450  11.818   3.975  0.1102  1.0540 -0.5157
  498MOL0     H65699   1.221  11.792   4.019  0.4573 -1.1500  2.7369
  498MOL0     H65700   0.738  11.948   4.111 -2.0928  0.1452  0.9705
  498MOL0     H65701   0.523  12.047   4.119 -1.0892  2.0534 -0.2813
  498MOL0     H65702   0.326  12.136   4.189  2.0909  1.7702  4.8040
  498MOL0     H65703   0.364  12.244   4.044 -1.0585  0.3682 -0.4738
  498MOL0     H65704   0.141  12.287   4.116  0.2714  1.0790 -1.0975
  498MOL0     H65705   0.232  12.427   4.140 -3.9160  2.4170  3.4772
  498MOL0     H65706   0.250  12.395   4.372 -1.8996  0.9501 -0.2723
  498MOL0     H65707   0.186  12.229   4.359 -0.6898 -1.8647 -3.8438
  498MOL0     H65708   0.019  12.479   4.263 -0.6495  1.4182  2.0051
  498MOL0     H65709  -0.028  12.312   4.289 -0.4140  1.6417 -2.6263
  498MOL0     H65710   0.092  12.492   4.511 -1.8280  0.0738  1.8388
  498MOL0     H65711   0.032  12.314   4.523 -3.6297 -0.9782 -0.1292
  498MOL0     H65712  -0.186  12.383   4.476  0.8301 -1.0671 -0.8429
  498MOL0     H65713  -0.141  12.547   4.450 -0.3134 -0.2193 -0.8017
  498MOL0     H65714  -0.052  12.464   4.720  0.2686  2.6816 -0.8627
  498MOL0     H65715  -0.150  12.594   4.673 -0.7570  0.2911 -0.7928
  498MOL0     H65716  -0.286  12.448   4.811  0.9783  0.8863 -0.1811
  498MOL0     H65717  -0.266  12.304   4.718 -1.6342 -0.0935 -2.7128
  498MOL0     H65718   0.683  12.404   4.298  0.0499  0.9094 -1.3210
  498MOL0     H65719   0.912  12.314   4.258  0.6219 -1.7793  1.9855
  498MOL0     H65720   1.209  12.162   4.243  3.6792  2.6894 -1.2095
  498MOL0     H65721   1.458  12.176   4.231  2.8920 -0.7246 -1.5178
  498MOL0     H65722   1.517  10.908   4.643 -0.7283 -0.0231 -0.0177
  498MOL0     H65723   1.309  10.763   4.701 -1.8866 -0.3186 -1.0638
  498MOL0     H65724   0.955  10.350   4.403 -1.5765 -0.7236 -0.9006
  498MOL0     H65725   0.860  10.137   4.461  1.6966  2.9522 -3.4787
  498MOL0     H65726   0.994   9.975   4.866  2.4674 -0.7041 -1.1537
  498MOL0     H65727   1.013   9.845   4.760 -1.4770 -0.9849 -1.3910
  498MOL0     H65728   0.772   9.821   4.748  1.1345  0.1232  0.1126
  498MOL0     H65729   0.832   9.780   4.909 -0.1067 -2.5837 -4.0722
  498MOL0     H65730   0.729  10.054   4.893 -1.7870 -0.0004  2.1123
  498MOL0     H65731   0.753   9.956   5.029  0.0120  1.3395  0.0245
  498MOL0     H65732   0.585   9.806   4.985  0.7615 -0.7403 -0.4908
  498MOL0     H65733   0.514   9.971   4.982  0.3849  0.3660 -1.3969
  498MOL0     H65734   0.456   9.859   4.571 -1.9780 -0.2018  0.7871
  498MOL0     H65735   1.125  10.121   4.809 -0.6047  1.9187  1.3889
  498MOL0     H65736   1.217  10.320   4.743 -2.7932  1.3458  2.0960
  499MOL0     O65737   3.497   9.424   9.272 -0.3631 -0.0164  0.5285
  499MOL0     C65738   3.479   9.504   9.360 -0.8034  0.4714  0.6551
  499MOL0     O65739   3.356   9.545   9.399 -0.1089  0.9949 -0.2622
  499MOL0     C65740   3.238   9.479   9.347  0.2829 -0.6138  0.2958
  499MOL0     C65741   3.158   9.564   9.265  0.6483 -0.5727 -0.3277
  499MOL0     C65742   3.023   9.536   9.244 -0.0687  0.1746 -0.1983
  499MOL0     C65743   2.966   9.413   9.283 -0.3438  0.3477 -0.7830
  499MOL0     O65744   2.829   9.381   9.264 -0.1350 -0.7547  0.3398
  499MOL0     C65745   2.773   9.408   9.136  0.4954 -0.1937  0.1673
  499MOL0     C65746   2.686   9.544   9.124 -0.3280 -0.0506 -0.1468
  499MOL0     C65747   2.593   9.579   9.235 -0.5800  0.4284  0.0270
  499MOL0     C65748   2.503   9.701   9.210  0.2438  0.2029 -0.4501
  499MOL0     C65749   2.450   9.748   9.344 -0.1526  0.1244  0.0726
  499MOL0     C65750   2.405   9.895   9.345 -0.4920  0.1051  0.3267
  499MOL0     C65751   2.268   9.904   9.280  0.4187  0.3972 -0.0380
  499MOL0     C65752   2.259   9.964   9.146 -1.4666 -0.3448 -0.0992
  499MOL0     N65753   2.131  10.014   9.111 -1.2453 -0.4702  0.3791
  499MOL0     C65754   2.083  10.132   9.157 -0.2705  0.1373 -0.4132
  499MOL0     C65755   1.954  10.143   9.114 -0.0565 -1.3364  0.4861
  499MOL0     C65756   1.873  10.271   9.153  0.3844  0.6553 -0.6892
  499MOL0     C65757   1.730  10.264   9.095  0.3373 -0.5312 -0.4737
  499MOL0     C65758   1.639  10.364   9.169  0.1191 -0.3223 -0.4005
  499MOL0     C65759   1.496  10.351   9.122  0.4188  0.7245  0.3641
  499MOL0     O65760   1.484  10.387   8.983  0.5064  0.2070  0.6551
  499MOL0     C65761   1.362  10.374   8.935  0.2351 -0.2000  0.2985
  499MOL0     C65762   1.280  10.489   8.933 -0.1031  1.1294  0.0712
  499MOL0     C65763   1.145  10.471   8.887 -0.5922 -0.3608  0.7559
  499MOL0     C65764   1.098  10.339   8.858  0.2228  0.2212 -0.5163
  499MOL0     C65765   0.947  10.316   8.823  0.1702  1.3391 -0.0047
  499MOL0     O65766   0.879  10.432   8.858  0.1216 -0.3908  0.2719
  499MOL0     C65767   0.742  10.439   8.852 -0.2968  0.3751  0.4479
  499MOL0     C65768   0.646  10.338   8.885  0.9453 -0.3668 -0.2403
  499MOL0     C65769   0.506  10.354   8.872  0.3854 -0.2435  0.3932
  499MOL0     C65770   0.459  10.475   8.825 -0.4570  0.0588  0.1043
  499MOL0     O65771   0.326  10.481   8.811 -0.2848 -0.8723 -0.0057
  499MOL0     C65772   0.255  10.598   8.742 -0.0581  0.7486 -0.4851
  499MOL0     C65773   0.106  10.557   8.733 -0.1489 -0.2321  0.4791
  499MOL0     C65774   0.021  10.675   8.696 -0.3964 -0.1948  0.0707
  499MOL0     C65775  -0.124  10.644   8.714  0.0952  0.3223  0.1360
  499MOL0     C65776  -0.206  10.753   8.649 -0.2871 -0.2593  1.5786
  499MOL0     C65777  -0.358  10.731   8.633  0.0954  0.3337 -0.0602
  499MOL0     C65778  -0.406  10.618   8.536 -0.4121  0.3648  0.1723
  499MOL0     C65779  -0.320  10.593   8.421  0.3356  0.1948  0.4290
  499MOL0    Cl65780  -0.307  10.740   8.311  0.2224  0.3798  0.8374
  499MOL0     C65781   0.549  10.576   8.801  0.6400 -0.5030 -0.3524
  499MOL0     C65782   0.684  10.558   8.812  0.2743  0.9610 -0.5414
  499MOL0     O65783   0.898  10.209   8.796  0.4042  0.5299 -0.0932
  499MOL0     C65784   1.174  10.230   8.870 -0.6750  1.2064 -0.4276
  499MOL0     C65785   1.311  10.243   8.896  0.2959 -0.0004  0.7991
  499MOL0     N65786   1.930  10.043   9.023 -1.0512 -0.1357  0.4474
  499MOL0     N65787   2.040   9.963   9.027  0.4670 -0.0667 -0.0864
  499MOL0     C65788   3.052   9.322   9.366  0.0800 -0.0139  0.0933
  499MOL0     C65789   3.190   9.351   9.390 -0.2848  0.0652  0.0548
  499MOL0     C65790   3.593   9.570   9.423 -0.5730 -0.6196  0.0617
  499MOL0     C65791   3.718   9.532   9.375  0.2136  0.8960  0.1072
  499MOL0     C65792   3.832   9.603   9.412  0.8517  0.3230 -0.6290
  499MOL0     C65793   3.825   9.712   9.504  0.0996  0.8496  0.3283
  499MOL0     O65794   3.930   9.779   9.538 -0.7356 -0.3227 -0.0740
  499MOL0     C65795   4.055   9.737   9.476  0.0531  0.5047  0.4689
  499MOL0     C65796   4.155   9.840   9.520  0.3341  0.3093  0.7718
  499MOL0     C65797   4.188   9.840   9.677 -0.5394 -0.1358  1.1790
  499MOL0     C65798   4.261   9.961   9.720 -0.1767 -0.6792  0.1232
  499MOL0     C65799   4.401   9.942   9.732  0.3548  0.2280  0.9943
  499MOL0     C65800   4.519   9.941   9.752  0.8309 -0.2714  0.4836
  499MOL0     C65801   3.696   9.752   9.542 -0.3299 -0.0104 -0.2421
  499MOL0     C65802   3.578   9.681   9.515 -0.3251  0.2796 -0.9652
  499MOL0     H65803   3.201   9.663   9.252  1.3309 -0.7491  0.5649
  499MOL0     H65804   2.968   9.606   9.183  1.0985  1.6225  0.3638
  499MOL0     H65805   2.711   9.322   9.109  1.7694 -1.3993  0.9672
  499MOL0     H65806   2.850   9.422   9.060  0.8329  1.7246  0.7894
  499MOL0     H65807   2.627   9.533   9.033  0.8206  0.5421 -0.9935
  499MOL0     H65808   2.748   9.629   9.093  1.0061 -1.0251 -0.2751
  499MOL0     H65809   2.654   9.600   9.323  1.4972  3.8352 -2.0010
  499MOL0     H65810   2.535   9.489   9.258  3.2195 -1.7367  2.0937
  499MOL0     H65811   2.573   9.777   9.172  0.6260  0.5484  0.8958
  499MOL0     H65812   2.422   9.689   9.137  0.8158 -0.0541 -1.0493
  499MOL0     H65813   2.522   9.739   9.426 -1.6627 -0.3635  1.3838
  499MOL0     H65814   2.380   9.677   9.387 -0.3313  0.2093 -0.0774
  499MOL0     H65815   2.465   9.963   9.284  0.3852 -1.2258 -0.3368
  499MOL0     H65816   2.405   9.939   9.446 -1.2946  0.1972  0.2905
  499MOL0     H65817   2.216   9.808   9.284  0.9726  0.0931 -0.1509
  499MOL0     H65818   2.216   9.976   9.344  1.1764  2.1762 -1.3441
  499MOL0     H65819   2.305   9.903   9.067  4.5153  2.5536  0.5601
  499MOL0     H65820   2.334  10.043   9.139 -1.4702 -0.3934 -0.8592
  499MOL0     H65821   2.135  10.195   9.229  3.9599 -2.2016 -1.1014
  499MOL0     H65822   1.923  10.358   9.110  0.0489  0.5604 -1.2827
  499MOL0     H65823   1.864  10.284   9.261  0.6881  1.4940 -0.7564
  499MOL0     H65824   1.691  10.162   9.099 -0.8573 -0.4559 -4.9359
  499MOL0     H65825   1.735  10.297   8.991 -1.9497  4.0009  0.5754
  499MOL0     H65826   1.646  10.350   9.277 -0.4047  1.6528 -0.0801
  499MOL0     H65827   1.665  10.468   9.149 -1.7458  0.7457  2.1808
  499MOL0     H65828   1.448  10.424   9.189  2.2385  1.9812  0.3954
  499MOL0     H65829   1.468  10.249   9.149 -1.0213  1.1722  0.6326
  499MOL0     H65830   1.309  10.589   8.963  4.2474 -1.0654  4.6089
  499MOL0     H65831   1.085  10.561   8.883  3.8944  2.9290 -0.0063
  499MOL0     H65832   0.682  10.246   8.931  3.3251  0.6308  0.0218
  499MOL0     H65833   0.436  10.276   8.898  0.1025  1.0450  4.1661
  499MOL0     H65834   0.300  10.628   8.647  0.3970 -1.3317 -0.9680
  499MOL0     H65835   0.266  10.691   8.800 -1.5375  2.1917 -2.3970
  499MOL0     H65836   0.069  10.513   8.826  0.3479 -0.5657  0.5247
  499MOL0     H65837   0.087  10.486   8.652  1.5067  1.7073 -1.7468
  499MOL0     H65838   0.032  10.697   8.590 -2.9423  0.2880 -0.1554
  499MOL0     H65839   0.036  10.766   8.755  0.7760 -0.1706 -0.2475
  499MOL0     H65840  -0.141  10.541   8.679 -0.1722  0.3398  0.2089
  499MOL0     H65841  -0.154  10.654   8.819 -1.9687 -0.0820 -0.3656
  499MOL0     H65842  -0.162  10.776   8.551 -3.1537  2.7210  0.8016
  499MOL0     H65843  -0.194  10.842   8.711  0.1547  1.4370 -0.8051
  499MOL0     H65844  -0.405  10.819   8.587  0.3094  1.4803  1.7975
  499MOL0     H65845  -0.402  10.725   8.733 -1.5166 -0.4043 -0.7826
  499MOL0     H65846  -0.421  10.525   8.591 -0.8812  0.0576 -0.4570
  499MOL0     H65847  -0.505  10.643   8.496  0.8481  1.2303 -2.6502
  499MOL0     H65848  -0.358  10.515   8.354  1.5908 -0.0526 -0.0401
  499MOL0     H65849  -0.216  10.580   8.453  0.0804 -2.0866  0.5445
  499MOL0     H65850   0.505  10.670   8.771 -1.8196 -1.5077 -0.1079
  499MOL0     H65851   0.755  10.640   8.808  2.8731 -0.9642  1.8627
  499MOL0     H65852   1.158  10.125   8.850 -1.4581  0.5874  2.8304
  499MOL0     H65853   1.380  10.161   8.881  2.0910  2.0156 -3.7982
  499MOL0     H65854   3.007   9.229   9.402 -1.6317  0.2657 -1.2122
  499MOL0     H65855   3.240   9.278   9.452  1.7290  1.0202 -0.3662
  499MOL0     H65856   3.728   9.452   9.302 -0.1480  0.4189  0.5695
  499MOL0     H65857   3.925   9.563   9.374 -0.8606 -2.7403 -1.9959
  499MOL0     H65858   4.045   9.735   9.367 -0.9099 -0.8234  0.5671
  499MOL0     H65859   4.093   9.644   9.518  2.1720  0.3005 -1.6311
  499MOL0     H65860   4.247   9.806   9.472 -1.0707 -3.9114  0.6389
  499MOL0     H65861   4.137   9.939   9.479  1.0642  0.5211  0.9429
  499MOL0     H65862   4.246   9.750   9.696  1.2345  0.4383 -1.0557
  499MOL0     H65863   4.092   9.844   9.730 -1.7082  1.9441 -0.8920
  499MOL0     H65864   4.230  10.047   9.660 -0.4750 -0.2225  0.9135
  499MOL0     H65865   4.229   9.996   9.819  2.4449  1.7683  0.2351
  499MOL0     H65866   4.624   9.927   9.767  0.4248 -5.9076 -0.0976
  499MOL0     H65867   3.691   9.836   9.610  0.1673 -0.3715  0.2582
  499MOL0     H65868   3.475   9.704   9.540 -1.3779 -1.1279 -3.5413
  500MOL0     O65869   5.733   7.501   4.888  0.4903 -0.3204  0.1560
  500MOL0     C65870   5.765   7.494   5.010 -0.8162  0.0206  1.0344
  500MOL0     O65871   5.677   7.517   5.110 -0.2210  0.0340 -0.4495
  500MOL0     C65872   5.541   7.544   5.082  0.3921  0.0611  0.6281
  500MOL0     C65873   5.442   7.486   5.157 -0.4073  0.8564 -0.0387
  500MOL0     C65874   5.306   7.516   5.139 -0.5170 -0.6621 -0.4432
  500MOL0     C65875   5.261   7.606   5.043  0.6004 -1.2377 -0.6226
  500MOL0     O65876   5.129   7.636   5.004  0.3314 -0.3842  0.3124
  500MOL0     C65877   5.031   7.575   5.088  0.0324 -1.1011 -0.2648
  500MOL0     C65878   4.902   7.630   5.036 -0.2596 -0.3830  0.8240
  500MOL0     C65879   4.782   7.545   5.065 -0.2366  0.2702 -0.3907
  500MOL0     C65880   4.723   7.481   4.939 -0.4585 -0.0107 -0.2261
  500MOL0     C65881   4.573   7.455   4.961  0.2703  0.2359  0.4778
  500MOL0     C65882   4.530   7.391   5.088  0.1628  0.5355 -0.4298
  500MOL0     C65883   4.371   7.369   5.100  0.8215  0.1752 -1.0145
  500MOL0     C65884   4.308   7.278   4.998  0.1533 -0.8055 -0.2294
  500MOL0     N65885   4.171   7.237   5.035  0.0543 -0.8910  0.5749
  500MOL0     C65886   4.057   7.303   4.995  0.0999  0.1572 -0.8373
  500MOL0     C65887   3.948   7.246   5.049 -1.4116 -0.3279 -0.1249
  500MOL0     C65888   3.817   7.304   5.040 -0.9888  0.3194 -0.6168
  500MOL0     C65889   3.787   7.430   5.127 -0.7137  0.0147 -0.9165
  500MOL0     C65890   3.785   7.399   5.273 -0.4157 -0.3679 -0.1691
  500MOL0     C65891   3.709   7.483   5.373  0.4702  0.6553  0.0970
  500MOL0     O65892   3.569   7.456   5.361  0.1209 -0.0310  1.0162
  500MOL0     C65893   3.484   7.534   5.443 -0.2190  0.5381  0.5206
  500MOL0     C65894   3.345   7.501   5.445  0.2839 -0.0238  0.4347
  500MOL0     C65895   3.256   7.559   5.539  0.5612  0.0311 -0.8024
  500MOL0     C65896   3.309   7.651   5.634 -0.7561  0.9566 -0.9376
  500MOL0     C65897   3.217   7.705   5.742  0.3549  0.3444  0.2971
  500MOL0     O65898   3.283   7.725   5.858  0.4547 -0.0372  0.0116
  500MOL0     C65899   3.212   7.740   5.976  0.3182 -0.4375  0.2520
  500MOL0     C65900   3.268   7.828   6.069 -0.1647  0.2832 -0.3838
  500MOL0     C65901   3.203   7.853   6.190  0.2900  0.0603 -0.8762
  500MOL0     C65902   3.081   7.795   6.220  0.1034 -0.4283 -0.0108
  500MOL0     O65903   3.016   7.818   6.335 -0.2138  0.6256  0.6504
  500MOL0     C65904   3.015   7.702   6.422  0.9117 -0.3112  0.3969
  500MOL0     C65905   2.908   7.716   6.532 -0.0526 -0.2966  0.4500
  500MOL0     C65906   2.760   7.730   6.487  0.3418  0.1669 -0.0473
  500MOL0     C65907   2.663   7.727   6.612  0.6979 -0.3632 -0.3302
  500MOL0     C65908   2.513   7.720   6.564 -0.1902 -0.0632 -0.2626
  500MOL0     C65909   2.422   7.687   6.684 -0.7644  0.3086  0.5424
  500MOL0     C65910   2.294   7.632   6.641  0.1405  0.2786 -0.6194
  500MOL0     C65911   2.186   7.629   6.751  0.1138  0.2355 -0.3492
  500MOL0    Cl65912   2.228   7.521   6.898 -0.1698  0.0720 -0.4116
  500MOL0     C65913   3.032   7.700   6.136  1.0900  0.7864  0.5089
  500MOL0     C65914   3.095   7.678   6.009  0.0187 -0.6448  0.6124
  500MOL0     O65915   3.095   7.717   5.725  0.2028  0.2559 -0.4047
  500MOL0     C65916   3.445   7.692   5.626 -0.0518 -0.9172 -0.3798
  500MOL0     C65917   3.524   7.641   5.533 -0.4567  0.6840  0.6899
  500MOL0     N65918   4.003   7.138   5.123  0.0561  0.5439 -1.0420
  500MOL0     N65919   4.137   7.140   5.116  1.1067 -0.5255  0.2551
  500MOL0     C65920   5.360   7.665   4.965  0.2680  0.3215  0.1951
  500MOL0     C65921   5.493   7.642   4.991 -0.4117 -0.1000 -0.8654
  500MOL0     C65922   5.904   7.453   5.043  0.5126  0.5639  0.2973
  500MOL0     C65923   5.950   7.481   5.171  0.8794  0.3046  0.2213
  500MOL0     C65924   6.079   7.448   5.204 -0.0275  0.5784 -0.4980
  500MOL0     C65925   6.162   7.363   5.132 -0.5764 -0.2384  0.6912
  500MOL0     O65926   6.272   7.301   5.191  0.1320 -0.0861  0.9344
  500MOL0     C65927   6.336   7.362   5.310  0.1070 -0.0775 -0.3576
  500MOL0     C65928   6.467   7.294   5.333  0.1552 -0.9282 -0.7424
  500MOL0     C65929   6.586   7.331   5.232 -0.4414 -0.0163  0.0398
  500MOL0     C65930   6.723   7.268   5.265  0.0564 -0.4159  0.2841
  500MOL0     C65931   6.820   7.313   5.162 -0.0110 -0.3826 -0.0492
  500MOL0     C65932   6.908   7.350   5.081 -0.2935  0.5587  0.2405
  500MOL0     C65933   6.121   7.338   5.002  0.4055  1.0134 -0.5171
  500MOL0     C65934   5.991   7.377   4.961 -0.9534 -0.8209  0.1019
  500MOL0     H65935   5.480   7.418   5.232  5.1504 -0.0669 -3.1575
  500MOL0     H65936   5.242   7.465   5.211 -0.4521 -0.3248 -0.1445
  500MOL0     H65937   5.028   7.602   5.193 -2.6960 -2.6298  0.1339
  500MOL0     H65938   5.032   7.466   5.079  0.7580 -1.0977 -0.2884
  500MOL0     H65939   4.913   7.639   4.928  1.2194 -0.2080  0.9761
  500MOL0     H65940   4.887   7.728   5.083 -2.6411 -0.0596 -0.4561
  500MOL0     H65941   4.715   7.616   5.114  1.5143  0.7567  1.4406
  500MOL0     H65942   4.814   7.479   5.146  0.6276  2.0810  0.7997
  500MOL0     H65943   4.727   7.555   4.858 -1.4461  4.1601  3.1439
  500MOL0     H65944   4.782   7.391   4.919  1.7577  1.7198 -2.0966
  500MOL0     H65945   4.536   7.400   4.874  0.1571  5.2004 -3.0786
  500MOL0     H65946   4.520   7.551   4.965  1.0550  0.6678  0.5493
  500MOL0     H65947   4.552   7.455   5.173 -2.4096 -0.5890  1.2250
  500MOL0     H65948   4.580   7.294   5.096 -1.5445 -0.2412  2.3509
  500MOL0     H65949   4.349   7.320   5.195 -0.2993 -2.1159 -2.3627
  500MOL0     H65950   4.323   7.467   5.098  1.6893  0.6967  0.9687
  500MOL0     H65951   4.370   7.193   4.971  0.6927 -0.4273 -0.1853
  500MOL0     H65952   4.300   7.351   4.916  0.9795  2.0323  2.0290
  500MOL0     H65953   4.055   7.388   4.928  2.0244  0.1102 -1.0307
  500MOL0     H65954   3.748   7.226   5.072  0.9469 -0.2072  2.7779
  500MOL0     H65955   3.803   7.319   4.933 -0.0189 -3.5257 -1.4424
  500MOL0     H65956   3.690   7.467   5.091 -0.8109  0.8005  0.1064
  500MOL0     H65957   3.860   7.509   5.105  1.0154 -1.1397  0.4421
  500MOL0     H65958   3.758   7.294   5.290  3.5689 -1.2794  1.8170
  500MOL0     H65959   3.893   7.404   5.294 -0.5955  0.4121  0.6143
  500MOL0     H65960   3.734   7.589   5.368  0.2147  0.7862  1.2119
  500MOL0     H65961   3.737   7.449   5.473  1.2870  1.4403  0.1405
  500MOL0     H65962   3.284   7.434   5.385  1.5682 -2.0615  1.2920
  500MOL0     H65963   3.154   7.525   5.553  1.3059 -1.8931  0.4592
  500MOL0     H65964   3.366   7.873   6.052  0.8409  0.4816  4.5724
  500MOL0     H65965   3.246   7.929   6.254 -1.2143 -0.9495  1.4597
  500MOL0     H65966   3.114   7.705   6.470  0.5734  1.8162  1.0641
  500MOL0     H65967   2.988   7.607   6.376 -0.5112  0.7837 -1.1380
  500MOL0     H65968   2.925   7.810   6.586 -2.1195  0.5593 -0.2722
  500MOL0     H65969   2.918   7.637   6.607  5.2734 -0.2346  0.1582
  500MOL0     H65970   2.737   7.644   6.423  1.7951  0.0982 -0.5159
  500MOL0     H65971   2.758   7.821   6.426 -1.9360  1.3892  1.6975
  500MOL0     H65972   2.693   7.639   6.669 -1.4803 -1.8398 -1.3500
  500MOL0     H65973   2.672   7.823   6.665  3.4809  0.9381 -2.8566
  500MOL0     H65974   2.511   7.639   6.491 -0.1720  0.0536 -0.3910
  500MOL0     H65975   2.479   7.816   6.526  1.2946  1.4446  1.9727
  500MOL0     H65976   2.409   7.783   6.734  2.1195  1.2538 -0.3545
  500MOL0     H65977   2.461   7.629   6.769  2.6847  2.7563  0.8346
  500MOL0     H65978   2.250   7.703   6.571 -2.1966 -0.0923  0.3895
  500MOL0     H65979   2.304   7.531   6.600  0.8596 -0.1915  0.6632
  500MOL0     H65980   2.092   7.594   6.708 -0.0920 -1.1584  1.1423
  500MOL0     H65981   2.175   7.734   6.778 -1.5535  1.0965 -3.8647
  500MOL0     H65982   2.951   7.636   6.169  0.3485  0.1869 -2.1965
  500MOL0     H65983   3.043   7.612   5.941 -0.0674  1.3393 -1.3463
  500MOL0     H65984   3.482   7.765   5.697 -1.3128 -0.4025 -0.2171
  500MOL0     H65985   3.624   7.683   5.538 -1.0538  2.1220  0.9473
  500MOL0     H65986   5.344   7.732   4.881  2.0997  1.8160  0.9688
  500MOL0     H65987   5.562   7.694   4.926 -0.1507 -0.4305 -0.8532
  500MOL0     H65988   5.889   7.537   5.241 -0.3718 -0.7749  0.0497
  500MOL0     H65989   6.097   7.463   5.310 -1.4012  0.5964 -0.2545
  500MOL0     H65990   6.288   7.360   5.408  1.7706 -1.9852  0.4870
  500MOL0     H65991   6.348   7.470   5.292  2.0101  0.5592  3.6705
  500MOL0     H65992   6.504   7.319   5.433 -0.9706  0.0831 -0.5619
  500MOL0     H65993   6.443   7.188   5.333  0.2915 -0.9941  1.1901
  500MOL0     H65994   6.606   7.439   5.233  1.9807 -0.2988 -2.9920
  500MOL0     H65995   6.563   7.306   5.128  0.2125 -0.0063 -0.1148
  500MOL0     H65996   6.771   7.282   5.362  1.3553 -0.1731 -0.3746
  500MOL0     H65997   6.698   7.164   5.243 -2.0162  0.5361 -2.4256
  500MOL0     H65998   6.981   7.384   5.010 -0.3698 -0.2537 -0.2457
  500MOL0     H65999   6.169   7.259   4.946 -3.0584 -0.8373 -1.1720
  500MOL0     H66000   5.959   7.339   4.864 -1.4983 -2.7302  0.9766
  501MOL0     O66001   8.909  10.773   4.141 -0.0313  0.9774 -0.4687
  501MOL0     C66002   8.900  10.696   4.044  0.3019  0.3912  0.0911
  501MOL0     O66003   8.785  10.667   3.975 -1.1634  0.0078  0.8654
  501MOL0     C66004   8.660  10.715   3.998 -0.1079 -0.2451 -0.3802
  501MOL0     C66005   8.561  10.696   3.901 -0.5728 -0.5004  0.0588
  501MOL0     C66006   8.427  10.738   3.925 -0.3491 -0.3608 -0.1643
  501MOL0     C66007   8.388  10.791   4.045 -0.2488  0.8629  0.8624
  501MOL0     O66008   8.258  10.828   4.071  0.5607 -0.7049 -0.1412
  501MOL0     C66009   8.165  10.720   4.091  0.6916  0.0704  0.0368
  501MOL0     C66010   8.023  10.751   4.035 -0.2740  0.1092 -0.0975
  501MOL0     C66011   8.041  10.777   3.881  0.8039  0.3425  0.1302
  501MOL0     C66012   7.905  10.814   3.827  0.2523  0.4095  0.7909
  501MOL0     C66013   7.806  10.697   3.807 -0.5323  0.4994  0.3484
  501MOL0     C66014   7.694  10.734   3.711  0.1531  0.0510  0.1647
  501MOL0     C66015   7.639  10.608   3.652  0.0946 -0.7357 -0.6077
  501MOL0     C66016   7.511  10.626   3.568  1.0392  0.3361 -0.3183
  501MOL0     N66017   7.438  10.744   3.598 -0.4820  0.1127 -0.5068
  501MOL0     C66018   7.344  10.752   3.701  0.2986 -0.3716  0.1929
  501MOL0     C66019   7.321  10.887   3.704  0.2721 -0.6233  0.7552
  501MOL0     C66020   7.223  10.972   3.784  1.5136 -0.2432 -0.4664
  501MOL0     C66021   7.085  10.946   3.735  0.4183 -0.2147 -0.9201
  501MOL0     C66022   7.083  10.993   3.587  0.9916 -0.2881  0.1786
  501MOL0     C66023   6.941  11.004   3.541 -0.3730 -0.2366 -0.0353
  501MOL0     O66024   6.856  11.079   3.622  0.0465  0.5790  0.4830
  501MOL0     C66025   6.724  11.108   3.589  0.1078  0.2038  0.0317
  501MOL0     C66026   6.672  11.203   3.675 -0.1777  0.6718  0.5901
  501MOL0     C66027   6.548  11.264   3.644 -0.4703  0.7881  0.3503
  501MOL0     C66028   6.466  11.195   3.560 -1.0838  0.9305 -0.4853
  501MOL0     C66029   6.322  11.234   3.555  0.0716  0.7530  0.3078
  501MOL0     O66030   6.252  11.174   3.462 -0.2802 -0.4566  0.3544
  501MOL0     C66031   6.117  11.145   3.484  0.4931  0.1188  0.3345
  501MOL0     C66032   6.043  11.143   3.605  0.7913  0.0717  0.8370
  501MOL0     C66033   5.908  11.095   3.614 -0.5995  0.3639 -0.7193
  501MOL0     C66034   5.838  11.067   3.496  0.0849 -0.1939  0.0415
  501MOL0     O66035   5.709  11.026   3.511 -0.3608  0.1128 -0.1538
  501MOL0     C66036   5.665  10.923   3.419 -0.5706 -0.2324  0.7390
  501MOL0     C66037   5.578  10.824   3.498 -0.3768  0.3788 -0.7821
  501MOL0     C66038   5.672  10.735   3.581 -0.6829 -1.1982 -0.1305
  501MOL0     C66039   5.597  10.635   3.669 -0.3106 -0.1397  0.3093
  501MOL0     C66040   5.697  10.544   3.741 -0.1259 -0.0879 -0.1012
  501MOL0     C66041   5.624  10.466   3.856  0.6776  0.2036 -0.0784
  501MOL0     C66042   5.721  10.369   3.933  0.5862  0.0935  0.5312
  501MOL0     C66043   5.653  10.291   4.048 -0.1163 -1.0907  0.3236
  501MOL0    Cl66044   5.553  10.394   4.152 -0.2509 -0.3201  0.3376
  501MOL0     C66045   5.907  11.074   3.372 -0.5058 -0.9677  0.4613
  501MOL0     C66046   6.046  11.104   3.367  0.7918  0.0818 -0.8617
  501MOL0     O66047   6.277  11.304   3.642  0.0705 -0.0320 -0.3943
  501MOL0     C66048   6.516  11.087   3.476  0.6930 -0.3251  0.1092
  501MOL0     C66049   6.644  11.041   3.496 -0.6332 -0.0476 -1.1807
  501MOL0     N66050   7.401  10.950   3.607 -0.0117  0.3080 -0.1228
  501MOL0     N66051   7.474  10.865   3.548  0.5515  0.6352 -0.1813
  501MOL0     C66052   8.477  10.788   4.146 -0.1356  0.2241  0.7941
  501MOL0     C66053   8.614  10.759   4.125  0.8264  0.9061  0.7935
  501MOL0     C66054   9.016  10.650   3.981  0.6346  0.5744  0.1689
  501MOL0     C66055   9.015  10.534   3.901  0.1016 -0.1549  0.1218
  501MOL0     C66056   9.141  10.490   3.851  1.0159  0.1356  0.6017
  501MOL0     C66057   9.267  10.548   3.872 -0.1450 -0.3709  0.2620
  501MOL0     O66058   9.385  10.509   3.818 -0.1710 -0.0959 -0.3278
  501MOL0     C66059   9.387  10.412   3.706  0.1008 -0.3379  0.2598
  501MOL0     C66060   9.529  10.383   3.673 -0.1887 -0.8261  0.8130
  501MOL0     C66061   9.616  10.324   3.791 -0.7579 -0.6270  0.0297
  501MOL0     C66062   9.737  10.272   3.717 -0.4001 -0.6248  0.0083
  501MOL0     C66063   9.837  10.217   3.812  0.2593  0.3133  0.3036
  501MOL0     C66064   9.907  10.185   3.898 -0.6648  0.3232 -0.2057
  501MOL0     C66065   9.265  10.669   3.945  0.0742  0.1778 -0.8235
  501MOL0     C66066   9.143  10.712   4.003  0.3724  0.4174 -1.0752
  501MOL0     H66067   8.586  10.659   3.803  1.6332 -0.4747  0.5703
  501MOL0     H66068   8.352  10.697   3.857 -0.2233 -0.2534 -0.3706
  501MOL0     H66069   8.152  10.721   4.200  0.7954  2.0136  0.0650
  501MOL0     H66070   8.202  10.622   4.059 -3.9180 -1.5340 -1.0984
  501MOL0     H66071   7.974  10.838   4.081  1.6314  1.3198 -0.2401
  501MOL0     H66072   7.953  10.671   4.058  0.8163  0.1860  4.2819
  501MOL0     H66073   8.091  10.705   3.816 -0.5919  1.6568 -2.5176
  501MOL0     H66074   8.111  10.861   3.874 -0.1648  1.2169  0.6692
  501MOL0     H66075   7.860  10.881   3.901 -0.9318  0.6460 -0.1113
  501MOL0     H66076   7.919  10.865   3.731 -1.4475  1.0323  0.8242
  501MOL0     H66077   7.744  10.679   3.895 -3.2395  0.0065 -1.5000
  501MOL0     H66078   7.857  10.604   3.780 -1.7198  0.0022 -0.3013
  501MOL0     H66079   7.731  10.804   3.635 -2.8015  1.5011 -0.0957
  501MOL0     H66080   7.620  10.782   3.776 -0.5816  0.9477 -1.2780
  501MOL0     H66081   7.717  10.573   3.584 -0.5126 -1.1148 -1.1254
  501MOL0     H66082   7.629  10.528   3.727 -0.9809 -2.9101 -2.9099
  501MOL0     H66083   7.446  10.540   3.584 -1.1128  1.7499 -0.9420
  501MOL0     H66084   7.540  10.628   3.463 -3.0078  0.4753 -1.6048
  501MOL0     H66085   7.293  10.670   3.751 -2.7123 -0.2449 -2.3571
  501MOL0     H66086   7.246  11.077   3.765  0.8360  0.1218  0.6760
  501MOL0     H66087   7.225  10.954   3.892  1.5115 -0.2350 -0.4650
  501MOL0     H66088   7.018  11.003   3.799 -2.1142 -3.8198 -0.0003
  501MOL0     H66089   7.061  10.840   3.751 -1.4293  0.3071 -0.0412
  501MOL0     H66090   7.129  11.092   3.582 -0.0436  0.1476 -1.6946
  501MOL0     H66091   7.123  10.925   3.511 -0.1060 -0.4634 -0.2552
  501MOL0     H66092   6.897  10.904   3.536  0.6783 -0.9095  2.4586
  501MOL0     H66093   6.943  11.051   3.442  0.7926 -2.1556 -0.9775
  501MOL0     H66094   6.738  11.230   3.757  2.4814  2.1990 -1.8639
  501MOL0     H66095   6.517  11.340   3.714 -0.7678 -0.6367  1.8344
  501MOL0     H66096   6.097  11.165   3.697  2.2122 -0.7370  0.2336
  501MOL0     H66097   5.870  11.089   3.715  1.9902  1.0822  0.3961
  501MOL0     H66098   5.741  10.867   3.363 -2.5520 -1.7599 -0.5462
  501MOL0     H66099   5.603  10.960   3.337  0.2889 -1.4776 -0.5295
  501MOL0     H66100   5.517  10.767   3.428 -2.4564  2.3831 -0.7125
  501MOL0     H66101   5.522  10.888   3.567 -0.7195 -0.8200  0.0789
  501MOL0     H66102   5.739  10.803   3.634 -1.1799  3.5025 -4.7173
  501MOL0     H66103   5.736  10.688   3.507 -3.2627 -0.9829 -2.6658
  501MOL0     H66104   5.521  10.671   3.739 -1.4965  1.6716 -1.7886
  501MOL0     H66105   5.539  10.577   3.597 -0.6171  2.0016 -1.2556
  501MOL0     H66106   5.770  10.601   3.799 -2.1928  2.7152 -0.0472
  501MOL0     H66107   5.747  10.467   3.681  1.1044  0.4652  0.1913
  501MOL0     H66108   5.541  10.414   3.809  1.1484  0.5688 -1.3553
  501MOL0     H66109   5.591  10.549   3.920 -1.5269  0.3860 -1.3451
  501MOL0     H66110   5.752  10.302   3.852 -0.9817 -1.8039  1.4127
  501MOL0     H66111   5.807  10.432   3.958  0.5519  0.4903 -0.3151
  501MOL0     H66112   5.738  10.254   4.106  0.9881 -2.9077 -2.2577
  501MOL0     H66113   5.592  10.206   4.016  0.3311 -1.4131  0.3180
  501MOL0     H66114   5.861  11.056   3.275  1.7831 -3.4222 -0.2904
  501MOL0     H66115   6.092  11.111   3.269  1.2668 -1.2166 -0.7505
  501MOL0     H66116   6.449  11.032   3.410  1.4743 -1.1925  0.0088
  501MOL0     H66117   6.688  10.968   3.430  1.3452  0.1451 -0.1545
  501MOL0     H66118   8.441  10.818   4.244  1.0670 -1.0846  1.6778
  501MOL0     H66119   8.674  10.784   4.212 -0.7731 -0.4823  2.3547
  501MOL0     H66120   8.928  10.473   3.879 -0.9816  1.4359 -0.2577
  501MOL0     H66121   9.130  10.406   3.784 -0.0698 -0.8251  1.9378
  501MOL0     H66122   9.343  10.459   3.618 -1.0210 -1.4098  0.2054
  501MOL0     H66123   9.328  10.321   3.722  1.6018 -2.3284 -3.9846
  501MOL0     H66124   9.525  10.309   3.593 -0.3424  0.0357  0.0136
  501MOL0     H66125   9.573  10.477   3.640 -0.8094  1.7794  6.3317
  501MOL0     H66126   9.566  10.238   3.836 -3.8348  1.1470  0.2998
  501MOL0     H66127   9.647  10.401   3.863  0.9791 -1.9752  0.7996
  501MOL0     H66128   9.714  10.196   3.642 -0.1280  0.9198 -1.7054
  501MOL0     H66129   9.782  10.351   3.657  1.0412 -1.4421 -0.0272
  501MOL0     H66130   9.983  10.147   3.963 -0.9592 -1.8268 -1.0163
  501MOL0     H66131   9.352  10.727   3.975  0.9165 -0.4271 -1.9831
  501MOL0     H66132   9.152  10.799   4.066  1.3498 -0.4627  0.0463
  502MOL0     O66133   9.209   6.433   1.169 -1.0654 -0.8303 -0.5753
  502MOL0     C66134   9.118   6.388   1.238  0.5314 -0.1113  0.0795
  502MOL0     O66135   9.115   6.269   1.320 -1.0327  0.3668 -0.4417
  502MOL0     C66136   9.229   6.187   1.319 -0.4324  0.3190  0.2061
  502MOL0     C66137   9.328   6.179   1.222  0.6533  0.1950  0.7396
  502MOL0     C66138   9.441   6.100   1.233 -0.3327 -0.2816 -0.2252
  502MOL0     C66139   9.455   6.023   1.350 -0.2864  0.0639 -0.9320
  502MOL0     O66140   9.557   5.943   1.372 -0.2655 -1.0872 -0.2224
  502MOL0     C66141   9.568   5.845   1.265 -0.6893  0.5781  1.3933
  502MOL0     C66142   9.562   5.707   1.311 -0.8290  0.6417  0.1826
  502MOL0     C66143   9.455   5.664   1.407  0.4507 -0.0854  0.3590
  502MOL0     C66144   9.330   5.628   1.335  0.3646 -0.5963 -0.5807
  502MOL0     C66145   9.198   5.648   1.417 -0.2445 -0.5782 -0.0507
  502MOL0     C66146   9.096   5.546   1.381  0.4003  0.5826  0.7627
  502MOL0     C66147   8.972   5.548   1.464 -0.2674 -0.3827  0.4320
  502MOL0     C66148   8.859   5.457   1.425 -0.0803 -0.0342 -0.0565
  502MOL0     N66149   8.742   5.495   1.516 -0.0717 -0.0036 -0.2988
  502MOL0     C66150   8.746   5.478   1.650 -1.0126 -0.9857  0.4956
  502MOL0     C66151   8.628   5.540   1.684 -0.0505  0.5541  1.0192
  502MOL0     C66152   8.594   5.568   1.827 -0.3517  0.3148  0.3242
  502MOL0     C66153   8.461   5.515   1.875 -0.1330 -0.0310  0.3976
  502MOL0     C66154   8.431   5.543   2.023  0.2507 -0.0849  0.1289
  502MOL0     C66155   8.307   5.469   2.059 -0.4516  0.0871  0.3863
  502MOL0     O66156   8.272   5.500   2.196  0.6062 -0.4011 -0.7400
  502MOL0     C66157   8.158   5.458   2.259 -1.2429 -0.1450 -0.6260
  502MOL0     C66158   8.138   5.496   2.396  0.2343  0.9337  0.3502
  502MOL0     C66159   8.026   5.447   2.470  0.6513 -0.4603  0.2274
  502MOL0     C66160   7.932   5.368   2.406  0.8273 -0.4242  0.8905
  502MOL0     C66161   7.814   5.312   2.475 -0.4671 -0.1320  0.0564
  502MOL0     O66162   7.759   5.384   2.576  0.2457 -0.0225 -0.0349
  502MOL0     C66163   7.625   5.372   2.607 -0.3993 -0.0253  0.9428
  502MOL0     C66164   7.591   5.291   2.714 -0.3885 -0.5520 -0.2419
  502MOL0     C66165   7.451   5.276   2.739  0.0946  0.9384  0.0857
  502MOL0     C66166   7.357   5.342   2.666 -0.5934 -0.2066  0.6735
  502MOL0     O66167   7.236   5.322   2.718 -0.5545  1.2141  0.5763
  502MOL0     C66168   7.113   5.359   2.647 -0.4875  0.0717 -0.7585
  502MOL0     C66169   6.998   5.286   2.716 -0.8371  0.8910 -0.5720
  502MOL0     C66170   6.858   5.341   2.678 -0.0170 -0.2252  0.1977
  502MOL0     C66171   6.749   5.256   2.733  1.0004 -0.3337  0.1856
  502MOL0     C66172   6.608   5.313   2.692 -0.3858  0.2572  1.1165
  502MOL0     C66173   6.554   5.262   2.554 -0.5841 -0.7105  0.2917
  502MOL0     C66174   6.401   5.288   2.543 -1.3561  0.6410  0.0878
  502MOL0     C66175   6.331   5.159   2.586  0.1353  0.4249  0.3494
  502MOL0    Cl66176   6.382   5.016   2.500 -0.3333  0.2881  0.2402
  502MOL0     C66177   7.396   5.432   2.559  0.4350  0.2488 -0.4728
  502MOL0     C66178   7.532   5.447   2.536  0.3233 -0.9366 -0.0580
  502MOL0     O66179   7.775   5.197   2.438  0.3424 -0.2366 -0.8756
  502MOL0     C66180   7.960   5.321   2.276 -0.0193  0.4153 -0.4895
  502MOL0     C66181   8.074   5.366   2.206 -0.0175  0.1484  0.3425
  502MOL0     N66182   8.558   5.583   1.575  0.9921 -0.1731 -0.2950
  502MOL0     N66183   8.625   5.540   1.473  0.1511 -0.2937 -0.2651
  502MOL0     C66184   9.358   6.028   1.453 -0.5284 -0.1089 -1.2290
  502MOL0     C66185   9.253   6.114   1.443  0.5433 -1.2734 -0.5176
  502MOL0     C66186   8.979   6.446   1.221 -0.5970 -0.8295 -0.3192
  502MOL0     C66187   8.863   6.365   1.215  0.0185  0.3906  0.2091
  502MOL0     C66188   8.739   6.407   1.173 -0.9949  0.1950  0.2967
  502MOL0     C66189   8.724   6.546   1.158 -0.2967 -0.3505 -0.0444
  502MOL0     O66190   8.606   6.611   1.118  0.0904  0.5329 -0.3350
  502MOL0     C66191   8.531   6.651   1.233 -0.5607 -1.2580 -0.1637
  502MOL0     C66192   8.389   6.617   1.214  0.2616  0.5695 -1.2760
  502MOL0     C66193   8.353   6.467   1.245 -0.1665 -0.5055  0.4100
  502MOL0     C66194   8.339   6.423   1.390  0.3241  0.0227 -0.1668
  502MOL0     C66195   8.466   6.413   1.461 -0.7531 -0.7254  0.7540
  502MOL0     C66196   8.586   6.406   1.491 -0.7009  0.5729  0.0470
  502MOL0     C66197   8.840   6.628   1.165 -0.0181  0.3237  0.0092
  502MOL0     C66198   8.963   6.580   1.204  1.1309 -0.8045 -0.5969
  502MOL0     H66199   9.318   6.239   1.132 -0.9799 -0.3151  0.5372
  502MOL0     H66200   9.518   6.096   1.156 -0.2851  1.7866 -0.3504
  502MOL0     H66201   9.658   5.856   1.204 -1.0895  2.7828  1.0990
  502MOL0     H66202   9.484   5.858   1.196 -1.6774 -1.7048  2.0823
  502MOL0     H66203   9.655   5.690   1.366 -0.0650 -1.7141 -1.6307
  502MOL0     H66204   9.581   5.635   1.230  1.0665 -1.4680  2.3164
  502MOL0     H66205   9.433   5.741   1.481  1.8219  3.0285 -2.2181
  502MOL0     H66206   9.499   5.579   1.460 -1.3215  1.1943  4.2302
  502MOL0     H66207   9.316   5.693   1.248  0.8475 -0.5399 -0.6176
  502MOL0     H66208   9.335   5.524   1.300 -3.3649 -1.7405  1.6119
  502MOL0     H66209   9.160   5.748   1.394  2.1702  0.1744 -1.1118
  502MOL0     H66210   9.217   5.649   1.525  1.3876  0.1430 -0.3210
  502MOL0     H66211   9.150   5.451   1.381  1.3238  1.0856  0.1238
  502MOL0     H66212   9.064   5.577   1.281  2.6049  3.6582  0.8645
  502MOL0     H66213   8.996   5.512   1.565 -2.6207 -0.4350  1.0532
  502MOL0     H66214   8.939   5.652   1.476  1.1647  0.1485 -0.1193
  502MOL0     H66215   8.880   5.352   1.449  0.5901 -0.2219 -1.4008
  502MOL0     H66216   8.839   5.463   1.318 -2.0472 -3.6289 -0.0561
  502MOL0     H66217   8.825   5.443   1.715 -0.1103  2.5840  1.5378
  502MOL0     H66218   8.596   5.676   1.846  0.0292  0.7411 -1.8449
  502MOL0     H66219   8.673   5.518   1.883 -0.5212  0.5099  0.7433
  502MOL0     H66220   8.462   5.405   1.867 -0.8611 -0.1626  1.7190
  502MOL0     H66221   8.378   5.552   1.814  1.7775 -0.3790 -2.5992
  502MOL0     H66222   8.509   5.500   2.087 -1.8435 -0.7295  2.3742
  502MOL0     H66223   8.423   5.650   2.044 -4.7249 -0.1993 -0.0707
  502MOL0     H66224   8.319   5.361   2.047 -0.0494 -0.0497  1.8513
  502MOL0     H66225   8.223   5.502   1.998 -0.8074  0.9206  1.3023
  502MOL0     H66226   8.210   5.556   2.450 -1.5520  1.1222  2.6895
  502MOL0     H66227   8.020   5.463   2.577  0.2739 -2.5813  0.5662
  502MOL0     H66228   7.668   5.234   2.766  1.1044 -0.0340 -1.7816
  502MOL0     H66229   7.418   5.212   2.820  0.0850  3.5914  2.3364
  502MOL0     H66230   7.112   5.335   2.540  0.5963 -1.5455 -0.4577
  502MOL0     H66231   7.103   5.467   2.659 -1.7523  0.1686 -2.3161
  502MOL0     H66232   7.013   5.279   2.825  2.3647  0.7187 -0.9206
  502MOL0     H66233   6.998   5.183   2.680  0.9604  0.2559  1.0444
  502MOL0     H66234   6.844   5.342   2.570 -0.4146 -0.4271  0.2458
  502MOL0     H66235   6.843   5.444   2.713 -2.0474 -0.9625  1.7141
  502MOL0     H66236   6.752   5.147   2.722 -3.0288 -0.6244  0.3206
  502MOL0     H66237   6.748   5.265   2.842 -1.1025  2.8174  0.0291
  502MOL0     H66238   6.601   5.422   2.693  1.2438  0.5565 -2.5522
  502MOL0     H66239   6.532   5.279   2.762 -2.5759  1.6993 -0.4238
  502MOL0     H66240   6.592   5.160   2.544  1.2133 -0.0348 -0.1282
  502MOL0     H66241   6.612   5.321   2.483  0.3263  0.2209  1.7390
  502MOL0     H66242   6.368   5.373   2.602  0.2715  1.4367 -0.1045
  502MOL0     H66243   6.369   5.305   2.440 -0.0321 -0.4742 -0.5508
  502MOL0     H66244   6.224   5.170   2.568  0.4523 -0.9809 -3.0564
  502MOL0     H66245   6.346   5.138   2.692 -0.2895  2.6622  0.9049
  502MOL0     H66246   7.321   5.490   2.507 -0.7092  0.4035  1.2790
  502MOL0     H66247   7.568   5.507   2.453 -2.0722 -0.9620 -1.1869
  502MOL0     H66248   7.893   5.255   2.222  0.8355 -1.8179  1.0711
  502MOL0     H66249   8.097   5.333   2.105 -1.6572  0.8937 -0.3137
  502MOL0     H66250   9.382   5.973   1.543 -1.0939  2.5196  0.6535
  502MOL0     H66251   9.197   6.107   1.536  1.4139  1.9893  0.3926
  502MOL0     H66252   8.887   6.262   1.238 -0.6396 -0.6668 -3.3654
  502MOL0     H66253   8.652   6.341   1.173 -3.3685  3.1329  0.7908
  502MOL0     H66254   8.545   6.760   1.239  2.0834 -1.5867  1.2260
  502MOL0     H66255   8.570   6.610   1.327  0.6418  1.8507  0.8252
  502MOL0     H66256   8.332   6.673   1.289  2.9987  1.4658  0.2759
  502MOL0     H66257   8.355   6.641   1.112  0.0638  1.1527 -1.0786
  502MOL0     H66258   8.439   6.414   1.203  1.8988  3.3953 -0.8402
  502MOL0     H66259   8.266   6.447   1.182 -0.1266  1.1472 -0.2309
  502MOL0     H66260   8.272   6.490   1.444  1.2296 -1.2757  2.7615
  502MOL0     H66261   8.291   6.325   1.383  2.9236 -1.4638  1.3868
  502MOL0     H66262   8.689   6.387   1.514 -0.4230  2.0788  0.1416
  502MOL0     H66263   8.847   6.733   1.139  3.8995  0.3569  0.6911
  502MOL0     H66264   9.048   6.648   1.207  0.6991 -0.2618 -0.3898
  503MOL0     O66265   9.959   7.170   3.011 -0.8157  0.6465  0.1842
  503MOL0     C66266   9.900   7.082   2.958  0.0883  0.0857  0.1744
  503MOL0     O66267   9.795   7.016   3.016 -1.4313  0.4769  0.0335
  503MOL0     C66268   9.741   7.045   3.143 -0.1311 -0.2851 -0.2370
  503MOL0     C66269   9.833   7.067   3.254 -0.0322 -0.4438  0.0458
  503MOL0     C66270   9.776   7.091   3.380  0.5363 -0.4701 -0.5662
  503MOL0     C66271   9.639   7.091   3.402  0.4209  1.1481  0.1088
  503MOL0     O66272   9.575   7.094   3.527  0.6642  0.2224 -0.9228
  503MOL0     C66273   9.636   7.191   3.620  0.4636 -0.2344  0.2658
  503MOL0     C66274   9.556   7.202   3.751 -0.6239 -0.5311 -0.2804
  503MOL0     C66275   9.582   7.094   3.853 -0.5715  0.1980  0.4447
  503MOL0     C66276   9.491   7.099   3.975  0.5019 -0.3033  0.0855
  503MOL0     C66277   9.507   6.973   4.056 -0.2085 -0.5040 -0.3886
  503MOL0     C66278   9.428   6.975   4.193  0.5690 -1.3533  0.1348
  503MOL0     C66279   9.478   6.873   4.289  0.8195 -0.9900 -0.2618
  503MOL0     C66280   9.425   6.727   4.270  0.6559 -0.2577  0.0331
  503MOL0     N66281   9.287   6.719   4.237 -0.2106 -0.3862  0.5313
  503MOL0     C66282   9.175   6.738   4.315 -0.6818  1.2338 -0.4986
  503MOL0     C66283   9.065   6.726   4.235 -0.3678  0.6948 -0.4738
  503MOL0     C66284   8.916   6.745   4.280  0.1399 -0.2262 -0.3557
  503MOL0     C66285   8.880   6.890   4.270  0.5990 -0.1736 -0.3249
  503MOL0     C66286   8.809   6.950   4.395 -0.1314  0.5931  0.1866
  503MOL0     C66287   8.728   7.077   4.373  0.2628  0.8292 -0.5908
  503MOL0     O66288   8.815   7.189   4.344 -0.1621  0.2475  0.4615
  503MOL0     C66289   8.750   7.305   4.298 -0.4798  0.4201  0.0789
  503MOL0     C66290   8.825   7.418   4.288 -1.3165  0.4574  0.4734
  503MOL0     C66291   8.776   7.535   4.235 -0.4649 -0.5998 -0.0582
  503MOL0     C66292   8.641   7.539   4.175 -0.1671 -0.5383 -0.1196
  503MOL0     C66293   8.584   7.669   4.126  0.2910 -0.3422  0.2012
  503MOL0     O66294   8.472   7.658   4.057 -0.2679 -0.3634  0.5904
  503MOL0     C66295   8.373   7.750   4.047  0.3820 -0.1844 -0.1845
  503MOL0     C66296   8.278   7.736   3.947 -0.7387  1.2582 -0.2072
  503MOL0     C66297   8.154   7.797   3.943 -0.7793  0.0372 -0.4573
  503MOL0     C66298   8.122   7.891   4.033  0.1025 -0.0277 -0.3644
  503MOL0     O66299   8.009   7.964   4.030  0.0595 -0.6915  0.3635
  503MOL0     C66300   7.909   7.942   3.926  0.2443  0.1628 -0.2738
  503MOL0     C66301   7.776   8.015   3.983  0.6355 -0.2808  0.4428
  503MOL0     C66302   7.654   8.042   3.881 -1.3840 -0.7853 -0.4057
  503MOL0     C66303   7.542   8.124   3.939  0.0458 -0.6805  0.2484
  503MOL0     C66304   7.446   8.178   3.832 -0.0343 -0.0030  1.1102
  503MOL0     C66305   7.316   8.249   3.879 -1.3592  0.0617  0.7936
  503MOL0     C66306   7.202   8.226   3.768 -0.3046 -0.8784 -0.4702
  503MOL0     C66307   7.212   8.261   3.619 -0.8173  0.7069  1.6248
  503MOL0    Cl66308   7.304   8.147   3.530 -0.3409 -0.4660 -0.0562
  503MOL0     C66309   8.219   7.923   4.131 -0.3896 -0.4850 -0.4892
  503MOL0     C66310   8.341   7.847   4.142  0.2328 -1.0931 -1.1085
  503MOL0     O66311   8.627   7.769   4.182  1.3720 -0.7697 -0.0491
  503MOL0     C66312   8.560   7.429   4.191  0.6183  0.3275  0.3852
  503MOL0     C66313   8.619   7.313   4.252  0.7179  0.3270 -1.0825
  503MOL0     N66314   9.108   6.702   4.107 -0.0818  0.5152  0.4222
  503MOL0     N66315   9.238   6.684   4.115  0.5014  0.7242  0.2816
  503MOL0     C66316   9.554   7.049   3.301 -0.1837  0.5406  0.2854
  503MOL0     C66317   9.604   7.027   3.172 -0.9110  1.0318  0.2158
  503MOL0     C66318   9.925   7.071   2.817 -1.1687 -0.4124  0.6283
  503MOL0     C66319   9.983   7.173   2.740  0.4048 -0.3581  0.3755
  503MOL0     C66320  10.021   7.152   2.610 -0.7779  0.6138  0.6610
  503MOL0     C66321   9.981   7.048   2.541  0.1019  0.1290 -0.9913
  503MOL0     O66322  10.019   7.034   2.411  0.6748 -0.3193  0.7658
  503MOL0     C66323  10.110   7.116   2.331  0.2872  0.3894 -0.3272
  503MOL0     C66324  10.149   7.030   2.208  0.4004  0.0961 -0.0504
  503MOL0     C66325  10.240   7.105   2.117  0.5417  0.1903  0.1718
  503MOL0     C66326  10.311   7.007   2.017 -0.0058 -0.0630 -0.1113
  503MOL0     C66327  10.228   6.916   1.934  0.3116  0.4313 -1.0971
  503MOL0     C66328  10.161   6.847   1.863  0.1769 -0.6975  0.8567
  503MOL0     C66329   9.902   6.956   2.607 -0.2520  0.9509 -0.8219
  503MOL0     C66330   9.881   6.963   2.744  0.5482  0.4595 -0.0259
  503MOL0     H66331   9.940   7.062   3.234 -0.4875  1.8511 -4.1142
  503MOL0     H66332   9.849   7.104   3.460  0.6022 -4.3660  0.1914
  503MOL0     H66333   9.651   7.290   3.575 -4.2078  1.3902  1.7088
  503MOL0     H66334   9.735   7.153   3.646  0.0963  0.2640  2.5979
  503MOL0     H66335   9.448   7.213   3.735 -0.8880  0.5341  1.8805
  503MOL0     H66336   9.577   7.303   3.787  0.1260 -1.0823  0.8850
  503MOL0     H66337   9.685   7.099   3.891 -0.3730  1.8384 -0.2144
  503MOL0     H66338   9.563   6.999   3.803  0.5200 -0.0001  0.3708
  503MOL0     H66339   9.502   7.182   4.046 -3.6692 -0.1229  0.7377
  503MOL0     H66340   9.390   7.111   3.935 -0.0612 -1.0338  1.2302
  503MOL0     H66341   9.615   6.976   4.076  0.0420  2.0673 -1.8189
  503MOL0     H66342   9.482   6.882   4.000  1.0460 -1.8794  1.1433
  503MOL0     H66343   9.321   6.962   4.172 -0.3213  3.7244  0.2711
  503MOL0     H66344   9.438   7.078   4.230 -0.5873 -1.4196  0.6927
  503MOL0     H66345   9.587   6.869   4.286  0.9033 -3.2755  2.3479
  503MOL0     H66346   9.440   6.902   4.387  1.2866 -3.8448  0.8548
  503MOL0     H66347   9.446   6.678   4.365  2.0919 -0.1935 -0.2304
  503MOL0     H66348   9.484   6.687   4.187  0.9825  1.3447 -0.5569
  503MOL0     H66349   9.176   6.756   4.422 -1.2719 -1.1752 -0.0328
  503MOL0     H66350   8.895   6.698   4.376  0.3030 -1.7938 -1.0364
  503MOL0     H66351   8.874   6.682   4.200  2.5158 -1.0794 -1.0436
  503MOL0     H66352   8.821   6.917   4.182 -0.0261  5.7493  1.4902
  503MOL0     H66353   8.975   6.944   4.257  1.2785 -0.9644  1.0996
  503MOL0     H66354   8.730   6.880   4.422  1.5224 -0.6628  2.0006
  503MOL0     H66355   8.882   6.974   4.473 -0.7475  0.5994  0.7652
  503MOL0     H66356   8.675   7.085   4.469  1.6750  0.7210  0.2329
  503MOL0     H66357   8.654   7.049   4.298  0.9437  1.4826 -1.5300
  503MOL0     H66358   8.922   7.420   4.337 -2.7288 -1.1932  3.6848
  503MOL0     H66359   8.845   7.616   4.215 -1.1704  0.2061  0.6954
  503MOL0     H66360   8.301   7.658   3.875  0.5515  2.1991 -0.8297
  503MOL0     H66361   8.088   7.764   3.864  0.4943 -0.0304 -1.5364
  503MOL0     H66362   7.883   7.839   3.900 -2.8957  1.3742 -2.6623
  503MOL0     H66363   7.948   7.994   3.838 -2.6281  2.7202 -0.2271
  503MOL0     H66364   7.813   8.112   4.018  0.9559 -1.0459  2.3417
  503MOL0     H66365   7.732   7.969   4.072  1.3856  1.0396  1.5378
  503MOL0     H66366   7.614   7.944   3.852 -0.5041 -1.2062 -0.2301
  503MOL0     H66367   7.694   8.105   3.801 -2.3244  1.4270  0.7745
  503MOL0     H66368   7.477   8.072   4.010 -5.5621  1.5340 -2.6781
  503MOL0     H66369   7.584   8.215   3.983  0.3163 -0.4864 -0.4118
  503MOL0     H66370   7.411   8.088   3.780  1.5004 -0.4974  0.9017
  503MOL0     H66371   7.493   8.237   3.753 -0.5499 -2.3845 -1.1042
  503MOL0     H66372   7.331   8.355   3.902  2.5196 -0.2708  0.5011
  503MOL0     H66373   7.274   8.198   3.966 -1.1181 -0.5945  0.5332
  503MOL0     H66374   7.175   8.120   3.774  5.9068 -2.8552 -0.5494
  503MOL0     H66375   7.122   8.283   3.815 -0.0235 -1.0514  0.2417
  503MOL0     H66376   7.259   8.358   3.604  3.3930 -1.3576  0.0133
  503MOL0     H66377   7.105   8.262   3.594 -0.7700  3.7845  1.1649
  503MOL0     H66378   8.187   7.998   4.202 -0.7934 -1.8359  0.8212
  503MOL0     H66379   8.402   7.873   4.228 -1.5730 -0.6335  0.1103
  503MOL0     H66380   8.454   7.424   4.166  0.7294 -1.2074  0.1374
  503MOL0     H66381   8.545   7.235   4.240 -2.0531  2.7088 -0.6892
  503MOL0     H66382   9.448   7.043   3.325 -0.1404 -2.9548  0.1079
  503MOL0     H66383   9.536   6.997   3.093  0.0473  1.1526 -0.6843
  503MOL0     H66384  10.035   7.258   2.781  4.0825 -2.3754  0.3725
  503MOL0     H66385  10.069   7.231   2.553 -0.5187  0.3692  0.5423
  503MOL0     H66386  10.198   7.152   2.385 -1.5344  4.4275  0.2814
  503MOL0     H66387  10.049   7.203   2.306  1.5320  1.8659  1.4588
  503MOL0     H66388  10.192   6.940   2.254  1.8526  1.0968  0.6385
  503MOL0     H66389  10.055   7.000   2.162  0.6570  1.0343 -1.2309
  503MOL0     H66390  10.311   7.171   2.168 -1.6119  3.1393 -0.3961
  503MOL0     H66391  10.178   7.163   2.049 -0.7539 -1.9276 -0.5597
  503MOL0     H66392  10.378   7.061   1.951  1.9181  1.1456  2.6502
  503MOL0     H66393  10.371   6.945   2.085  4.4632  2.4538 -1.3704
  503MOL0     H66394  10.098   6.799   1.790 -1.6470  4.3450 -1.4191
  503MOL0     H66395   9.873   6.862   2.562 -0.3519 -0.0057  1.1176
  503MOL0     H66396   9.844   6.874   2.793  1.3124 -1.0008 -1.9330
  504MOL0     O66397   9.656   9.923   8.832 -0.0147  0.4316  0.2592
  504MOL0     C66398   9.701   9.923   8.713  0.1775  0.4436 -1.0604
  504MOL0     O66399   9.629   9.904   8.601  0.2940  0.1331 -0.2819
  504MOL0     C66400   9.499   9.865   8.616 -0.3590  1.1513 -0.6465
  504MOL0     C66401   9.397   9.961   8.613 -0.0928  0.1379  0.5435
  504MOL0     C66402   9.263   9.922   8.597 -0.1380  0.2535  0.0876
  504MOL0     C66403   9.235   9.780   8.589  0.7355 -0.2230 -0.1448
  504MOL0     O66404   9.106   9.739   8.577 -0.4197 -0.1229  0.1739
  504MOL0     C66405   9.060   9.620   8.642  0.1781 -0.1904  0.9297
  504MOL0     C66406   8.915   9.632   8.682 -0.7246 -0.1368 -0.6708
  504MOL0     C66407   8.851   9.508   8.728  0.5863 -0.0657 -0.3040
  504MOL0     C66408   8.708   9.541   8.751  0.6742  0.2269  0.3601
  504MOL0     C66409   8.610   9.421   8.756  0.4952 -0.2383  0.7764
  504MOL0     C66410   8.463   9.454   8.799 -0.2033  0.4521 -0.4099
  504MOL0     C66411   8.358   9.345   8.775 -0.2739 -0.2437  0.1601
  504MOL0     C66412   8.216   9.380   8.830 -0.5608  0.7983 -0.3589
  504MOL0     N66413   8.117   9.270   8.837 -0.3979 -0.1940 -0.5137
  504MOL0     C66414   8.010   9.251   8.746 -0.8602 -0.1493  0.0108
  504MOL0     C66415   7.951   9.139   8.786  0.1668  0.2619  0.2817
  504MOL0     C66416   7.833   9.082   8.709 -0.7510  0.5012  0.7783
  504MOL0     C66417   7.705   9.102   8.787 -0.0403  0.1062  0.1141
  504MOL0     C66418   7.626   9.221   8.750  0.0427 -0.2136 -0.3290
  504MOL0     C66419   7.483   9.178   8.795 -0.0961 -0.2531  0.0443
  504MOL0     O66420   7.433   9.109   8.680  0.5861 -0.3355 -0.1113
  504MOL0     C66421   7.297   9.087   8.668 -0.5947 -0.4946 -0.0131
  504MOL0     C66422   7.189   9.132   8.752 -0.0998 -0.1451 -0.2314
  504MOL0     C66423   7.054   9.098   8.704 -0.0346 -0.9078 -0.7631
  504MOL0     C66424   7.021   9.033   8.589  0.2009  0.5976  0.3300
  504MOL0     C66425   6.874   9.006   8.554  0.3841  0.0881  0.3154
  504MOL0     O66426   6.781   9.057   8.632  0.6226 -0.1614  0.3083
  504MOL0     C66427   6.655   9.028   8.602 -0.1739  0.3897 -0.0848
  504MOL0     C66428   6.578   9.111   8.519  1.0550  0.5641 -0.3910
  504MOL0     C66429   6.439   9.082   8.510 -0.2638 -0.0788 -0.3753
  504MOL0     C66430   6.383   8.974   8.578 -0.2716 -0.2029  0.3983
  504MOL0     O66431   6.247   8.960   8.579  0.4225  0.2050 -0.3820
  504MOL0     C66432   6.184   8.971   8.710 -0.3850  0.6474  0.2541
  504MOL0     C66433   6.048   8.915   8.694 -0.6368 -0.4001  0.0827
  504MOL0     C66434   5.962   8.981   8.578  0.4166 -0.1034 -0.0190
  504MOL0     C66435   5.823   8.926   8.573  0.0493 -0.3710  0.0124
  504MOL0     C66436   5.742   8.970   8.693  0.4952 -0.1112 -0.4749
  504MOL0     C66437   5.601   8.952   8.647 -0.1973  0.1874  0.7644
  504MOL0     C66438   5.490   8.980   8.741  0.5132  0.1486 -1.0546
  504MOL0     C66439   5.510   9.100   8.840  0.6371 -0.1680 -0.5587
  504MOL0    Cl66440   5.541   9.241   8.762  0.2813 -0.3919 -0.3089
  504MOL0     C66441   6.468   8.886   8.654 -0.2114 -0.4323  0.2055
  504MOL0     C66442   6.599   8.919   8.665 -0.6565  0.5566  1.0064
  504MOL0     O66443   6.853   8.932   8.460  0.5532  0.1415 -0.0625
  504MOL0     C66444   7.133   8.983   8.516  0.1938 -0.5825 -1.0736
  504MOL0     C66445   7.264   9.009   8.555 -0.4084  0.0800  0.2719
  504MOL0     N66446   8.024   9.084   8.885  0.1276  0.3499  0.1163
  504MOL0     N66447   8.122   9.165   8.915 -0.8955  0.3713  0.7212
  504MOL0     C66448   9.333   9.686   8.592  0.1720  0.3556 -0.0501
  504MOL0     C66449   9.463   9.725   8.616 -0.6789  0.6585  0.2520
  504MOL0     C66450   9.839   9.944   8.698 -0.2486 -0.1107 -0.7386
  504MOL0     C66451   9.910  10.027   8.783  0.1767 -0.5402 -0.8216
  504MOL0     C66452  10.047  10.054   8.774  0.4670 -0.4177 -0.1546
  504MOL0     C66453  10.130   9.975   8.692  0.2897 -0.5561  0.1006
  504MOL0     O66454  10.272   9.974   8.695  0.0463 -0.0986  0.0637
  504MOL0     C66455  10.341  10.098   8.674  0.0991 -0.1328 -0.1922
  504MOL0     C66456  10.465  10.096   8.583 -0.5823 -0.8069 -0.6506
  504MOL0     C66457  10.572  10.009   8.647  0.1229  0.2317  0.7487
  504MOL0     C66458  10.690   9.996   8.549  0.0870  0.9065  0.7650
  504MOL0     C66459  10.751  10.120   8.513  0.1589 -0.1300 -0.0300
  504MOL0     C66460  10.789  10.228   8.491 -0.0997 -0.1940 -0.9866
  504MOL0     C66461  10.065   9.884   8.612 -0.0441 -0.8302  0.4453
  504MOL0     C66462   9.925   9.879   8.607  0.2528  0.2558  0.2709
  504MOL0     H66463   9.414  10.067   8.598 -0.6946  0.0106 -1.3654
  504MOL0     H66464   9.171   9.980   8.605 -1.4147 -1.3236 -2.1757
  504MOL0     H66465   9.127   9.584   8.721  1.2141  2.3682  1.2935
  504MOL0     H66466   9.063   9.541   8.566 -1.6698  1.6254 -1.1452
  504MOL0     H66467   8.852   9.673   8.603  0.0349  4.2412  0.6834
  504MOL0     H66468   8.908   9.697   8.770 -0.3033 -0.9519 -0.0213
  504MOL0     H66469   8.911   9.475   8.814  1.6146 -0.5604 -1.1935
  504MOL0     H66470   8.865   9.426   8.657  1.7675  0.7186 -1.0082
  504MOL0     H66471   8.711   9.598   8.844 -1.1938 -1.9336  1.8604
  504MOL0     H66472   8.661   9.603   8.674 -1.1269 -1.7662 -0.2336
  504MOL0     H66473   8.640   9.338   8.821 -4.3704 -2.2058  0.9697
  504MOL0     H66474   8.598   9.374   8.658  0.2272  1.9765 -0.3156
  504MOL0     H66475   8.424   9.541   8.746 -1.2006 -0.9708 -2.1032
  504MOL0     H66476   8.462   9.470   8.908 -3.1581  0.0689 -0.3061
  504MOL0     H66477   8.358   9.315   8.670 -0.0484 -2.7852  0.8253
  504MOL0     H66478   8.389   9.253   8.825  0.1452 -1.3516 -2.0054
  504MOL0     H66479   8.179   9.458   8.763 -1.4570  1.2220  0.5922
  504MOL0     H66480   8.221   9.426   8.929  2.7785 -0.7826  0.3470
  504MOL0     H66481   7.983   9.321   8.668  0.4425  1.7497  1.1774
  504MOL0     H66482   7.869   8.979   8.694  0.8618  1.3990 -2.5876
  504MOL0     H66483   7.844   9.115   8.605  4.0288 -2.7881 -0.1426
  504MOL0     H66484   7.731   9.113   8.893  1.9886 -1.9098 -0.0889
  504MOL0     H66485   7.646   9.010   8.783  1.2651 -0.7284 -0.9784
  504MOL0     H66486   7.658   9.311   8.803  0.7705  1.6106 -3.6230
  504MOL0     H66487   7.626   9.229   8.641  2.3009  1.0122 -0.2818
  504MOL0     H66488   7.438   9.276   8.817  1.0269  0.1066  0.8210
  504MOL0     H66489   7.482   9.119   8.887  2.3250  2.9312  2.3725
  504MOL0     H66490   7.198   9.179   8.850 -4.3439  0.2296  0.1316
  504MOL0     H66491   6.972   9.116   8.772  1.8391  2.6227  0.8227
  504MOL0     H66492   6.607   9.211   8.489 -3.2880  2.2234  0.2484
  504MOL0     H66493   6.379   9.153   8.456  0.0224  0.3426 -0.1443
  504MOL0     H66494   6.175   9.077   8.736 -0.9384  1.7013 -3.5751
  504MOL0     H66495   6.237   8.925   8.794  0.9592  2.5099  0.5022
  504MOL0     H66496   5.988   8.929   8.785  0.2066 -2.1875  0.9787
  504MOL0     H66497   6.056   8.807   8.680  1.1435 -0.5886  1.9816
  504MOL0     H66498   6.007   8.955   8.482 -3.6375 -1.3336 -1.8270
  504MOL0     H66499   5.958   9.090   8.582  0.7728 -0.1312  1.3788
  504MOL0     H66500   5.795   8.974   8.478  0.7362  1.0336  0.4959
  504MOL0     H66501   5.807   8.819   8.559 -0.3304 -0.0630 -2.3246
  504MOL0     H66502   5.758   9.077   8.711  0.4947  0.3286 -2.7627
  504MOL0     H66503   5.761   8.912   8.783 -0.7840 -0.0817 -0.1744
  504MOL0     H66504   5.587   8.852   8.604 -3.0859  0.8223  0.0054
  504MOL0     H66505   5.588   9.015   8.558 -3.4144 -0.0626  0.9389
  504MOL0     H66506   5.401   8.995   8.680  1.0873 -1.9396 -2.5150
  504MOL0     H66507   5.463   8.897   8.806 -1.5414  1.5569  0.0267
  504MOL0     H66508   5.592   9.084   8.911  1.1932 -0.9315 -1.3572
  504MOL0     H66509   5.419   9.107   8.900  0.1388 -0.1710 -1.2989
  504MOL0     H66510   6.426   8.797   8.700 -0.4880 -1.8848 -2.6326
  504MOL0     H66511   6.658   8.876   8.746  0.6221  3.2718  1.6264
  504MOL0     H66512   7.102   8.929   8.427 -2.8417  2.2289 -1.9068
  504MOL0     H66513   7.343   8.974   8.489 -0.8404  0.2020 -0.3177
  504MOL0     H66514   9.321   9.580   8.577  2.6982 -0.0856  0.4478
  504MOL0     H66515   9.532   9.643   8.601 -2.7728 -1.2751  0.7469
  504MOL0     H66516   9.865  10.080   8.867  0.7990  0.8565 -1.3401
  504MOL0     H66517  10.079  10.125   8.849 -0.7021 -3.2505  3.2867
  504MOL0     H66518  10.373  10.137   8.772  1.3484 -0.3403 -0.4990
  504MOL0     H66519  10.271  10.167   8.628  1.6020  2.2971  0.9642
  504MOL0     H66520  10.438  10.071   8.480  0.5993 -2.3217 -0.6425
  504MOL0     H66521  10.500  10.199   8.580  1.8833 -1.5300  0.5589
  504MOL0     H66522  10.525   9.912   8.667  0.0836  0.3059  1.0280
  504MOL0     H66523  10.612  10.041   8.744  3.6916  0.4824 -0.6621
  504MOL0     H66524  10.759   9.935   8.608 -0.6095 -0.3631  0.2937
  504MOL0     H66525  10.658   9.942   8.460  1.4025  0.1590  0.7099
  504MOL0     H66526  10.833  10.326   8.487  0.1211 -0.0693  2.1847
  504MOL0     H66527  10.129   9.821   8.551 -2.2564 -2.6447 -0.1219
  504MOL0     H66528   9.882   9.798   8.550 -1.0459  0.0462  1.4980
  505MOL0     O66529   3.583   4.927   4.199  0.1697 -0.5549 -0.2181
  505MOL0     C66530   3.634   5.025   4.150  1.2337  0.7929  0.0183
  505MOL0     O66531   3.578   5.146   4.153 -0.5419  0.9705  0.5014
  505MOL0     C66532   3.459   5.165   4.218 -0.5769 -0.7466 -0.4055
  505MOL0     C66533   3.349   5.206   4.142  0.2301 -0.8260  0.4386
  505MOL0     C66534   3.230   5.244   4.211  0.2509  0.1582 -0.7153
  505MOL0     C66535   3.226   5.241   4.354  0.1742 -0.5024 -0.1473
  505MOL0     O66536   3.110   5.278   4.419 -0.7701  0.2382 -0.3852
  505MOL0     C66537   2.976   5.263   4.375  0.0283 -0.3152  0.1388
  505MOL0     C66538   2.876   5.265   4.493  0.0197  0.2679 -0.3811
  505MOL0     C66539   2.737   5.236   4.463  0.7633  0.5741 -0.1124
  505MOL0     C66540   2.649   5.224   4.588  0.0133  1.1265 -0.3184
  505MOL0     C66541   2.499   5.219   4.559 -0.0596 -0.5029 -0.3834
  505MOL0     C66542   2.457   5.111   4.454 -0.8626 -0.4013 -0.9123
  505MOL0     C66543   2.504   4.976   4.505 -0.1481  0.9368 -1.1657
  505MOL0     C66544   2.415   4.915   4.614 -0.5601 -1.1792  0.8844
  505MOL0     N66545   2.498   4.814   4.678  0.2877  0.2604  0.4313
  505MOL0     C66546   2.526   4.805   4.817  0.4896  0.0062 -0.5131
  505MOL0     C66547   2.611   4.699   4.833 -0.2875  0.1536  0.3348
  505MOL0     C66548   2.661   4.659   4.970  0.3602  0.0899  0.7761
  505MOL0     C66549   2.555   4.566   5.026  0.1812 -0.0060 -0.7926
  505MOL0     C66550   2.592   4.515   5.169  0.1949  0.0733 -0.3498
  505MOL0     C66551   2.596   4.631   5.278 -0.3496  0.0578  0.5500
  505MOL0     O66552   2.466   4.682   5.291 -0.2812  0.1057 -0.3291
  505MOL0     C66553   2.445   4.822   5.305 -0.1419 -0.0188 -0.0454
  505MOL0     C66554   2.524   4.933   5.286  0.6374 -0.1452  0.2413
  505MOL0     C66555   2.484   5.059   5.328  0.0370  0.2850  0.0977
  505MOL0     C66556   2.354   5.075   5.396  0.4321 -0.1513  0.2846
  505MOL0     C66557   2.328   5.187   5.497 -0.5173 -0.3533  0.3791
  505MOL0     O66558   2.443   5.267   5.522 -0.5243  0.1318 -0.5565
  505MOL0     C66559   2.422   5.372   5.608  0.4434 -0.3494  0.1322
  505MOL0     C66560   2.453   5.502   5.578 -0.0980 -0.6536 -0.3269
  505MOL0     C66561   2.444   5.605   5.670  0.5222 -0.5821 -0.1962
  505MOL0     C66562   2.380   5.574   5.786 -0.1711  0.0857  0.1867
  505MOL0     O66563   2.357   5.686   5.866 -0.0740 -0.1167 -0.1229
  505MOL0     C66564   2.227   5.686   5.934 -0.8539 -0.0006  0.1245
  505MOL0     C66565   2.214   5.815   6.018  0.6829  0.9236  0.5256
  505MOL0     C66566   2.315   5.816   6.140 -0.0640  0.6175 -0.3997
  505MOL0     C66567   2.285   5.712   6.248  0.0713 -0.8651 -0.0926
  505MOL0     C66568   2.367   5.718   6.372  0.3432 -0.1417 -0.2337
  505MOL0     C66569   2.515   5.665   6.355  0.5587  0.3870  0.5198
  505MOL0     C66570   2.620   5.689   6.459 -0.4746 -1.3654  0.0960
  505MOL0     C66571   2.751   5.603   6.434  0.0393 -0.1608  0.6105
  505MOL0    Cl66572   2.856   5.639   6.584 -0.2325  0.1563  0.3726
  505MOL0     C66573   2.349   5.439   5.822 -0.4019 -0.2351  0.3086
  505MOL0     C66574   2.367   5.335   5.729 -0.3041  0.6220  0.2229
  505MOL0     O66575   2.218   5.225   5.522 -0.0935  0.6652 -0.1840
  505MOL0     C66576   2.274   4.964   5.408  0.0856  0.5540  0.2145
  505MOL0     C66577   2.311   4.843   5.353 -0.7031 -0.5201  0.5080
  505MOL0     N66578   2.627   4.632   4.710 -0.2837  0.4560 -0.0238
  505MOL0     N66579   2.552   4.707   4.619 -1.3503  0.1582  0.0039
  505MOL0     C66580   3.334   5.205   4.424  0.1459  0.2108 -0.1114
  505MOL0     C66581   3.458   5.170   4.355  0.5877 -0.3412  0.1073
  505MOL0     C66582   3.769   5.002   4.101  0.4317 -0.7736 -1.0948
  505MOL0     C66583   3.855   5.102   4.057 -0.2945 -0.3235  0.0633
  505MOL0     C66584   3.986   5.089   4.011  0.1655  0.1016  0.9359
  505MOL0     C66585   4.028   4.958   3.988 -0.1168 -0.0430  0.3479
  505MOL0     O66586   4.154   4.919   3.946  0.2925  0.7871 -0.7316
  505MOL0     C66587   4.228   5.022   3.871 -1.3372 -0.4760 -0.8991
  505MOL0     C66588   4.373   4.971   3.866  0.7666 -0.0605  0.3796
  505MOL0     C66589   4.386   4.824   3.824  1.2798  0.1386  0.2893
  505MOL0     C66590   4.528   4.780   3.785  0.4146  0.1573  0.2114
  505MOL0     C66591   4.626   4.806   3.886  0.5240 -0.2261  0.3340
  505MOL0     C66592   4.717   4.830   3.970  0.3416 -0.8276 -0.1323
  505MOL0     C66593   3.944   4.853   4.026 -0.1472 -0.2325 -0.2396
  505MOL0     C66594   3.819   4.874   4.085  0.0340 -0.5916 -0.3874
  505MOL0     H66595   3.364   5.208   4.034  1.9763  1.1144  0.6740
  505MOL0     H66596   3.142   5.276   4.157 -0.4122  0.8068  0.6957
  505MOL0     H66597   2.970   5.167   4.324 -0.5814 -0.2605  0.0968
  505MOL0     H66598   2.950   5.345   4.307 -4.3606 -0.2779  1.5084
  505MOL0     H66599   2.886   5.366   4.535  1.7231  0.2280 -0.6224
  505MOL0     H66600   2.911   5.188   4.562 -2.0232 -1.5747 -1.2553
  505MOL0     H66601   2.721   5.144   4.407 -0.2561  0.4534  0.3596
  505MOL0     H66602   2.704   5.318   4.397  1.5358  1.9823  1.1811
  505MOL0     H66603   2.675   5.134   4.645 -1.0291  1.9878  1.6192
  505MOL0     H66604   2.670   5.292   4.670  0.7385 -1.9623  2.2689
  505MOL0     H66605   2.475   5.320   4.526  0.2450  0.7836  2.9462
  505MOL0     H66606   2.452   5.187   4.653 -1.3401 -0.7727 -1.0970
  505MOL0     H66607   2.500   5.135   4.357  2.2339  0.5350  0.5428
  505MOL0     H66608   2.349   5.124   4.438 -0.7437  0.8049 -0.8400
  505MOL0     H66609   2.474   4.912   4.421 -0.1144 -1.8809  0.8503
  505MOL0     H66610   2.611   4.969   4.527 -0.5180 -0.1943  0.4276
  505MOL0     H66611   2.327   4.876   4.561  0.5401  1.2559 -3.1660
  505MOL0     H66612   2.383   4.986   4.691  3.4919  3.5304 -1.2335
  505MOL0     H66613   2.485   4.876   4.887 -0.0043 -3.4763  3.0966
  505MOL0     H66614   2.674   4.749   5.030  0.4605 -0.2790  1.3192
  505MOL0     H66615   2.755   4.604   4.955 -0.6435 -1.5382  0.1580
  505MOL0     H66616   2.541   4.484   4.954 -0.1926 -0.8618  0.2363
  505MOL0     H66617   2.458   4.614   5.041  1.8508  2.6956  2.5825
  505MOL0     H66618   2.530   4.433   5.205  1.2929 -0.3619  0.6316
  505MOL0     H66619   2.700   4.495   5.167  0.5735  1.9046 -0.1510
  505MOL0     H66620   2.672   4.703   5.245 -1.5038  1.9108  1.7553
  505MOL0     H66621   2.626   4.598   5.378  2.0472 -0.6970 -0.3408
  505MOL0     H66622   2.622   4.908   5.246  0.2284 -0.1419 -0.8050
  505MOL0     H66623   2.546   5.147   5.313 -0.4419  0.3904 -1.5050
  505MOL0     H66624   2.501   5.537   5.487  1.2882 -2.9992 -0.5815
  505MOL0     H66625   2.461   5.711   5.652  2.0217 -1.3371 -4.3449
  505MOL0     H66626   2.227   5.605   6.007  1.2726 -3.6777 -3.5444
  505MOL0     H66627   2.147   5.660   5.863  0.3402 -3.0608 -0.2710
  505MOL0     H66628   2.112   5.807   6.057  0.8336 -0.7107  0.6504
  505MOL0     H66629   2.222   5.902   5.952  1.4615 -0.7143 -1.6300
  505MOL0     H66630   2.318   5.917   6.184  0.8135  1.4883 -2.3491
  505MOL0     H66631   2.415   5.799   6.100 -1.4271 -0.6094 -3.5467
  505MOL0     H66632   2.182   5.735   6.278  0.6701 -1.7207  2.9087
  505MOL0     H66633   2.301   5.613   6.206  0.8339 -1.2883  1.1435
  505MOL0     H66634   2.311   5.662   6.448 -0.5048  2.6843  1.3727
  505MOL0     H66635   2.380   5.816   6.420 -1.0979 -0.6605  1.3383
  505MOL0     H66636   2.557   5.710   6.264  0.3966 -0.8881 -0.2175
  505MOL0     H66637   2.504   5.559   6.331 -0.8940  1.1481 -2.7573
  505MOL0     H66638   2.638   5.796   6.466 -4.7771 -0.5294  1.3952
  505MOL0     H66639   2.589   5.654   6.558  1.1868 -0.5523  0.9414
  505MOL0     H66640   2.793   5.625   6.335 -3.7548  1.7260 -0.8048
  505MOL0     H66641   2.736   5.494   6.432 -4.2932  0.2150 -2.1166
  505MOL0     H66642   2.311   5.426   5.923 -0.0069 -3.5571  0.1220
  505MOL0     H66643   2.350   5.232   5.759  0.5988  0.4107  0.0180
  505MOL0     H66644   2.185   4.956   5.468  1.0257  0.9373  1.7229
  505MOL0     H66645   2.252   4.753   5.365 -0.1616 -0.8177  0.9618
  505MOL0     H66646   3.334   5.204   4.532 -0.6867 -0.3767 -0.1071
  505MOL0     H66647   3.545   5.146   4.415 -1.3394 -0.6913  2.9403
  505MOL0     H66648   3.824   5.205   4.070 -0.1902 -0.1420 -1.1018
  505MOL0     H66649   4.038   5.179   3.980 -1.1018  0.1833 -1.1044
  505MOL0     H66650   4.227   5.118   3.922 -2.8775 -0.3749 -1.0557
  505MOL0     H66651   4.193   5.026   3.767  0.7329 -2.1030 -1.7312
  505MOL0     H66652   4.438   5.027   3.798  0.2733 -0.3205 -0.3201
  505MOL0     H66653   4.407   4.976   3.970 -1.9387 -2.3193  1.5402
  505MOL0     H66654   4.326   4.798   3.736  2.9355 -1.6193 -0.3892
  505MOL0     H66655   4.342   4.766   3.906  1.1123  1.0851  0.8927
  505MOL0     H66656   4.528   4.675   3.756  0.7210  1.1539 -4.0728
  505MOL0     H66657   4.559   4.822   3.688 -0.9296 -0.3556 -0.4759
  505MOL0     H66658   4.791   4.861   4.042 -1.3500  0.2586  1.2221
  505MOL0     H66659   3.984   4.752   4.018  0.0508 -0.0253 -2.1237
  505MOL0     H66660   3.774   4.780   4.115  1.3268 -1.8997 -2.2993
  506MOL0     O66661   9.931   1.135   1.238 -0.3425 -0.5937 -0.1390
  506MOL0     C66662   9.925   1.019   1.193  0.6486  0.4621  0.2948
  506MOL0     O66663  10.024   0.939   1.170 -0.5755 -0.2198 -0.6246
  506MOL0     C66664  10.157   0.955   1.212  0.1858 -0.4157  0.4158
  506MOL0     C66665  10.235   0.845   1.196  0.0100  0.7574 -0.2454
  506MOL0     C66666  10.371   0.848   1.230  0.6434 -0.1062  0.6427
  506MOL0     C66667  10.429   0.961   1.294 -0.1955 -0.2889  0.0101
  506MOL0     O66668  10.559   0.972   1.315  0.1795  0.4023  0.2843
  506MOL0     C66669  10.586   0.990   1.454  0.7367 -0.4717  0.0339
  506MOL0     C66670  10.726   0.932   1.488  0.3936  0.4855  0.3506
  506MOL0     C66671  10.727   0.778   1.478 -0.2906 -0.0002  0.0435
  506MOL0     C66672  10.870   0.732   1.447  0.0514  0.0879  0.3916
  506MOL0     C66673  10.968   0.766   1.558 -0.3607 -0.2180  0.3432
  506MOL0     C66674  11.112   0.714   1.541  0.4173  0.7196  0.6500
  506MOL0     C66675  11.188   0.722   1.678 -0.4404 -0.1520  0.0288
  506MOL0     C66676  11.339   0.689   1.676 -0.8426 -0.3838  0.6522
  506MOL0     N66677  11.360   0.542   1.665  0.1642 -0.0960 -0.8317
  506MOL0     C66678  11.425   0.472   1.762 -0.3490  0.0253  1.0462
  506MOL0     C66679  11.407   0.340   1.732  0.2387 -0.1532  0.7210
  506MOL0     C66680  11.457   0.218   1.802  0.4039  0.2170 -0.0672
  506MOL0     C66681  11.579   0.155   1.750  0.8402 -0.4288 -0.0355
  506MOL0     C66682  11.576   0.002   1.767  0.1518  0.1589  0.0419
  506MOL0     C66683  11.718  -0.050   1.789  0.2799  0.1235  0.0930
  506MOL0     O66684  11.807  -0.037   1.678  0.1720  0.7346 -0.1698
  506MOL0     C66685  11.940  -0.066   1.689  0.1968  0.2603 -0.0430
  506MOL0     C66686  12.010  -0.051   1.568  0.7580  0.3303 -0.1848
  506MOL0     C66687  12.144  -0.100   1.561  0.5250 -0.6300  0.7430
  506MOL0     C66688  12.214  -0.133   1.679  0.1743 -0.6458 -0.1528
  506MOL0     C66689  12.360  -0.166   1.673 -1.3053 -0.2706  0.5300
  506MOL0     O66690  12.451  -0.172   1.778  0.0642  0.6499 -0.2665
  506MOL0     C66691  12.573  -0.229   1.761  0.0298  0.2662  0.5671
  506MOL0     C66692  12.682  -0.144   1.788 -0.1442  0.3260 -0.8297
  506MOL0     C66693  12.807  -0.198   1.770  0.7503 -1.4173  0.7317
  506MOL0     C66694  12.834  -0.322   1.719 -0.0975  0.5977  0.4690
  506MOL0     O66695  12.965  -0.380   1.710  1.4166  0.2179  0.2638
  506MOL0     C66696  12.984  -0.523   1.692  1.2429 -0.3904 -0.1809
  506MOL0     C66697  13.130  -0.548   1.681  0.0350 -0.6201 -0.2021
  506MOL0     C66698  13.171  -0.688   1.628  0.3197  0.3055 -0.4624
  506MOL0     C66699  13.322  -0.733   1.649 -0.5039  0.6541 -0.1906
  506MOL0     C66700  13.358  -0.869   1.587 -0.0830 -0.1840  0.0094
  506MOL0     C66701  13.483  -0.935   1.659 -0.1516  0.0626  0.0872
  506MOL0     C66702  13.607  -0.848   1.630  0.2079  0.0676  0.3137
  506MOL0     C66703  13.736  -0.913   1.655 -0.3096  0.3601 -0.3128
  506MOL0    Cl66704  13.774  -1.024   1.526  0.0633  0.2597 -0.1357
  506MOL0     C66705  12.724  -0.402   1.683 -0.0284  0.1601 -0.7100
  506MOL0     C66706  12.592  -0.358   1.703 -0.9994  0.2444 -0.6376
  506MOL0     O66707  12.389  -0.195   1.558 -0.1513  0.2383 -0.0170
  506MOL0     C66708  12.144  -0.133   1.799  0.7788 -0.2797 -0.4976
  506MOL0     C66709  12.000  -0.117   1.801 -0.4305  0.1832 -0.2463
  506MOL0     N66710  11.311   0.329   1.635  0.6707 -0.5685 -0.5592
  506MOL0     N66711  11.287   0.450   1.601 -0.5061  0.4996  0.2972
  506MOL0     C66712  10.343   1.072   1.317  0.3051  0.0738 -0.5492
  506MOL0     C66713  10.213   1.069   1.283 -0.7625 -0.0233 -0.0733
  506MOL0     C66714   9.797   0.970   1.135 -0.1730 -0.0619 -0.6507
  506MOL0     C66715   9.676   1.038   1.152 -0.3365 -0.2286 -0.1764
  506MOL0     C66716   9.554   1.003   1.112  0.7553 -0.1048  0.5919
  506MOL0     C66717   9.551   0.880   1.026  0.5806  0.9156 -0.5324
  506MOL0     O66718   9.433   0.826   0.959  0.4085  0.2786  0.2517
  506MOL0     C66719   9.330   0.925   0.935  0.9450  0.5755 -0.6988
  506MOL0     C66720   9.350   1.046   0.835 -0.4196 -0.5258  0.6048
  506MOL0     C66721   9.268   1.179   0.878  0.4081 -0.4805  0.0946
  506MOL0     C66722   9.115   1.171   0.890 -0.0971  1.0323  0.0941
  506MOL0     C66723   9.037   1.283   0.843  0.1257 -0.0044  0.4978
  506MOL0     C66724   8.980   1.382   0.806 -0.6000  0.2920  0.5262
  506MOL0     C66725   9.676   0.806   1.008 -0.0660  0.7942 -0.9430
  506MOL0     C66726   9.797   0.843   1.071  0.0012 -0.1032 -0.2968
  506MOL0     H66727  10.184   0.752   1.171 -2.0146  1.2118  1.8381
  506MOL0     H66728  10.432   0.759   1.214 -0.0371 -0.4067 -0.4292
  506MOL0     H66729  10.511   0.945   1.519  1.5522 -1.0914  0.5660
  506MOL0     H66730  10.586   1.097   1.475  1.0763 -0.7266  1.4508
  506MOL0     H66731  10.763   0.964   1.586  0.0912  0.6296  0.4180
  506MOL0     H66732  10.801   0.970   1.418  0.2028  0.4329  0.1154
  506MOL0     H66733  10.645   0.737   1.418  0.6881 -1.4906 -0.3223
  506MOL0     H66734  10.701   0.729   1.572  1.1051 -2.2774 -0.6719
  506MOL0     H66735  10.856   0.624   1.432 -2.7244  0.3615  0.4817
  506MOL0     H66736  10.895   0.789   1.358 -1.9197 -1.3331 -1.1673
  506MOL0     H66737  10.918   0.739   1.652  1.4008  1.6738  1.9180
  506MOL0     H66738  10.968   0.875   1.552  1.2932 -0.2484 -1.0705
  506MOL0     H66739  11.149   0.773   1.456  1.1608 -2.7196 -1.6099
  506MOL0     H66740  11.113   0.610   1.509 -1.8769  0.7762  0.1948
  506MOL0     H66741  11.180   0.823   1.718 -0.7109 -0.9530  2.0772
  506MOL0     H66742  11.149   0.639   1.738 -0.6504 -0.8702 -1.0641
  506MOL0     H66743  11.393   0.725   1.764  1.4571 -0.5929 -0.5972
  506MOL0     H66744  11.387   0.733   1.587 -2.1126  1.0125  0.6163
  506MOL0     H66745  11.485   0.509   1.844  2.3925 -2.4165  0.3034
  506MOL0     H66746  11.370   0.153   1.814  0.6794  0.3602  3.9474
  506MOL0     H66747  11.474   0.252   1.904  3.2991  2.0224 -1.0297
  506MOL0     H66748  11.669   0.198   1.794  0.9970  0.3042 -1.0506
  506MOL0     H66749  11.590   0.176   1.643  1.3950  0.9494  0.2735
  506MOL0     H66750  11.517  -0.022   1.857  1.1144  4.2500  2.0165
  506MOL0     H66751  11.533  -0.037   1.674  0.7353  0.7519 -0.4789
  506MOL0     H66752  11.708  -0.157   1.811 -1.2916 -0.7457 -4.0667
  506MOL0     H66753  11.766  -0.001   1.874 -0.1181  0.7863 -0.0575
  506MOL0     H66754  11.947  -0.008   1.490  3.3370  0.6276 -2.2338
  506MOL0     H66755  12.185  -0.114   1.462  1.1962  0.0618  0.9147
  506MOL0     H66756  12.679  -0.045   1.832  0.6316 -0.8455  2.0982
  506MOL0     H66757  12.892  -0.130   1.771  0.5133 -0.8498 -3.2142
  506MOL0     H66758  12.922  -0.560   1.610  0.3526 -0.3362  0.4557
  506MOL0     H66759  12.942  -0.575   1.778 -2.5399  0.2107 -1.4401
  506MOL0     H66760  13.172  -0.525   1.779  1.9708 -1.6216 -0.7362
  506MOL0     H66761  13.168  -0.474   1.609 -1.9855 -2.0941 -2.9763
  506MOL0     H66762  13.152  -0.695   1.520  0.5750 -0.9892 -0.4484
  506MOL0     H66763  13.111  -0.769   1.670  2.8380 -0.0901  2.7900
  506MOL0     H66764  13.380  -0.661   1.592  0.5975  0.4281  0.6106
  506MOL0     H66765  13.352  -0.726   1.754  0.8583 -0.5995 -0.4616
  506MOL0     H66766  13.384  -0.859   1.481  1.5697  4.9555  0.5917
  506MOL0     H66767  13.271  -0.934   1.604 -0.3304  0.7433  2.7544
  506MOL0     H66768  13.500  -1.039   1.633 -2.2558  0.3338 -2.9094
  506MOL0     H66769  13.466  -0.930   1.767 -1.9693  0.5151 -0.1917
  506MOL0     H66770  13.606  -0.820   1.525 -1.1946 -2.1459 -0.3461
  506MOL0     H66771  13.605  -0.761   1.697 -2.9283  0.9864 -0.8055
  506MOL0     H66772  13.734  -0.961   1.753  1.1640  3.7978  1.5693
  506MOL0     H66773  13.822  -0.846   1.653 -0.4594  0.6348 -3.6681
  506MOL0     H66774  12.733  -0.502   1.641 -2.4464 -1.3104  1.9397
  506MOL0     H66775  12.517  -0.429   1.668 -1.3261  1.3014 -2.1862
  506MOL0     H66776  12.193  -0.165   1.891  3.1241 -2.7490 -2.4521
  506MOL0     H66777  11.958  -0.138   1.899 -0.5026  0.3795 -0.2338
  506MOL0     H66778  10.382   1.155   1.377  1.3537 -0.2388 -0.7787
  506MOL0     H66779  10.146   1.145   1.321  3.3547  2.7492  2.4297
  506MOL0     H66780   9.698   1.129   1.208  1.9057 -1.3913  0.9399
  506MOL0     H66781   9.470   1.052   1.160  1.0907  1.9207 -0.7707
  506MOL0     H66782   9.308   0.965   1.035 -2.6118 -1.3710 -0.5195
  506MOL0     H66783   9.242   0.868   0.904  0.8994 -0.9460  1.8714
  506MOL0     H66784   9.458   1.063   0.826 -0.1157 -3.1849 -2.9742
  506MOL0     H66785   9.312   1.011   0.738  0.8798  1.0871 -0.5489
  506MOL0     H66786   9.298   1.260   0.810  1.3237 -0.6448  0.2899
  506MOL0     H66787   9.296   1.200   0.981 -2.2440  0.8134  0.6370
  506MOL0     H66788   9.093   1.081   0.831  5.5481  0.3137 -1.5031
  506MOL0     H66789   9.085   1.145   0.992 -1.0464  2.3572  0.1849
  506MOL0     H66790   8.936   1.468   0.759 -1.8505 -0.8999 -0.5759
  506MOL0     H66791   9.674   0.709   0.960  0.6411  0.5527 -0.4835
  506MOL0     H66792   9.887   0.785   1.059  0.6062  0.6444  0.4321
  507MOL0     O66793  10.127   7.717   8.280 -0.6954 -0.0951  0.6225
  507MOL0     C66794  10.053   7.657   8.356 -0.4454 -0.4198 -0.5498
  507MOL0     O66795   9.925   7.633   8.332  0.5215 -0.0701  0.1718
  507MOL0     C66796   9.856   7.707   8.230 -1.2648  0.6039 -0.3704
  507MOL0     C66797   9.874   7.844   8.234 -0.4066 -0.7079  0.4306
  507MOL0     C66798   9.823   7.928   8.142 -0.4349  0.2598  0.4976
  507MOL0     C66799   9.758   7.877   8.035 -0.3885  0.1005 -0.1177
  507MOL0     O66800   9.710   7.969   7.951 -0.1676  0.5065 -0.0478
  507MOL0     C66801   9.685   7.938   7.813  0.0936  0.4476  0.1419
  507MOL0     C66802   9.642   8.066   7.745 -0.4961 -0.1846 -0.8553
  507MOL0     C66803   9.585   8.038   7.606  0.1620 -0.3668 -0.5458
  507MOL0     C66804   9.594   8.172   7.520 -0.4330 -0.6292  0.6424
  507MOL0     C66805   9.529   8.291   7.572  0.3837  0.0817 -0.3245
  507MOL0     C66806   9.385   8.288   7.544  0.7589  0.0956  0.7149
  507MOL0     C66807   9.340   8.438   7.545  0.4022  0.3578 -0.0519
  507MOL0     C66808   9.198   8.458   7.504 -0.1365  0.8378 -0.9245
  507MOL0     N66809   9.107   8.369   7.585  0.0306 -0.2269 -0.2366
  507MOL0     C66810   9.015   8.421   7.680  0.7255  0.2099  0.1460
  507MOL0     C66811   8.917   8.326   7.688 -0.6513  0.6464 -0.0394
  507MOL0     C66812   8.788   8.321   7.772  0.9901  0.0251 -0.7136
  507MOL0     C66813   8.726   8.454   7.803 -0.5956  0.4799  0.5241
  507MOL0     C66814   8.590   8.438   7.869 -0.4744  0.2683 -0.5002
  507MOL0     C66815   8.476   8.391   7.783 -0.2275  0.0216 -0.4660
  507MOL0     O66816   8.461   8.252   7.796 -0.5935 -0.1602 -0.0973
  507MOL0     C66817   8.339   8.189   7.800 -0.0857  0.8228  0.6922
  507MOL0     C66818   8.314   8.064   7.865  0.1643  0.1902 -0.2538
  507MOL0     C66819   8.194   7.991   7.846 -0.0771 -0.3277  0.4414
  507MOL0     C66820   8.090   8.055   7.774 -0.1325  0.9765  0.2411
  507MOL0     C66821   7.964   7.987   7.752  0.1988 -0.2752  0.2367
  507MOL0     O66822   7.958   7.866   7.810 -0.1431  0.5172  0.3500
  507MOL0     C66823   7.837   7.799   7.824 -0.5577  0.0869  0.7763
  507MOL0     C66824   7.759   7.769   7.708  0.8990  0.2240  0.4389
  507MOL0     C66825   7.639   7.702   7.722  0.8613  0.1948 -0.4338
  507MOL0     C66826   7.607   7.648   7.849  0.2247 -1.1031  0.3594
  507MOL0     O66827   7.499   7.565   7.850 -0.3571  0.3211  0.2395
  507MOL0     C66828   7.440   7.533   7.977  0.0059  0.4624  0.1974
  507MOL0     C66829   7.299   7.474   7.962 -0.0995 -0.2105  0.6119
  507MOL0     C66830   7.196   7.579   7.896  0.2555  0.1586 -0.4684
  507MOL0     C66831   7.047   7.525   7.911 -0.5784 -0.1549  0.3724
  507MOL0     C66832   6.962   7.584   7.795  0.1989  1.5021 -0.7733
  507MOL0     C66833   6.812   7.548   7.819 -0.0359  0.2324 -0.4345
  507MOL0     C66834   6.734   7.599   7.702  0.4237  0.0720  0.0537
  507MOL0     C66835   6.593   7.624   7.750  1.2023  1.0136  0.4757
  507MOL0    Cl66836   6.502   7.468   7.788 -0.4051 -0.0314 -0.5994
  507MOL0     C66837   7.693   7.670   7.970  0.5405 -0.6894 -1.2587
  507MOL0     C66838   7.811   7.742   7.947 -0.1301  0.5953  0.4005
  507MOL0     O66839   7.863   8.040   7.695 -0.0908 -0.1614 -0.2909
  507MOL0     C66840   8.109   8.183   7.725 -0.1399 -0.2067  0.5545
  507MOL0     C66841   8.230   8.255   7.731 -0.7629 -0.0656 -0.2324
  507MOL0     N66842   8.965   8.215   7.622 -0.2218  0.2444  0.3092
  507MOL0     N66843   9.071   8.240   7.551  0.7511 -0.6799 -0.4479
  507MOL0     C66844   9.743   7.735   8.033 -0.4440  0.6759  0.4179
  507MOL0     C66845   9.795   7.650   8.121 -0.8477  1.2958  0.1764
  507MOL0     C66846  10.114   7.599   8.477 -0.6903 -0.3199  0.7275
  507MOL0     C66847  10.032   7.536   8.570  0.4196 -1.3040  0.2502
  507MOL0     C66848  10.081   7.487   8.690 -0.7676 -0.5960  0.1483
  507MOL0     C66849  10.221   7.488   8.719 -0.7910 -0.0215  0.5981
  507MOL0     O66850  10.268   7.427   8.838  0.0288  0.1409 -0.0654
  507MOL0     C66851  10.389   7.463   8.906  0.4339  0.0408  0.5296
  507MOL0     C66852  10.349   7.574   9.006 -0.5249  0.5982 -0.4476
  507MOL0     C66853  10.472   7.603   9.089 -0.0201 -0.6403 -0.7259
  507MOL0     C66854  10.419   7.674   9.206 -0.3999 -0.4236 -1.0860
  507MOL0     C66855  10.532   7.731   9.284 -0.2523  0.6330  0.6561
  507MOL0     C66856  10.628   7.767   9.352  0.4790  0.2041  0.7936
  507MOL0     C66857  10.306   7.546   8.616  0.1747 -0.8558 -0.4170
  507MOL0     C66858  10.253   7.605   8.499  0.1448  0.7872 -0.6876
  507MOL0     H66859   9.930   7.899   8.310 -0.4217  1.4772 -1.0306
  507MOL0     H66860   9.843   8.034   8.151  2.5147 -0.2227  0.7119
  507MOL0     H66861   9.604   7.867   7.792 -0.2792  0.9343 -0.0672
  507MOL0     H66862   9.784   7.904   7.779  0.4107 -0.4928  1.8882
  507MOL0     H66863   9.736   8.121   7.731 -0.6958  0.4768  0.2819
  507MOL0     H66864   9.582   8.128   7.812  1.2401 -1.3312  1.9611
  507MOL0     H66865   9.486   7.993   7.600  0.5232 -1.0958 -1.1769
  507MOL0     H66866   9.638   7.959   7.552  0.4980 -1.2688  1.0280
  507MOL0     H66867   9.698   8.196   7.499 -0.0842 -2.1702  0.4936
  507MOL0     H66868   9.554   8.139   7.424  1.5931 -0.8359 -0.1630
  507MOL0     H66869   9.584   8.372   7.522 -0.0891  0.5942 -0.0228
  507MOL0     H66870   9.544   8.305   7.680  2.9036 -3.7273 -0.0019
  507MOL0     H66871   9.327   8.231   7.618  1.6429 -0.3246  1.1000
  507MOL0     H66872   9.372   8.248   7.443 -5.1371 -0.5598  1.3475
  507MOL0     H66873   9.347   8.491   7.640 -0.2778 -0.0537  0.2327
  507MOL0     H66874   9.399   8.495   7.473 -1.8130  2.2160 -0.4951
  507MOL0     H66875   9.190   8.419   7.402 -0.8183  1.6472 -1.1948
  507MOL0     H66876   9.170   8.563   7.516 -0.8432  0.4441  1.3353
  507MOL0     H66877   9.012   8.520   7.726  1.1221  0.0045  0.6165
  507MOL0     H66878   8.807   8.286   7.874 -1.6344 -1.6352 -0.6809
  507MOL0     H66879   8.716   8.245   7.738 -0.1623  0.7113  0.1133
  507MOL0     H66880   8.712   8.510   7.710  0.8166 -0.5826 -0.3600
  507MOL0     H66881   8.796   8.518   7.857  0.9517  0.2928 -1.1724
  507MOL0     H66882   8.606   8.373   7.956  0.8545  1.8564  0.4896
  507MOL0     H66883   8.555   8.535   7.904  3.9990  2.5534 -1.6637
  507MOL0     H66884   8.487   8.426   7.680  2.0964  0.5210 -0.0997
  507MOL0     H66885   8.383   8.442   7.812 -0.2789  2.4012 -4.1367
  507MOL0     H66886   8.388   8.006   7.919 -0.5079 -1.1365 -0.7212
  507MOL0     H66887   8.200   7.887   7.878 -2.2189 -0.6969 -0.2503
  507MOL0     H66888   7.788   7.802   7.608  1.7847 -0.3725  0.4857
  507MOL0     H66889   7.571   7.684   7.639  1.2172  0.1138 -0.7119
  507MOL0     H66890   7.423   7.629   8.026 -0.3892  1.1022 -1.1562
  507MOL0     H66891   7.505   7.488   8.053  2.0358  0.5552 -1.4079
  507MOL0     H66892   7.274   7.454   8.066 -0.2563 -1.5572  0.3401
  507MOL0     H66893   7.299   7.378   7.908  2.5474  0.0679 -0.0250
  507MOL0     H66894   7.222   7.592   7.791  1.4812 -0.2561 -0.2304
  507MOL0     H66895   7.210   7.681   7.935  1.2755  0.5955 -1.9251
  507MOL0     H66896   7.056   7.416   7.912 -0.1722 -0.1192  1.0400
  507MOL0     H66897   6.990   7.563   7.997 -1.0689  3.7670 -1.4614
  507MOL0     H66898   6.998   7.537   7.703  1.6491  0.3364  0.3490
  507MOL0     H66899   6.976   7.691   7.777  1.3320  1.7681  1.3500
  507MOL0     H66900   6.776   7.574   7.920  0.3765 -0.3417 -0.1314
  507MOL0     H66901   6.806   7.439   7.817 -2.0512  0.3088 -0.7131
  507MOL0     H66902   6.781   7.688   7.661  1.1608 -0.0817  0.5533
  507MOL0     H66903   6.733   7.533   7.615 -0.1754 -0.0225  0.1280
  507MOL0     H66904   6.535   7.667   7.669  1.4061 -2.4496 -1.6726
  507MOL0     H66905   6.600   7.679   7.845 -2.2294 -1.6288  2.4928
  507MOL0     H66906   7.682   7.629   8.070  3.8805 -3.5598 -1.9026
  507MOL0     H66907   7.878   7.768   8.028 -2.8732  1.7207  2.4747
  507MOL0     H66908   8.025   8.226   7.672 -0.5931  0.4658  1.7881
  507MOL0     H66909   8.232   8.356   7.693  0.1588  0.8400  2.1038
  507MOL0     H66910   9.682   7.691   7.954 -0.8535 -2.9452  2.5298
  507MOL0     H66911   9.779   7.543   8.109  2.8064  0.8767 -3.2958
  507MOL0     H66912   9.924   7.529   8.559  0.2565  1.8227 -1.3760
  507MOL0     H66913  10.003   7.448   8.755 -1.0790  0.8576  0.6842
  507MOL0     H66914  10.450   7.517   8.832 -0.9894  0.4678 -0.3744
  507MOL0     H66915  10.440   7.376   8.947 -0.5759 -1.7308 -1.7215
  507MOL0     H66916  10.334   7.660   8.939 -0.2722  1.7187  0.8872
  507MOL0     H66917  10.258   7.548   9.061 -0.3674 -0.8959 -0.8438
  507MOL0     H66918  10.544   7.672   9.043 -0.0307  2.1859  2.9559
  507MOL0     H66919  10.527   7.517   9.129  1.5671 -0.1051 -1.6414
  507MOL0     H66920  10.338   7.745   9.186 -0.6928 -0.8007 -1.2464
  507MOL0     H66921  10.371   7.600   9.271 -0.8368  0.6071 -0.1842
  507MOL0     H66922  10.701   7.789   9.427 -0.1616  3.3883  0.6046
  507MOL0     H66923  10.412   7.562   8.629 -0.0597 -0.1315  0.6920
  507MOL0     H66924  10.326   7.657   8.436 -0.1591  1.2114 -0.6884
  508MOL0     O66925   5.075   9.868   3.684  0.2520  0.3948 -0.7007
  508MOL0     C66926   5.139   9.884   3.584 -0.3948  1.5865  0.0431
  508MOL0     O66927   5.094   9.910   3.464 -0.5343  0.1815 -0.2051
  508MOL0     C66928   4.963   9.949   3.442  0.0803 -0.0943  0.0238
  508MOL0     C66929   4.940   9.978   3.309 -0.0373  0.3042  0.2935
  508MOL0     C66930   4.811  10.020   3.276 -0.8340 -0.3166 -0.2548
  508MOL0     C66931   4.704  10.029   3.359  0.8857 -0.6198 -0.3753
  508MOL0     O66932   4.587  10.068   3.303  0.2000 -0.3618 -0.0329
  508MOL0     C66933   4.510  10.161   3.378  0.0802  0.7782  0.1294
  508MOL0     C66934   4.367  10.168   3.338 -0.2758 -0.3777  0.7919
  508MOL0     C66935   4.307  10.021   3.318 -0.7022 -0.0963 -0.5093
  508MOL0     C66936   4.158  10.026   3.307 -1.0162 -0.2511  0.6305
  508MOL0     C66937   4.111   9.903   3.229 -0.3306  0.1242 -0.8391
  508MOL0     C66938   3.953   9.888   3.214  0.4625 -0.1968  0.3972
  508MOL0     C66939   3.909   9.768   3.131 -0.0640 -0.3385 -0.1666
  508MOL0     C66940   3.912   9.791   2.976  0.0739  0.2855 -0.0843
  508MOL0     N66941   3.868   9.668   2.901  0.1595  0.1355 -0.6362
  508MOL0     C66942   3.734   9.645   2.903 -0.3474  0.2383 -0.6363
  508MOL0     C66943   3.723   9.530   2.827 -1.0088  0.3106 -1.1572
  508MOL0     C66944   3.598   9.444   2.803 -0.8929 -0.7160  0.3062
  508MOL0     C66945   3.479   9.536   2.763 -0.0145 -0.3473 -1.0046
  508MOL0     C66946   3.354   9.462   2.714 -0.1502  1.1615  0.4034
  508MOL0     C66947   3.241   9.544   2.678  0.4586 -0.7541  0.3025
  508MOL0     O66948   3.191   9.601   2.796  0.0583  0.2830 -0.1686
  508MOL0     C66949   3.072   9.669   2.791 -1.1506 -0.2056 -0.0817
  508MOL0     C66950   3.053   9.744   2.910  0.3425  1.3531  0.0233
  508MOL0     C66951   2.938   9.814   2.931  0.5621 -0.0719  0.4177
  508MOL0     C66952   2.836   9.806   2.833  0.7604 -0.3969 -0.8722
  508MOL0     C66953   2.695   9.863   2.855 -0.1202 -0.8628  0.6205
  508MOL0     O66954   2.688   9.944   2.965 -0.8226  0.4165  0.1428
  508MOL0     C66955   2.569  10.004   2.981  0.0273 -0.1350 -0.4538
  508MOL0     C66956   2.459   9.934   3.031 -0.7117  0.3616 -0.1094
  508MOL0     C66957   2.333   9.997   3.042 -0.3926  0.2586  0.6440
  508MOL0     C66958   2.308  10.127   3.014  0.4473  0.8791 -0.6689
  508MOL0     O66959   2.175  10.165   3.035  0.0152 -0.5370 -0.0281
  508MOL0     C66960   2.165  10.296   3.093 -1.1693 -0.1441  0.6531
  508MOL0     C66961   2.042  10.280   3.176  1.1093  0.7028  0.7086
  508MOL0     C66962   1.915  10.268   3.093 -0.0687 -0.5928 -0.3972
  508MOL0     C66963   1.791  10.252   3.172 -0.3364  0.8618  0.1195
  508MOL0     C66964   1.692  10.181   3.085  0.4021  0.6552 -0.6138
  508MOL0     C66965   1.567  10.146   3.171  0.9607  0.1881 -0.9795
  508MOL0     C66966   1.452  10.091   3.092  0.6109  0.5607  0.6309
  508MOL0     C66967   1.328  10.044   3.164 -0.2477 -0.1942 -0.5108
  508MOL0    Cl66968   1.251  10.183   3.237 -0.1736 -0.4982 -0.1922
  508MOL0     C66969   2.421  10.200   2.969  0.4986 -0.1333  0.5320
  508MOL0     C66970   2.548  10.140   2.951 -1.0092  0.0955  0.1742
  508MOL0     O66971   2.604   9.849   2.767 -0.4234 -0.8234  0.6534
  508MOL0     C66972   2.867   9.747   2.709 -0.5977 -0.5421  0.5172
  508MOL0     C66973   2.977   9.674   2.691  0.1050  0.3348 -0.8824
  508MOL0     N66974   3.857   9.479   2.804 -0.2729 -0.8897  0.2146
  508MOL0     N66975   3.940   9.566   2.840 -0.0812  0.1428  0.2919
  508MOL0     C66976   4.726  10.003   3.493 -0.0612  0.4905 -0.0101
  508MOL0     C66977   4.853   9.953   3.529  0.2073 -0.1342  0.6565
  508MOL0     C66978   5.287   9.877   3.597 -1.1762 -0.4114  0.2442
  508MOL0     C66979   5.354   9.860   3.719  0.7621  0.0633  0.4324
  508MOL0     C66980   5.490   9.843   3.726 -0.2067 -0.3461  0.5685
  508MOL0     C66981   5.570   9.876   3.615  0.2455 -0.2954 -0.4578
  508MOL0     O66982   5.696   9.890   3.657  0.6448 -0.0410  0.0583
  508MOL0     C66983   5.808   9.889   3.566  0.7762  0.4656 -0.7291
  508MOL0     C66984   5.930   9.939   3.643 -0.7626 -0.1040  0.7545
  508MOL0     C66985   5.929  10.075   3.706  0.2397 -0.6996  0.4186
  508MOL0     C66986   6.070  10.117   3.759 -0.4142 -1.1338 -0.1392
  508MOL0     C66987   6.056  10.248   3.832 -0.0178  0.4709  0.1437
  508MOL0     C66988   6.055  10.354   3.896 -0.0509  0.2446  0.8841
  508MOL0     C66989   5.505   9.914   3.490 -1.0950  0.0980  0.2724
  508MOL0     C66990   5.375   9.895   3.488  1.1682 -0.8593  0.4772
  508MOL0     H66991   5.027   9.972   3.244 -0.3979  2.4539 -0.4676
  508MOL0     H66992   4.804  10.029   3.168 -0.2152 -3.0561 -0.5940
  508MOL0     H66993   4.561  10.255   3.355 -0.9012  1.4308  0.5375
  508MOL0     H66994   4.507  10.135   3.484  1.6135 -0.7465 -0.1656
  508MOL0     H66995   4.354  10.220   3.242 -1.0858 -3.1038 -0.6995
  508MOL0     H66996   4.307  10.228   3.407 -2.1146 -0.8956 -0.2794
  508MOL0     H66997   4.332   9.957   3.402  0.2794  0.5893 -0.2586
  508MOL0     H66998   4.359   9.972   3.235  2.6953  0.1794  1.3090
  508MOL0     H66999   4.114  10.030   3.407  0.3978 -0.6519  1.2915
  508MOL0     H67000   4.116  10.113   3.256  0.3669  0.4560  0.6449
  508MOL0     H67001   4.166   9.828   3.287  3.4855  3.0980 -0.1803
  508MOL0     H67002   4.156   9.904   3.129 -2.3338  1.5806 -1.7739
  508MOL0     H67003   3.909   9.980   3.173  0.8410 -0.2868 -0.2337
  508MOL0     H67004   3.919   9.883   3.318 -0.1714  0.3498  0.2266
  508MOL0     H67005   3.963   9.675   3.154 -3.2539 -2.1021  0.8332
  508MOL0     H67006   3.812   9.748   3.176 -0.7695  1.1781 -0.9350
  508MOL0     H67007   4.015   9.816   2.949 -0.1227  1.2038 -0.0184
  508MOL0     H67008   3.851   9.880   2.964  0.2100  0.1762 -1.8173
  508MOL0     H67009   3.660   9.716   2.940  0.4794  1.1828 -0.7721
  508MOL0     H67010   3.565   9.390   2.892 -1.5343  0.3962  0.7597
  508MOL0     H67011   3.611   9.387   2.710 -0.2022  2.0150 -1.4103
  508MOL0     H67012   3.512   9.599   2.679 -2.7626  0.9834 -1.1910
  508MOL0     H67013   3.445   9.595   2.849 -2.2050 -1.1532 -1.2710
  508MOL0     H67014   3.376   9.402   2.625 -3.3052 -0.6961  0.7242
  508MOL0     H67015   3.324   9.394   2.793 -2.8977  0.5042 -1.0795
  508MOL0     H67016   3.167   9.473   2.641  0.8261  0.5708 -3.5016
  508MOL0     H67017   3.274   9.611   2.597  0.1969  0.9946  1.5847
  508MOL0     H67018   3.130   9.735   2.986  1.2505 -1.3726 -1.1172
  508MOL0     H67019   2.927   9.869   3.024 -0.2767 -0.0610  0.3182
  508MOL0     H67020   2.475   9.834   3.070 -1.3043  0.1506 -0.3860
  508MOL0     H67021   2.262   9.931   3.091 -1.7472  0.2588 -1.2525
  508MOL0     H67022   2.155  10.378   3.022  1.2120 -0.9807 -0.7515
  508MOL0     H67023   2.245  10.318   3.164 -0.7678  1.6910 -0.3184
  508MOL0     H67024   2.030  10.369   3.238  1.1055  0.4112  1.1346
  508MOL0     H67025   2.060  10.195   3.243  1.5622 -1.0800 -1.5662
  508MOL0     H67026   1.921  10.195   3.012  4.2707  0.9407 -1.7454
  508MOL0     H67027   1.919  10.358   3.030  1.6776 -0.0355  0.4475
  508MOL0     H67028   1.814  10.198   3.265  3.5079  1.5805 -0.2335
  508MOL0     H67029   1.756  10.346   3.217 -0.8587  1.3367 -1.2528
  508MOL0     H67030   1.738  10.091   3.042  0.5864  1.8558 -3.1126
  508MOL0     H67031   1.662  10.245   3.001  0.1569  0.3004 -0.8031
  508MOL0     H67032   1.534  10.235   3.225  3.0787 -0.6592  1.9163
  508MOL0     H67033   1.586  10.070   3.247 -3.5107  3.0741  3.7200
  508MOL0     H67034   1.420  10.157   3.010  0.0871 -1.6504 -1.0309
  508MOL0     H67035   1.499  10.009   3.038  0.4172  0.3414  0.7957
  508MOL0     H67036   1.376   9.975   3.234  0.6535  0.2635 -0.6601
  508MOL0     H67037   1.260   9.979   3.109  0.1590  0.1970 -1.5030
  508MOL0     H67038   2.402  10.304   2.945 -0.4047 -0.6770 -1.3882
  508MOL0     H67039   2.625  10.217   2.941  3.0095 -3.1098  2.9152
  508MOL0     H67040   2.801   9.745   2.623 -2.8019 -1.5486  2.1206
  508MOL0     H67041   2.993   9.607   2.608 -3.6890 -1.7840 -0.1430
  508MOL0     H67042   4.639  10.014   3.558  0.1172  0.0343  0.3184
  508MOL0     H67043   4.860   9.931   3.635 -0.3336  2.5581  1.3408
  508MOL0     H67044   5.298   9.841   3.810 -0.5267 -0.4012 -0.4467
  508MOL0     H67045   5.524   9.818   3.826  0.9174 -2.1973 -0.2247
  508MOL0     H67046   5.784   9.943   3.474  0.9240 -1.3004 -1.8557
  508MOL0     H67047   5.820   9.787   3.528  0.8748 -0.5041  1.6876
  508MOL0     H67048   5.966   9.878   3.727 -1.9239  2.3449  3.1644
  508MOL0     H67049   6.011   9.948   3.569 -1.9873 -1.6370 -0.8510
  508MOL0     H67050   5.838  10.082   3.767 -1.6353 -1.1922 -2.1610
  508MOL0     H67051   5.903  10.138   3.620  0.3880 -2.1299 -0.7151
  508MOL0     H67052   6.107  10.046   3.834  0.6192 -0.2053  0.2442
  508MOL0     H67053   6.144  10.139   3.682  0.5687  0.0369  1.0888
  508MOL0     H67054   6.057  10.441   3.959 -0.5733 -0.4187  1.8511
  508MOL0     H67055   5.561   9.971   3.416  0.9484  0.1407  1.7701
  508MOL0     H67056   5.329   9.927   3.395  0.1535 -0.2085  1.1831
  509MOL0     O67057   2.683   0.080   7.849 -1.0331  0.1125  0.1488
  509MOL0     C67058   2.724  -0.030   7.875 -0.5764  1.1207 -0.3236
  509MOL0     O67059   2.695  -0.154   7.801 -0.2156 -0.6679 -0.9381
  509MOL0     C67060   2.621  -0.154   7.685  0.3011 -0.2309 -0.2156
  509MOL0     C67061   2.644  -0.070   7.576  0.4280  0.6278 -1.2521
  509MOL0     C67062   2.548  -0.086   7.470  0.0429  0.2006 -0.6328
  509MOL0     C67063   2.446  -0.177   7.464  0.1298 -0.7953  0.1215
  509MOL0     O67064   2.361  -0.157   7.366  1.2823 -0.4225  0.1724
  509MOL0     C67065   2.251  -0.249   7.363  0.3095  0.1515 -0.0944
  509MOL0     C67066   2.168  -0.193   7.254  0.5399 -0.1593  0.2504
  509MOL0     C67067   2.029  -0.230   7.236  0.3865  0.6968 -0.4181
  509MOL0     C67068   2.019  -0.381   7.224 -0.5830 -0.6657  0.3029
  509MOL0     C67069   1.878  -0.437   7.214 -0.8121  0.0257 -0.6078
  509MOL0     C67070   1.809  -0.399   7.085  0.4198 -0.1169 -0.1169
  509MOL0     C67071   1.661  -0.449   7.074  0.0616  0.4890 -0.3557
  509MOL0     C67072   1.571  -0.403   7.188 -0.0541 -0.0514  0.3733
  509MOL0     N67073   1.433  -0.400   7.140  0.1285 -0.2343  0.0460
  509MOL0     C67074   1.370  -0.299   7.073  0.8578 -1.0073 -0.1477
  509MOL0     C67075   1.244  -0.344   7.059  0.0538  0.9528  0.7213
  509MOL0     C67076   1.125  -0.262   7.030  0.3542 -0.9339  0.0803
  509MOL0     C67077   1.041  -0.229   7.153 -1.1189 -0.2028 -0.5680
  509MOL0     C67078   1.119  -0.161   7.273 -0.1990 -0.4091  0.6327
  509MOL0     C67079   1.025  -0.104   7.381 -0.2238  0.2674 -1.0728
  509MOL0     O67080   1.077   0.020   7.438  0.2477 -0.2556 -0.2949
  509MOL0     C67081   1.195   0.018   7.501 -0.0027  0.5140 -0.6967
  509MOL0     C67082   1.248  -0.107   7.546 -0.5532  0.9910 -0.5066
  509MOL0     C67083   1.367  -0.118   7.617  0.4938 -0.2727  0.2562
  509MOL0     C67084   1.439  -0.002   7.648 -0.6713  1.6195 -0.3046
  509MOL0     C67085   1.568  -0.003   7.719  0.3597  0.0374 -0.3022
  509MOL0     O67086   1.637  -0.116   7.736  0.7053  0.1069  0.4200
  509MOL0     C67087   1.766  -0.103   7.787  0.2714 -0.1966  0.4858
  509MOL0     C67088   1.786  -0.084   7.923 -0.2516 -0.5468 -0.6849
  509MOL0     C67089   1.914  -0.098   7.986  0.0787 -0.8411 -0.1146
  509MOL0     C67090   2.029  -0.093   7.905  0.6836 -0.2814  0.4392
  509MOL0     O67091   2.158  -0.084   7.955  0.9720 -0.5269 -0.5920
  509MOL0     C67092   2.169  -0.138   8.089  0.0018 -0.5145 -0.1200
  509MOL0     C67093   2.307  -0.195   8.124  0.1431 -0.2276 -0.2902
  509MOL0     C67094   2.420  -0.080   8.156 -0.5719  0.2254 -0.3251
  509MOL0     C67095   2.422  -0.031   8.300  0.0705  0.4993  0.1085
  509MOL0     C67096   2.545   0.037   8.343 -0.1834 -0.0728 -0.2281
  509MOL0     C67097   2.550   0.070   8.495 -0.1801 -0.7190 -0.6662
  509MOL0     C67098   2.529  -0.054   8.583  0.2459  1.0404 -0.5867
  509MOL0     C67099   2.532  -0.022   8.734  0.0443  0.6165  1.5820
  509MOL0    Cl67100   2.692   0.020   8.791 -0.1469  0.0446  0.2354
  509MOL0     C67101   2.013  -0.109   7.768 -0.3156  0.2140  0.2206
  509MOL0     C67102   1.883  -0.115   7.709 -0.0254  0.7044  0.0938
  509MOL0     O67103   1.607   0.103   7.755  0.3115  0.0016  0.3828
  509MOL0     C67104   1.392   0.120   7.591  1.0027 -0.8833 -0.3946
  509MOL0     C67105   1.267   0.136   7.527 -0.6339  1.0730  0.2185
  509MOL0     N67106   1.243  -0.477   7.098  0.9640 -0.0399 -0.8238
  509MOL0     N67107   1.349  -0.502   7.160  0.7615 -0.4604 -0.1161
  509MOL0     C67108   2.436  -0.273   7.564  0.5050 -0.0850 -0.0922
  509MOL0     C67109   2.523  -0.255   7.674  0.4043  0.3142 -0.8271
  509MOL0     C67110   2.785  -0.045   8.012 -0.6061 -0.6722 -0.9713
  509MOL0     C67111   2.830   0.072   8.078  0.1158  0.0648  0.5896
  509MOL0     C67112   2.902   0.073   8.202  0.1366  0.4894  0.7279
  509MOL0     C67113   2.935  -0.064   8.244  0.5715 -0.6353 -0.6143
  509MOL0     O67114   2.981  -0.077   8.374  0.1596 -0.3726  0.4923
  509MOL0     C67115   2.881  -0.086   8.476 -0.1525  0.5392 -0.7527
  509MOL0     C67116   2.911  -0.194   8.578 -0.5458  0.1154  0.1159
  509MOL0     C67117   2.947  -0.329   8.512  0.0619 -0.2361 -0.0344
  509MOL0     C67118   2.969  -0.438   8.615 -1.0261  0.0719 -0.5628
  509MOL0     C67119   3.101  -0.429   8.688  0.9024 -0.2861  0.0561
  509MOL0     C67120   3.210  -0.428   8.732 -0.0537  0.3968 -0.7725
  509MOL0     C67121   2.905  -0.183   8.169  0.6628 -0.8083 -0.0440
  509MOL0     C67122   2.825  -0.171   8.053 -0.1846 -0.3475 -0.9476
  509MOL0     H67123   2.734  -0.010   7.580  1.7548 -1.2931  0.0807
  509MOL0     H67124   2.546  -0.007   7.396  4.3296  1.6287  0.4799
  509MOL0     H67125   2.200  -0.238   7.459  0.2545  0.3539 -0.1461
  509MOL0     H67126   2.271  -0.353   7.339  0.9009  0.3355 -0.4230
  509MOL0     H67127   2.228  -0.210   7.164 -0.0502  2.5900 -0.7616
  509MOL0     H67128   2.163  -0.086   7.273 -0.3047 -0.0193 -0.6854
  509MOL0     H67129   1.990  -0.177   7.149 -4.1198  1.8069  1.9967
  509MOL0     H67130   1.980  -0.200   7.329  1.7169  2.6340 -0.2743
  509MOL0     H67131   2.076  -0.418   7.139  0.0171  0.7160  0.0650
  509MOL0     H67132   2.071  -0.429   7.308  0.4643 -1.5146 -0.8005
  509MOL0     H67133   1.821  -0.407   7.303 -2.0874  1.1199 -1.7400
  509MOL0     H67134   1.894  -0.545   7.225  3.3770  0.6072  0.6718
  509MOL0     H67135   1.875  -0.449   7.013  2.9713  0.3370  1.7514
  509MOL0     H67136   1.813  -0.291   7.069 -1.0239 -0.1180 -0.5938
  509MOL0     H67137   1.608  -0.418   6.984 -0.2006 -0.2875 -0.4763
  509MOL0     H67138   1.668  -0.557   7.061  0.3473  0.6917 -2.0168
  509MOL0     H67139   1.615  -0.307   7.216  1.2218  0.8805 -4.0212
  509MOL0     H67140   1.579  -0.458   7.282 -3.1178 -2.6686 -0.7056
  509MOL0     H67141   1.401  -0.199   7.044 -1.1756 -0.3509 -0.2385
  509MOL0     H67142   1.055  -0.315   6.965  0.1593 -1.4292  0.6791
  509MOL0     H67143   1.164  -0.167   6.993 -2.0717  0.0669 -0.0887
  509MOL0     H67144   0.989  -0.321   7.181 -1.1718 -0.6681 -2.0672
  509MOL0     H67145   0.965  -0.155   7.126  1.0963  2.9811  1.1828
  509MOL0     H67146   1.183  -0.236   7.322 -2.0451 -1.6279  1.3098
  509MOL0     H67147   1.175  -0.076   7.236  1.1336 -1.1497  0.8943
  509MOL0     H67148   0.999  -0.178   7.457  0.4952 -1.9572 -2.8990
  509MOL0     H67149   0.929  -0.084   7.333 -1.6531  0.4553  1.6401
  509MOL0     H67150   1.192  -0.200   7.538 -3.0201  2.3324  0.0394
  509MOL0     H67151   1.408  -0.216   7.640 -0.9612 -0.1746  4.0058
  509MOL0     H67152   1.709  -0.061   7.996  0.8893  3.1868 -0.4847
  509MOL0     H67153   1.918  -0.097   8.094  0.8672  1.7016 -0.1084
  509MOL0     H67154   2.102  -0.224   8.097  4.2040 -4.1406  0.0397
  509MOL0     H67155   2.140  -0.057   8.156 -1.3458 -0.7254 -0.4342
  509MOL0     H67156   2.344  -0.260   8.044  0.0666 -1.4186  0.6218
  509MOL0     H67157   2.311  -0.252   8.217  3.3686 -1.2163 -0.8931
  509MOL0     H67158   2.404   0.015   8.103  3.7746  1.4310  0.1959
  509MOL0     H67159   2.521  -0.109   8.127 -0.4222  1.4176 -1.0597
  509MOL0     H67160   2.335   0.033   8.318 -2.0277 -0.9557 -3.7475
  509MOL0     H67161   2.413  -0.120   8.363  1.7958  0.9647  1.1086
  509MOL0     H67162   2.556   0.129   8.285  0.0857  0.3078  0.4214
  509MOL0     H67163   2.625  -0.031   8.315 -0.9918 -1.3254  0.3948
  509MOL0     H67164   2.477   0.147   8.521  0.2524  0.0037 -1.5353
  509MOL0     H67165   2.650   0.105   8.519 -1.0084  1.7502 -0.5186
  509MOL0     H67166   2.431  -0.092   8.554 -0.2163  2.4160 -0.9303
  509MOL0     H67167   2.600  -0.135   8.564  0.3701  0.6991  1.1754
  509MOL0     H67168   2.511  -0.120   8.779  0.2466 -0.2890 -0.1849
  509MOL0     H67169   2.456   0.049   8.767 -1.7957 -0.1843 -0.6420
  509MOL0     H67170   2.101  -0.104   7.706 -1.2994 -1.0561 -1.3757
  509MOL0     H67171   1.875  -0.142   7.604 -0.3108  2.2267 -0.3088
  509MOL0     H67172   1.446   0.212   7.608 -0.9980  0.2747  0.0659
  509MOL0     H67173   1.236   0.234   7.493 -2.3363  1.6636  3.1110
  509MOL0     H67174   2.360  -0.351   7.560  0.1764  0.2946 -2.5629
  509MOL0     H67175   2.514  -0.324   7.757 -0.5765 -1.4628 -2.3452
  509MOL0     H67176   2.823   0.175   8.043  1.5032 -0.1117 -0.3088
  509MOL0     H67177   2.935   0.156   8.264  1.2966 -0.7457  1.8450
  509MOL0     H67178   2.788  -0.112   8.425 -1.4052  3.0963  0.0813
  509MOL0     H67179   2.858   0.012   8.519 -0.8514  0.0787 -0.0598
  509MOL0     H67180   2.995  -0.155   8.635 -0.4786 -0.0539  0.1338
  509MOL0     H67181   2.826  -0.203   8.648  0.3544 -1.2340  1.0850
  509MOL0     H67182   3.038  -0.316   8.453  0.3295 -1.3227  0.1135
  509MOL0     H67183   2.870  -0.370   8.446 -1.0664 -2.3751  2.4009
  509MOL0     H67184   2.893  -0.425   8.693  1.2291  3.4643  1.3604
  509MOL0     H67185   2.949  -0.539   8.578 -0.8989 -0.0083 -0.4115
  509MOL0     H67186   3.310  -0.447   8.765 -0.6150 -0.5227  0.5247
  509MOL0     H67187   2.947  -0.282   8.187 -2.0449 -2.2018 -0.7725
  509MOL0     H67188   2.824  -0.254   7.983 -0.1971 -0.3422 -0.9536
  510MOL0     O67189   9.560   3.346   9.698  0.8779 -0.1400 -0.1888
  510MOL0     C67190   9.530   3.348   9.817  0.0554 -0.4136  0.5799
  510MOL0     O67191   9.402   3.336   9.869  0.1193 -0.5109  0.3537
  510MOL0     C67192   9.292   3.325   9.785 -0.4428  0.5941 -0.7686
  510MOL0     C67193   9.185   3.405   9.812  0.4995 -0.3954 -0.0822
  510MOL0     C67194   9.068   3.389   9.754 -0.2664  0.0034 -0.1232
  510MOL0     C67195   9.047   3.293   9.659  0.0700 -0.3298  0.5617
  510MOL0     O67196   8.927   3.282   9.589 -0.7706  0.5103 -0.0263
  510MOL0     C67197   8.809   3.323   9.660 -0.1175 -0.5628 -0.4315
  510MOL0     C67198   8.690   3.315   9.558 -0.4401  0.9632  0.7077
  510MOL0     C67199   8.608   3.192   9.577 -0.4857 -0.3716  1.2286
  510MOL0     C67200   8.501   3.181   9.462  0.1897  0.3048  0.2959
  510MOL0     C67201   8.422   3.060   9.469  0.1171  0.0748 -0.5027
  510MOL0     C67202   8.315   3.037   9.356 -0.4306 -0.4155 -0.8407
  510MOL0     C67203   8.243   2.899   9.368  0.1600  0.2610 -0.3526
  510MOL0     C67204   8.115   2.879   9.291 -0.2740 -0.5461  0.2789
  510MOL0     N67205   8.031   2.783   9.362 -0.0189 -0.1020 -0.2381
  510MOL0     C67206   7.892   2.786   9.357  0.1422 -0.3940  0.1664
  510MOL0     C67207   7.856   2.677   9.426  0.3325 -0.0365 -0.2718
  510MOL0     C67208   7.719   2.602   9.418  0.9223 -0.4880 -0.0404
  510MOL0     C67209   7.582   2.679   9.458 -0.4037 -0.5412  0.1288
  510MOL0     C67210   7.473   2.571   9.467  0.4711 -0.5998  0.0813
  510MOL0     C67211   7.328   2.623   9.468 -0.5564 -1.1012  0.5716
  510MOL0     O67212   7.274   2.670   9.348  0.6702 -0.5256  0.4098
  510MOL0     C67213   7.154   2.720   9.351  0.3089  0.3199 -0.4805
  510MOL0     C67214   7.040   2.650   9.409 -1.0843  0.5478 -0.1036
  510MOL0     C67215   6.910   2.699   9.391  0.2492 -1.1684 -0.4968
  510MOL0     C67216   6.886   2.810   9.312  0.1768 -0.4553  0.9143
  510MOL0     C67217   6.750   2.861   9.304 -0.0197  1.0991  0.2196
  510MOL0     O67218   6.705   2.892   9.175  0.2950 -0.3092 -0.1956
  510MOL0     C67219   6.579   2.949   9.165  0.9674 -0.6055  0.1682
  510MOL0     C67220   6.501   2.871   9.076 -1.2635 -0.6966 -0.9168
  510MOL0     C67221   6.372   2.910   9.047 -0.8948 -0.4714 -0.0317
  510MOL0     C67222   6.330   3.041   9.079 -0.0324  0.0001  0.5770
  510MOL0     O67223   6.205   3.085   9.043  0.0633  0.4908  0.7410
  510MOL0     C67224   6.110   3.064   9.147 -0.5963 -0.3430 -0.5883
  510MOL0     C67225   5.970   3.034   9.078  0.8490 -0.3980  0.2128
  510MOL0     C67226   5.866   2.969   9.168 -0.4726  0.4903 -0.3495
  510MOL0     C67227   5.737   2.958   9.098 -0.3723  0.6841 -0.0775
  510MOL0     C67228   5.629   2.930   9.200 -0.3476  0.4438 -0.8451
  510MOL0     C67229   5.493   2.962   9.161  0.6825  0.0777 -1.0539
  510MOL0     C67230   5.388   2.919   9.270 -0.8004  0.0992  0.1106
  510MOL0     C67231   5.247   2.895   9.211 -0.2772  1.0404  0.4852
  510MOL0    Cl67232   5.140   2.805   9.323  0.4925  0.4878 -0.3215
  510MOL0     C67233   6.425   3.125   9.154  1.8405 -0.0504 -0.1221
  510MOL0     C67234   6.547   3.076   9.190  0.2343  1.2026  0.3284
  510MOL0     O67235   6.684   2.870   9.407  0.0508  0.6909  0.2779
  510MOL0     C67236   6.993   2.876   9.258  0.5351 -0.8810  0.4161
  510MOL0     C67237   7.127   2.841   9.286 -1.3009 -0.2147  0.1034
  510MOL0     N67238   7.964   2.620   9.495  0.1601 -0.4772  0.1197
  510MOL0     N67239   8.068   2.674   9.439  0.1159 -0.0369  0.3665
  510MOL0     C67240   9.150   3.206   9.625  0.0553 -0.2953 -0.7494
  510MOL0     C67241   9.280   3.230   9.691 -0.6269 -0.8785 -0.1124
  510MOL0     C67242   9.638   3.350   9.918  0.0881 -0.1926 -0.8574
  510MOL0     C67243   9.618   3.317  10.053  0.3112 -0.4552 -0.7513
  510MOL0     C67244   9.709   3.334  10.154 -0.1419 -0.5116  0.5516
  510MOL0     C67245   9.836   3.376  10.117 -0.9916 -0.9704 -0.0430
  510MOL0     O67246   9.938   3.388  10.208  0.0698  0.1977  0.6723
  510MOL0     C67247   9.946   3.270  10.296  0.1871  0.0287 -0.1501
  510MOL0     C67248  10.094   3.226  10.312 -0.1192  0.7741 -0.1591
  510MOL0     C67249  10.148   3.155  10.192  0.8387  0.5853  0.9318
  510MOL0     C67250  10.289   3.095  10.217 -0.5104  0.0713 -0.1550
  510MOL0     C67251  10.396   3.196  10.233  0.0281  0.5932 -0.0314
  510MOL0     C67252  10.479   3.284  10.254 -0.1474 -0.1846 -0.2810
  510MOL0     C67253   9.866   3.414   9.988 -0.4328 -0.7020 -0.8931
  510MOL0     C67254   9.764   3.409   9.888  0.2142  0.2331  0.7466
  510MOL0     H67255   9.193   3.480   9.890 -1.7224  1.5175 -1.5820
  510MOL0     H67256   8.994   3.461   9.789  1.5084  1.8936 -0.0992
  510MOL0     H67257   8.818   3.427   9.695 -1.6776 -0.8925  1.0471
  510MOL0     H67258   8.791   3.259   9.746  0.7353 -0.9547 -0.5297
  510MOL0     H67259   8.725   3.333   9.456  4.3586  0.4037  1.9899
  510MOL0     H67260   8.636   3.408   9.578  0.6556  2.5808 -3.0246
  510MOL0     H67261   8.556   3.192   9.673 -1.1480 -1.8756  0.9095
  510MOL0     H67262   8.671   3.102   9.573  1.8729  1.2257 -2.1362
  510MOL0     H67263   8.435   3.265   9.487  1.8622  1.5619  0.6807
  510MOL0     H67264   8.540   3.212   9.364  4.8017  1.5585  2.2893
  510MOL0     H67265   8.365   3.062   9.562 -0.0828  0.6218 -0.6360
  510MOL0     H67266   8.486   2.972   9.470  1.7354  1.2211 -0.0573
  510MOL0     H67267   8.384   3.039   9.271  3.0440 -0.3642  1.7568
  510MOL0     H67268   8.247   3.122   9.345 -0.5516 -0.3318  0.3811
  510MOL0     H67269   8.306   2.813   9.345 -0.6731 -0.4009 -0.1895
  510MOL0     H67270   8.220   2.889   9.475  0.8797  1.6386 -0.0412
  510MOL0     H67271   8.143   2.835   9.195  0.8648  0.0367  0.3267
  510MOL0     H67272   8.060   2.972   9.276  1.0619 -0.0260 -1.7980
  510MOL0     H67273   7.831   2.846   9.290  2.3081  0.7633 -0.8457
  510MOL0     H67274   7.726   2.511   9.479 -0.6597 -2.1199 -2.1306
  510MOL0     H67275   7.700   2.562   9.318 -0.8029 -0.7378  0.3531
  510MOL0     H67276   7.555   2.750   9.380 -1.7199 -0.4881  0.5994
  510MOL0     H67277   7.600   2.744   9.544  1.1226  2.0746 -2.0262
  510MOL0     H67278   7.493   2.495   9.391  2.8428 -1.7728  1.7350
  510MOL0     H67279   7.478   2.521   9.564 -2.8943  1.3642  1.4322
  510MOL0     H67280   7.327   2.707   9.539  2.2856 -1.3743  1.0320
  510MOL0     H67281   7.274   2.536   9.508 -1.7238 -1.4738 -1.6563
  510MOL0     H67282   7.049   2.558   9.467 -0.8063  0.8008  0.2628
  510MOL0     H67283   6.829   2.657   9.450  0.2023  0.7020  0.8228
  510MOL0     H67284   6.541   2.778   9.037 -0.3927 -1.2955  1.2485
  510MOL0     H67285   6.308   2.844   8.989 -0.6155  1.4683 -2.6772
  510MOL0     H67286   6.102   3.157   9.203  2.2915 -0.5307  0.2558
  510MOL0     H67287   6.128   2.981   9.216  3.0787 -0.1456 -1.1017
  510MOL0     H67288   5.987   2.958   9.000  0.7309  1.1502 -1.3920
  510MOL0     H67289   5.937   3.129   9.035  0.7348  0.1614  1.5175
  510MOL0     H67290   5.852   3.033   9.256  2.4360 -1.0744  1.4181
  510MOL0     H67291   5.904   2.875   9.209 -0.3830  0.9968  0.7804
  510MOL0     H67292   5.718   3.058   9.057 -0.4042  1.6230  2.0771
  510MOL0     H67293   5.729   2.883   9.019 -0.9991 -0.4123  1.0082
  510MOL0     H67294   5.645   2.981   9.295 -3.0372 -2.3526  1.2925
  510MOL0     H67295   5.646   2.824   9.221  0.9869  0.7740 -0.1704
  510MOL0     H67296   5.470   2.902   9.073 -0.5365  0.8866 -1.3128
  510MOL0     H67297   5.473   3.069   9.147 -2.9425  0.0656  2.1216
  510MOL0     H67298   5.426   2.823   9.307  1.1023  0.8848  0.2969
  510MOL0     H67299   5.381   2.985   9.356 -2.0142 -0.4220  0.4403
  510MOL0     H67300   5.256   2.829   9.124 -1.4916  1.7496 -0.2049
  510MOL0     H67301   5.197   2.990   9.189 -0.3595  1.1424  1.0917
  510MOL0     H67302   6.388   3.222   9.185  3.0411  0.2430  0.4468
  510MOL0     H67303   6.625   3.133   9.241 -0.4923  2.2412  0.3093
  510MOL0     H67304   6.972   2.968   9.206  0.4233 -1.7275 -1.0907
  510MOL0     H67305   7.212   2.898   9.251 -0.1598 -1.3149  0.9839
  510MOL0     H67306   9.126   3.125   9.557 -0.6295 -1.9097  1.3124
  510MOL0     H67307   9.357   3.159   9.661 -0.3740 -0.9258  0.6357
  510MOL0     H67308   9.516   3.292  10.082 -0.5290 -0.0131 -3.1005
  510MOL0     H67309   9.683   3.302  10.254 -1.4690  2.5780  1.3220
  510MOL0     H67310   9.893   3.182  10.257 -0.4414  1.1910 -2.0576
  510MOL0     H67311   9.902   3.302  10.391  1.2319  1.6465 -0.1762
  510MOL0     H67312  10.161   3.310  10.332  1.9996 -0.5804 -1.1551
  510MOL0     H67313  10.095   3.155  10.395  2.9329  1.3383  0.3820
  510MOL0     H67314  10.146   3.222  10.106  2.8932 -0.7746 -0.2437
  510MOL0     H67315  10.090   3.068  10.158  4.1296 -1.7572  0.9038
  510MOL0     H67316  10.286   3.023  10.299 -0.9309  1.2176  0.8559
  510MOL0     H67317  10.315   3.044  10.124  0.6400 -2.0629  1.2378
  510MOL0     H67318  10.560   3.354  10.262  0.1662 -0.5294 -0.4350
  510MOL0     H67319   9.966   3.442   9.957 -0.3137 -1.2706 -1.0329
  510MOL0     H67320   9.792   3.434   9.786  0.3115 -1.3206  0.3803
  511MOL0     O67321   5.583   7.865   4.691  0.8379  0.3740 -0.0361
  511MOL0     C67322   5.607   7.989   4.713  0.1806 -0.5795 -0.1828
  511MOL0     O67323   5.518   8.080   4.752  0.7135  0.3114 -0.6496
  511MOL0     C67324   5.383   8.055   4.751  0.6289 -0.6980 -0.6068
  511MOL0     C67325   5.316   7.995   4.856 -0.7952  0.2363  0.0181
  511MOL0     C67326   5.182   7.980   4.848  0.6160 -0.5630 -0.6039
  511MOL0     C67327   5.109   8.040   4.740 -0.1603  0.2784  0.1212
  511MOL0     O67328   4.969   8.032   4.743  0.3173  0.6728 -0.4161
  511MOL0     C67329   4.896   8.129   4.674 -0.7093  0.8872 -0.3825
  511MOL0     C67330   4.771   8.146   4.755 -0.0041  0.4352  0.5469
  511MOL0     C67331   4.679   8.241   4.680 -0.2388  0.3927 -0.0022
  511MOL0     C67332   4.554   8.277   4.754  0.6670 -0.0277 -0.1290
  511MOL0     C67333   4.587   8.372   4.870  0.3051  1.2243 -0.4744
  511MOL0     C67334   4.473   8.418   4.959 -0.1397 -0.0358  0.3453
  511MOL0     C67335   4.371   8.497   4.874  0.9726 -0.1764 -1.2375
  511MOL0     C67336   4.258   8.562   4.958 -0.9728  0.9577  0.6503
  511MOL0     N67337   4.161   8.464   5.016  0.9557 -1.8340  1.6320
  511MOL0     C67338   4.088   8.371   4.945  0.6456 -0.2217 -0.1654
  511MOL0     C67339   4.039   8.284   5.033  0.3159  0.4385 -0.7202
  511MOL0     C67340   3.969   8.146   5.008  0.1846 -1.5456 -0.1081
  511MOL0     C67341   3.833   8.119   5.074  0.0383  0.4675  0.0795
  511MOL0     C67342   3.724   8.222   5.044 -0.3888  0.3911 -0.0452
  511MOL0     C67343   3.606   8.153   4.968  0.1652  0.7666 -0.2777
  511MOL0     O67344   3.507   8.252   4.934 -0.2621  0.0404 -0.3306
  511MOL0     C67345   3.401   8.223   4.847 -0.0981 -0.4831 -0.1058
  511MOL0     C67346   3.317   8.333   4.818  0.2167  0.7250 -0.5954
  511MOL0     C67347   3.212   8.314   4.731  0.2483  0.1293 -0.5700
  511MOL0     C67348   3.175   8.187   4.691  0.3928 -0.0519 -0.2732
  511MOL0     C67349   3.058   8.163   4.602  0.5761 -0.3355 -0.5953
  511MOL0     O67350   2.973   8.269   4.578  0.3587  0.1666  0.7608
  511MOL0     C67351   2.862   8.242   4.504  0.3385  0.7005  0.1031
  511MOL0     C67352   2.737   8.264   4.559 -0.4317  0.4752  0.9385
  511MOL0     C67353   2.622   8.224   4.487 -0.6497  0.3929  0.1308
  511MOL0     C67354   2.635   8.180   4.352  0.3083 -0.0473 -0.1782
  511MOL0     O67355   2.511   8.136   4.291 -0.4203 -0.0711  1.2052
  511MOL0     C67356   2.500   8.044   4.184 -0.1952 -0.1819  0.1252
  511MOL0     C67357   2.360   8.081   4.134  0.2928 -0.4174  0.7876
  511MOL0     C67358   2.338   8.233   4.097 -0.6211 -0.3082 -0.5891
  511MOL0     C67359   2.192   8.269   4.075  0.1147  0.2882  0.0042
  511MOL0     C67360   2.175   8.425   4.083 -0.0406  0.6133 -0.2078
  511MOL0     C67361   2.182   8.486   4.228 -0.4233  0.1464 -0.1503
  511MOL0     C67362   2.163   8.630   4.226  0.8097 -0.2917  0.4564
  511MOL0     C67363   2.131   8.676   4.363  0.1257  0.3298 -0.2469
  511MOL0    Cl67364   2.267   8.676   4.477 -0.1687  0.3106  0.0395
  511MOL0     C67365   2.768   8.175   4.299 -0.0676 -0.6345  0.0716
  511MOL0     C67366   2.880   8.209   4.374  0.5537  0.2078  0.4001
  511MOL0     O67367   3.051   8.048   4.553 -0.1354 -0.5838  0.4665
  511MOL0     C67368   3.260   8.080   4.726 -1.0828 -0.3841 -1.1825
  511MOL0     C67369   3.383   8.100   4.792  0.3342 -0.5746 -0.3353
  511MOL0     N67370   4.075   8.329   5.159  0.1167  0.4471 -0.6141
  511MOL0     N67371   4.147   8.435   5.147 -0.5478 -0.0490  0.2184
  511MOL0     C67372   5.176   8.109   4.642 -0.2593 -0.7472  1.4412
  511MOL0     C67373   5.310   8.102   4.642 -0.2007 -0.4447  0.6467
  511MOL0     C67374   5.747   8.030   4.725 -0.0444  0.7947  0.0423
  511MOL0     C67375   5.773   8.141   4.812  0.3439 -1.2459 -0.1285
  511MOL0     C67376   5.909   8.173   4.843  0.4537 -0.3529  0.2342
  511MOL0     C67377   6.015   8.094   4.800 -0.1303  0.1942 -0.0602
  511MOL0     O67378   6.140   8.093   4.855 -0.7476 -0.5049  0.7830
  511MOL0     C67379   6.178   8.208   4.926 -0.6301 -0.0685 -0.3813
  511MOL0     C67380   6.332   8.200   4.948  0.8620  0.3210 -0.4621
  511MOL0     C67381   6.417   8.259   4.829  1.2471 -0.3513 -0.0239
  511MOL0     C67382   6.567   8.230   4.838  0.5541 -0.1749 -0.2209
  511MOL0     C67383   6.627   8.300   4.950  0.1469 -0.1865  0.5686
  511MOL0     C67384   6.672   8.357   5.041 -0.2040 -0.1911  0.2781
  511MOL0     C67385   5.990   7.997   4.710 -0.7994 -0.1482  0.1608
  511MOL0     C67386   5.858   7.961   4.672 -0.2134  0.1262  0.7945
  511MOL0     H67387   5.370   7.957   4.942 -1.9929  1.5431  1.3925
  511MOL0     H67388   5.139   7.920   4.928  1.2980 -1.6602 -1.0361
  511MOL0     H67389   4.860   8.094   4.577 -1.1530 -0.3908  0.2267
  511MOL0     H67390   4.948   8.225   4.663  0.4448  0.0435 -3.0337
  511MOL0     H67391   4.797   8.173   4.858 -2.7515 -0.3923  1.5432
  511MOL0     H67392   4.709   8.056   4.755  0.1275  0.3291 -0.6071
  511MOL0     H67393   4.656   8.194   4.584  1.8575 -1.8181  0.4556
  511MOL0     H67394   4.722   8.339   4.658 -1.3289  0.6994 -0.7868
  511MOL0     H67395   4.487   8.327   4.683  0.3133 -3.7213 -2.7154
  511MOL0     H67396   4.498   8.190   4.790 -1.6578 -0.0321 -3.3014
  511MOL0     H67397   4.654   8.453   4.841  4.0168 -1.1485  0.7808
  511MOL0     H67398   4.647   8.324   4.948 -0.2812 -1.5352 -1.6128
  511MOL0     H67399   4.511   8.479   5.042  0.7335 -0.5670  0.3475
  511MOL0     H67400   4.430   8.326   5.001 -0.6414 -1.8873 -3.7131
  511MOL0     H67401   4.427   8.583   4.837 -0.6326  1.1583 -0.6729
  511MOL0     H67402   4.319   8.438   4.798  1.5405 -0.0264 -1.7458
  511MOL0     H67403   4.200   8.635   4.901 -1.1268  0.4523  0.1593
  511MOL0     H67404   4.296   8.615   5.046  0.6205 -0.6970  1.0164
  511MOL0     H67405   4.074   8.352   4.839  0.6091 -0.5575 -0.1030
  511MOL0     H67406   4.037   8.065   5.035 -0.6314 -1.5353  2.2096
  511MOL0     H67407   3.959   8.139   4.899  3.1961 -1.6439 -0.4411
  511MOL0     H67408   3.840   8.118   5.183 -0.6757  0.9305  0.1398
  511MOL0     H67409   3.798   8.018   5.050 -2.1618  1.3887 -0.8121
  511MOL0     H67410   3.677   8.266   5.133  0.2409  0.1245  0.4305
  511MOL0     H67411   3.762   8.309   4.989 -2.3271  0.4058 -1.4770
  511MOL0     H67412   3.563   8.083   5.041  0.7402  1.4991  0.7921
  511MOL0     H67413   3.643   8.096   4.882  1.5016  2.2742 -0.7385
  511MOL0     H67414   3.336   8.433   4.855  1.0377  0.3817 -0.0603
  511MOL0     H67415   3.157   8.402   4.701  1.2220  0.7509 -0.5570
  511MOL0     H67416   2.723   8.300   4.660  2.7605  3.6697  0.4326
  511MOL0     H67417   2.525   8.236   4.533 -1.5498 -1.7889 -1.0931
  511MOL0     H67418   2.520   7.941   4.216 -0.6838 -0.6280 -0.9372
  511MOL0     H67419   2.577   8.059   4.108  2.4468  0.9494  2.8314
  511MOL0     H67420   2.287   8.066   4.215 -0.1704  1.2975  0.7226
  511MOL0     H67421   2.334   8.020   4.047  1.4130 -0.1604  0.2576
  511MOL0     H67422   2.397   8.249   4.006  0.4551  0.5035  0.2122
  511MOL0     H67423   2.378   8.301   4.173  0.0308 -3.5322  2.2286
  511MOL0     H67424   2.165   8.227   3.977 -2.2576  1.0119  0.2920
  511MOL0     H67425   2.133   8.217   4.150  2.4534 -0.5633  1.3341
  511MOL0     H67426   2.074   8.451   4.050 -3.3223 -3.4243  5.0148
  511MOL0     H67427   2.256   8.461   4.019  1.0031 -1.0783  0.0860
  511MOL0     H67428   2.279   8.465   4.275 -1.2318 -0.5791  1.2170
  511MOL0     H67429   2.102   8.444   4.288 -0.0397  0.7677  0.8216
  511MOL0     H67430   2.258   8.672   4.189  0.5936  0.6986  0.9932
  511MOL0     H67431   2.089   8.670   4.156 -0.6073  0.0255  2.0757
  511MOL0     H67432   2.049   8.613   4.398 -0.9128  0.7759 -1.8206
  511MOL0     H67433   2.096   8.779   4.366  0.6187  0.6058 -2.4666
  511MOL0     H67434   2.779   8.123   4.205  0.7167 -5.2228  2.4328
  511MOL0     H67435   2.975   8.210   4.322  0.2512  0.2753 -0.1637
  511MOL0     H67436   3.230   7.980   4.698 -1.2531 -0.3319 -1.1901
  511MOL0     H67437   3.454   8.019   4.801  4.7514  2.9490  0.2889
  511MOL0     H67438   5.124   8.179   4.577  0.3689  0.9502  2.6885
  511MOL0     H67439   5.370   8.155   4.569  1.5539 -0.1332  2.2485
  511MOL0     H67440   5.700   8.202   4.866  0.9180 -0.0292 -0.6744
  511MOL0     H67441   5.934   8.256   4.907  2.0823 -0.8104  0.2294
  511MOL0     H67442   6.120   8.212   5.019 -1.4135  1.3409 -0.8943
  511MOL0     H67443   6.163   8.300   4.869  0.5439  2.5308  3.0824
  511MOL0     H67444   6.331   8.267   5.035 -2.9765 -0.2905  0.1613
  511MOL0     H67445   6.357   8.096   4.972 -0.3216 -0.1133 -1.0545
  511MOL0     H67446   6.400   8.367   4.824  0.6746 -0.5019 -3.1298
  511MOL0     H67447   6.391   8.206   4.737  2.2103 -0.9382  0.0273
  511MOL0     H67448   6.585   8.123   4.852  2.5079  0.2860  1.2574
  511MOL0     H67449   6.604   8.273   4.744 -0.3103 -0.8318 -0.8745
  511MOL0     H67450   6.728   8.387   5.127 -3.0364  1.4061  1.7348
  511MOL0     H67451   6.070   7.930   4.679 -0.6838 -1.3847  2.8408
  511MOL0     H67452   5.839   7.876   4.608  1.2245  1.0067 -0.8888
  512MOL0     O67453   7.356  10.463   6.781 -0.4710  0.2315  0.5317
  512MOL0     C67454   7.383  10.342   6.791 -0.5460  0.2012  0.1184
  512MOL0     O67455   7.345  10.254   6.892  0.5866  0.5116 -0.1458
  512MOL0     C67456   7.236  10.285   6.957  0.5969 -0.6108 -0.2159
  512MOL0     C67457   7.117  10.300   6.888  0.3929 -0.4214 -0.5134
  512MOL0     C67458   6.999  10.334   6.959 -0.6130 -0.7573 -0.3230
  512MOL0     C67459   7.000  10.346   7.093  0.4815  1.2110  0.0871
  512MOL0     O67460   6.877  10.366   7.145  0.1691  0.3598  0.4690
  512MOL0     C67461   6.875  10.394   7.285 -0.5747 -0.0355 -0.0351
  512MOL0     C67462   6.730  10.436   7.319  0.7855 -0.4562 -0.5129
  512MOL0     C67463   6.626  10.322   7.321  0.5782 -0.8792  0.3191
  512MOL0     C67464   6.488  10.384   7.345  0.0956  0.6072  0.1086
  512MOL0     C67465   6.371  10.286   7.328 -0.2601 -0.2640 -0.1819
  512MOL0     C67466   6.237  10.360   7.303 -0.4220 -1.3302  0.0822
  512MOL0     C67467   6.129  10.260   7.261 -0.8708 -0.2428  0.5224
  512MOL0     C67468   5.982  10.318   7.258 -0.8141  0.8949  0.0275
  512MOL0     N67469   5.966  10.454   7.209  0.0436 -0.6180 -0.4795
  512MOL0     C67470   5.902  10.551   7.280 -0.5024  0.3588 -0.8757
  512MOL0     C67471   5.887  10.643   7.194  0.4531 -0.9623 -0.4368
  512MOL0     C67472   5.836  10.791   7.217 -0.4575 -0.4980 -0.1630
  512MOL0     C67473   5.695  10.793   7.265  0.2097 -0.4930  0.5495
  512MOL0     C67474   5.598  10.741   7.178 -0.0352  0.7654 -0.4389
  512MOL0     C67475   5.547  10.851   7.083 -1.1864 -0.3892 -0.5467
  512MOL0     O67476   5.438  10.800   7.004 -0.4035  0.5166  0.1631
  512MOL0     C67477   5.308  10.846   7.036  0.9559  0.4005 -0.4144
  512MOL0     C67478   5.206  10.827   6.944  0.5514  0.1292  1.0721
  512MOL0     C67479   5.076  10.874   6.954 -0.9321  0.7190 -0.1727
  512MOL0     C67480   5.039  10.935   7.078 -0.4502 -0.3475 -0.3357
  512MOL0     C67481   4.896  10.955   7.101 -0.6669  0.7956 -0.0132
  512MOL0     O67482   4.856  10.979   7.237 -0.0762 -0.7278 -0.1120
  512MOL0     C67483   4.726  11.002   7.274 -0.0277 -0.2505  0.9297
  512MOL0     C67484   4.661  10.922   7.368  0.1898  0.1265  1.3067
  512MOL0     C67485   4.521  10.937   7.395 -0.8382  0.1271 -0.0723
  512MOL0     C67486   4.442  11.033   7.332  0.4998 -0.6671  0.8083
  512MOL0     O67487   4.309  11.064   7.355 -0.2659  0.4207 -0.0570
  512MOL0     C67488   4.219  10.952   7.369  0.4091  0.0686  0.4166
  512MOL0     C67489   4.081  10.989   7.419  0.2467  0.7614 -0.0045
  512MOL0     C67490   4.013  10.870   7.480  1.1031 -0.2165  0.2868
  512MOL0     C67491   3.877  10.877   7.545 -0.4371  0.2672 -0.2321
  512MOL0     C67492   3.785  10.763   7.516  0.5624  0.2215 -0.7453
  512MOL0     C67493   3.639  10.786   7.562 -0.5833 -0.7524  0.5192
  512MOL0     C67494   3.539  10.699   7.494  0.3434 -0.1349 -0.6819
  512MOL0     C67495   3.394  10.731   7.541 -1.1960 -0.2951  0.5909
  512MOL0    Cl67496   3.377  10.665   7.719 -0.5125 -0.5757 -0.6087
  512MOL0     C67497   4.509  11.113   7.238  0.1820  0.0738 -0.1298
  512MOL0     C67498   4.642  11.095   7.211  0.1117 -0.1757  0.6013
  512MOL0     O67499   4.812  10.945   7.007 -0.2449 -0.4591 -0.2549
  512MOL0     C67500   5.137  10.951   7.179  0.0881  0.0847  0.1749
  512MOL0     C67501   5.266  10.906   7.160 -0.3487  0.8220 -0.2490
  512MOL0     N67502   5.932  10.608   7.072  0.1411  0.7576 -0.3136
  512MOL0     N67503   5.988  10.494   7.081  0.3402  0.6102  0.6458
  512MOL0     C67504   7.116  10.318   7.160 -0.8707  0.1546 -0.1953
  512MOL0     C67505   7.240  10.288   7.093 -0.4465  1.2744 -0.2678
  512MOL0     C67506   7.489  10.286   6.694  0.3362  0.8945  0.4708
  512MOL0     C67507   7.561  10.169   6.722 -0.1931  0.5470 -0.6476
  512MOL0     C67508   7.672  10.125   6.641 -0.0132 -0.2596 -0.2264
  512MOL0     C67509   7.697  10.198   6.523  0.3206  0.1727 -1.5329
  512MOL0     O67510   7.793  10.146   6.445  0.1288 -0.1496 -0.0991
  512MOL0     C67511   7.894  10.226   6.384  0.7033  0.2466 -0.0671
  512MOL0     C67512   8.003  10.141   6.321 -0.2679  0.5453 -0.3117
  512MOL0     C67513   8.010  10.157   6.172  0.4098 -0.5113 -0.7487
  512MOL0     C67514   7.901  10.059   6.121  0.6888  0.2670  0.5854
  512MOL0     C67515   7.942  10.044   5.985 -0.3656  0.3405  0.6125
  512MOL0     C67516   7.966  10.039   5.866  0.1678  0.4824 -0.0520
  512MOL0     C67517   7.622  10.308   6.487 -0.8523 -0.4542  0.2524
  512MOL0     C67518   7.515  10.350   6.569 -0.1446 -0.0421 -0.3849
  512MOL0     H67519   7.113  10.278   6.781 -2.6259  1.3898 -0.8841
  512MOL0     H67520   6.902  10.348   6.913  0.3146 -0.7235 -2.3773
  512MOL0     H67521   6.946  10.474   7.304 -0.1004  0.7882 -4.3165
  512MOL0     H67522   6.911  10.305   7.338  2.5124  0.8308 -0.4438
  512MOL0     H67523   6.689  10.516   7.257 -1.4492 -2.6733 -2.1079
  512MOL0     H67524   6.730  10.468   7.423  0.0971 -2.2899  0.0893
  512MOL0     H67525   6.646  10.239   7.390  0.3577 -1.8322 -0.7386
  512MOL0     H67526   6.626  10.288   7.217  2.8115  1.5105 -0.5477
  512MOL0     H67527   6.482  10.433   7.443 -0.2783  2.2198 -0.6753
  512MOL0     H67528   6.483  10.464   7.270  1.5282 -0.0737 -0.7375
  512MOL0     H67529   6.363  10.223   7.418  0.7543 -3.2148 -2.0064
  512MOL0     H67530   6.390  10.215   7.247  0.1500 -2.0935  1.4328
  512MOL0     H67531   6.239  10.438   7.226 -0.2176 -0.8722  0.5479
  512MOL0     H67532   6.202  10.411   7.393 -0.3109  1.5425 -1.3844
  512MOL0     H67533   6.156  10.224   7.162  0.3557  2.7029 -0.3458
  512MOL0     H67534   6.132  10.171   7.325 -1.3168  0.0767  1.0049
  512MOL0     H67535   5.955  10.314   7.364  1.8997 -0.9627  0.7568
  512MOL0     H67536   5.915  10.251   7.204  0.3861  0.4646 -0.9850
  512MOL0     H67537   5.879  10.543   7.386  1.0522 -0.8564 -0.5983
  512MOL0     H67538   5.828  10.838   7.118 -0.4027  0.0565  0.0970
  512MOL0     H67539   5.894  10.855   7.284 -0.3423  0.6590 -1.3284
  512MOL0     H67540   5.664  10.896   7.288  0.3382 -0.4064  0.3459
  512MOL0     H67541   5.683  10.740   7.360  2.6284  3.1769  3.1824
  512MOL0     H67542   5.639  10.655   7.125 -0.1358  0.8514 -0.6582
  512MOL0     H67543   5.511  10.719   7.240  1.8503 -1.4482  1.6111
  512MOL0     H67544   5.634  10.874   7.021 -1.2434  0.5297 -0.2921
  512MOL0     H67545   5.517  10.946   7.129 -0.6839 -0.0634 -0.8853
  512MOL0     H67546   5.223  10.771   6.853  1.1521  3.3494 -0.9339
  512MOL0     H67547   4.999  10.854   6.880  0.2448 -0.3762 -1.1471
  512MOL0     H67548   4.719  10.846   7.418 -1.4514  0.1304  3.3973
  512MOL0     H67549   4.473  10.869   7.465  1.4301 -1.0358  0.4399
  512MOL0     H67550   4.267  10.897   7.451 -0.6857 -0.9644  0.3888
  512MOL0     H67551   4.221  10.886   7.282 -3.2406  0.3824 -0.0601
  512MOL0     H67552   4.023  11.033   7.337  0.9899  3.2926  0.7271
  512MOL0     H67553   4.094  11.065   7.497  2.8625 -0.3843  0.7482
  512MOL0     H67554   4.089  10.825   7.544  0.6754 -2.4039 -0.6466
  512MOL0     H67555   3.996  10.807   7.393 -2.1180  2.0417 -0.9189
  512MOL0     H67556   3.892  10.878   7.653 -1.8453 -0.2040 -0.0175
  512MOL0     H67557   3.826  10.967   7.509 -2.2473 -0.5543  0.1648
  512MOL0     H67558   3.812  10.668   7.564 -0.9957 -2.0824 -4.0548
  512MOL0     H67559   3.781  10.744   7.408 -0.3826 -2.8970 -0.2651
  512MOL0     H67560   3.606  10.890   7.552  1.2329 -0.2940 -1.4366
  512MOL0     H67561   3.631  10.757   7.667 -1.8126 -4.7575 -0.5233
  512MOL0     H67562   3.538  10.697   7.385 -0.5250 -1.8777 -0.6861
  512MOL0     H67563   3.566  10.596   7.521  0.7358 -0.6626 -2.9343
  512MOL0     H67564   3.316  10.690   7.477 -1.5963 -1.3331  1.7073
  512MOL0     H67565   3.375  10.839   7.530  0.0303 -0.3191 -2.8630
  512MOL0     H67566   4.454  11.183   7.176  0.3734  0.2332 -0.1243
  512MOL0     H67567   4.675  11.150   7.123  0.9924 -1.9416 -0.2325
  512MOL0     H67568   5.106  11.000   7.271 -0.2795  0.4015 -0.1111
  512MOL0     H67569   5.329  10.927   7.246 -0.9554  0.3240  0.3306
  512MOL0     H67570   7.138  10.335   7.265  0.4361 -0.5102 -0.3313
  512MOL0     H67571   7.333  10.275   7.147  0.1985  1.9055 -1.1911
  512MOL0     H67572   7.546  10.110   6.812  1.3917  0.4923 -0.4002
  512MOL0     H67573   7.729  10.035   6.659 -2.2380 -1.6290  0.3279
  512MOL0     H67574   7.944  10.276   6.467 -0.7036  1.1783  0.2618
  512MOL0     H67575   7.852  10.302   6.317 -2.8976  0.9784  2.6863
  512MOL0     H67576   8.104  10.168   6.354 -0.0829 -0.2818 -0.1756
  512MOL0     H67577   8.000  10.036   6.351  1.8920  0.3062 -0.7522
  512MOL0     H67578   8.110  10.121   6.148 -0.3763 -4.3715  1.0875
  512MOL0     H67579   8.007  10.259   6.132  0.8619 -0.9138 -1.8500
  512MOL0     H67580   7.910   9.961   6.169  3.6747 -0.3178 -0.8964
  512MOL0     H67581   7.799  10.097   6.115 -0.0367 -1.6425 -0.1560
  512MOL0     H67582   8.012  10.033   5.769  2.3268  2.4460  0.7667
  512MOL0     H67583   7.642  10.342   6.386  0.6214 -3.0555 -0.3908
  512MOL0     H67584   7.457  10.435   6.537 -1.5485 -0.4116  1.0842
  513MOL0     O67585   0.958   6.885   9.358 -0.6334  0.6387  0.5956
  513MOL0     C67586   1.003   6.778   9.318  0.2672 -0.6035 -0.4351
  513MOL0     O67587   0.931   6.665   9.309 -0.0517  0.7617  0.3296
  513MOL0     C67588   0.806   6.647   9.354 -0.0676  0.6259 -0.5881
  513MOL0     C67589   0.744   6.531   9.321  0.3823  0.7954  0.3361
  513MOL0     C67590   0.616   6.493   9.382 -0.2114  0.3265  0.1682
  513MOL0     C67591   0.544   6.582   9.461 -0.4666 -0.0509  0.0504
  513MOL0     O67592   0.429   6.547   9.517 -0.4499  0.0966  0.1023
  513MOL0     C67593   0.329   6.515   9.423 -0.5337 -0.5089  0.4929
  513MOL0     C67594   0.229   6.409   9.472 -0.7984  0.0341  0.1130
  513MOL0     C67595   0.121   6.354   9.369  0.0192 -0.3344 -0.2810
  513MOL0     C67596   0.023   6.259   9.428 -0.4549 -0.1011  0.1104
  513MOL0     C67597  -0.102   6.268   9.347  0.5200 -0.3352 -0.1673
  513MOL0     C67598  -0.203   6.160   9.389 -0.5075  0.0511  0.3208
  513MOL0     C67599  -0.345   6.179   9.327  0.0161  0.8190  0.8277
  513MOL0     C67600  -0.368   6.127   9.178 -0.0484 -0.6452 -0.3107
  513MOL0     N67601  -0.518   6.138   9.144 -0.7756  0.7233  0.7583
  513MOL0     C67602  -0.618   6.083   9.216 -0.2512  1.0795 -0.1677
  513MOL0     C67603  -0.734   6.125   9.164  0.1691 -0.3263 -0.5245
  513MOL0     C67604  -0.870   6.123   9.231 -0.3803  0.5469 -0.5417
  513MOL0     C67605  -0.966   6.031   9.151  0.3932 -0.4997  0.4000
  513MOL0     C67606  -0.912   5.889   9.153  1.1113  0.0453  0.5412
  513MOL0     C67607  -1.026   5.788   9.130 -0.2341 -0.2435  0.7177
  513MOL0     O67608  -1.131   5.802   9.228 -0.4891  0.0609 -0.0651
  513MOL0     C67609  -1.223   5.707   9.243  0.7457  0.7070 -0.8434
  513MOL0     C67610  -1.227   5.590   9.165 -0.3981 -0.2068 -0.5644
  513MOL0     C67611  -1.323   5.494   9.190  0.5302  0.4430  0.5300
  513MOL0     C67612  -1.420   5.519   9.289  0.4783  0.7281  0.4286
  513MOL0     C67613  -1.531   5.409   9.304  0.3428  0.0990  1.3341
  513MOL0     O67614  -1.577   5.353   9.177  0.3582  0.2097 -0.8905
  513MOL0     C67615  -1.694   5.286   9.160 -0.1520  0.5658  0.1273
  513MOL0     C67616  -1.801   5.279   9.250 -0.7117  0.1998  0.1067
  513MOL0     C67617  -1.914   5.199   9.220 -0.5454 -0.0150 -0.1913
  513MOL0     C67618  -1.934   5.141   9.095 -0.2421 -0.5367 -0.8288
  513MOL0     O67619  -2.046   5.068   9.073 -0.0548 -0.0523  0.0722
  513MOL0     C67620  -2.062   5.011   8.945  0.1498  0.8495  0.0467
  513MOL0     C67621  -2.204   4.936   8.953 -0.8381  0.6518  0.2480
  513MOL0     C67622  -2.328   5.022   8.953  0.2785 -0.7258  0.4265
  513MOL0     C67623  -2.450   4.945   8.999  0.6349 -0.5512 -0.6409
  513MOL0     C67624  -2.567   5.034   9.057  0.1062  0.5235 -0.3664
  513MOL0     C67625  -2.661   4.946   9.133  0.2951 -0.9175 -0.6698
  513MOL0     C67626  -2.711   4.821   9.047  0.7563 -0.3327  0.3869
  513MOL0     C67627  -2.856   4.798   9.076  0.2701  0.4618  0.5238
  513MOL0    Cl67628  -2.962   4.937   9.007  0.3641 -0.5050 -0.9965
  513MOL0     C67629  -1.830   5.156   9.002  0.6675 -0.2305 -0.6233
  513MOL0     C67630  -1.712   5.228   9.032 -0.4337 -0.1707 -0.5873
  513MOL0     O67631  -1.578   5.394   9.410 -0.5571  0.4968 -0.7992
  513MOL0     C67632  -1.413   5.633   9.360  0.3379  0.1834 -1.0340
  513MOL0     C67633  -1.313   5.725   9.346  0.1322  0.5219 -0.1736
  513MOL0     N67634  -0.695   6.205   9.050  0.2326  0.1649  0.3668
  513MOL0     N67635  -0.567   6.216   9.048  0.2819 -0.3198 -0.1255
  513MOL0     C67636   0.618   6.688   9.506  0.3793  0.5996 -0.7312
  513MOL0     C67637   0.742   6.719   9.454  0.0248  0.1238 -0.1393
  513MOL0     C67638   1.137   6.783   9.269  1.3306 -0.0050 -0.3721
  513MOL0     C67639   1.232   6.879   9.307 -0.2819  0.1484 -0.3498
  513MOL0     C67640   1.360   6.882   9.260  0.6568 -0.2510  0.5265
  513MOL0     C67641   1.398   6.778   9.171  0.2962  0.2580  0.0394
  513MOL0     O67642   1.518   6.766   9.111 -0.1779 -0.7999  0.0172
  513MOL0     C67643   1.628   6.815   9.185 -0.9718  0.6513  0.0553
  513MOL0     C67644   1.753   6.768   9.107  0.9731 -0.0730  0.0122
  513MOL0     C67645   1.877   6.846   9.153 -0.1563  0.7621  0.5450
  513MOL0     C67646   1.958   6.862   9.030 -0.6855 -0.0297 -0.8849
  513MOL0     C67647   2.084   6.926   9.059 -0.4692  0.1504  0.5711
  513MOL0     C67648   2.187   6.995   9.075 -0.2380 -0.8754 -0.0163
  513MOL0     C67649   1.305   6.681   9.141 -0.3060 -0.0672  0.3790
  513MOL0     C67650   1.172   6.685   9.178  0.0333  0.2290 -0.9171
  513MOL0     H67651   0.795   6.459   9.258 -0.2379  0.2673  0.4188
  513MOL0     H67652   0.576   6.395   9.361  0.4323  0.4587 -2.0410
  513MOL0     H67653   0.369   6.490   9.324  1.9337  1.7405  0.7862
  513MOL0     H67654   0.264   6.600   9.400 -0.1072 -0.8472 -2.4074
  513MOL0     H67655   0.177   6.430   9.566  1.0074  0.7223  0.9943
  513MOL0     H67656   0.284   6.319   9.501 -0.7832  0.3958  1.2601
  513MOL0     H67657   0.177   6.304   9.290 -1.1696 -1.5673 -0.3725
  513MOL0     H67658   0.071   6.440   9.323  1.2998 -1.9287 -5.2616
  513MOL0     H67659   0.069   6.160   9.435  2.2190  0.9060 -1.5438
  513MOL0     H67660   0.008   6.296   9.530 -1.7615 -1.3631  0.4040
  513MOL0     H67661  -0.075   6.254   9.242  1.0173  0.0415 -0.0945
  513MOL0     H67662  -0.146   6.367   9.365  1.9151  0.0146  1.5402
  513MOL0     H67663  -0.208   6.149   9.498  1.2409 -0.2961  0.3827
  513MOL0     H67664  -0.166   6.067   9.345  0.8299  1.2301 -1.1502
  513MOL0     H67665  -0.398   6.112   9.396  0.1131 -2.3996 -1.9824
  513MOL0     H67666  -0.370   6.285   9.338 -1.4159  1.1694 -3.8021
  513MOL0     H67667  -0.327   6.027   9.162  0.2772 -0.6614  0.6000
  513MOL0     H67668  -0.306   6.189   9.112 -0.2065 -2.7091 -2.5177
  513MOL0     H67669  -0.607   6.027   9.309 -4.4603 -1.4586 -0.9009
  513MOL0     H67670  -0.904   6.227   9.234 -2.1535 -0.0333  0.1127
  513MOL0     H67671  -0.863   6.086   9.333  3.2990 -1.1203 -1.2159
  513MOL0     H67672  -0.995   6.076   9.056 -1.8076 -0.8081  0.8606
  513MOL0     H67673  -1.061   6.030   9.206 -0.7359  2.0504 -1.3159
  513MOL0     H67674  -0.839   5.864   9.075  0.8908 -0.7086  0.5680
  513MOL0     H67675  -0.857   5.877   9.247  0.7144  0.4103  0.8244
  513MOL0     H67676  -0.985   5.687   9.130  0.5472  0.0511  1.7787
  513MOL0     H67677  -1.058   5.812   9.028  1.7267 -1.5419 -0.2563
  513MOL0     H67678  -1.154   5.563   9.090 -2.3651  0.8977 -3.0688
  513MOL0     H67679  -1.327   5.396   9.143  0.5541 -1.6838  4.5182
  513MOL0     H67680  -1.799   5.330   9.346 -1.2523  2.4718 -1.0012
  513MOL0     H67681  -1.993   5.186   9.293 -1.0766 -1.8874 -1.0536
  513MOL0     H67682  -1.985   4.938   8.921  0.7874  0.9786  1.5851
  513MOL0     H67683  -2.072   5.084   8.864 -2.7641  0.9882  0.4174
  513MOL0     H67684  -2.206   4.871   9.041  1.1072 -0.9398 -0.7870
  513MOL0     H67685  -2.220   4.866   8.870  0.1370 -0.7507  1.1938
  513MOL0     H67686  -2.340   5.072   8.856  3.7437 -1.6534 -0.5867
  513MOL0     H67687  -2.316   5.108   9.020 -1.2673  1.5078 -1.9613
  513MOL0     H67688  -2.475   4.873   8.920  1.3365 -3.1863  1.3968
  513MOL0     H67689  -2.414   4.883   9.082 -0.0995  0.9871  0.8932
  513MOL0     H67690  -2.616   5.091   8.978  1.7212  3.1178  0.3643
  513MOL0     H67691  -2.516   5.104   9.124  0.9411 -2.6891  2.6604
  513MOL0     H67692  -2.747   5.011   9.151  0.8402 -1.0539  3.0714
  513MOL0     H67693  -2.636   4.926   9.237 -2.7024  2.9864  1.0811
  513MOL0     H67694  -2.710   4.831   8.938  0.4483 -0.1423  0.3993
  513MOL0     H67695  -2.655   4.732   9.077 -1.7405 -1.1879  3.0218
  513MOL0     H67696  -2.879   4.791   9.182 -2.9133 -4.4759 -0.1178
  513MOL0     H67697  -2.893   4.708   9.024  0.2770  1.1548 -0.7076
  513MOL0     H67698  -1.836   5.124   8.898 -1.6173  0.0138 -0.6288
  513MOL0     H67699  -1.637   5.260   8.961  0.9707  0.2177  1.0045
  513MOL0     H67700  -1.496   5.639   9.430  0.0010 -2.8207 -1.0456
  513MOL0     H67701  -1.319   5.823   9.391  1.5291  1.0500 -1.0450
  513MOL0     H67702   0.588   6.762   9.579  2.5293  1.4936 -0.6759
  513MOL0     H67703   0.797   6.796   9.506 -1.0189 -0.9412  2.7319
  513MOL0     H67704   1.193   6.954   9.375 -0.1980  0.1384 -0.2909
  513MOL0     H67705   1.410   6.973   9.291  2.9884  0.7746 -5.0224
  513MOL0     H67706   1.642   6.780   9.288 -1.9931 -1.3658 -0.4346
  513MOL0     H67707   1.624   6.924   9.182 -3.6532  0.7325  2.5171
  513MOL0     H67708   1.766   6.662   9.132 -3.7085 -1.1501 -1.0542
  513MOL0     H67709   1.733   6.780   9.000 -1.4454 -2.5523  0.0886
  513MOL0     H67710   1.936   6.790   9.226 -0.2225  1.6127  1.2732
  513MOL0     H67711   1.845   6.945   9.187 -1.3787  0.8826 -0.8470
  513MOL0     H67712   1.976   6.768   8.977  0.7128 -0.2653 -0.0540
  513MOL0     H67713   1.900   6.924   8.961  1.4088  0.6801 -2.0966
  513MOL0     H67714   2.277   7.042   9.110 -1.0836 -0.8164  2.2722
  513MOL0     H67715   1.327   6.610   9.061 -2.1078 -1.5875  1.1745
  513MOL0     H67716   1.113   6.599   9.149  1.0927 -1.3184  1.3241
  514MOL0     O67717   9.940   0.994  10.195  0.4547 -0.0633 -0.1460
  514MOL0     C67718   9.965   1.102  10.255  0.2287  0.9036  0.1792
  514MOL0     O67719   9.891   1.218  10.248  0.3207  0.5373 -0.7998
  514MOL0     C67720   9.773   1.189  10.188 -0.6373 -0.1924  0.3713
  514MOL0     C67721   9.659   1.177  10.265 -0.4452  0.3514 -0.1902
  514MOL0     C67722   9.534   1.174  10.195 -0.1803 -0.9071  0.4823
  514MOL0     C67723   9.523   1.168  10.056  0.0623 -0.3066 -0.4936
  514MOL0     O67724   9.396   1.165   9.998 -0.1477 -0.4324  0.3922
  514MOL0     C67725   9.370   1.143   9.858 -0.1558  0.1095 -0.8638
  514MOL0     C67726   9.376   0.995   9.826  0.0483 -0.5088  0.2439
  514MOL0     C67727   9.288   0.899   9.914  1.1789  0.1323 -0.4883
  514MOL0     C67728   9.149   0.957   9.944  1.0422 -0.4778 -0.6896
  514MOL0     C67729   9.055   0.843  10.010 -0.3319 -1.0074 -0.0515
  514MOL0     C67730   8.913   0.903  10.013 -0.1688  0.0629  0.1891
  514MOL0     C67731   8.803   0.799  10.006 -0.1206  0.0293 -0.3000
  514MOL0     C67732   8.783   0.707  10.125  0.2733 -0.0727 -0.2300
  514MOL0     N67733   8.713   0.770  10.241  0.1601 -0.0254 -0.6546
  514MOL0     C67734   8.739   0.748  10.374 -0.5908  0.5495 -0.1624
  514MOL0     C67735   8.664   0.844  10.436 -0.4893  0.2739  1.2750
  514MOL0     C67736   8.640   0.869  10.586 -0.1392  0.2850 -0.2152
  514MOL0     C67737   8.490   0.904  10.630  0.0436  0.2984 -0.1765
  514MOL0     C67738   8.405   0.774  10.637 -0.0551 -0.1926 -0.1484
  514MOL0     C67739   8.265   0.813  10.710 -0.0953 -0.1287  0.4609
  514MOL0     O67740   8.155   0.724  10.676 -0.1703 -0.1955  0.5766
  514MOL0     C67741   8.029   0.763  10.692  0.0874 -0.0305  0.4078
  514MOL0     C67742   7.987   0.885  10.752 -0.6642  0.3099 -0.1656
  514MOL0     C67743   7.853   0.927  10.743 -0.3247 -0.7063 -0.5074
  514MOL0     C67744   7.750   0.839  10.700  0.4491 -0.5267  0.1051
  514MOL0     C67745   7.607   0.876  10.709  0.5413  0.3187 -0.1387
  514MOL0     O67746   7.517   0.790  10.652 -0.4460 -0.3219 -0.0883
  514MOL0     C67747   7.384   0.832  10.621  0.3757 -0.1041 -0.3842
  514MOL0     C67748   7.288   0.737  10.630  0.9668 -0.2116  0.3047
  514MOL0     C67749   7.155   0.764  10.592  0.4192 -0.3014 -0.1820
  514MOL0     C67750   7.113   0.898  10.557  0.4381  2.1420 -0.2021
  514MOL0     O67751   6.985   0.920  10.508  0.0722  0.1352 -0.2267
  514MOL0     C67752   6.956   1.044  10.433 -0.2396 -0.5020  0.6509
  514MOL0     C67753   6.818   1.031  10.367 -0.3167  0.3953 -0.7193
  514MOL0     C67754   6.717   0.981  10.468 -0.7074 -0.6278 -0.0401
  514MOL0     C67755   6.585   0.992  10.402 -0.1387  0.8130 -1.0771
  514MOL0     C67756   6.463   0.943  10.484  0.3360  0.1151  0.9700
  514MOL0     C67757   6.325   0.997  10.441 -0.0204  0.4853  0.5487
  514MOL0     C67758   6.211   0.953  10.528  0.0156  0.8941 -0.4721
  514MOL0     C67759   6.074   0.994  10.465 -0.7454  0.5258  0.2184
  514MOL0    Cl67760   5.940   0.924  10.557 -0.4092  0.2072 -0.5506
  514MOL0     C67761   7.213   0.995  10.559 -0.0207  0.2242  0.3159
  514MOL0     C67762   7.348   0.962  10.588 -0.4310  0.1415  0.1893
  514MOL0     O67763   7.573   0.982  10.760 -1.1787  0.3500  0.9027
  514MOL0     C67764   7.794   0.717  10.647  0.1243  0.1103  0.6499
  514MOL0     C67765   7.931   0.673  10.643  0.0497 -0.3270 -0.3525
  514MOL0     N67766   8.607   0.929  10.347 -0.1355  0.4809  0.1830
  514MOL0     N67767   8.635   0.879  10.228  0.8112  0.5507 -0.6209
  514MOL0     C67768   9.645   1.171   9.983  0.0844  0.7437 -0.0553
  514MOL0     C67769   9.770   1.184  10.048 -0.0262 -0.2493  0.5382
  514MOL0     C67770  10.095   1.127  10.313 -1.0107  0.2031  0.0339
  514MOL0     C67771  10.156   1.048  10.414 -0.4572 -0.1893  0.3358
  514MOL0     C67772  10.280   1.092  10.484  0.1819 -0.4229 -0.0159
  514MOL0     C67773  10.343   1.206  10.443 -0.1098 -0.2989  0.9609
  514MOL0     O67774  10.455   1.240  10.512 -0.0845  0.2963  0.1057
  514MOL0     C67775  10.526   1.361  10.487  0.5044 -0.0078 -0.3400
  514MOL0     C67776  10.645   1.382  10.582  0.7811  0.6798 -0.5008
  514MOL0     C67777  10.586   1.417  10.719 -0.2462 -0.0091  0.0632
  514MOL0     C67778  10.691   1.485  10.808  0.8693  0.3266 -0.7667
  514MOL0     C67779  10.701   1.627  10.776 -0.3819 -0.2351  0.2287
  514MOL0     C67780  10.703   1.749  10.756  0.2810 -0.2480  0.6638
  514MOL0     C67781  10.285   1.283  10.344  0.3349 -0.0598 -0.6520
  514MOL0     C67782  10.161   1.245  10.282 -0.1292 -0.5721  0.4720
  514MOL0     H67783   9.650   1.167  10.373 -2.5994 -2.2023 -0.4999
  514MOL0     H67784   9.445   1.167  10.256 -0.4678 -0.3922  0.1202
  514MOL0     H67785   9.450   1.192   9.802  0.8829  0.5703  0.9245
  514MOL0     H67786   9.273   1.180   9.825  0.6789  2.3463 -0.9463
  514MOL0     H67787   9.481   0.965   9.826  0.5953  1.2560  2.0365
  514MOL0     H67788   9.331   0.991   9.726 -2.2582 -0.7191  1.2308
  514MOL0     H67789   9.345   0.874  10.004  0.8157 -0.3182 -0.3774
  514MOL0     H67790   9.279   0.797   9.875 -1.6686  0.0947  0.0167
  514MOL0     H67791   9.143   1.047  10.005 -3.6482  0.7093 -2.4542
  514MOL0     H67792   9.107   0.982   9.846  1.3628 -0.1895 -0.7521
  514MOL0     H67793   9.094   0.809  10.107  1.3028 -1.3284 -0.7927
  514MOL0     H67794   9.052   0.757   9.943  0.3471  1.5641 -3.6493
  514MOL0     H67795   8.900   0.981   9.938 -1.5224  1.0216  1.3629
  514MOL0     H67796   8.909   0.957  10.109  0.7883  1.2683 -0.4215
  514MOL0     H67797   8.711   0.852   9.981  0.8278  2.4416  0.9629
  514MOL0     H67798   8.827   0.737   9.918  4.6753  0.6960  0.2442
  514MOL0     H67799   8.880   0.660  10.145 -0.2622  0.0338  3.0949
  514MOL0     H67800   8.707   0.631  10.106  0.6027 -0.5341  0.2894
  514MOL0     H67801   8.800   0.675  10.427 -0.4303 -0.8477 -2.1699
  514MOL0     H67802   8.706   0.951  10.614  0.8347 -0.0448 -1.4759
  514MOL0     H67803   8.674   0.784  10.646 -1.5807 -0.8888 -0.9800
  514MOL0     H67804   8.451   0.975  10.557 -2.7310 -0.1255  0.7518
  514MOL0     H67805   8.490   0.957  10.726 -0.6687  1.6980 -0.9245
  514MOL0     H67806   8.394   0.733  10.536 -0.4700 -3.9651  1.2484
  514MOL0     H67807   8.469   0.705  10.692  1.9340  0.3970 -1.6190
  514MOL0     H67808   8.235   0.910  10.669 -0.0513 -0.5294 -0.5441
  514MOL0     H67809   8.287   0.810  10.817  0.7874 -0.1493  0.2837
  514MOL0     H67810   8.055   0.952  10.804 -1.3767  1.2450 -0.4366
  514MOL0     H67811   7.834   1.023  10.789 -2.8982 -1.2850 -0.1477
  514MOL0     H67812   7.307   0.634  10.659 -2.3946 -0.7657  0.9731
  514MOL0     H67813   7.096   0.673  10.597  2.3459 -1.5862  3.5915
  514MOL0     H67814   7.027   1.047  10.350 -3.0014 -1.3018 -1.9395
  514MOL0     H67815   6.958   1.135  10.493 -2.7762  0.1642 -0.1109
  514MOL0     H67816   6.822   0.960  10.283 -0.6795  1.1492 -1.3922
  514MOL0     H67817   6.790   1.124  10.316  2.2201  1.2466 -0.6931
  514MOL0     H67818   6.717   1.032  10.564 -1.8548 -2.8046  1.2004
  514MOL0     H67819   6.741   0.877  10.491 -0.8382 -0.7558 -0.4701
  514MOL0     H67820   6.576   1.100  10.384  0.4856  0.6503 -2.4799
  514MOL0     H67821   6.587   0.946  10.304  1.9240  0.4885 -0.9205
  514MOL0     H67822   6.477   0.980  10.586  1.0097  1.0602  0.5429
  514MOL0     H67823   6.458   0.834  10.491  1.9000 -0.0799 -0.4182
  514MOL0     H67824   6.315   0.967  10.337  0.5875  1.0693  0.3103
  514MOL0     H67825   6.327   1.107  10.448  0.6431  0.4018  2.0624
  514MOL0     H67826   6.222   0.846  10.547 -0.9378  0.5789 -1.6048
  514MOL0     H67827   6.204   0.997  10.628  3.1328 -1.1895  0.8333
  514MOL0     H67828   6.070   0.956  10.362  0.2784  1.0474 -0.0191
  514MOL0     H67829   6.065   1.103  10.461  2.5994  0.8709 -0.5897
  514MOL0     H67830   7.197   1.101  10.541 -2.0034 -0.2108 -0.7456
  514MOL0     H67831   7.423   1.040  10.590 -0.3877  0.1598 -1.2127
  514MOL0     H67832   7.719   0.659  10.594 -0.5713  1.1372  0.4797
  514MOL0     H67833   7.965   0.573  10.616  2.0555 -0.8961  3.5537
  514MOL0     H67834   9.640   1.169   9.874 -0.6242  0.5600 -0.0201
  514MOL0     H67835   9.858   1.188   9.983 -0.6218 -1.9409 -0.4370
  514MOL0     H67836  10.105   0.958  10.448 -0.0101 -0.0304  1.4956
  514MOL0     H67837  10.324   1.036  10.566 -2.5961 -0.9804  1.2063
  514MOL0     H67838  10.464   1.450  10.487 -0.1502 -0.4220  1.3183
  514MOL0     H67839  10.569   1.355  10.387 -0.3175  1.8130 -0.8318
  514MOL0     H67840  10.713   1.297  10.590 -0.0957 -0.1565 -1.5929
  514MOL0     H67841  10.710   1.464  10.548  3.6272 -0.8753  0.7846
  514MOL0     H67842  10.535   1.334  10.768 -3.4780  1.7818  0.0220
  514MOL0     H67843  10.496   1.478  10.702  0.3407  0.6565 -0.6787
  514MOL0     H67844  10.664   1.472  10.913 -0.3026  0.6480 -1.0234
  514MOL0     H67845  10.789   1.441  10.785  0.8982  0.4357 -0.8490
  514MOL0     H67846  10.710   1.855  10.744 -2.6349  0.1182  1.3612
  514MOL0     H67847  10.336   1.373  10.313  0.9141 -0.6297 -1.4212
  514MOL0     H67848  10.113   1.313  10.212 -0.1161 -0.0045  1.0075
  515MOL0     O67849   5.519   1.817   0.058 -0.5000  0.4646 -0.0504
  515MOL0     C67850   5.553   1.758   0.158  0.4598 -0.5228  0.6470
  515MOL0     O67851   5.462   1.702   0.250 -0.0098  0.0583  0.8406
  515MOL0     C67852   5.331   1.680   0.205 -0.1210 -1.1607  0.1248
  515MOL0     C67853   5.223   1.747   0.258 -0.1026 -0.1082  1.3387
  515MOL0     C67854   5.091   1.708   0.211 -0.6991 -0.2459 -0.4576
  515MOL0     C67855   5.072   1.612   0.110 -0.5542 -0.4680 -1.1096
  515MOL0     O67856   4.947   1.591   0.075  0.0775  1.0266  0.1450
  515MOL0     C67857   4.857   1.551   0.179  0.7156  0.4351  0.6192
  515MOL0     C67858   4.716   1.537   0.138 -0.0549  0.1519  0.1355
  515MOL0     C67859   4.642   1.667   0.121 -0.1293 -0.3768  0.3593
  515MOL0     C67860   4.590   1.743   0.252 -0.8115  0.5616  0.3223
  515MOL0     C67861   4.548   1.888   0.227  0.0646 -0.0851  0.2897
  515MOL0     C67862   4.429   1.910   0.146 -1.0561 -0.3352 -0.7268
  515MOL0     C67863   4.386   2.060   0.140  0.7895 -0.2737  0.6112
  515MOL0     C67864   4.273   2.073   0.037  0.9412 -0.5524 -0.4035
  515MOL0     N67865   4.211   2.208   0.060  0.1342 -0.2882  0.5636
  515MOL0     C67866   4.217   2.319  -0.024  0.3721 -0.3598  0.4392
  515MOL0     C67867   4.152   2.416   0.046  0.9027  0.5417  0.4066
  515MOL0     C67868   4.166   2.561   0.005 -0.1564 -1.3475  0.6979
  515MOL0     C67869   4.055   2.646   0.076  0.3366  0.0489  0.8752
  515MOL0     C67870   3.939   2.683  -0.018  0.2405 -0.4688  0.3468
  515MOL0     C67871   3.863   2.801   0.043  0.4421 -0.0986 -0.2622
  515MOL0     O67872   3.784   2.751   0.152 -0.9277  0.0668  0.0425
  515MOL0     C67873   3.650   2.798   0.159 -0.2006 -0.1096 -0.1532
  515MOL0     C67874   3.600   2.914   0.095 -0.0008  0.5274  0.6751
  515MOL0     C67875   3.467   2.959   0.116 -0.7007 -0.4323 -0.0530
  515MOL0     C67876   3.375   2.890   0.194 -0.8961 -0.0319 -1.5828
  515MOL0     C67877   3.237   2.934   0.213  1.2964 -0.6631  0.5173
  515MOL0     O67878   3.146   2.842   0.252 -0.1878  0.5109  0.3259
  515MOL0     C67879   3.017   2.882   0.281  0.2388  0.4814  0.9384
  515MOL0     C67880   2.999   2.939   0.405  0.2270  0.1378  0.1374
  515MOL0     C67881   2.869   2.976   0.441 -0.5372 -0.3842 -0.2434
  515MOL0     C67882   2.749   2.941   0.367  0.1603  0.3184 -0.2612
  515MOL0     O67883   2.623   2.980   0.410 -0.1941 -0.4830 -0.4558
  515MOL0     C67884   2.511   2.885   0.398 -0.3521  0.3019 -0.3465
  515MOL0     C67885   2.387   2.953   0.472  1.3850 -0.2155 -0.0856
  515MOL0     C67886   2.272   2.856   0.448  0.2628 -0.6366  0.4812
  515MOL0     C67887   2.141   2.907   0.514  0.1168 -0.2206 -0.2293
  515MOL0     C67888   2.018   2.816   0.469  0.0961 -0.6806 -0.1371
  515MOL0     C67889   1.894   2.898   0.507  0.3191  0.0287 -0.4160
  515MOL0     C67890   1.869   3.026   0.424 -0.9625  0.2392  0.6614
  515MOL0     C67891   1.729   3.052   0.380  0.6372 -0.1476  0.8510
  515MOL0    Cl67892   1.609   3.075   0.516 -0.4589  0.0088 -0.3459
  515MOL0     C67893   2.778   2.895   0.240 -0.0366 -0.6321  0.7126
  515MOL0     C67894   2.906   2.857   0.197  0.1135  0.0587  0.2627
  515MOL0     O67895   3.208   3.052   0.178  0.2298  0.5496 -0.2557
  515MOL0     C67896   3.424   2.775   0.267  0.0334 -0.3527 -0.4414
  515MOL0     C67897   3.562   2.744   0.254 -0.2005  0.5870  0.0274
  515MOL0     N67898   4.108   2.363   0.161 -0.1286  0.1075 -0.2523
  515MOL0     N67899   4.133   2.236   0.166  0.1639 -0.0301 -0.6505
  515MOL0     C67900   5.188   1.547   0.066  0.3234 -0.7340 -0.5912
  515MOL0     C67901   5.316   1.582   0.103 -0.0797  0.4548  0.0351
  515MOL0     C67902   5.691   1.755   0.195  0.2157  0.5585  0.5386
  515MOL0     C67903   5.741   1.662   0.286 -0.5452 -0.5901  0.5629
  515MOL0     C67904   5.878   1.659   0.319  0.5862  0.3530 -0.2335
  515MOL0     C67905   5.972   1.744   0.261  0.6863  0.3934 -0.3913
  515MOL0     O67906   6.109   1.743   0.271  0.5953  0.1684 -0.5130
  515MOL0     C67907   6.178   1.641   0.348  0.8670  0.4092  0.6778
  515MOL0     C67908   6.317   1.625   0.292 -0.2035 -0.3615 -0.2898
  515MOL0     C67909   6.407   1.541   0.391 -0.0215 -0.3872  0.0008
  515MOL0     C67910   6.440   1.401   0.356  0.2425  0.6432  0.0845
  515MOL0     C67911   6.329   1.318   0.320 -0.8392 -0.0169 -0.0535
  515MOL0     C67912   6.240   1.235   0.296  0.8761 -0.2563  0.5492
  515MOL0     C67913   5.919   1.845   0.180 -0.1839  0.9209  0.5251
  515MOL0     C67914   5.779   1.845   0.143  0.8073 -1.4324 -0.9197
  515MOL0     H67915   5.217   1.825   0.333 -4.3740  1.7175 -0.5607
  515MOL0     H67916   5.007   1.751   0.263  0.4606  1.5928 -0.0277
  515MOL0     H67917   4.856   1.620   0.263 -1.5195  0.0975  0.9251
  515MOL0     H67918   4.889   1.453   0.215 -0.6143  0.5061  2.1173
  515MOL0     H67919   4.665   1.478   0.215  1.9856 -1.2769  0.4617
  515MOL0     H67920   4.711   1.484   0.042 -2.2016 -0.5554  0.5850
  515MOL0     H67921   4.563   1.643   0.050  1.4724 -3.9134 -0.4624
  515MOL0     H67922   4.702   1.743   0.070 -0.0996 -1.0393 -0.6054
  515MOL0     H67923   4.503   1.688   0.289 -0.2389  0.3562  1.3957
  515MOL0     H67924   4.679   1.739   0.316  1.7013  1.8640 -2.7814
  515MOL0     H67925   4.637   1.931   0.180  0.0122  1.0223  1.1792
  515MOL0     H67926   4.516   1.929   0.323 -1.7966 -3.1793  1.1233
  515MOL0     H67927   4.340   1.855   0.179 -2.3089 -1.0563 -4.7302
  515MOL0     H67928   4.441   1.882   0.041  0.1303 -1.6944 -0.2606
  515MOL0     H67929   4.357   2.103   0.236  2.8623  3.8460 -0.3728
  515MOL0     H67930   4.466   2.126   0.103 -0.2219  0.6175 -0.0246
  515MOL0     H67931   4.199   1.995   0.053  1.2817 -0.5613  1.3452
  515MOL0     H67932   4.299   2.058  -0.068 -4.3446  0.3699 -2.1448
  515MOL0     H67933   4.261   2.328  -0.122  2.3828  1.0431  1.4108
  515MOL0     H67934   4.160   2.582  -0.102  1.1100 -0.6921  0.7302
  515MOL0     H67935   4.265   2.598   0.034 -0.2066  0.6441 -1.4182
  515MOL0     H67936   4.090   2.745   0.109 -0.1976  0.6163 -0.2003
  515MOL0     H67937   4.009   2.591   0.159 -3.6857  4.5729  2.1161
  515MOL0     H67938   3.962   2.707  -0.122 -4.5257 -0.2140 -0.8523
  515MOL0     H67939   3.865   2.602  -0.020  1.1761 -1.3265 -0.8242
  515MOL0     H67940   3.804   2.844  -0.038  0.7065 -0.7885 -0.8348
  515MOL0     H67941   3.926   2.878   0.087 -0.5735 -0.5073  2.0420
  515MOL0     H67942   3.663   2.971   0.027 -0.6626  1.2019  0.6123
  515MOL0     H67943   3.442   3.040   0.047  2.7749 -0.6097 -1.7240
  515MOL0     H67944   3.082   2.965   0.471  0.5114  0.8300 -0.4750
  515MOL0     H67945   2.856   3.026   0.537 -2.4847 -1.4253  0.0949
  515MOL0     H67946   2.548   2.787   0.431  0.9734  0.6273 -0.8230
  515MOL0     H67947   2.481   2.863   0.296 -0.3522 -1.3672 -0.0268
  515MOL0     H67948   2.354   3.051   0.437 -1.0516 -1.1568 -0.5900
  515MOL0     H67949   2.408   2.952   0.579 -0.3580 -1.6569  0.2898
  515MOL0     H67950   2.292   2.761   0.499 -2.1384 -0.7031  1.4266
  515MOL0     H67951   2.259   2.841   0.341 -0.5715  0.6529  0.3786
  515MOL0     H67952   2.153   2.911   0.622  0.0337 -1.3967 -0.1637
  515MOL0     H67953   2.122   3.008   0.477  0.7892  0.0025  0.0187
  515MOL0     H67954   2.013   2.723   0.527 -0.7181  0.6668  2.1009
  515MOL0     H67955   2.017   2.794   0.362  0.7683 -2.4829  0.2023
  515MOL0     H67956   1.903   2.920   0.614 -2.0915  0.4128 -0.2371
  515MOL0     H67957   1.805   2.836   0.490 -0.1005  0.6964 -0.6766
  515MOL0     H67958   1.913   3.115   0.472  1.1064 -1.8195  2.8524
  515MOL0     H67959   1.916   3.010   0.327 -1.9068 -1.3657  0.4428
  515MOL0     H67960   1.691   2.976   0.312  1.2194 -0.9769  1.4381
  515MOL0     H67961   1.741   3.145   0.323  2.2871 -0.6726  0.2870
  515MOL0     H67962   2.703   2.895   0.161 -3.1253 -0.1964  3.4529
  515MOL0     H67963   2.914   2.831   0.092  0.6261  1.6117 -0.1188
  515MOL0     H67964   3.356   2.721   0.332  1.7050  2.5887  4.2659
  515MOL0     H67965   3.594   2.657   0.310  1.8074  1.5786  0.5140
  515MOL0     H67966   5.182   1.473  -0.013  1.6762 -2.6501  1.0146
  515MOL0     H67967   5.400   1.525   0.064 -0.9487 -1.3643  0.7251
  515MOL0     H67968   5.670   1.602   0.341 -1.3583 -1.3754 -1.2654
  515MOL0     H67969   5.897   1.581   0.391 -0.9838 -0.6671 -0.8753
  515MOL0     H67970   6.127   1.546   0.329  0.1652  1.0674 -0.9483
  515MOL0     H67971   6.171   1.668   0.454  0.8667 -0.0665  0.8039
  515MOL0     H67972   6.315   1.589   0.188  0.1920 -2.3833  0.3484
  515MOL0     H67973   6.362   1.723   0.279 -0.6943 -0.4075 -2.8789
  515MOL0     H67974   6.369   1.552   0.493  0.6596 -0.7786  0.2952
  515MOL0     H67975   6.496   1.604   0.391 -0.4277  0.3144  2.6563
  515MOL0     H67976   6.514   1.402   0.276 -0.3947 -1.1701 -0.5780
  515MOL0     H67977   6.486   1.344   0.437 -0.6086 -0.5069 -0.2237
  515MOL0     H67978   6.164   1.166   0.263 -0.0777  1.1609 -0.3561
  515MOL0     H67979   5.982   1.919   0.132 -2.3844  2.2934 -0.3903
  515MOL0     H67980   5.737   1.926   0.086  0.1220 -0.5135  0.8272
  516MOL0     O67981   9.596   9.145   0.017  0.0241  0.3588  0.0113
  516MOL0     C67982   9.590   9.032   0.066  0.4367  0.0471 -0.9865
  516MOL0     O67983   9.476   8.955   0.093  0.6340 -0.7348 -0.3819
  516MOL0     C67984   9.348   9.002   0.074  0.0977 -0.4275  1.0357
  516MOL0     C67985   9.301   9.116  -0.002  1.0593 -0.3989 -0.2204
  516MOL0     C67986   9.163   9.133  -0.033 -0.7885 -0.2263 -0.4545
  516MOL0     C67987   9.064   9.051   0.008  0.3990  0.2018  0.0987
  516MOL0     O67988   8.936   9.079  -0.024 -0.1958  0.1542 -0.8506
  516MOL0     C67989   8.833   9.070   0.081  0.6005  0.0251  0.5648
  516MOL0     C67990   8.758   8.938   0.067 -0.0700  0.3195  0.2987
  516MOL0     C67991   8.629   8.923   0.143 -0.2812 -0.1656  0.0691
  516MOL0     C67992   8.655   8.947   0.290  0.7028 -0.5863 -0.2322
  516MOL0     C67993   8.539   8.920   0.387  0.5688  0.7671 -0.6440
  516MOL0     C67994   8.420   9.013   0.364  0.4059  0.3627 -0.7792
  516MOL0     C67995   8.317   8.984   0.473  0.1117 -0.6733  0.5440
  516MOL0     C67996   8.242   8.861   0.445  0.5438 -0.4954 -0.1034
  516MOL0     N67997   8.118   8.858   0.511  0.3131  0.3758 -0.7465
  516MOL0     C67998   7.986   8.876   0.464 -0.3060  0.2674  0.7908
  516MOL0     C67999   7.903   8.837   0.555  0.9051  0.4015 -0.0402
  516MOL0     C68000   7.758   8.804   0.517 -0.0419 -0.0332  0.0894
  516MOL0     C68001   7.759   8.684   0.427 -0.6499 -0.3831  0.3599
  516MOL0     C68002   7.818   8.554   0.478 -0.1685 -0.2266  0.0212
  516MOL0     C68003   7.968   8.530   0.455  0.2221 -0.4094 -0.2079
  516MOL0     O68004   8.018   8.503   0.322 -0.7813  0.0578 -0.0645
  516MOL0     C68005   8.160   8.520   0.310 -0.1878  0.4802  0.1615
  516MOL0     C68006   8.192   8.542   0.177  1.1656  0.6327 -0.0351
  516MOL0     C68007   8.318   8.536   0.130 -0.9359  0.5295 -0.4970
  516MOL0     C68008   8.427   8.513   0.222 -0.0663  0.1790  0.2661
  516MOL0     C68009   8.571   8.519   0.169  0.1508  0.1672 -0.3958
  516MOL0     O68010   8.663   8.516   0.266  0.1948 -0.6276 -0.3608
  516MOL0     C68011   8.799   8.501   0.234 -0.3048 -0.4806 -0.3663
  516MOL0     C68012   8.838   8.396   0.160 -0.4122 -0.2555  0.5790
  516MOL0     C68013   8.974   8.376   0.142 -0.5933 -0.2885 -0.5682
  516MOL0     C68014   9.073   8.462   0.193 -0.3064  0.4568  0.1324
  516MOL0     O68015   9.207   8.439   0.198  0.0438 -0.4001 -0.2313
  516MOL0     C68016   9.265   8.338   0.124 -0.3383 -0.0845 -0.0926
  516MOL0     C68017   9.422   8.352   0.120  0.5625 -0.2818 -0.5945
  516MOL0     C68018   9.481   8.225   0.055  0.4741 -0.2408  0.1389
  516MOL0     C68019   9.632   8.198   0.095 -0.2812 -0.3478 -0.1897
  516MOL0     C68020   9.688   8.068   0.049 -1.0253 -0.0296 -0.0866
  516MOL0     C68021   9.821   8.041   0.117 -0.1423 -0.5320  0.3721
  516MOL0     C68022   9.885   7.907   0.093 -0.1263  0.2984  0.5928
  516MOL0     C68023  10.024   7.924   0.145  0.9371 -0.4139  0.4352
  516MOL0    Cl68024  10.090   7.760   0.156 -0.2704  0.7833  0.1735
  516MOL0     C68025   9.027   8.582   0.255 -0.2490  1.2776 -0.3638
  516MOL0     C68026   8.893   8.593   0.285  0.4527  0.1150  1.5542
  516MOL0     O68027   8.585   8.502   0.048 -0.2103 -0.6146  0.9998
  516MOL0     C68028   8.398   8.495   0.355  0.2051 -0.0852 -0.3737
  516MOL0     C68029   8.269   8.491   0.400 -0.1058 -1.0053 -0.6820
  516MOL0     N68030   7.972   8.804   0.673  0.0049 -0.4629  0.1398
  516MOL0     N68031   8.098   8.807   0.636 -0.5570 -0.4510  0.0118
  516MOL0     C68032   9.102   8.937   0.084  0.1440  0.6844  0.0990
  516MOL0     C68033   9.238   8.915   0.114  0.0469 -0.8280 -1.0874
  516MOL0     C68034   9.714   8.955   0.086 -0.4345 -0.2301  0.3003
  516MOL0     C68035   9.709   8.816   0.097 -0.2726 -0.9646 -1.1169
  516MOL0     C68036   9.829   8.748   0.127 -0.4027 -0.2875 -0.4071
  516MOL0     C68037   9.953   8.817   0.161  0.1892  0.5392  0.0329
  516MOL0     O68038  10.064   8.738   0.192 -0.7565  0.4306  0.2145
  516MOL0     C68039  10.174   8.793   0.262 -1.1063  0.0712  0.2229
  516MOL0     C68040  10.243   8.681   0.348 -0.3439 -0.6016  1.0989
  516MOL0     C68041  10.125   8.623   0.426  0.4891  0.2501 -0.6643
  516MOL0     C68042  10.180   8.544   0.548 -0.0159 -0.2323  0.1570
  516MOL0     C68043  10.073   8.518   0.649 -1.1523 -0.3917 -0.3129
  516MOL0     C68044   9.980   8.489   0.722 -0.6816 -0.4449 -0.6077
  516MOL0     C68045   9.955   8.949   0.120 -0.4251 -0.0617  0.1462
  516MOL0     C68046   9.837   9.020   0.090  1.0421  0.5025 -0.4915
  516MOL0     H68047   9.373   9.194  -0.027  0.8000  0.3508  1.2829
  516MOL0     H68048   9.141   9.212  -0.104  2.2670  0.3129 -0.9698
  516MOL0     H68049   8.759   9.147   0.060  0.3425 -0.5300 -0.6345
  516MOL0     H68050   8.875   9.068   0.182 -2.5151  2.4457  2.0951
  516MOL0     H68051   8.814   8.845   0.083 -0.1435  0.5704  2.2123
  516MOL0     H68052   8.733   8.924  -0.039  2.5962 -0.3972 -0.3260
  516MOL0     H68053   8.583   8.824   0.138 -1.3657  0.2924  0.5186
  516MOL0     H68054   8.555   8.991   0.099  1.8074  0.0911 -3.4494
  516MOL0     H68055   8.740   8.885   0.319  2.3212  1.1457 -1.0747
  516MOL0     H68056   8.680   9.053   0.303 -2.8389  0.4846 -1.0127
  516MOL0     H68057   8.570   8.940   0.490  2.2851 -1.7769 -0.5530
  516MOL0     H68058   8.510   8.815   0.371  3.9815 -0.1318 -1.8852
  516MOL0     H68059   8.375   9.001   0.265  2.0041  0.0592 -1.4961
  516MOL0     H68060   8.444   9.119   0.374  3.0140 -0.1701 -0.7183
  516MOL0     H68061   8.369   8.969   0.569 -1.0463 -2.2333  0.9728
  516MOL0     H68062   8.248   9.068   0.465  0.3609 -0.6434 -2.5789
  516MOL0     H68063   8.299   8.769   0.459  1.1353 -0.6023 -2.6759
  516MOL0     H68064   8.220   8.868   0.338 -2.5494  1.3381  0.5423
  516MOL0     H68065   7.958   8.920   0.369 -1.5928  0.4304  1.2277
  516MOL0     H68066   7.717   8.885   0.457  0.2004 -1.0787 -1.5487
  516MOL0     H68067   7.700   8.785   0.608  0.5407 -0.6701  0.3421
  516MOL0     H68068   7.826   8.711   0.344  2.1639 -0.1939  2.5524
  516MOL0     H68069   7.653   8.665   0.409 -0.8105 -1.0154  1.8536
  516MOL0     H68070   7.784   8.539   0.581 -3.5664  2.7019 -0.4990
  516MOL0     H68071   7.775   8.470   0.423  1.3524  0.7132 -2.8061
  516MOL0     H68072   7.988   8.443   0.519  0.9320 -0.8389 -0.9840
  516MOL0     H68073   8.031   8.609   0.496  1.0673 -1.4389  0.5314
  516MOL0     H68074   8.121   8.553   0.095  0.6566 -1.8792  0.0087
  516MOL0     H68075   8.352   8.570   0.033  0.3906  0.0873 -0.2135
  516MOL0     H68076   8.762   8.333   0.115  0.1153 -0.2585 -0.3354
  516MOL0     H68077   9.002   8.280   0.100 -2.9212 -0.8563 -0.9961
  516MOL0     H68078   9.230   8.344   0.020 -1.4010  2.5615  0.3513
  516MOL0     H68079   9.233   8.241   0.162 -0.3467  0.1045  0.3791
  516MOL0     H68080   9.470   8.364   0.218  3.7563 -0.8435 -1.9788
  516MOL0     H68081   9.463   8.431   0.056  1.2305  1.3081  1.6512
  516MOL0     H68082   9.466   8.224  -0.053  0.1028 -0.6186  0.1896
  516MOL0     H68083   9.428   8.141   0.100  0.2453 -0.0500  0.2287
  516MOL0     H68084   9.698   8.281   0.066 -0.5184  0.3195  1.0949
  516MOL0     H68085   9.640   8.196   0.204  2.6050 -1.8760 -0.3196
  516MOL0     H68086   9.694   8.073  -0.060  3.1665 -0.5692 -0.0287
  516MOL0     H68087   9.620   7.983   0.062 -0.4368 -0.6466 -0.9412
  516MOL0     H68088   9.794   8.042   0.223 -1.3011  0.4957  0.0805
  516MOL0     H68089   9.897   8.118   0.102  0.5812 -1.6571 -2.2788
  516MOL0     H68090   9.825   7.834   0.147 -2.0747  0.1755 -1.5854
  516MOL0     H68091   9.888   7.878  -0.013 -0.5735  0.7127  0.4599
  516MOL0     H68092  10.032   7.962   0.247  1.1785 -0.8599  0.5862
  516MOL0     H68093  10.073   7.990   0.072 -3.1154  0.2846 -1.9756
  516MOL0     H68094   9.101   8.652   0.292  1.4661  0.0326 -1.2766
  516MOL0     H68095   8.844   8.673   0.339 -3.8921 -0.4798 -1.0462
  516MOL0     H68096   8.471   8.484   0.435  1.6191 -1.2009 -1.7448
  516MOL0     H68097   8.234   8.478   0.502 -1.6263  0.6266 -0.9396
  516MOL0     H68098   9.023   8.880   0.132  0.7229 -0.5819 -0.4092
  516MOL0     H68099   9.274   8.837   0.179  3.5166  0.7959 -0.8506
  516MOL0     H68100   9.618   8.758   0.104 -0.7113 -0.1278  0.8442
  516MOL0     H68101   9.832   8.641   0.145  2.5469 -0.2119  0.0148
  516MOL0     H68102  10.134   8.875   0.323  0.9332  1.3486 -0.0774
  516MOL0     H68103  10.247   8.832   0.191  0.9797 -0.3581  2.0380
  516MOL0     H68104  10.288   8.602   0.287  1.9855 -0.4335  2.4721
  516MOL0     H68105  10.325   8.719   0.410  0.6154  1.0164 -1.0496
  516MOL0     H68106  10.064   8.559   0.361  3.3420 -1.5339 -1.7560
  516MOL0     H68107  10.062   8.699   0.474 -1.8483 -2.0079  0.0649
  516MOL0     H68108  10.220   8.449   0.512 -1.3632 -0.8238  0.1761
  516MOL0     H68109  10.267   8.591   0.595 -0.1485 -1.1918  1.4068
  516MOL0     H68110   9.893   8.464   0.780 -2.1129  1.1688 -1.9195
  516MOL0     H68111  10.045   9.004   0.099 -0.2354 -0.4034  0.0555
  516MOL0     H68112   9.844   9.124   0.059 -1.2144  0.8084 -0.1705
  517MOL0     O68113   0.385   6.425   3.658 -0.6364  0.5118  0.0853
  517MOL0     C68114   0.385   6.458   3.539  0.4469 -0.6774 -0.7654
  517MOL0     O68115   0.286   6.411   3.443 -0.6791  0.6436  0.8116
  517MOL0     C68116   0.192   6.327   3.481  0.0743 -0.0121  0.4972
  517MOL0     C68117   0.068   6.356   3.424 -0.8591  0.2258 -0.0400
  517MOL0     C68118  -0.039   6.267   3.431  0.3415  0.0371  0.2180
  517MOL0     C68119  -0.024   6.144   3.505  0.7916 -0.8372  0.3056
  517MOL0     O68120  -0.138   6.061   3.527 -0.1627 -0.4782  0.0090
  517MOL0     C68121  -0.268   6.111   3.494 -0.8322  0.4836 -0.7543
  517MOL0     C68122  -0.384   6.048   3.578  0.5255 -0.2060  0.6350
  517MOL0     C68123  -0.418   5.915   3.522 -0.4823 -0.6279  0.0140
  517MOL0     C68124  -0.540   5.829   3.584  0.8976 -0.5911 -0.7892
  517MOL0     C68125  -0.581   5.705   3.513  0.4687  0.5180  0.4426
  517MOL0     C68126  -0.723   5.666   3.542  0.2352 -0.5569 -0.2251
  517MOL0     C68127  -0.769   5.528   3.477 -0.4053 -0.4266 -0.3931
  517MOL0     C68128  -0.909   5.499   3.537 -0.4357 -0.1954 -0.7933
  517MOL0     N68129  -0.960   5.368   3.502  0.0667  0.3638 -0.3575
  517MOL0     C68130  -1.024   5.321   3.386  0.1697  0.7470 -0.7928
  517MOL0     C68131  -1.070   5.195   3.419  0.1859 -1.2962  0.3021
  517MOL0     C68132  -1.168   5.121   3.329  0.2096  0.2556  0.6045
  517MOL0     C68133  -1.306   5.131   3.392 -0.2993  0.6606  0.0422
  517MOL0     C68134  -1.360   5.264   3.360  0.2402 -0.4007  0.0378
  517MOL0     C68135  -1.497   5.297   3.430  0.3618 -0.6651  0.4643
  517MOL0     O68136  -1.597   5.205   3.382 -0.0699  0.2048  0.1248
  517MOL0     C68137  -1.730   5.232   3.402 -0.3689 -0.8653  0.1863
  517MOL0     C68138  -1.822   5.127   3.393  0.5521  0.0810  0.4205
  517MOL0     C68139  -1.950   5.141   3.424 -0.6250  0.8791  0.0944
  517MOL0     C68140  -1.997   5.262   3.464  0.0592  0.2213  0.3440
  517MOL0     C68141  -2.136   5.283   3.514 -0.4803  0.4809 -0.4109
  517MOL0     O68142  -2.211   5.170   3.523 -0.0334 -0.7007  0.0121
  517MOL0     C68143  -2.340   5.172   3.572 -0.6667  0.1788  0.1393
  517MOL0     C68144  -2.438   5.258   3.512  0.3033 -0.1541  0.4812
  517MOL0     C68145  -2.563   5.251   3.573  0.0947  0.0164 -0.7547
  517MOL0     C68146  -2.598   5.161   3.673  0.1692  0.3438 -0.2537
  517MOL0     O68147  -2.724   5.156   3.724 -0.0813  0.6116  0.4094
  517MOL0     C68148  -2.795   5.037   3.705  0.9276  0.5903 -0.0053
  517MOL0     C68149  -2.943   5.060   3.711  0.6911 -0.1654  0.4003
  517MOL0     C68150  -2.997   5.105   3.848  0.1508 -0.4973 -0.1617
  517MOL0     C68151  -3.140   5.169   3.840  0.3152 -0.0831 -0.0313
  517MOL0     C68152  -3.235   5.152   3.966 -0.4085  0.2280  0.3926
  517MOL0     C68153  -3.377   5.210   3.929 -1.2805  1.0106  0.3016
  517MOL0     C68154  -3.452   5.227   4.062  0.4799 -0.7911 -0.2448
  517MOL0     C68155  -3.592   5.274   4.034 -0.1127  0.7983  0.1833
  517MOL0    Cl68156  -3.582   5.420   3.930  0.3916 -0.0001 -0.6733
  517MOL0     C68157  -2.505   5.067   3.727 -0.5251 -0.3459 -0.0475
  517MOL0     C68158  -2.373   5.079   3.677 -0.5012  0.8386  0.7487
  517MOL0     O68159  -2.167   5.388   3.570 -0.2719  0.0929 -0.1093
  517MOL0     C68160  -1.909   5.375   3.476  0.9359 -0.5627 -0.0633
  517MOL0     C68161  -1.773   5.360   3.452 -0.2512 -0.9594  0.6946
  517MOL0     N68162  -1.026   5.164   3.543 -0.1474 -0.5596 -0.1313
  517MOL0     N68163  -0.965   5.270   3.590 -0.2652  0.5253 -0.2901
  517MOL0     C68164   0.101   6.105   3.558  0.1292  0.1176 -0.6823
  517MOL0     C68165   0.213   6.198   3.546 -0.1933 -0.2087  0.3795
  517MOL0     C68166   0.497   6.544   3.487  1.1665 -0.6121  0.0712
  517MOL0     C68167   0.599   6.592   3.565 -0.1948 -0.0022  0.2173
  517MOL0     C68168   0.698   6.676   3.521 -0.1985 -0.3995 -0.1380
  517MOL0     C68169   0.701   6.713   3.391  1.5093  0.1821  0.2406
  517MOL0     O68170   0.811   6.784   3.349  0.5577 -0.1016 -0.3091
  517MOL0     C68171   0.888   6.717   3.246 -0.1362 -0.4902 -0.5925
  517MOL0     C68172   0.947   6.823   3.153  0.2852 -0.1293  0.4326
  517MOL0     C68173   0.994   6.772   3.016 -0.1190 -0.4835  0.4283
  517MOL0     C68174   1.040   6.882   2.923  0.2071 -0.0974 -0.1387
  517MOL0     C68175   1.174   6.934   2.957  0.6947  0.4315  0.4555
  517MOL0     C68176   1.288   6.978   2.975  0.7812  0.2661  0.7663
  517MOL0     C68177   0.608   6.658   3.298  0.0254 -0.2533  0.0516
  517MOL0     C68178   0.501   6.581   3.353 -0.6266  0.1564 -0.1202
  517MOL0     H68179   0.041   6.438   3.358 -0.6226 -0.1947 -0.6745
  517MOL0     H68180  -0.133   6.292   3.384 -0.0931 -0.0129  1.0307
  517MOL0     H68181  -0.294   6.128   3.389  0.9655  0.7884 -1.1732
  517MOL0     H68182  -0.262   6.212   3.536 -1.4309 -0.0616  0.6977
  517MOL0     H68183  -0.465   6.122   3.578  1.8547  1.3266  1.0642
  517MOL0     H68184  -0.353   6.040   3.683  0.6283 -0.8085  0.5605
  517MOL0     H68185  -0.330   5.850   3.520  2.2569  2.7941 -2.4071
  517MOL0     H68186  -0.427   5.937   3.416  1.7775 -0.5636 -0.2153
  517MOL0     H68187  -0.518   5.808   3.690  2.4505 -0.3704 -1.0413
  517MOL0     H68188  -0.620   5.903   3.580  1.3392 -0.1297 -1.3063
  517MOL0     H68189  -0.524   5.618   3.547 -1.8001 -0.6626  1.4216
  517MOL0     H68190  -0.560   5.713   3.406  0.8522  0.5886  0.5209
  517MOL0     H68191  -0.781   5.748   3.497  0.5525 -0.6668 -0.8427
  517MOL0     H68192  -0.728   5.676   3.651  1.0621  1.2425 -0.3157
  517MOL0     H68193  -0.780   5.537   3.368 -2.4920  3.2377 -0.0457
  517MOL0     H68194  -0.698   5.451   3.508  0.7975  0.6484 -0.3774
  517MOL0     H68195  -0.981   5.580   3.520  2.1484  2.4482  0.0526
  517MOL0     H68196  -0.899   5.522   3.643 -1.8262  3.4076 -1.2850
  517MOL0     H68197  -1.051   5.371   3.294 -0.9014 -2.5786 -2.4025
  517MOL0     H68198  -1.135   5.019   3.308 -0.0379  0.3657 -0.3839
  517MOL0     H68199  -1.175   5.165   3.229  0.2643 -0.3059  0.3543
  517MOL0     H68200  -1.309   5.098   3.496 -0.5027  1.8779  0.4360
  517MOL0     H68201  -1.373   5.054   3.351  1.1431 -0.0388 -1.1101
  517MOL0     H68202  -1.291   5.335   3.405  0.0771 -1.2763  1.7690
  517MOL0     H68203  -1.384   5.291   3.256  0.4237  1.7164  0.5004
  517MOL0     H68204  -1.509   5.402   3.400  0.6898 -1.0331 -1.0436
  517MOL0     H68205  -1.489   5.293   3.539 -2.1014 -0.1940  0.7167
  517MOL0     H68206  -1.797   5.026   3.363 -0.7799 -0.0090 -0.4641
  517MOL0     H68207  -2.019   5.058   3.411  2.3265 -1.4532 -2.0563
  517MOL0     H68208  -2.418   5.334   3.438 -0.4377  1.0553  1.4898
  517MOL0     H68209  -2.630   5.334   3.549  0.8587  0.7915 -0.2765
  517MOL0     H68210  -2.770   4.966   3.785 -1.1665 -2.0633 -1.5384
  517MOL0     H68211  -2.757   4.993   3.613  3.5431 -0.3823  1.4321
  517MOL0     H68212  -2.985   4.961   3.690  0.8385  0.2768 -2.4185
  517MOL0     H68213  -2.973   5.125   3.628  2.8979 -0.2756 -0.5729
  517MOL0     H68214  -2.927   5.181   3.883  0.9395 -1.2449 -0.0862
  517MOL0     H68215  -3.002   5.013   3.908 -0.0309  0.4505  1.3513
  517MOL0     H68216  -3.129   5.270   3.799 -0.6823 -1.1781 -3.3081
  517MOL0     H68217  -3.197   5.115   3.764  0.3274  0.3787 -0.3756
  517MOL0     H68218  -3.184   5.196   4.052 -0.9989  0.8446  0.4400
  517MOL0     H68219  -3.234   5.046   3.992  2.3219  0.6209  2.2416
  517MOL0     H68220  -3.439   5.151   3.861 -0.3526  1.6497 -1.1580
  517MOL0     H68221  -3.360   5.306   3.881  0.5377  1.3250  1.4581
  517MOL0     H68222  -3.440   5.145   4.133  1.8425 -1.2315 -0.9684
  517MOL0     H68223  -3.402   5.311   4.111 -2.7667  1.9352 -1.2083
  517MOL0     H68224  -3.644   5.285   4.130  1.3192  1.5776  0.9125
  517MOL0     H68225  -3.636   5.193   3.975  1.5763  0.5980 -0.8606
  517MOL0     H68226  -2.526   4.997   3.807 -0.9897 -0.7331 -0.5010
  517MOL0     H68227  -2.304   5.008   3.722 -2.9714 -0.3771  2.8783
  517MOL0     H68228  -1.945   5.475   3.500 -0.0422 -0.6084 -1.2367
  517MOL0     H68229  -1.714   5.449   3.473 -1.6199 -0.2712  1.8316
  517MOL0     H68230   0.113   6.023   3.628 -1.7381  2.3542  2.5297
  517MOL0     H68231   0.310   6.176   3.589  1.0026 -3.4743 -3.3462
  517MOL0     H68232   0.604   6.558   3.668 -0.6380 -2.1114 -0.3995
  517MOL0     H68233   0.783   6.721   3.572 -1.4567  3.0427 -0.7500
  517MOL0     H68234   0.836   6.645   3.183  1.4590  0.3589 -2.9943
  517MOL0     H68235   0.967   6.675   3.309 -0.7906  0.0112  0.6194
  517MOL0     H68236   0.875   6.903   3.133 -0.8511 -1.3817 -0.7771
  517MOL0     H68237   1.036   6.862   3.203 -1.1716  0.3880  2.7497
  517MOL0     H68238   0.909   6.725   2.966 -0.1738  2.5947 -2.8151
  517MOL0     H68239   1.079   6.702   3.021 -1.0680 -1.8393 -1.1868
  517MOL0     H68240   1.038   6.845   2.820  0.3307  1.1890 -0.6223
  517MOL0     H68241   0.964   6.959   2.936  0.9177  0.2638  2.4983
  517MOL0     H68242   1.379   7.028   3.001  2.4749 -2.9843  1.6530
  517MOL0     H68243   0.616   6.666   3.190  0.5335 -1.8417 -0.0606
  517MOL0     H68244   0.427   6.546   3.281 -1.3370  1.9104 -0.2925
  518MOL0     O68245   0.554   6.179   1.946  0.1997 -0.5259 -0.3037
  518MOL0     C68246   0.633   6.082   1.927  0.3749  0.3762  0.6942
  518MOL0     O68247   0.599   5.955   1.893  0.2721 -0.4828  0.7140
  518MOL0     C68248   0.472   5.923   1.872  0.2090 -0.4135  0.2402
  518MOL0     C68249   0.411   5.841   1.966 -0.3397 -0.0160 -0.4065
  518MOL0     C68250   0.281   5.801   1.953  0.8511  0.4100  0.4865
  518MOL0     C68251   0.212   5.845   1.837  0.6432  0.0587  0.0093
  518MOL0     O68252   0.077   5.827   1.824 -0.0469 -0.0302 -0.7559
  518MOL0     C68253   0.005   5.760   1.924 -0.1320 -0.2687  0.3762
  518MOL0     C68254  -0.150   5.771   1.894 -0.2942  0.2097 -0.0921
  518MOL0     C68255  -0.215   5.654   1.969  0.3082  0.4628  0.0385
  518MOL0     C68256  -0.366   5.637   1.929 -0.7171  0.8361  0.8720
  518MOL0     C68257  -0.421   5.494   1.961  0.5390  0.5284  0.5880
  518MOL0     C68258  -0.576   5.486   1.932 -0.6464  0.2781  0.1615
  518MOL0     C68259  -0.662   5.600   2.001  1.0496 -0.3700 -0.2436
  518MOL0     C68260  -0.626   5.614   2.145 -0.1776  1.1563 -1.0223
  518MOL0     N68261  -0.713   5.703   2.217  0.4822  1.3705  0.4764
  518MOL0     C68262  -0.680   5.811   2.284  0.7854 -0.5964 -0.3960
  518MOL0     C68263  -0.753   5.820   2.396 -0.7090  0.6825 -0.7118
  518MOL0     C68264  -0.738   5.934   2.494  0.4710  0.6207 -0.6139
  518MOL0     C68265  -0.861   6.016   2.483 -0.6063  0.1800  0.0609
  518MOL0     C68266  -0.870   6.124   2.591 -0.3290  0.7455 -0.5540
  518MOL0     C68267  -0.990   6.210   2.563 -0.0097  0.1060  0.0666
  518MOL0     O68268  -0.997   6.302   2.672  0.6269  0.5395 -0.2564
  518MOL0     C68269  -1.075   6.270   2.782 -0.1221  0.7611 -0.4604
  518MOL0     C68270  -1.073   6.371   2.876  0.0463  0.0482 -0.5544
  518MOL0     C68271  -1.141   6.360   2.998 -0.6957 -0.1716  0.0769
  518MOL0     C68272  -1.218   6.244   3.022  0.4776 -0.2429  0.6973
  518MOL0     C68273  -1.303   6.233   3.143 -0.0874 -0.1746  0.8168
  518MOL0     O68274  -1.414   6.144   3.125  0.2524 -0.5966  0.2750
  518MOL0     C68275  -1.509   6.121   3.222  0.4057  0.1281 -0.2168
  518MOL0     C68276  -1.563   6.220   3.312  0.3756  0.3658  1.2803
  518MOL0     C68277  -1.649   6.189   3.413 -0.5431  0.9334  0.2691
  518MOL0     C68278  -1.690   6.048   3.430  0.0132 -0.0537 -0.1648
  518MOL0     O68279  -1.763   6.001   3.540 -0.4896  0.0516  0.2613
  518MOL0     C68280  -1.859   6.092   3.587 -0.7258  0.8501 -0.5136
  518MOL0     C68281  -1.980   6.013   3.650 -0.3647  0.0265  0.9219
  518MOL0     C68282  -2.090   6.097   3.711  0.2299  0.4175 -0.4612
  518MOL0     C68283  -2.177   6.190   3.622  0.7702  0.2198  0.1258
  518MOL0     C68284  -2.226   6.307   3.716 -0.5502 -0.2415  0.3903
  518MOL0     C68285  -2.340   6.392   3.651  0.1733 -0.7867  0.0091
  518MOL0     C68286  -2.397   6.510   3.731  0.2013 -0.4713 -0.0833
  518MOL0     C68287  -2.411   6.493   3.882 -0.5390 -0.8282  0.1851
  518MOL0    Cl68288  -2.501   6.339   3.931  0.0368  0.5621  0.4440
  518MOL0     C68289  -1.646   5.952   3.345  0.6733  0.5318  0.9847
  518MOL0     C68290  -1.550   5.985   3.249 -0.6308 -0.0177  0.1946
  518MOL0     O68291  -1.267   6.288   3.246 -0.5658  0.1905  0.3407
  518MOL0     C68292  -1.227   6.149   2.918 -0.7766  0.0339 -0.6488
  518MOL0     C68293  -1.166   6.166   2.803 -0.6374  0.9086 -0.3382
  518MOL0     N68294  -0.844   5.713   2.394 -0.1529  0.8644  0.4225
  518MOL0     N68295  -0.816   5.641   2.286  0.2218 -0.1860  0.4032
  518MOL0     C68296   0.262   5.925   1.747  0.3718 -0.7269  0.6027
  518MOL0     C68297   0.392   5.973   1.763 -0.8443  0.0178  0.0594
  518MOL0     C68298   0.776   6.116   1.941  0.0765  0.6252 -1.3412
  518MOL0     C68299   0.822   6.245   1.970  0.0420 -0.0092  1.1988
  518MOL0     C68300   0.961   6.276   1.972  0.6984  0.2501 -1.1810
  518MOL0     C68301   1.053   6.175   1.958 -0.4493  0.3001  1.0259
  518MOL0     O68302   1.187   6.211   1.974  0.0541  0.5638 -0.6739
  518MOL0     C68303   1.281   6.119   1.919 -0.7118 -0.0857 -0.4286
  518MOL0     C68304   1.419   6.185   1.895  0.5673  1.2346 -0.1576
  518MOL0     C68305   1.419   6.328   1.867  0.1376 -0.4006  0.6434
  518MOL0     C68306   1.566   6.378   1.820 -0.6617  0.9164  0.7193
  518MOL0     C68307   1.648   6.398   1.938  0.6077 -1.2885  0.1853
  518MOL0     C68308   1.701   6.403   2.042 -0.2928  0.5969  0.2124
  518MOL0     C68309   1.008   6.040   1.954  0.0121  0.4366  0.9669
  518MOL0     C68310   0.867   6.010   1.938 -1.2460 -0.8348 -0.8748
  518MOL0     H68311   0.463   5.811   2.056 -0.3654  0.6449 -0.1602
  518MOL0     H68312   0.234   5.738   2.028 -0.4699 -0.5459 -1.0786
  518MOL0     H68313   0.011   5.800   2.025  0.1527  1.8169 -0.4228
  518MOL0     H68314   0.035   5.655   1.920 -1.0055 -0.5042 -2.0219
  518MOL0     H68315  -0.178   5.762   1.789 -2.2358  0.2069  0.3918
  518MOL0     H68316  -0.193   5.858   1.944 -1.7381 -0.4647 -0.1237
  518MOL0     H68317  -0.210   5.660   2.079 -4.7994 -1.3503  0.6330
  518MOL0     H68318  -0.159   5.562   1.950  1.5155  1.1875 -0.0398
  518MOL0     H68319  -0.417   5.715   1.985 -0.4761  0.6271  1.3944
  518MOL0     H68320  -0.373   5.653   1.821 -0.3325 -1.3427  0.4736
  518MOL0     H68321  -0.398   5.472   2.066  0.9557  1.3966  0.6887
  518MOL0     H68322  -0.374   5.421   1.894 -0.9055 -1.8376  1.9748
  518MOL0     H68323  -0.614   5.389   1.967 -0.3875 -0.4018 -1.3531
  518MOL0     H68324  -0.597   5.501   1.825  1.4510  2.5581 -0.0215
  518MOL0     H68325  -0.644   5.693   1.946  2.9845  1.2791  2.8643
  518MOL0     H68326  -0.766   5.568   2.005  1.7457 -2.6718  2.2403
  518MOL0     H68327  -0.523   5.648   2.159  0.9562 -1.8827 -1.3884
  518MOL0     H68328  -0.643   5.516   2.190 -3.2324  1.4716 -1.2399
  518MOL0     H68329  -0.614   5.887   2.244 -1.6775  1.4337 -0.7763
  518MOL0     H68330  -0.657   6.007   2.486 -1.2678  2.8502  0.8385
  518MOL0     H68331  -0.747   5.887   2.592 -2.0718 -0.0203 -1.0940
  518MOL0     H68332  -0.942   5.942   2.485  0.6540 -1.2705 -0.5988
  518MOL0     H68333  -0.869   6.064   2.384 -1.0861  0.1798  0.0954
  518MOL0     H68334  -0.888   6.076   2.688 -4.4329 -2.1235 -2.4542
  518MOL0     H68335  -0.774   6.176   2.594 -0.5544  1.1103  1.5631
  518MOL0     H68336  -1.077   6.148   2.541  0.6909 -1.4457  1.5153
  518MOL0     H68337  -0.977   6.271   2.473 -0.0458 -1.2636 -0.8968
  518MOL0     H68338  -0.997   6.449   2.871  0.2932  0.0166  1.6656
  518MOL0     H68339  -1.139   6.440   3.071 -0.9888  1.3496 -1.5267
  518MOL0     H68340  -1.527   6.320   3.292 -0.5614  0.1751 -1.8481
  518MOL0     H68341  -1.679   6.261   3.488  0.0162  0.4906  0.9224
  518MOL0     H68342  -1.890   6.159   3.506  1.1557  0.6636 -1.4322
  518MOL0     H68343  -1.819   6.157   3.665 -2.5002 -0.5948  1.6991
  518MOL0     H68344  -1.946   5.940   3.724 -1.1514 -1.6093 -0.2863
  518MOL0     H68345  -2.027   5.961   3.566 -0.7333 -0.5913  1.4992
  518MOL0     H68346  -2.042   6.146   3.796 -1.2222 -1.0433  1.2998
  518MOL0     H68347  -2.165   6.039   3.766  2.7810 -2.2096  0.4538
  518MOL0     H68348  -2.104   6.237   3.555 -1.6544  3.8037 -0.2565
  518MOL0     H68349  -2.244   6.126   3.564  1.5524 -0.8829  0.4139
  518MOL0     H68350  -2.135   6.362   3.744  0.2622  0.4567 -3.1184
  518MOL0     H68351  -2.267   6.257   3.804 -1.4412 -0.7482 -0.2901
  518MOL0     H68352  -2.425   6.328   3.626  2.3954 -3.9637 -0.0093
  518MOL0     H68353  -2.313   6.437   3.555 -0.6225  2.5985  1.2393
  518MOL0     H68354  -2.331   6.597   3.724 -0.9979  0.6706  1.8239
  518MOL0     H68355  -2.494   6.537   3.688  0.3785  0.4613  0.0943
  518MOL0     H68356  -2.472   6.577   3.917 -2.6286 -1.5344 -1.5716
  518MOL0     H68357  -2.310   6.500   3.923 -0.2054  1.7192 -0.8780
  518MOL0     H68358  -1.690   5.853   3.345 -1.4246  1.4124  1.9509
  518MOL0     H68359  -1.509   5.911   3.181 -3.3341 -1.1152 -0.3448
  518MOL0     H68360  -1.305   6.074   2.921 -1.6553  0.9610  0.2402
  518MOL0     H68361  -1.190   6.113   2.711 -1.0695 -0.0006  0.2809
  518MOL0     H68362   0.199   5.963   1.667 -0.3967 -1.1268  1.0079
  518MOL0     H68363   0.432   6.044   1.691 -2.8985 -0.4511 -1.6180
  518MOL0     H68364   0.746   6.319   1.989 -0.8011 -0.6404  0.3834
  518MOL0     H68365   1.005   6.376   1.975 -0.1325  0.6132 -0.8912
  518MOL0     H68366   1.240   6.102   1.819  0.1382 -1.8875 -0.5006
  518MOL0     H68367   1.283   6.031   1.983 -2.1063 -1.7363 -2.4995
  518MOL0     H68368   1.478   6.175   1.987 -0.1380 -3.2571  0.0181
  518MOL0     H68369   1.481   6.136   1.819  2.1057 -1.1962  2.4647
  518MOL0     H68370   1.384   6.376   1.959 -0.7587 -0.0188  0.1171
  518MOL0     H68371   1.350   6.360   1.789  1.3177 -0.8304 -0.6187
  518MOL0     H68372   1.618   6.314   1.748  1.0496  1.5385  1.3370
  518MOL0     H68373   1.548   6.479   1.782  1.4073  2.0811  2.5771
  518MOL0     H68374   1.753   6.401   2.136  1.4674  2.0679 -0.6614
  518MOL0     H68375   1.073   5.954   1.968  0.2125  0.6512  1.3709
  518MOL0     H68376   0.844   5.904   1.927 -0.3754 -1.5529  2.8489
  519MOL0     O68377   2.186  10.085   4.331  0.0184  0.3435 -1.1014
  519MOL0     C68378   2.303  10.070   4.314  0.4475 -0.2113 -0.3259
  519MOL0     O68379   2.372   9.952   4.308 -0.8071 -0.3857 -0.2311
  519MOL0     C68380   2.313   9.832   4.313 -0.0987  0.2642  0.7365
  519MOL0     C68381   2.195   9.803   4.238  0.1559 -0.2513 -0.4404
  519MOL0     C68382   2.150   9.668   4.236 -0.3197 -0.6368 -0.4033
  519MOL0     C68383   2.219   9.573   4.309  0.0090 -0.5394  0.2162
  519MOL0     O68384   2.189   9.442   4.292  0.2369  0.9343 -0.5019
  519MOL0     C68385   2.171   9.377   4.171 -0.7377  0.0345 -0.1246
  519MOL0     C68386   2.084   9.259   4.185 -0.2906  0.3884 -0.1418
  519MOL0     C68387   2.071   9.174   4.064 -0.4298  0.7960 -0.8463
  519MOL0     C68388   1.938   9.103   4.080 -0.1961 -0.3554  0.2483
  519MOL0     C68389   1.948   8.976   4.168 -0.3122  0.2621  0.0780
  519MOL0     C68390   1.814   8.947   4.241 -0.2015 -0.5563 -0.6137
  519MOL0     C68391   1.733   8.842   4.164 -0.0243  0.0096  0.0300
  519MOL0     C68392   1.600   8.817   4.238 -0.3307 -0.0314 -0.3656
  519MOL0     N68393   1.499   8.736   4.174  0.1421  0.5210  0.0218
  519MOL0     C68394   1.493   8.599   4.154 -0.3028  0.4567 -0.5554
  519MOL0     C68395   1.372   8.584   4.086 -0.2177  0.6601 -0.1293
  519MOL0     C68396   1.325   8.455   4.032  0.1535  0.4275  0.2362
  519MOL0     C68397   1.171   8.452   4.061 -0.0219 -0.1870  0.4358
  519MOL0     C68398   1.112   8.316   4.027 -1.1352 -0.8370 -0.5694
  519MOL0     C68399   0.968   8.306   4.072  0.0056 -0.5557 -0.3323
  519MOL0     O68400   0.921   8.174   4.045  0.1749 -0.1495  0.8874
  519MOL0     C68401   0.796   8.137   4.095  0.5085 -0.0599 -0.5570
  519MOL0     C68402   0.769   8.004   4.087  1.1984  0.2912 -0.4903
  519MOL0     C68403   0.639   7.952   4.105 -0.9424 -0.7380  0.0334
  519MOL0     C68404   0.528   8.042   4.150  0.2621  0.0426  0.5171
  519MOL0     C68405   0.398   7.978   4.198  0.5914  0.6710 -0.0343
  519MOL0     O68406   0.405   7.846   4.222  0.0549  0.7877  0.3195
  519MOL0     C68407   0.285   7.772   4.242 -0.1379  0.4186 -0.4579
  519MOL0     C68408   0.179   7.759   4.148  0.4613 -0.1288  0.3473
  519MOL0     C68409   0.054   7.695   4.178  1.0640 -0.6630  0.0656
  519MOL0     C68410   0.036   7.632   4.307 -1.0047 -0.4611  0.5334
  519MOL0     O68411  -0.073   7.556   4.343 -1.1975 -0.0905 -0.4017
  519MOL0     C68412  -0.186   7.544   4.261 -0.4553 -1.2269  0.8716
  519MOL0     C68413  -0.286   7.448   4.333  0.2609  0.0606  0.1785
  519MOL0     C68414  -0.425   7.444   4.275 -0.7009 -0.1367  0.2343
  519MOL0     C68415  -0.530   7.359   4.332 -0.8084  0.2374 -0.9040
  519MOL0     C68416  -0.656   7.359   4.253  0.0126  0.0296  0.5184
  519MOL0     C68417  -0.772   7.291   4.324  0.2995  0.5925  0.3712
  519MOL0     C68418  -0.755   7.129   4.321  0.3032  0.0804  0.6644
  519MOL0     C68419  -0.866   7.044   4.366  0.7998 -0.1792  0.6272
  519MOL0    Cl68420  -0.808   6.882   4.384 -0.1193 -0.3905  0.3930
  519MOL0     C68421   0.145   7.644   4.396  0.7574 -0.8620 -0.1104
  519MOL0     C68422   0.265   7.706   4.363 -0.4546  0.8441 -0.0167
  519MOL0     O68423   0.296   8.050   4.205  0.4523  0.1341 -0.3731
  519MOL0     C68424   0.555   8.178   4.152 -0.3267  1.1078  0.0389
  519MOL0     C68425   0.685   8.224   4.122 -0.7943  0.2031 -0.5651
  519MOL0     N68426   1.316   8.709   4.062 -0.9894 -0.2919  0.3791
  519MOL0     N68427   1.387   8.802   4.130  0.5879  0.0998  0.0711
  519MOL0     C68428   2.337   9.601   4.382  0.2184 -0.5834 -1.3189
  519MOL0     C68429   2.385   9.730   4.374 -0.6788 -0.4251  0.5838
  519MOL0     C68430   2.395  10.179   4.337 -0.3027  0.2302  0.6418
  519MOL0     C68431   2.358  10.312   4.294 -0.3569  0.1504 -0.4948
  519MOL0     C68432   2.441  10.421   4.300 -0.1781 -0.8163 -0.0062
  519MOL0     C68433   2.561  10.411   4.365 -0.4772 -0.1150 -0.4238
  519MOL0     O68434   2.641  10.519   4.388  0.3735 -0.4982 -0.0023
  519MOL0     C68435   2.723  10.532   4.499  0.2289 -0.1108  0.0244
  519MOL0     C68436   2.863  10.513   4.459  0.0743  0.0579 -0.1873
  519MOL0     C68437   2.942  10.566   4.583 -0.4740  0.1692  0.3594
  519MOL0     C68438   3.089  10.610   4.539 -0.1265  0.1018 -0.8002
  519MOL0     C68439   3.159  10.657   4.661 -0.6140  0.8476  0.0554
  519MOL0     C68440   3.222  10.690   4.761 -0.1165 -0.1216  0.2328
  519MOL0     C68441   2.592  10.279   4.424  0.7183 -0.4720  0.8870
  519MOL0     C68442   2.512  10.165   4.408  0.3566 -0.4551 -0.0875
  519MOL0     H68443   2.130   9.872   4.186 -1.5548 -0.4669  1.2776
  519MOL0     H68444   2.061   9.630   4.189  0.2147 -2.4872 -0.0061
  519MOL0     H68445   2.269   9.343   4.138 -1.9404 -1.7470 -2.1728
  519MOL0     H68446   2.130   9.439   4.091 -1.3009 -1.1134 -0.7641
  519MOL0     H68447   1.987   9.297   4.218 -0.2931  1.1915 -1.0472
  519MOL0     H68448   2.119   9.189   4.262 -3.4795 -3.1619 -1.5927
  519MOL0     H68449   2.159   9.109   4.062  0.1054  1.4274  0.8998
  519MOL0     H68450   2.069   9.231   3.970  0.5472 -0.5077 -1.7002
  519MOL0     H68451   1.863   9.176   4.111 -0.2776  0.9566 -2.6746
  519MOL0     H68452   1.907   9.071   3.980  0.0245  0.5410 -0.1229
  519MOL0     H68453   2.022   8.996   4.247  1.0058  1.2206 -1.3543
  519MOL0     H68454   1.977   8.885   4.115 -1.2992  0.8071 -1.4746
  519MOL0     H68455   1.762   9.041   4.256  2.0809  0.7790 -0.6357
  519MOL0     H68456   1.839   8.905   4.339  1.3193  0.7573 -0.4078
  519MOL0     H68457   1.706   8.871   4.062 -1.3992 -2.8559 -0.5162
  519MOL0     H68458   1.790   8.751   4.149 -1.7079 -0.5954 -3.7327
  519MOL0     H68459   1.547   8.909   4.263 -1.6543 -1.2345  1.4785
  519MOL0     H68460   1.610   8.782   4.341  0.3292  1.3641  0.0638
  519MOL0     H68461   1.559   8.520   4.187 -2.5542 -1.5541 -0.5974
  519MOL0     H68462   1.376   8.370   4.079 -0.9921  0.2295  1.1977
  519MOL0     H68463   1.330   8.450   3.923  2.7147  1.4415  0.2517
  519MOL0     H68464   1.114   8.529   4.009  0.8383 -0.3763 -0.8403
  519MOL0     H68465   1.158   8.456   4.170 -1.4711 -1.1181  0.3332
  519MOL0     H68466   1.121   8.299   3.919 -3.0982  1.2843 -1.1598
  519MOL0     H68467   1.161   8.243   4.091 -0.8879  1.2124  1.7360
  519MOL0     H68468   0.903   8.373   4.015 -2.2024 -1.4483  1.0399
  519MOL0     H68469   0.962   8.324   4.180  1.0788 -2.3585  0.0720
  519MOL0     H68470   0.849   7.941   4.049  0.8747 -1.9492  2.2287
  519MOL0     H68471   0.624   7.845   4.102 -0.4416 -0.8087  0.0016
  519MOL0     H68472   0.188   7.822   4.060 -0.3282 -1.7502 -0.9356
  519MOL0     H68473  -0.025   7.702   4.103 -1.0403 -2.6785  1.9221
  519MOL0     H68474  -0.159   7.516   4.158  0.6401  0.9599  0.5078
  519MOL0     H68475  -0.242   7.637   4.257 -0.9134 -1.5421 -0.4333
  519MOL0     H68476  -0.290   7.479   4.438 -1.1484  0.9410 -0.1050
  519MOL0     H68477  -0.236   7.351   4.330 -1.1795 -0.7813  1.4975
  519MOL0     H68478  -0.417   7.420   4.169 -1.6569 -1.3079  0.4114
  519MOL0     H68479  -0.465   7.546   4.278 -3.0115 -1.0005  2.5590
  519MOL0     H68480  -0.488   7.258   4.335  1.7929  1.2836  0.8856
  519MOL0     H68481  -0.557   7.392   4.432  1.2847  2.8577 -1.0940
  519MOL0     H68482  -0.642   7.313   4.154 -0.3409 -1.2879  1.0575
  519MOL0     H68483  -0.682   7.465   4.245 -0.5555  0.0054  1.8942
  519MOL0     H68484  -0.866   7.308   4.271  0.9620  1.0712 -0.6835
  519MOL0     H68485  -0.788   7.314   4.430 -1.5931 -3.0984  1.0503
  519MOL0     H68486  -0.734   7.110   4.215  0.3529  0.2999  0.6329
  519MOL0     H68487  -0.668   7.107   4.384 -0.4891  2.3275  2.7132
  519MOL0     H68488  -0.940   7.043   4.285  0.5652 -0.3433  0.8377
  519MOL0     H68489  -0.896   7.071   4.468  3.2034  0.2127  1.2816
  519MOL0     H68490   0.129   7.586   4.486 -1.0845 -1.7673 -0.9764
  519MOL0     H68491   0.350   7.703   4.430  0.4390  2.7125 -0.9768
  519MOL0     H68492   0.476   8.247   4.176  0.6461  3.1657 -2.2429
  519MOL0     H68493   0.698   8.332   4.132  3.8243 -0.0333 -1.7969
  519MOL0     H68494   2.386   9.518   4.431  1.3852  1.4562  1.2297
  519MOL0     H68495   2.488   9.757   4.396  1.3737 -5.5839 -1.1547
  519MOL0     H68496   2.261  10.326   4.245 -0.8696  0.5014  0.5997
  519MOL0     H68497   2.422  10.522   4.265  2.1255 -0.0789  0.7286
  519MOL0     H68498   2.702  10.457   4.575 -0.6142 -2.6184 -2.5196
  519MOL0     H68499   2.709  10.630   4.545  0.7951 -1.3441  3.0000
  519MOL0     H68500   2.892  10.409   4.444 -0.1109  0.0068 -0.1860
  519MOL0     H68501   2.888  10.570   4.369 -1.0660  1.4090  0.3244
  519MOL0     H68502   2.963  10.492   4.661  2.8157  3.3930  2.8481
  519MOL0     H68503   2.890  10.646   4.637  0.8437  0.1547  1.7316
  519MOL0     H68504   3.146  10.530   4.492 -2.4214 -1.7946 -0.5796
  519MOL0     H68505   3.088  10.701   4.478 -0.4247  0.1683 -0.7010
  519MOL0     H68506   3.286  10.712   4.844  1.6356 -0.7171 -0.9059
  519MOL0     H68507   2.688  10.253   4.468  1.5146  1.5773  0.4757
  519MOL0     H68508   2.534  10.070   4.456 -1.1629 -2.6469 -3.4075
  520MOL0     O68509   2.129   3.826   4.737  0.7748 -0.5648 -0.0774
  520MOL0     C68510   2.249   3.835   4.705  0.7982 -0.3432  0.1522
  520MOL0     O68511   2.292   3.900   4.587 -1.0905  0.4192 -0.0572
  520MOL0     C68512   2.211   3.981   4.508  0.3321  0.0495 -0.3099
  520MOL0     C68513   2.068   3.991   4.497 -0.4881 -0.6825 -1.0205
  520MOL0     C68514   1.996   4.064   4.392  0.0862 -0.0520  0.1226
  520MOL0     C68515   2.077   4.118   4.287 -0.4668 -1.1480  0.1110
  520MOL0     O68516   2.032   4.187   4.177 -0.1839 -0.6408 -1.3558
  520MOL0     C68517   1.912   4.268   4.191  0.0391  0.0586 -0.3425
  520MOL0     C68518   1.872   4.338   4.059  0.2472 -0.2688 -1.1871
  520MOL0     C68519   1.732   4.419   4.054 -0.1783 -0.2440 -0.8639
  520MOL0     C68520   1.622   4.349   4.142  0.6009  0.5477 -0.5370
  520MOL0     C68521   1.491   4.429   4.162  0.0943  0.3869  0.1961
  520MOL0     C68522   1.411   4.431   4.038 -0.8513  0.1404  0.1529
  520MOL0     C68523   1.264   4.472   4.058 -0.1222 -0.9742 -0.9145
  520MOL0     C68524   1.199   4.419   4.187  0.4513  0.1740  0.3341
  520MOL0     N68525   1.055   4.449   4.187 -0.3208  0.2670 -0.5033
  520MOL0     C68526   1.004   4.570   4.182  1.4255 -1.1356 -0.0563
  520MOL0     C68527   0.867   4.565   4.200  0.4739 -0.3380  0.1502
  520MOL0     C68528   0.761   4.665   4.199  0.6537 -0.1932  0.1163
  520MOL0     C68529   0.775   4.762   4.078  0.0296  0.7378  0.0127
  520MOL0     C68530   0.784   4.686   3.942  0.2785  1.2428  0.9687
  520MOL0     C68531   0.640   4.656   3.899 -1.0189  0.0887  0.1239
  520MOL0     O68532   0.645   4.619   3.758  0.0902 -0.5748 -0.6995
  520MOL0     C68533   0.518   4.593   3.701  0.4918 -0.4042 -0.5337
  520MOL0     C68534   0.412   4.688   3.706 -0.2485 -0.5307 -0.8039
  520MOL0     C68535   0.278   4.656   3.659 -0.8450 -0.1983  0.1919
  520MOL0     C68536   0.263   4.523   3.616  0.7891 -0.0426  0.1757
  520MOL0     C68537   0.125   4.487   3.566 -0.5868 -0.4159  0.0658
  520MOL0     O68538   0.036   4.583   3.547 -0.0949 -0.1543 -0.3029
  520MOL0     C68539  -0.093   4.566   3.506 -0.8856  0.7085  0.2934
  520MOL0     C68540  -0.199   4.638   3.563  0.4977 -0.1727  0.0787
  520MOL0     C68541  -0.328   4.627   3.512  0.1278 -0.0252 -0.4955
  520MOL0     C68542  -0.360   4.557   3.397 -0.4099  0.5371  0.3435
  520MOL0     O68543  -0.489   4.545   3.345  0.8141 -0.4584  0.6662
  520MOL0     C68544  -0.522   4.457   3.230 -0.7099 -0.2817  0.2217
  520MOL0     C68545  -0.670   4.480   3.195 -0.0492  0.4780 -0.6182
  520MOL0     C68546  -0.781   4.455   3.309  0.7557  0.4289  0.5513
  520MOL0     C68547  -0.784   4.315   3.363 -0.1769  0.2093  0.5015
  520MOL0     C68548  -0.847   4.304   3.500  0.0184  0.6632 -0.4051
  520MOL0     C68549  -0.998   4.319   3.508  0.4279 -0.6863 -0.4832
  520MOL0     C68550  -1.052   4.249   3.625  1.0055  0.4130 -1.2226
  520MOL0     C68551  -1.204   4.228   3.621 -0.2630 -0.6662 -0.5159
  520MOL0    Cl68552  -1.293   4.394   3.619 -0.2991  0.1439 -0.0244
  520MOL0     C68553  -0.255   4.484   3.333 -0.0393 -0.2305 -0.2985
  520MOL0     C68554  -0.124   4.487   3.389  1.3466  0.0603  0.5682
  520MOL0     O68555   0.111   4.368   3.532 -0.5120  0.3770 -0.2692
  520MOL0     C68556   0.371   4.436   3.605  0.2747 -0.2037  0.2264
  520MOL0     C68557   0.499   4.472   3.643 -0.8642  0.6134  0.3178
  520MOL0     N68558   0.839   4.431   4.219 -0.7445  0.0867  0.0523
  520MOL0     N68559   0.947   4.366   4.212 -0.6932  0.1940  0.2233
  520MOL0     C68560   2.215   4.092   4.288 -0.8448  0.5994 -0.3237
  520MOL0     C68561   2.286   4.027   4.395  0.0306 -0.4322  0.3292
  520MOL0     C68562   2.345   3.749   4.774 -1.2075  0.2921 -0.1318
  520MOL0     C68563   2.309   3.654   4.871  0.3745 -0.1266  0.0869
  520MOL0     C68564   2.398   3.601   4.961 -0.1036  0.3842  0.3013
  520MOL0     C68565   2.526   3.650   4.974 -0.8221 -0.5208 -0.0988
  520MOL0     O68566   2.632   3.622   5.059  0.0511  0.9309  0.6480
  520MOL0     C68567   2.613   3.543   5.178  0.7009 -0.0725 -0.0458
  520MOL0     C68568   2.592   3.634   5.289 -0.3110 -0.4758 -0.5268
  520MOL0     C68569   2.478   3.580   5.377 -0.8616  0.3094 -0.8620
  520MOL0     C68570   2.451   3.687   5.489  0.5935  0.0989  0.9768
  520MOL0     C68571   2.345   3.664   5.592 -0.7162  0.4150  0.0336
  520MOL0     C68572   2.274   3.640   5.680  0.2750 -0.5221  0.3123
  520MOL0     C68573   2.566   3.713   4.858  0.3648 -0.2011 -0.4264
  520MOL0     C68574   2.482   3.769   4.771  0.0221  0.7867  0.4145
  520MOL0     H68575   2.009   3.927   4.562  0.4871  0.6110  1.2949
  520MOL0     H68576   1.890   4.086   4.403  0.1081 -0.3010  0.9837
  520MOL0     H68577   1.908   4.338   4.276 -2.4255  0.4418 -0.6930
  520MOL0     H68578   1.837   4.191   4.214 -2.2831  2.1733 -0.3730
  520MOL0     H68579   1.871   4.261   3.980  1.2230 -1.4994 -0.0459
  520MOL0     H68580   1.960   4.401   4.047  1.2278 -1.0862  1.1853
  520MOL0     H68581   1.696   4.427   3.950  2.9121  2.0104 -1.9114
  520MOL0     H68582   1.760   4.521   4.083 -1.2638  1.0781 -3.9197
  520MOL0     H68583   1.593   4.253   4.099  0.7651  0.6834 -0.9611
  520MOL0     H68584   1.665   4.332   4.241  2.7636  1.2710 -1.2869
  520MOL0     H68585   1.498   4.534   4.193  2.8056  1.0747 -2.3100
  520MOL0     H68586   1.443   4.384   4.250  0.6447 -0.8361 -0.1036
  520MOL0     H68587   1.407   4.329   3.999 -2.4227 -0.2979  1.3413
  520MOL0     H68588   1.458   4.487   3.957 -2.5846  1.0672 -0.2695
  520MOL0     H68589   1.272   4.579   4.076  1.6190 -1.2572  0.2188
  520MOL0     H68590   1.205   4.440   3.970 -1.8446 -2.9986  0.8365
  520MOL0     H68591   1.237   4.467   4.277 -0.2203  0.1144  0.6563
  520MOL0     H68592   1.218   4.313   4.202  1.3684  0.2042 -0.5551
  520MOL0     H68593   1.058   4.664   4.170 -1.3221  0.6764  0.8650
  520MOL0     H68594   0.781   4.730   4.284 -0.3543 -1.7360  1.5875
  520MOL0     H68595   0.659   4.624   4.199 -0.5188  2.1327  4.3667
  520MOL0     H68596   0.876   4.805   4.081 -0.0435  0.8504  1.3484
  520MOL0     H68597   0.699   4.841   4.081 -2.1037 -1.2263  0.5765
  520MOL0     H68598   0.823   4.761   3.873  3.6323  0.3583  1.7276
  520MOL0     H68599   0.855   4.602   3.941 -1.5095 -0.3598 -0.6973
  520MOL0     H68600   0.572   4.738   3.922 -1.0399  0.1898 -0.2828
  520MOL0     H68601   0.597   4.578   3.962 -0.9915  0.9062  1.1852
  520MOL0     H68602   0.426   4.775   3.769 -2.0752  0.7715 -2.0756
  520MOL0     H68603   0.202   4.733   3.665 -1.8195 -1.1494  0.3848
  520MOL0     H68604  -0.184   4.713   3.640 -2.0384  0.5090 -0.0239
  520MOL0     H68605  -0.412   4.679   3.558 -0.3630  0.4588 -1.8611
  520MOL0     H68606  -0.516   4.352   3.259 -1.6824 -0.5271 -0.4268
  520MOL0     H68607  -0.472   4.490   3.138 -3.4937  3.1900 -0.2289
  520MOL0     H68608  -0.692   4.416   3.109  1.2500 -1.7923  0.6438
  520MOL0     H68609  -0.689   4.584   3.166 -3.5777  0.7007  1.8868
  520MOL0     H68610  -0.879   4.473   3.265  1.2669 -2.5767 -2.2109
  520MOL0     H68611  -0.756   4.519   3.394 -0.6188  2.3915 -0.4512
  520MOL0     H68612  -0.835   4.249   3.292  1.1374 -0.2698 -0.0351
  520MOL0     H68613  -0.681   4.276   3.362 -1.2930 -3.1570 -1.5617
  520MOL0     H68614  -0.807   4.387   3.559  0.8488  1.3921 -1.9573
  520MOL0     H68615  -0.826   4.203   3.537  0.8238  0.6353 -0.9080
  520MOL0     H68616  -1.045   4.276   3.419  0.4770  1.9623 -1.8717
  520MOL0     H68617  -1.040   4.419   3.498 -2.7787 -1.7115  1.1043
  520MOL0     H68618  -1.002   4.153   3.643 -1.8490 -1.3516 -2.0998
  520MOL0     H68619  -1.046   4.309   3.716  0.5012  0.4766 -1.2281
  520MOL0     H68620  -1.240   4.175   3.710 -1.4735 -0.8080 -1.0725
  520MOL0     H68621  -1.233   4.169   3.534  0.0782 -2.2609  0.4264
  520MOL0     H68622  -0.274   4.442   3.234 -1.1549 -0.9888  0.2213
  520MOL0     H68623  -0.049   4.427   3.338 -0.1853 -3.1797  1.9031
  520MOL0     H68624   0.349   4.339   3.561 -3.2729  1.3760 -1.8749
  520MOL0     H68625   0.587   4.408   3.639 -0.4069  1.3047 -0.9601
  520MOL0     H68626   2.273   4.115   4.198  0.8033  0.4016  0.6361
  520MOL0     H68627   2.393   4.022   4.378 -0.2471  1.8607 -3.0900
  520MOL0     H68628   2.207   3.617   4.868  0.7876 -1.2668 -2.2270
  520MOL0     H68629   2.383   3.523   5.035  0.2293  0.5727  0.5713
  520MOL0     H68630   2.692   3.470   5.198 -0.3370 -0.9741  0.9520
  520MOL0     H68631   2.534   3.467   5.167 -1.8226  2.5098 -1.0309
  520MOL0     H68632   2.688   3.636   5.343 -0.7480 -2.1888  0.3633
  520MOL0     H68633   2.565   3.737   5.264  1.3924  1.3269  3.9651
  520MOL0     H68634   2.501   3.485   5.425  1.3703  1.9332  1.5971
  520MOL0     H68635   2.396   3.578   5.306  0.4518 -1.4169 -2.4168
  520MOL0     H68636   2.544   3.709   5.542  0.9960 -3.8730  2.3035
  520MOL0     H68637   2.415   3.781   5.446  0.5357 -0.3036  0.1177
  520MOL0     H68638   2.198   3.624   5.754 -1.3016  1.2803 -0.8320
  520MOL0     H68639   2.670   3.741   4.847 -0.2693  1.6371 -2.1988
  520MOL0     H68640   2.536   3.843   4.713 -0.8595 -0.0038 -1.4968
  521MOL0     O68641   6.452   1.206   4.329 -0.3025 -0.2595 -0.1447
  521MOL0     C68642   6.476   1.306   4.397  0.1241 -0.0459 -0.6070
  521MOL0     O68643   6.389   1.386   4.462  0.2986  0.4988 -1.1612
  521MOL0     C68644   6.260   1.370   4.428 -0.5034  0.0391 -0.2031
  521MOL0     C68645   6.190   1.255   4.465  0.0020  0.0511  0.0676
  521MOL0     C68646   6.042   1.234   4.439 -0.5433 -0.7221  1.0882
  521MOL0     C68647   5.980   1.349   4.379  0.1289 -0.7514  0.7966
  521MOL0     O68648   5.850   1.353   4.335  0.2992 -0.6361 -0.5298
  521MOL0     C68649   5.794   1.240   4.274  0.3996 -0.0677  0.1913
  521MOL0     C68650   5.647   1.230   4.297  0.6514  0.1878  0.3262
  521MOL0     C68651   5.604   1.126   4.406 -0.6281 -0.4195  0.6423
  521MOL0     C68652   5.624   1.168   4.548  0.2139  0.0483 -0.3702
  521MOL0     C68653   5.556   1.077   4.649  0.6535  1.2220 -0.2076
  521MOL0     C68654   5.658   0.974   4.703  0.4227 -0.4864  0.2830
  521MOL0     C68655   5.590   0.869   4.777 -0.0900  0.8892 -0.1178
  521MOL0     C68656   5.685   0.759   4.842  0.7298  0.0322  0.0752
  521MOL0     N68657   5.771   0.813   4.955  0.6875 -0.6912  0.0176
  521MOL0     C68658   5.904   0.853   4.939  0.1955  0.2007 -0.5259
  521MOL0     C68659   5.922   0.950   5.031 -0.2823 -0.4691  0.0966
  521MOL0     C68660   6.058   1.008   5.065  0.6827 -0.3222  0.2250
  521MOL0     C68661   6.081   1.017   5.211  0.2884 -0.6417  0.0565
  521MOL0     C68662   6.224   1.028   5.251  0.5729  0.3231  0.2166
  521MOL0     C68663   6.275   1.171   5.233 -1.3012  0.1305  0.0766
  521MOL0     O68664   6.252   1.265   5.336 -0.0560  0.8070 -0.8976
  521MOL0     C68665   6.326   1.388   5.336  1.7181  0.5954  0.4403
  521MOL0     C68666   6.404   1.426   5.225  0.4209  0.1282  0.1936
  521MOL0     C68667   6.453   1.549   5.223  0.4128  0.7548  0.6617
  521MOL0     C68668   6.438   1.651   5.322  0.2927 -0.7855 -0.4231
  521MOL0     C68669   6.505   1.784   5.325  0.5233  0.1846 -0.5228
  521MOL0     O68670   6.497   1.842   5.449 -0.1728  0.0395 -0.2037
  521MOL0     C68671   6.557   1.962   5.472  0.1764  0.9139 -0.2828
  521MOL0     C68672   6.685   1.992   5.417  0.3725 -0.0154  0.2339
  521MOL0     C68673   6.738   2.122   5.445  0.2905  0.7127  0.8237
  521MOL0     C68674   6.673   2.209   5.530  0.0902 -0.4825 -0.9361
  521MOL0     O68675   6.748   2.309   5.588  0.1612  0.1316  0.3558
  521MOL0     C68676   6.686   2.414   5.671 -0.5355  0.4905 -0.0893
  521MOL0     C68677   6.775   2.535   5.671 -0.1895  0.2652  0.3493
  521MOL0     C68678   6.904   2.502   5.745  0.1304 -1.0159 -0.9811
  521MOL0     C68679   7.027   2.467   5.648  0.4533 -0.3267  0.0548
  521MOL0     C68680   7.160   2.467   5.722 -0.2899  0.5872 -0.1085
  521MOL0     C68681   7.280   2.464   5.615  0.2031 -0.2702 -0.6427
  521MOL0     C68682   7.420   2.475   5.676 -0.0202  0.7574 -0.1822
  521MOL0     C68683   7.531   2.476   5.569 -0.6502  0.7651  0.2576
  521MOL0    Cl68684   7.548   2.638   5.493  0.9569 -0.0764  0.1522
  521MOL0     C68685   6.544   2.187   5.573 -0.5030  0.3800  1.0139
  521MOL0     C68686   6.486   2.066   5.537 -0.5468  0.3686  0.2573
  521MOL0     O68687   6.556   1.825   5.222  0.9558  0.0892  0.0900
  521MOL0     C68688   6.349   1.617   5.422 -0.0877  0.8826  0.3370
  521MOL0     C68689   6.295   1.488   5.429  0.6811 -0.1544 -0.1304
  521MOL0     N68690   5.805   0.956   5.106 -0.7120  0.3097 -0.6680
  521MOL0     N68691   5.712   0.879   5.063 -0.2567 -0.0343  0.0110
  521MOL0     C68692   6.049   1.468   4.368  0.1061 -0.7222  0.2978
  521MOL0     C68693   6.184   1.483   4.397 -0.1782 -0.0065  0.2739
  521MOL0     C68694   6.618   1.353   4.424  0.3874 -0.3157 -0.0538
  521MOL0     C68695   6.650   1.454   4.514 -0.0105 -0.7920  0.7438
  521MOL0     C68696   6.778   1.505   4.539 -0.1080  0.0661  0.4144
  521MOL0     C68697   6.880   1.453   4.466 -0.6512  0.1676  0.3296
  521MOL0     O68698   7.008   1.504   4.458 -0.3574 -0.4820 -0.4710
  521MOL0     C68699   7.061   1.601   4.559  0.4762  0.6381 -0.5175
  521MOL0     C68700   7.208   1.600   4.539 -0.2358 -0.2014  0.0818
  521MOL0     C68701   7.275   1.719   4.609 -0.0685  0.0388 -0.0226
  521MOL0     C68702   7.436   1.723   4.566  0.8823  0.6178 -0.7306
  521MOL0     C68703   7.506   1.598   4.593 -0.4837  0.3014  0.0223
  521MOL0     C68704   7.587   1.511   4.630  0.5388  0.0850  0.9522
  521MOL0     C68705   6.859   1.345   4.391 -0.4481  0.3809 -0.3660
  521MOL0     C68706   6.725   1.293   4.365 -0.9525 -0.0116 -0.3065
  521MOL0     H68707   6.239   1.172   4.515 -1.1926 -0.5484  0.2775
  521MOL0     H68708   5.983   1.145   4.456  0.4621 -1.6202 -0.0122
  521MOL0     H68709   5.834   1.148   4.316 -2.9341 -1.0305  1.5567
  521MOL0     H68710   5.825   1.247   4.169  1.0152  0.2654  0.3897
  521MOL0     H68711   5.609   1.192   4.202  0.4303  1.7937 -0.2558
  521MOL0     H68712   5.610   1.329   4.326 -3.6782 -1.0913 -0.0729
  521MOL0     H68713   5.649   1.028   4.383 -0.0127  0.0325 -0.1062
  521MOL0     H68714   5.498   1.101   4.395 -1.0608  1.2151  0.9011
  521MOL0     H68715   5.732   1.177   4.563  0.8594 -1.8056 -3.2069
  521MOL0     H68716   5.577   1.266   4.544  0.1787 -0.0073 -3.2678
  521MOL0     H68717   5.468   1.035   4.599  0.9199  1.5172 -0.9330
  521MOL0     H68718   5.525   1.138   4.735  1.0672  0.1183  0.7503
  521MOL0     H68719   5.723   1.033   4.768 -0.4714  0.7792  0.0561
  521MOL0     H68720   5.722   0.921   4.631  0.1523  0.0706 -0.3701
  521MOL0     H68721   5.535   0.924   4.854 -0.5728  1.5053 -0.8807
  521MOL0     H68722   5.517   0.823   4.709  1.3778  0.5852 -1.5370
  521MOL0     H68723   5.740   0.707   4.764 -1.5642  1.2329 -2.5220
  521MOL0     H68724   5.613   0.684   4.875 -2.8560  3.0331 -0.2183
  521MOL0     H68725   5.980   0.803   4.880  0.8739 -0.6249  1.0020
  521MOL0     H68726   6.056   1.111   5.028 -3.7001  0.0728  1.0678
  521MOL0     H68727   6.140   0.955   5.014  1.6805  1.0671  0.3167
  521MOL0     H68728   6.048   0.927   5.265 -0.8422  0.5848  1.5128
  521MOL0     H68729   6.018   1.100   5.243 -1.9592 -1.8068 -1.1351
  521MOL0     H68730   6.229   0.997   5.356 -0.7581  0.3692  0.3134
  521MOL0     H68731   6.281   0.948   5.202 -0.9821 -1.5565  1.3330
  521MOL0     H68732   6.244   1.220   5.140 -0.4492  0.0333 -0.2680
  521MOL0     H68733   6.383   1.160   5.225 -1.2001  1.0617 -0.0318
  521MOL0     H68734   6.436   1.357   5.148 -0.0443  0.4424 -0.2864
  521MOL0     H68735   6.519   1.571   5.140 -1.4851 -1.6112 -1.6595
  521MOL0     H68736   6.741   1.924   5.354 -1.8136 -2.7746  1.0331
  521MOL0     H68737   6.844   2.138   5.428  1.3099 -2.5016  3.1154
  521MOL0     H68738   6.676   2.381   5.775 -1.1635  3.5800  0.9352
  521MOL0     H68739   6.586   2.452   5.646 -0.8966  1.8910  2.9723
  521MOL0     H68740   6.718   2.613   5.722  0.4962  1.3282 -0.4489
  521MOL0     H68741   6.800   2.569   5.570 -1.2065 -1.7291 -0.6407
  521MOL0     H68742   6.885   2.425   5.820  2.8500 -0.7033  0.1365
  521MOL0     H68743   6.928   2.591   5.803 -0.3661  0.7139 -3.2841
  521MOL0     H68744   7.005   2.369   5.605 -0.0859 -1.1764  2.1006
  521MOL0     H68745   7.027   2.539   5.566 -3.0420 -1.7824 -1.3998
  521MOL0     H68746   7.160   2.385   5.795 -0.0262  2.5210  2.2036
  521MOL0     H68747   7.159   2.564   5.774 -1.0596  0.8016 -0.5093
  521MOL0     H68748   7.271   2.549   5.546  2.6906 -0.7048 -1.6399
  521MOL0     H68749   7.281   2.373   5.554  3.5827 -0.9185  0.1659
  521MOL0     H68750   7.423   2.573   5.724  1.4366  0.5989  0.1092
  521MOL0     H68751   7.436   2.390   5.743  0.0672 -1.5629 -2.9296
  521MOL0     H68752   7.507   2.399   5.495 -0.2542 -0.7361  1.6503
  521MOL0     H68753   7.625   2.443   5.613 -0.2379  1.7349  0.1326
  521MOL0     H68754   6.484   2.255   5.631 -1.4452  0.1896  0.2938
  521MOL0     H68755   6.392   2.049   5.587  0.2106 -0.4796  1.4278
  521MOL0     H68756   6.337   1.698   5.494 -0.0402  3.6104 -2.4903
  521MOL0     H68757   6.233   1.457   5.513 -1.3091 -0.8820 -1.7708
  521MOL0     H68758   5.995   1.556   4.336  1.6203 -0.1098 -0.7156
  521MOL0     H68759   6.235   1.577   4.382 -0.0957 -0.2636 -1.2766
  521MOL0     H68760   6.570   1.512   4.558 -1.3865 -2.0538  0.0085
  521MOL0     H68761   6.804   1.593   4.597  1.3833  1.4583 -2.2153
  521MOL0     H68762   7.037   1.569   4.661 -2.3104 -1.8488 -1.7875
  521MOL0     H68763   7.013   1.699   4.558  2.0275  1.4580  1.1956
  521MOL0     H68764   7.239   1.505   4.582 -2.0022 -0.2908  1.2531
  521MOL0     H68765   7.241   1.613   4.436 -2.5265 -1.0727 -0.8169
  521MOL0     H68766   7.271   1.711   4.718 -4.1119  0.5499  0.0065
  521MOL0     H68767   7.226   1.812   4.579  1.3384  0.4410 -1.1759
  521MOL0     H68768   7.436   1.748   4.459  1.7318  3.2322 -0.1956
  521MOL0     H68769   7.479   1.809   4.617  0.7181  1.2824 -1.6878
  521MOL0     H68770   7.656   1.432   4.651 -1.7616 -1.6170  2.5740
  521MOL0     H68771   6.936   1.307   4.324  2.4195 -2.8469  4.2325
  521MOL0     H68772   6.696   1.216   4.294 -4.0669  2.5098 -2.0355
  522MOL0     O68773   4.456   8.772   9.643  0.0811 -0.3670 -0.4780
  522MOL0     C68774   4.452   8.832   9.529  0.3221  0.3816 -0.1025
  522MOL0     O68775   4.338   8.888   9.478 -0.8012 -0.5691  0.1258
  522MOL0     C68776   4.212   8.860   9.522 -0.2315  0.6011 -0.7091
  522MOL0     C68777   4.112   8.958   9.535 -0.8126  0.4725 -0.3049
  522MOL0     C68778   3.989   8.936   9.604 -0.3175  0.1380 -0.1428
  522MOL0     C68779   3.975   8.812   9.668  0.3997  0.5146  0.6496
  522MOL0     O68780   3.853   8.804   9.729 -0.0122  0.5312 -0.2473
  522MOL0     C68781   3.784   8.677   9.738 -0.5317  0.2124 -0.6614
  522MOL0     C68782   3.648   8.696   9.793  0.1517 -0.9125 -0.5905
  522MOL0     C68783   3.563   8.570   9.781  0.6310 -0.0325  0.3118
  522MOL0     C68784   3.413   8.587   9.832  0.2805  0.4497  0.4572
  522MOL0     C68785   3.333   8.459   9.800  0.1326  0.1889 -0.1678
  522MOL0     C68786   3.184   8.497   9.775 -0.0967  0.0175 -0.7625
  522MOL0     C68787   3.092   8.370   9.797  0.5036  0.1636  0.2752
  522MOL0     C68788   2.949   8.415   9.757  0.3617 -0.3317  0.1040
  522MOL0     N68789   2.849   8.304   9.745  0.1024 -0.7145  0.0633
  522MOL0     C68790   2.813   8.228   9.852 -0.1640 -0.3348 -0.0586
  522MOL0     C68791   2.716   8.150   9.808  0.5035  0.1848 -0.0874
  522MOL0     C68792   2.628   8.049   9.877 -0.8277 -0.2880 -0.1087
  522MOL0     C68793   2.563   8.101  10.007  0.0570  0.4414  0.3367
  522MOL0     C68794   2.445   8.182   9.982  0.6377  0.0740  0.5791
  522MOL0     C68795   2.428   8.297  10.080  0.0323 -0.4720 -1.3929
  522MOL0     O68796   2.378   8.407  10.013 -0.1768 -0.1652  0.8643
  522MOL0     C68797   2.242   8.405   9.976 -1.3325 -0.3866 -0.5733
  522MOL0     C68798   2.222   8.468   9.859  0.3503  0.8126  1.2538
  522MOL0     C68799   2.095   8.498   9.813 -0.6627  0.4110 -0.3632
  522MOL0     C68800   1.994   8.489   9.905  0.5517  0.2688 -0.0991
  522MOL0     C68801   1.859   8.537   9.869  1.1120 -0.6987 -0.2855
  522MOL0     O68802   1.855   8.648   9.786  0.6816  0.2303 -0.4346
  522MOL0     C68803   1.765   8.639   9.684 -0.1896  0.0490  0.1316
  522MOL0     C68804   1.696   8.529   9.632  0.1104  0.2817  0.1503
  522MOL0     C68805   1.620   8.531   9.514 -0.3490 -0.1741 -1.5781
  522MOL0     C68806   1.610   8.649   9.448  0.2187 -0.6705 -0.5900
  522MOL0     O68807   1.529   8.640   9.334 -0.3526 -0.4346 -0.3770
  522MOL0     C68808   1.559   8.742   9.240 -0.1737  0.1365 -0.3594
  522MOL0     C68809   1.489   8.700   9.113  1.1307  0.0714  0.2748
  522MOL0     C68810   1.513   8.779   8.992  0.2063  0.2390  0.4060
  522MOL0     C68811   1.412   8.746   8.877  0.7294 -0.9278  0.3648
  522MOL0     C68812   1.489   8.774   8.743  0.0065 -0.6605  0.0530
  522MOL0     C68813   1.512   8.926   8.727  0.2524 -0.6090 -0.2099
  522MOL0     C68814   1.602   8.962   8.610  0.6876  0.3558  0.1734
  522MOL0     C68815   1.616   9.112   8.603  0.5972  0.2423  0.5494
  522MOL0    Cl68816   1.736   9.170   8.716  0.0465  0.0191 -0.0169
  522MOL0     C68817   1.661   8.771   9.511 -0.2377 -0.1506  0.5825
  522MOL0     C68818   1.752   8.759   9.620 -0.4817  0.3979  0.5562
  522MOL0     O68819   1.763   8.474   9.910  0.3398  0.1212 -0.2363
  522MOL0     C68820   2.008   8.419  10.025 -0.1990  0.3295 -0.5598
  522MOL0     C68821   2.139   8.392  10.068  0.2111  0.1174  0.7733
  522MOL0     N68822   2.700   8.172   9.675  0.2022 -0.0058  1.1147
  522MOL0     N68823   2.778   8.271   9.635 -0.7773  0.1175  0.2858
  522MOL0     C68824   4.072   8.713   9.658  0.2541 -0.1879 -0.2020
  522MOL0     C68825   4.185   8.735   9.581  0.3551  0.1000 -1.2648
  522MOL0     C68826   4.579   8.869   9.453  0.7290  0.2967 -0.2096
  522MOL0     C68827   4.574   8.944   9.329  1.0948 -0.7349  0.3757
  522MOL0     C68828   4.693   8.983   9.272  1.0697  0.3592  1.4045
  522MOL0     C68829   4.817   8.952   9.324 -0.2057 -0.1000 -0.3910
  522MOL0     O68830   4.927   8.996   9.256 -0.1537 -0.2237 -0.3467
  522MOL0     C68831   5.036   9.053   9.322 -0.1344  0.0700  0.4404
  522MOL0     C68832   5.150   8.946   9.313  0.0767  0.9055  0.2737
  522MOL0     C68833   5.251   8.954   9.430  0.3401 -0.0367 -0.0452
  522MOL0     C68834   5.377   8.863   9.423  0.3360 -0.0869 -0.2584
  522MOL0     C68835   5.462   8.884   9.307  0.0919  0.8202 -0.4944
  522MOL0     C68836   5.533   8.911   9.206 -0.1046 -0.0653  0.3377
  522MOL0     C68837   4.821   8.874   9.439 -0.6016  0.0361 -0.6208
  522MOL0     C68838   4.706   8.831   9.504  0.2414 -0.3164  0.7762
  522MOL0     H68839   4.127   9.054   9.488  1.9392 -0.2522 -1.0765
  522MOL0     H68840   3.921   9.020   9.616 -1.5097 -0.9000  0.4828
  522MOL0     H68841   3.834   8.606   9.804  0.5174  1.0170 -0.5609
  522MOL0     H68842   3.775   8.639   9.635  0.0549 -2.1555  0.0940
  522MOL0     H68843   3.593   8.785   9.761 -0.7601 -0.4282  2.0450
  522MOL0     H68844   3.668   8.704   9.900 -0.4963 -0.2561 -0.5101
  522MOL0     H68845   3.608   8.492   9.842  0.8508 -0.4403 -0.3593
  522MOL0     H68846   3.563   8.542   9.675  0.5884 -0.0005  0.3035
  522MOL0     H68847   3.404   8.614   9.937  2.9921 -4.0016  2.1429
  522MOL0     H68848   3.380   8.672   9.771  1.0089  0.6516  0.3300
  522MOL0     H68849   3.342   8.393   9.888 -2.2707 -0.1320 -0.0833
  522MOL0     H68850   3.375   8.417   9.709  1.3259  1.5454 -0.2781
  522MOL0     H68851   3.169   8.525   9.670 -0.9263 -1.0559 -0.9556
  522MOL0     H68852   3.144   8.573   9.842 -4.3309 -0.6249 -2.2112
  522MOL0     H68853   3.124   8.293   9.727  0.4231  0.0154  0.4021
  522MOL0     H68854   3.100   8.335   9.901  0.8430  0.5379  0.3829
  522MOL0     H68855   2.949   8.485   9.673  0.8791  1.4195  1.4922
  522MOL0     H68856   2.911   8.491   9.826 -3.7626 -0.9638 -1.2228
  522MOL0     H68857   2.856   8.230   9.952 -1.1206  1.0607  0.3491
  522MOL0     H68858   2.693   7.967   9.911 -0.0527 -1.2103 -3.5026
  522MOL0     H68859   2.546   8.013   9.815 -0.4453 -1.9166  0.2796
  522MOL0     H68860   2.638   8.154  10.065 -2.6579  1.5649  3.0767
  522MOL0     H68861   2.527   8.012  10.059  0.0130  0.4513  0.3229
  522MOL0     H68862   2.464   8.230   9.886  2.9666 -2.4212 -0.3528
  522MOL0     H68863   2.351   8.126   9.973  1.2149 -1.2395  2.2346
  522MOL0     H68864   2.524   8.332  10.119 -0.0858  1.0315 -2.3973
  522MOL0     H68865   2.358   8.264  10.157  0.1305  0.4410 -0.9110
  522MOL0     H68866   2.312   8.483   9.801  0.7007  0.8377  1.7994
  522MOL0     H68867   2.071   8.525   9.711  1.3821 -2.6827 -1.8513
  522MOL0     H68868   1.705   8.434   9.683  1.5662  1.9616  3.3438
  522MOL0     H68869   1.559   8.444   9.489 -1.7124 -0.0085  0.8751
  522MOL0     H68870   1.665   8.748   9.215  0.0376 -0.2552  0.4099
  522MOL0     H68871   1.522   8.839   9.273 -0.1766  0.6113 -1.7055
  522MOL0     H68872   1.381   8.691   9.125  1.0840 -1.7708 -1.0745
  522MOL0     H68873   1.512   8.596   9.088 -1.7537 -0.7279  0.6133
  522MOL0     H68874   1.609   8.735   8.964  1.7635  3.6652 -0.1510
  522MOL0     H68875   1.525   8.882   9.026  0.9602 -0.1218  1.2662
  522MOL0     H68876   1.380   8.642   8.891  0.9430 -1.2789 -1.4514
  522MOL0     H68877   1.318   8.797   8.901 -0.5475 -2.9321 -0.0764
  522MOL0     H68878   1.426   8.740   8.659  1.5694 -2.9216 -0.2997
  522MOL0     H68879   1.589   8.730   8.746  0.8636  1.1385 -0.6415
  522MOL0     H68880   1.566   8.956   8.818 -1.8447  0.9425  0.5988
  522MOL0     H68881   1.421   8.987   8.727  1.2195  0.9652  1.2153
  522MOL0     H68882   1.697   8.911   8.628  0.5858  0.4695  1.0708
  522MOL0     H68883   1.546   8.927   8.522 -1.8984  2.7089  0.7520
  522MOL0     H68884   1.521   9.165   8.615  1.5706  2.7848 -1.8768
  522MOL0     H68885   1.654   9.127   8.502 -1.5482 -2.2776 -0.7495
  522MOL0     H68886   1.638   8.870   9.473  1.6185 -0.4628 -1.5383
  522MOL0     H68887   1.803   8.846   9.661  0.4197 -0.6323  1.6954
  522MOL0     H68888   1.925   8.393  10.089  0.9250 -1.7390  0.1492
  522MOL0     H68889   2.165   8.351  10.165  2.0607  0.1970  0.3551
  522MOL0     H68890   4.064   8.609   9.690  3.6526 -0.7614 -0.8401
  522MOL0     H68891   4.262   8.658   9.577  2.5427  2.0278  0.6572
  522MOL0     H68892   4.476   8.977   9.297  2.7124 -0.6804 -5.9071
  522MOL0     H68893   4.682   9.047   9.185  0.9750 -0.6995  0.6187
  522MOL0     H68894   5.013   9.100   9.418  0.9591  1.7260 -0.0675
  522MOL0     H68895   5.067   9.139   9.263 -1.3758  1.1517  1.3055
  522MOL0     H68896   5.104   8.850   9.337  0.3602  0.4053 -1.0841
  522MOL0     H68897   5.210   8.949   9.222  3.3055 -2.2078  2.0127
  522MOL0     H68898   5.200   8.953   9.527 -2.1379  0.2013 -1.2479
  522MOL0     H68899   5.284   9.058   9.437  2.8774 -0.8414  1.0405
  522MOL0     H68900   5.433   8.895   9.511 -0.0308  0.9249 -0.3836
  522MOL0     H68901   5.356   8.756   9.435 -0.1438 -0.2894 -2.4785
  522MOL0     H68902   5.594   8.938   9.123 -1.3515 -0.8934 -0.8879
  522MOL0     H68903   4.913   8.834   9.481 -1.8276 -0.8833  1.3359
  522MOL0     H68904   4.708   8.760   9.586  1.4033  0.6130  1.5986
  523MOL0     O68905   9.740   9.147   7.590 -0.5950 -0.0334  0.1262
  523MOL0     C68906   9.706   9.146   7.470 -0.3728  0.1189  0.7950
  523MOL0     O68907   9.607   9.070   7.414  0.0027 -0.6804 -0.6430
  523MOL0     C68908   9.549   8.980   7.502  0.6815 -0.1577  1.0182
  523MOL0     C68909   9.616   8.873   7.568  0.2584 -0.2504 -0.6509
  523MOL0     C68910   9.555   8.786   7.659 -0.0489  0.2241  0.5429
  523MOL0     C68911   9.421   8.806   7.693 -0.7940 -0.8002  0.8395
  523MOL0     O68912   9.361   8.721   7.773 -0.1215  0.0231 -0.3102
  523MOL0     C68913   9.214   8.732   7.805 -0.9849  0.0623  0.1510
  523MOL0     C68914   9.170   8.630   7.922  0.1148  0.0352 -0.2572
  523MOL0     C68915   9.241   8.662   8.052  0.1587  0.1632 -0.1128
  523MOL0     C68916   9.204   8.550   8.160  0.2068 -0.0050 -0.4364
  523MOL0     C68917   9.062   8.539   8.217 -0.2106  1.1215 -0.1979
  523MOL0     C68918   8.972   8.452   8.132  0.1941  0.6449 -0.6882
  523MOL0     C68919   8.846   8.418   8.203 -0.5330  1.1302 -0.1582
  523MOL0     C68920   8.757   8.529   8.234  0.1155 -0.6358  0.3093
  523MOL0     N68921   8.616   8.485   8.249 -0.5274 -0.1093  0.3776
  523MOL0     C68922   8.569   8.406   8.354  0.6431 -0.0313 -0.0419
  523MOL0     C68923   8.429   8.407   8.339  0.0963  1.2472  0.4841
  523MOL0     C68924   8.333   8.340   8.440 -0.1911 -0.2944 -0.9100
  523MOL0     C68925   8.191   8.333   8.381  0.2723 -0.7177 -0.5311
  523MOL0     C68926   8.090   8.281   8.479  0.4137  0.3460 -0.1333
  523MOL0     C68927   7.944   8.331   8.442 -0.0726  0.2238 -0.6662
  523MOL0     O68928   7.848   8.287   8.537  0.0346 -0.3044  0.0575
  523MOL0     C68929   7.720   8.301   8.491  0.7358 -0.3933 -0.0882
  523MOL0     C68930   7.664   8.405   8.407  0.6730  0.5883 -0.0848
  523MOL0     C68931   7.539   8.373   8.347 -1.1427 -0.0225 -0.0721
  523MOL0     C68932   7.467   8.259   8.384  0.3060  0.1322  0.7501
  523MOL0     C68933   7.331   8.233   8.333 -0.3698 -0.6964  0.2809
  523MOL0     O68934   7.269   8.352   8.297 -0.5529  0.2064 -0.0030
  523MOL0     C68935   7.142   8.331   8.246 -0.3574 -0.6309 -0.1184
  523MOL0     C68936   7.123   8.293   8.108 -0.3743  0.3269  0.5914
  523MOL0     C68937   7.000   8.296   8.044 -0.6307 -0.2937  0.1972
  523MOL0     C68938   6.893   8.331   8.122  0.1553 -0.0118 -0.4794
  523MOL0     O68939   6.770   8.337   8.070  0.5714 -0.4251 -0.2785
  523MOL0     C68940   6.745   8.294   7.943 -1.2332  0.4562  1.0742
  523MOL0     C68941   6.606   8.338   7.894  0.3458  1.1431  0.6192
  523MOL0     C68942   6.541   8.227   7.803  0.1046  0.6624  0.4298
  523MOL0     C68943   6.417   8.262   7.726 -0.9075  0.0283  0.2051
  523MOL0     C68944   6.303   8.287   7.822  0.3273  1.5028 -0.0956
  523MOL0     C68945   6.167   8.260   7.765  0.0216  0.1207  0.3731
  523MOL0     C68946   6.061   8.312   7.861  0.6658 -0.3075  0.6268
  523MOL0     C68947   5.915   8.301   7.808 -0.0925  0.6727  0.0573
  523MOL0    Cl68948   5.797   8.408   7.892 -0.0573  0.2390  0.5799
  523MOL0     C68949   6.909   8.383   8.258 -0.4292  0.8866 -0.1560
  523MOL0     C68950   7.038   8.374   8.322 -0.2156 -0.6805 -0.0577
  523MOL0     O68951   7.271   8.126   8.340  0.0451  0.3451 -0.6727
  523MOL0     C68952   7.532   8.154   8.445  0.8086 -0.4008 -0.5879
  523MOL0     C68953   7.657   8.175   8.499 -0.3026  1.0056 -0.0917
  523MOL0     N68954   8.407   8.501   8.242  0.3648  0.3439  0.3653
  523MOL0     N68955   8.510   8.543   8.188  0.4251  0.1752  0.2446
  523MOL0     C68956   9.349   8.903   7.618 -0.1400  1.4198  0.2782
  523MOL0     C68957   9.412   8.990   7.532 -0.1683  1.1104  0.4155
  523MOL0     C68958   9.780   9.234   7.375 -0.9471  0.2813  0.7604
  523MOL0     C68959   9.737   9.252   7.244  0.6980  1.4352  0.0927
  523MOL0     C68960   9.807   9.338   7.160  0.7357 -0.6122  0.4503
  523MOL0     C68961   9.919   9.406   7.197 -0.6763 -0.5668 -0.7743
  523MOL0     O68962   9.969   9.506   7.122  0.0249 -0.2527 -0.1666
  523MOL0     C68963  10.032   9.620   7.199  0.3684 -0.8095  0.6298
  523MOL0     C68964  10.057   9.729   7.094 -0.6245 -0.2940 -0.3409
  523MOL0     C68965   9.931   9.763   7.019  0.4821  0.2368  0.1527
  523MOL0     C68966   9.920   9.694   6.888  0.9105  0.2554  1.3225
  523MOL0     C68967  10.005   9.766   6.787 -0.0144 -0.9904 -0.3673
  523MOL0     C68968  10.072   9.835   6.716  0.0167  0.7647  0.5051
  523MOL0     C68969   9.969   9.381   7.329  0.7763 -0.0053  0.3003
  523MOL0     C68970   9.899   9.303   7.416  0.8258  0.3776  0.4833
  523MOL0     H68971   9.723   8.857   7.569  0.2146 -0.5641  0.2485
  523MOL0     H68972   9.617   8.712   7.709  0.1402 -0.3026 -0.4355
  523MOL0     H68973   9.159   8.708   7.714  1.7017  0.2526 -1.6402
  523MOL0     H68974   9.194   8.833   7.840  0.8908  0.9164 -1.0856
  523MOL0     H68975   9.203   8.529   7.896 -2.0944 -1.2355  1.5223
  523MOL0     H68976   9.062   8.640   7.930  0.0444 -0.0575 -0.9908
  523MOL0     H68977   9.185   8.750   8.086  0.7382  0.4353  0.1614
  523MOL0     H68978   9.349   8.682   8.046  0.3877 -0.7079  0.8765
  523MOL0     H68979   9.240   8.461   8.106  2.0913  2.1878 -3.1097
  523MOL0     H68980   9.269   8.558   8.248 -0.6874  4.1951  0.0512
  523MOL0     H68981   9.013   8.636   8.217 -2.6890  0.2316 -5.5540
  523MOL0     H68982   9.073   8.489   8.314  0.4662 -2.3955 -1.8973
  523MOL0     H68983   9.024   8.360   8.106 -1.3001 -0.7060  0.8644
  523MOL0     H68984   8.944   8.514   8.046 -3.1043  0.7602  0.3486
  523MOL0     H68985   8.777   8.354   8.148 -1.1819 -0.0733  1.9177
  523MOL0     H68986   8.872   8.361   8.293  0.7851  0.1721 -1.1241
  523MOL0     H68987   8.761   8.598   8.149 -0.3298 -1.4979 -0.4322
  523MOL0     H68988   8.791   8.598   8.312  2.4199  1.4205 -2.2829
  523MOL0     H68989   8.609   8.362   8.445  1.3130  0.8029  0.0781
  523MOL0     H68990   8.320   8.410   8.522 -1.2799 -0.7193 -0.7116
  523MOL0     H68991   8.368   8.243   8.478 -0.8488  1.1053  3.8412
  523MOL0     H68992   8.199   8.265   8.297 -1.4137  0.0973 -1.3981
  523MOL0     H68993   8.164   8.435   8.353 -2.4168 -1.3678 -0.5595
  523MOL0     H68994   8.093   8.171   8.474 -0.2900  0.3674 -2.5660
  523MOL0     H68995   8.118   8.303   8.582  2.0720  0.6529 -0.6223
  523MOL0     H68996   7.927   8.298   8.339  1.7159  0.6469 -1.1316
  523MOL0     H68997   7.945   8.441   8.442  0.6739  0.2430  1.1129
  523MOL0     H68998   7.716   8.499   8.397  3.4487 -0.4601  2.7456
  523MOL0     H68999   7.488   8.445   8.284  0.7176 -0.5858 -2.3894
  523MOL0     H69000   7.207   8.267   8.044  0.0452  2.9635 -0.0226
  523MOL0     H69001   7.007   8.280   7.936 -0.3706  0.7557  0.0475
  523MOL0     H69002   6.755   8.185   7.946  1.1165  0.6277  1.1123
  523MOL0     H69003   6.820   8.317   7.867 -1.9504 -1.5309 -0.3195
  523MOL0     H69004   6.609   8.427   7.830 -0.2750 -0.7311 -2.2397
  523MOL0     H69005   6.543   8.356   7.981 -0.9015 -2.4370  0.6184
  523MOL0     H69006   6.525   8.140   7.867  3.1452 -0.7346 -0.5012
  523MOL0     H69007   6.616   8.197   7.729 -0.6240  1.2749 -0.5803
  523MOL0     H69008   6.432   8.352   7.665 -1.5689  0.4338  0.6184
  523MOL0     H69009   6.400   8.178   7.657  1.6776 -2.4953  2.3872
  523MOL0     H69010   6.313   8.395   7.841  2.8753  0.7936  4.0346
  523MOL0     H69011   6.316   8.239   7.920 -2.7686  3.2206  1.3224
  523MOL0     H69012   6.148   8.154   7.748 -1.9184  0.6080 -0.8456
  523MOL0     H69013   6.169   8.320   7.674  0.7226  0.7116  0.7627
  523MOL0     H69014   6.070   8.269   7.961 -0.3887 -0.2752  0.7471
  523MOL0     H69015   6.088   8.417   7.872 -0.7058  0.0421  0.8967
  523MOL0     H69016   5.881   8.197   7.813  1.5997  0.0443 -0.9043
  523MOL0     H69017   5.917   8.324   7.701  2.0482 -0.9176 -0.3122
  523MOL0     H69018   6.817   8.422   8.301 -0.4522  1.7715 -0.9704
  523MOL0     H69019   7.052   8.395   8.428  0.6120 -0.9018 -0.1162
  523MOL0     H69020   7.484   8.059   8.464  1.6933 -0.8086 -0.3066
  523MOL0     H69021   7.698   8.085   8.542 -0.9630 -0.3400 -2.1332
  523MOL0     H69022   9.244   8.907   7.642 -0.0315 -1.2347  1.5745
  523MOL0     H69023   9.340   9.063   7.495 -1.4600  0.6895  1.9866
  523MOL0     H69024   9.647   9.199   7.214  1.2293 -0.8158  2.1420
  523MOL0     H69025   9.761   9.362   7.064 -0.6505  0.3781  1.3106
  523MOL0     H69026  10.129   9.610   7.249  3.7756 -1.7521 -5.2102
  523MOL0     H69027   9.964   9.670   7.268  1.1112 -0.6937  1.2875
  523MOL0     H69028  10.082   9.818   7.153  0.8075 -0.3862 -0.7722
  523MOL0     H69029  10.140   9.691   7.033 -1.4642 -2.4413 -0.2042
  523MOL0     H69030   9.925   9.870   7.001 -0.0348 -0.1938 -2.6212
  523MOL0     H69031   9.851   9.719   7.080  0.8788 -3.2761 -1.5654
  523MOL0     H69032   9.955   9.590   6.898 -0.7985 -0.5762 -0.5698
  523MOL0     H69033   9.818   9.676   6.853  1.4827 -2.8693  0.9512
  523MOL0     H69034  10.114   9.898   6.641  0.0489  0.8913  0.6285
  523MOL0     H69035  10.063   9.423   7.364  0.3772  1.4955 -0.3645
  523MOL0     H69036   9.947   9.282   7.511 -1.1576 -2.0080  1.0702
  524MOL0     O69037   5.933   5.892   5.266  0.5363 -0.1819 -0.1711
  524MOL0     C69038   6.016   5.915   5.351  0.9136 -0.9297 -0.0240
  524MOL0     O69039   6.010   6.023   5.440  0.5336  0.4607 -0.4872
  524MOL0     C69040   5.897   6.108   5.425  0.1136  0.0996 -0.4524
  524MOL0     C69041   5.801   6.093   5.519 -0.1045 -0.2921 -0.9150
  524MOL0     C69042   5.696   6.185   5.532 -0.7282  0.1169  0.8514
  524MOL0     C69043   5.687   6.291   5.447  0.1221  0.2301 -0.5108
  524MOL0     O69044   5.589   6.385   5.431 -0.4329 -0.7365 -0.4773
  524MOL0     C69045   5.485   6.395   5.526  0.4460  0.2871  1.4957
  524MOL0     C69046   5.422   6.535   5.518  0.5352 -0.3089 -0.6423
  524MOL0     C69047   5.289   6.540   5.594 -0.0580 -1.1403  0.4666
  524MOL0     C69048   5.218   6.673   5.555  0.0867  0.0862 -0.1235
  524MOL0     C69049   5.087   6.678   5.619  1.3007  0.3469 -0.4024
  524MOL0     C69050   4.971   6.636   5.521  0.6004 -0.6537 -0.7090
  524MOL0     C69051   4.830   6.643   5.579 -0.8696  0.3495  0.6070
  524MOL0     C69052   4.780   6.795   5.591 -0.3472  0.3867 -0.4408
  524MOL0     N69053   4.638   6.792   5.616 -0.3687 -0.2521 -0.7238
  524MOL0     C69054   4.568   6.776   5.733 -0.1333  0.2903  0.0725
  524MOL0     C69055   4.433   6.802   5.709 -0.1066 -0.4362  0.0216
  524MOL0     C69056   4.314   6.788   5.811 -0.4632  0.3026  1.1174
  524MOL0     C69057   4.219   6.692   5.733 -0.5206 -0.4617  0.2787
  524MOL0     C69058   4.093   6.661   5.821 -0.6691  0.3586 -0.3447
  524MOL0     C69059   3.993   6.556   5.766  0.3626  0.1736  0.0544
  524MOL0     O69060   3.896   6.530   5.866  0.3850  0.0417  0.7868
  524MOL0     C69061   3.765   6.530   5.827 -0.3685  0.0413  0.0296
  524MOL0     C69062   3.668   6.593   5.899 -0.3307 -0.9838 -0.5512
  524MOL0     C69063   3.535   6.585   5.858 -0.5880 -0.1432 -0.2349
  524MOL0     C69064   3.496   6.502   5.744  0.1163  0.1107  0.4388
  524MOL0     C69065   3.354   6.467   5.717  1.1363 -0.1162  0.0690
  524MOL0     O69066   3.340   6.345   5.661  0.0271 -0.4602  0.3141
  524MOL0     C69067   3.216   6.314   5.615 -0.9097 -0.0702  0.1823
  524MOL0     C69068   3.099   6.318   5.692  0.0065  0.5974  0.2934
  524MOL0     C69069   2.983   6.260   5.630  0.0897 -0.2369 -0.4419
  524MOL0     C69070   2.982   6.224   5.496 -0.2406  0.1392 -0.2791
  524MOL0     O69071   2.858   6.186   5.443  1.3142  0.0761  0.3823
  524MOL0     C69072   2.735   6.196   5.510  0.3090  0.8325 -0.4562
  524MOL0     C69073   2.604   6.200   5.440  0.8700  0.2969  0.2559
  524MOL0     C69074   2.610   6.290   5.315  1.0526  0.3263 -0.5986
  524MOL0     C69075   2.488   6.266   5.228  0.4978 -0.1862 -0.2004
  524MOL0     C69076   2.471   6.369   5.114  1.0986  0.1991 -0.2911
  524MOL0     C69077   2.343   6.348   5.037  0.4636 -1.5354 -0.4661
  524MOL0     C69078   2.329   6.438   4.923  0.4579 -0.4512  0.6665
  524MOL0     C69079   2.214   6.402   4.829 -0.7267 -0.5878 -0.8161
  524MOL0    Cl69080   2.057   6.401   4.907 -0.0022  0.0780 -0.4386
  524MOL0     C69081   3.101   6.225   5.425 -0.5071  0.5851  0.0688
  524MOL0     C69082   3.217   6.271   5.489 -0.6179 -0.2428  0.1697
  524MOL0     O69083   3.265   6.554   5.731  0.5887 -0.3519 -0.4193
  524MOL0     C69084   3.599   6.433   5.682 -0.4752 -0.1509 -0.1277
  524MOL0     C69085   3.732   6.448   5.723  0.2465  0.0884  0.5587
  524MOL0     N69086   4.425   6.828   5.576 -0.5214  0.0505  0.0256
  524MOL0     N69087   4.545   6.823   5.522 -0.4787  0.6230 -0.9789
  524MOL0     C69088   5.787   6.304   5.347  0.1977  0.0679 -0.3010
  524MOL0     C69089   5.886   6.205   5.326  0.5154 -0.5201  0.5179
  524MOL0     C69090   6.137   5.833   5.356 -0.0357  0.2631  0.3656
  524MOL0     C69091   6.189   5.794   5.235  0.2013 -0.4815  0.6065
  524MOL0     C69092   6.304   5.712   5.233  0.9432  0.9445 -1.2983
  524MOL0     C69093   6.376   5.683   5.344  0.1233 -0.0960 -0.7179
  524MOL0     O69094   6.496   5.618   5.344 -0.3135 -0.1047 -0.7048
  524MOL0     C69095   6.559   5.579   5.218  0.5434 -0.1721 -0.6169
  524MOL0     C69096   6.698   5.549   5.254  0.7929 -0.2424  0.3319
  524MOL0     C69097   6.773   5.678   5.282 -0.6517 -0.0345  1.0518
  524MOL0     C69098   6.916   5.641   5.323  0.2954 -0.0622 -0.4138
  524MOL0     C69099   6.983   5.569   5.212 -0.2269 -1.7519  0.5155
  524MOL0     C69100   7.037   5.539   5.109 -0.0275  0.5550 -0.4094
  524MOL0     C69101   6.318   5.725   5.469 -0.0639  0.2837 -0.2924
  524MOL0     C69102   6.208   5.805   5.472  0.8606  0.1844 -0.2457
  524MOL0     H69103   5.805   6.014   5.593 -1.8027 -0.3564 -0.8386
  524MOL0     H69104   5.627   6.151   5.608  0.0224 -0.7395  1.1694
  524MOL0     H69105   5.533   6.374   5.622  5.3576 -1.5099 -1.0365
  524MOL0     H69106   5.414   6.319   5.492  1.2871  0.7725 -1.5869
  524MOL0     H69107   5.405   6.576   5.418  0.4095 -1.9584 -1.3358
  524MOL0     H69108   5.502   6.594   5.565  0.5261 -0.5730 -0.2910
  524MOL0     H69109   5.310   6.539   5.701  0.4490  1.0224  0.4458
  524MOL0     H69110   5.226   6.454   5.574  2.1300 -2.0353 -3.5963
  524MOL0     H69111   5.279   6.753   5.599  0.4488 -1.7130  2.9969
  524MOL0     H69112   5.214   6.673   5.446 -1.2116  0.5936 -0.0871
  524MOL0     H69113   5.056   6.777   5.654 -3.5102 -0.6245 -1.1060
  524MOL0     H69114   5.086   6.621   5.712  1.4363  0.6592 -0.2070
  524MOL0     H69115   4.986   6.532   5.492 -0.4889 -1.4423  1.3564
  524MOL0     H69116   4.967   6.698   5.431  1.6556  1.1780  0.4308
  524MOL0     H69117   4.773   6.582   5.509 -0.1429 -3.3893  2.9964
  524MOL0     H69118   4.822   6.589   5.674 -0.4675 -1.9746 -0.5979
  524MOL0     H69119   4.800   6.848   5.498 -0.2460  2.1027  0.5244
  524MOL0     H69120   4.840   6.844   5.668  1.0244 -1.2800 -0.3694
  524MOL0     H69121   4.606   6.736   5.827  1.0373 -1.5458 -1.0973
  524MOL0     H69122   4.272   6.889   5.820  0.6801  0.9565 -0.3911
  524MOL0     H69123   4.341   6.754   5.912  0.7563  5.7306  2.9529
  524MOL0     H69124   4.283   6.604   5.718  0.9569  0.2559  2.0348
  524MOL0     H69125   4.188   6.744   5.642  3.8121 -2.2466 -2.5727
  524MOL0     H69126   4.138   6.623   5.913 -1.2057 -1.2534 -0.7159
  524MOL0     H69127   4.032   6.750   5.839  0.3846  0.8894  0.7457
  524MOL0     H69128   4.038   6.461   5.736  3.0901  2.2533 -3.1133
  524MOL0     H69129   3.935   6.588   5.678 -0.4688 -1.5510 -0.0862
  524MOL0     H69130   3.689   6.646   5.992  0.4987 -1.6063 -0.3721
  524MOL0     H69131   3.450   6.631   5.909 -0.8920 -0.5607 -0.3612
  524MOL0     H69132   3.108   6.354   5.794  0.6426  1.5890 -0.0975
  524MOL0     H69133   2.891   6.268   5.687 -0.5198 -0.6916 -1.3358
  524MOL0     H69134   2.734   6.298   5.551 -0.1274 -0.1881  2.3106
  524MOL0     H69135   2.741   6.115   5.582  1.7652  1.1131 -0.2296
  524MOL0     H69136   2.521   6.231   5.504 -0.2069  2.5209 -2.0013
  524MOL0     H69137   2.581   6.099   5.405 -2.2076  0.6472  0.9850
  524MOL0     H69138   2.697   6.253   5.260 -0.6633 -4.4468 -0.5535
  524MOL0     H69139   2.621   6.397   5.338  0.6866 -0.1247  1.9646
  524MOL0     H69140   2.483   6.163   5.190  0.0274 -0.4200  0.4694
  524MOL0     H69141   2.402   6.269   5.295  2.1866 -0.8160  2.1400
  524MOL0     H69142   2.551   6.354   5.041  0.2382  2.4439 -1.7944
  524MOL0     H69143   2.477   6.472   5.151 -1.7203  0.5177 -0.5151
  524MOL0     H69144   2.249   6.371   5.088  0.3960 -0.8282 -0.8949
  524MOL0     H69145   2.350   6.247   4.995 -0.0423 -1.3464 -1.0301
  524MOL0     H69146   2.309   6.541   4.954  0.6281 -0.2662  0.1730
  524MOL0     H69147   2.418   6.431   4.859 -0.4113  0.3834 -0.6906
  524MOL0     H69148   2.227   6.305   4.779 -0.6311 -0.2811 -1.4001
  524MOL0     H69149   2.216   6.470   4.743  3.0941 -0.7837 -1.0490
  524MOL0     H69150   3.091   6.215   5.318  1.1668  1.5536 -0.2244
  524MOL0     H69151   3.308   6.271   5.430 -1.1198 -2.8952 -0.7461
  524MOL0     H69152   3.572   6.382   5.589 -0.3843 -1.3925  0.5034
  524MOL0     H69153   3.810   6.398   5.666 -1.6159 -2.8960  0.4158
  524MOL0     H69154   5.769   6.381   5.273  2.2103 -0.0363 -0.9613
  524MOL0     H69155   5.944   6.195   5.235  2.7781  2.9687  1.3790
  524MOL0     H69156   6.130   5.816   5.147  0.1017 -2.6796  0.0801
  524MOL0     H69157   6.336   5.676   5.135  1.6730  1.0769 -1.1115
  524MOL0     H69158   6.542   5.643   5.130 -2.5744 -0.5619 -0.3945
  524MOL0     H69159   6.512   5.490   5.176 -1.3136  0.0955  0.7466
  524MOL0     H69160   6.703   5.483   5.341 -0.7168 -1.6853 -0.6248
  524MOL0     H69161   6.745   5.501   5.168  0.3890  0.2521 -0.1740
  524MOL0     H69162   6.724   5.744   5.353 -3.6485 -0.7438 -0.1822
  524MOL0     H69163   6.775   5.726   5.183  2.7065 -1.1269  0.4546
  524MOL0     H69164   6.975   5.729   5.352 -0.9977  1.0119 -0.9500
  524MOL0     H69165   6.916   5.578   5.413 -2.1979 -2.4332 -1.9116
  524MOL0     H69166   7.095   5.496   5.030  0.0629  3.0994 -1.8495
  524MOL0     H69167   6.376   5.697   5.556  2.2745  3.0856 -0.7977
  524MOL0     H69168   6.159   5.835   5.564 -0.3357  3.9536 -1.9191
  525MOL0     O69169   8.069   4.469   9.223  0.2682 -0.7134 -0.6951
  525MOL0     C69170   8.120   4.463   9.333  0.5951  0.1522 -0.1552
  525MOL0     O69171   8.046   4.451   9.449 -0.8534 -0.0873 -0.2121
  525MOL0     C69172   7.915   4.461   9.453  0.0127 -0.0509  0.2320
  525MOL0     C69173   7.868   4.407   9.578  0.5228  0.5127  0.2205
  525MOL0     C69174   7.728   4.418   9.615 -0.1990 -0.2044 -1.0337
  525MOL0     C69175   7.635   4.475   9.531 -0.7205  0.5213  0.0640
  525MOL0     O69176   7.504   4.485   9.573  0.0581  0.5437  0.4625
  525MOL0     C69177   7.416   4.486   9.460  1.3499 -0.6272 -1.4804
  525MOL0     C69178   7.273   4.467   9.513  0.5564  0.4234 -0.5994
  525MOL0     C69179   7.162   4.521   9.425  0.4016  0.5349 -0.6058
  525MOL0     C69180   7.156   4.450   9.288  0.1547 -0.8312 -0.3147
  525MOL0     C69181   7.047   4.517   9.200  0.5452 -0.3181 -1.3218
  525MOL0     C69182   6.892   4.520   9.244 -0.3763 -0.0458  0.2310
  525MOL0     C69183   6.793   4.482   9.129 -0.3964  0.4330 -0.2079
  525MOL0     C69184   6.803   4.345   9.082  0.6298  0.7498 -0.4030
  525MOL0     N69185   6.720   4.334   8.959 -0.0576  0.1146 -1.1494
  525MOL0     C69186   6.578   4.327   8.950 -0.1277  0.1826  1.1210
  525MOL0     C69187   6.555   4.299   8.816  0.0758 -0.0289  0.3013
  525MOL0     C69188   6.417   4.277   8.752  0.1005  0.4551 -0.4915
  525MOL0     C69189   6.347   4.151   8.802  0.2147 -0.4905  0.2951
  525MOL0     C69190   6.248   4.197   8.911  0.8127  0.6054  0.2118
  525MOL0     C69191   6.127   4.272   8.852 -0.5676 -0.6220  0.3322
  525MOL0     O69192   6.046   4.162   8.814  0.2249  0.0569 -0.5185
  525MOL0     C69193   5.909   4.182   8.811  0.1135 -0.9407  0.5124
  525MOL0     C69194   5.841   4.307   8.798  0.5114  0.8143  0.4054
  525MOL0     C69195   5.704   4.313   8.814  0.3317 -0.2036  0.6711
  525MOL0     C69196   5.625   4.194   8.842 -0.3146 -0.4282  0.3615
  525MOL0     C69197   5.481   4.201   8.846 -0.8388 -0.3659  0.6640
  525MOL0     O69198   5.424   4.314   8.791  0.2830  0.2111  0.5943
  525MOL0     C69199   5.291   4.332   8.791 -0.6470 -0.2281  0.2102
  525MOL0     C69200   5.252   4.400   8.670  0.4218  0.1425 -0.9419
  525MOL0     C69201   5.111   4.428   8.657 -0.1356 -0.6462  0.4901
  525MOL0     C69202   5.017   4.408   8.759  0.2100  0.7998  0.5809
  525MOL0     O69203   4.896   4.452   8.735 -0.1889  0.1876 -1.2976
  525MOL0     C69204   4.785   4.362   8.763 -0.2679  0.0433 -0.3015
  525MOL0     C69205   4.666   4.373   8.667 -0.6353 -0.8553  1.2435
  525MOL0     C69206   4.716   4.329   8.527 -0.0057 -0.4383  0.4045
  525MOL0     C69207   4.601   4.330   8.429 -0.5510 -0.1522  0.5485
  525MOL0     C69208   4.534   4.196   8.457  0.1165 -0.7053 -0.7655
  525MOL0     C69209   4.389   4.199   8.416 -0.1618  0.1223  0.2496
  525MOL0     C69210   4.368   4.193   8.261 -0.3394 -0.0947  0.1937
  525MOL0     C69211   4.215   4.195   8.241  0.0812 -0.0237 -0.0032
  525MOL0    Cl69212   4.184   4.241   8.081 -0.3402  0.1828  0.7570
  525MOL0     C69213   5.063   4.336   8.870 -0.6869 -0.6134 -0.1549
  525MOL0     C69214   5.194   4.289   8.886 -0.2790  0.2487  0.0061
  525MOL0     O69215   5.423   4.108   8.896  0.5478  0.1452  0.5122
  525MOL0     C69216   5.689   4.072   8.845 -0.0617 -0.0009  0.1450
  525MOL0     C69217   5.827   4.068   8.829 -0.3123  0.1046 -0.0409
  525MOL0     N69218   6.675   4.304   8.746 -0.0377  0.8941 -0.3850
  525MOL0     N69219   6.769   4.321   8.835  0.4164 -0.0126 -0.0570
  525MOL0     C69220   7.685   4.537   9.409  0.0231 -0.1613 -0.7195
  525MOL0     C69221   7.824   4.525   9.375  0.2666 -0.1088  0.6449
  525MOL0     C69222   8.265   4.473   9.335 -0.2770 -0.6736 -0.3441
  525MOL0     C69223   8.324   4.506   9.458 -0.2299  0.3705  0.2818
  525MOL0     C69224   8.461   4.533   9.460 -0.4882 -0.2034  0.0560
  525MOL0     C69225   8.542   4.508   9.345  0.1274 -0.7014 -0.5633
  525MOL0     O69226   8.678   4.547   9.337  0.4287 -0.7596  0.0314
  525MOL0     C69227   8.754   4.582   9.450  0.1410 -0.1679  1.1574
  525MOL0     C69228   8.906   4.587   9.407  0.5151  0.4249  0.2950
  525MOL0     C69229   9.006   4.601   9.523 -0.3144 -0.1768 -0.0290
  525MOL0     C69230   9.147   4.592   9.476 -0.2265 -0.8476 -0.6212
  525MOL0     C69231   9.181   4.723   9.414 -1.6054  0.8729  0.1970
  525MOL0     C69232   9.212   4.818   9.344 -0.2593  0.5071  0.8524
  525MOL0     C69233   8.478   4.465   9.225 -0.2766 -0.0502  0.6928
  525MOL0     C69234   8.339   4.461   9.216 -0.1408 -0.3005 -0.2837
  525MOL0     H69235   7.941   4.375   9.652  0.3855  1.8111  0.9593
  525MOL0     H69236   7.703   4.382   9.714  4.1845  0.1481  0.4501
  525MOL0     H69237   7.441   4.397   9.401  0.0091 -1.0529 -1.4420
  525MOL0     H69238   7.416   4.588   9.421 -1.4111  0.9429  2.0439
  525MOL0     H69239   7.268   4.504   9.616 -3.9998 -3.8791  1.1758
  525MOL0     H69240   7.266   4.358   9.522  3.2215  0.0842 -1.7953
  525MOL0     H69241   7.182   4.624   9.394 -2.7153  1.5461  0.4248
  525MOL0     H69242   7.064   4.521   9.474 -0.0099  1.1797 -1.4143
  525MOL0     H69243   7.259   4.456   9.253  0.3512  0.3986  0.4458
  525MOL0     H69244   7.127   4.344   9.295 -2.2739 -0.1582  0.7380
  525MOL0     H69245   7.046   4.469   9.102 -0.9769  0.3052 -1.6535
  525MOL0     H69246   7.082   4.620   9.188  2.9099 -0.3344  3.2492
  525MOL0     H69247   6.874   4.626   9.266  1.8796  1.1610 -2.9823
  525MOL0     H69248   6.865   4.462   9.333 -2.3268 -0.2845 -0.4697
  525MOL0     H69249   6.695   4.509   9.168 -1.2524 -1.2677 -1.0656
  525MOL0     H69250   6.809   4.535   9.035 -1.4451  0.5856 -0.3094
  525MOL0     H69251   6.761   4.280   9.160  3.7142 -1.5890 -0.4509
  525MOL0     H69252   6.903   4.308   9.057  1.0000  1.6201 -0.2385
  525MOL0     H69253   6.502   4.347   9.026 -3.0316  0.6845 -1.7091
  525MOL0     H69254   6.433   4.266   8.644  2.1765 -1.3335 -0.0657
  525MOL0     H69255   6.359   4.369   8.760 -1.8344 -0.5757 -1.7545
  525MOL0     H69256   6.420   4.077   8.838  0.1697 -0.3430  0.6957
  525MOL0     H69257   6.279   4.113   8.726 -1.4651  2.6621  0.0486
  525MOL0     H69258   6.215   4.105   8.959  0.7290  0.9746  0.8624
  525MOL0     H69259   6.301   4.258   8.985  1.1482  1.0033 -0.3431
  525MOL0     H69260   6.139   4.337   8.766 -1.9738 -0.4138  0.2605
  525MOL0     H69261   6.073   4.325   8.931 -1.8922 -3.2799  1.3405
  525MOL0     H69262   5.896   4.396   8.769  1.2196  0.2677  0.0161
  525MOL0     H69263   5.654   4.409   8.810  1.6890  0.5430  0.9765
  525MOL0     H69264   5.326   4.423   8.594  0.9509  1.6729 -0.0061
  525MOL0     H69265   5.064   4.467   8.568 -2.2868 -1.9539  0.9846
  525MOL0     H69266   4.758   4.370   8.869  1.5335 -2.3570  0.4331
  525MOL0     H69267   4.822   4.260   8.750  2.9381  0.6600  2.3267
  525MOL0     H69268   4.633   4.477   8.666 -0.1484 -0.7023  1.0602
  525MOL0     H69269   4.585   4.311   8.708 -0.9204  0.2334  2.4131
  525MOL0     H69270   4.757   4.228   8.542 -0.8965 -0.4776  3.0091
  525MOL0     H69271   4.803   4.382   8.488  3.1688 -1.4581  5.2007
  525MOL0     H69272   4.540   4.420   8.437  0.4531  0.9877 -2.7945
  525MOL0     H69273   4.640   4.318   8.327 -3.7541  0.0615 -0.7993
  525MOL0     H69274   4.521   4.168   8.562  0.1930  2.0580  0.0573
  525MOL0     H69275   4.588   4.113   8.410  0.3585 -2.9675  3.0353
  525MOL0     H69276   4.342   4.292   8.450 -3.2408 -1.3789  0.4916
  525MOL0     H69277   4.339   4.116   8.468 -1.2429  0.8945  0.4770
  525MOL0     H69278   4.421   4.275   8.213 -1.3196  0.4130 -0.0416
  525MOL0     H69279   4.400   4.094   8.224 -0.2695 -0.5748  1.4814
  525MOL0     H69280   4.174   4.272   8.307 -0.8402 -2.7632  2.8466
  525MOL0     H69281   4.165   4.100   8.262 -2.3063  0.5711 -2.5547
  525MOL0     H69282   4.997   4.304   8.949 -0.7078  1.3540  0.6943
  525MOL0     H69283   5.215   4.229   8.974 -0.0646  0.4931  0.1217
  525MOL0     H69284   5.640   3.975   8.846  1.5785 -0.8699 -0.4573
  525MOL0     H69285   5.874   3.974   8.855  0.8436  0.7843  0.4267
  525MOL0     H69286   7.617   4.595   9.347 -1.4742  0.4658  1.4289
  525MOL0     H69287   7.858   4.580   9.288 -2.0002 -1.0388 -0.9228
  525MOL0     H69288   8.268   4.507   9.551 -1.0813  1.1782 -0.2171
  525MOL0     H69289   8.493   4.567   9.558 -0.7763  0.2541 -0.0026
  525MOL0     H69290   8.747   4.513   9.535 -0.4188 -0.4147  0.9117
  525MOL0     H69291   8.723   4.681   9.484 -0.5285  0.0447 -0.0433
  525MOL0     H69292   8.918   4.496   9.348  0.0277  0.1034  0.6895
  525MOL0     H69293   8.916   4.672   9.338  0.8857  2.1821  2.4059
  525MOL0     H69294   8.987   4.516   9.589 -0.7639 -1.2091 -1.4237
  525MOL0     H69295   8.990   4.698   9.570 -0.7145 -1.7465  3.3745
  525MOL0     H69296   9.225   4.569   9.548 -0.6561  2.1729  0.9819
  525MOL0     H69297   9.164   4.515   9.400 -0.9438 -1.5696 -0.0669
  525MOL0     H69298   9.230   4.898   9.275 -1.4481 -0.0517 -0.1533
  525MOL0     H69299   8.530   4.445   9.132  0.5811 -0.2532  1.2014
  525MOL0     H69300   8.292   4.443   9.120  0.9181 -0.7467 -0.7318
  526MOL0     O69301   3.253   3.487   3.683  0.2350  0.6049 -0.3606
  526MOL0     C69302   3.269   3.572   3.762 -0.0097  0.1582 -0.2864
  526MOL0     O69303   3.178   3.634   3.840  0.3616 -0.2568 -0.9489
  526MOL0     C69304   3.048   3.629   3.799  0.7799 -0.5770  0.2635
  526MOL0     C69305   2.997   3.725   3.710  0.3455 -0.7559  0.5221
  526MOL0     C69306   2.858   3.727   3.680  0.0498 -0.5713 -0.1974
  526MOL0     C69307   2.777   3.634   3.738 -0.2691  0.0619  0.8934
  526MOL0     O69308   2.648   3.671   3.707 -1.1229  0.7486 -0.3084
  526MOL0     C69309   2.542   3.587   3.746 -0.0611 -0.4419 -0.3293
  526MOL0     C69310   2.407   3.641   3.703  0.8192 -0.7552 -0.1062
  526MOL0     C69311   2.381   3.657   3.556  0.7143 -0.3251 -0.3017
  526MOL0     C69312   2.287   3.781   3.539  1.0862  0.6239  0.3676
  526MOL0     C69313   2.140   3.763   3.596  0.3445 -0.7229  0.3576
  526MOL0     C69314   2.067   3.652   3.519  0.2301 -0.3426  0.0537
  526MOL0     C69315   2.061   3.670   3.366 -0.4821 -0.2597  0.6778
  526MOL0     C69316   2.001   3.798   3.312 -0.4087 -0.0001 -0.0289
  526MOL0     N69317   2.007   3.792   3.171 -1.2380 -0.3086  0.3451
  526MOL0     C69318   1.938   3.710   3.076  0.0612 -1.0002  0.5724
  526MOL0     C69319   1.984   3.751   2.952 -0.8249  0.1015 -0.5473
  526MOL0     C69320   1.951   3.688   2.823 -0.4457  0.1684 -0.0047
  526MOL0     C69321   1.955   3.532   2.826 -0.0166  0.2705 -0.4765
  526MOL0     C69322   1.963   3.461   2.686 -0.9372  0.8360 -0.3877
  526MOL0     C69323   1.837   3.471   2.614 -0.2814  0.9802 -0.4162
  526MOL0     O69324   1.734   3.408   2.684 -1.0662 -0.4159  0.6393
  526MOL0     C69325   1.619   3.388   2.619 -0.2415 -0.8779  0.0237
  526MOL0     C69326   1.562   3.272   2.656  0.3248  0.3347 -0.4334
  526MOL0     C69327   1.439   3.225   2.593 -0.6874 -0.0466 -0.8984
  526MOL0     C69328   1.378   3.306   2.504 -0.2738 -0.2530  0.2191
  526MOL0     C69329   1.254   3.263   2.440 -0.4039 -0.2363  0.1404
  526MOL0     O69330   1.190   3.355   2.360 -0.3890 -0.1394  0.5823
  526MOL0     C69331   1.070   3.333   2.296  0.7137 -0.2467 -0.3612
  526MOL0     C69332   1.008   3.208   2.274 -0.3444  0.8204  0.1730
  526MOL0     C69333   0.884   3.196   2.205 -0.2731  0.0134  0.0885
  526MOL0     C69334   0.825   3.310   2.154 -0.0586  0.3018 -0.3571
  526MOL0     O69335   0.706   3.300   2.088 -0.3395 -0.0675 -0.1882
  526MOL0     C69336   0.697   3.364   1.962  0.4046  0.2623  0.1683
  526MOL0     C69337   0.565   3.317   1.897  0.4311 -0.8229  0.1026
  526MOL0     C69338   0.561   3.163   1.878 -0.6055 -0.2954  1.1055
  526MOL0     C69339   0.463   3.120   1.759 -0.7305 -0.8368 -0.1925
  526MOL0     C69340   0.325   3.181   1.772 -1.1951 -0.1517 -0.3919
  526MOL0     C69341   0.216   3.092   1.711  0.1560 -0.3403  0.3638
  526MOL0     C69342   0.080   3.164   1.709 -0.0136  0.8150  0.4509
  526MOL0     C69343  -0.025   3.085   1.632 -0.0414 -0.6071  0.3368
  526MOL0    Cl69344  -0.077   2.958   1.727  0.0066 -0.4446  0.3821
  526MOL0     C69345   0.887   3.435   2.171  0.0622  0.7699  1.2481
  526MOL0     C69346   1.009   3.440   2.239  0.2035  0.6758 -0.5810
  526MOL0     O69347   1.216   3.149   2.466 -0.6207 -0.1986  0.1407
  526MOL0     C69348   1.437   3.423   2.459 -1.0213  0.1356  0.3479
  526MOL0     C69349   1.556   3.467   2.522  0.1018 -0.0222 -0.1513
  526MOL0     N69350   2.070   3.856   2.972 -0.2998  0.7591  0.2819
  526MOL0     N69351   2.076   3.894   3.098 -0.1430  0.5592 -0.2370
  526MOL0     C69352   2.825   3.540   3.825 -0.1696  0.2307 -0.5022
  526MOL0     C69353   2.961   3.530   3.854 -0.4279  0.2733  0.0137
  526MOL0     C69354   3.406   3.614   3.791  0.3633 -0.5101  0.3829
  526MOL0     C69355   3.513   3.559   3.711  0.7636  0.1540  0.1082
  526MOL0     C69356   3.639   3.565   3.750  0.4895 -0.4960  0.4278
  526MOL0     C69357   3.676   3.640   3.865  0.3961 -0.5907  0.3431
  526MOL0     O69358   3.808   3.666   3.897 -0.5251 -0.8613  0.4639
  526MOL0     C69359   3.885   3.550   3.926 -0.2281  0.1919 -0.4065
  526MOL0     C69360   3.859   3.512   4.070  0.9093 -0.2914  0.2601
  526MOL0     C69361   3.901   3.374   4.115 -0.2483  0.2282  0.2588
  526MOL0     C69362   4.042   3.328   4.057 -0.2752 -0.2482  0.9977
  526MOL0     C69363   4.142   3.400   4.136  1.0481 -0.2986  0.6606
  526MOL0     C69364   4.228   3.464   4.190 -0.0348  1.0861  0.3118
  526MOL0     C69365   3.584   3.720   3.925  0.2086  0.0873 -0.3253
  526MOL0     C69366   3.445   3.706   3.894 -0.5078 -0.2044 -0.7989
  526MOL0     H69367   3.057   3.803   3.664 -0.9612 -1.9386 -3.5868
  526MOL0     H69368   2.820   3.811   3.624 -2.6967 -0.5546  1.5030
  526MOL0     H69369   2.545   3.565   3.854  1.5939  0.7574 -0.0994
  526MOL0     H69370   2.546   3.497   3.684 -4.2597 -0.5283 -0.7532
  526MOL0     H69371   2.391   3.735   3.757  0.6854 -0.5962 -0.4186
  526MOL0     H69372   2.336   3.567   3.740  2.2716 -2.1210  0.0288
  526MOL0     H69373   2.354   3.565   3.503  1.1243  0.7893 -2.5981
  526MOL0     H69374   2.472   3.699   3.512  0.3813  1.7828  0.8724
  526MOL0     H69375   2.336   3.868   3.584 -0.4145  1.7282 -0.0301
  526MOL0     H69376   2.271   3.812   3.435 -1.5557 -0.4829  0.3678
  526MOL0     H69377   2.075   3.851   3.603 -1.9631 -2.4691  3.2002
  526MOL0     H69378   2.148   3.723   3.697  0.2550 -2.6393 -0.3560
  526MOL0     H69379   1.969   3.640   3.565  0.8526  3.6461  2.9221
  526MOL0     H69380   2.118   3.555   3.525 -0.5528 -0.6752  1.6066
  526MOL0     H69381   2.158   3.661   3.316 -1.0533 -0.4423 -0.4093
  526MOL0     H69382   1.994   3.590   3.332  0.3347 -0.3632 -0.7641
  526MOL0     H69383   2.070   3.876   3.349  1.0546 -1.5973  0.7673
  526MOL0     H69384   1.902   3.819   3.353 -1.9676 -3.3568 -1.6674
  526MOL0     H69385   1.863   3.633   3.094 -2.5678  1.2750 -0.1169
  526MOL0     H69386   2.022   3.717   2.744 -1.3303 -4.9608 -3.1026
  526MOL0     H69387   1.851   3.726   2.799 -0.4156  0.8710  0.9630
  526MOL0     H69388   1.869   3.490   2.879  1.9090  0.5434  3.1827
  526MOL0     H69389   2.037   3.496   2.889 -0.6036 -2.2487 -1.0255
  526MOL0     H69390   2.032   3.506   2.614  1.8623  0.4324  1.8604
  526MOL0     H69391   1.996   3.358   2.702 -0.4609  1.2288  1.4610
  526MOL0     H69392   1.848   3.416   2.520  0.3229 -2.0107  1.2590
  526MOL0     H69393   1.807   3.574   2.593 -1.6159  1.1089  1.8513
  526MOL0     H69394   1.613   3.213   2.731  2.0838  0.4054 -1.5170
  526MOL0     H69395   1.387   3.133   2.616 -2.6771  0.5026 -2.8762
  526MOL0     H69396   1.071   3.121   2.293 -0.4670  0.4187 -1.1936
  526MOL0     H69397   0.844   3.096   2.192  1.8932 -0.9795  0.6737
  526MOL0     H69398   0.776   3.335   1.893  0.1986 -0.4878  0.2345
  526MOL0     H69399   0.691   3.472   1.974  1.4634  0.1562  2.1979
  526MOL0     H69400   0.555   3.369   1.801 -0.1083 -0.3384  0.4151
  526MOL0     H69401   0.479   3.353   1.954 -0.1958 -0.1689 -1.2035
  526MOL0     H69402   0.517   3.117   1.967  0.9732 -2.0010  1.0548
  526MOL0     H69403   0.659   3.118   1.864  0.5684  1.9420  1.6435
  526MOL0     H69404   0.505   3.157   1.665 -3.2425 -1.0671 -1.5064
  526MOL0     H69405   0.472   3.011   1.754  2.6535 -0.6907  0.8350
  526MOL0     H69406   0.333   3.278   1.721 -0.6983  0.2193  0.3740
  526MOL0     H69407   0.304   3.215   1.874 -2.4973  0.7590 -0.9347
  526MOL0     H69408   0.199   3.004   1.772 -1.5185 -1.2570 -1.3404
  526MOL0     H69409   0.256   3.062   1.613  1.6584 -0.4498  0.9780
  526MOL0     H69410   0.046   3.178   1.812 -0.7936  0.0121  0.3058
  526MOL0     H69411   0.095   3.261   1.660  0.4960 -0.8000 -2.8973
  526MOL0     H69412   0.008   3.050   1.534 -1.0888 -1.7227  0.3495
  526MOL0     H69413  -0.109   3.153   1.614  0.9521  0.1605 -1.6920
  526MOL0     H69414   0.851   3.524   2.122  1.0517  0.6988  0.3451
  526MOL0     H69415   1.045   3.540   2.261 -2.4327  1.3427  1.2650
  526MOL0     H69416   1.405   3.479   2.371  0.1036 -1.6875 -1.3179
  526MOL0     H69417   1.609   3.554   2.483  1.6193 -1.9333 -2.6890
  526MOL0     H69418   2.750   3.473   3.866  0.9373 -0.6108  0.1805
  526MOL0     H69419   2.991   3.453   3.924 -1.0433  3.0131  3.5771
  526MOL0     H69420   3.485   3.499   3.625  2.8000 -0.9826  0.1767
  526MOL0     H69421   3.721   3.523   3.693  1.8462  0.0282  1.9249
  526MOL0     H69422   3.991   3.577   3.917 -0.1494  1.4676  2.9833
  526MOL0     H69423   3.870   3.471   3.852  1.1003 -1.2558  0.7954
  526MOL0     H69424   3.892   3.587   4.142 -0.4093 -0.0328  0.6185
  526MOL0     H69425   3.750   3.524   4.073  0.9189  0.8777 -2.0259
  526MOL0     H69426   3.830   3.296   4.087  0.9400 -1.3245  1.4316
  526MOL0     H69427   3.911   3.373   4.224 -0.9838  1.8033  0.3766
  526MOL0     H69428   4.054   3.221   4.076 -0.6525  0.1988  4.4024
  526MOL0     H69429   4.059   3.358   3.954  1.8774 -2.3536  0.6623
  526MOL0     H69430   4.315   3.508   4.237  0.7024  0.3040 -0.3066
  526MOL0     H69431   3.616   3.792   4.000  0.1065  1.0898 -1.2261
  526MOL0     H69432   3.365   3.756   3.948 -1.8271 -0.4634 -2.4173
  527MOL0     O69433   7.044   2.113  10.259 -1.0381 -0.3374  0.0038
  527MOL0     C69434   7.019   2.233  10.284  0.0968 -0.2073 -0.0721
  527MOL0     O69435   6.900   2.298  10.261 -0.2720 -0.0947 -0.5325
  527MOL0     C69436   6.786   2.220  10.249  0.1867  0.7918 -0.0364
  527MOL0     C69437   6.708   2.237  10.135 -0.0047  0.3337 -0.6677
  527MOL0     C69438   6.583   2.184  10.140  0.2560  0.4686 -0.5743
  527MOL0     C69439   6.537   2.100  10.243  0.1579 -0.2236  0.0266
  527MOL0     O69440   6.410   2.050  10.250  0.4015 -0.2868 -0.0414
  527MOL0     C69441   6.354   1.990  10.131 -0.4699 -0.0836  0.2112
  527MOL0     C69442   6.288   1.853  10.155  0.1074  0.2189 -0.2399
  527MOL0     C69443   6.254   1.844  10.303  0.2845  0.1277 -0.3310
  527MOL0     C69444   6.171   1.720  10.319  0.1389  0.0511 -0.1280
  527MOL0     C69445   6.099   1.720  10.454  0.0501 -0.2104 -1.0889
  527MOL0     C69446   6.026   1.593  10.490 -1.1614 -0.0091  0.4924
  527MOL0     C69447   5.969   1.616  10.639 -0.0778 -0.0851  0.5221
  527MOL0     C69448   5.882   1.492  10.672 -0.3452 -0.5536 -0.2798
  527MOL0     N69449   5.839   1.488  10.807  0.7455  0.0891  0.1557
  527MOL0     C69450   5.752   1.587  10.853  0.5936  0.9274  0.2902
  527MOL0     C69451   5.710   1.543  10.970 -0.2966 -0.0548  1.1158
  527MOL0     C69452   5.605   1.618  11.048 -0.8597 -0.1564  0.0867
  527MOL0     C69453   5.478   1.661  10.970 -0.0714  0.4210  0.1643
  527MOL0     C69454   5.383   1.748  11.058  0.1314  0.0516 -0.6205
  527MOL0     C69455   5.293   1.833  10.964 -0.5349  1.6087 -0.3461
  527MOL0     O69456   5.216   1.735  10.892 -0.5676 -0.3841 -0.0388
  527MOL0     C69457   5.088   1.706  10.932 -0.4870  1.5012 -0.1666
  527MOL0     C69458   5.015   1.630  10.842 -0.4211  0.1463  0.0679
  527MOL0     C69459   4.882   1.604  10.875  0.6605  0.4683 -1.2710
  527MOL0     C69460   4.826   1.642  10.992  0.0774  0.8600 -0.6550
  527MOL0     C69461   4.680   1.624  11.023  0.7207 -0.4807  1.1882
  527MOL0     O69462   4.596   1.607  10.920  0.1719 -0.1160 -0.2452
  527MOL0     C69463   4.459   1.576  10.925 -0.9266  0.1841  0.2487
  527MOL0     C69464   4.404   1.465  10.853  0.3324 -0.3433 -0.5775
  527MOL0     C69465   4.267   1.460  10.856 -0.2337 -0.1669 -0.6484
  527MOL0     C69466   4.178   1.546  10.926 -0.9773  0.5934  0.2645
  527MOL0     O69467   4.041   1.528  10.929 -0.2968 -0.0206 -0.3219
  527MOL0     C69468   3.996   1.390  10.903  0.1318 -0.0886  0.2864
  527MOL0     C69469   3.852   1.367  10.934 -0.2515  0.0041 -0.0982
  527MOL0     C69470   3.749   1.455  10.861 -0.0655  0.2955  0.1639
  527MOL0     C69471   3.753   1.436  10.711  0.2422 -0.3160 -0.7916
  527MOL0     C69472   3.640   1.520  10.648 -0.1392 -0.6054 -0.1848
  527MOL0     C69473   3.659   1.505  10.495  0.8566 -1.1693  0.2260
  527MOL0     C69474   3.552   1.581  10.405  0.0949  0.5926 -0.5346
  527MOL0     C69475   3.555   1.734  10.396  0.3474  0.6667 -0.4338
  527MOL0    Cl69476   3.706   1.808  10.346 -0.1273 -0.4461 -0.0334
  527MOL0     C69477   4.239   1.641  11.008  0.0101  0.1169 -0.1228
  527MOL0     C69478   4.378   1.667  10.999 -0.4582 -0.8654 -0.0092
  527MOL0     O69479   4.643   1.633  11.133 -0.4627 -0.7190 -0.8026
  527MOL0     C69480   4.911   1.700  11.088  0.2160 -0.4560  0.5695
  527MOL0     C69481   5.045   1.728  11.062 -0.2563  0.0914  0.3395
  527MOL0     N69482   5.778   1.420  10.991 -0.0409 -0.3248 -0.5436
  527MOL0     N69483   5.848   1.388  10.889  0.3319 -0.8536 -0.4981
  527MOL0     C69484   6.619   2.084  10.347 -0.7514  0.0922 -0.1071
  527MOL0     C69485   6.750   2.131  10.344 -0.2914  0.2242 -0.0013
  527MOL0     C69486   7.137   2.316  10.328  0.2271 -0.0834  0.7502
  527MOL0     C69487   7.258   2.259  10.376  0.3094 -0.1526  0.0589
  527MOL0     C69488   7.375   2.335  10.403 -0.0371  0.1488 -0.4798
  527MOL0     C69489   7.355   2.476  10.422  0.7415  1.0095 -0.3820
  527MOL0     O69490   7.451   2.560  10.477  0.2293 -0.1228  0.5083
  527MOL0     C69491   7.551   2.500  10.561  0.7661  1.0119  0.1278
  527MOL0     C69492   7.622   2.613  10.625 -1.7309  0.1507 -0.1555
  527MOL0     C69493   7.694   2.583  10.752 -1.0518  0.5429 -0.4764
  527MOL0     C69494   7.769   2.706  10.801  0.9134  0.1761  0.0322
  527MOL0     C69495   7.869   2.673  10.906 -0.8878 -0.5841 -0.5932
  527MOL0     C69496   7.968   2.646  10.967 -0.6524  0.4885 -0.2568
  527MOL0     C69497   7.227   2.535  10.383 -0.0391 -0.1547 -0.0531
  527MOL0     C69498   7.133   2.455  10.333  0.6283 -0.1197 -0.0319
  527MOL0     H69499   6.727   2.320  10.068  2.1283  1.2088  0.8890
  527MOL0     H69500   6.511   2.203  10.061 -2.3189 -0.1874  1.4495
  527MOL0     H69501   6.434   1.978  10.058  2.5045  3.6492  2.4429
  527MOL0     H69502   6.286   2.062  10.083  2.3451  1.7411 -1.3748
  527MOL0     H69503   6.362   1.778  10.124 -0.7329  0.3314 -2.7705
  527MOL0     H69504   6.205   1.835  10.086  2.4268 -0.3181 -3.1124
  527MOL0     H69505   6.190   1.930  10.325 -1.0215 -0.8810 -0.0544
  527MOL0     H69506   6.343   1.850  10.365 -1.4508  0.5950  2.2544
  527MOL0     H69507   6.101   1.709  10.236  1.3861  0.5446 -1.2942
  527MOL0     H69508   6.228   1.627  10.303 -2.1247 -1.2119 -1.3356
  527MOL0     H69509   6.039   1.811  10.462  0.8888  0.2534  0.4407
  527MOL0     H69510   6.166   1.744  10.538 -1.8010  0.6588  0.1964
  527MOL0     H69511   6.100   1.513  10.483 -0.2207  0.8661  0.1689
  527MOL0     H69512   5.935   1.571  10.433 -0.7374 -5.3481  1.4170
  527MOL0     H69513   6.057   1.622  10.704  0.5682  2.0170 -0.4432
  527MOL0     H69514   5.920   1.713  10.635  2.0077  1.1604  2.6939
  527MOL0     H69515   5.939   1.400  10.652  0.9589  0.7876 -3.2858
  527MOL0     H69516   5.798   1.487  10.602  1.3969 -2.4476 -2.3940
  527MOL0     H69517   5.713   1.672  10.798  0.1377  0.0252 -0.8301
  527MOL0     H69518   5.654   1.704  11.093 -1.1356  0.0716 -0.0451
  527MOL0     H69519   5.573   1.555  11.132 -0.4454 -2.7281 -1.5791
  527MOL0     H69520   5.420   1.577  10.930 -2.1609  0.9846  1.8749
  527MOL0     H69521   5.515   1.714  10.882 -2.2442 -0.2569 -1.2212
  527MOL0     H69522   5.330   1.694  11.137 -0.0156  3.4897  1.8582
  527MOL0     H69523   5.442   1.817  11.119 -0.6060  1.4176 -1.3926
  527MOL0     H69524   5.369   1.889  10.909  4.1700 -2.9204  0.7456
  527MOL0     H69525   5.236   1.907  11.021  1.3471  2.7190  0.2001
  527MOL0     H69526   5.039   1.591  10.744 -1.5883  4.0647 -1.9655
  527MOL0     H69527   4.819   1.545  10.809 -0.1974 -0.4374  0.3076
  527MOL0     H69528   4.466   1.397  10.796 -0.6626 -0.2430 -1.8253
  527MOL0     H69529   4.241   1.376  10.792  3.9177 -1.9113 -0.3931
  527MOL0     H69530   4.043   1.307  10.957 -0.6017 -1.5740 -1.2414
  527MOL0     H69531   4.013   1.376  10.796  2.0491  0.6418  0.4682
  527MOL0     H69532   3.844   1.405  11.036  0.9301  0.0794 -0.0250
  527MOL0     H69533   3.842   1.258  10.927  0.3953 -0.2643  2.2932
  527MOL0     H69534   3.777   1.556  10.892 -0.5214  0.1291  1.1523
  527MOL0     H69535   3.651   1.433  10.905 -0.6127  1.9233 -0.2027
  527MOL0     H69536   3.849   1.479  10.681  1.2816  0.4009  3.0258
  527MOL0     H69537   3.756   1.330  10.685  1.3883 -0.0100 -2.0652
  527MOL0     H69538   3.638   1.624  10.683 -0.6295 -1.2780  1.9181
  527MOL0     H69539   3.546   1.470  10.674 -0.2734  0.6346  1.9253
  527MOL0     H69540   3.633   1.401  10.474 -1.6978 -0.9285  1.7172
  527MOL0     H69541   3.762   1.531  10.470  1.2319  0.7422  3.2464
  527MOL0     H69542   3.574   1.533  10.309 -0.8383  1.1368 -1.0268
  527MOL0     H69543   3.447   1.558  10.422  0.1755  2.8761  4.7981
  527MOL0     H69544   3.527   1.777  10.492 -3.0809 -1.6781 -0.2122
  527MOL0     H69545   3.482   1.775  10.326 -1.4028  2.3626  2.2263
  527MOL0     H69546   4.172   1.705  11.064  1.1048  2.1751 -1.0496
  527MOL0     H69547   4.426   1.743  11.058 -0.7692  1.3300 -2.4069
  527MOL0     H69548   4.883   1.733  11.188  2.2449  0.5232  0.8725
  527MOL0     H69549   5.103   1.774  11.142 -0.5926  0.2810  0.4763
  527MOL0     H69550   6.604   2.020  10.433  4.3317 -1.1370  0.1496
  527MOL0     H69551   6.821   2.117  10.426  3.1561 -1.5558 -2.9610
  527MOL0     H69552   7.262   2.151  10.381 -1.4910 -0.2106  0.8214
  527MOL0     H69553   7.467   2.287  10.435 -0.6482 -0.5158  0.3140
  527MOL0     H69554   7.610   2.430  10.502 -1.1314  0.5374 -1.3185
  527MOL0     H69555   7.505   2.446  10.644  0.3495  1.9718  0.5434
  527MOL0     H69556   7.689   2.653  10.548 -0.4600 -1.5644  0.0135
  527MOL0     H69557   7.556   2.701  10.632  2.2117  3.3548  0.3582
  527MOL0     H69558   7.769   2.507  10.726 -0.4887  1.1453 -0.6199
  527MOL0     H69559   7.627   2.540  10.828  1.3482 -0.7337  1.0371
  527MOL0     H69560   7.812   2.770  10.724 -1.2469  3.8813  1.6271
  527MOL0     H69561   7.700   2.776  10.850  0.9874  0.8546 -0.8221
  527MOL0     H69562   8.062   2.632  11.016 -1.9565 -0.3301  2.2034
  527MOL0     H69563   7.222   2.644  10.379  1.8760  0.0563  1.5863
  527MOL0     H69564   7.046   2.515  10.307  1.0686 -0.1146 -1.5614
  528MOL0     O69565   3.812   8.189   2.225 -0.4306  0.4193 -0.5952
  528MOL0     C69566   3.781   8.134   2.120 -0.5941  0.7874  0.5733
  528MOL0     O69567   3.864   8.061   2.039  0.1833  0.1421 -0.0757
  528MOL0     C69568   3.997   8.054   2.064 -0.2749 -0.6011 -0.5114
  528MOL0     C69569   4.084   8.117   2.159  0.1804  0.3512 -0.1083
  528MOL0     C69570   4.225   8.095   2.147  0.5653 -0.5955 -0.4779
  528MOL0     C69571   4.269   8.008   2.049 -0.0707  0.4225 -0.7987
  528MOL0     O69572   4.402   7.985   2.033  0.0219 -0.1272 -0.1157
  528MOL0     C69573   4.467   8.055   1.926 -0.5649 -0.1146  0.2699
  528MOL0     C69574   4.617   8.026   1.920 -0.0232  0.2085  0.5369
  528MOL0     C69575   4.692   8.109   2.025  0.3791  0.2385  0.4505
  528MOL0     C69576   4.837   8.068   2.038  0.2684  0.8039  0.0374
  528MOL0     C69577   4.929   8.184   2.088  0.6082  0.3570 -0.5250
  528MOL0     C69578   5.073   8.170   2.068 -1.1086  0.0218 -0.2282
  528MOL0     C69579   5.132   8.044   2.127  0.8083 -0.2460 -0.3732
  528MOL0     C69580   5.120   8.035   2.287  0.0299 -0.0331 -0.3651
  528MOL0     N69581   5.167   7.894   2.324  0.5692 -0.2943 -0.7875
  528MOL0     C69582   5.286   7.835   2.298  0.0110  0.6680 -0.3639
  528MOL0     C69583   5.261   7.707   2.337 -0.1180 -0.0118 -0.3552
  528MOL0     C69584   5.367   7.604   2.304  0.5837 -0.0535 -0.1514
  528MOL0     C69585   5.312   7.541   2.176 -0.1172 -0.5694 -0.2478
  528MOL0     C69586   5.196   7.436   2.183 -0.4939 -0.6932  0.5780
  528MOL0     C69587   5.191   7.355   2.311 -0.2052 -1.1951  1.5991
  528MOL0     O69588   5.086   7.263   2.286 -0.4527  0.7439 -0.1622
  528MOL0     C69589   5.053   7.172   2.386  0.2845 -0.3747  0.4028
  528MOL0     C69590   5.092   7.189   2.520  0.3992 -0.8173 -0.7697
  528MOL0     C69591   5.081   7.086   2.611 -0.1101 -0.3519 -0.7619
  528MOL0     C69592   5.008   6.968   2.577  0.5057 -0.0991 -0.3031
  528MOL0     C69593   5.013   6.854   2.674 -0.0512 -0.0284 -0.3598
  528MOL0     O69594   5.089   6.875   2.783  0.5668 -0.6578 -0.4970
  528MOL0     C69595   5.101   6.776   2.878  0.0769 -0.1793 -0.1055
  528MOL0     C69596   5.230   6.741   2.923 -0.5216 -0.3518  0.2549
  528MOL0     C69597   5.243   6.654   3.034 -0.3763 -0.6574 -0.2752
  528MOL0     C69598   5.125   6.600   3.093 -0.6706 -0.4807 -0.6039
  528MOL0     O69599   5.148   6.511   3.192  0.2303 -0.2725 -0.0795
  528MOL0     C69600   5.172   6.562   3.328 -1.1451  0.4382  0.3250
  528MOL0     C69601   5.214   6.445   3.423 -0.7109  0.1229  0.1759
  528MOL0     C69602   5.117   6.335   3.430 -0.4698 -0.0006  0.7195
  528MOL0     C69603   5.157   6.229   3.538 -0.0725 -0.1042  0.6483
  528MOL0     C69604   5.057   6.114   3.557  0.3155  0.8198  0.2695
  528MOL0     C69605   5.123   5.994   3.621 -0.4093 -0.8844  0.6426
  528MOL0     C69606   5.023   5.889   3.661 -1.2697  0.3776 -0.0816
  528MOL0     C69607   4.959   5.816   3.543  0.0329  0.0773 -0.3872
  528MOL0    Cl69608   5.081   5.733   3.429 -0.5879 -0.1519 -0.1374
  528MOL0     C69609   5.004   6.631   3.037 -0.5050 -0.9732 -0.7539
  528MOL0     C69610   4.993   6.718   2.931 -0.7096 -0.4994 -1.1635
  528MOL0     O69611   4.967   6.743   2.642  0.2132 -0.3848  0.3907
  528MOL0     C69612   4.956   6.956   2.446  0.6139 -0.2763  1.0899
  528MOL0     C69613   4.973   7.054   2.352  0.3046 -0.2574 -0.4024
  528MOL0     N69614   5.137   7.692   2.394  0.1858 -0.4620 -0.1770
  528MOL0     N69615   5.081   7.806   2.384 -1.0798  0.3203 -0.3926
  528MOL0     C69616   4.190   7.940   1.955  0.3769 -0.2612 -0.0748
  528MOL0     C69617   4.052   7.972   1.965  0.4154 -0.0755 -0.4880
  528MOL0     C69618   3.631   8.134   2.106  0.0336  0.6005  0.2870
  528MOL0     C69619   3.551   8.195   2.201 -0.5856 -1.0249 -0.0453
  528MOL0     C69620   3.412   8.192   2.203 -0.6524  0.6223 -0.4899
  528MOL0     C69621   3.349   8.132   2.097 -0.4249 -0.1523 -0.5483
  528MOL0     O69622   3.215   8.132   2.090 -0.1648 -0.3070 -0.3548
  528MOL0     C69623   3.134   8.204   2.178  1.1900  0.2449  0.3289
  528MOL0     C69624   2.994   8.175   2.134 -0.7539 -0.0934  0.4410
  528MOL0     C69625   2.947   8.043   2.156 -0.3209  0.9014  0.4949
  528MOL0     C69626   2.808   8.000   2.092  0.1762 -0.2937 -0.2986
  528MOL0     C69627   2.820   7.996   1.947  0.0426  0.1712  0.0519
  528MOL0     C69628   2.837   7.994   1.825 -0.3260  0.3759 -0.9362
  528MOL0     C69629   3.422   8.078   1.993 -0.7863  0.1222 -0.0595
  528MOL0     C69630   3.566   8.071   2.009 -0.3157 -0.0383  0.2254
  528MOL0     H69631   4.055   8.193   2.230  2.1529  1.8434 -0.8327
  528MOL0     H69632   4.293   8.134   2.221  0.1619 -1.0661  0.1499
  528MOL0     H69633   4.464   8.164   1.935  0.9472 -0.0057 -0.2952
  528MOL0     H69634   4.422   8.020   1.832  0.1911 -0.5060  0.0468
  528MOL0     H69635   4.651   8.044   1.817 -0.2327 -0.5732  0.3174
  528MOL0     H69636   4.634   7.919   1.940  0.9635  0.5113  1.4308
  528MOL0     H69637   4.648   8.096   2.124  2.3874  1.0502  1.5001
  528MOL0     H69638   4.681   8.215   1.999  4.1649  1.4299  2.9089
  528MOL0     H69639   4.835   7.991   2.116 -0.4118 -1.0092 -1.6744
  528MOL0     H69640   4.866   8.022   1.943 -0.8898  0.8937 -0.3695
  528MOL0     H69641   4.916   8.206   2.195  0.2398 -1.6019 -0.1274
  528MOL0     H69642   4.887   8.278   2.049  0.5144  0.8864  0.7764
  528MOL0     H69643   5.127   8.254   2.112  1.0305 -0.9134 -0.9573
  528MOL0     H69644   5.096   8.165   1.961  0.0682  0.1551  0.0026
  528MOL0     H69645   5.074   7.956   2.097 -1.9270  1.3526 -0.1199
  528MOL0     H69646   5.236   8.039   2.094  1.2979  1.4250  0.7801
  528MOL0     H69647   5.024   8.061   2.331 -0.3110  0.6730 -1.4979
  528MOL0     H69648   5.189   8.111   2.324 -1.1918  0.5278  0.8426
  528MOL0     H69649   5.378   7.865   2.249  1.0164  1.7830  2.0496
  528MOL0     H69650   5.362   7.541   2.393  1.4298  1.0677  0.7224
  528MOL0     H69651   5.470   7.641   2.298 -0.0422  1.7667 -0.1792
  528MOL0     H69652   5.389   7.500   2.109  1.8006  0.2102  1.3796
  528MOL0     H69653   5.279   7.627   2.117  1.7150 -0.0691 -0.6040
  528MOL0     H69654   5.103   7.494   2.183 -0.1300 -0.0619 -0.8542
  528MOL0     H69655   5.201   7.377   2.091  1.1490  0.7499 -0.3217
  528MOL0     H69656   5.166   7.424   2.392 -1.9944  0.2695 -0.1103
  528MOL0     H69657   5.280   7.297   2.338  0.0056 -0.5791  2.2359
  528MOL0     H69658   5.137   7.279   2.562 -1.7509  1.2707 -2.6857
  528MOL0     H69659   5.120   7.080   2.712  1.4082 -1.4438 -1.3731
  528MOL0     H69660   5.305   6.813   2.893 -1.9660  2.5048  2.8968
  528MOL0     H69661   5.345   6.641   3.070 -0.1973 -0.7458 -0.8134
  528MOL0     H69662   5.084   6.618   3.361 -2.6339 -0.7693 -1.4034
  528MOL0     H69663   5.264   6.622   3.324  0.6316 -1.7831  3.6983
  528MOL0     H69664   5.240   6.487   3.520  0.5689 -2.4660  1.0106
  528MOL0     H69665   5.297   6.395   3.373  0.4138  1.4382  0.6583
  528MOL0     H69666   5.088   6.295   3.333 -1.6220 -0.6726  1.3123
  528MOL0     H69667   5.026   6.382   3.470 -0.5476  0.0948  0.4314
  528MOL0     H69668   5.257   6.189   3.517  0.5421  1.0658  1.3166
  528MOL0     H69669   5.159   6.280   3.634  0.7331 -0.2562  0.7179
  528MOL0     H69670   5.019   6.082   3.460 -4.0953  2.3737  1.2434
  528MOL0     H69671   4.972   6.137   3.622 -1.2123 -2.2141 -0.5101
  528MOL0     H69672   5.182   6.025   3.708  0.3055 -0.4225 -0.0034
  528MOL0     H69673   5.196   5.951   3.553  0.9797 -1.7726  2.6199
  528MOL0     H69674   5.085   5.816   3.714  0.7222  1.6057 -0.6186
  528MOL0     H69675   4.954   5.942   3.727  1.0122  5.6533 -1.4308
  528MOL0     H69676   4.901   5.887   3.484  0.4916  0.5085 -0.3266
  528MOL0     H69677   4.890   5.740   3.580 -0.4625  0.3747 -0.6928
  528MOL0     H69678   4.912   6.596   3.083 -0.8987  0.8476 -0.0498
  528MOL0     H69679   4.896   6.747   2.891 -0.6318  1.5796  0.0666
  528MOL0     H69680   4.907   6.872   2.398 -1.4722  2.0933 -1.2573
  528MOL0     H69681   4.932   7.050   2.252  3.3049  1.4897 -1.8308
  528MOL0     H69682   4.232   7.874   1.880  2.0692  1.7644 -1.0354
  528MOL0     H69683   3.997   7.937   1.878  0.6467 -1.8776  0.0334
  528MOL0     H69684   3.594   8.265   2.273 -0.7400 -1.2637  0.2844
  528MOL0     H69685   3.350   8.245   2.275  1.2974  1.6589  0.4984
  528MOL0     H69686   3.162   8.310   2.171 -1.8761  1.0985 -0.5496
  528MOL0     H69687   3.143   8.169   2.281 -1.5913 -2.5960 -0.2550
  528MOL0     H69688   2.926   8.244   2.184 -0.7770 -0.6721  1.2112
  528MOL0     H69689   2.984   8.187   2.025 -0.6240 -4.6111 -0.2609
  528MOL0     H69690   2.941   8.029   2.265  5.6639  0.8078  1.1602
  528MOL0     H69691   3.022   7.971   2.123  0.9177  2.9398 -1.4263
  528MOL0     H69692   2.775   7.904   2.133  1.0288 -0.3822  0.2027
  528MOL0     H69693   2.731   8.075   2.115 -0.9967 -2.4341  3.9006
  528MOL0     H69694   2.825   7.972   1.721 -1.3124 -1.5682 -0.4581
  528MOL0     H69695   3.378   8.021   1.912 -0.6168  0.6080 -0.4963
  528MOL0     H69696   3.631   8.009   1.948 -0.6988  1.1824 -1.5075
  529MOL0     O69697  10.372   7.888   5.358  0.6311 -0.0458 -0.6436
  529MOL0     C69698  10.480   7.854   5.398  0.0465 -0.8078  0.3457
  529MOL0     O69699  10.540   7.736   5.384 -0.0057  0.5071 -0.2215
  529MOL0     C69700  10.485   7.623   5.324 -1.1093 -0.0217  0.1502
  529MOL0     C69701  10.571   7.505   5.327 -0.2923  0.3860  0.6473
  529MOL0     C69702  10.526   7.386   5.283 -0.6482 -0.5942  0.6237
  529MOL0     C69703  10.409   7.375   5.223  0.2804  0.3131 -0.3879
  529MOL0     O69704  10.363   7.250   5.190 -0.3671  0.4525 -0.3211
  529MOL0     C69705  10.256   7.246   5.094  0.2040 -0.1049  0.0640
  529MOL0     C69706  10.241   7.095   5.066 -0.6878  0.8354  0.2526
  529MOL0     C69707  10.202   7.008   5.189 -0.3524  0.1612  0.2546
  529MOL0     C69708  10.056   7.006   5.239 -0.2482 -0.4707  0.1509
  529MOL0     C69709  10.049   6.924   5.369 -0.1582  0.4087  1.1143
  529MOL0     C69710   9.898   6.889   5.405 -0.1809  0.2465 -0.3820
  529MOL0     C69711   9.905   6.783   5.507  0.0954 -0.3197  0.1132
  529MOL0     C69712   9.780   6.779   5.594  0.1055 -0.8083  0.7147
  529MOL0     N69713   9.661   6.726   5.524  0.1166 -0.4428  0.4278
  529MOL0     C69714   9.645   6.601   5.471 -0.6714 -0.3638 -0.1719
  529MOL0     C69715   9.514   6.589   5.453  0.5495  0.1338 -0.2081
  529MOL0     C69716   9.440   6.467   5.393  0.9461 -0.0625 -1.1207
  529MOL0     C69717   9.292   6.454   5.432  1.2994 -0.3261 -0.0354
  529MOL0     C69718   9.236   6.348   5.341  0.2106  0.3735  0.7596
  529MOL0     C69719   9.078   6.328   5.353  1.2329  0.0600  0.1263
  529MOL0     O69720   9.020   6.452   5.321  0.0821 -0.1091 -0.0588
  529MOL0     C69721   8.884   6.460   5.321 -0.5551  0.2328  0.5667
  529MOL0     C69722   8.797   6.350   5.341 -0.9658 -0.0749  1.0564
  529MOL0     C69723   8.654   6.360   5.345 -0.2116  0.1557 -0.4586
  529MOL0     C69724   8.592   6.475   5.306  0.3734 -0.2851 -0.2826
  529MOL0     C69725   8.446   6.471   5.293  0.2063  0.1258 -0.3026
  529MOL0     O69726   8.384   6.360   5.332  0.4462 -0.1518  0.6387
  529MOL0     C69727   8.248   6.347   5.340  0.6417  0.1849  0.1032
  529MOL0     C69728   8.190   6.228   5.323  0.1644  0.2507  0.0968
  529MOL0     C69729   8.044   6.211   5.317 -0.3178 -0.1342  0.5351
  529MOL0     C69730   7.957   6.311   5.346 -0.5298  0.4825 -0.1401
  529MOL0     O69731   7.825   6.304   5.335 -0.5275 -0.9380 -0.7533
  529MOL0     C69732   7.767   6.184   5.310  0.2229 -0.2387 -0.9730
  529MOL0     C69733   7.617   6.212   5.314 -1.7096  0.7224  0.4169
  529MOL0     C69734   7.543   6.080   5.312  0.0682 -0.3585 -0.3256
  529MOL0     C69735   7.396   6.116   5.284 -0.1293 -0.5268  0.0724
  529MOL0     C69736   7.316   6.023   5.179  0.7927 -0.3777  0.6466
  529MOL0     C69737   7.163   6.065   5.148 -0.7367 -0.1556 -0.4979
  529MOL0     C69738   7.094   5.954   5.060  0.2938  0.0682 -0.6718
  529MOL0     C69739   6.961   6.008   4.987  0.6177 -0.5585 -1.0017
  529MOL0    Cl69740   6.836   6.028   5.111 -0.3517 -0.8428  0.0475
  529MOL0     C69741   8.023   6.436   5.377 -0.1997  0.0235 -0.3528
  529MOL0     C69742   8.164   6.456   5.368  0.0986  0.3228  0.3534
  529MOL0     O69743   8.392   6.574   5.246 -0.4540 -0.4975  0.7576
  529MOL0     C69744   8.675   6.587   5.273  0.6083 -1.0543 -0.2140
  529MOL0     C69745   8.817   6.581   5.277 -0.6031  0.5948  0.1539
  529MOL0     N69746   9.447   6.712   5.473 -0.5079  0.3071  0.7014
  529MOL0     N69747   9.538   6.791   5.509  0.0651  0.2838 -0.6977
  529MOL0     C69748  10.322   7.487   5.209 -0.0861  0.7732  0.0308
  529MOL0     C69749  10.358   7.607   5.264 -1.4096 -0.1257 -0.0841
  529MOL0     C69750  10.566   7.961   5.450 -0.1750  0.9451 -0.3101
  529MOL0     C69751  10.581   8.078   5.379 -0.2107  0.2603  0.2556
  529MOL0     C69752  10.662   8.189   5.436 -0.0175 -0.4454  0.3326
  529MOL0     C69753  10.709   8.179   5.571  0.1950 -0.4849 -0.5522
  529MOL0     O69754  10.768   8.287   5.626 -0.6409  0.3675 -0.4452
  529MOL0     C69755  10.854   8.276   5.749 -0.0403 -0.0400 -0.0114
  529MOL0     C69756  10.991   8.337   5.738  0.1081 -0.8192  0.2241
  529MOL0     C69757  11.084   8.334   5.857 -0.9412  0.1280  0.0573
  529MOL0     C69758  11.201   8.445   5.846  0.2031  0.0982  0.1786
  529MOL0     C69759  11.223   8.486   5.982  0.0023  0.1105  1.0157
  529MOL0     C69760  11.236   8.502   6.100 -0.3114  0.2167 -1.0248
  529MOL0     C69761  10.692   8.053   5.630 -0.3536 -0.5150 -0.4540
  529MOL0     C69762  10.625   7.941   5.572  0.1472  0.6766  0.6366
  529MOL0     H69763  10.675   7.518   5.356 -0.1767 -0.6402  0.7073
  529MOL0     H69764  10.601   7.308   5.290 -0.5784 -0.6687 -0.6646
  529MOL0     H69765  10.277   7.302   5.003 -2.0242 -0.7313 -0.9169
  529MOL0     H69766  10.162   7.283   5.137 -0.6124  0.2212 -1.9210
  529MOL0     H69767  10.341   7.062   5.037  0.0245  0.7934  2.5555
  529MOL0     H69768  10.182   7.073   4.976 -1.4390  2.7439  0.2254
  529MOL0     H69769  10.267   7.023   5.275 -2.6026 -0.4056  2.1412
  529MOL0     H69770  10.217   6.906   5.152 -1.3045 -0.2990  1.1233
  529MOL0     H69771  10.030   7.105   5.278 -1.5761 -0.2927 -1.0834
  529MOL0     H69772   9.979   6.975   5.167 -0.6011 -1.5497  0.9762
  529MOL0     H69773  10.097   6.962   5.460 -1.7543  1.9934  1.3545
  529MOL0     H69774  10.109   6.834   5.355 -1.2387 -0.0874 -0.5965
  529MOL0     H69775   9.852   6.862   5.309  0.0788  0.3859 -0.5465
  529MOL0     H69776   9.864   6.984   5.447  2.4922  0.5454  1.3114
  529MOL0     H69777   9.924   6.689   5.453  1.8039  1.8445 -3.3815
  529MOL0     H69778   9.991   6.797   5.573 -0.3359 -0.4024  0.7027
  529MOL0     H69779   9.753   6.881   5.622 -2.8506 -1.8426  2.0119
  529MOL0     H69780   9.792   6.733   5.693  1.5859  2.7293  2.3220
  529MOL0     H69781   9.699   6.508   5.463 -0.6651 -0.2412 -2.1618
  529MOL0     H69782   9.485   6.376   5.433 -0.5993 -1.4530 -2.4329
  529MOL0     H69783   9.442   6.466   5.284  1.4649  2.3066 -1.1997
  529MOL0     H69784   9.239   6.545   5.404 -0.3098 -1.3737 -0.5167
  529MOL0     H69785   9.272   6.429   5.537 -0.5001  1.8924  0.2389
  529MOL0     H69786   9.259   6.368   5.235 -0.0865 -4.6722 -0.5342
  529MOL0     H69787   9.267   6.244   5.359  0.0718 -0.3597 -2.5080
  529MOL0     H69788   9.058   6.307   5.458  1.9298  1.6761  0.6145
  529MOL0     H69789   9.033   6.243   5.302 -1.7049  1.4326  0.1986
  529MOL0     H69790   8.839   6.252   5.360  1.5921  1.2797  3.0728
  529MOL0     H69791   8.590   6.273   5.356  0.5341 -0.0551  4.4922
  529MOL0     H69792   8.241   6.132   5.315 -0.9304 -0.3600  0.2259
  529MOL0     H69793   8.007   6.113   5.288  3.1684 -0.9061 -1.9639
  529MOL0     H69794   7.775   6.113   5.392 -0.9419  1.0159  0.2796
  529MOL0     H69795   7.798   6.128   5.221  1.0774 -2.0330  0.4002
  529MOL0     H69796   7.594   6.262   5.220  0.6089  1.5239  0.2195
  529MOL0     H69797   7.577   6.270   5.398  1.8128  0.6176  2.3612
  529MOL0     H69798   7.549   6.021   5.404  3.5027 -2.1687 -1.5263
  529MOL0     H69799   7.593   6.027   5.230  1.5534 -0.3913  0.5680
  529MOL0     H69800   7.341   6.117   5.378  0.4871 -2.8747  0.5356
  529MOL0     H69801   7.387   6.216   5.241 -1.6349 -1.7552 -2.7829
  529MOL0     H69802   7.319   5.917   5.208  4.0571 -1.1612 -1.9333
  529MOL0     H69803   7.363   6.023   5.081  1.0249  1.2259  0.7396
  529MOL0     H69804   7.164   6.162   5.097  2.3644  0.0782 -0.2034
  529MOL0     H69805   7.112   6.075   5.244  0.6591  0.2126  0.2347
  529MOL0     H69806   7.160   5.921   4.979 -0.5003  0.4570 -1.4924
  529MOL0     H69807   7.067   5.862   5.113 -2.1462 -0.7539 -3.0933
  529MOL0     H69808   6.924   5.919   4.935 -1.4317 -1.9404  2.4775
  529MOL0     H69809   6.980   6.093   4.921  0.1572 -1.4889 -2.3942
  529MOL0     H69810   7.960   6.522   5.398  0.1876  0.4291 -0.8005
  529MOL0     H69811   8.202   6.557   5.382 -1.7775  1.4062 -1.8755
  529MOL0     H69812   8.628   6.678   5.237 -1.9541 -0.8183  3.2386
  529MOL0     H69813   8.878   6.667   5.248  0.5947 -0.4942 -0.6481
  529MOL0     H69814  10.220   7.473   5.173  0.2932  1.5086 -1.4027
  529MOL0     H69815  10.305   7.699   5.242 -0.3264  0.3526 -0.8236
  529MOL0     H69816  10.542   8.084   5.278 -0.5549 -1.1832  0.2780
  529MOL0     H69817  10.677   8.281   5.380  4.1539  1.3552  3.7561
  529MOL0     H69818  10.868   8.175   5.789  1.1949 -0.7648 -2.1318
  529MOL0     H69819  10.796   8.325   5.828 -2.2601 -1.8736 -0.3965
  529MOL0     H69820  11.036   8.283   5.654 -1.9267 -2.6461  0.2202
  529MOL0     H69821  10.989   8.438   5.697 -2.0532 -0.1988  1.6689
  529MOL0     H69822  11.131   8.236   5.861  0.1199  0.5064 -1.8497
  529MOL0     H69823  11.018   8.351   5.942 -0.4031  3.3627 -0.0508
  529MOL0     H69824  11.296   8.421   5.798 -0.6005 -2.3164 -0.3661
  529MOL0     H69825  11.155   8.533   5.801  0.8267  0.6669  0.6492
  529MOL0     H69826  11.242   8.531   6.203  0.3842  0.6702 -1.1810
  529MOL0     H69827  10.722   8.036   5.732 -2.1490 -1.5997 -0.0619
  529MOL0     H69828  10.606   7.854   5.633  1.5352  0.5354  0.8983
  530MOL0     O69829   8.886   6.201   2.171 -0.4494  0.0328  0.2840
  530MOL0     C69830   8.996   6.230   2.223 -0.5441  0.3586 -0.0583
  530MOL0     O69831   9.015   6.274   2.347 -0.4346 -0.0809 -0.4857
  530MOL0     C69832   8.912   6.264   2.440 -0.2083 -0.1434 -0.0478
  530MOL0     C69833   8.838   6.378   2.477 -0.9408 -0.5924 -0.0295
  530MOL0     C69834   8.726   6.366   2.558  0.2096  0.3656 -0.1588
  530MOL0     C69835   8.691   6.237   2.609  0.0273  0.2615 -0.1883
  530MOL0     O69836   8.581   6.234   2.697  0.1174 -0.3953  0.2850
  530MOL0     C69837   8.570   6.134   2.808  0.6284 -0.7260  1.0000
  530MOL0     C69838   8.447   6.140   2.897  0.3143 -0.5185 -0.5005
  530MOL0     C69839   8.304   6.120   2.830  1.0961  0.5106 -0.8745
  530MOL0     C69840   8.204   6.142   2.949 -0.5030 -0.0439  0.6101
  530MOL0     C69841   8.057   6.124   2.907 -0.4721  0.2177  0.2504
  530MOL0     C69842   7.963   6.173   3.026 -0.3502  0.2833 -0.6310
  530MOL0     C69843   7.814   6.156   3.003  0.7242 -0.1315  0.5037
  530MOL0     C69844   7.759   6.251   2.889 -0.5757  0.9849 -0.2122
  530MOL0     N69845   7.624   6.218   2.855  0.3723 -0.2741  0.2750
  530MOL0     C69846   7.516   6.241   2.950 -0.3737 -0.0065  0.3035
  530MOL0     C69847   7.408   6.201   2.884  0.4534  0.3310  0.5140
  530MOL0     C69848   7.272   6.202   2.953 -0.1169  0.0615 -0.8363
  530MOL0     C69849   7.154   6.220   2.858 -0.0336 -0.4157  0.1278
  530MOL0     C69850   7.117   6.090   2.795  0.6132 -0.1986  1.0960
  530MOL0     C69851   7.004   6.109   2.688  0.6369  0.8919  0.5888
  530MOL0     O69852   6.880   6.140   2.757  0.5665  0.3751 -0.1452
  530MOL0     C69853   6.767   6.059   2.756  0.4650  0.0932 -0.1732
  530MOL0     C69854   6.781   5.920   2.763  0.2327 -0.3893  0.8867
  530MOL0     C69855   6.668   5.834   2.760 -0.2986  0.1198  0.3129
  530MOL0     C69856   6.542   5.898   2.746 -0.4764  0.6914  0.2216
  530MOL0     C69857   6.431   5.803   2.721 -0.0429 -0.0024  0.5057
  530MOL0     O69858   6.333   5.846   2.633  0.3720  0.6690 -0.1024
  530MOL0     C69859   6.247   5.743   2.587 -0.2041  0.6476 -0.0565
  530MOL0     C69860   6.106   5.750   2.605 -0.0101 -0.0412 -0.4904
  530MOL0     C69861   6.019   5.666   2.535  0.5085  1.0862 -0.5177
  530MOL0     C69862   6.073   5.567   2.444 -0.2142 -0.1472  0.0004
  530MOL0     O69863   5.993   5.485   2.357  0.9283 -0.4387 -0.8906
  530MOL0     C69864   5.851   5.480   2.384 -0.0623  0.3157  0.4063
  530MOL0     C69865   5.786   5.374   2.290  0.0676 -0.0561  0.6744
  530MOL0     C69866   5.634   5.344   2.318  0.0882 -0.0958 -0.0446
  530MOL0     C69867   5.615   5.278   2.452  0.0295 -0.1589  0.3319
  530MOL0     C69868   5.467   5.233   2.462  0.7571 -0.2851  0.3274
  530MOL0     C69869   5.418   5.194   2.604 -0.0573  0.3742 -0.7703
  530MOL0     C69870   5.386   5.322   2.685  0.0905 -0.2701  0.6353
  530MOL0     C69871   5.247   5.365   2.643  0.7029  0.1772 -0.1624
  530MOL0    Cl69872   5.226   5.542   2.668 -0.2225  0.1649 -0.1376
  530MOL0     C69873   6.210   5.556   2.436 -1.1757 -0.0998  0.0662
  530MOL0     C69874   6.296   5.632   2.517  0.5382  0.3520 -0.6144
  530MOL0     O69875   6.453   5.685   2.754 -0.2639 -0.2228 -0.5471
  530MOL0     C69876   6.527   6.035   2.738  0.4716  0.3632 -0.3957
  530MOL0     C69877   6.647   6.114   2.739  0.5627 -0.5279  0.1511
  530MOL0     N69878   7.436   6.167   2.753  0.0928 -0.4391  0.3839
  530MOL0     N69879   7.566   6.187   2.736  0.6754 -0.0330  0.1877
  530MOL0     C69880   8.766   6.126   2.563 -0.5926 -0.2180  0.2215
  530MOL0     C69881   8.874   6.135   2.480  0.3113 -0.0890  0.7233
  530MOL0     C69882   9.117   6.221   2.143 -0.1237  0.3288  0.2170
  530MOL0     C69883   9.230   6.307   2.157 -0.0410  0.3556  0.2875
  530MOL0     C69884   9.332   6.292   2.061 -0.0066 -0.6914  0.5014
  530MOL0     C69885   9.330   6.206   1.948 -0.2132  0.1207 -0.7907
  530MOL0     O69886   9.427   6.202   1.848  1.5163  0.1661  0.6872
  530MOL0     C69887   9.554   6.238   1.880  0.3697 -0.2078  0.0446
  530MOL0     C69888   9.652   6.183   1.773 -0.8666 -0.3014  0.1400
  530MOL0     C69889   9.645   6.238   1.632 -0.1592  0.0150 -0.4652
  530MOL0     C69890   9.763   6.213   1.539  0.0560  0.3679 -1.3061
  530MOL0     C69891   9.877   6.292   1.569 -0.2613 -0.2795  1.1323
  530MOL0     C69892   9.975   6.357   1.588 -0.1972  0.4502  0.1352
  530MOL0     C69893   9.215   6.132   1.929  0.0426 -0.3586  0.0264
  530MOL0     C69894   9.116   6.136   2.027  0.1154  1.0266  0.5038
  530MOL0     H69895   8.874   6.472   2.436 -0.1583  0.2150  2.3247
  530MOL0     H69896   8.664   6.452   2.581  0.8436  0.7747  0.0673
  530MOL0     H69897   8.660   6.139   2.869  0.0943 -0.6452  1.8025
  530MOL0     H69898   8.564   6.032   2.771  2.6473 -1.0781  1.5245
  530MOL0     H69899   8.440   6.234   2.952 -3.6660 -1.0021  0.1211
  530MOL0     H69900   8.463   6.071   2.980  2.4278 -0.5605 -0.9098
  530MOL0     H69901   8.295   6.018   2.792  2.0485 -0.0654  0.3803
  530MOL0     H69902   8.288   6.200   2.757  0.3008  2.5118  1.3569
  530MOL0     H69903   8.220   6.072   3.032  1.4067  0.7634  0.9894
  530MOL0     H69904   8.215   6.243   2.990  2.7143  0.2266 -0.6415
  530MOL0     H69905   8.041   6.018   2.886 -0.3567  0.7175 -2.7369
  530MOL0     H69906   8.031   6.184   2.820  1.6723  1.3964  0.3404
  530MOL0     H69907   7.982   6.278   3.049 -0.8569  0.4120 -0.7944
  530MOL0     H69908   7.996   6.125   3.119  1.6676  3.2373  0.3273
  530MOL0     H69909   7.799   6.050   2.978 -0.0262  0.1536 -0.2951
  530MOL0     H69910   7.766   6.181   3.099 -0.4695 -0.2133 -0.0457
  530MOL0     H69911   7.818   6.233   2.799 -2.2322 -1.8943 -0.8393
  530MOL0     H69912   7.761   6.355   2.924 -1.0080  1.1921 -0.7960
  530MOL0     H69913   7.526   6.283   3.050  1.3908  1.3077 -0.3691
  530MOL0     H69914   7.271   6.288   3.020 -0.0397 -0.2563 -0.4217
  530MOL0     H69915   7.244   6.111   3.006  2.2987 -0.3646 -0.1892
  530MOL0     H69916   7.181   6.294   2.782 -0.0580  2.8165  2.9964
  530MOL0     H69917   7.074   6.263   2.918  0.4006  1.2212 -0.3932
  530MOL0     H69918   7.196   6.032   2.747  0.1335  0.1201 -0.1048
  530MOL0     H69919   7.078   6.020   2.870 -4.0503  1.5022  0.5764
  530MOL0     H69920   6.980   6.027   2.619 -1.3301  1.7690  0.1646
  530MOL0     H69921   7.038   6.190   2.623 -1.6723  3.4049  2.2794
  530MOL0     H69922   6.884   5.886   2.761  0.7057  0.9744  1.0905
  530MOL0     H69923   6.687   5.727   2.764 -0.0596  0.0524 -1.6298
  530MOL0     H69924   6.083   5.836   2.665 -0.2368 -0.2870 -0.2232
  530MOL0     H69925   5.914   5.690   2.549  1.2492  3.2554  2.0837
  530MOL0     H69926   5.802   5.577   2.373  1.2480  0.8046 -1.7298
  530MOL0     H69927   5.842   5.439   2.485  1.2013 -1.7513 -0.2726
  530MOL0     H69928   5.842   5.281   2.309 -1.7622 -1.3764 -0.0814
  530MOL0     H69929   5.806   5.410   2.188 -0.1057 -1.3509  0.1601
  530MOL0     H69930   5.604   5.281   2.233  2.2429 -0.7978 -0.3433
  530MOL0     H69931   5.576   5.435   2.304  0.3642 -0.1671 -1.8893
  530MOL0     H69932   5.678   5.189   2.457  1.6050  0.8101 -1.2764
  530MOL0     H69933   5.632   5.352   2.532 -0.5732 -2.7096  2.9922
  530MOL0     H69934   5.467   5.141   2.402 -1.0732 -0.2414  0.2014
  530MOL0     H69935   5.399   5.303   2.414  0.6276  0.0152  0.9502
  530MOL0     H69936   5.499   5.143   2.658  1.0448  2.2852 -0.4949
  530MOL0     H69937   5.325   5.139   2.590 -0.6288  1.0029  0.4114
  530MOL0     H69938   5.390   5.297   2.792 -3.4562 -0.7497  0.7914
  530MOL0     H69939   5.450   5.406   2.658 -1.0859 -0.0521 -1.7419
  530MOL0     H69940   5.178   5.305   2.702 -0.1397  3.2994  2.2943
  530MOL0     H69941   5.217   5.350   2.539 -0.4642  0.4580  0.1216
  530MOL0     H69942   6.259   5.483   2.371  1.4709  2.0123 -0.4906
  530MOL0     H69943   6.403   5.616   2.504  0.5515  1.9585 -3.2203
  530MOL0     H69944   6.424   6.069   2.744  0.1408 -0.8403  2.6660
  530MOL0     H69945   6.647   6.222   2.740  0.1605 -0.5281  0.2744
  530MOL0     H69946   8.737   6.027   2.596  0.0615  0.3727  2.8282
  530MOL0     H69947   8.933   6.053   2.440 -0.2393 -0.5315  0.8056
  530MOL0     H69948   9.244   6.379   2.237  0.0734 -0.8099  1.3495
  530MOL0     H69949   9.416   6.359   2.075 -2.2786  2.8640 -1.3188
  530MOL0     H69950   9.584   6.207   1.980 -0.4469  2.0139  1.0454
  530MOL0     H69951   9.557   6.348   1.875  0.4208 -0.2500 -1.1799
  530MOL0     H69952   9.757   6.190   1.803 -0.2402 -4.9841 -0.2122
  530MOL0     H69953   9.631   6.076   1.768  5.5496 -2.1927  2.6698
  530MOL0     H69954   9.640   6.347   1.642  1.5090 -0.0192  1.1869
  530MOL0     H69955   9.553   6.208   1.580  1.5190 -1.4004 -2.8172
  530MOL0     H69956   9.796   6.109   1.547  1.6655  0.9429  0.4065
  530MOL0     H69957   9.740   6.222   1.433 -3.7496  0.7584 -0.5617
  530MOL0     H69958  10.048   6.428   1.623 -1.2876  1.0423  1.2955
  530MOL0     H69959   9.202   6.069   1.841  1.7463 -3.5515  1.8791
  530MOL0     H69960   9.028   6.078   1.999  1.5288 -2.0624  1.9959
  531MOL0     O69961   4.770   7.115   5.007 -0.1058  0.2989  0.2842
  531MOL0     C69962   4.851   7.139   4.918 -0.0961 -0.1744  0.2906
  531MOL0     O69963   4.817   7.175   4.789 -0.1587  0.4286  0.1503
  531MOL0     C69964   4.685   7.167   4.737 -0.1018  0.2669  0.8560
  531MOL0     C69965   4.648   7.275   4.661  0.6505 -0.9006 -0.5274
  531MOL0     C69966   4.524   7.291   4.606 -1.0458  1.2079  0.1983
  531MOL0     C69967   4.428   7.193   4.632  0.4295  0.9776 -0.5311
  531MOL0     O69968   4.306   7.203   4.588  0.0168 -0.1472  1.4388
  531MOL0     C69969   4.207   7.096   4.621 -0.4616 -0.3783  0.4198
  531MOL0     C69970   4.070   7.115   4.553  0.3929 -0.0775  0.0691
  531MOL0     C69971   4.005   7.237   4.611  0.0231 -0.4565 -0.1643
  531MOL0     C69972   3.896   7.310   4.522  0.3745 -0.0614  0.0926
  531MOL0     C69973   3.752   7.254   4.562 -0.1022 -0.1343  0.6315
  531MOL0     C69974   3.731   7.129   4.477  1.5998  0.0840  0.6385
  531MOL0     C69975   3.579   7.090   4.489  0.3019  0.4834  0.0364
  531MOL0     C69976   3.529   7.005   4.377 -0.4953  0.1174 -0.5614
  531MOL0     N69977   3.384   7.005   4.355 -0.1320 -0.7538  0.4552
  531MOL0     C69978   3.324   7.116   4.296 -0.1727  0.1859  0.8789
  531MOL0     C69979   3.192   7.077   4.303  0.5433 -0.5576 -0.0895
  531MOL0     C69980   3.078   7.144   4.230  0.0896 -0.2824 -0.4077
  531MOL0     C69981   2.993   7.230   4.324  0.9123  0.6745  0.7044
  531MOL0     C69982   2.847   7.264   4.283 -1.0076  0.2287  0.0742
  531MOL0     C69983   2.773   7.317   4.409 -0.0539  0.2410 -0.0378
  531MOL0     O69984   2.652   7.370   4.358  0.7249  0.1174  0.5400
  531MOL0     C69985   2.546   7.395   4.439  0.4410 -0.5081  0.4997
  531MOL0     C69986   2.551   7.391   4.583 -0.4734 -0.0996 -0.2765
  531MOL0     C69987   2.436   7.418   4.662 -0.9766 -0.0637  0.5510
  531MOL0     C69988   2.311   7.450   4.599 -0.8284 -0.0780 -0.1590
  531MOL0     C69989   2.195   7.467   4.674 -0.4977  0.3314 -0.2420
  531MOL0     O69990   2.079   7.409   4.627 -0.5135 -0.1999 -0.5820
  531MOL0     C69991   1.965   7.415   4.703  0.1871  0.6719 -0.3174
  531MOL0     C69992   1.860   7.475   4.628  0.0926  0.0044  0.3077
  531MOL0     C69993   1.732   7.486   4.686  0.0487  0.3891 -0.6899
  531MOL0     C69994   1.708   7.439   4.814 -0.3256  0.2641  0.0795
  531MOL0     O69995   1.582   7.441   4.861  0.3699  0.8150  0.1206
  531MOL0     C69996   1.519   7.317   4.861 -0.4888  1.0428  0.4922
  531MOL0     C69997   1.369   7.335   4.902 -0.3427  0.8541  0.1159
  531MOL0     C69998   1.295   7.199   4.890  1.2068 -0.0130  0.2754
  531MOL0     C69999   1.154   7.203   4.946  0.8576 -0.1086  0.6966
  531MOL0     C70000   1.067   7.072   4.928  0.7138 -0.5298 -0.7594
  531MOL0     C70001   1.119   6.954   5.023  0.7205 -0.1535 -0.0176
  531MOL0     C70002   1.037   6.825   4.987  0.0652  1.0525 -0.5187
  531MOL0     C70003   0.952   6.785   5.111  0.7091 -0.0326  0.5992
  531MOL0    Cl70004   0.830   6.921   5.129 -0.1682 -0.2756  0.1467
  531MOL0     C70005   1.810   7.378   4.886 -0.2802 -0.5455  0.0448
  531MOL0     C70006   1.942   7.370   4.837 -0.0419 -0.9025 -0.0887
  531MOL0     O70007   2.200   7.528   4.783  0.2282 -0.5441 -0.2293
  531MOL0     C70008   2.307   7.447   4.459  0.1171  0.1388  0.9567
  531MOL0     C70009   2.416   7.412   4.381  0.0318  0.1006  0.1451
  531MOL0     N70010   3.184   6.962   4.369 -0.2533  0.5375 -0.4275
  531MOL0     N70011   3.296   6.917   4.407 -0.0507  0.3986  0.6638
  531MOL0     C70012   4.468   7.075   4.704  0.7390  0.2469  0.8746
  531MOL0     C70013   4.588   7.061   4.759 -0.5834 -0.7846 -0.7728
  531MOL0     C70014   4.996   7.157   4.961 -0.7310  0.3989  0.7265
  531MOL0     C70015   5.089   7.220   4.872  1.0776 -0.3517  0.2906
  531MOL0     C70016   5.232   7.227   4.902  0.6905 -0.1686 -0.6646
  531MOL0     C70017   5.275   7.174   5.022 -0.4366 -0.2580  0.3467
  531MOL0     O70018   5.405   7.158   5.076  0.3257 -0.3927  0.1679
  531MOL0     C70019   5.524   7.204   5.004  0.4452 -0.9168 -1.3961
  531MOL0     C70020   5.576   7.115   4.901 -0.1055  0.0814 -0.6298
  531MOL0     C70021   5.719   7.158   4.855 -0.1415  0.4896  1.0893
  531MOL0     C70022   5.786   7.041   4.789 -0.3210 -0.1572  0.2801
  531MOL0     C70023   5.925   7.068   4.749  0.1020 -0.6438  0.3411
  531MOL0     C70024   6.041   7.099   4.724 -0.6330  0.4854  0.0895
  531MOL0     C70025   5.182   7.096   5.094 -0.4116  0.4888  0.5630
  531MOL0     C70026   5.052   7.085   5.065 -0.5794  0.6203  0.1991
  531MOL0     H70027   4.721   7.355   4.658  0.8962 -1.0681  0.7901
  531MOL0     H70028   4.496   7.376   4.544  1.3344  2.3131  0.5166
  531MOL0     H70029   4.195   7.068   4.726 -1.8875  1.7466  0.8923
  531MOL0     H70030   4.241   7.005   4.571 -0.7733 -2.0807  3.1071
  531MOL0     H70031   4.011   7.025   4.574  1.3214 -0.4737  1.1214
  531MOL0     H70032   4.079   7.125   4.445  0.2210  2.5200  0.2248
  531MOL0     H70033   4.073   7.322   4.628  1.7978 -1.6099 -1.1825
  531MOL0     H70034   3.964   7.204   4.707  0.0065 -1.4134 -0.4943
  531MOL0     H70035   3.889   7.418   4.537 -1.7489 -0.0596 -0.6196
  531MOL0     H70036   3.906   7.303   4.413  1.5723 -0.2010  0.2015
  531MOL0     H70037   3.679   7.333   4.544  0.5619 -0.1726 -2.8007
  531MOL0     H70038   3.756   7.230   4.669  1.6569 -0.4134  0.5207
  531MOL0     H70039   3.797   7.052   4.516  1.5999 -0.1499  0.1720
  531MOL0     H70040   3.742   7.155   4.372 -0.4695 -0.3963  0.2525
  531MOL0     H70041   3.567   7.030   4.580 -2.7377  0.6428 -0.1580
  531MOL0     H70042   3.524   7.184   4.484 -1.6207 -0.6349 -2.6899
  531MOL0     H70043   3.557   6.901   4.396  0.6640  0.8494  2.1425
  531MOL0     H70044   3.583   7.032   4.286  1.1123 -1.4279 -0.1147
  531MOL0     H70045   3.363   7.207   4.251 -2.0613  0.4156 -0.4225
  531MOL0     H70046   3.002   7.075   4.193  0.0197  0.1206 -1.0293
  531MOL0     H70047   3.118   7.207   4.150  0.9238  1.0925  1.0423
  531MOL0     H70048   3.051   7.321   4.337  0.1265  2.0772 -4.0454
  531MOL0     H70049   2.974   7.179   4.420 -2.7002  0.8747  0.2523
  531MOL0     H70050   2.840   7.327   4.193 -0.4630 -0.3931 -0.4115
  531MOL0     H70051   2.797   7.170   4.258 -1.8517 -0.1465  2.8192
  531MOL0     H70052   2.825   7.402   4.454 -0.4603  0.5459 -0.1368
  531MOL0     H70053   2.759   7.240   4.486  1.6665  0.4420  0.5102
  531MOL0     H70054   2.649   7.370   4.626  0.2142 -4.5659 -3.3189
  531MOL0     H70055   2.447   7.414   4.770  3.0029 -0.3627  0.2932
  531MOL0     H70056   1.874   7.520   4.531 -1.1048 -1.7035 -0.7196
  531MOL0     H70057   1.648   7.539   4.644 -1.0506 -2.5415 -2.5314
  531MOL0     H70058   1.556   7.246   4.936 -1.1292 -1.5503 -1.5209
  531MOL0     H70059   1.536   7.275   4.762  2.0769  1.4101  0.6983
  531MOL0     H70060   1.317   7.403   4.834 -2.7726 -1.4522 -0.5053
  531MOL0     H70061   1.351   7.382   4.999 -0.2700  3.6862 -1.1387
  531MOL0     H70062   1.355   7.124   4.942 -0.3228 -1.2028  0.3907
  531MOL0     H70063   1.285   7.159   4.788 -1.8824  3.6352 -1.0878
  531MOL0     H70064   1.155   7.223   5.053  1.4156 -0.7361  0.8142
  531MOL0     H70065   1.102   7.280   4.888  1.4585 -0.5796 -0.5003
  531MOL0     H70066   1.080   7.044   4.823 -0.9748 -2.1070 -0.5908
  531MOL0     H70067   0.960   7.089   4.947  0.0334 -2.3606 -2.6072
  531MOL0     H70068   1.098   6.984   5.126  1.0485 -0.2539  0.0777
  531MOL0     H70069   1.226   6.946   5.005  1.2026  2.3573  1.2191
  531MOL0     H70070   0.974   6.817   4.898  1.0437 -3.6662 -1.0247
  531MOL0     H70071   1.110   6.746   4.969 -0.9605 -0.6505  2.1978
  531MOL0     H70072   1.022   6.771   5.194  2.9899 -1.5624 -1.4158
  531MOL0     H70073   0.898   6.693   5.087  1.6528 -0.3950 -0.2384
  531MOL0     H70074   1.794   7.348   4.989  0.1958  1.9962  0.9404
  531MOL0     H70075   2.025   7.321   4.886  0.6556 -0.0903 -0.4321
  531MOL0     H70076   2.211   7.468   4.412  0.0639  0.3382  1.1485
  531MOL0     H70077   2.412   7.387   4.275  0.9247 -0.9695  0.3358
  531MOL0     H70078   4.407   6.987   4.717  1.6316 -0.3462  1.1032
  531MOL0     H70079   4.614   6.974   4.819 -3.4683  0.1230  2.1111
  531MOL0     H70080   5.044   7.276   4.791 -0.8910 -1.1012  0.8284
  531MOL0     H70081   5.301   7.280   4.835  0.7493  3.8296  2.2010
  531MOL0     H70082   5.604   7.223   5.076 -1.9757  1.3558  0.9396
  531MOL0     H70083   5.506   7.303   4.961  2.3331 -0.2840 -0.8080
  531MOL0     H70084   5.585   7.020   4.956 -2.5084 -1.0891 -2.0816
  531MOL0     H70085   5.508   7.105   4.816 -2.0111  1.3767  0.6489
  531MOL0     H70086   5.783   7.187   4.938 -0.6491 -1.5823  2.2853
  531MOL0     H70087   5.712   7.240   4.783  3.2001  0.9428  1.1170
  531MOL0     H70088   5.799   6.958   4.860  3.3124 -0.2835 -0.3374
  531MOL0     H70089   5.726   7.012   4.703 -0.0542  0.9966 -0.3127
  531MOL0     H70090   6.145   7.115   4.703 -0.0389 -1.9950  0.8245
  531MOL0     H70091   5.216   7.045   5.184 -0.0906  2.2992  1.5119
  531MOL0     H70092   4.983   7.023   5.121  1.9730 -3.2820 -0.6275
  532MOL0     O70093   0.978   0.036   8.353 -0.9867 -0.0017  0.2633
  532MOL0     C70094   0.899   0.056   8.441 -0.0436 -0.3378 -0.8293
  532MOL0     O70095   0.915   0.030   8.571 -0.0233 -0.9061  0.2734
  532MOL0     C70096   1.029   0.009   8.630  0.2645 -0.4550 -0.4641
  532MOL0     C70097   1.157   0.032   8.579  1.6109 -0.3048  0.0229
  532MOL0     C70098   1.276   0.024   8.650  0.2498  0.9436  0.2806
  532MOL0     C70099   1.270  -0.027   8.781 -0.1931 -0.1804  1.2036
  532MOL0     O70100   1.392  -0.043   8.843  0.4576  0.8620 -0.5600
  532MOL0     C70101   1.414  -0.068   8.981  0.2071  0.2955  0.0943
  532MOL0     C70102   1.572  -0.073   8.988  0.4936  0.2521 -1.1067
  532MOL0     C70103   1.618  -0.120   9.131 -0.0728  1.2168 -0.2503
  532MOL0     C70104   1.764  -0.103   9.157  0.0514  0.4115  0.2383
  532MOL0     C70105   1.857  -0.215   9.113 -0.1752 -0.7729  0.2773
  532MOL0     C70106   1.920  -0.291   9.232 -0.5136 -0.4450 -0.4137
  532MOL0     C70107   1.816  -0.380   9.316  0.7242  0.2052 -0.4242
  532MOL0     C70108   1.751  -0.493   9.245 -0.7554  0.0814  0.2579
  532MOL0     N70109   1.663  -0.570   9.336 -0.7114 -0.6400 -0.6339
  532MOL0     C70110   1.526  -0.557   9.343 -0.2229 -0.3184 -0.7282
  532MOL0     C70111   1.489  -0.659   9.428 -0.0859  0.2280 -0.3694
  532MOL0     C70112   1.350  -0.704   9.462 -0.1742 -0.3032 -0.2502
  532MOL0     C70113   1.292  -0.607   9.574 -0.2678  0.5451  0.4198
  532MOL0     C70114   1.191  -0.665   9.659  0.4988  0.6878  0.2144
  532MOL0     C70115   1.055  -0.698   9.607  0.0255 -0.4902 -0.1657
  532MOL0     O70116   1.010  -0.570   9.560 -0.4159 -0.2081  0.6111
  532MOL0     C70117   0.886  -0.573   9.506  0.5566 -0.3938 -1.0010
  532MOL0     C70118   0.847  -0.450   9.446  0.2329  0.0005 -0.0371
  532MOL0     C70119   0.724  -0.442   9.391  0.3070  0.4620 -0.1031
  532MOL0     C70120   0.633  -0.547   9.383  0.2628 -0.9649 -0.1878
  532MOL0     C70121   0.498  -0.537   9.326 -0.1220  0.0257  1.1829
  532MOL0     O70122   0.405  -0.640   9.330  0.4087 -0.3340 -0.0709
  532MOL0     C70123   0.285  -0.630   9.266 -0.2885 -0.7843 -0.4141
  532MOL0     C70124   0.276  -0.617   9.128  0.0356  0.1627  0.4178
  532MOL0     C70125   0.148  -0.601   9.078 -0.8559  0.2389 -0.2098
  532MOL0     C70126   0.030  -0.586   9.156 -0.1699  0.2587  0.1512
  532MOL0     O70127  -0.091  -0.561   9.090 -0.2766  0.2187  0.4055
  532MOL0     C70128  -0.201  -0.636   9.144  0.3220 -0.6973 -0.5837
  532MOL0     C70129  -0.335  -0.590   9.077 -0.5030  0.4004 -0.2554
  532MOL0     C70130  -0.367  -0.437   9.101  0.4666  0.1784  0.3100
  532MOL0     C70131  -0.486  -0.390   9.011  0.4403  0.5913 -0.1094
  532MOL0     C70132  -0.546  -0.246   9.034  0.8609  0.2670  0.2631
  532MOL0     C70133  -0.551  -0.207   9.187  0.1375 -0.0288 -0.7115
  532MOL0     C70134  -0.595  -0.056   9.212 -0.7021  0.1388  0.3115
  532MOL0     C70135  -0.565  -0.023   9.361 -0.1865  0.3065 -0.0797
  532MOL0    Cl70136  -0.407  -0.064   9.442 -0.1555 -0.0532  0.2700
  532MOL0     C70137   0.049  -0.607   9.293  0.4398  0.0924  0.1552
  532MOL0     C70138   0.167  -0.644   9.344 -0.1880 -0.4267 -1.0565
  532MOL0     O70139   0.486  -0.434   9.258  0.4052  0.3930  0.7917
  532MOL0     C70140   0.676  -0.672   9.435  0.4678 -0.4701 -0.5513
  532MOL0     C70141   0.795  -0.680   9.509  0.6614 -0.2628 -0.1256
  532MOL0     N70142   1.598  -0.736   9.470  0.4926 -0.1977 -0.4462
  532MOL0     N70143   1.706  -0.681   9.411  0.2286 -0.0077 -0.3467
  532MOL0     C70144   1.151  -0.058   8.840 -0.5912 -0.1064  0.7952
  532MOL0     C70145   1.034  -0.036   8.757  0.0516  0.1967 -1.0846
  532MOL0     C70146   0.769   0.130   8.403 -0.8183  0.9942 -0.2423
  532MOL0     C70147   0.686   0.181   8.500 -0.5015  0.0577 -0.3488
  532MOL0     C70148   0.577   0.259   8.448  0.8242  0.1210  0.6847
  532MOL0     C70149   0.552   0.283   8.305 -0.2826  0.6365 -0.7030
  532MOL0     O70150   0.455   0.356   8.250  0.3750 -0.5499 -0.7342
  532MOL0     C70151   0.324   0.354   8.320 -0.4016  0.1168  0.1135
  532MOL0     C70152   0.255   0.209   8.330 -1.5990  0.1127  0.4064
  532MOL0     C70153   0.128   0.206   8.423 -0.0863 -0.2461  0.0211
  532MOL0     C70154   0.041   0.078   8.396 -0.6712 -0.9315 -0.2666
  532MOL0     C70155  -0.057   0.059   8.505  0.4147  0.1372 -0.4974
  532MOL0     C70156  -0.129   0.034   8.600 -0.5603 -1.8623 -0.0255
  532MOL0     C70157   0.646   0.222   8.219  0.2135  0.5682  1.1978
  532MOL0     C70158   0.746   0.144   8.265 -0.2933 -0.4199  0.8444
  532MOL0     H70159   1.169   0.053   8.473 -0.2619 -0.5401 -0.2738
  532MOL0     H70160   1.374   0.055   8.613  0.1155  1.9472  0.7275
  532MOL0     H70161   1.362  -0.158   9.015 -2.7009  2.2788  1.3181
  532MOL0     H70162   1.379   0.012   9.047 -1.7705 -0.7893  0.4319
  532MOL0     H70163   1.596   0.033   8.971 -0.3709  0.6074 -0.2465
  532MOL0     H70164   1.602  -0.132   8.901 -0.7337 -1.1168 -0.6499
  532MOL0     H70165   1.583  -0.223   9.145 -0.7506  1.5266  0.3817
  532MOL0     H70166   1.571  -0.063   9.211  1.0963  1.1266  0.5284
  532MOL0     H70167   1.811  -0.015   9.114  1.6615 -0.2391  0.5551
  532MOL0     H70168   1.761  -0.084   9.265 -2.6464 -0.4475  0.3817
  532MOL0     H70169   1.931  -0.171   9.045  1.2798 -2.8878  0.3935
  532MOL0     H70170   1.795  -0.285   9.057 -0.5127 -0.7886  0.6682
  532MOL0     H70171   1.952  -0.220   9.308 -2.0788  0.2753 -0.3817
  532MOL0     H70172   2.014  -0.337   9.200 -0.3134 -0.5040  0.2492
  532MOL0     H70173   1.854  -0.405   9.415 -1.9582 -2.8667 -0.0256
  532MOL0     H70174   1.737  -0.310   9.344  2.4012  2.3605 -0.7312
  532MOL0     H70175   1.825  -0.560   9.199  1.6700  3.2832 -0.9570
  532MOL0     H70176   1.688  -0.444   9.169 -0.0407  1.5346  0.5514
  532MOL0     H70177   1.461  -0.496   9.281 -3.7725 -3.3948 -0.3601
  532MOL0     H70178   1.352  -0.805   9.506  1.9497 -1.0889 -1.9375
  532MOL0     H70179   1.291  -0.713   9.371 -0.0025 -1.2247 -0.2872
  532MOL0     H70180   1.247  -0.514   9.539 -4.2660 -0.1882  2.9087
  532MOL0     H70181   1.376  -0.571   9.634  1.7310 -0.5268 -1.5965
  532MOL0     H70182   1.235  -0.748   9.716  4.7230  3.5181  1.6079
  532MOL0     H70183   1.179  -0.591   9.739  0.7243  0.8040  0.1433
  532MOL0     H70184   0.989  -0.737   9.685  1.0280  0.1304  1.0298
  532MOL0     H70185   1.060  -0.772   9.526  2.2272 -0.4022 -0.1669
  532MOL0     H70186   0.917  -0.367   9.448  2.1238 -1.5190 -0.4079
  532MOL0     H70187   0.689  -0.350   9.346 -2.8354  1.8940  4.5093
  532MOL0     H70188   0.372  -0.626   9.078 -0.3107 -0.0299 -0.2244
  532MOL0     H70189   0.145  -0.576   8.973  0.2760 -3.1728 -1.1794
  532MOL0     H70190  -0.218  -0.616   9.250 -2.3294  0.0346 -1.0752
  532MOL0     H70191  -0.188  -0.744   9.135 -3.2237 -1.2759 -0.2381
  532MOL0     H70192  -0.413  -0.641   9.134 -0.2201 -0.6039 -0.7414
  532MOL0     H70193  -0.354  -0.609   8.971 -0.3385  4.9282 -1.3087
  532MOL0     H70194  -0.281  -0.373   9.079  1.7608 -1.5179  0.2131
  532MOL0     H70195  -0.393  -0.422   9.206  0.6374 -1.1765  0.5710
  532MOL0     H70196  -0.456  -0.399   8.906  0.9042 -0.1834  0.0860
  532MOL0     H70197  -0.569  -0.458   9.031 -2.2381  3.5628 -0.2739
  532MOL0     H70198  -0.646  -0.234   8.990  1.9527  0.9656 -2.1608
  532MOL0     H70199  -0.475  -0.179   8.986  0.0456  1.6198  0.8626
  532MOL0     H70200  -0.448  -0.226   9.220 -0.8126 -3.3176  0.7513
  532MOL0     H70201  -0.625  -0.266   9.241 -1.6793  2.0573 -0.7486
  532MOL0     H70202  -0.525   0.003   9.152  1.0899  0.5374  2.6144
  532MOL0     H70203  -0.702  -0.036   9.203 -1.0459 -1.7279 -0.1917
  532MOL0     H70204  -0.640  -0.073   9.423  1.3726 -0.4867  1.2687
  532MOL0     H70205  -0.577   0.085   9.373 -1.4734  0.1771 -0.1050
  532MOL0     H70206  -0.036  -0.605   9.361 -0.2934  0.1306 -0.7343
  532MOL0     H70207   0.173  -0.657   9.451 -2.3704  0.7644 -0.7442
  532MOL0     H70208   0.608  -0.756   9.437  2.1219 -1.8503  0.8445
  532MOL0     H70209   0.821  -0.769   9.566 -1.0237 -2.2920 -2.2936
  532MOL0     H70210   1.153  -0.098   8.941 -0.3015  0.0725  0.8637
  532MOL0     H70211   0.939  -0.063   8.802  0.6328 -1.5685 -0.8485
  532MOL0     H70212   0.706   0.158   8.604 -1.3277 -1.0882 -0.4220
  532MOL0     H70213   0.508   0.281   8.529  0.9499 -2.9605  1.7500
  532MOL0     H70214   0.259   0.434   8.285  1.3090  2.2856  1.5979
  532MOL0     H70215   0.343   0.385   8.424  0.7577 -0.3597  0.0584
  532MOL0     H70216   0.217   0.193   8.228 -0.3912  4.0412 -0.8333
  532MOL0     H70217   0.321   0.129   8.365 -0.9157  0.9585  1.0997
  532MOL0     H70218   0.061   0.290   8.402  1.4479  1.0560  0.1268
  532MOL0     H70219   0.158   0.212   8.528  1.0730  1.9773 -0.3792
  532MOL0     H70220  -0.015   0.097   8.304  1.8913  4.5422 -1.1386
  532MOL0     H70221   0.100  -0.012   8.375  1.5286  0.3189  0.2296
  532MOL0     H70222  -0.195   0.026   8.685 -0.5516 -0.9354  0.0746
  532MOL0     H70223   0.630   0.227   8.112  0.3679 -0.5793  1.1020
  532MOL0     H70224   0.821   0.113   8.194  0.2161 -0.6093  1.4539
  533MOL0     O70225   4.944   5.728  10.139  0.3026 -0.0333 -0.3541
  533MOL0     C70226   4.920   5.765  10.025  0.3697  0.3408 -0.1637
  533MOL0     O70227   4.991   5.733   9.912 -0.2347 -0.0797  0.7063
  533MOL0     C70228   5.085   5.634   9.914  0.5749 -0.1806 -0.6761
  533MOL0     C70229   5.216   5.672   9.936 -0.1042  0.4648  0.6034
  533MOL0     C70230   5.312   5.569   9.953  0.9746 -0.2145 -0.6838
  533MOL0     C70231   5.275   5.432   9.936 -0.3763 -0.0693 -0.5534
  533MOL0     O70232   5.364   5.324   9.947  1.0427  0.3270 -0.0993
  533MOL0     C70233   5.504   5.357   9.936 -0.1374 -0.0131  0.5077
  533MOL0     C70234   5.597   5.246   9.897 -0.0786 -0.1976  0.4133
  533MOL0     C70235   5.611   5.139  10.002  1.1365 -0.2755 -0.3391
  533MOL0     C70236   5.750   5.107  10.020  0.2627  0.3787 -0.0747
  533MOL0     C70237   5.777   4.988  10.120 -0.1104 -0.2508 -0.0324
  533MOL0     C70238   5.745   5.036  10.263 -0.0879 -0.1775 -0.7435
  533MOL0     C70239   5.846   5.139  10.322 -0.1589  0.4056 -0.4535
  533MOL0     C70240   5.819   5.146  10.471  0.5514  0.8363 -0.5043
  533MOL0     N70241   5.687   5.210  10.497 -0.7872 -0.7496 -0.6788
  533MOL0     C70242   5.667   5.340  10.512 -0.2019 -1.1173  0.1695
  533MOL0     C70243   5.551   5.355  10.570  0.3548  0.0539 -0.0741
  533MOL0     C70244   5.490   5.491  10.607  0.5696  0.1645  0.6084
  533MOL0     C70245   5.342   5.483  10.569 -0.1673 -0.3290  0.5133
  533MOL0     C70246   5.286   5.632  10.565 -0.0878  0.8025 -0.4238
  533MOL0     C70247   5.138   5.609  10.513 -0.2938  0.5886  0.4167
  533MOL0     O70248   5.081   5.740  10.502 -0.6238  0.3043 -0.4285
  533MOL0     C70249   4.944   5.743  10.489  0.2845 -0.6434  0.3811
  533MOL0     C70250   4.889   5.866  10.512 -0.0809 -0.5809 -0.5308
  533MOL0     C70251   4.747   5.890  10.514  0.1812 -0.0430  1.5217
  533MOL0     C70252   4.663   5.776  10.491  0.5102  0.6829  0.9138
  533MOL0     C70253   4.519   5.800  10.498 -0.0314  0.6071 -1.1755
  533MOL0     O70254   4.446   5.713  10.422 -0.5301  0.1158  0.0122
  533MOL0     C70255   4.324   5.736  10.374 -0.3883  0.5264  0.5696
  533MOL0     C70256   4.258   5.861  10.362 -0.3411  0.3678  0.6417
  533MOL0     C70257   4.133   5.871  10.293 -0.2612  0.1989 -0.1883
  533MOL0     C70258   4.065   5.755  10.241 -0.4411 -0.1274 -0.5419
  533MOL0     O70259   3.939   5.773  10.180 -0.0335 -0.7741  0.4270
  533MOL0     C70260   3.894   5.667  10.095  0.1911 -0.0510  0.3145
  533MOL0     C70261   3.767   5.716  10.035 -0.0378 -0.5350  0.4533
  533MOL0     C70262   3.642   5.668  10.113  0.1643 -0.4598 -0.0304
  533MOL0     C70263   3.507   5.718  10.059  0.2837  0.1193  0.1805
  533MOL0     C70264   3.388   5.657  10.124 -0.3097  0.3662  0.4535
  533MOL0     C70265   3.259   5.711  10.068  0.7296 -0.4662 -0.1624
  533MOL0     C70266   3.136   5.672  10.153 -0.1944 -0.3366  0.3755
  533MOL0     C70267   3.017   5.752  10.090 -0.6438  0.1691  0.3508
  533MOL0    Cl70268   2.863   5.738  10.194  0.3639  0.2520 -0.1088
  533MOL0     C70269   4.140   5.643  10.242 -0.3512 -0.0503  0.6322
  533MOL0     C70270   4.264   5.631  10.308  0.1747 -0.6314  0.0977
  533MOL0     O70271   4.480   5.908  10.545 -0.7075 -0.3635  0.3203
  533MOL0     C70272   4.721   5.653  10.461  0.0061  0.7889 -0.4391
  533MOL0     C70273   4.858   5.632  10.453  0.6439 -0.4148 -0.7079
  533MOL0     N70274   5.490   5.235  10.591  0.0594  0.3263  0.6870
  533MOL0     N70275   5.574   5.149  10.548 -0.9548  0.0736 -0.8988
  533MOL0     C70276   5.139   5.403   9.923  0.6929  0.0801  1.4744
  533MOL0     C70277   5.041   5.503   9.909 -0.8762  0.6312  0.5575
  533MOL0     C70278   4.806   5.856  10.028  0.5158 -0.0446 -0.0411
  533MOL0     C70279   4.714   5.870  10.131 -0.3966  0.2955 -0.1227
  533MOL0     C70280   4.593   5.941  10.118  0.0607 -0.2561 -0.0064
  533MOL0     C70281   4.559   6.001   9.992  0.3067  0.0626 -0.0546
  533MOL0     O70282   4.454   6.085   9.962  0.6937  0.2370  0.3585
  533MOL0     C70283   4.366   6.136  10.063 -0.1000  0.2741  0.0325
  533MOL0     C70284   4.275   6.250  10.012  0.1345  1.0418 -0.2599
  533MOL0     C70285   4.164   6.196   9.937 -0.4223  0.2747 -0.7798
  533MOL0     C70286   4.037   6.274   9.958  0.3133  0.9350  0.0832
  533MOL0     C70287   4.059   6.409   9.897  0.3723  0.2123 -0.9712
  533MOL0     C70288   4.076   6.511   9.844  0.0992 -0.9720 -0.3351
  533MOL0     C70289   4.649   5.984   9.891  0.5293  0.3995  0.3006
  533MOL0     C70290   4.774   5.913   9.906  0.1969 -0.5624 -0.8921
  533MOL0     H70291   5.239   5.776   9.955 -2.0111  0.7497  1.5745
  533MOL0     H70292   5.415   5.597   9.974  0.6079  0.1691  0.7404
  533MOL0     H70293   5.542   5.417  10.019  1.2984  2.3344 -1.6991
  533MOL0     H70294   5.521   5.418   9.847  1.7389 -2.2910 -0.8293
  533MOL0     H70295   5.693   5.294   9.875  0.1188 -0.5181  0.5482
  533MOL0     H70296   5.551   5.200   9.809 -0.1325  2.1691 -0.8542
  533MOL0     H70297   5.550   5.052   9.977 -2.5967  2.2487 -0.8615
  533MOL0     H70298   5.560   5.171  10.094 -0.2394  1.1377 -1.5280
  533MOL0     H70299   5.786   5.077   9.921 -0.0599  0.1132 -0.1114
  533MOL0     H70300   5.808   5.197  10.046 -1.3680  1.6650 -0.7025
  533MOL0     H70301   5.877   4.945  10.116  1.2263  2.7288 -1.5062
  533MOL0     H70302   5.705   4.907  10.102  0.0373 -0.1402 -1.2376
  533MOL0     H70303   5.757   4.947  10.326  3.3122  0.8844  0.3215
  533MOL0     H70304   5.642   5.072  10.278 -0.0189 -0.7691  1.6145
  533MOL0     H70305   5.943   5.094  10.299 -1.3597 -1.9672 -1.1391
  533MOL0     H70306   5.839   5.237  10.272 -1.6614  0.4053 -0.2986
  533MOL0     H70307   5.888   5.209  10.528 -1.0860  0.4225  2.1272
  533MOL0     H70308   5.822   5.047  10.517 -0.0060  1.9133  2.0481
  533MOL0     H70309   5.735   5.420  10.487 -1.0128 -0.3689  0.3225
  533MOL0     H70310   5.534   5.568  10.543 -1.1217 -0.1787 -1.0748
  533MOL0     H70311   5.500   5.519  10.712  1.0891 -0.8772  0.8501
  533MOL0     H70312   5.293   5.428  10.650 -2.4837  0.9394  0.0631
  533MOL0     H70313   5.318   5.446  10.469 -1.7824 -0.0563  0.7605
  533MOL0     H70314   5.274   5.662  10.669 -1.6604  0.0317 -0.3609
  533MOL0     H70315   5.351   5.695  10.503  1.2123 -0.1990 -0.1178
  533MOL0     H70316   5.088   5.546  10.586  1.3859 -0.0324  1.0898
  533MOL0     H70317   5.129   5.563  10.414 -2.1049  0.0261  0.8251
  533MOL0     H70318   4.956   5.944  10.546 -1.4258  0.2467  0.3443
  533MOL0     H70319   4.711   5.992  10.522  1.0512  0.2954  1.2512
  533MOL0     H70320   4.311   5.953  10.386 -0.8527  0.3144  2.0526
  533MOL0     H70321   4.087   5.966  10.271  0.8573  0.5438 -1.1130
  533MOL0     H70322   3.873   5.581  10.159  3.9212 -0.0947  1.7125
  533MOL0     H70323   3.968   5.654  10.016  0.2265 -0.6077  0.4357
  533MOL0     H70324   3.740   5.685   9.934  0.1010  2.1499 -0.4769
  533MOL0     H70325   3.764   5.824  10.022 -1.9879 -0.5812  0.2156
  533MOL0     H70326   3.650   5.699  10.217  1.9569 -0.8515 -0.0281
  533MOL0     H70327   3.635   5.559  10.118  3.9708 -0.8245  0.1295
  533MOL0     H70328   3.505   5.826  10.074  3.7361  0.4106 -0.5715
  533MOL0     H70329   3.508   5.696   9.952  1.0253  0.1512  0.1793
  533MOL0     H70330   3.388   5.677  10.232 -1.8823  0.5935  0.4343
  533MOL0     H70331   3.387   5.550  10.101  0.2395  1.0009 -3.1181
  533MOL0     H70332   3.257   5.671   9.966  2.1974 -1.2796  0.0976
  533MOL0     H70333   3.263   5.820  10.066  2.0420 -0.4995  0.0714
  533MOL0     H70334   3.125   5.563  10.158  1.0010 -0.4866 -0.0068
  533MOL0     H70335   3.150   5.709  10.255  0.9765 -0.1555  0.1622
  533MOL0     H70336   2.991   5.725   9.987  1.3178  1.4252 -0.5420
  533MOL0     H70337   3.059   5.853  10.090 -0.0579 -0.0299 -1.4618
  533MOL0     H70338   4.100   5.561  10.184 -0.5793 -0.1044  0.8681
  533MOL0     H70339   4.311   5.534  10.298 -1.0250 -1.2127 -0.0446
  533MOL0     H70340   4.662   5.562  10.458 -0.9639  1.1983  2.8396
  533MOL0     H70341   4.888   5.539  10.406  0.6170 -0.8074  0.0428
  533MOL0     H70342   5.112   5.298   9.924 -0.9041  0.4434  3.4640
  533MOL0     H70343   4.939   5.485   9.877  0.3347 -1.0748 -2.7965
  533MOL0     H70344   4.728   5.823  10.228  0.4796 -1.5652 -1.1001
  533MOL0     H70345   4.517   5.946  10.195  0.9086 -0.4378  0.8636
  533MOL0     H70346   4.423   6.184  10.144 -0.9317  0.6333  0.4222
  533MOL0     H70347   4.316   6.057  10.119  1.2043 -2.3078 -2.2066
  533MOL0     H70348   4.243   6.291  10.108  0.4002 -1.9863  1.2537
  533MOL0     H70349   4.331   6.328   9.959 -0.0932  1.9906  0.8405
  533MOL0     H70350   4.142   6.093   9.967 -1.6637  0.5769 -0.5938
  533MOL0     H70351   4.193   6.195   9.832 -0.0509  0.9642 -0.6924
  533MOL0     H70352   3.956   6.222   9.906 -0.0265  1.6205 -0.0760
  533MOL0     H70353   4.007   6.276  10.063 -0.4592  0.0076 -0.1064
  533MOL0     H70354   4.091   6.604   9.792  0.5812  0.3381  1.9694
  533MOL0     H70355   4.632   6.018   9.789  0.1012  1.4984  0.7260
  533MOL0     H70356   4.842   5.922   9.822  1.4251 -0.4402  0.0882
  534MOL0     O70357   5.460  10.459  10.712  0.6924  0.1325  0.4058
  534MOL0     C70358   5.514  10.389  10.790 -0.0666  0.3093 -0.0932
  534MOL0     O70359   5.452  10.283  10.858  0.0717  0.6175  0.3920
  534MOL0     C70360   5.313  10.277  10.855 -0.4371  0.0784  0.1398
  534MOL0     C70361   5.222  10.380  10.901  0.0757  0.3951 -0.4228
  534MOL0     C70362   5.086  10.366  10.892  0.7556  0.2975 -0.3451
  534MOL0     C70363   5.027  10.244  10.858 -0.2892 -0.3521 -0.7093
  534MOL0     O70364   4.896  10.210  10.850  0.4880  0.1167 -0.3784
  534MOL0     C70365   4.803  10.228  10.961  0.5213  0.1561 -0.5812
  534MOL0     C70366   4.672  10.183  10.900 -0.0276  0.2357 -0.2953
  534MOL0     C70367   4.558  10.222  10.997 -0.2016  0.0682 -0.7077
  534MOL0     C70368   4.428  10.231  10.930  0.1486 -0.1926 -0.7134
  534MOL0     C70369   4.315  10.251  11.031  0.4049  0.3703 -0.4811
  534MOL0     C70370   4.175  10.268  10.974  0.7502 -0.0906 -0.2818
  534MOL0     C70371   4.139  10.149  10.883  0.4816 -0.8077 -0.3966
  534MOL0     C70372   3.989  10.116  10.875 -0.6676 -1.1038  0.0819
  534MOL0     N70373   3.912  10.195  10.772  0.2362 -0.4143  0.5526
  534MOL0     C70374   3.795  10.247  10.791 -0.3364 -0.5930  0.1264
  534MOL0     C70375   3.742  10.282  10.676  0.1705  0.4824  0.4136
  534MOL0     C70376   3.617  10.353  10.657 -0.3407 -0.1556 -0.3962
  534MOL0     C70377   3.497  10.266  10.712  0.6881  0.3959 -0.3396
  534MOL0     C70378   3.447  10.151  10.625 -0.2855  0.2071  0.1080
  534MOL0     C70379   3.409  10.192  10.481 -0.1615 -0.5471  0.4535
  534MOL0     O70380   3.350  10.319  10.482  0.1230 -0.4541  0.1671
  534MOL0     C70381   3.216  10.334  10.436 -0.7601 -0.1295 -0.6658
  534MOL0     C70382   3.121  10.236  10.418  0.4768  0.8815 -0.3089
  534MOL0     C70383   2.981  10.260  10.375 -0.1753  0.2803  0.5425
  534MOL0     C70384   2.950  10.398  10.371  0.2223 -0.6536  0.7187
  534MOL0     C70385   2.807  10.438  10.345  0.4789  0.3491 -0.1265
  534MOL0     O70386   2.714  10.344  10.348  0.2391  0.3253 -0.4018
  534MOL0     C70387   2.585  10.381  10.306 -0.1004 -0.6076  0.3738
  534MOL0     C70388   2.561  10.382  10.173 -0.4222  0.6479  0.3429
  534MOL0     C70389   2.439  10.426  10.130  0.0035  0.2580  0.2811
  534MOL0     C70390   2.344  10.480  10.218 -0.3034 -0.0575  0.0299
  534MOL0     O70391   2.220  10.533  10.184 -0.5329  0.2240  1.1858
  534MOL0     C70392   2.200  10.567  10.045 -0.5091 -0.0372 -0.0018
  534MOL0     C70393   2.072  10.661  10.029  0.2139 -0.8229  0.1857
  534MOL0     C70394   2.034  10.709   9.885 -0.5945  0.1879  0.1115
  534MOL0     C70395   1.933  10.808   9.889  0.9465  0.0633 -0.0711
  534MOL0     C70396   1.900  10.859   9.747  1.1322 -0.9266 -0.6747
  534MOL0     C70397   1.785  10.957   9.759  0.1118 -0.0103  0.2780
  534MOL0     C70398   1.654  10.882   9.758  0.1196 -0.2359 -0.1768
  534MOL0     C70399   1.548  10.965   9.833  0.6442 -0.5716 -0.3850
  534MOL0    Cl70400   1.521  11.104   9.730 -0.4092 -0.0478  0.4546
  534MOL0     C70401   2.374  10.476  10.351  0.2372  0.4144  1.4087
  534MOL0     C70402   2.490  10.419  10.393 -0.4932 -0.9640 -0.2424
  534MOL0     O70403   2.785  10.554  10.311  0.8654 -0.0164 -0.2767
  534MOL0     C70404   3.044  10.499  10.382 -1.4176 -0.3093 -0.4709
  534MOL0     C70405   3.171  10.470  10.417 -0.7724  0.0723  0.0305
  534MOL0     N70406   3.824  10.248  10.579 -0.6125 -0.0487  0.1618
  534MOL0     N70407   3.925  10.195  10.636  0.1347  0.4706  0.6631
  534MOL0     C70408   5.121  10.132  10.845 -0.3667 -0.2307 -0.8411
  534MOL0     C70409   5.255  10.149  10.839 -0.5308  0.0461  0.7057
  534MOL0     C70410   5.659  10.402  10.803 -0.4652  0.5576  0.3410
  534MOL0     C70411   5.729  10.519  10.811  0.6122  1.2291  0.0946
  534MOL0     C70412   5.866  10.523  10.835 -1.0321 -0.1381 -0.1242
  534MOL0     C70413   5.941  10.406  10.863  0.7204  0.1067  0.4830
  534MOL0     O70414   6.078  10.426  10.886 -0.3933  1.2163 -0.1852
  534MOL0     C70415   6.165  10.315  10.922  0.0889  0.5049  0.2005
  534MOL0     C70416   6.208  10.253  10.792  0.0055  0.3302 -0.1945
  534MOL0     C70417   6.257  10.106  10.806 -0.1115  0.1983 -1.1821
  534MOL0     C70418   6.373  10.075  10.699  0.6898 -0.4245  0.2343
  534MOL0     C70419   6.487  10.165  10.731 -0.6199  0.4810 -1.1142
  534MOL0     C70420   6.580  10.228  10.771 -0.6365  0.3151 -0.3196
  534MOL0     C70421   5.873  10.286  10.861  1.0411  0.0725  0.3121
  534MOL0     C70422   5.738  10.284  10.833 -0.2760  0.1380 -0.5751
  534MOL0     H70423   5.277  10.467  10.936  1.3518 -0.2441 -0.7475
  534MOL0     H70424   5.019  10.447  10.916 -1.6867 -1.9042  0.7959
  534MOL0     H70425   4.804  10.332  10.995  4.8851  1.8905 -4.7804
  534MOL0     H70426   4.823  10.175  11.054 -1.1792 -1.6866 -1.2056
  534MOL0     H70427   4.675  10.076  10.876 -0.1147  0.6494 -2.3567
  534MOL0     H70428   4.664  10.238  10.805  0.6811  4.9268  2.0651
  534MOL0     H70429   4.579  10.323  11.033  0.5889 -0.6655  0.9584
  534MOL0     H70430   4.548  10.149  11.077 -2.4423  0.6845 -0.3450
  534MOL0     H70431   4.431  10.312  10.857 -1.7949  0.7897  0.2230
  534MOL0     H70432   4.411  10.140  10.872 -1.5753 -1.6218  1.8163
  534MOL0     H70433   4.337  10.340  11.091  0.3731  0.9662 -1.3290
  534MOL0     H70434   4.305  10.172  11.106  2.8000  0.8527  0.4239
  534MOL0     H70435   4.172  10.367  10.929 -2.3759 -0.4406 -1.0741
  534MOL0     H70436   4.106  10.268  11.059 -0.3224 -4.1674 -0.9405
  534MOL0     H70437   4.185  10.160  10.784 -0.2545  3.0488 -0.4581
  534MOL0     H70438   4.177  10.053  10.920  0.1280 -0.9715 -0.4617
  534MOL0     H70439   3.947  10.135  10.974 -0.3001 -1.2578  0.2701
  534MOL0     H70440   3.971  10.011  10.849  0.0768 -0.8983 -1.3793
  534MOL0     H70441   3.754  10.267  10.890 -3.3121  1.3388 -1.3402
  534MOL0     H70442   3.598  10.377  10.551  0.1844  1.1261 -0.2161
  534MOL0     H70443   3.632  10.449  10.707 -1.2241 -1.0000  1.5728
  534MOL0     H70444   3.408  10.325  10.733  2.4272  2.5429  1.4953
  534MOL0     H70445   3.532  10.227  10.808  2.7188  0.2673 -1.0861
  534MOL0     H70446   3.531  10.082  10.614 -0.9237 -0.5689  0.0237
  534MOL0     H70447   3.356  10.112  10.672 -0.0841 -1.5365 -0.8741
  534MOL0     H70448   3.341  10.115  10.442  4.0669 -2.4952 -4.0816
  534MOL0     H70449   3.497  10.193  10.417  1.2804  1.6824  2.3199
  534MOL0     H70450   3.142  10.131  10.436  1.1214  1.0262 -0.1768
  534MOL0     H70451   2.902  10.191  10.347 -2.7911  3.4800 -0.5733
  534MOL0     H70452   2.643  10.358  10.105 -1.4007 -0.7227 -0.3926
  534MOL0     H70453   2.411  10.440  10.026 -2.0620 -1.0711  0.6016
  534MOL0     H70454   2.185  10.482   9.978 -2.2243  0.9120 -0.9109
  534MOL0     H70455   2.288  10.619  10.007 -0.1747  0.9614  1.9777
  534MOL0     H70456   2.099  10.747  10.090 -1.8289  2.2082 -2.8429
  534MOL0     H70457   1.983  10.613  10.071 -1.6099  1.7443 -0.5604
  534MOL0     H70458   2.003  10.624   9.824  0.4554  2.1689 -3.4881
  534MOL0     H70459   2.122  10.754   9.837  0.5085 -3.2844 -1.3912
  534MOL0     H70460   1.841  10.771   9.936 -1.1646  2.5668 -1.9347
  534MOL0     H70461   1.969  10.892   9.948  3.8369 -1.3337  0.2899
  534MOL0     H70462   1.873  10.779   9.677 -2.7250  1.8422 -2.7169
  534MOL0     H70463   1.983  10.916   9.704  1.6721 -1.9544 -1.0468
  534MOL0     H70464   1.792  11.024   9.673  1.2193 -0.9737 -0.4287
  534MOL0     H70465   1.795  11.022   9.846  1.5240  1.3235 -0.7923
  534MOL0     H70466   1.621  10.847   9.660 -5.1375  1.2730  0.7216
  534MOL0     H70467   1.653  10.794   9.823 -1.0134  0.2056  0.4146
  534MOL0     H70468   1.589  10.997   9.929 -2.9838  0.0391  1.1224
  534MOL0     H70469   1.455  10.912   9.858  0.0287  0.4388 -0.4720
  534MOL0     H70470   2.296  10.516  10.414  0.6500  0.3703  1.9499
  534MOL0     H70471   2.495  10.427  10.501 -0.0003  3.8504 -0.3789
  534MOL0     H70472   3.012  10.602  10.377 -1.9956 -0.4821 -0.3880
  534MOL0     H70473   3.244  10.550  10.416 -0.6258 -0.0624 -0.0203
  534MOL0     H70474   5.092  10.027  10.843 -0.2660 -0.2503 -1.5774
  534MOL0     H70475   5.324  10.065  10.841 -0.7732 -0.2094 -0.4169
  534MOL0     H70476   5.672  10.612  10.811  1.2075  1.6190  1.3057
  534MOL0     H70477   5.915  10.619  10.818 -0.8397  0.0529  1.4096
  534MOL0     H70478   6.118  10.238  10.985 -0.5636  0.0466 -0.8087
  534MOL0     H70479   6.249  10.365  10.971  1.6316 -0.1499 -1.6517
  534MOL0     H70480   6.120  10.240  10.728 -0.0907  0.3635 -0.0685
  534MOL0     H70481   6.275  10.327  10.746 -1.3590  3.1449  2.0249
  534MOL0     H70482   6.168  10.047  10.780  0.4046 -0.3533 -1.7130
  534MOL0     H70483   6.296  10.090  10.906 -2.5916 -2.5227 -0.5241
  534MOL0     H70484   6.394   9.969  10.686 -2.2204 -1.2732  1.5948
  534MOL0     H70485   6.340  10.111  10.602 -3.8240  1.9528  2.3508
  534MOL0     H70486   6.664  10.283  10.810  1.7750 -0.7280 -3.6362
  534MOL0     H70487   5.928  10.193  10.866  0.7472 -0.0940  0.5429
  534MOL0     H70488   5.700  10.183  10.822  3.3964 -2.0167  3.4361
  535MOL0     O70489   5.251   1.771   3.028 -0.5988  0.5932  0.3825
  535MOL0     C70490   5.309   1.877   3.041 -0.4944 -0.6455 -0.2252
  535MOL0     O70491   5.250   1.998   3.057 -0.1643 -0.0377  0.2175
  535MOL0     C70492   5.118   2.016   3.031  0.2496  0.1269  0.0957
  535MOL0     C70493   5.050   1.957   2.923 -0.3473  0.0076 -0.4710
  535MOL0     C70494   4.925   1.991   2.885  0.6181 -0.2805  0.6308
  535MOL0     C70495   4.858   2.083   2.964 -0.2203 -0.5624 -0.7118
  535MOL0     O70496   4.738   2.140   2.935 -0.3812  0.3093 -0.3601
  535MOL0     C70497   4.667   2.086   2.827  0.1047 -0.5593 -0.2556
  535MOL0     C70498   4.530   2.153   2.820  0.1454 -0.2064  0.5185
  535MOL0     C70499   4.440   2.082   2.717  0.3996  0.1004  0.1287
  535MOL0     C70500   4.325   2.168   2.677 -0.0357  0.7385  0.5460
  535MOL0     C70501   4.231   2.105   2.576  0.1439 -0.6296  0.5083
  535MOL0     C70502   4.279   2.148   2.432 -0.0142 -0.2335  0.4463
  535MOL0     C70503   4.162   2.153   2.327 -0.1154  1.1943 -0.1442
  535MOL0     C70504   4.210   2.185   2.188  0.8127 -0.0583 -0.2941
  535MOL0     N70505   4.086   2.201   2.105 -0.0019  0.1218 -0.3932
  535MOL0     C70506   4.037   2.316   2.052  0.8473  0.5298  0.2937
  535MOL0     C70507   3.956   2.273   1.945  1.3372 -0.2055  0.9947
  535MOL0     C70508   3.890   2.364   1.851 -0.1579 -0.4125 -0.2790
  535MOL0     C70509   3.739   2.365   1.860 -0.4304  0.4799 -1.1503
  535MOL0     C70510   3.689   2.389   2.003 -0.4142 -0.0172  0.5636
  535MOL0     C70511   3.535   2.398   2.004  0.5070  0.5118 -0.0499
  535MOL0     O70512   3.484   2.413   2.135  0.1494 -0.2457 -0.3164
  535MOL0     C70513   3.347   2.391   2.157  0.2368 -0.1365  0.0045
  535MOL0     C70514   3.318   2.376   2.288  0.1767  1.4967 -0.3462
  535MOL0     C70515   3.185   2.343   2.329 -0.4487  0.0461 -0.6693
  535MOL0     C70516   3.088   2.310   2.236  0.3839  0.0609  0.4656
  535MOL0     C70517   2.965   2.243   2.281  0.1363 -1.0808 -0.1488
  535MOL0     O70518   2.858   2.265   2.209 -0.6367 -0.3299  0.3785
  535MOL0     C70519   2.735   2.225   2.260  1.2376 -0.8560  0.0331
  535MOL0     C70520   2.707   2.095   2.310  0.3262  0.9378 -0.3419
  535MOL0     C70521   2.569   2.057   2.342  0.7229  0.1941 -0.3783
  535MOL0     C70522   2.461   2.143   2.327 -0.4765  0.1464  0.0341
  535MOL0     O70523   2.336   2.087   2.341  0.4034 -0.0391 -0.2516
  535MOL0     C70524   2.238   2.179   2.382  0.1551  0.2808  0.5957
  535MOL0     C70525   2.170   2.098   2.492  0.6308 -0.2191 -0.5784
  535MOL0     C70526   2.057   2.022   2.425  0.1001  0.1494 -0.7337
  535MOL0     C70527   1.959   1.959   2.530  0.1567 -0.0490 -0.3706
  535MOL0     C70528   1.850   1.881   2.451  0.6036  0.4265  0.4551
  535MOL0     C70529   1.769   1.790   2.548  0.1330 -0.1271  0.1087
  535MOL0     C70530   1.674   1.700   2.461 -0.8873 -0.7192  0.0573
  535MOL0     C70531   1.541   1.772   2.435 -0.1218  0.3554  0.3805
  535MOL0    Cl70532   1.416   1.663   2.379 -0.1623  0.0263 -0.4112
  535MOL0     C70533   2.487   2.270   2.282 -0.4360 -0.3327 -0.5880
  535MOL0     C70534   2.625   2.311   2.245 -0.5267 -0.8876  0.6097
  535MOL0     O70535   2.975   2.179   2.380  0.4010 -0.0345  0.2555
  535MOL0     C70536   3.112   2.342   2.098 -0.1450 -0.2114 -0.2421
  535MOL0     C70537   3.246   2.375   2.060 -0.0345 -0.7993  0.3604
  535MOL0     N70538   3.965   2.142   1.919 -0.4835  0.0760  0.7603
  535MOL0     N70539   4.050   2.105   2.012 -1.1181  0.5388  0.1374
  535MOL0     C70540   4.919   2.143   3.073  0.4151  0.6959  0.0014
  535MOL0     C70541   5.046   2.103   3.105 -0.1546  0.6356 -0.7288
  535MOL0     C70542   5.461   1.866   3.063 -0.2856 -0.2497 -0.8510
  535MOL0     C70543   5.517   1.735   3.080  1.1221  0.6026 -0.1511
  535MOL0     C70544   5.652   1.721   3.124  0.2728  0.2057 -0.5881
  535MOL0     C70545   5.737   1.827   3.140  0.6364 -0.7475  0.6688
  535MOL0     O70546   5.870   1.802   3.163  0.5938  0.5532 -0.1471
  535MOL0     C70547   5.965   1.902   3.196  0.7238  0.5235 -1.5015
  535MOL0     C70548   6.017   1.956   3.072 -0.0288 -0.0703  0.4256
  535MOL0     C70549   6.159   2.000   3.086 -0.2777 -0.2904 -0.7443
  535MOL0     C70550   6.210   2.053   2.952 -0.3967  0.3563  0.1528
  535MOL0     C70551   6.357   2.048   2.938 -1.1269 -1.1753 -1.0928
  535MOL0     C70552   6.478   2.045   2.929 -0.3350 -0.5797  0.1070
  535MOL0     C70553   5.675   1.957   3.134  0.6438 -0.7498 -0.4801
  535MOL0     C70554   5.537   1.977   3.101  0.2767  0.2655  0.9087
  535MOL0     H70555   5.094   1.885   2.854  2.3700  2.2625 -1.2480
  535MOL0     H70556   4.896   1.960   2.785 -1.0114 -0.1743  1.0490
  535MOL0     H70557   4.659   1.977   2.826 -1.7625 -0.4743 -1.5735
  535MOL0     H70558   4.734   2.110   2.743  0.8103 -0.4563  0.3306
  535MOL0     H70559   4.537   2.259   2.794 -0.6814 -0.2599  0.0408
  535MOL0     H70560   4.473   2.146   2.914 -3.0911  2.0465 -1.0770
  535MOL0     H70561   4.414   1.992   2.773  0.2584  1.3768  2.2386
  535MOL0     H70562   4.498   2.055   2.628  3.2852  0.5721  1.7152
  535MOL0     H70563   4.264   2.178   2.768  0.5514  2.0134  0.8165
  535MOL0     H70564   4.364   2.265   2.646 -0.2678 -0.0180 -2.3909
  535MOL0     H70565   4.137   2.152   2.606  0.5763  0.1353  0.6970
  535MOL0     H70566   4.217   1.997   2.581  0.6417 -0.7775 -0.7584
  535MOL0     H70567   4.342   2.069   2.391 -2.0594 -1.5360 -0.2864
  535MOL0     H70568   4.339   2.240   2.425  1.3834 -1.2085 -1.1370
  535MOL0     H70569   4.117   2.053   2.320  3.1876 -0.3528 -1.3437
  535MOL0     H70570   4.083   2.224   2.352 -1.4655 -0.2607 -0.1117
  535MOL0     H70571   4.266   2.094   2.165  1.2402  0.2331 -0.4069
  535MOL0     H70572   4.278   2.270   2.177  0.8249 -0.2214 -1.6563
  535MOL0     H70573   4.057   2.420   2.073  1.0729  0.5235  0.1075
  535MOL0     H70574   3.927   2.342   1.750  1.8192 -0.3801  0.4000
  535MOL0     H70575   3.927   2.465   1.874 -0.2709  0.1009 -2.1063
  535MOL0     H70576   3.687   2.273   1.833 -3.1023  0.7622  2.2919
  535MOL0     H70577   3.686   2.432   1.791 -0.5810  0.3666 -1.1459
  535MOL0     H70578   3.710   2.306   2.071  0.0531  0.8193  1.4571
  535MOL0     H70579   3.725   2.482   2.047  0.6373  0.4656 -1.2079
  535MOL0     H70580   3.499   2.306   1.957 -0.4068  0.4305  0.7777
  535MOL0     H70581   3.508   2.484   1.943  0.6859  1.1168  0.7104
  535MOL0     H70582   3.403   2.391   2.355  0.7238  0.0260 -0.6529
  535MOL0     H70583   3.164   2.307   2.430 -1.2648 -0.8924 -1.1500
  535MOL0     H70584   2.778   2.016   2.288 -3.1823 -2.1541 -1.6287
  535MOL0     H70585   2.544   1.958   2.380  1.5373 -1.4226 -3.6561
  535MOL0     H70586   2.175   2.220   2.303 -0.3564 -2.3511 -0.4480
  535MOL0     H70587   2.289   2.263   2.430 -0.3706  0.7271  0.3835
  535MOL0     H70588   2.132   2.160   2.573  1.2871 -2.0830  1.2331
  535MOL0     H70589   2.244   2.036   2.543 -2.1422 -0.6332  3.4002
  535MOL0     H70590   2.102   1.935   2.376  1.1718  0.4033 -0.2292
  535MOL0     H70591   2.009   2.088   2.353 -0.3348  1.1372  0.4279
  535MOL0     H70592   2.020   1.886   2.585 -1.2877  0.8407  2.6024
  535MOL0     H70593   1.919   2.031   2.601  0.8757 -1.8001  1.9286
  535MOL0     H70594   1.898   1.818   2.375 -0.9226  0.9195 -0.9464
  535MOL0     H70595   1.789   1.959   2.406  0.3402  0.7854  1.4168
  535MOL0     H70596   1.712   1.840   2.627 -1.3501 -0.8226 -0.4934
  535MOL0     H70597   1.844   1.729   2.598 -0.2073  0.7208  1.7512
  535MOL0     H70598   1.720   1.670   2.367  1.9172 -0.7333  1.3473
  535MOL0     H70599   1.652   1.611   2.520  0.7007 -2.2183 -1.4981
  535MOL0     H70600   1.558   1.838   2.349  1.7258 -0.3607  0.1505
  535MOL0     H70601   1.511   1.840   2.515 -1.2166  1.8039 -1.1842
  535MOL0     H70602   2.406   2.342   2.277 -0.5618 -0.3689  0.6603
  535MOL0     H70603   2.641   2.410   2.202 -3.5695 -1.4614 -2.2662
  535MOL0     H70604   3.043   2.325   2.016  1.2803 -3.1968 -0.9515
  535MOL0     H70605   3.272   2.374   1.955 -0.3454 -2.4243  0.2790
  535MOL0     H70606   4.868   2.220   3.130  2.2433  0.5992  1.8713
  535MOL0     H70607   5.114   2.142   3.181  1.7642 -1.4315 -1.2996
  535MOL0     H70608   5.464   1.641   3.068  2.1104 -0.2758  1.8850
  535MOL0     H70609   5.690   1.620   3.136  4.7828  1.5156 -2.1375
  535MOL0     H70610   6.044   1.855   3.255  0.1878  2.7020  1.2076
  535MOL0     H70611   5.916   1.985   3.249 -0.5777  0.3561 -2.3953
  535MOL0     H70612   6.028   1.876   2.997  0.5336  1.1754 -0.8722
  535MOL0     H70613   5.948   2.031   3.033 -0.5008 -0.4134  0.5989
  535MOL0     H70614   6.225   1.915   3.103 -2.0666 -1.2027  2.5099
  535MOL0     H70615   6.168   2.079   3.162  2.3018 -0.4771 -0.7752
  535MOL0     H70616   6.168   1.991   2.873 -2.3702  1.5925  0.1717
  535MOL0     H70617   6.173   2.155   2.938 -2.5310 -0.2739  0.9331
  535MOL0     H70618   6.585   2.045   2.922 -0.3947 -1.1680 -1.0313
  535MOL0     H70619   5.739   2.045   3.141  1.0566 -1.0791 -0.0662
  535MOL0     H70620   5.491   2.075   3.097  1.1610  0.6534 -1.0077
  536MOL0     O70621   7.394   4.169   2.898 -0.1639  0.0185  0.0042
  536MOL0     C70622   7.387   4.047   2.926 -0.6740 -0.1218 -0.1640
  536MOL0     O70623   7.274   3.971   2.919  0.0504 -0.0749  0.2036
  536MOL0     C70624   7.156   4.028   2.970 -0.4662  0.1852 -0.6113
  536MOL0     C70625   7.050   3.941   2.941  0.0544  0.0791 -0.1281
  536MOL0     C70626   6.917   3.969   2.994 -0.0092  0.2427  0.3742
  536MOL0     C70627   6.892   4.091   3.052  0.0311  0.0180 -1.3517
  536MOL0     O70628   6.773   4.106   3.112 -0.4103 -0.4589 -0.8941
  536MOL0     C70629   6.703   4.222   3.088  0.1432 -0.6341  0.5192
  536MOL0     C70630   6.569   4.210   3.166  0.8281 -0.4242  1.0182
  536MOL0     C70631   6.497   4.344   3.177 -0.0597  0.3168 -0.4918
  536MOL0     C70632   6.359   4.332   3.230 -0.6129  0.3175 -0.1322
  536MOL0     C70633   6.259   4.276   3.135  1.3014 -0.4974 -0.2592
  536MOL0     C70634   6.122   4.303   3.207  0.3977  0.3814  0.1993
  536MOL0     C70635   6.004   4.240   3.140  0.2209 -0.1610 -0.2912
  536MOL0     C70636   5.938   4.114   3.196  0.1894 -0.3535  0.5564
  536MOL0     N70637   6.034   4.006   3.186  0.6346  0.5517  0.5225
  536MOL0     C70638   6.127   3.962   3.277  0.0767  0.1856  0.6114
  536MOL0     C70639   6.173   3.850   3.223 -0.2904 -0.5355  0.5055
  536MOL0     C70640   6.255   3.749   3.290 -0.1115  0.0844 -0.3736
  536MOL0     C70641   6.368   3.706   3.199 -1.0844  0.4977  0.3193
  536MOL0     C70642   6.473   3.813   3.196 -0.2325 -0.3695  0.3033
  536MOL0     C70643   6.612   3.766   3.155 -0.0164  0.0328  0.1657
  536MOL0     O70644   6.616   3.685   3.036  0.1954 -0.6524  0.4526
  536MOL0     C70645   6.739   3.629   3.001  0.0826  0.5859  0.1375
  536MOL0     C70646   6.732   3.536   2.900  0.8735 -0.0143 -0.2283
  536MOL0     C70647   6.847   3.479   2.848 -0.1256  0.1657 -0.6436
  536MOL0     C70648   6.980   3.502   2.902  0.3435  1.2812 -0.2427
  536MOL0     C70649   7.104   3.442   2.836 -0.3686 -0.7211 -0.0084
  536MOL0     O70650   7.221   3.476   2.898  0.3723  0.0934  1.0531
  536MOL0     C70651   7.348   3.453   2.844  0.6512  0.6466 -0.7716
  536MOL0     C70652   7.430   3.375   2.929  0.5820 -0.0521 -0.0119
  536MOL0     C70653   7.562   3.349   2.905  0.1611 -0.3655  0.7541
  536MOL0     C70654   7.610   3.397   2.781  0.0047  0.1925  0.5479
  536MOL0     O70655   7.744   3.372   2.754 -0.8997 -0.6336 -0.0836
  536MOL0     C70656   7.831   3.373   2.869 -0.3455 -0.3446 -0.3939
  536MOL0     C70657   7.979   3.381   2.821  0.5142  0.4123  0.1399
  536MOL0     C70658   8.082   3.344   2.932  0.9471  0.1760  0.5038
  536MOL0     C70659   8.218   3.373   2.886 -0.1080  0.4990  0.3865
  536MOL0     C70660   8.316   3.362   3.003 -0.8856  0.0295 -0.0130
  536MOL0     C70661   8.469   3.397   2.970  0.7011  0.0476 -0.9720
  536MOL0     C70662   8.564   3.409   3.098 -0.6388 -0.3124 -0.5668
  536MOL0     C70663   8.695   3.340   3.071  0.8046 -0.6020  0.5148
  536MOL0    Cl70664   8.759   3.395   2.904  0.2447 -0.3918 -0.0186
  536MOL0     C70665   7.533   3.480   2.695  0.4244  0.4550 -0.5990
  536MOL0     C70666   7.402   3.504   2.728  0.5930 -0.9782  0.2164
  536MOL0     O70667   7.095   3.373   2.735  0.0218  0.0744 -0.0105
  536MOL0     C70668   6.984   3.590   3.008 -0.0222  1.2840 -0.6705
  536MOL0     C70669   6.866   3.647   3.055  0.2964  0.1637  0.5371
  536MOL0     N70670   6.107   3.827   3.108 -0.0809  0.4801 -0.4909
  536MOL0     N70671   6.012   3.912   3.089 -0.0878 -0.1351 -0.0687
  536MOL0     C70672   6.993   4.187   3.056  0.0403 -0.0907 -0.3465
  536MOL0     C70673   7.130   4.148   3.031 -0.1778  0.0911 -0.9822
  536MOL0     C70674   7.518   3.975   2.915  0.6990 -0.1125  0.5007
  536MOL0     C70675   7.522   3.836   2.918  0.2419  0.1882  0.2200
  536MOL0     C70676   7.645   3.756   2.899 -1.0401  0.2801  0.7404
  536MOL0     C70677   7.766   3.829   2.878  0.1172 -0.2037  0.8802
  536MOL0     O70678   7.880   3.752   2.870 -0.2906  0.1299 -0.1545
  536MOL0     C70679   8.011   3.810   2.868 -0.0514 -0.3863  0.9586
  536MOL0     C70680   8.045   3.901   2.995  1.0313 -0.6144 -0.0786
  536MOL0     C70681   8.016   3.830   3.134  0.2350 -0.0469  0.1154
  536MOL0     C70682   8.008   3.921   3.249 -0.3689 -0.7238  0.3549
  536MOL0     C70683   7.874   3.980   3.271 -0.6747 -0.1976  0.8683
  536MOL0     C70684   7.762   4.022   3.286 -0.1245  0.2997 -0.1935
  536MOL0     C70685   7.763   3.971   2.855 -0.0445  0.1590 -0.2961
  536MOL0     C70686   7.642   4.045   2.882 -0.5823 -0.1079  0.4419
  536MOL0     H70687   7.060   3.853   2.879 -1.9850 -2.0670  2.3216
  536MOL0     H70688   6.845   3.891   2.974 -1.4865  2.3782 -3.9128
  536MOL0     H70689   6.704   4.231   2.979  1.2846 -2.5925  0.3217
  536MOL0     H70690   6.756   4.311   3.121  1.9237 -0.6581 -1.9714
  536MOL0     H70691   6.607   4.185   3.265  1.9968 -2.2893  0.1643
  536MOL0     H70692   6.509   4.128   3.125 -0.9073  1.2291  0.0914
  536MOL0     H70693   6.504   4.395   3.080  1.4913 -1.5040 -1.4044
  536MOL0     H70694   6.565   4.398   3.243  1.4254 -1.4452 -0.5160
  536MOL0     H70695   6.363   4.283   3.327  0.5420  3.3004  1.4509
  536MOL0     H70696   6.345   4.436   3.262  1.1033  0.4023  0.4401
  536MOL0     H70697   6.272   4.171   3.108 -1.6376 -0.5818 -1.7362
  536MOL0     H70698   6.258   4.331   3.041  1.4099  1.4605  0.8253
  536MOL0     H70699   6.108   4.409   3.228  4.3639  1.0514  0.2265
  536MOL0     H70700   6.120   4.247   3.301 -0.4100 -4.9302 -2.5981
  536MOL0     H70701   5.928   4.318   3.149 -0.3042 -0.6405 -0.4961
  536MOL0     H70702   6.017   4.224   3.033  0.5170 -0.9117 -0.1478
  536MOL0     H70703   5.851   4.081   3.137 -0.6364 -0.0094  1.5478
  536MOL0     H70704   5.899   4.138   3.295 -0.7208  0.9147 -0.0818
  536MOL0     H70705   6.161   3.993   3.376  1.9491 -2.3485  0.8707
  536MOL0     H70706   6.193   3.663   3.316  0.6687 -0.6416 -0.8741
  536MOL0     H70707   6.290   3.791   3.385 -1.6847  3.4420 -1.1295
  536MOL0     H70708   6.336   3.690   3.096 -4.0173  0.9502  1.0696
  536MOL0     H70709   6.414   3.616   3.242 -1.4199  0.5659  0.8291
  536MOL0     H70710   6.442   3.885   3.119 -0.1330 -0.3627  0.2702
  536MOL0     H70711   6.475   3.856   3.296 -1.2488 -1.5675  0.8721
  536MOL0     H70712   6.653   3.706   3.237 -0.1884 -1.0999 -0.5600
  536MOL0     H70713   6.681   3.851   3.152  0.3640 -0.3162 -1.6464
  536MOL0     H70714   6.642   3.512   2.844  0.2882 -3.3904  1.8575
  536MOL0     H70715   6.825   3.420   2.760  0.0733  1.9170 -1.9251
  536MOL0     H70716   7.390   3.362   3.029  1.3162  3.9902  0.9901
  536MOL0     H70717   7.612   3.281   2.973 -0.5052  0.1486  1.7744
  536MOL0     H70718   7.825   3.276   2.917  2.4814 -0.0483  0.7657
  536MOL0     H70719   7.805   3.457   2.935  0.7346 -0.6048  0.3801
  536MOL0     H70720   7.995   3.481   2.779 -0.9558  0.3407 -0.6404
  536MOL0     H70721   7.994   3.313   2.736  1.5201  1.8712 -0.9162
  536MOL0     H70722   8.079   3.236   2.949  0.2059 -0.4148 -2.7135
  536MOL0     H70723   8.051   3.397   3.023  2.1000 -1.7458  2.0994
  536MOL0     H70724   8.238   3.313   2.796 -1.8280  2.5324 -1.4703
  536MOL0     H70725   8.228   3.477   2.853  1.4717 -0.0884 -1.1893
  536MOL0     H70726   8.307   3.267   3.057  1.1291  2.3343  5.0646
  536MOL0     H70727   8.278   3.434   3.076  2.9766  1.5795  0.7150
  536MOL0     H70728   8.466   3.490   2.911  1.8919  0.8366  0.1747
  536MOL0     H70729   8.511   3.319   2.907  2.9031  0.2545  0.1488
  536MOL0     H70730   8.583   3.514   3.118  2.1764 -0.6408 -1.2077
  536MOL0     H70731   8.514   3.372   3.188 -1.3148 -0.9683 -1.1883
  536MOL0     H70732   8.667   3.236   3.091 -0.3072 -0.2092  1.0328
  536MOL0     H70733   8.770   3.367   3.145  1.0602  1.5041 -0.4453
  536MOL0     H70734   7.565   3.529   2.604 -0.3275  2.5214  0.1914
  536MOL0     H70735   7.346   3.571   2.664  1.9792  0.1458  0.1109
  536MOL0     H70736   7.079   3.602   3.060  0.7353  0.2051 -1.7477
  536MOL0     H70737   6.882   3.714   3.140 -0.3831 -3.5666  3.9226
  536MOL0     H70738   6.987   4.290   3.090 -0.9436 -0.5681  1.0358
  536MOL0     H70739   7.204   4.227   3.040 -3.8754  3.9057 -0.9486
  536MOL0     H70740   7.437   3.769   2.923  0.9265 -0.7282 -0.1744
  536MOL0     H70741   7.646   3.647   2.906 -0.8158  0.0214 -2.2317
  536MOL0     H70742   8.023   3.872   2.778  0.0755 -3.2736 -1.1399
  536MOL0     H70743   8.086   3.731   2.864 -1.2717 -1.5395 -1.3444
  536MOL0     H70744   8.148   3.939   2.993  0.2006  1.7890  0.0713
  536MOL0     H70745   7.986   3.992   2.991 -1.3390 -2.0980 -1.2684
  536MOL0     H70746   8.099   3.762   3.157  1.0106  1.3763  1.7584
  536MOL0     H70747   7.919   3.779   3.129 -0.3191  1.0785 -0.7658
  536MOL0     H70748   8.041   3.872   3.341  0.2033 -0.0547  0.5101
  536MOL0     H70749   8.080   4.002   3.233 -0.9742  0.1799  1.9383
  536MOL0     H70750   7.664   4.065   3.299 -0.3962  0.4426 -2.3601
  536MOL0     H70751   7.855   4.022   2.828  0.8965 -0.4058  1.6460
  536MOL0     H70752   7.651   4.150   2.854 -2.0165 -0.5268 -1.8923
  537MOL0     O70753   6.598   2.735   7.381  0.0937  0.5355 -0.3733
  537MOL0     C70754   6.505   2.780   7.449 -0.0595 -0.7982  0.7307
  537MOL0     O70755   6.488   2.914   7.481  0.2657  0.2262 -0.2668
  537MOL0     C70756   6.589   2.999   7.450  0.1603 -0.4044  0.2382
  537MOL0     C70757   6.610   3.030   7.315  0.0271 -0.4658 -1.1855
  537MOL0     C70758   6.729   3.095   7.273 -0.8721  0.4476 -0.3171
  537MOL0     C70759   6.831   3.123   7.366  0.0023  0.2874 -0.4563
  537MOL0     O70760   6.950   3.185   7.333  0.2030  0.1319 -0.4897
  537MOL0     C70761   7.052   3.084   7.291  0.8449 -0.1467 -0.1966
  537MOL0     C70762   7.106   3.005   7.410  0.2028  0.4859  0.3207
  537MOL0     C70763   7.219   2.905   7.359  0.2708  0.7750 -0.2431
  537MOL0     C70764   7.149   2.783   7.296 -0.4482 -1.2161  0.0607
  537MOL0     C70765   7.252   2.680   7.252  0.6105  0.8951 -0.3437
  537MOL0     C70766   7.185   2.542   7.235  0.3300  0.5533  0.0010
  537MOL0     C70767   7.294   2.437   7.195 -0.1479  0.4192  0.4269
  537MOL0     C70768   7.241   2.293   7.184 -0.1846 -0.2079  0.1390
  537MOL0     N70769   7.354   2.196   7.157 -0.2700  0.4500  0.5375
  537MOL0     C70770   7.394   2.092   7.241 -0.3486  0.1121  0.2698
  537MOL0     C70771   7.469   2.009   7.153  0.9758 -0.7414 -0.3678
  537MOL0     C70772   7.531   1.879   7.186 -0.2119  0.3517 -0.9210
  537MOL0     C70773   7.423   1.770   7.199 -0.1308 -0.0035  0.4522
  537MOL0     C70774   7.432   1.702   7.334 -0.2001  1.2612  0.4814
  537MOL0     C70775   7.301   1.615   7.337 -0.7593  0.3904  0.1068
  537MOL0     O70776   7.203   1.705   7.392  0.1674 -0.4562  0.1025
  537MOL0     C70777   7.096   1.651   7.464  0.4700  0.0709  0.9694
  537MOL0     C70778   7.047   1.737   7.565  0.7261  0.2668  0.2793
  537MOL0     C70779   6.940   1.702   7.647  0.6096 -0.3930  0.0294
  537MOL0     C70780   6.876   1.577   7.618 -0.6434 -1.1000  0.8190
  537MOL0     C70781   6.749   1.536   7.691 -0.5244  0.7141  0.1116
  537MOL0     O70782   6.700   1.623   7.777  0.0823 -0.3910  0.7110
  537MOL0     C70783   6.589   1.593   7.855  0.1047  0.8676 -0.1041
  537MOL0     C70784   6.465   1.553   7.802  0.2114  0.1435  0.3886
  537MOL0     C70785   6.362   1.526   7.880  1.2891  0.2445 -0.9797
  537MOL0     C70786   6.363   1.533   8.017 -0.3197 -0.9847 -0.1537
  537MOL0     O70787   6.250   1.476   8.065  0.2026  0.3099  0.1490
  537MOL0     C70788   6.235   1.500   8.208  0.6112  0.7837  0.7502
  537MOL0     C70789   6.097   1.465   8.257 -0.4423  0.0282 -0.2572
  537MOL0     C70790   6.055   1.321   8.199  0.3169  0.1145 -0.7029
  537MOL0     C70791   5.901   1.287   8.221  1.1912 -0.3414  0.0413
  537MOL0     C70792   5.887   1.142   8.206  0.8728  0.5769 -0.1440
  537MOL0     C70793   5.741   1.099   8.211  0.5302  0.6764 -0.0166
  537MOL0     C70794   5.729   0.947   8.208  0.1041  0.8682 -0.0473
  537MOL0     C70795   5.594   0.890   8.249  0.3897  0.1788  0.3304
  537MOL0    Cl70796   5.497   0.981   8.374  0.6608  0.0277  0.4439
  537MOL0     C70797   6.487   1.571   8.075 -0.1936  0.0634 -0.9112
  537MOL0     C70798   6.595   1.613   7.996 -1.2012 -0.5074  0.3164
  537MOL0     O70799   6.707   1.420   7.679 -0.0049  0.6307 -0.0316
  537MOL0     C70800   6.925   1.489   7.518  0.1362 -0.5857 -0.3647
  537MOL0     C70801   7.035   1.523   7.445 -0.5726  0.1487 -0.9511
  537MOL0     N70802   7.462   2.060   7.025 -0.8402  0.2108 -0.6316
  537MOL0     N70803   7.395   2.173   7.032 -0.1582 -0.1440  0.2066
  537MOL0     C70804   6.806   3.090   7.504 -0.3749  0.7953  0.1890
  537MOL0     C70805   6.686   3.028   7.543  0.9781 -0.3358  0.3227
  537MOL0     C70806   6.419   2.679   7.507 -0.6310  0.1097  0.6282
  537MOL0     C70807   6.349   2.708   7.625 -0.5072  0.6472  0.7299
  537MOL0     C70808   6.268   2.606   7.679  1.3059  0.4591  0.7403
  537MOL0     C70809   6.250   2.477   7.610  0.2165 -0.2341 -0.1176
  537MOL0     O70810   6.176   2.377   7.662  0.5557  0.1042  0.1748
  537MOL0     C70811   6.033   2.396   7.656 -0.3189  0.2927  0.1619
  537MOL0     C70812   5.949   2.271   7.722  0.4376 -0.4708 -0.3756
  537MOL0     C70813   5.968   2.277   7.872  0.2190  0.0960  0.0307
  537MOL0     C70814   5.826   2.268   7.942  0.5101 -0.0626  0.6228
  537MOL0     C70815   5.720   2.363   7.905  0.5720 -0.4532  0.7102
  537MOL0     C70816   5.630   2.448   7.900 -0.0296  0.8703  0.1842
  537MOL0     C70817   6.320   2.456   7.493 -0.8207 -0.2742 -0.7978
  537MOL0     C70818   6.410   2.559   7.450  0.2970 -0.0451  0.6535
  537MOL0     H70819   6.532   3.005   7.245 -0.4828 -1.0354 -0.4369
  537MOL0     H70820   6.748   3.116   7.168  1.8742  0.0400  0.0056
  537MOL0     H70821   7.137   3.132   7.242  0.3065  0.6301 -0.3952
  537MOL0     H70822   7.011   3.022   7.211  2.0494 -0.4557 -0.6044
  537MOL0     H70823   7.026   2.945   7.455  0.7789 -3.0894 -2.9019
  537MOL0     H70824   7.152   3.068   7.487 -1.6934 -1.6187  3.4484
  537MOL0     H70825   7.281   2.876   7.444  0.1615 -0.5144 -0.5742
  537MOL0     H70826   7.285   2.944   7.282  0.5197 -0.0377 -0.4504
  537MOL0     H70827   7.064   2.744   7.354 -1.0843 -0.1189 -0.0986
  537MOL0     H70828   7.106   2.812   7.200 -1.2991  3.1224  1.4827
  537MOL0     H70829   7.332   2.670   7.326  2.1337  1.0703 -1.9092
  537MOL0     H70830   7.305   2.709   7.160  1.7831 -1.3431 -0.4378
  537MOL0     H70831   7.096   2.554   7.173 -0.3140 -0.6617  0.6608
  537MOL0     H70832   7.145   2.506   7.330 -3.0859 -2.4288 -2.3040
  537MOL0     H70833   7.327   2.464   7.095 -1.8795 -2.9386 -1.2351
  537MOL0     H70834   7.382   2.450   7.259 -0.4387  2.0226  0.5251
  537MOL0     H70835   7.161   2.282   7.109 -0.8763 -3.1282  1.1734
  537MOL0     H70836   7.198   2.269   7.281 -2.3241  0.9978 -0.4403
  537MOL0     H70837   7.373   2.077   7.346 -1.4766 -0.1798  0.0167
  537MOL0     H70838   7.593   1.903   7.273 -1.6858  0.6942  0.0777
  537MOL0     H70839   7.604   1.833   7.119  0.0391 -0.6968  0.0532
  537MOL0     H70840   7.427   1.696   7.118  0.3589  2.0492 -1.4987
  537MOL0     H70841   7.323   1.809   7.178  1.1167  1.3125 -4.2940
  537MOL0     H70842   7.516   1.632   7.326 -0.8832  0.5677 -5.2275
  537MOL0     H70843   7.445   1.770   7.418  0.1146 -0.7369  2.1223
  537MOL0     H70844   7.306   1.526   7.400 -0.2833 -0.4958 -1.1411
  537MOL0     H70845   7.264   1.572   7.243 -1.4891 -0.6008  0.8236
  537MOL0     H70846   7.082   1.840   7.574  2.5355 -0.5180  4.2744
  537MOL0     H70847   6.903   1.767   7.725 -0.9205 -1.7916  0.5201
  537MOL0     H70848   6.443   1.563   7.697 -0.0302  1.9266  0.5734
  537MOL0     H70849   6.266   1.504   7.834  2.0550 -0.5152 -2.2859
  537MOL0     H70850   6.248   1.607   8.223 -2.1197  1.3323 -0.1206
  537MOL0     H70851   6.314   1.450   8.263 -0.7740 -1.4452  0.8425
  537MOL0     H70852   6.025   1.539   8.222 -1.4373  1.6348  4.3996
  537MOL0     H70853   6.089   1.455   8.366 -2.3033 -1.4331 -0.4782
  537MOL0     H70854   6.115   1.246   8.250  1.5773  0.3876 -1.7402
  537MOL0     H70855   6.064   1.316   8.090  0.0663  1.7896 -0.8378
  537MOL0     H70856   5.859   1.331   8.312  0.4537  3.8411 -2.0765
  537MOL0     H70857   5.840   1.324   8.139 -0.8756 -4.0046 -0.3071
  537MOL0     H70858   5.939   1.108   8.296  0.9868  2.2562  0.4546
  537MOL0     H70859   5.934   1.107   8.114  3.7009 -2.1937  2.1457
  537MOL0     H70860   5.677   1.145   8.135  0.5762 -2.1375 -1.9387
  537MOL0     H70861   5.692   1.133   8.302 -2.2853 -1.6541 -0.5014
  537MOL0     H70862   5.760   0.922   8.106  1.6042  3.7150 -0.4188
  537MOL0     H70863   5.803   0.905   8.277  0.9610  0.1719 -1.3409
  537MOL0     H70864   5.619   0.789   8.283  1.0102 -0.4982 -1.9602
  537MOL0     H70865   5.526   0.869   8.165  3.0778  0.2982 -2.0428
  537MOL0     H70866   6.506   1.564   8.181 -2.7049 -0.6021 -0.4493
  537MOL0     H70867   6.697   1.632   8.030  0.3821 -3.7425 -2.1250
  537MOL0     H70868   6.881   1.394   7.489  0.3550 -0.8342  0.1013
  537MOL0     H70869   7.050   1.447   7.369  2.7267 -0.3023  0.0027
  537MOL0     H70870   6.877   3.128   7.577  0.7764  2.6561 -1.7654
  537MOL0     H70871   6.667   3.008   7.648  1.5284  0.5006  0.5863
  537MOL0     H70872   6.370   2.802   7.674 -0.5827  0.7164  0.6311
  537MOL0     H70873   6.202   2.626   7.763 -1.2362  1.5469 -1.3613
  537MOL0     H70874   6.012   2.410   7.550 -0.3090  3.3267  0.4943
  537MOL0     H70875   5.995   2.483   7.709  1.3089  0.1348  1.6692
  537MOL0     H70876   5.843   2.273   7.696  0.2221 -2.4131  0.1698
  537MOL0     H70877   6.001   2.183   7.683 -0.8828 -0.2676 -2.7325
  537MOL0     H70878   6.014   2.369   7.912  2.1383 -1.9324  2.9442
  537MOL0     H70879   6.036   2.199   7.908 -0.4282 -0.4021  0.1827
  537MOL0     H70880   5.781   2.169   7.931 -1.0312  0.6623  0.0401
  537MOL0     H70881   5.832   2.273   8.051 -2.3166  0.8111  0.8289
  537MOL0     H70882   5.553   2.522   7.893 -2.2308 -1.4234 -2.0725
  537MOL0     H70883   6.313   2.369   7.428 -0.8567 -1.5889  0.8989
  537MOL0     H70884   6.458   2.539   7.354 -0.2335  0.8125  0.1990
  538MOL0     O70885   2.984   0.050   1.334 -0.5466  0.5692 -0.3102
  538MOL0     C70886   3.019   0.157   1.382  0.1070  0.5553 -0.2486
  538MOL0     O70887   2.952   0.272   1.371  0.5491 -0.0602 -0.8269
  538MOL0     C70888   2.840   0.265   1.286 -0.2241  1.0764  1.4568
  538MOL0     C70889   2.849   0.242   1.149  0.4379 -0.5314 -0.5810
  538MOL0     C70890   2.732   0.224   1.067  0.3823 -0.1195  0.5122
  538MOL0     C70891   2.603   0.222   1.123 -0.0892  0.0438  0.5553
  538MOL0     O70892   2.496   0.185   1.045  0.3524 -0.3682  0.6099
  538MOL0     C70893   2.370   0.216   1.097  1.3409 -0.4153 -0.3608
  538MOL0     C70894   2.267   0.218   0.991 -0.6905  0.6589 -0.7701
  538MOL0     C70895   2.238   0.084   0.929 -0.3974 -0.3426 -0.0105
  538MOL0     C70896   2.196   0.074   0.781  0.2003  0.0134  0.3120
  538MOL0     C70897   2.044   0.057   0.766 -0.7326 -0.6884 -0.1831
  538MOL0     C70898   1.977   0.203   0.781  0.5319  0.8477  1.4089
  538MOL0     C70899   1.826   0.208   0.749  0.0804 -0.6716  0.6523
  538MOL0     C70900   1.739   0.127   0.854 -0.2879 -1.0601  0.5394
  538MOL0     N70901   1.785   0.157   0.990 -0.4292 -0.3240  0.3120
  538MOL0     C70902   1.752   0.274   1.068 -0.1045 -1.4254 -0.0196
  538MOL0     C70903   1.814   0.252   1.189  0.5489  0.2324 -0.2025
  538MOL0     C70904   1.817   0.338   1.311  0.0023  0.3875  0.0960
  538MOL0     C70905   1.937   0.431   1.312  0.0154  0.6521  0.2570
  538MOL0     C70906   2.071   0.352   1.344 -0.3064  0.8507  0.3694
  538MOL0     C70907   2.168   0.423   1.444  0.5232 -0.3589  0.4936
  538MOL0     O70908   2.292   0.345   1.453 -0.2727 -0.0632 -0.3877
  538MOL0     C70909   2.372   0.375   1.565 -0.2615  0.3902  0.0904
  538MOL0     C70910   2.473   0.280   1.587  0.1172 -0.6885  0.1335
  538MOL0     C70911   2.566   0.310   1.678 -0.0824  0.1365 -0.1102
  538MOL0     C70912   2.578   0.433   1.752  0.4022  0.1916  0.1530
  538MOL0     C70913   2.683   0.462   1.845 -0.2152  0.4256  0.0431
  538MOL0     O70914   2.787   0.364   1.858  0.3639 -0.2109  0.1320
  538MOL0     C70915   2.888   0.390   1.946 -0.5316  0.1397 -0.1424
  538MOL0     C70916   2.884   0.431   2.084  1.1675  0.3449 -0.3254
  538MOL0     C70917   2.997   0.428   2.166 -0.4535  0.5426 -0.2928
  538MOL0     C70918   3.121   0.379   2.114  0.6299  0.2509  0.0374
  538MOL0     O70919   3.239   0.373   2.182  0.6331 -0.3235 -0.0297
  538MOL0     C70920   3.253   0.394   2.322 -0.0241 -0.5294  0.3857
  538MOL0     C70921   3.250   0.260   2.391 -0.4785 -0.2547 -0.0550
  538MOL0     C70922   3.224   0.267   2.540 -0.3676  0.6949 -0.3234
  538MOL0     C70923   3.330   0.341   2.630  0.3028  0.5213  0.7370
  538MOL0     C70924   3.281   0.329   2.774  0.0166 -0.5387  0.0068
  538MOL0     C70925   3.381   0.355   2.884 -0.1045 -0.2826 -0.2319
  538MOL0     C70926   3.312   0.334   3.020  0.8413 -0.2655 -0.1313
  538MOL0     C70927   3.407   0.364   3.127 -0.5178 -0.0634 -0.1885
  538MOL0    Cl70928   3.471   0.210   3.198 -0.1024 -0.5206  0.5123
  538MOL0     C70929   3.132   0.338   1.986 -0.3620  0.5504  0.4942
  538MOL0     C70930   3.017   0.335   1.904  0.9059 -0.5499  0.1927
  538MOL0     O70931   2.700   0.573   1.891  1.0733  0.0977 -0.7019
  538MOL0     C70932   2.470   0.522   1.735  0.0757 -0.5438  0.1780
  538MOL0     C70933   2.369   0.493   1.640  0.0457 -0.2437 -0.1461
  538MOL0     N70934   1.883   0.131   1.177  0.3960 -0.3979 -0.0538
  538MOL0     N70935   1.882   0.092   1.059  0.0272 -0.0961  0.3587
  538MOL0     C70936   2.594   0.256   1.261 -0.3739  0.0187  0.1813
  538MOL0     C70937   2.711   0.275   1.339 -0.3163 -0.3316  0.0066
  538MOL0     C70938   3.136   0.147   1.472  0.7703 -1.0432  0.1224
  538MOL0     C70939   3.195   0.020   1.503 -0.1577  0.0651  0.1130
  538MOL0     C70940   3.309   0.018   1.591  0.3309 -0.7950  0.0178
  538MOL0     C70941   3.368   0.141   1.639  0.0455 -0.5788  0.9612
  538MOL0     O70942   3.484   0.133   1.718  0.3856 -0.1081 -0.4394
  538MOL0     C70943   3.530   0.255   1.775 -0.6441  0.1105 -0.8052
  538MOL0     C70944   3.617   0.324   1.676 -0.2850  0.2773  0.8757
  538MOL0     C70945   3.720   0.422   1.740 -0.1003  0.3367 -0.7719
  538MOL0     C70946   3.858   0.361   1.767  0.2975 -0.5690  1.0867
  538MOL0     C70947   3.955   0.461   1.814  0.3457 -0.1120 -0.1971
  538MOL0     C70948   4.044   0.538   1.846 -0.1781 -0.1062 -0.1370
  538MOL0     C70949   3.293   0.261   1.613 -0.3625  1.0237 -0.2655
  538MOL0     C70950   3.182   0.263   1.527 -0.3726  0.1020 -0.9761
  538MOL0     H70951   2.945   0.259   1.101  1.4857  3.1218  2.3536
  538MOL0     H70952   2.771   0.196   0.970  0.9064 -2.9759  1.4466
  538MOL0     H70953   2.368   0.319   1.134 -0.2402 -0.7818  0.6990
  538MOL0     H70954   2.344   0.137   1.167  0.5992 -0.2667 -0.4601
  538MOL0     H70955   2.310   0.283   0.914  3.5404 -1.2612 -0.3064
  538MOL0     H70956   2.171   0.251   1.032 -0.4865  0.1438  0.1567
  538MOL0     H70957   2.168   0.033   0.995  0.0283 -0.7069  0.1594
  538MOL0     H70958   2.319   0.012   0.940 -0.4103 -0.4159 -0.3662
  538MOL0     H70959   2.233   0.158   0.722  4.3570 -1.1988  0.8459
  538MOL0     H70960   2.238  -0.017   0.736 -0.6446 -0.5843  0.7243
  538MOL0     H70961   2.001  -0.009   0.842 -0.3062  0.5776  1.2021
  538MOL0     H70962   2.027   0.019   0.665  0.4118 -0.4327 -0.4855
  538MOL0     H70963   2.024   0.266   0.705 -0.7617 -0.3484 -0.4649
  538MOL0     H70964   2.006   0.236   0.882  2.0189 -1.1378  1.6953
  538MOL0     H70965   1.786   0.310   0.748 -0.6031 -0.9285 -1.3383
  538MOL0     H70966   1.808   0.168   0.649 -1.3994 -0.7306  0.9186
  538MOL0     H70967   1.747   0.018   0.847 -1.0084 -1.1295  0.6546
  538MOL0     H70968   1.633   0.154   0.847  0.0052 -0.2903 -1.8376
  538MOL0     H70969   1.684   0.357   1.050  0.0263 -1.6071 -1.5369
  538MOL0     H70970   1.833   0.275   1.399  1.4393  2.7580  1.6508
  538MOL0     H70971   1.721   0.388   1.323 -0.1319  0.2478 -0.3519
  538MOL0     H70972   1.936   0.501   1.396  0.6638 -1.0826  1.7897
  538MOL0     H70973   1.940   0.483   1.216 -2.4393 -0.4288 -0.4987
  538MOL0     H70974   2.057   0.254   1.390  0.3658 -0.1907 -1.5403
  538MOL0     H70975   2.129   0.329   1.254 -0.9009  0.7559 -0.0008
  538MOL0     H70976   2.120   0.423   1.542 -0.8163  0.9545 -0.1181
  538MOL0     H70977   2.183   0.522   1.401 -1.5259 -1.2888 -2.6836
  538MOL0     H70978   2.460   0.188   1.531 -1.9544 -0.9842  1.0068
  538MOL0     H70979   2.621   0.221   1.710 -0.7967  0.1008  1.0860
  538MOL0     H70980   2.789   0.469   2.120  0.6502  0.3238 -1.6150
  538MOL0     H70981   2.992   0.465   2.268  1.0518 -1.1769  0.4462
  538MOL0     H70982   3.180   0.466   2.361  1.2394  1.7243 -1.2161
  538MOL0     H70983   3.350   0.437   2.349  0.1406 -0.6810  0.0366
  538MOL0     H70984   3.339   0.200   2.370 -0.5250 -1.2725  2.2790
  538MOL0     H70985   3.168   0.204   2.346 -0.8676 -0.9189  1.4141
  538MOL0     H70986   3.223   0.161   2.568  1.9738  0.5092 -0.7166
  538MOL0     H70987   3.126   0.311   2.559 -0.7362  0.0765 -0.7479
  538MOL0     H70988   3.428   0.293   2.642 -0.9564 -1.8957  2.2380
  538MOL0     H70989   3.332   0.446   2.603 -1.4802 -0.1127 -2.2602
  538MOL0     H70990   3.226   0.236   2.787  1.2252 -1.1779  0.7487
  538MOL0     H70991   3.202   0.405   2.779 -2.3433 -2.9500  1.8042
  538MOL0     H70992   3.421   0.457   2.881 -1.8381  0.4325 -0.8790
  538MOL0     H70993   3.464   0.286   2.868  0.6240  0.1474  1.5060
  538MOL0     H70994   3.223   0.397   3.025  0.3333 -1.0304  0.6683
  538MOL0     H70995   3.267   0.237   3.043 -2.0012  0.9423 -0.1954
  538MOL0     H70996   3.369   0.425   3.210  1.0057  0.2279  0.3408
  538MOL0     H70997   3.494   0.417   3.086 -2.1424  2.5605 -0.4609
  538MOL0     H70998   3.223   0.291   1.951 -1.9164  0.5963 -4.3173
  538MOL0     H70999   3.026   0.296   1.804  0.3600 -2.4080  0.8303
  538MOL0     H71000   2.483   0.618   1.785  3.2293  0.9128 -2.9777
  538MOL0     H71001   2.296   0.570   1.620 -1.1296 -1.3870 -0.4453
  538MOL0     H71002   2.498   0.261   1.311  0.0317 -1.6024  1.1811
  538MOL0     H71003   2.692   0.313   1.439 -1.1590  0.0236 -0.2810
  538MOL0     H71004   3.157  -0.080   1.486 -0.6951  0.0397  1.3443
  538MOL0     H71005   3.344  -0.077   1.631 -1.5108 -1.6272 -0.2236
  538MOL0     H71006   3.599   0.236   1.858 -2.6787  1.6454  1.3581
  538MOL0     H71007   3.458   0.323   1.821  1.5643  1.5669  0.7088
  538MOL0     H71008   3.663   0.250   1.610 -0.7167  1.7727 -1.2189
  538MOL0     H71009   3.547   0.384   1.617 -1.9296 -1.9245  0.4279
  538MOL0     H71010   3.662   0.446   1.830 -0.1152 -2.2531 -0.0106
  538MOL0     H71011   3.743   0.511   1.682 -2.1745  1.3601 -0.1114
  538MOL0     H71012   3.841   0.273   1.830 -0.6354 -2.1848 -1.2764
  538MOL0     H71013   3.902   0.319   1.675  0.9096  0.2279  0.9981
  538MOL0     H71014   4.114   0.616   1.868  0.0963 -0.6461  0.9217
  538MOL0     H71015   3.328   0.352   1.661 -0.4253  0.1661  1.4985
  538MOL0     H71016   3.136   0.361   1.513  2.4956  2.2083  2.4598
  539MOL0     O71017   2.069   8.184   1.380 -0.1281 -0.6561 -0.6834
  539MOL0     C71018   2.175   8.181   1.451  0.4030  0.0966 -0.6217
  539MOL0     O71019   2.199   8.107   1.563 -0.2492 -0.1286  0.5931
  539MOL0     C71020   2.125   7.998   1.604 -0.2695  0.1683 -0.2412
  539MOL0     C71021   1.986   8.009   1.603  0.2804 -0.1706 -1.1944
  539MOL0     C71022   1.913   7.898   1.650 -0.2049 -0.5752 -0.1629
  539MOL0     C71023   1.977   7.784   1.689 -0.7879 -0.0284 -0.9876
  539MOL0     O71024   1.902   7.669   1.727  0.5181 -0.2433 -0.2610
  539MOL0     C71025   1.762   7.653   1.696  0.4417  0.1269 -0.5857
  539MOL0     C71026   1.712   7.511   1.726  0.6593  0.3638  0.4885
  539MOL0     C71027   1.575   7.496   1.661  0.8249 -0.2675 -0.1693
  539MOL0     C71028   1.516   7.366   1.711  0.0612  0.6239 -0.0948
  539MOL0     C71029   1.388   7.337   1.642 -0.3755  0.3462 -0.7805
  539MOL0     C71030   1.335   7.195   1.690  0.3007 -0.1563 -0.1479
  539MOL0     C71031   1.196   7.169   1.640  0.6543  1.3377  0.7018
  539MOL0     C71032   1.146   7.031   1.685  0.4894 -0.7535 -0.2163
  539MOL0     N71033   1.007   6.996   1.654  0.8540 -0.8669 -0.7271
  539MOL0     C71034   0.895   7.045   1.721  1.3257  0.8169 -0.0050
  539MOL0     C71035   0.793   6.960   1.682 -0.1574 -0.3281 -1.5033
  539MOL0     C71036   0.655   6.965   1.739 -0.0612  1.1266 -0.9733
  539MOL0     C71037   0.544   6.965   1.626 -0.1493  0.5182  0.1435
  539MOL0     C71038   0.409   7.000   1.687  0.1532  1.0342  0.1638
  539MOL0     C71039   0.294   6.965   1.594  0.2980  0.2344 -0.0448
  539MOL0     O71040   0.169   6.976   1.673  0.2327 -0.7825  0.1755
  539MOL0     C71041   0.056   6.923   1.612 -0.3851  0.3610  0.0863
  539MOL0     C71042  -0.026   6.883   1.709 -0.2770  0.1508 -1.1354
  539MOL0     C71043  -0.139   6.804   1.685 -0.0390 -0.3398  0.2302
  539MOL0     C71044  -0.169   6.767   1.547  0.2178  0.4761 -0.3322
  539MOL0     C71045  -0.290   6.686   1.516  0.6126 -0.1900 -1.0373
  539MOL0     O71046  -0.309   6.668   1.393  0.1974  1.3754  1.1743
  539MOL0     C71047  -0.388   6.562   1.352 -0.2909 -0.2928 -1.5307
  539MOL0     C71048  -0.328   6.430   1.356 -1.1226  0.0590 -0.0346
  539MOL0     C71049  -0.416   6.329   1.333 -0.8481  0.4033 -0.7880
  539MOL0     C71050  -0.550   6.348   1.305 -0.6009  0.3942 -0.7334
  539MOL0     O71051  -0.622   6.234   1.284 -0.3803 -0.8445 -0.0607
  539MOL0     C71052  -0.758   6.236   1.257 -0.1181 -0.4344  0.5096
  539MOL0     C71053  -0.803   6.080   1.270  0.6256 -0.8968 -0.4218
  539MOL0     C71054  -0.758   6.016   1.401  0.7781  0.0461 -0.1320
  539MOL0     C71055  -0.760   5.864   1.387  0.1218  0.3008  0.6153
  539MOL0     C71056  -0.873   5.797   1.464  1.0805 -0.4874  1.7208
  539MOL0     C71057  -0.871   5.648   1.469 -0.9468 -0.2944 -0.3408
  539MOL0     C71058  -0.747   5.590   1.544  0.4758 -0.8720 -0.0897
  539MOL0     C71059  -0.630   5.549   1.453 -0.2293 -0.0403  0.1310
  539MOL0    Cl71060  -0.489   5.523   1.566 -0.4045  0.1169  0.1136
  539MOL0     C71061  -0.607   6.476   1.294 -0.4204 -0.2603  0.8040
  539MOL0     C71062  -0.519   6.583   1.320  0.4252  0.4882 -0.6239
  539MOL0     O71063  -0.337   6.625   1.612 -0.0257 -0.1137  0.2486
  539MOL0     C71064  -0.068   6.796   1.454 -0.0442  0.6299 -0.7075
  539MOL0     C71065   0.042   6.877   1.479  0.4880  0.4567 -0.2953
  539MOL0     N71066   0.844   6.868   1.600  0.4112 -0.3500  0.2148
  539MOL0     N71067   0.967   6.892   1.580 -0.0139 -0.6196  0.7577
  539MOL0     C71068   2.114   7.775   1.683 -0.3433 -0.0247 -0.4111
  539MOL0     C71069   2.191   7.877   1.637  0.7982 -0.2345  0.7621
  539MOL0     C71070   2.277   8.282   1.423 -0.4348  0.9321 -0.7285
  539MOL0     C71071   2.414   8.256   1.468  0.4007  0.5583  0.3914
  539MOL0     C71072   2.518   8.331   1.423 -0.3220 -0.0002  0.6178
  539MOL0     C71073   2.500   8.430   1.330  0.4687  0.8635 -0.1129
  539MOL0     O71074   2.611   8.510   1.301 -0.4619  0.5757  0.3363
  539MOL0     C71075   2.595   8.603   1.189  0.2268 -0.0694  0.3215
  539MOL0     C71076   2.732   8.666   1.162  0.6397  0.0254 -0.7153
  539MOL0     C71077   2.760   8.760   1.284  0.5298  0.6742  0.3163
  539MOL0     C71078   2.902   8.804   1.282  0.3523  0.0895  0.3678
  539MOL0     C71079   2.943   8.854   1.154 -0.2300 -0.0408 -0.3257
  539MOL0     C71080   2.987   8.885   1.039 -0.7990  0.0113 -1.0180
  539MOL0     C71081   2.363   8.451   1.285 -0.6813 -0.5599  0.5686
  539MOL0     C71082   2.255   8.381   1.333  1.1737  0.5845 -0.8506
  539MOL0     H71083   1.939   8.098   1.562  0.6223  0.2449 -0.6920
  539MOL0     H71084   1.806   7.911   1.668 -0.0345 -0.4387  0.7665
  539MOL0     H71085   1.743   7.658   1.589  0.2335 -1.0179 -0.6187
  539MOL0     H71086   1.707   7.728   1.754  0.2610 -0.5035  0.0740
  539MOL0     H71087   1.707   7.492   1.834  1.3584  0.4906  0.5473
  539MOL0     H71088   1.774   7.432   1.685 -0.1840  0.0428 -0.1965
  539MOL0     H71089   1.599   7.473   1.557 -3.6944  0.5015 -1.5650
  539MOL0     H71090   1.506   7.578   1.679 -0.1205 -0.9109 -0.7712
  539MOL0     H71091   1.586   7.281   1.711 -1.1784 -0.6556  4.3571
  539MOL0     H71092   1.492   7.367   1.817 -1.8746 -1.4975 -0.4180
  539MOL0     H71093   1.400   7.336   1.534 -1.8018 -1.4652 -0.9735
  539MOL0     H71094   1.320   7.422   1.657 -0.1692  0.8743 -2.5643
  539MOL0     H71095   1.331   7.181   1.799  1.4870 -2.6810 -0.3579
  539MOL0     H71096   1.399   7.114   1.655  1.0635  0.5047 -0.2992
  539MOL0     H71097   1.122   7.239   1.680 -2.0954 -1.4173  0.8112
  539MOL0     H71098   1.191   7.176   1.531 -0.0313  2.8528  0.7995
  539MOL0     H71099   1.163   7.031   1.793  0.8593  0.4984 -0.2612
  539MOL0     H71100   1.213   6.959   1.636  1.9659 -0.7376  1.6681
  539MOL0     H71101   0.894   7.114   1.805  0.4983  0.3222  0.4056
  539MOL0     H71102   0.640   7.051   1.806  2.7189  1.3451 -0.5342
  539MOL0     H71103   0.638   6.876   1.800  0.2222 -1.3398 -4.2147
  539MOL0     H71104   0.535   6.862   1.589  1.3381 -0.2917  1.8575
  539MOL0     H71105   0.566   7.041   1.551  3.3505  0.0748  0.5712
  539MOL0     H71106   0.400   6.953   1.785  0.3400 -0.2874 -0.4274
  539MOL0     H71107   0.398   7.106   1.710 -1.6925  0.6609  1.1533
  539MOL0     H71108   0.303   6.863   1.558 -2.0612  0.8564 -2.7393
  539MOL0     H71109   0.302   7.023   1.502  2.7302  1.7600  1.0227
  539MOL0     H71110  -0.013   6.896   1.816 -2.1974 -0.2302 -0.8095
  539MOL0     H71111  -0.207   6.765   1.760 -2.0503  2.8757  0.2771
  539MOL0     H71112  -0.225   6.414   1.386 -0.9920  2.2419  0.8789
  539MOL0     H71113  -0.372   6.229   1.333  1.0199  1.1733 -1.9367
  539MOL0     H71114  -0.775   6.277   1.157 -1.0786 -1.3121  0.2847
  539MOL0     H71115  -0.811   6.291   1.335 -0.9964 -2.5260  1.4597
  539MOL0     H71116  -0.759   6.019   1.191 -0.8411 -2.1156 -0.3559
  539MOL0     H71117  -0.912   6.072   1.269  0.1939  1.4302  3.6381
  539MOL0     H71118  -0.822   6.056   1.480  2.2889  2.7952 -0.2127
  539MOL0     H71119  -0.658   6.050   1.426  0.0315  1.8439  0.5460
  539MOL0     H71120  -0.743   5.826   1.286  2.0133  4.4670 -0.8628
  539MOL0     H71121  -0.684   5.827   1.456  1.4937  1.1477 -0.3940
  539MOL0     H71122  -0.969   5.823   1.419  1.8389  2.1944  1.4842
  539MOL0     H71123  -0.882   5.847   1.561 -1.0976  0.6548  0.9836
  539MOL0     H71124  -0.892   5.598   1.374 -1.2846  3.0687 -2.2164
  539MOL0     H71125  -0.963   5.627   1.525  0.5402 -1.1147  1.9435
  539MOL0     H71126  -0.714   5.674   1.605 -0.6843 -0.5689  0.1267
  539MOL0     H71127  -0.774   5.503   1.604  1.4120 -1.4276 -0.4509
  539MOL0     H71128  -0.610   5.629   1.381 -1.5739  0.4329  0.2618
  539MOL0     H71129  -0.658   5.458   1.399 -0.5941 -0.0808  0.3880
  539MOL0     H71130  -0.710   6.490   1.264 -0.0508 -1.3887 -1.1790
  539MOL0     H71131  -0.571   6.678   1.314  2.7048  2.4676  4.7761
  539MOL0     H71132  -0.077   6.753   1.355 -1.0217 -3.6394  0.9907
  539MOL0     H71133   0.121   6.896   1.406 -1.4233  2.1553 -2.0801
  539MOL0     H71134   2.158   7.684   1.723 -1.4514 -0.5127 -0.2632
  539MOL0     H71135   2.298   7.862   1.639  0.6376 -1.4248  1.7284
  539MOL0     H71136   2.431   8.166   1.526 -3.7934 -0.2728  0.6770
  539MOL0     H71137   2.618   8.296   1.444  0.6271  0.4018 -2.6459
  539MOL0     H71138   2.520   8.679   1.213  0.1184  0.3856 -1.3259
  539MOL0     H71139   2.575   8.553   1.093  2.8326  0.0719 -0.3544
  539MOL0     H71140   2.805   8.585   1.149  0.5102  0.2816 -3.5868
  539MOL0     H71141   2.728   8.724   1.070 -1.2966  3.1045  1.1523
  539MOL0     H71142   2.755   8.694   1.371  0.2024  2.1114  1.4243
  539MOL0     H71143   2.690   8.843   1.296 -2.4595 -1.8636  1.9009
  539MOL0     H71144   2.924   8.876   1.361  2.1240 -1.4907  1.3915
  539MOL0     H71145   2.961   8.715   1.304 -0.1994 -0.5941 -0.8013
  539MOL0     H71146   3.021   8.921   0.944 -1.5536 -1.3013 -1.8196
  539MOL0     H71147   2.339   8.520   1.205 -0.6518 -3.3974 -2.0455
  539MOL0     H71148   2.155   8.400   1.294  1.6354  2.4057 -1.1987
  540MOL0     O71149  11.091   8.391   7.472 -1.8450 -0.0716  0.1871
  540MOL0     C71150  11.050   8.388   7.586 -0.6170 -0.5530 -0.3630
  540MOL0     O71151  10.947   8.308   7.630  0.0089  0.4858  0.0369
  540MOL0     C71152  10.874   8.232   7.532 -0.0829 -0.3752  1.2941
  540MOL0     C71153  10.732   8.227   7.548  0.3164  0.8927 -0.0129
  540MOL0     C71154  10.642   8.164   7.457 -0.0284  0.1181 -0.3164
  540MOL0     C71155  10.702   8.091   7.342  0.7564 -0.2599 -0.0744
  540MOL0     O71156  10.642   8.005   7.253 -0.6068 -0.1354  0.1905
  540MOL0     C71157  10.519   7.939   7.301 -1.0620  0.2547 -0.0060
  540MOL0     C71158  10.472   7.814   7.220  0.1641 -0.6011  1.3008
  540MOL0     C71159  10.321   7.804   7.221  1.1244  0.8438  0.0056
  540MOL0     C71160  10.275   7.891   7.107  0.5697  0.1742  0.0278
  540MOL0     C71161  10.110   7.894   7.121 -0.1840 -0.3740 -0.0764
  540MOL0     C71162  10.033   7.766   7.082  0.2569 -0.2887 -0.9687
  540MOL0     C71163  10.088   7.686   6.961 -0.2258  0.3901 -0.3982
  540MOL0     C71164   9.998   7.561   6.931 -0.6309  0.5869  0.5160
  540MOL0     N71165   9.861   7.577   6.896  0.0798  0.5728  0.0264
  540MOL0     C71166   9.816   7.595   6.766 -0.4294 -1.3971  0.2778
  540MOL0     C71167   9.678   7.601   6.776  0.0895 -0.0385  0.9306
  540MOL0     C71168   9.588   7.609   6.660 -0.5057  0.3318 -1.2153
  540MOL0     C71169   9.488   7.498   6.646 -0.6026  0.6762  0.0245
  540MOL0     C71170   9.386   7.514   6.527  0.0926  0.7472 -0.1506
  540MOL0     C71171   9.338   7.383   6.475  0.7600  0.1791 -0.4500
  540MOL0     O71172   9.259   7.316   6.571 -0.0773  0.4776 -0.2836
  540MOL0     C71173   9.125   7.310   6.540 -0.7527 -0.1495 -0.6440
  540MOL0     C71174   9.066   7.307   6.409 -0.0190 -0.4537 -0.4407
  540MOL0     C71175   8.929   7.307   6.387 -0.8874  0.8373  0.2957
  540MOL0     C71176   8.844   7.316   6.495  0.5872 -0.0298 -0.7532
  540MOL0     C71177   8.699   7.310   6.476  1.6247 -0.2947  0.9399
  540MOL0     O71178   8.618   7.269   6.567  0.6215  0.7381 -0.4287
  540MOL0     C71179   8.481   7.281   6.543 -0.1070 -0.4711 -0.6594
  540MOL0     C71180   8.401   7.192   6.469 -0.7904 -0.5169  0.8194
  540MOL0     C71181   8.262   7.218   6.458 -0.4749 -0.7570  0.3914
  540MOL0     C71182   8.199   7.321   6.518 -0.1667 -0.9252  0.1543
  540MOL0     O71183   8.059   7.342   6.515 -0.0706  0.5975 -0.1270
  540MOL0     C71184   7.977   7.259   6.594  0.1131  0.0079  0.2794
  540MOL0     C71185   7.910   7.342   6.699 -0.5303  0.4895  0.0057
  540MOL0     C71186   7.826   7.265   6.802 -0.2614  1.4772  0.5761
  540MOL0     C71187   7.784   7.352   6.931 -0.3176 -0.4682  0.0128
  540MOL0     C71188   7.713   7.259   7.037  0.3761 -0.0274 -0.0105
  540MOL0     C71189   7.667   7.339   7.165  0.0021  0.6937 -0.8385
  540MOL0     C71190   7.602   7.254   7.271 -0.1379  1.0840  0.5470
  540MOL0     C71191   7.504   7.329   7.362 -0.6442  0.1319 -0.2074
  540MOL0    Cl71192   7.360   7.380   7.262 -0.4370  0.3841 -0.1980
  540MOL0     C71193   8.272   7.392   6.615 -0.3967 -0.5178  0.1421
  540MOL0     C71194   8.417   7.380   6.618  0.1457 -0.4736 -0.0738
  540MOL0     O71195   8.665   7.355   6.365 -0.3559  0.2303  0.0724
  540MOL0     C71196   8.898   7.319   6.622 -0.1924  0.1299 -0.2109
  540MOL0     C71197   9.036   7.321   6.643  0.5006  0.5568 -0.0073
  540MOL0     N71198   9.647   7.591   6.907  0.1383 -0.0634  0.3825
  540MOL0     N71199   9.751   7.573   6.974  0.1552 -0.1335 -0.5504
  540MOL0     C71200  10.836   8.093   7.329  0.4729  0.7087 -0.6613
  540MOL0     C71201  10.923   8.154   7.422 -0.1951  0.1062 -0.6874
  540MOL0     C71202  11.120   8.483   7.683  0.1367 -0.1690  0.1048
  540MOL0     C71203  11.060   8.503   7.814 -0.0255  0.4633  0.2053
  540MOL0     C71204  11.129   8.556   7.925 -0.1042 -0.0844  0.9815
  540MOL0     C71205  11.251   8.613   7.902  0.1108  0.2431 -0.3059
  540MOL0     O71206  11.297   8.673   8.019 -0.2769 -0.9632  0.6150
  540MOL0     C71207  11.443   8.684   8.026 -0.4410 -0.4134 -0.4343
  540MOL0     C71208  11.491   8.696   8.172 -0.4666 -1.1342 -1.2536
  540MOL0     C71209  11.416   8.804   8.258 -1.0492 -0.1888  0.2727
  540MOL0     C71210  11.476   8.814   8.400  0.7505 -1.1480 -0.6243
  540MOL0     C71211  11.424   8.697   8.473  0.0703 -0.7769 -0.2083
  540MOL0     C71212  11.386   8.608   8.545 -0.3166  0.0049 -0.1432
  540MOL0     C71213  11.314   8.603   7.777  0.7133 -0.1227  0.8147
  540MOL0     C71214  11.246   8.547   7.667 -0.4541 -0.2321 -0.1166
  540MOL0     H71215  10.705   8.292   7.632  1.6032  1.3020  0.1003
  540MOL0     H71216  10.534   8.171   7.465  0.1762  1.2212  2.4734
  540MOL0     H71217  10.438   8.013   7.293 -0.9775  0.2970 -0.4545
  540MOL0     H71218  10.520   7.898   7.403 -2.6676  0.3950  0.1063
  540MOL0     H71219  10.514   7.728   7.273  0.5071 -1.7411 -0.6938
  540MOL0     H71220  10.498   7.816   7.114 -2.6050  1.0246  0.5653
  540MOL0     H71221  10.282   7.843   7.316  0.8214  1.3509 -0.3208
  540MOL0     H71222  10.291   7.701   7.204  3.4729  0.1262 -0.1532
  540MOL0     H71223  10.312   7.991   7.127  0.0621 -0.0043  2.1562
  540MOL0     H71224  10.310   7.856   7.010 -0.1885  2.7379 -1.2329
  540MOL0     H71225  10.077   7.979   7.062 -0.1997 -0.0965  0.3288
  540MOL0     H71226  10.102   7.935   7.222  3.6126 -1.0994  0.6849
  540MOL0     H71227   9.934   7.800   7.052  0.1341  0.5363  0.2914
  540MOL0     H71228  10.032   7.695   7.165 -1.7691 -0.5269 -1.1451
  540MOL0     H71229  10.099   7.750   6.873  0.5333  2.6737  1.2767
  540MOL0     H71230  10.188   7.653   6.990 -1.1000 -1.2708  0.8666
  540MOL0     H71231  10.003   7.493   7.017  1.2089 -1.0334 -0.7735
  540MOL0     H71232  10.053   7.500   6.859 -0.6859 -2.8166  3.1044
  540MOL0     H71233   9.871   7.616   6.675 -1.0788 -2.3936 -0.3612
  540MOL0     H71234   9.655   7.609   6.573  2.2164 -1.9374  0.6812
  540MOL0     H71235   9.536   7.706   6.658 -0.6070  0.2671 -2.3185
  540MOL0     H71236   9.442   7.496   6.746  1.5773 -0.1128  1.0965
  540MOL0     H71237   9.557   7.413   6.638  0.7355  1.4848  1.9794
  540MOL0     H71238   9.304   7.582   6.553  1.1690  0.5277  4.8409
  540MOL0     H71239   9.434   7.560   6.440 -0.0360 -0.7644 -1.0627
  540MOL0     H71240   9.423   7.318   6.453  0.1204 -0.3895 -1.3452
  540MOL0     H71241   9.294   7.396   6.375  2.4549 -1.2730 -1.4497
  540MOL0     H71242   9.130   7.299   6.322  3.1604 -2.2786  1.8552
  540MOL0     H71243   8.891   7.272   6.291  1.3354 -0.7270 -0.0830
  540MOL0     H71244   8.448   7.108   6.418 -0.2800  0.7071 -0.8045
  540MOL0     H71245   8.197   7.165   6.387 -0.3983  0.6007 -0.7308
  540MOL0     H71246   8.027   7.169   6.632  0.0114 -0.4785 -0.7193
  540MOL0     H71247   7.898   7.225   6.527 -1.9872  0.5486  2.3300
  540MOL0     H71248   7.841   7.407   6.645 -0.2001 -0.4087 -1.5625
  540MOL0     H71249   7.974   7.411   6.755 -2.2773  1.7246  0.5774
  540MOL0     H71250   7.885   7.181   6.840  0.4513  0.5323 -2.3552
  540MOL0     H71251   7.741   7.219   6.751  0.8100 -0.2784  0.2697
  540MOL0     H71252   7.882   7.380   6.969 -0.1643 -0.8005 -0.1328
  540MOL0     H71253   7.716   7.435   6.906 -2.1031 -1.7583  0.4116
  540MOL0     H71254   7.781   7.184   7.078 -0.1586 -1.0753 -0.9826
  540MOL0     H71255   7.628   7.207   6.992  1.2511 -1.8308  0.3158
  540MOL0     H71256   7.596   7.417   7.135  0.1388  1.2212  0.1642
  540MOL0     H71257   7.744   7.401   7.210 -0.8953  1.3697 -0.1812
  540MOL0     H71258   7.546   7.170   7.230 -2.1649  3.6031 -2.2540
  540MOL0     H71259   7.676   7.207   7.337 -0.1703  5.3582  4.1922
  540MOL0     H71260   7.557   7.419   7.394 -0.1999  0.5298 -2.0135
  540MOL0     H71261   7.460   7.271   7.445 -2.4305  1.8604  0.1249
  540MOL0     H71262   8.218   7.456   6.685 -0.6641 -0.4936 -0.0863
  540MOL0     H71263   8.474   7.448   6.681  1.8151 -2.0546  0.1754
  540MOL0     H71264   8.828   7.322   6.705 -0.2932 -0.1213 -0.2860
  540MOL0     H71265   9.071   7.311   6.745  0.3828  2.9020  0.3252
  540MOL0     H71266  10.890   8.044   7.248  1.3784  1.9899 -0.8599
  540MOL0     H71267  11.030   8.148   7.407  0.3596  2.9799  1.3035
  540MOL0     H71268  10.958   8.470   7.832  0.2662 -0.6683 -0.1019
  540MOL0     H71269  11.084   8.545   8.024  0.6505 -1.0887  1.2266
  540MOL0     H71270  11.475   8.772   7.969 -1.0909  2.2360  2.9473
  540MOL0     H71271  11.497   8.597   7.989 -0.4848 -1.9448  2.7483
  540MOL0     H71272  11.477   8.600   8.223 -0.6516 -0.7683 -0.6029
  540MOL0     H71273  11.596   8.724   8.177 -0.7741 -0.1626  1.1807
  540MOL0     H71274  11.311   8.774   8.262 -1.4017  0.1979 -3.1644
  540MOL0     H71275  11.427   8.899   8.204  1.4408 -0.0299  0.9278
  540MOL0     H71276  11.586   8.810   8.394  0.9832  1.3710  0.6218
  540MOL0     H71277  11.445   8.909   8.445  1.2675  0.8479 -4.1280
  540MOL0     H71278  11.345   8.521   8.591  0.9089  0.3432  1.6935
  540MOL0     H71279  11.418   8.623   7.754  1.3866 -1.7756  2.2144
  540MOL0     H71280  11.299   8.554   7.572  0.3163 -0.9983  0.2447
  541MOL0     O71281   5.404   5.144   4.967  0.0284  0.9180 -0.5916
  541MOL0     C71282   5.385   5.028   5.022  0.1187 -0.4895  0.0309
  541MOL0     O71283   5.269   4.963   5.050 -0.1136 -0.4020 -0.0101
  541MOL0     C71284   5.144   5.024   5.022 -0.9849 -0.3683  0.4318
  541MOL0     C71285   5.113   5.106   4.905 -0.4531  0.0614  0.0575
  541MOL0     C71286   4.979   5.144   4.887  0.9831  0.6069 -0.2061
  541MOL0     C71287   4.877   5.101   4.979  0.4070  0.6512  0.8123
  541MOL0     O71288   4.741   5.116   4.954  0.2285  0.9490  0.6962
  541MOL0     C71289   4.702   5.192   4.835 -1.2465 -0.2362 -0.6813
  541MOL0     C71290   4.558   5.185   4.802 -0.0825 -0.1137 -0.0813
  541MOL0     C71291   4.521   5.038   4.801  1.0178  1.1182  0.1058
  541MOL0     C71292   4.406   5.014   4.712  0.7625  0.2622  0.2005
  541MOL0     C71293   4.273   5.071   4.755  0.0718 -0.3673  0.0907
  541MOL0     C71294   4.219   5.007   4.887  0.1088 -0.8863  0.1803
  541MOL0     C71295   4.066   5.021   4.883 -0.4915 -1.2740 -1.2149
  541MOL0     C71296   4.009   4.981   5.023 -0.9142 -0.0272  0.1706
  541MOL0     N71297   3.865   4.966   5.020 -0.3657  1.1682  0.8632
  541MOL0     C71298   3.805   4.853   4.962  0.7332 -0.5240  0.6907
  541MOL0     C71299   3.674   4.883   4.989 -0.5139  0.5649  0.1351
  541MOL0     C71300   3.553   4.798   4.944 -0.8203 -0.7054 -0.3642
  541MOL0     C71301   3.487   4.861   4.820  0.2294  0.1907 -0.9280
  541MOL0     C71302   3.382   4.964   4.865 -0.1300  0.2528  0.0092
  541MOL0     C71303   3.321   5.025   4.748 -0.0774  0.0024  0.6253
  541MOL0     O71304   3.245   5.145   4.777  0.6349 -0.3102 -0.3519
  541MOL0     C71305   3.118   5.143   4.825  0.5316  0.1940 -0.0630
  541MOL0     C71306   3.047   5.254   4.799 -0.3120  0.0716  0.3067
  541MOL0     C71307   2.906   5.266   4.842 -0.4292  0.0109  0.5835
  541MOL0     C71308   2.853   5.165   4.924  0.2956 -0.8775  0.3197
  541MOL0     C71309   2.718   5.182   4.992 -1.0827  0.0612  0.3456
  541MOL0     O71310   2.657   5.300   4.963  0.2719 -0.4248  0.0846
  541MOL0     C71311   2.525   5.318   5.001 -0.1801 -0.9146  0.6922
  541MOL0     C71312   2.487   5.428   5.074 -0.7308  1.6031 -0.7390
  541MOL0     C71313   2.362   5.452   5.124  0.8199 -0.7406 -0.6462
  541MOL0     C71314   2.259   5.358   5.103 -0.1027  0.0936  0.7845
  541MOL0     O71315   2.129   5.366   5.158 -0.7791 -0.3857  0.2406
  541MOL0     C71316   2.113   5.431   5.292 -0.9404  0.6967  0.2783
  541MOL0     C71317   2.032   5.549   5.292 -0.1886 -0.8338  0.2547
  541MOL0     C71318   2.033   5.632   5.425 -0.4035 -0.0191  0.4063
  541MOL0     C71319   1.889   5.688   5.434 -0.1269  0.3273  0.1204
  541MOL0     C71320   1.884   5.811   5.513  0.1422 -0.1336 -0.2677
  541MOL0     C71321   1.932   5.943   5.446 -0.8551  0.0848 -0.3782
  541MOL0     C71322   1.855   6.064   5.489  0.3505 -0.4872 -0.6698
  541MOL0     C71323   1.949   6.188   5.457 -0.5576  0.8084  0.0583
  541MOL0    Cl71324   1.970   6.205   5.285 -0.2382 -0.3737 -0.0922
  541MOL0     C71325   2.292   5.252   5.016 -0.1896  0.9992 -0.0531
  541MOL0     C71326   2.419   5.230   4.965  1.4519  0.4977  0.3939
  541MOL0     O71327   2.674   5.089   5.051  0.3326 -0.0789 -0.0991
  541MOL0     C71328   2.924   5.051   4.946 -0.1617  0.6467  0.2698
  541MOL0     C71329   3.049   5.042   4.901 -0.4758  0.1476  1.0651
  541MOL0     N71330   3.664   4.997   5.060  0.2373  0.0992  0.1520
  541MOL0     N71331   3.780   5.048   5.069  0.9358  0.2164  0.3829
  541MOL0     C71332   4.916   5.029   5.093  0.7323  0.1027  0.8205
  541MOL0     C71333   5.047   4.987   5.115 -0.4385 -0.6794 -0.2856
  541MOL0     C71334   5.506   4.961   5.060 -0.9899  0.0614 -0.7998
  541MOL0     C71335   5.502   4.864   5.160  0.1204 -0.0912 -0.0947
  541MOL0     C71336   5.619   4.796   5.195  0.1588 -0.4306 -0.0957
  541MOL0     C71337   5.742   4.807   5.122  0.2398 -0.2494  0.7225
  541MOL0     O71338   5.857   4.733   5.142  0.8507 -0.5791  0.0914
  541MOL0     C71339   5.871   4.681   5.279  0.2996 -0.5813 -0.0518
  541MOL0     C71340   6.001   4.602   5.278  0.4047 -0.2775 -0.3186
  541MOL0     C71341   6.064   4.587   5.415  0.4065 -0.4022 -0.7759
  541MOL0     C71342   6.219   4.555   5.407  0.1578 -0.2788 -0.4387
  541MOL0     C71343   6.276   4.559   5.545  0.0793 -0.1089 -0.2015
  541MOL0     C71344   6.323   4.578   5.657  0.0443 -0.6028 -0.1953
  541MOL0     C71345   5.742   4.913   5.023  0.1608 -0.6682 -0.4115
  541MOL0     C71346   5.632   4.991   5.000  0.3197  0.4524  0.6145
  541MOL0     H71347   5.184   5.144   4.833  0.0407 -0.8566  0.0336
  541MOL0     H71348   4.953   5.219   4.813  2.0651 -0.2400 -1.4784
  541MOL0     H71349   4.759   5.173   4.744  0.2998 -0.8190  0.3701
  541MOL0     H71350   4.717   5.297   4.863  0.5316 -0.8196  0.8123
  541MOL0     H71351   4.531   5.237   4.710  0.7130  1.7940  0.7036
  541MOL0     H71352   4.496   5.230   4.880 -1.7295 -1.2256 -0.6833
  541MOL0     H71353   4.501   5.002   4.902  0.4366  1.6656  0.1894
  541MOL0     H71354   4.604   4.986   4.753  0.7067  1.8951 -1.3298
  541MOL0     H71355   4.444   5.054   4.618  0.7545 -0.7785 -0.2603
  541MOL0     H71356   4.406   4.907   4.687  0.7591  0.2195  0.3788
  541MOL0     H71357   4.207   5.037   4.674  4.0490 -2.6010 -2.5725
  541MOL0     H71358   4.286   5.180   4.762  2.3387 -0.6971  2.3018
  541MOL0     H71359   4.257   5.072   4.966  3.0469  0.0917 -1.8685
  541MOL0     H71360   4.237   4.900   4.902  1.1461 -0.4882  2.0351
  541MOL0     H71361   4.040   5.123   4.855 -0.9968 -0.9210  0.4424
  541MOL0     H71362   4.033   4.949   4.807 -0.9181 -3.0730  0.5854
  541MOL0     H71363   4.041   5.063   5.088  2.0164 -0.5139 -0.5404
  541MOL0     H71364   4.052   4.888   5.059  0.8178  0.8829  0.5367
  541MOL0     H71365   3.839   4.770   4.902 -0.5130  0.5955 -1.7161
  541MOL0     H71366   3.479   4.783   5.023 -3.0009 -1.4827 -2.4149
  541MOL0     H71367   3.589   4.701   4.907 -2.9627 -0.8090 -2.4554
  541MOL0     H71368   3.444   4.776   4.766 -1.1412  0.7561 -0.7653
  541MOL0     H71369   3.562   4.914   4.760  0.7108  0.7753  0.1557
  541MOL0     H71370   3.300   4.907   4.911 -1.9727  2.6703 -0.0917
  541MOL0     H71371   3.422   5.035   4.937  1.6851 -0.5695 -0.1393
  541MOL0     H71372   3.262   4.950   4.694  0.6935 -1.4489  1.7151
  541MOL0     H71373   3.397   5.064   4.680 -0.5734 -1.4692 -0.8488
  541MOL0     H71374   3.087   5.339   4.745  0.5845 -2.7944 -3.9692
  541MOL0     H71375   2.848   5.355   4.817  0.0107 -0.1031 -0.9235
  541MOL0     H71376   2.566   5.498   5.099  1.8051 -1.2330 -0.2227
  541MOL0     H71377   2.343   5.539   5.186  1.3457 -0.5824 -0.7055
  541MOL0     H71378   2.209   5.447   5.344 -0.8009  0.4640  0.0924
  541MOL0     H71379   2.066   5.357   5.357 -0.7819  1.6530  1.5402
  541MOL0     H71380   1.930   5.508   5.285  0.2126 -1.7735 -0.2274
  541MOL0     H71381   2.048   5.608   5.202  1.6250 -2.5753 -0.6329
  541MOL0     H71382   2.104   5.715   5.425  0.8035 -0.9705  1.9190
  541MOL0     H71383   2.054   5.578   5.518 -1.0834  0.1258  0.6517
  541MOL0     H71384   1.850   5.724   5.339 -0.7174  1.4688  0.7750
  541MOL0     H71385   1.824   5.608   5.471  1.7944  0.1752  3.6139
  541MOL0     H71386   1.929   5.794   5.611  0.2436 -0.0288 -0.2958
  541MOL0     H71387   1.778   5.829   5.536  0.6152 -0.4646  2.4372
  541MOL0     H71388   1.926   5.935   5.337 -2.0924  3.7447 -0.6962
  541MOL0     H71389   2.033   5.947   5.489 -1.9326 -1.5639  2.6373
  541MOL0     H71390   1.763   6.082   5.433 -0.5347 -1.4881  0.4248
  541MOL0     H71391   1.828   6.051   5.594 -2.1832  3.4505 -0.6640
  541MOL0     H71392   2.044   6.173   5.510 -0.5821 -0.6667 -0.2552
  541MOL0     H71393   1.910   6.276   5.508 -3.2167 -0.3903  0.2468
  541MOL0     H71394   2.214   5.179   4.996  1.4840 -0.1841 -2.7630
  541MOL0     H71395   2.438   5.150   4.893 -0.6898  0.3265 -0.0593
  541MOL0     H71396   2.873   4.974   5.004 -1.8997  0.3050 -1.5945
  541MOL0     H71397   3.108   4.954   4.925 -0.7947 -0.3600  0.0309
  541MOL0     H71398   4.839   4.998   5.162  1.1036 -0.2943  1.0592
  541MOL0     H71399   5.075   4.937   5.208  0.7918  1.3699  0.5115
  541MOL0     H71400   5.414   4.835   5.216 -0.8796 -5.1529 -3.5395
  541MOL0     H71401   5.607   4.730   5.280  0.4962 -2.0453 -1.2610
  541MOL0     H71402   5.791   4.610   5.297 -1.5364  1.0973 -1.2220
  541MOL0     H71403   5.872   4.758   5.357 -2.9165 -1.4402  0.9866
  541MOL0     H71404   5.978   4.506   5.232  0.7689 -1.3947  1.7036
  541MOL0     H71405   6.073   4.654   5.215 -0.1165  0.2803 -0.4664
  541MOL0     H71406   6.015   4.510   5.475 -1.4744  0.3996 -1.1904
  541MOL0     H71407   6.033   4.677   5.469 -2.9041  0.4404 -3.6920
  541MOL0     H71408   6.242   4.461   5.357  1.2270 -0.5164  0.4714
  541MOL0     H71409   6.277   4.636   5.361  2.4632 -0.7951  1.4285
  541MOL0     H71410   6.352   4.591   5.759  1.0003  2.2330 -0.7328
  541MOL0     H71411   5.828   4.935   4.961 -1.8364  3.0599 -2.1968
  541MOL0     H71412   5.654   5.072   4.931  2.3122 -0.5387 -0.0142
  542MOL0     O71413   1.824   9.134   5.542 -0.0924  0.4554 -0.3958
  542MOL0     C71414   1.892   9.232   5.508  0.5218 -0.3681 -0.9126
  542MOL0     O71415   1.839   9.359   5.488  0.5226 -0.6870 -0.1629
  542MOL0     C71416   1.709   9.374   5.510  0.0179 -0.4091 -1.1615
  542MOL0     C71417   1.658   9.350   5.643 -0.1369 -0.7381  0.1939
  542MOL0     C71418   1.522   9.364   5.666 -0.3026  0.7027  0.8620
  542MOL0     C71419   1.433   9.404   5.564 -0.1672 -0.6072  0.5015
  542MOL0     O71420   1.304   9.419   5.605  0.2573 -1.4388  0.2467
  542MOL0     C71421   1.224   9.498   5.511 -0.2968  0.3091  0.4822
  542MOL0     C71422   1.086   9.530   5.577 -0.1569 -1.3047 -0.5128
  542MOL0     C71423   1.011   9.392   5.594 -0.0588 -1.5462 -0.0239
  542MOL0     C71424   0.865   9.413   5.642  0.2550  0.2171  0.0025
  542MOL0     C71425   0.802   9.270   5.684 -0.2115  0.1340  0.1263
  542MOL0     C71426   0.873   9.203   5.802 -0.2017  0.0065 -0.2457
  542MOL0     C71427   0.798   9.076   5.854 -0.0545  0.0512  0.0921
  542MOL0     C71428   0.837   9.041   5.994 -0.9348 -0.3083  0.5992
  542MOL0     N71429   0.988   9.026   6.004  0.4945 -1.8603 -0.5171
  542MOL0     C71430   1.065   8.955   5.918 -0.4598 -0.4022 -0.0455
  542MOL0     C71431   1.195   8.973   5.960  0.2439  0.8000  1.1123
  542MOL0     C71432   1.309   8.916   5.881 -1.2948  0.3765  1.1286
  542MOL0     C71433   1.426   9.021   5.862  0.6562 -0.0820  0.1683
  542MOL0     C71434   1.542   8.971   5.771  0.6843 -1.1681  0.8814
  542MOL0     C71435   1.627   8.866   5.830 -0.6674  0.0671 -0.2745
  542MOL0     O71436   1.708   8.921   5.938 -0.5943  0.2805  0.0441
  542MOL0     C71437   1.843   8.905   5.935  0.1528 -0.5692 -0.4262
  542MOL0     C71438   1.902   8.788   5.880  0.0041  0.2474  0.3804
  542MOL0     C71439   2.040   8.769   5.867 -0.0093 -0.6775 -0.3017
  542MOL0     C71440   2.129   8.877   5.916  0.5931  0.1810 -0.0754
  542MOL0     C71441   2.273   8.871   5.917 -0.2814  0.2892 -0.4292
  542MOL0     O71442   2.315   8.739   5.928  0.0097 -0.0005 -0.0540
  542MOL0     C71443   2.451   8.721   5.899  0.2236 -0.5763  0.3965
  542MOL0     C71444   2.481   8.639   5.791 -0.1723  0.1908  0.3244
  542MOL0     C71445   2.608   8.621   5.742 -0.8705 -0.4662 -0.2706
  542MOL0     C71446   2.712   8.695   5.798  0.7567  0.4120 -0.9864
  542MOL0     O71447   2.834   8.691   5.726  0.0817 -0.2560  0.3144
  542MOL0     C71448   2.930   8.788   5.770  0.8423 -0.7143  0.3110
  542MOL0     C71449   3.031   8.796   5.669  0.1233 -0.9343 -1.1788
  542MOL0     C71450   3.158   8.871   5.736  0.5160 -0.3475  0.6510
  542MOL0     C71451   3.274   8.878   5.638 -0.0464 -0.6817 -0.2053
  542MOL0     C71452   3.384   8.955   5.702 -0.9966 -0.2568 -0.1861
  542MOL0     C71453   3.507   8.986   5.618  0.3263 -0.6911 -1.3109
  542MOL0     C71454   3.503   9.112   5.543  0.6875 -0.1717  0.3126
  542MOL0     C71455   3.621   9.124   5.438 -0.2385  0.5915  0.2414
  542MOL0    Cl71456   3.780   9.093   5.510  0.5718  0.2367 -0.3593
  542MOL0     C71457   2.687   8.781   5.905  0.0753 -1.6619  0.0472
  542MOL0     C71458   2.559   8.788   5.961  0.0020 -0.4000  0.7487
  542MOL0     O71459   2.342   8.967   5.892  0.0912  0.3668 -0.2826
  542MOL0     C71460   2.066   8.996   5.954  0.5989 -0.2750 -0.1801
  542MOL0     C71461   1.927   9.002   5.979  0.3547  0.1070 -0.1395
  542MOL0     N71462   1.188   9.059   6.063 -0.0409 -1.2064  0.3039
  542MOL0     N71463   1.070   9.094   6.092  0.2949 -0.0632  0.0751
  542MOL0     C71464   1.495   9.440   5.442 -0.3709  0.0139 -0.1757
  542MOL0     C71465   1.628   9.415   5.410 -0.3427 -0.7563  0.9862
  542MOL0     C71466   2.040   9.224   5.495 -0.6270  0.4159  0.1857
  542MOL0     C71467   2.126   9.327   5.440  0.3208  0.8906  0.2030
  542MOL0     C71468   2.269   9.305   5.447 -0.1498  0.3676  0.0505
  542MOL0     C71469   2.326   9.190   5.495  0.0591 -0.5218  0.1640
  542MOL0     O71470   2.462   9.184   5.489  0.1341 -0.0930  0.2466
  542MOL0     C71471   2.516   9.069   5.553 -0.3376 -0.4814  0.4315
  542MOL0     C71472   2.664   9.055   5.517  0.6223 -0.2510  0.4039
  542MOL0     C71473   2.746   9.178   5.517  0.4210 -0.4937  0.0306
  542MOL0     C71474   2.904   9.153   5.500  0.5483  0.0046 -0.5676
  542MOL0     C71475   2.935   9.074   5.380 -0.4238  0.6004 -0.8294
  542MOL0     C71476   2.982   9.007   5.292  0.3087  0.6266 -0.1582
  542MOL0     C71477   2.241   9.091   5.548 -0.1514  0.5747 -0.2261
  542MOL0     C71478   2.102   9.111   5.553 -0.5087 -0.3721 -0.7750
  542MOL0     H71479   1.726   9.309   5.718 -0.4278  0.8643  1.3877
  542MOL0     H71480   1.481   9.357   5.767 -1.1461  3.0454  0.7551
  542MOL0     H71481   1.207   9.439   5.421 -0.1667 -2.4310  2.1286
  542MOL0     H71482   1.256   9.596   5.474 -1.7931  0.0352 -1.7000
  542MOL0     H71483   1.031   9.593   5.507  1.2998  2.5795  1.5218
  542MOL0     H71484   1.105   9.587   5.668  2.0879 -0.0859 -1.6676
  542MOL0     H71485   1.072   9.333   5.662  2.4526 -0.0497 -0.8658
  542MOL0     H71486   1.007   9.336   5.500  3.3258 -4.6438  1.4585
  542MOL0     H71487   0.868   9.480   5.728 -0.3738  1.1533 -0.6851
  542MOL0     H71488   0.806   9.454   5.559  2.8179  0.6036 -1.7622
  542MOL0     H71489   0.813   9.196   5.604  1.4964 -1.8812  2.1078
  542MOL0     H71490   0.693   9.274   5.699 -0.1016  0.8750  0.7810
  542MOL0     H71491   0.884   9.281   5.878 -1.9891  1.8765 -1.8069
  542MOL0     H71492   0.977   9.183   5.773 -0.4722  0.0419 -1.2605
  542MOL0     H71493   0.691   9.093   5.872  0.0165 -1.5499  2.5611
  542MOL0     H71494   0.813   8.980   5.803 -0.2621  0.0497  0.0314
  542MOL0     H71495   0.779   8.954   6.026  0.2116 -1.1263  0.5110
  542MOL0     H71496   0.806   9.123   6.060  0.6290  0.6979  0.1341
  542MOL0     H71497   1.037   8.898   5.830 -0.8584 -0.0708 -0.1370
  542MOL0     H71498   1.286   8.875   5.783  3.2374 -1.9180  0.7635
  542MOL0     H71499   1.347   8.837   5.947  3.3935  2.6412  1.5676
  542MOL0     H71500   1.477   9.041   5.956  2.1492 -1.3217 -0.3474
  542MOL0     H71501   1.386   9.120   5.835  1.0267  0.6520  2.1267
  542MOL0     H71502   1.503   8.928   5.678 -1.0831  1.6303  0.2055
  542MOL0     H71503   1.605   9.059   5.753  2.2613 -2.2846  0.7948
  542MOL0     H71504   1.688   8.830   5.747 -1.7711  0.4437 -1.2821
  542MOL0     H71505   1.551   8.794   5.862 -1.5487  1.0721 -0.0456
  542MOL0     H71506   1.836   8.705   5.858  1.4903 -0.6923 -0.7622
  542MOL0     H71507   2.088   8.677   5.835 -1.1205 -1.9968  1.6183
  542MOL0     H71508   2.405   8.580   5.741  1.9600 -1.5872 -0.9524
  542MOL0     H71509   2.621   8.563   5.651 -1.9495  0.8582 -1.3203
  542MOL0     H71510   2.981   8.753   5.860  2.5478  3.6959  1.3091
  542MOL0     H71511   2.882   8.885   5.785 -1.3848 -1.3043 -2.1476
  542MOL0     H71512   2.998   8.853   5.581  0.8248 -1.5560 -1.8603
  542MOL0     H71513   3.061   8.693   5.647  1.2216 -0.8383 -0.2545
  542MOL0     H71514   3.196   8.815   5.821  3.5079  0.1034 -0.2461
  542MOL0     H71515   3.122   8.969   5.768  0.6880  0.2921 -1.0005
  542MOL0     H71516   3.316   8.778   5.622  0.8489 -0.2546 -0.5636
  542MOL0     H71517   3.246   8.905   5.536 -2.6923 -0.7690  0.4153
  542MOL0     H71518   3.430   8.882   5.770 -2.8159 -2.8772 -1.5683
  542MOL0     H71519   3.358   9.046   5.756 -0.9660  0.6072 -1.5957
  542MOL0     H71520   3.527   8.900   5.553 -0.4457 -0.6279 -1.6437
  542MOL0     H71521   3.592   8.994   5.686 -0.8825  2.9829  0.0038
  542MOL0     H71522   3.409   9.141   5.496  0.8524 -1.4145 -0.8363
  542MOL0     H71523   3.513   9.188   5.622  0.5719 -0.6930  0.8379
  542MOL0     H71524   3.622   9.217   5.381 -0.2881  1.3907  1.5202
  542MOL0     H71525   3.612   9.044   5.363 -2.4147  0.6700  0.3635
  542MOL0     H71526   2.747   8.865   5.938  0.7711 -1.3327 -1.8934
  542MOL0     H71527   2.547   8.864   6.038  1.0478 -0.1037  0.6328
  542MOL0     H71528   2.129   9.082   5.976  2.5245 -1.6976  0.0881
  542MOL0     H71529   1.895   9.097   6.020 -2.9849 -1.5353  1.3802
  542MOL0     H71530   1.428   9.480   5.366 -1.8206 -1.6343  0.1597
  542MOL0     H71531   1.661   9.438   5.310  0.6514 -1.0298  1.2457
  542MOL0     H71532   2.084   9.424   5.416  2.6701  2.1355  0.8177
  542MOL0     H71533   2.329   9.384   5.405  1.4369 -0.4536  0.6850
  542MOL0     H71534   2.461   8.981   5.520 -0.0862 -0.7505  0.7234
  542MOL0     H71535   2.492   9.097   5.656 -0.5597  0.1483  0.2108
  542MOL0     H71536   2.710   8.998   5.599  1.9766 -2.0853 -1.5295
  542MOL0     H71537   2.667   9.006   5.420 -1.2774  3.1359 -1.5545
  542MOL0     H71538   2.724   9.242   5.603 -0.3407  2.2468 -2.0594
  542MOL0     H71539   2.707   9.229   5.429  0.4712 -0.2335  0.1566
  542MOL0     H71540   2.953   9.251   5.500 -4.3285  2.9809  3.7177
  542MOL0     H71541   2.940   9.097   5.587  0.9757 -1.0247 -1.3869
  542MOL0     H71542   3.015   8.955   5.205 -5.4170 -0.2701 -2.1495
  542MOL0     H71543   2.277   8.996   5.585 -0.3281  0.4611 -0.3449
  542MOL0     H71544   2.035   9.036   5.593 -0.3111  0.4385  1.2043
  543MOL0     O71545   7.422   0.900   6.912  0.1051 -0.4379  0.0841
  543MOL0     C71546   7.456   1.013   6.872 -0.1990  0.1422  0.7356
  543MOL0     O71547   7.374   1.109   6.809  0.7544 -0.6549 -0.2153
  543MOL0     C71548   7.242   1.088   6.789  0.5568  1.0303 -0.1395
  543MOL0     C71549   7.159   1.189   6.846 -0.4938 -0.0100  0.1136
  543MOL0     C71550   7.020   1.174   6.835 -0.1709 -0.7145  0.3116
  543MOL0     C71551   6.963   1.059   6.773  0.3724 -0.2206  0.6104
  543MOL0     O71552   6.826   1.033   6.759  0.3476  0.6200 -0.7539
  543MOL0     C71553   6.736   1.055   6.864  0.0304  0.2400  1.0633
  543MOL0     C71554   6.624   0.955   6.860 -0.0950  0.0115  0.3177
  543MOL0     C71555   6.523   0.989   6.976 -0.7049  0.4171 -0.2959
  543MOL0     C71556   6.574   0.965   7.113 -0.5873 -0.0354 -0.6742
  543MOL0     C71557   6.457   0.902   7.199  0.7377 -0.0142 -0.0743
  543MOL0     C71558   6.347   1.004   7.208  0.2193 -0.3896  0.2358
  543MOL0     C71559   6.219   0.933   7.240 -0.1309 -0.0196 -0.5227
  543MOL0     C71560   6.226   0.861   7.381  0.6176  0.4982  0.0061
  543MOL0     N71561   6.106   0.788   7.426 -0.7582  0.5289 -0.2051
  543MOL0     C71562   6.074   0.740   7.553 -0.0616  1.1401  0.2398
  543MOL0     C71563   5.966   0.655   7.537  0.6876 -1.0481  0.3947
  543MOL0     C71564   5.902   0.588   7.661  0.3029  0.5310  1.0477
  543MOL0     C71565   5.813   0.466   7.612  0.3715 -0.1313 -0.3753
  543MOL0     C71566   5.735   0.418   7.738 -1.0169  0.2654  0.3824
  543MOL0     C71567   5.624   0.326   7.693  0.4004  0.6430  0.8520
  543MOL0     O71568   5.561   0.269   7.815  0.6084 -0.5001  0.0236
  543MOL0     C71569   5.448   0.192   7.796  0.1930  0.3607 -0.2935
  543MOL0     C71570   5.389   0.148   7.678 -0.3473  0.3316 -0.4288
  543MOL0     C71571   5.285   0.056   7.675  0.2187 -0.5397  0.9654
  543MOL0     C71572   5.221   0.006   7.793 -0.4372 -0.6764 -0.8394
  543MOL0     C71573   5.115  -0.091   7.798  0.5416 -0.0948 -0.1697
  543MOL0     O71574   5.043  -0.105   7.684  0.1142 -0.0113  0.3361
  543MOL0     C71575   4.926  -0.181   7.686 -0.1570  0.1170 -0.7527
  543MOL0     C71576   4.803  -0.129   7.701  0.0346  0.0027 -0.5369
  543MOL0     C71577   4.687  -0.205   7.718 -0.4732  0.9024  1.0735
  543MOL0     C71578   4.699  -0.344   7.741  0.8930 -0.0580 -0.2863
  543MOL0     O71579   4.592  -0.415   7.800 -0.1879 -0.4878  0.3496
  543MOL0     C71580   4.476  -0.359   7.857  0.7537  0.5386  0.2340
  543MOL0     C71581   4.350  -0.355   7.753 -1.3707  0.2296  0.2044
  543MOL0     C71582   4.223  -0.353   7.812  0.0698  0.6680 -0.7160
  543MOL0     C71583   4.198  -0.484   7.884  1.5233 -0.1325 -0.5127
  543MOL0     C71584   4.049  -0.539   7.905 -0.2776 -0.0179 -0.8052
  543MOL0     C71585   3.945  -0.426   7.941 -0.5014 -0.3418  0.4806
  543MOL0     C71586   3.968  -0.361   8.079  0.1313  0.3885 -0.3368
  543MOL0     C71587   3.834  -0.299   8.137 -0.2608  0.3679 -0.2111
  543MOL0    Cl71588   3.879  -0.220   8.283  0.4614  0.1906  0.0817
  543MOL0     C71589   4.829  -0.413   7.734 -0.1475  0.3174 -0.2973
  543MOL0     C71590   4.941  -0.322   7.713  0.2046 -0.1836 -0.3288
  543MOL0     O71591   5.081  -0.137   7.912 -0.5151  0.4155 -0.3433
  543MOL0     C71592   5.282   0.056   7.912 -0.4276 -0.0483  0.1744
  543MOL0     C71593   5.390   0.140   7.913  0.4589  0.4032 -0.2023
  543MOL0     N71594   5.931   0.664   7.403  1.0687 -0.3705 -0.7976
  543MOL0     N71595   6.020   0.730   7.337  0.7733  0.2764 -0.2958
  543MOL0     C71596   7.044   0.957   6.729  0.4106  0.1187 -0.0577
  543MOL0     C71597   7.181   0.972   6.736  0.1307  0.4499  0.2230
  543MOL0     C71598   7.600   1.061   6.878 -0.0248 -0.4488  1.2716
  543MOL0     C71599   7.692   0.991   6.957 -0.9591 -0.2587  0.2059
  543MOL0     C71600   7.821   1.029   6.970 -0.1342 -0.2557 -0.0425
  543MOL0     C71601   7.870   1.142   6.897  0.0298 -0.2510 -0.5912
  543MOL0     O71602   7.994   1.187   6.928 -0.0774  0.8237 -0.2140
  543MOL0     C71603   8.094   1.162   6.830 -0.4101 -0.1695  0.5972
  543MOL0     C71604   8.166   1.290   6.799  0.5267  0.1243 -0.2330
  543MOL0     C71605   8.298   1.269   6.724  0.5594  0.1089  0.1441
  543MOL0     C71606   8.257   1.213   6.581 -0.6948 -0.3063 -0.4867
  543MOL0     C71607   8.367   1.249   6.493 -0.6436  0.4997  0.4510
  543MOL0     C71608   8.469   1.262   6.422  0.8652 -0.0256 -0.5645
  543MOL0     C71609   7.784   1.204   6.805  0.8690  0.3200 -0.1905
  543MOL0     C71610   7.643   1.166   6.801 -1.7208 -0.0822 -0.8395
  543MOL0     H71611   7.213   1.282   6.861 -0.4056 -0.0122 -0.1883
  543MOL0     H71612   6.960   1.252   6.881  3.8103  2.0490  1.4311
  543MOL0     H71613   6.701   1.157   6.848 -0.7937 -0.4234 -1.8298
  543MOL0     H71614   6.788   1.053   6.961  0.2408 -0.1799  0.9403
  543MOL0     H71615   6.672   0.857   6.870  1.2662  0.8320  2.7356
  543MOL0     H71616   6.585   0.976   6.760  3.0764  4.0272 -0.3567
  543MOL0     H71617   6.438   0.922   6.957 -0.4167 -0.3241  0.8935
  543MOL0     H71618   6.481   1.087   6.954  0.1301  1.9140  3.8088
  543MOL0     H71619   6.658   0.896   7.120  1.7070  2.5729 -0.5571
  543MOL0     H71620   6.593   1.067   7.148  0.1753 -1.3002  2.9739
  543MOL0     H71621   6.485   0.889   7.304  0.7098 -0.1107 -0.0783
  543MOL0     H71622   6.420   0.806   7.160  2.6876 -2.2988  3.1470
  543MOL0     H71623   6.317   1.043   7.110 -4.8006 -0.8126  1.3471
  543MOL0     H71624   6.373   1.090   7.270  2.0504 -2.4840  2.5984
  543MOL0     H71625   6.145   1.012   7.257  2.6261  2.6758  0.0583
  543MOL0     H71626   6.193   0.867   7.157  2.7654 -0.5703 -1.1069
  543MOL0     H71627   6.244   0.941   7.453 -2.5965  2.2829 -0.9606
  543MOL0     H71628   6.301   0.784   7.399  0.1740  0.0577 -0.0137
  543MOL0     H71629   6.139   0.751   7.639 -0.8397  3.8944  0.5637
  543MOL0     H71630   5.836   0.666   7.699 -1.7684 -0.8733  0.5158
  543MOL0     H71631   5.969   0.552   7.740 -0.0319  0.3523  1.2547
  543MOL0     H71632   5.869   0.394   7.552 -0.6910 -0.5250 -0.9158
  543MOL0     H71633   5.737   0.515   7.550  0.5568 -0.8355 -1.1810
  543MOL0     H71634   5.795   0.351   7.802 -3.0159  0.1720  2.2894
  543MOL0     H71635   5.702   0.505   7.795  0.9850  0.7914  0.8396
  543MOL0     H71636   5.668   0.244   7.636 -2.0940  1.2309 -2.1289
  543MOL0     H71637   5.548   0.379   7.635  2.6493  1.8265 -1.1553
  543MOL0     H71638   5.439   0.176   7.586  3.0737 -2.2191  0.4611
  543MOL0     H71639   5.242   0.016   7.584  2.6351 -0.0093 -0.4710
  543MOL0     H71640   4.797  -0.021   7.689 -1.0889  0.0419  0.2547
  543MOL0     H71641   4.594  -0.150   7.718 -0.4831  1.0024 -1.4566
  543MOL0     H71642   4.493  -0.262   7.905 -1.1610  1.9695 -1.7914
  543MOL0     H71643   4.446  -0.415   7.946 -2.9659  0.5760 -0.8216
  543MOL0     H71644   4.365  -0.450   7.702  0.1527 -1.0369  2.8472
  543MOL0     H71645   4.354  -0.276   7.677 -1.2546 -0.1353 -0.1754
  543MOL0     H71646   4.141  -0.329   7.743 -1.8145  0.8774  1.4998
  543MOL0     H71647   4.220  -0.278   7.891 -0.7828 -0.1680  0.0637
  543MOL0     H71648   4.243  -0.570   7.832  1.2694 -1.6265  1.6256
  543MOL0     H71649   4.226  -0.471   7.988 -3.1243  0.5549  0.9046
  543MOL0     H71650   4.036  -0.624   7.972 -1.3124 -0.2723 -1.3006
  543MOL0     H71651   4.020  -0.577   7.806  4.7916  0.8594 -2.9108
  543MOL0     H71652   3.850  -0.479   7.951 -0.6531 -0.2261 -0.2482
  543MOL0     H71653   3.926  -0.350   7.864 -3.6444 -2.5487 -1.1313
  543MOL0     H71654   4.002  -0.439   8.148 -4.2093 -0.2508  1.3678
  543MOL0     H71655   4.044  -0.283   8.062  1.4725 -1.2424 -2.2970
  543MOL0     H71656   3.755  -0.371   8.157  1.8236 -1.9856  0.0330
  543MOL0     H71657   3.801  -0.225   8.064 -0.9549 -0.4479 -0.7341
  543MOL0     H71658   4.837  -0.520   7.749 -0.1227  0.5091  1.1968
  543MOL0     H71659   5.044  -0.354   7.705  1.7233  3.4014  2.1364
  543MOL0     H71660   5.257   0.022   8.012  2.3163  0.7012  1.2238
  543MOL0     H71661   5.430   0.182   8.005 -1.4619  3.0028 -0.4533
  543MOL0     H71662   6.998   0.873   6.679  0.5910  1.3610 -2.4364
  543MOL0     H71663   7.251   0.903   6.690  0.7798  1.5006 -0.4018
  543MOL0     H71664   7.660   0.898   7.003 -1.1036  0.2152  1.0689
  543MOL0     H71665   7.888   0.962   7.023 -2.5819 -2.2887  0.6847
  543MOL0     H71666   8.044   1.130   6.738  2.0604  0.1575 -0.9739
  543MOL0     H71667   8.168   1.090   6.867  0.6500 -1.2272 -3.1108
  543MOL0     H71668   8.096   1.356   6.748  1.5814 -0.8987 -3.2292
  543MOL0     H71669   8.190   1.336   6.896 -0.9110  2.1191 -0.7562
  543MOL0     H71670   8.367   1.198   6.771  0.2955 -0.8727 -0.9166
  543MOL0     H71671   8.354   1.363   6.716 -0.7040  0.7930 -1.2152
  543MOL0     H71672   8.244   1.104   6.578  0.0635 -0.3980 -2.7537
  543MOL0     H71673   8.169   1.265   6.541  0.6906  1.7886 -0.9715
  543MOL0     H71674   8.551   1.288   6.358  0.5473  1.5562 -0.3868
  543MOL0     H71675   7.829   1.285   6.747 -1.8728 -0.4261 -3.7034
  543MOL0     H71676   7.577   1.216   6.731  0.3686  0.4819 -2.5155
  544MOL0     O71677   4.378   2.875   6.787 -0.5052  0.3962  0.3942
  544MOL0     C71678   4.441   2.781   6.841 -0.3266  0.0241  0.2631
  544MOL0     O71679   4.380   2.662   6.880 -0.6357  0.0243 -0.5849
  544MOL0     C71680   4.239   2.670   6.880  0.5851  0.4190  0.8797
  544MOL0     C71681   4.177   2.644   6.753  0.3347  0.0935 -1.0678
  544MOL0     C71682   4.046   2.614   6.738  0.5647  0.0722  0.7277
  544MOL0     C71683   3.968   2.603   6.860 -0.4243  0.4169 -0.2699
  544MOL0     O71684   3.832   2.570   6.870 -0.0893 -0.5851 -0.1311
  544MOL0     C71685   3.783   2.528   6.747  0.6757  0.0000 -0.1749
  544MOL0     C71686   3.629   2.509   6.750  0.1786 -0.3725  0.3151
  544MOL0     C71687   3.574   2.474   6.608 -0.1448  0.3839 -0.2449
  544MOL0     C71688   3.423   2.460   6.606 -0.4216  0.9561 -0.4135
  544MOL0     C71689   3.363   2.454   6.456 -0.2846  0.9023 -0.0088
  544MOL0     C71690   3.369   2.582   6.373  0.2752 -0.1318 -0.2871
  544MOL0     C71691   3.257   2.680   6.404  0.7767 -0.1981 -0.6511
  544MOL0     C71692   3.120   2.625   6.339  0.1626  0.3568 -0.7257
  544MOL0     N71693   3.018   2.715   6.372  0.6107 -0.5871  0.7767
  544MOL0     C71694   2.940   2.786   6.283 -0.0747 -0.0976  0.8150
  544MOL0     C71695   2.837   2.829   6.350 -0.0577  0.4192 -0.2548
  544MOL0     C71696   2.736   2.907   6.276 -0.8742 -0.1281 -0.4279
  544MOL0     C71697   2.614   2.820   6.278 -0.9197  0.0333 -0.6216
  544MOL0     C71698   2.529   2.834   6.409 -0.0394  0.6453  0.0473
  544MOL0     C71699   2.432   2.721   6.414 -0.4552  0.5648 -0.3934
  544MOL0     O71700   2.338   2.717   6.514 -0.5392 -0.6022  0.5036
  544MOL0     C71701   2.208   2.766   6.501 -0.2775 -0.4465 -0.1440
  544MOL0     C71702   2.171   2.844   6.391 -0.6702  0.1952 -0.3306
  544MOL0     C71703   2.040   2.891   6.377  0.1101 -0.3864 -1.2020
  544MOL0     C71704   1.941   2.855   6.476  0.5220 -0.3830  0.9407
  544MOL0     C71705   1.803   2.897   6.460 -0.7004  0.9019 -0.1597
  544MOL0     O71706   1.699   2.836   6.537  0.2054  0.4062  0.2216
  544MOL0     C71707   1.572   2.867   6.526  0.3337 -0.4798 -0.0516
  544MOL0     C71708   1.476   2.775   6.483  0.0213  0.2777 -0.9900
  544MOL0     C71709   1.337   2.807   6.488  0.1408  0.4530  0.0920
  544MOL0     C71710   1.298   2.936   6.531  0.6413  0.1485 -0.1482
  544MOL0     O71711   1.166   2.943   6.555  0.5673  0.5110 -0.1504
  544MOL0     C71712   1.108   3.072   6.564  0.3889 -0.4236  0.3324
  544MOL0     C71713   0.958   3.054   6.526  0.5091 -0.4796  0.4656
  544MOL0     C71714   0.872   3.184   6.553 -0.5409  0.3679 -0.5239
  544MOL0     C71715   0.727   3.181   6.523 -0.4079  0.3378 -0.8928
  544MOL0     C71716   0.658   3.317   6.509 -0.9659 -0.5755  0.1783
  544MOL0     C71717   0.511   3.303   6.467  0.9458  0.3193  0.1353
  544MOL0     C71718   0.447   3.444   6.456 -0.8911  0.3249  0.5662
  544MOL0     C71719   0.302   3.427   6.476  0.1991  0.1895  0.0973
  544MOL0    Cl71720   0.221   3.323   6.354 -0.7523 -0.3462 -0.0024
  544MOL0     C71721   1.393   3.033   6.568  0.1583  0.1228  0.7288
  544MOL0     C71722   1.527   3.002   6.549 -0.0132  0.3452  0.1107
  544MOL0     O71723   1.791   2.986   6.382  0.0759  0.6518 -0.4139
  544MOL0     C71724   1.983   2.768   6.586 -0.7038  0.0414  0.4735
  544MOL0     C71725   2.118   2.722   6.593 -0.5990  0.7913  0.5961
  544MOL0     N71726   2.852   2.789   6.485 -0.2704 -0.8149  0.0139
  544MOL0     N71727   2.952   2.719   6.493  0.3817  0.4346 -0.3953
  544MOL0     C71728   4.031   2.630   6.978 -0.2873  1.1827  0.4574
  544MOL0     C71729   4.157   2.674   6.991 -0.5169 -0.1259 -0.2761
  544MOL0     C71730   4.590   2.804   6.872  0.1722  1.6856  0.3094
  544MOL0     C71731   4.663   2.718   6.966 -0.8079 -0.1977 -0.6656
  544MOL0     C71732   4.795   2.741   7.003  0.0226  0.0454 -1.1879
  544MOL0     C71733   4.870   2.834   6.936  0.0075 -0.4088  0.1941
  544MOL0     O71734   5.009   2.850   6.969  0.8029  0.1218  0.6262
  544MOL0     C71735   5.080   2.953   6.909  0.5291  0.0479 -0.0058
  544MOL0     C71736   5.215   2.973   6.975  0.3795 -0.5474 -0.7642
  544MOL0     C71737   5.310   2.848   6.975  0.0869 -0.0559 -0.5414
  544MOL0     C71738   5.439   2.888   7.054 -1.6507 -0.5116  0.3555
  544MOL0     C71739   5.524   2.769   7.068 -0.6199 -0.0743 -0.1774
  544MOL0     C71740   5.588   2.668   7.075 -0.0148  1.3235 -0.3437
  544MOL0     C71741   4.796   2.916   6.843 -0.1676  0.5623  0.4014
  544MOL0     C71742   4.655   2.909   6.817 -0.4261  0.6966 -0.5286
  544MOL0     H71743   4.242   2.647   6.666 -0.4298  2.7243 -1.6482
  544MOL0     H71744   4.013   2.603   6.635  4.5033  3.3730 -1.1661
  544MOL0     H71745   3.815   2.430   6.710 -2.4265 -0.7385 -1.1713
  544MOL0     H71746   3.804   2.596   6.664  1.1100 -2.1758 -1.9763
  544MOL0     H71747   3.577   2.600   6.784 -1.4954 -1.3589  0.5076
  544MOL0     H71748   3.599   2.432   6.822 -2.9055  0.0737 -0.3438
  544MOL0     H71749   3.620   2.383   6.570 -0.9888  1.8035 -5.5028
  544MOL0     H71750   3.604   2.561   6.548 -1.0490  0.3629 -0.7517
  544MOL0     H71751   3.405   2.362   6.650  0.0476  1.4317  0.8793
  544MOL0     H71752   3.366   2.534   6.662 -3.2697  1.6767 -3.9213
  544MOL0     H71753   3.259   2.425   6.470  0.6705 -2.9931  0.0432
  544MOL0     H71754   3.419   2.378   6.400 -0.6020  0.0426  0.8111
  544MOL0     H71755   3.363   2.562   6.266 -1.7169  0.6585 -0.3627
  544MOL0     H71756   3.461   2.641   6.378  0.7680 -0.9969  2.5232
  544MOL0     H71757   3.253   2.690   6.512  1.4111 -0.0559 -0.6368
  544MOL0     H71758   3.275   2.781   6.365 -2.9117 -0.3971 -3.4093
  544MOL0     H71759   3.088   2.524   6.366 -4.2252  2.2697  2.4765
  544MOL0     H71760   3.135   2.618   6.231 -2.2880  0.3564 -1.1154
  544MOL0     H71761   2.957   2.802   6.177 -0.8099 -3.0983  0.1287
  544MOL0     H71762   2.770   2.932   6.175  1.2602  2.3936  0.7851
  544MOL0     H71763   2.731   3.006   6.322  2.5759  0.0221 -0.1097
  544MOL0     H71764   2.633   2.719   6.241  0.4905  0.5373 -1.3550
  544MOL0     H71765   2.554   2.866   6.198  2.7815  1.6313 -2.7178
  544MOL0     H71766   2.590   2.832   6.499 -0.5784  0.0109  0.4113
  544MOL0     H71767   2.483   2.934   6.406 -1.6658 -0.0489 -2.8857
  544MOL0     H71768   2.486   2.626   6.419 -2.4398 -0.7465 -2.2229
  544MOL0     H71769   2.397   2.706   6.312  2.0302  0.0179 -1.2313
  544MOL0     H71770   2.256   2.871   6.328  1.5714 -1.2350  1.9085
  544MOL0     H71771   2.002   2.935   6.286  0.7097 -1.3229 -1.9197
  544MOL0     H71772   1.512   2.675   6.459  2.3501  0.4738  1.2358
  544MOL0     H71773   1.268   2.730   6.456  2.5944 -3.1519  2.7305
  544MOL0     H71774   1.159   3.125   6.483  1.2375 -0.2014  0.9887
  544MOL0     H71775   1.124   3.115   6.664 -0.6017 -1.6111  1.0336
  544MOL0     H71776   0.918   2.977   6.591 -2.8980 -0.9846 -1.9835
  544MOL0     H71777   0.947   3.027   6.420 -0.3245 -0.6617  0.5989
  544MOL0     H71778   0.920   3.254   6.484  4.4502 -1.3113  0.8178
  544MOL0     H71779   0.884   3.222   6.655  0.2428 -2.2612  0.4474
  544MOL0     H71780   0.722   3.138   6.422  1.4549  1.1323 -1.3666
  544MOL0     H71781   0.689   3.105   6.591  2.4321 -0.0864  0.3745
  544MOL0     H71782   0.709   3.394   6.449 -1.3140  0.8215  1.5978
  544MOL0     H71783   0.668   3.355   6.611 -0.5073 -1.1353  0.3441
  544MOL0     H71784   0.451   3.240   6.533 -0.0733  2.6117  1.5418
  544MOL0     H71785   0.500   3.252   6.371  0.3623  0.4221  0.1395
  544MOL0     H71786   0.477   3.504   6.542  0.0605  4.6975 -2.4429
  544MOL0     H71787   0.487   3.484   6.362  0.8896 -0.7460  0.8095
  544MOL0     H71788   0.242   3.517   6.491  0.8471  0.8620 -1.1745
  544MOL0     H71789   0.289   3.375   6.571  1.8981  2.0082  1.4107
  544MOL0     H71790   1.355   3.124   6.613  0.0088 -0.1633  1.1808
  544MOL0     H71791   1.601   3.080   6.569  0.5234 -0.1955  0.2540
  544MOL0     H71792   1.905   2.724   6.648 -0.7397  1.5158  1.5504
  544MOL0     H71793   2.142   2.643   6.663  0.0017 -1.0307 -1.5378
  544MOL0     H71794   3.975   2.612   7.069  0.8108 -1.2131  0.7521
  544MOL0     H71795   4.191   2.690   7.093  0.4823  0.5435 -0.6899
  544MOL0     H71796   4.616   2.626   6.998 -2.5054  1.1190  0.8907
  544MOL0     H71797   4.842   2.660   7.057  1.7414  2.1214  0.6117
  544MOL0     H71798   5.031   3.049   6.927  2.4657  0.7732  1.7404
  544MOL0     H71799   5.106   2.937   6.804  1.6554  0.6881  0.1604
  544MOL0     H71800   5.261   3.060   6.928 -2.7773  0.1856 -2.8449
  544MOL0     H71801   5.190   2.993   7.080 -3.0360 -1.6875 -1.2185
  544MOL0     H71802   5.328   2.804   6.876 -2.0753 -2.1626 -0.0833
  544MOL0     H71803   5.253   2.775   7.032  0.4129 -1.3691 -1.8415
  544MOL0     H71804   5.500   2.961   7.000 -0.7494 -2.0334 -0.7553
  544MOL0     H71805   5.416   2.932   7.152  1.9492  1.1091  0.6452
  544MOL0     H71806   5.617   2.566   7.057  0.4790  1.3945  0.0102
  544MOL0     H71807   4.854   2.977   6.775  0.4370 -0.0629  0.3473
  544MOL0     H71808   4.602   2.974   6.748 -1.0483 -2.1504 -2.9689
  545MOL0     O71809   0.244   0.649   4.442 -0.4178  0.0756  0.1085
  545MOL0     C71810   0.244   0.623   4.321  0.0050 -0.3942 -0.0805
  545MOL0     O71811   0.149   0.646   4.235  0.2075 -0.0983 -0.5465
  545MOL0     C71812   0.023   0.687   4.271 -0.2423  0.1918 -0.4237
  545MOL0     C71813  -0.046   0.750   4.173  0.0425  0.4726  0.2266
  545MOL0     C71814  -0.173   0.803   4.192  0.6134  1.1520  0.0833
  545MOL0     C71815  -0.237   0.790   4.316  0.9426 -0.1269 -0.2063
  545MOL0     O71816  -0.372   0.819   4.322 -0.0924 -0.3457 -0.0585
  545MOL0     C71817  -0.442   0.814   4.447  0.0275 -0.3244  0.0294
  545MOL0     C71818  -0.596   0.841   4.439  0.0903  0.7716 -0.2359
  545MOL0     C71819  -0.662   0.710   4.436 -0.2763  0.2540 -0.2760
  545MOL0     C71820  -0.790   0.715   4.359 -0.3215 -0.5863 -0.5834
  545MOL0     C71821  -0.885   0.613   4.424 -0.2840 -0.5535 -0.3189
  545MOL0     C71822  -1.033   0.611   4.373 -0.3080 -0.1278 -0.9650
  545MOL0     C71823  -1.113   0.502   4.423 -0.5764 -0.3021 -0.4199
  545MOL0     C71824  -1.127   0.494   4.572 -0.1837 -0.4579 -0.4741
  545MOL0     N71825  -1.228   0.390   4.606 -0.4080  0.0106 -0.5518
  545MOL0     C71826  -1.193   0.260   4.619 -0.6456  0.0523  0.1140
  545MOL0     C71827  -1.304   0.185   4.606  1.1240  0.9456 -0.1150
  545MOL0     C71828  -1.319   0.033   4.615 -0.0427  0.0766 -0.0958
  545MOL0     C71829  -1.388  -0.026   4.497  0.9204  0.7847 -0.1116
  545MOL0     C71830  -1.540   0.004   4.492  0.7046 -0.6836  0.0535
  545MOL0     C71831  -1.626  -0.005   4.630  0.5322 -0.3294  0.7717
  545MOL0     O71832  -1.770   0.002   4.593  0.0647  0.0175  0.0898
  545MOL0     C71833  -1.857   0.008   4.701  0.0785  0.2694  1.0705
  545MOL0     C71834  -1.819   0.008   4.836  0.4884 -0.5213  1.1520
  545MOL0     C71835  -1.924   0.017   4.933 -0.2220  1.0680 -0.0614
  545MOL0     C71836  -2.062   0.033   4.894 -0.3002  0.5082 -0.2969
  545MOL0     C71837  -2.172   0.034   4.991 -0.3332  0.5092 -0.5378
  545MOL0     O71838  -2.284   0.089   4.952  0.2570  0.5161  0.4551
  545MOL0     C71839  -2.374   0.152   5.038  0.2318  0.2593 -0.0106
  545MOL0     C71840  -2.381   0.288   5.019  0.5580  1.0097 -0.3489
  545MOL0     C71841  -2.474   0.362   5.096 -0.2799 -0.1105 -0.3442
  545MOL0     C71842  -2.557   0.305   5.189  0.2107  0.3926 -0.8783
  545MOL0     O71843  -2.660   0.360   5.253 -0.2073  0.4563  0.2860
  545MOL0     C71844  -2.670   0.497   5.300 -0.8773  0.5238  0.6933
  545MOL0     C71845  -2.717   0.503   5.437  0.4142 -0.4240 -0.2911
  545MOL0     C71846  -2.844   0.434   5.463 -0.4187 -0.2315 -0.2550
  545MOL0     C71847  -2.888   0.454   5.612 -0.6089  0.1303 -0.5984
  545MOL0     C71848  -3.005   0.368   5.664 -0.2151 -0.1220 -0.1079
  545MOL0     C71849  -3.125   0.374   5.573  0.2700 -0.4352  0.6054
  545MOL0     C71850  -3.237   0.289   5.637  0.6167  0.0574 -0.0293
  545MOL0     C71851  -3.207   0.144   5.665 -0.3274 -0.4152  0.3369
  545MOL0    Cl71852  -3.155   0.065   5.508  0.0925 -0.0547  0.2011
  545MOL0     C71853  -2.555   0.164   5.194  0.0677 -0.0183 -0.5521
  545MOL0     C71854  -2.471   0.084   5.115  0.4078  0.1280 -0.1455
  545MOL0     O71855  -2.148  -0.002   5.106  0.3984 -1.1242 -0.4358
  545MOL0     C71856  -2.092   0.029   4.754  0.2884  0.1218 -0.2344
  545MOL0     C71857  -1.989   0.021   4.668  0.4337  0.5699  0.0528
  545MOL0     N71858  -1.403   0.282   4.584  0.2473  0.7629  0.1180
  545MOL0     N71859  -1.353   0.397   4.563  0.6651 -0.1583  0.3747
  545MOL0     C71860  -0.160   0.738   4.419 -0.4990  0.7811 -0.2716
  545MOL0     C71861  -0.028   0.689   4.404 -0.1686  0.1031 -0.2895
  545MOL0     C71862   0.355   0.545   4.268  0.5050  0.2290  0.3325
  545MOL0     C71863   0.472   0.512   4.346  0.3639 -0.3514  0.0615
  545MOL0     C71864   0.575   0.432   4.292 -0.0419 -1.2644  0.7968
  545MOL0     C71865   0.574   0.395   4.158 -0.2355  1.0920  0.3062
  545MOL0     O71866   0.674   0.331   4.089 -0.3690  0.2967  0.3132
  545MOL0     C71867   0.779   0.274   4.164 -0.5294  0.9129  0.4289
  545MOL0     C71868   0.866   0.209   4.061 -0.2977 -0.3413 -0.2674
  545MOL0     C71869   1.008   0.182   4.113 -0.0789 -0.1332 -0.0555
  545MOL0     C71870   1.021   0.045   4.178 -0.5231  0.1065 -0.5289
  545MOL0     C71871   1.134   0.040   4.264  0.1041 -0.1328  0.0988
  545MOL0     C71872   1.213   0.054   4.352  0.3904  0.4349 -0.5999
  545MOL0     C71873   0.459   0.415   4.073 -0.2926  0.5952 -1.0551
  545MOL0     C71874   0.348   0.491   4.132 -0.4752  0.6041 -0.3886
  545MOL0     H71875   0.006   0.764   4.079  1.9839  3.7731  1.6371
  545MOL0     H71876  -0.222   0.860   4.114 -1.9223  0.5838  1.1884
  545MOL0     H71877  -0.392   0.884   4.515 -3.4034  2.9526 -0.4776
  545MOL0     H71878  -0.418   0.717   4.492 -1.9083  0.3045  2.6796
  545MOL0     H71879  -0.615   0.904   4.351  0.6142 -0.2366 -1.1043
  545MOL0     H71880  -0.616   0.886   4.536  0.1936 -1.6185  0.9402
  545MOL0     H71881  -0.687   0.686   4.540 -2.1119  2.0935 -0.2296
  545MOL0     H71882  -0.590   0.638   4.395  2.6709  1.4762  2.2711
  545MOL0     H71883  -0.839   0.813   4.369 -0.0818 -0.6557  1.6579
  545MOL0     H71884  -0.764   0.703   4.253  1.5479  3.5801 -0.8000
  545MOL0     H71885  -0.892   0.636   4.531  0.2692  2.1532 -0.7907
  545MOL0     H71886  -0.839   0.514   4.421  2.4553  0.6506 -1.3443
  545MOL0     H71887  -1.019   0.613   4.264 -0.2575 -0.1290 -0.9583
  545MOL0     H71888  -1.070   0.709   4.403 -0.9957  0.0117 -2.1794
  545MOL0     H71889  -1.214   0.512   4.381 -0.1400 -0.8557 -1.6297
  545MOL0     H71890  -1.076   0.414   4.369  0.6988  1.2457 -2.1441
  545MOL0     H71891  -1.169   0.589   4.608  1.7427  0.4240 -0.4154
  545MOL0     H71892  -1.032   0.474   4.621  1.1422  3.0518 -1.2851
  545MOL0     H71893  -1.092   0.223   4.632 -0.8914 -0.8522 -0.4136
  545MOL0     H71894  -1.374   0.024   4.709 -1.6960  1.6350 -0.8576
  545MOL0     H71895  -1.220  -0.014   4.623  1.2055  2.4506 -0.6364
  545MOL0     H71896  -1.375  -0.134   4.505 -0.6982  0.6641  5.7282
  545MOL0     H71897  -1.327   0.010   4.414  1.8584  2.3227  1.1695
  545MOL0     H71898  -1.556   0.104   4.452 -2.6844 -1.4818 -0.9209
  545MOL0     H71899  -1.588  -0.066   4.422 -1.5223 -0.0824  0.9124
  545MOL0     H71900  -1.597   0.073   4.701 -0.3475  3.2839 -2.4943
  545MOL0     H71901  -1.610  -0.102   4.677 -0.1873 -1.3974 -1.0574
  545MOL0     H71902  -1.715   0.006   4.865  1.0530  0.7257 -0.6558
  545MOL0     H71903  -1.901  -0.009   5.036  0.0298 -4.6647 -1.2309
  545MOL0     H71904  -2.321   0.335   4.943 -1.0325  3.2697 -0.3158
  545MOL0     H71905  -2.483   0.468   5.074  2.3954  0.0271 -1.1660
  545MOL0     H71906  -2.744   0.541   5.231 -0.4401 -1.7053 -1.3207
  545MOL0     H71907  -2.573   0.546   5.300  0.5311 -2.0830 -0.2044
  545MOL0     H71908  -2.728   0.606   5.474  2.5200 -1.4082  3.6426
  545MOL0     H71909  -2.636   0.467   5.501 -0.8198 -1.1349  0.9347
  545MOL0     H71910  -2.836   0.326   5.448 -3.5341 -0.5094 -0.5312
  545MOL0     H71911  -2.926   0.470   5.400  0.1489  1.3414 -0.1326
  545MOL0     H71912  -2.807   0.427   5.681 -0.7563  1.4594  0.1372
  545MOL0     H71913  -2.918   0.557   5.635  0.1614  0.3224 -0.4118
  545MOL0     H71914  -3.024   0.407   5.765  0.0570  0.7904 -0.3908
  545MOL0     H71915  -2.984   0.262   5.680 -1.3238 -0.7406 -2.3520
  545MOL0     H71916  -3.108   0.333   5.473 -3.7939  3.0620 -1.8852
  545MOL0     H71917  -3.169   0.474   5.559  2.4273  0.4899  0.0262
  545MOL0     H71918  -3.268   0.354   5.719 -0.3934 -0.4306 -0.0066
  545MOL0     H71919  -3.332   0.287   5.581  0.1579 -2.7606  0.7102
  545MOL0     H71920  -3.303   0.106   5.703 -1.2243  0.3515 -1.0888
  545MOL0     H71921  -3.130   0.124   5.740 -1.6095  0.9780  2.1127
  545MOL0     H71922  -2.628   0.128   5.266 -0.2081  2.3867  0.4639
  545MOL0     H71923  -2.490  -0.023   5.107  1.9871 -0.3196  1.4690
  545MOL0     H71924  -2.192   0.031   4.712 -1.2396 -3.8411  2.6195
  545MOL0     H71925  -1.998   0.023   4.560  0.6221 -1.3820 -0.0383
  545MOL0     H71926  -0.210   0.722   4.514  0.5464  0.7289  0.2888
  545MOL0     H71927   0.024   0.647   4.489  1.3641  1.9796 -0.2304
  545MOL0     H71928   0.485   0.550   4.447  1.6918  2.8385 -1.1621
  545MOL0     H71929   0.662   0.409   4.353 -1.2295 -0.4108  2.9061
  545MOL0     H71930   0.741   0.187   4.218 -2.8813 -0.6762 -3.3123
  545MOL0     H71931   0.831   0.351   4.222 -1.2226  1.9881 -0.3304
  545MOL0     H71932   0.816   0.118   4.028  0.6689 -0.9443 -0.1288
  545MOL0     H71933   0.878   0.281   3.979  0.4816 -0.3488 -0.1689
  545MOL0     H71934   1.040   0.265   4.176  3.5616 -1.0227 -0.5150
  545MOL0     H71935   1.067   0.176   4.021  1.4126  2.0418  0.6840
  545MOL0     H71936   0.931   0.028   4.238  0.1403  2.1219  1.1288
  545MOL0     H71937   1.029  -0.031   4.099 -0.6628  2.3552 -2.8467
  545MOL0     H71938   1.286   0.071   4.428 -2.9167 -0.0063  2.9747
  545MOL0     H71939   0.464   0.358   3.981 -3.2824 -0.0919 -0.8951
  545MOL0     H71940   0.258   0.510   4.075  0.5696 -1.5277 -2.9595
  546MOL0     O71941   6.744   6.503   2.616  0.1164  0.0030  0.3199
  546MOL0     C71942   6.836   6.553   2.555 -0.5023 -0.5364 -0.3594
  546MOL0     O71943   6.825   6.612   2.431 -1.1463 -0.0422 -0.0821
  546MOL0     C71944   6.699   6.624   2.375 -0.5246  0.7953  0.1185
  546MOL0     C71945   6.691   6.741   2.303 -0.1670 -0.9098 -0.4713
  546MOL0     C71946   6.577   6.783   2.235  0.0202  0.0021 -0.6646
  546MOL0     C71947   6.464   6.697   2.240  0.6130 -0.3499  1.0666
  546MOL0     O71948   6.347   6.742   2.180 -0.0977  0.2183  0.0633
  546MOL0     C71949   6.308   6.879   2.190  0.1558  0.5472 -0.5585
  546MOL0     C71950   6.178   6.907   2.112  0.0829 -0.0231 -1.1025
  546MOL0     C71951   6.203   6.908   1.960 -0.1243  0.6586  0.4742
  546MOL0     C71952   6.074   6.962   1.896 -0.2529 -0.0195 -1.0816
  546MOL0     C71953   6.121   6.982   1.750  0.5627 -0.1541  0.2185
  546MOL0     C71954   6.009   7.030   1.658  0.1486  0.4222 -0.7144
  546MOL0     C71955   6.044   7.010   1.511 -0.4452 -0.6962  0.0211
  546MOL0     C71956   5.930   7.018   1.413  1.1494 -0.5323 -0.4143
  546MOL0     N71957   5.888   7.160   1.408  0.0753  0.1901 -0.1887
  546MOL0     C71958   5.931   7.258   1.322  0.0997 -0.0958 -0.3037
  546MOL0     C71959   5.857   7.371   1.338  1.3473 -0.2830 -0.0763
  546MOL0     C71960   5.857   7.505   1.269 -1.2544 -0.3135  0.6645
  546MOL0     C71961   5.800   7.497   1.128  0.0656  0.2500  0.5573
  546MOL0     C71962   5.758   7.648   1.092  0.1666 -0.2292 -0.3450
  546MOL0     C71963   5.628   7.689   1.168  1.1468 -0.4349 -0.4503
  546MOL0     O71964   5.596   7.807   1.095  0.4397  0.0489 -0.5027
  546MOL0     C71965   5.463   7.858   1.091 -0.1461  0.0432 -0.4486
  546MOL0     C71966   5.427   7.944   0.985 -0.6510 -0.4926  0.2941
  546MOL0     C71967   5.298   7.995   0.965 -0.2943 -0.6394 -0.4221
  546MOL0     C71968   5.198   7.968   1.062  0.6101  0.5682  0.3918
  546MOL0     C71969   5.063   8.030   1.036 -0.1953 -0.8461  0.4981
  546MOL0     O71970   5.065   8.144   0.957 -0.3170 -0.0561 -0.5699
  546MOL0     C71971   4.940   8.187   0.915 -1.2467  0.6728 -0.8067
  546MOL0     C71972   4.831   8.202   0.998 -0.4655  0.8720 -0.1688
  546MOL0     C71973   4.723   8.262   0.942 -1.3680  0.1218  0.2493
  546MOL0     C71974   4.710   8.303   0.804  0.2766  0.2443 -0.5782
  546MOL0     O71975   4.588   8.355   0.756  0.5457  0.0902  0.1967
  546MOL0     C71976   4.541   8.321   0.623 -0.0118 -0.2530  0.3919
  546MOL0     C71977   4.386   8.342   0.604 -0.4388  1.2833 -1.0374
  546MOL0     C71978   4.326   8.463   0.684 -0.1522  0.2247  0.1058
  546MOL0     C71979   4.168   8.468   0.661  0.2133  0.3479 -0.1747
  546MOL0     C71980   4.097   8.512   0.786 -0.1478  0.2669 -0.2152
  546MOL0     C71981   3.948   8.518   0.766 -0.5873 -0.2372  1.0205
  546MOL0     C71982   3.869   8.545   0.890 -0.5018  0.3844 -0.4645
  546MOL0     C71983   3.720   8.560   0.860 -0.9111  0.4861 -0.6735
  546MOL0    Cl71984   3.652   8.412   0.785 -0.1019  0.0721  0.2833
  546MOL0     C71985   4.821   8.271   0.725 -0.1449 -0.1337  0.0233
  546MOL0     C71986   4.937   8.209   0.774 -0.3091 -0.1434  0.4129
  546MOL0     O71987   4.963   7.964   1.070 -0.4680  0.6699  0.5416
  546MOL0     C71988   5.221   7.867   1.158 -0.1417  0.4065  0.3429
  546MOL0     C71989   5.358   7.815   1.173 -0.7846  0.1899  0.2575
  546MOL0     N71990   5.783   7.345   1.449  0.4559  0.2860 -0.3634
  546MOL0     N71991   5.793   7.212   1.484  0.4491 -0.1982  0.3045
  546MOL0     C71992   6.475   6.572   2.313 -0.0295 -0.3202  0.1542
  546MOL0     C71993   6.590   6.536   2.381  0.3950 -0.3421 -0.4559
  546MOL0     C71994   6.956   6.574   2.637  0.0950  0.4618 -0.9028
  546MOL0     C71995   7.050   6.656   2.595 -1.1616 -0.1671 -0.8859
  546MOL0     C71996   7.177   6.667   2.668  0.5296  0.5146  1.4871
  546MOL0     C71997   7.193   6.620   2.792 -0.1862  0.7477 -0.2870
  546MOL0     O71998   7.308   6.625   2.870  0.5526 -0.8372 -0.1299
  546MOL0     C71999   7.430   6.680   2.817  0.3362  0.3821 -0.4209
  546MOL0     C72000   7.504   6.554   2.782 -0.4125  1.5001  0.1837
  546MOL0     C72001   7.609   6.581   2.676 -0.6122 -0.8067 -0.5519
  546MOL0     C72002   7.748   6.630   2.726  0.9828 -1.0327  0.7661
  546MOL0     C72003   7.742   6.775   2.751 -0.8727 -0.3261 -0.2300
  546MOL0     C72004   7.736   6.898   2.781  0.0877  0.3986  0.0895
  546MOL0     C72005   7.090   6.549   2.842  0.0431 -0.1028  0.0654
  546MOL0     C72006   6.977   6.521   2.764  0.4658  0.4528  0.0147
  546MOL0     H72007   6.780   6.803   2.310  0.4908 -2.0216  2.1626
  546MOL0     H72008   6.570   6.867   2.167 -3.4145  0.6746  0.2972
  546MOL0     H72009   6.389   6.946   2.158  0.5054 -0.0596 -0.9717
  546MOL0     H72010   6.298   6.904   2.296  0.9016  1.7674 -0.7470
  546MOL0     H72011   6.149   7.006   2.147  3.7279  0.1971  1.9598
  546MOL0     H72012   6.104   6.829   2.135  1.8383 -2.4843 -3.0938
  546MOL0     H72013   6.227   6.807   1.924  1.5425  0.7676  1.1682
  546MOL0     H72014   6.288   6.973   1.937  0.4162 -0.2575 -0.1880
  546MOL0     H72015   5.991   6.891   1.907  0.6221 -0.7880  1.2474
  546MOL0     H72016   6.045   7.058   1.940 -1.0923  0.0874 -1.8562
  546MOL0     H72017   6.150   6.883   1.716  3.2806  0.7659 -0.3633
  546MOL0     H72018   6.204   7.053   1.752  2.2756 -2.0713  0.1107
  546MOL0     H72019   5.981   7.131   1.690  0.0083 -0.4791  2.2758
  546MOL0     H72020   5.929   6.957   1.676 -0.8993  2.0012  1.4101
  546MOL0     H72021   6.115   7.086   1.477 -1.3404  2.2081  3.9940
  546MOL0     H72022   6.097   6.917   1.488  0.8629  0.5254 -2.2094
  546MOL0     H72023   5.839   6.968   1.445 -0.0449  2.2579  0.9146
  546MOL0     H72024   5.970   6.988   1.316 -2.0564 -1.5881 -1.5065
  546MOL0     H72025   6.010   7.251   1.248  1.0817 -3.3062  0.8905
  546MOL0     H72026   5.962   7.531   1.249 -0.7992 -1.3281  1.6295
  546MOL0     H72027   5.809   7.582   1.330 -3.5392 -1.6427  0.6539
  546MOL0     H72028   5.710   7.434   1.121  0.2640  0.0797 -0.4505
  546MOL0     H72029   5.874   7.456   1.060 -3.2129 -2.2655 -1.8561
  546MOL0     H72030   5.843   7.718   1.097  0.1215 -0.1845 -0.2070
  546MOL0     H72031   5.743   7.648   0.984 -0.0753  1.3426 -0.3322
  546MOL0     H72032   5.654   7.721   1.269 -1.4368  2.6381 -0.6004
  546MOL0     H72033   5.552   7.611   1.159 -0.8372  1.5087 -1.6970
  546MOL0     H72034   5.504   7.976   0.916 -0.6358 -1.5766 -0.2080
  546MOL0     H72035   5.276   8.049   0.874 -5.8938 -1.3788  0.1387
  546MOL0     H72036   4.835   8.185   1.105 -0.2892 -0.2023 -0.3355
  546MOL0     H72037   4.640   8.287   1.006 -1.9868 -3.7091  1.1834
  546MOL0     H72038   4.555   8.213   0.610  1.2003  0.0370 -0.9015
  546MOL0     H72039   4.599   8.363   0.541 -0.2505 -1.9548 -0.7039
  546MOL0     H72040   4.333   8.257   0.649 -0.0028  3.1438  3.5529
  546MOL0     H72041   4.359   8.351   0.499 -1.1749  2.1647 -0.7888
  546MOL0     H72042   4.372   8.551   0.637  1.0767 -1.3416 -1.7798
  546MOL0     H72043   4.360   8.465   0.788  2.8814  2.7281 -0.7671
  546MOL0     H72044   4.145   8.542   0.584 -0.8102 -0.7677 -0.9712
  546MOL0     H72045   4.127   8.370   0.634 -1.8549  0.4861  2.1750
  546MOL0     H72046   4.135   8.612   0.812  0.5382 -0.1223  0.3115
  546MOL0     H72047   4.114   8.448   0.873 -0.0420 -1.5115 -1.4943
  546MOL0     H72048   3.915   8.433   0.705  1.0863 -1.0460  1.1673
  546MOL0     H72049   3.923   8.605   0.705 -1.7694 -1.3940 -0.2240
  546MOL0     H72050   3.885   8.460   0.956  3.4424  1.5610  0.3669
  546MOL0     H72051   3.912   8.636   0.933 -0.1104 -0.3993  0.8200
  546MOL0     H72052   3.715   8.636   0.781  2.7467 -0.4870 -2.0390
  546MOL0     H72053   3.682   8.597   0.955 -0.7453  2.3897 -1.2885
  546MOL0     H72054   4.835   8.311   0.626 -1.2606 -1.0400 -0.5363
  546MOL0     H72055   5.021   8.184   0.710 -0.9934  0.4405 -0.7518
  546MOL0     H72056   5.151   7.834   1.234 -0.3025 -0.4973 -0.1778
  546MOL0     H72057   5.375   7.749   1.258  1.7980 -0.3684 -0.6018
  546MOL0     H72058   6.397   6.497   2.309  1.5063 -1.9970  0.2089
  546MOL0     H72059   6.605   6.444   2.437 -2.1051 -1.7279 -1.8614
  546MOL0     H72060   7.046   6.715   2.504 -1.2539  0.4983 -0.4553
  546MOL0     H72061   7.241   6.747   2.632  1.5689 -0.2543  1.5578
  546MOL0     H72062   7.488   6.742   2.887  1.1997  0.7908 -1.4793
  546MOL0     H72063   7.413   6.740   2.727 -0.5081  1.3931  0.3817
  546MOL0     H72064   7.548   6.515   2.874 -1.1516 -0.0192 -0.0773
  546MOL0     H72065   7.437   6.476   2.743 -0.1732  2.1264 -1.5918
  546MOL0     H72066   7.568   6.644   2.597 -1.8993  1.4429  1.7742
  546MOL0     H72067   7.635   6.484   2.632  2.3732  0.9359 -2.9780
  546MOL0     H72068   7.782   6.583   2.819  2.1684  0.9218  1.3802
  546MOL0     H72069   7.819   6.622   2.644  2.1510  1.6438  1.4096
  546MOL0     H72070   7.722   7.002   2.799  0.3473  0.8357 -1.9458
  546MOL0     H72071   7.105   6.496   2.935  2.0844 -0.3590 -0.3711
  546MOL0     H72072   6.892   6.467   2.805 -1.1412 -0.5842 -4.1934
  547MOL0     O72073   1.306  10.804   8.292 -0.1459 -0.3283  0.3494
  547MOL0     C72074   1.285  10.746   8.405 -0.4415 -0.5665 -0.1385
  547MOL0     O72075   1.168  10.744   8.470  0.4500 -0.1792 -1.0069
  547MOL0     C72076   1.060  10.808   8.431 -0.5395 -1.4279  0.0877
  547MOL0     C72077   0.940  10.742   8.442 -0.0756 -0.8118  0.3697
  547MOL0     C72078   0.814  10.785   8.395 -0.1207 -0.3953 -1.1733
  547MOL0     C72079   0.815  10.911   8.332 -0.2398 -0.1199  0.0630
  547MOL0     O72080   0.700  10.958   8.305 -0.0438 -0.8534 -0.1368
  547MOL0     C72081   0.691  11.044   8.189 -0.2957 -0.0444  0.2271
  547MOL0     C72082   0.543  11.089   8.201  1.0021  0.3206  0.5544
  547MOL0     C72083   0.503  11.182   8.089 -0.0255 -0.3378  0.2908
  547MOL0     C72084   0.361  11.233   8.100  0.0476  0.1077 -0.3891
  547MOL0     C72085   0.290  11.317   7.994 -0.3287  0.1630  0.3188
  547MOL0     C72086   0.364  11.446   7.951  0.0414 -0.7377  0.3895
  547MOL0     C72087   0.327  11.498   7.814 -0.0216 -0.1839 -0.2107
  547MOL0     C72088   0.390  11.639   7.789 -0.1000  0.2970 -0.0805
  547MOL0     N72089   0.334  11.668   7.655 -0.4107 -0.4034 -0.2783
  547MOL0     C72090   0.226  11.755   7.618 -0.3118  0.3716 -0.6473
  547MOL0     C72091   0.220  11.747   7.484  0.1580 -0.2170  0.5891
  547MOL0     C72092   0.124  11.811   7.391  0.7901 -0.6761 -0.7031
  547MOL0     C72093  -0.022  11.765   7.415  0.3370  0.2247 -0.8485
  547MOL0     C72094  -0.064  11.640   7.333  0.2274  0.2500  0.4323
  547MOL0     C72095  -0.214  11.612   7.332 -0.2647  0.2826  0.6683
  547MOL0     O72096  -0.254  11.526   7.439 -0.5071  0.1669  0.3913
  547MOL0     C72097  -0.386  11.495   7.466  0.0301  0.1945 -0.6792
  547MOL0     C72098  -0.413  11.387   7.550  0.8356  0.4326  0.3966
  547MOL0     C72099  -0.538  11.337   7.570  0.8101  0.5431 -0.5573
  547MOL0     C72100  -0.649  11.415   7.524  0.2987 -0.3404  0.5787
  547MOL0     C72101  -0.792  11.382   7.559  0.4464  0.3595 -0.0078
  547MOL0     O72102  -0.810  11.275   7.642 -0.0697 -0.0362 -0.4955
  547MOL0     C72103  -0.930  11.242   7.685 -0.4091 -0.3114  0.2073
  547MOL0     C72104  -0.997  11.335   7.779 -0.6283  1.3269  0.3963
  547MOL0     C72105  -1.130  11.302   7.823 -0.1862 -0.3114  0.0108
  547MOL0     C72106  -1.200  11.189   7.769 -0.2833 -0.0128  0.2200
  547MOL0     O72107  -1.326  11.153   7.798  0.1409  0.3846  1.1432
  547MOL0     C72108  -1.378  11.222   7.915  0.2005  0.1003 -0.7897
  547MOL0     C72109  -1.503  11.153   7.966 -0.6933  0.6455  0.2699
  547MOL0     C72110  -1.634  11.189   7.888 -0.1396 -1.1562  0.5594
  547MOL0     C72111  -1.752  11.161   7.960 -0.2616 -0.0259  0.0622
  547MOL0     C72112  -1.877  11.189   7.872  0.6152 -0.1619  0.1657
  547MOL0     C72113  -2.011  11.167   7.947 -0.6521 -0.3558  0.7462
  547MOL0     C72114  -2.002  11.202   8.099  0.9078 -0.7538  0.1591
  547MOL0     C72115  -2.131  11.237   8.178 -0.6877  0.0532  0.5400
  547MOL0    Cl72116  -2.277  11.182   8.097  0.1324  0.0010  0.0920
  547MOL0     C72117  -1.133  11.099   7.676  0.4748 -0.1804 -0.8524
  547MOL0     C72118  -0.998  11.129   7.637  0.8104 -0.1558  0.2178
  547MOL0     O72119  -0.886  11.452   7.517  0.6501  0.4018  0.5975
  547MOL0     C72120  -0.625  11.524   7.435  0.2733  0.6523 -0.4665
  547MOL0     C72121  -0.495  11.555   7.404  0.3378 -0.1297 -0.8547
  547MOL0     N72122   0.318  11.656   7.434  0.2379 -0.7023 -0.3971
  547MOL0     N72123   0.381  11.610   7.540  0.0851  1.0631  0.5221
  547MOL0     C72124   0.932  10.987   8.326  0.3349  0.4162 -0.2786
  547MOL0     C72125   1.050  10.938   8.376 -0.5897  0.3334 -0.6675
  547MOL0     C72126   1.405  10.673   8.449  0.9546 -0.4991  0.5192
  547MOL0     C72127   1.391  10.601   8.571 -0.6855 -0.9183  0.4789
  547MOL0     C72128   1.487  10.512   8.620  0.0769  0.2344  0.7420
  547MOL0     C72129   1.605  10.490   8.548 -0.5387 -0.0889  1.2490
  547MOL0     O72130   1.687  10.399   8.610  0.2301 -0.4268  0.3215
  547MOL0     C72131   1.825  10.388   8.567  0.7478  0.4030 -0.3827
  547MOL0     C72132   1.910  10.432   8.688 -0.0244  0.4914 -1.0656
  547MOL0     C72133   2.037  10.351   8.680 -0.2132  0.9351 -0.2174
  547MOL0     C72134   2.139  10.418   8.779  0.5581  0.4974  0.1237
  547MOL0     C72135   2.254  10.331   8.810 -0.2922  0.1767  0.6809
  547MOL0     C72136   2.345  10.261   8.853  0.9462  0.6965 -0.1717
  547MOL0     C72137   1.633  10.581   8.437  0.1516 -0.0364 -0.7006
  547MOL0     C72138   1.525  10.656   8.378 -0.3481  0.1386 -0.1582
  547MOL0     H72139   0.951  10.649   8.497 -2.3480 -0.1811  2.0421
  547MOL0     H72140   0.718  10.736   8.397 -2.1440  3.2266  0.3121
  547MOL0     H72141   0.711  10.986   8.098  0.1497  2.0361 -1.0728
  547MOL0     H72142   0.765  11.124   8.194  0.0576 -0.3081 -0.5557
  547MOL0     H72143   0.521  11.142   8.294 -1.7270 -0.9678  0.7216
  547MOL0     H72144   0.488  10.994   8.205  2.6111 -0.6038  2.0460
  547MOL0     H72145   0.512  11.126   7.995  1.2371  1.1030 -0.5152
  547MOL0     H72146   0.580  11.260   8.082  3.0731 -3.2880 -1.4847
  547MOL0     H72147   0.281  11.160   8.112 -1.5513  1.7009 -0.7745
  547MOL0     H72148   0.371  11.289   8.194 -1.4941  0.7316 -0.5727
  547MOL0     H72149   0.192  11.333   8.038  0.4314  0.0875  2.1373
  547MOL0     H72150   0.277  11.261   7.901 -1.2759 -0.2554  0.6961
  547MOL0     H72151   0.472  11.431   7.961  0.4118  1.4321  0.2675
  547MOL0     H72152   0.342  11.533   8.014  1.3252  0.9703 -1.3909
  547MOL0     H72153   0.364  11.432   7.734 -1.2294 -0.6449 -0.4036
  547MOL0     H72154   0.219  11.508   7.809  0.1321  1.5452 -4.0255
  547MOL0     H72155   0.500  11.641   7.787 -0.0704  1.8938  0.8428
  547MOL0     H72156   0.349  11.713   7.859 -0.3628 -1.8889  2.2230
  547MOL0     H72157   0.165  11.824   7.677  0.3614  1.9095 -1.6729
  547MOL0     H72158   0.164  11.802   7.289  2.6858  0.6929 -0.1425
  547MOL0     H72159   0.122  11.919   7.407 -2.0984  0.1916 -5.0179
  547MOL0     H72160  -0.090  11.849   7.402 -1.4225 -0.4804  2.5128
  547MOL0     H72161  -0.039  11.746   7.522  1.3534 -1.2270 -0.9107
  547MOL0     H72162  -0.020  11.650   7.233 -0.8105  1.0791  0.0270
  547MOL0     H72163  -0.011  11.554   7.373 -1.0693  0.9579  3.9931
  547MOL0     H72164  -0.239  11.571   7.233  1.9015  1.4672 -0.4413
  547MOL0     H72165  -0.260  11.712   7.338  0.3527  0.5553  0.9260
  547MOL0     H72166  -0.327  11.334   7.590  1.3272  1.1341  0.3078
  547MOL0     H72167  -0.550  11.242   7.621 -0.8382  2.1444  2.3478
  547MOL0     H72168  -0.933  11.417   7.809  0.7173 -0.0531  1.4558
  547MOL0     H72169  -1.178  11.366   7.897 -2.4403  0.9038 -2.3200
  547MOL0     H72170  -1.396  11.329   7.903  1.4013  0.4800  0.5088
  547MOL0     H72171  -1.298  11.205   7.987  1.0390 -0.9229 -1.9315
  547MOL0     H72172  -1.510  11.179   8.072 -0.3574 -0.9311  0.7198
  547MOL0     H72173  -1.493  11.044   7.958  0.6300  0.7615  0.0851
  547MOL0     H72174  -1.643  11.127   7.798 -1.1261  0.0425 -0.1955
  547MOL0     H72175  -1.624  11.288   7.843  2.0086 -1.5706  0.0210
  547MOL0     H72176  -1.767  11.054   7.978 -1.2866  0.1448  0.2861
  547MOL0     H72177  -1.755  11.216   8.054 -3.5253 -2.4130  1.5374
  547MOL0     H72178  -1.873  11.127   7.782  0.4042  0.3669 -0.2059
  547MOL0     H72179  -1.893  11.293   7.844 -2.3683 -0.4271  0.6305
  547MOL0     H72180  -2.048  11.064   7.957  0.5174 -0.6110  2.9484
  547MOL0     H72181  -2.091  11.225   7.899  0.3851  1.1163  0.7476
  547MOL0     H72182  -1.963  11.108   8.140 -0.3409 -2.6739 -2.7508
  547MOL0     H72183  -1.935  11.286   8.118  0.3560 -0.5141  1.0872
  547MOL0     H72184  -2.143  11.345   8.170  1.5430  0.2957 -0.3028
  547MOL0     H72185  -2.125  11.207   8.283 -0.8395 -2.0816 -0.0171
  547MOL0     H72186  -1.194  11.015   7.646  1.3536 -0.7236 -1.1421
  547MOL0     H72187  -0.945  11.057   7.575  0.6971 -1.5722  1.7058
  547MOL0     H72188  -0.708  11.585   7.402 -0.5662  0.0522  0.4770
  547MOL0     H72189  -0.477  11.631   7.328  1.5180  1.2383  0.7029
  547MOL0     H72190   0.938  11.091   8.297  0.7910  0.6849  0.7480
  547MOL0     H72191   1.144  10.992   8.369 -0.3906  0.0323 -0.3827
  547MOL0     H72192   1.297  10.599   8.624 -1.8310  3.2006 -0.9815
  547MOL0     H72193   1.450  10.456   8.705 -1.3856 -1.1706 -0.7685
  547MOL0     H72194   1.860  10.452   8.485  2.5440  0.9333  0.7319
  547MOL0     H72195   1.841  10.282   8.545  1.0332 -0.2524  2.6091
  547MOL0     H72196   1.927  10.539   8.670 -1.0774  0.6286 -1.2914
  547MOL0     H72197   1.844  10.409   8.772 -0.7498  1.6974 -1.2787
  547MOL0     H72198   2.072  10.359   8.576 -1.9022 -0.3859 -0.9537
  547MOL0     H72199   1.998  10.254   8.712 -0.6971  0.2077 -2.7749
  547MOL0     H72200   2.169  10.514   8.734 -0.4482  0.7620 -0.0106
  547MOL0     H72201   2.093  10.432   8.877  0.8676  0.1363  0.3247
  547MOL0     H72202   2.425  10.196   8.882 -0.1328  0.0999  1.6553
  547MOL0     H72203   1.729  10.589   8.386 -0.7671  2.0449 -2.2432
  547MOL0     H72204   1.539  10.721   8.291 -0.4845 -0.1194 -0.3744
  548MOL0     O72205   0.954  10.809  10.900 -0.0661 -0.5201  0.2645
  548MOL0     C72206   1.000  10.700  10.933 -0.4263 -0.3236 -0.1057
  548MOL0     O72207   1.025  10.593  10.840  0.0167 -0.2135 -1.2550
  548MOL0     C72208   0.957  10.589  10.726  0.8808  0.1495 -0.2965
  548MOL0     C72209   1.012  10.645  10.608  1.0383  0.3153 -0.8688
  548MOL0     C72210   0.926  10.656  10.498 -0.0821 -1.1497  0.0244
  548MOL0     C72211   0.797  10.596  10.495  0.1273 -0.3392 -0.1373
  548MOL0     O72212   0.713  10.616  10.388  0.5059 -0.0546  0.6069
  548MOL0     C72213   0.574  10.634  10.406 -0.4046 -0.2548 -0.3943
  548MOL0     C72214   0.514  10.707  10.281 -0.0183  0.2762  0.3185
  548MOL0     C72215   0.372  10.760  10.289 -0.0180  0.5334  0.2648
  548MOL0     C72216   0.341  10.835  10.161  0.8723  0.3155 -0.1255
  548MOL0     C72217   0.211  10.923  10.153 -0.1521  0.0973 -0.1880
  548MOL0     C72218   0.192  11.000  10.276  0.6462 -0.3723 -0.1154
  548MOL0     C72219   0.066  11.083  10.284  0.8897 -0.0081 -0.8476
  548MOL0     C72220   0.061  11.182  10.398  0.0507  0.8537 -1.2115
  548MOL0     N72221  -0.054  11.267  10.385  0.3895 -0.4158  0.5838
  548MOL0     C72222  -0.189  11.235  10.410 -0.7237 -0.0216 -0.0828
  548MOL0     C72223  -0.250  11.336  10.337 -0.5361 -0.3304 -1.3808
  548MOL0     C72224  -0.391  11.351  10.328  0.8842  0.3872  0.1512
  548MOL0     C72225  -0.478  11.297  10.451  0.3582  0.8385 -0.5423
  548MOL0     C72226  -0.624  11.296  10.401  0.3748 -0.1791 -0.1702
  548MOL0     C72227  -0.715  11.305  10.525  1.3967 -0.0700 -0.8584
  548MOL0     O72228  -0.844  11.327  10.457  0.7416  0.1137  0.1398
  548MOL0     C72229  -0.957  11.346  10.529  0.0498 -0.0295  0.2115
  548MOL0     C72230  -1.064  11.363  10.443  0.5357  0.7400  0.5121
  548MOL0     C72231  -1.189  11.388  10.486 -0.1094 -0.0920 -0.3393
  548MOL0     C72232  -1.210  11.384  10.633 -0.8964  0.4570 -0.8932
  548MOL0     C72233  -1.338  11.394  10.691  0.2299  0.2030  0.2815
  548MOL0     O72234  -1.440  11.430  10.597 -0.2948  0.4004 -0.1300
  548MOL0     C72235  -1.563  11.448  10.658  0.1724  0.1722 -0.8171
  548MOL0     C72236  -1.671  11.376  10.616  0.1813  0.3854 -0.5518
  548MOL0     C72237  -1.792  11.405  10.674  0.3124  0.8335 -0.5355
  548MOL0     C72238  -1.811  11.485  10.791  1.2992  0.3860  0.2180
  548MOL0     O72239  -1.935  11.499  10.859  0.0747  1.2683  0.7977
  548MOL0     C72240  -2.057  11.448  10.795 -0.2878 -0.5346  0.4185
  548MOL0     C72241  -2.182  11.491  10.877 -0.7594  0.7546 -0.4332
  548MOL0     C72242  -2.203  11.638  10.865  0.4724  0.3850  0.3814
  548MOL0     C72243  -2.344  11.678  10.923 -1.1025  0.1631  0.3914
  548MOL0     C72244  -2.376  11.828  10.893 -0.0379  0.2215 -0.5911
  548MOL0     C72245  -2.511  11.863  10.956  0.3901  0.4029  0.3157
  548MOL0     C72246  -2.508  11.897  11.105 -0.3821  1.6531 -0.3161
  548MOL0     C72247  -2.648  11.902  11.155 -0.8052 -0.0564 -0.5776
  548MOL0    Cl72248  -2.761  11.991  11.065  0.3409  0.0923 -0.1004
  548MOL0     C72249  -1.693  11.545  10.840 -0.2400 -0.4269 -0.3459
  548MOL0     C72250  -1.576  11.542  10.763  0.2683  0.4466 -0.7695
  548MOL0     O72251  -1.357  11.370  10.811  0.4872 -0.0142  0.4116
  548MOL0     C72252  -1.095  11.363  10.719 -0.5280  0.6816  0.2496
  548MOL0     C72253  -0.969  11.347  10.668 -0.9777  0.4377  0.3573
  548MOL0     N72254  -0.157  11.425  10.291  0.0519  0.2269 -0.6188
  548MOL0     N72255  -0.040  11.385  10.321 -0.0571  0.2398 -0.1753
  548MOL0     C72256   0.755  10.532  10.608  0.7733 -0.5231  0.2460
  548MOL0     C72257   0.829  10.533  10.722 -0.6482 -0.0881  0.5956
  548MOL0     C72258   1.059  10.678  11.067 -0.1334  0.6250 -0.6751
  548MOL0     C72259   1.144  10.568  11.095 -0.0211 -0.2404 -0.6242
  548MOL0     C72260   1.196  10.546  11.218 -0.4290 -0.0840 -0.1996
  548MOL0     C72261   1.150  10.630  11.328  0.1300  0.2962 -0.2020
  548MOL0     O72262   1.171  10.588  11.455  0.5107 -0.3022  0.5644
  548MOL0     C72263   1.304  10.622  11.512  0.1858 -0.0665  0.3954
  548MOL0     C72264   1.412  10.525  11.490  0.4631  0.6027 -0.5956
  548MOL0     C72265   1.374  10.388  11.542 -0.1133 -0.6022 -0.8491
  548MOL0     C72266   1.502  10.305  11.545 -0.3158  0.0628  0.0465
  548MOL0     C72267   1.583  10.292  11.421  0.2525  0.6585  0.3575
  548MOL0     C72268   1.655  10.254  11.326 -0.1256 -0.7304  0.1322
  548MOL0     C72269   1.061  10.727  11.300 -0.1226 -0.3416  0.4647
  548MOL0     C72270   1.021  10.755  11.178 -0.5210  0.1678  1.2184
  548MOL0     H72271   1.114  10.680  10.598  1.7793 -1.0969  1.1045
  548MOL0     H72272   0.952  10.703  10.403  0.1336 -0.7637  0.2721
  548MOL0     H72273   0.566  10.682  10.504  2.0725 -0.4509 -0.0365
  548MOL0     H72274   0.521  10.540  10.423  0.0899 -0.0945  2.5377
  548MOL0     H72275   0.516  10.645  10.190  2.5668 -0.5143  0.8080
  548MOL0     H72276   0.582  10.792  10.275  1.7356 -1.1319 -2.0890
  548MOL0     H72277   0.382  10.825  10.377 -0.5500  0.1352  0.6304
  548MOL0     H72278   0.296  10.684  10.311  1.3203 -0.8488  0.2168
  548MOL0     H72279   0.421  10.908  10.150  3.3582 -1.9013  1.7613
  548MOL0     H72280   0.354  10.766  10.077  2.2670  0.3612  0.0295
  548MOL0     H72281   0.118  10.865  10.147  0.1290 -0.9202  3.2539
  548MOL0     H72282   0.209  10.991  10.067 -2.1653 -2.3236 -2.2372
  548MOL0     H72283   0.274  11.072  10.283 -0.9858  1.4982  0.4694
  548MOL0     H72284   0.183  10.929  10.359  2.1606  0.8976  1.2054
  548MOL0     H72285   0.063  11.143  10.192 -0.7306  1.3638  0.0476
  548MOL0     H72286  -0.006  11.001  10.290  1.4616 -0.4038  1.1435
  548MOL0     H72287   0.149  11.246  10.394  1.3416 -0.5658  1.5710
  548MOL0     H72288   0.061  11.132  10.495 -1.6565  3.7465  0.4540
  548MOL0     H72289  -0.219  11.153  10.474  0.9407 -0.3769  0.2722
  548MOL0     H72290  -0.428  11.299  10.240  0.0984  1.0958  0.0476
  548MOL0     H72291  -0.415  11.458  10.332 -1.5902 -0.1013 -0.0520
  548MOL0     H72292  -0.474  11.360  10.540 -1.5849  0.6142 -0.2570
  548MOL0     H72293  -0.459  11.191  10.471 -1.3476  0.2021 -2.0135
  548MOL0     H72294  -0.647  11.390  10.351 -1.6551  0.4283  1.7919
  548MOL0     H72295  -0.632  11.208  10.336  0.1962  2.2021 -3.6737
  548MOL0     H72296  -0.693  11.395  10.582  1.3779  0.5354 -1.7956
  548MOL0     H72297  -0.707  11.225  10.600 -0.0219 -0.3692 -0.9974
  548MOL0     H72298  -1.050  11.357  10.336 -1.1688  1.3808  0.2324
  548MOL0     H72299  -1.268  11.396  10.412 -0.5437  0.6399  0.1965
  548MOL0     H72300  -1.673  11.305  10.534 -1.3538 -0.2331 -0.0120
  548MOL0     H72301  -1.872  11.347  10.629  3.2377 -3.9930 -0.2599
  548MOL0     H72302  -2.066  11.341  10.775 -2.1407 -0.1979 -0.7717
  548MOL0     H72303  -2.066  11.487  10.693 -0.8025 -4.4019 -1.1973
  548MOL0     H72304  -2.165  11.456  10.979  1.8966 -1.9814 -1.6576
  548MOL0     H72305  -2.271  11.449  10.829 -1.9528  0.9221  1.5535
  548MOL0     H72306  -2.196  11.661  10.758 -3.2027  2.0616  0.3637
  548MOL0     H72307  -2.125  11.689  10.922 -1.7021  5.0380 -0.3457
  548MOL0     H72308  -2.420  11.616  10.876 -1.9478  1.2828  0.2377
  548MOL0     H72309  -2.335  11.650  11.028  0.3191  2.9130  1.1085
  548MOL0     H72310  -2.373  11.838  10.784 -1.6217 -2.4329 -0.9641
  548MOL0     H72311  -2.290  11.880  10.934 -0.2757  0.7439 -0.7347
  548MOL0     H72312  -2.579  11.779  10.935  3.0930 -2.0570  0.7103
  548MOL0     H72313  -2.548  11.956  10.912  3.1170  1.3448 -0.2176
  548MOL0     H72314  -2.450  11.816  11.149  0.4331  2.0957 -0.5643
  548MOL0     H72315  -2.450  11.989  11.119  1.8566  0.2047  0.4034
  548MOL0     H72316  -2.654  11.945  11.255 -2.4815  1.0197 -1.1172
  548MOL0     H72317  -2.679  11.797  11.150 -0.0825 -0.2229 -1.9493
  548MOL0     H72318  -1.696  11.607  10.929  0.8354 -1.9849  0.8420
  548MOL0     H72319  -1.492  11.607  10.785  1.2585 -0.6185 -1.2891
  548MOL0     H72320  -1.095  11.355  10.827  1.0594 -1.3798  0.1528
  548MOL0     H72321  -0.894  11.329  10.744 -0.2510  1.6610 -0.0234
  548MOL0     H72322   0.659  10.483  10.613  0.2566  0.5431  1.2138
  548MOL0     H72323   0.803  10.503  10.823  2.2545  1.4913  1.9449
  548MOL0     H72324   1.162  10.502  11.011  3.1660 -0.3113  0.0163
  548MOL0     H72325   1.255  10.458  11.241 -3.3073 -2.1386 -0.2271
  548MOL0     H72326   1.289  10.625  11.621  2.8200  2.0824  0.8026
  548MOL0     H72327   1.337  10.721  11.480 -0.9126  1.1284  2.6476
  548MOL0     H72328   1.436  10.508  11.385  2.6622 -0.9821  0.0929
  548MOL0     H72329   1.501  10.554  11.546  0.1689 -0.7742  0.6447
  548MOL0     H72330   1.302  10.336  11.478 -0.6767  1.5090 -2.0401
  548MOL0     H72331   1.332  10.390  11.642 -0.5542  0.8981 -1.0368
  548MOL0     H72332   1.569  10.349  11.620 -0.4387  1.6111 -0.7154
  548MOL0     H72333   1.480  10.204  11.582 -0.3990  0.4272  1.0283
  548MOL0     H72334   1.728  10.216  11.257  4.0542  0.0645  3.6817
  548MOL0     H72335   1.029  10.790  11.382  1.2505  2.8807 -1.3188
  548MOL0     H72336   0.957  10.838  11.151  0.4747  0.5381 -0.1090
  549MOL0     O72337   2.072   8.361   4.811  0.0550 -0.1559 -0.2005
  549MOL0     C72338   2.117   8.453   4.878 -0.0013 -0.0153  0.3030
  549MOL0     O72339   2.061   8.503   4.987 -0.6297  0.7421  0.4244
  549MOL0     C72340   1.951   8.436   5.046 -0.8257 -0.4780  0.1503
  549MOL0     C72341   1.850   8.524   5.083 -0.5188  0.0393 -0.2117
  549MOL0     C72342   1.750   8.474   5.158  1.0881 -0.7419 -0.3032
  549MOL0     C72343   1.737   8.338   5.198  0.7384  0.1330 -0.0158
  549MOL0     O72344   1.622   8.302   5.270  0.5974  0.0199  0.1319
  549MOL0     C72345   1.593   8.165   5.293  1.2696 -0.2251 -0.1089
  549MOL0     C72346   1.466   8.148   5.385 -0.1936  0.0364  1.2844
  549MOL0     C72347   1.401   8.020   5.344 -0.6218 -0.0905  0.1108
  549MOL0     C72348   1.282   8.004   5.445  0.2379 -0.8203 -0.0751
  549MOL0     C72349   1.177   7.896   5.408 -0.8718  0.1925  0.7298
  549MOL0     C72350   1.078   7.865   5.523  0.1922 -0.5225  0.3630
  549MOL0     C72351   0.957   7.787   5.486 -0.8869  0.5030  0.1071
  549MOL0     C72352   0.891   7.712   5.609  0.3393  0.3820  0.2896
  549MOL0     N72353   0.765   7.645   5.577  0.2985 -0.0113 -0.5119
  549MOL0     C72354   0.646   7.705   5.564 -0.4052 -0.2757  0.2088
  549MOL0     C72355   0.555   7.608   5.551  0.2557  0.2322  0.0725
  549MOL0     C72356   0.414   7.636   5.520  0.8251  0.1201  0.1921
  549MOL0     C72357   0.319   7.585   5.634  0.1072  0.8454 -0.3945
  549MOL0     C72358   0.331   7.684   5.757 -0.0136  1.4524  1.2693
  549MOL0     C72359   0.296   7.603   5.884 -0.2824 -0.1480 -0.0070
  549MOL0     O72360   0.154   7.585   5.881  0.9309 -0.2234 -0.0643
  549MOL0     C72361   0.099   7.487   5.951  1.0399  0.7294 -0.3745
  549MOL0     C72362  -0.024   7.434   5.905 -0.3735 -0.6817  0.5214
  549MOL0     C72363  -0.090   7.321   5.963 -0.3631 -0.0321  0.0803
  549MOL0     C72364  -0.032   7.261   6.073 -0.8124  0.3118 -0.4416
  549MOL0     C72365  -0.087   7.141   6.130  0.5607  1.1758 -0.5937
  549MOL0     O72366  -0.211   7.105   6.098 -0.2855 -0.5582 -0.0474
  549MOL0     C72367  -0.289   7.013   6.155  0.4464 -0.5987  0.3757
  549MOL0     C72368  -0.281   6.984   6.288  0.2086 -0.2508 -1.2269
  549MOL0     C72369  -0.379   6.898   6.353 -0.0854  0.1779  0.5704
  549MOL0     C72370  -0.452   6.818   6.276  0.8949  0.1146 -0.6335
  549MOL0     O72371  -0.525   6.713   6.332 -0.2548 -0.1045  0.2504
  549MOL0     C72372  -0.641   6.762   6.405 -0.4763  0.7051 -0.8802
  549MOL0     C72373  -0.757   6.668   6.381  0.1269 -0.0249 -0.4774
  549MOL0     C72374  -0.881   6.689   6.472 -0.9161 -0.1253  0.2216
  549MOL0     C72375  -0.996   6.599   6.434 -0.0342  0.3747  0.0173
  549MOL0     C72376  -1.107   6.616   6.545 -0.4427  0.2367 -0.0411
  549MOL0     C72377  -1.216   6.510   6.558 -0.1142  0.5824  0.6737
  549MOL0     C72378  -1.322   6.513   6.437 -0.4546 -0.0264 -0.2777
  549MOL0     C72379  -1.438   6.420   6.445  0.3753  0.3693  0.1013
  549MOL0    Cl72380  -1.568   6.475   6.333  0.1705 -0.2112 -0.3299
  549MOL0     C72381  -0.451   6.838   6.140  0.9282 -1.0402  0.5266
  549MOL0     C72382  -0.383   6.947   6.074 -0.6965  0.1683  0.9242
  549MOL0     O72383  -0.011   7.072   6.209  0.7678 -0.8458 -0.1899
  549MOL0     C72384   0.088   7.319   6.128 -0.0969 -0.3884  0.2646
  549MOL0     C72385   0.151   7.434   6.069  0.6973 -0.6286  1.2893
  549MOL0     N72386   0.618   7.485   5.558  0.1575  0.4280 -0.1251
  549MOL0     N72387   0.742   7.511   5.567  0.1296  0.0474 -0.2141
  549MOL0     C72388   1.833   8.248   5.150  0.3720  0.6242  0.6525
  549MOL0     C72389   1.942   8.298   5.074 -0.2498 -0.5784 -0.7293
  549MOL0     C72390   2.253   8.522   4.855  0.0896 -0.5950 -0.1522
  549MOL0     C72391   2.304   8.624   4.945 -0.2188  0.2774  0.4175
  549MOL0     C72392   2.423   8.691   4.907  0.5393  0.0530  0.1222
  549MOL0     C72393   2.487   8.649   4.784  0.3527 -0.7921  0.0627
  549MOL0     O72394   2.594   8.736   4.756 -0.2185  0.2693  0.6067
  549MOL0     C72395   2.579   8.804   4.632  0.6232  0.1384 -0.1137
  549MOL0     C72396   2.645   8.718   4.521  0.0035 -0.3820  0.2644
  549MOL0     C72397   2.787   8.669   4.560  1.1019  0.3666  0.0764
  549MOL0     C72398   2.886   8.789   4.547 -0.3823  0.7954  0.1531
  549MOL0     C72399   3.024   8.764   4.506 -0.1478  0.4223 -0.3320
  549MOL0     C72400   3.140   8.729   4.484 -0.1484  0.4280  0.1922
  549MOL0     C72401   2.443   8.541   4.711  0.3534  0.1431  0.4069
  549MOL0     C72402   2.327   8.478   4.745 -0.4179 -0.1985  0.4919
  549MOL0     H72403   1.854   8.629   5.059 -0.6065  0.3932  1.2509
  549MOL0     H72404   1.679   8.539   5.210  2.2070  1.1170 -1.0104
  549MOL0     H72405   1.675   8.109   5.338 -0.3445 -4.9838 -2.4328
  549MOL0     H72406   1.571   8.118   5.197  1.9457  1.1462 -0.9784
  549MOL0     H72407   1.389   8.225   5.378  1.1695  1.4732  1.3376
  549MOL0     H72408   1.504   8.164   5.486 -0.2522  2.9914  0.9238
  549MOL0     H72409   1.472   7.937   5.341  0.8169  1.1082 -1.3735
  549MOL0     H72410   1.357   8.035   5.245  0.8188 -1.0252 -0.7143
  549MOL0     H72411   1.337   7.985   5.537  5.4765 -0.7473 -2.7799
  549MOL0     H72412   1.236   8.103   5.456 -1.8096 -1.7497  0.1017
  549MOL0     H72413   1.231   7.809   5.370 -0.7166 -1.0015  3.4359
  549MOL0     H72414   1.119   7.928   5.320 -0.3947 -1.4188 -0.2004
  549MOL0     H72415   1.047   7.962   5.562  1.8255 -0.4365  1.5653
  549MOL0     H72416   1.135   7.815   5.602 -2.3566  0.1592  2.7897
  549MOL0     H72417   0.878   7.843   5.435 -1.6326 -0.9939 -0.4535
  549MOL0     H72418   0.993   7.714   5.413  1.2908  0.2459  1.3505
  549MOL0     H72419   0.877   7.769   5.701  2.6276 -0.2427  1.0615
  549MOL0     H72420   0.962   7.634   5.634  0.3385  0.2956  0.0305
  549MOL0     H72421   0.619   7.810   5.553  0.8442  0.1432  0.8849
  549MOL0     H72422   0.387   7.598   5.421  2.5234 -1.6071  0.3454
  549MOL0     H72423   0.403   7.744   5.502 -0.6062 -0.2664 -1.5699
  549MOL0     H72424   0.348   7.485   5.666 -0.4492  0.6078 -0.6313
  549MOL0     H72425   0.215   7.584   5.600 -1.0963 -3.8201  2.5572
  549MOL0     H72426   0.433   7.721   5.773  1.8030 -2.7579  0.7748
  549MOL0     H72427   0.262   7.768   5.747 -2.4075 -0.5169  0.4152
  549MOL0     H72428   0.309   7.657   5.978  0.6464 -2.1551  1.0690
  549MOL0     H72429   0.353   7.511   5.896 -0.5179 -0.1469  1.2192
  549MOL0     H72430  -0.068   7.472   5.813 -1.3513 -0.8932  0.8907
  549MOL0     H72431  -0.177   7.274   5.918 -0.2068 -0.1872 -0.0615
  549MOL0     H72432  -0.212   7.042   6.349 -1.0038 -0.7531  0.7074
  549MOL0     H72433  -0.384   6.882   6.460  0.3094 -1.1798  0.4040
  549MOL0     H72434  -0.681   6.852   6.359 -1.0510  1.1308  0.4213
  549MOL0     H72435  -0.612   6.787   6.507 -1.9169  0.1909 -0.3193
  549MOL0     H72436  -0.736   6.565   6.409 -2.0861 -0.2787  0.5169
  549MOL0     H72437  -0.783   6.677   6.276  2.3498  2.0368 -0.9406
  549MOL0     H72438  -0.915   6.793   6.464 -2.7363 -0.7036  0.0487
  549MOL0     H72439  -0.853   6.658   6.573  2.9042 -1.1472 -0.9856
  549MOL0     H72440  -1.041   6.611   6.335  2.3056 -1.1537 -1.3230
  549MOL0     H72441  -0.961   6.495   6.429 -0.4211  0.1942  0.8748
  549MOL0     H72442  -1.160   6.711   6.529 -0.8363 -0.1502 -1.1418
  549MOL0     H72443  -1.062   6.634   6.642 -1.9664  1.8245  0.4300
  549MOL0     H72444  -1.271   6.529   6.651  2.0945 -1.2827  2.5047
  549MOL0     H72445  -1.165   6.414   6.566  0.7513  1.1672  3.2420
  549MOL0     H72446  -1.362   6.614   6.446 -1.0750 -0.2027 -0.9662
  549MOL0     H72447  -1.274   6.502   6.340 -0.5961 -3.4065 -0.0855
  549MOL0     H72448  -1.474   6.416   6.548 -1.9123 -2.6250 -0.6640
  549MOL0     H72449  -1.409   6.317   6.419 -3.3635 -1.3409  1.9272
  549MOL0     H72450  -0.525   6.770   6.098  3.0349 -2.8989 -0.3957
  549MOL0     H72451  -0.405   6.981   5.973  2.3479 -3.6837 -1.2942
  549MOL0     H72452   0.135   7.272   6.214  0.5064 -0.0774  0.1112
  549MOL0     H72453   0.239   7.480   6.113  1.6839 -2.1981  1.0308
  549MOL0     H72454   1.823   8.142   5.174 -3.4769  0.6773 -0.0914
  549MOL0     H72455   2.019   8.229   5.041 -0.1465  0.0097 -1.7515
  549MOL0     H72456   2.262   8.656   5.040 -1.0721  0.3249  0.0342
  549MOL0     H72457   2.473   8.770   4.962  0.3101  0.7215 -0.6100
  549MOL0     H72458   2.629   8.901   4.627  0.2245  0.4552  1.4771
  549MOL0     H72459   2.477   8.831   4.604  0.9216 -0.7016 -2.2302
  549MOL0     H72460   2.595   8.621   4.504  1.2455 -1.4063  2.1460
  549MOL0     H72461   2.656   8.772   4.426  0.9383  0.8278  1.0418
  549MOL0     H72462   2.826   8.590   4.496  1.9050 -0.4665  1.5395
  549MOL0     H72463   2.786   8.626   4.661 -1.4051 -0.7123 -0.3365
  549MOL0     H72464   2.865   8.854   4.461  1.5442 -1.4426 -2.1635
  549MOL0     H72465   2.896   8.850   4.637  3.0791 -0.4549  0.7400
  549MOL0     H72466   3.235   8.697   4.446  0.6508 -0.6432  2.8780
  549MOL0     H72467   2.492   8.516   4.618  0.3844  2.3971 -0.2620
  549MOL0     H72468   2.288   8.404   4.676  0.6844  0.1912 -0.5838
  550MOL0     O72469   2.698   2.975  10.558  0.2054 -0.0084  0.1519
  550MOL0     C72470   2.772   2.937  10.466  0.0615 -0.2300  0.3556
  550MOL0     O72471   2.732   2.890  10.336 -0.5310  0.3113  0.3545
  550MOL0     C72472   2.598   2.877  10.308 -1.2368 -0.0394  0.3274
  550MOL0     C72473   2.565   2.913  10.181  0.8225 -0.6622  0.3203
  550MOL0     C72474   2.428   2.900  10.129  0.4627 -0.0285  0.0895
  550MOL0     C72475   2.340   2.833  10.208 -0.9590  0.4683  0.2481
  550MOL0     O72476   2.206   2.811  10.167 -0.2485 -1.2221 -0.4954
  550MOL0     C72477   2.091   2.808  10.260 -0.0858 -0.0721 -0.2344
  550MOL0     C72478   1.963   2.755  10.183  0.5739 -1.2173  0.2323
  550MOL0     C72479   1.837   2.803  10.280 -0.7326  1.1318  0.3279
  550MOL0     C72480   1.704   2.734  10.228  0.2625 -0.2167  0.4618
  550MOL0     C72481   1.590   2.789  10.320  0.6179 -0.0986  0.0810
  550MOL0     C72482   1.449   2.738  10.282 -0.3087  0.4340 -0.1814
  550MOL0     C72483   1.336   2.785  10.372 -0.0609  0.5891  0.7206
  550MOL0     C72484   1.299   2.933  10.354  0.3024  0.7162  0.4615
  550MOL0     N72485   1.234   2.950  10.222 -0.6231 -1.1377 -0.2533
  550MOL0     C72486   1.117   2.893  10.168  0.9192 -0.4791 -0.7437
  550MOL0     C72487   1.099   2.970  10.055  0.2676 -0.2144 -0.6749
  550MOL0     C72488   0.981   2.955   9.959 -0.7769 -0.1926  0.9027
  550MOL0     C72489   1.023   2.913   9.813 -0.1028 -0.2357 -0.3233
  550MOL0     C72490   0.895   2.887   9.729 -0.3236 -0.3554  0.9641
  550MOL0     C72491   0.927   2.795   9.616 -0.7929  0.0084 -0.2031
  550MOL0     O72492   0.819   2.752   9.531  0.4372  0.4317 -0.0282
  550MOL0     C72493   0.718   2.679   9.583 -0.3616 -0.3296 -0.1821
  550MOL0     C72494   0.602   2.687   9.505  0.4738  0.5911 -0.6455
  550MOL0     C72495   0.498   2.610   9.552 -0.2376  0.0420  0.1443
  550MOL0     C72496   0.500   2.516   9.659  0.4065 -0.1186 -0.2076
  550MOL0     C72497   0.378   2.444   9.691 -0.2959 -0.3966 -0.4100
  550MOL0     O72498   0.365   2.390   9.813 -0.4695 -0.0218  0.1733
  550MOL0     C72499   0.252   2.327   9.840  0.9029  0.1019 -0.8830
  550MOL0     C72500   0.129   2.400   9.842  0.0315 -0.3373  0.7115
  550MOL0     C72501   0.013   2.340   9.893 -0.0998 -0.4663  0.6843
  550MOL0     C72502   0.008   2.203   9.917 -0.3424 -0.4840  0.7490
  550MOL0     O72503  -0.104   2.132   9.937  0.1194 -0.5872 -0.7767
  550MOL0     C72504  -0.108   2.088  10.070  0.4757  0.2108  0.0814
  550MOL0     C72505  -0.238   1.996  10.075 -0.1495  0.2139 -0.1697
  550MOL0     C72506  -0.313   1.990  10.213  0.1975 -0.5226  0.0795
  550MOL0     C72507  -0.370   2.128  10.246  0.8321  0.3704  0.7314
  550MOL0     C72508  -0.453   2.140  10.375 -0.2050 -0.4137  0.4608
  550MOL0     C72509  -0.576   2.042  10.378  0.5349 -0.1404 -0.1501
  550MOL0     C72510  -0.657   2.066  10.515  0.4662 -0.2944  0.0184
  550MOL0     C72511  -0.746   2.189  10.498 -0.8675  0.0062 -0.7627
  550MOL0    Cl72512  -0.848   2.201  10.646  0.5361  0.1754 -0.0709
  550MOL0     C72513   0.124   2.128   9.894  0.4893 -0.7823 -0.2727
  550MOL0     C72514   0.249   2.181   9.861  0.6287 -0.0928  0.4401
  550MOL0     O72515   0.305   2.411   9.596 -0.8880  0.0366  0.3193
  550MOL0     C72516   0.618   2.514   9.730  0.8195 -0.5950 -0.9711
  550MOL0     C72517   0.731   2.594   9.697 -0.0377 -0.4077  0.3841
  550MOL0     N72518   1.189   3.077  10.059 -0.8484 -0.3064  1.2143
  550MOL0     N72519   1.257   3.063  10.152  0.6514 -0.6133  0.0214
  550MOL0     C72520   2.376   2.780  10.334  0.2727 -0.2739  0.2687
  550MOL0     C72521   2.509   2.796  10.384 -0.7425  0.7354 -0.3569
  550MOL0     C72522   2.914   2.955  10.490 -0.7384  0.7808 -0.6266
  550MOL0     C72523   3.021   2.936  10.390 -0.0098 -0.1947  0.6526
  550MOL0     C72524   3.156   2.957  10.418  0.0955 -0.9795 -0.2926
  550MOL0     C72525   3.201   3.006  10.541 -0.4423  1.2441  0.9475
  550MOL0     O72526   3.337   3.038  10.567 -0.3698  0.7465  0.0952
  550MOL0     C72527   3.442   2.983  10.495 -0.9266 -0.0554  0.2021
  550MOL0     C72528   3.498   3.071  10.384  0.0724 -0.1983 -0.2273
  550MOL0     C72529   3.639   3.036  10.329 -0.7239  0.1948 -0.7009
  550MOL0     C72530   3.651   2.915  10.245  1.2330  0.4610 -0.0035
  550MOL0     C72531   3.560   2.894  10.134  0.7800 -0.1927 -0.4399
  550MOL0     C72532   3.490   2.883  10.036  0.3628  0.1874  0.1638
  550MOL0     C72533   3.094   3.040  10.631  0.2378 -0.3242  0.1654
  550MOL0     C72534   2.958   3.017  10.608 -0.5385  0.7193 -0.6711
  550MOL0     H72535   2.642   2.956  10.116 -1.3545 -0.0038 -1.9729
  550MOL0     H72536   2.390   2.934  10.033 -1.8389 -1.1442  0.5264
  550MOL0     H72537   2.066   2.906  10.300 -2.8119 -0.0138 -1.8132
  550MOL0     H72538   2.102   2.742  10.346 -2.6088 -0.3964 -0.0874
  550MOL0     H72539   1.957   2.650  10.156  0.2541 -0.5734 -2.5054
  550MOL0     H72540   1.945   2.810  10.090 -1.8882  0.5873  1.6351
  550MOL0     H72541   1.821   2.910  10.298 -3.7380  0.7075  0.7106
  550MOL0     H72542   1.867   2.757  10.375  2.7673  1.0918 -0.6509
  550MOL0     H72543   1.698   2.760  10.122  1.1398 -3.7070 -0.5796
  550MOL0     H72544   1.699   2.625  10.228 -1.7673 -0.2008 -1.7299
  550MOL0     H72545   1.590   2.898  10.322 -3.8184  0.1124  3.2923
  550MOL0     H72546   1.620   2.769  10.423  0.4772 -4.7271 -0.5413
  550MOL0     H72547   1.461   2.630  10.291 -0.6772  0.1188 -2.8670
  550MOL0     H72548   1.433   2.756  10.176  0.1549 -0.1587 -0.3588
  550MOL0     H72549   1.245   2.728  10.352  0.2797  0.3511 -0.2092
  550MOL0     H72550   1.368   2.776  10.476  0.2691 -0.5422  0.5341
  550MOL0     H72551   1.384   3.001  10.363  1.6617 -0.5650 -1.7859
  550MOL0     H72552   1.233   2.961  10.437 -0.3909  1.1954 -0.2379
  550MOL0     H72553   1.056   2.809  10.200 -1.2080  1.9284  1.9912
  550MOL0     H72554   0.926   3.049   9.964  0.8525  0.9876 -1.3873
  550MOL0     H72555   0.928   2.866   9.996  0.8879 -1.4726  0.3657
  550MOL0     H72556   1.070   2.815   9.829 -2.1968 -1.4479 -1.1105
  550MOL0     H72557   1.093   2.975   9.756  1.8038 -1.9699  0.0067
  550MOL0     H72558   0.822   2.829   9.787  0.1293 -0.6397  1.2576
  550MOL0     H72559   0.846   2.976   9.688 -1.3186 -1.6641 -0.8279
  550MOL0     H72560   0.989   2.712   9.651  0.3293  0.7303 -0.4356
  550MOL0     H72561   0.993   2.848   9.547 -1.0906 -3.4292 -3.4758
  550MOL0     H72562   0.575   2.743   9.416  1.3173  1.9751 -0.0639
  550MOL0     H72563   0.421   2.609   9.475  0.9571 -0.9984 -1.0747
  550MOL0     H72564   0.132   2.504   9.811 -2.3714  0.6247  3.2453
  550MOL0     H72565  -0.085   2.385   9.906  0.0676 -0.3466  1.6539
  550MOL0     H72566  -0.129   2.177  10.130  0.7981  1.5364 -1.7074
  550MOL0     H72567  -0.014   2.052  10.112  1.7492  1.4100 -1.6326
  550MOL0     H72568  -0.211   1.895  10.043  1.2344  1.1273 -2.1206
  550MOL0     H72569  -0.310   2.026   9.999 -0.6646 -0.9216 -0.1436
  550MOL0     H72570  -0.251   1.965  10.299  0.2767  0.8822  0.4577
  550MOL0     H72571  -0.393   1.916  10.204 -2.0849  1.6623  1.0220
  550MOL0     H72572  -0.285   2.197  10.256  0.3153  1.6080 -2.2256
  550MOL0     H72573  -0.437   2.165  10.168  2.4221  0.8853 -0.4633
  550MOL0     H72574  -0.492   2.241  10.384  4.1659  1.5007  0.3898
  550MOL0     H72575  -0.396   2.130  10.468 -2.9061 -2.3492  2.0631
  550MOL0     H72576  -0.536   1.940  10.379  2.2666  0.4908  1.6433
  550MOL0     H72577  -0.642   2.054  10.292 -1.6038  2.6320  1.7117
  550MOL0     H72578  -0.713   1.981  10.556 -0.3448  0.1874 -0.0601
  550MOL0     H72579  -0.585   2.092  10.592 -1.7123 -0.7340  2.3151
  550MOL0     H72580  -0.811   2.171  10.412  0.2425 -2.0013 -1.2445
  550MOL0     H72581  -0.687   2.279  10.481 -3.1390  2.0086  1.1867
  550MOL0     H72582   0.137   2.021   9.906 -2.2128 -1.2985 -1.3155
  550MOL0     H72583   0.339   2.122   9.845  1.3836  0.7293  1.4785
  550MOL0     H72584   0.632   2.451   9.817  3.5299  0.6394 -0.4099
  550MOL0     H72585   0.830   2.582   9.740  0.5647 -1.0119 -1.0764
  550MOL0     H72586   2.303   2.721  10.389  0.8123 -0.4764  0.7817
  550MOL0     H72587   2.539   2.751  10.478 -0.2052 -0.2490 -0.9836
  550MOL0     H72588   3.001   2.902  10.289  1.3916  0.8016  0.0092
  550MOL0     H72589   3.221   2.936  10.333 -0.8630  1.4722 -1.7346
  550MOL0     H72590   3.414   2.887  10.451 -2.4232  1.0896 -1.5218
  550MOL0     H72591   3.527   2.964  10.562  1.3250 -2.2619 -2.9897
  550MOL0     H72592   3.428   3.070  10.300  0.0589 -3.2512 -0.2747
  550MOL0     H72593   3.501   3.173  10.423 -0.7518 -0.2615  0.0268
  550MOL0     H72594   3.709   3.024  10.412  0.6573  3.2999 -1.2765
  550MOL0     H72595   3.676   3.118  10.268 -0.2116 -0.8333 -1.8105
  550MOL0     H72596   3.749   2.916  10.198  1.9465 -3.1242  1.0797
  550MOL0     H72597   3.654   2.827  10.310  2.3016  0.8454  0.4763
  550MOL0     H72598   3.427   2.866   9.951 -0.1106 -3.4408  1.0704
  550MOL0     H72599   3.117   3.104  10.715  2.9633 -1.0401  0.0599
  550MOL0     H72600   2.887   3.053  10.682 -0.6599 -2.5024  0.9691
  551MOL0     O72601   8.054   1.395   7.827  0.6292  0.3206  0.6719
  551MOL0     C72602   8.100   1.363   7.940 -0.1301  0.1339 -0.5234
  551MOL0     O72603   8.028   1.314   8.047  0.0774 -0.0819 -0.5992
  551MOL0     C72604   7.898   1.318   8.040  0.0877  0.0809 -0.6710
  551MOL0     C72605   7.823   1.203   8.049  0.7177 -0.0617 -0.0899
  551MOL0     C72606   7.687   1.205   8.038  0.5683  0.2819 -0.2386
  551MOL0     C72607   7.618   1.327   8.040  0.0197  0.1638 -0.0478
  551MOL0     O72608   7.483   1.331   8.030  0.5035 -0.3799 -0.3942
  551MOL0     C72609   7.415   1.263   8.140  0.2940  0.3725 -0.7129
  551MOL0     C72610   7.326   1.159   8.077  0.0773 -0.5152 -0.1324
  551MOL0     C72611   7.259   1.068   8.190  0.0954  0.0717 -0.2154
  551MOL0     C72612   7.128   1.138   8.238 -1.1058 -0.1910 -0.4090
  551MOL0     C72613   7.032   1.045   8.315 -0.0521  0.4317 -0.0660
  551MOL0     C72614   6.915   1.128   8.382 -0.3469 -0.8601  0.5165
  551MOL0     C72615   6.818   1.038   8.459  0.5343  0.1489  0.9436
  551MOL0     C72616   6.747   1.116   8.569 -0.7821  0.2460 -0.5401
  551MOL0     N72617   6.641   1.047   8.633 -0.1599 -0.4212 -0.3713
  551MOL0     C72618   6.531   1.002   8.566 -0.0551  0.0869 -0.1281
  551MOL0     C72619   6.480   0.910   8.653 -0.2464  0.4665 -0.4810
  551MOL0     C72620   6.365   0.816   8.635 -0.1249  0.2722 -1.3547
  551MOL0     C72621   6.420   0.669   8.642 -0.2783 -1.5257 -0.4917
  551MOL0     C72622   6.466   0.602   8.511  0.0141  0.4546 -0.3933
  551MOL0     C72623   6.589   0.664   8.437  0.4548  0.4182  0.1063
  551MOL0     O72624   6.639   0.564   8.355  0.2621  0.4732  0.0629
  551MOL0     C72625   6.764   0.514   8.392  0.6295 -0.2979  0.1204
  551MOL0     C72626   6.890   0.584   8.396 -0.3594 -0.3075  0.6399
  551MOL0     C72627   6.999   0.518   8.441  0.4216 -1.0904  0.5583
  551MOL0     C72628   6.993   0.382   8.480  0.8949 -0.4842  0.5001
  551MOL0     C72629   7.108   0.307   8.536 -0.1831 -0.8093 -0.1851
  551MOL0     O72630   7.104   0.166   8.546 -0.3683  0.0625  0.7788
  551MOL0     C72631   7.230   0.105   8.554 -0.6361  0.0945  0.2401
  551MOL0     C72632   7.331   0.118   8.455  0.2866  0.6430 -0.2879
  551MOL0     C72633   7.460   0.070   8.478 -0.2092  0.5791  0.9705
  551MOL0     C72634   7.497   0.025   8.608  0.9035  0.1370 -0.1701
  551MOL0     O72635   7.625   0.007   8.643 -0.9108  0.1216 -0.4900
  551MOL0     C72636   7.735   0.036   8.549 -0.3906  0.0954  0.6359
  551MOL0     C72637   7.777  -0.081   8.463  0.9224 -0.4666  0.1950
  551MOL0     C72638   7.906  -0.041   8.390 -0.0380 -0.2825  0.3385
  551MOL0     C72639   7.966  -0.164   8.324  0.1809 -0.4549  0.1105
  551MOL0     C72640   8.089  -0.133   8.236  0.4097  0.3942 -0.0776
  551MOL0     C72641   8.136  -0.270   8.176  0.5664 -0.8016 -0.6731
  551MOL0     C72642   8.216  -0.360   8.271  1.0293 -0.8410  0.3194
  551MOL0     C72643   8.162  -0.503   8.259 -0.6548  1.4143 -0.6091
  551MOL0    Cl72644   7.998  -0.531   8.332  0.1101  0.4459  0.2752
  551MOL0     C72645   7.396   0.010   8.708  0.1165 -0.9239  0.6261
  551MOL0     C72646   7.264   0.053   8.681 -0.8125  0.1143  0.3161
  551MOL0     O72647   7.207   0.370   8.567 -0.0379  0.2290 -0.1345
  551MOL0     C72648   6.865   0.307   8.476  0.5795 -1.0899  0.5931
  551MOL0     C72649   6.757   0.382   8.428  0.1355 -0.8440  0.3839
  551MOL0     N72650   6.554   0.919   8.776 -0.0818  0.0972  0.5815
  551MOL0     N72651   6.643   1.013   8.761 -0.5322  0.4997 -0.0931
  551MOL0     C72652   7.699   1.440   8.051  0.2280 -1.0064  0.9023
  551MOL0     C72653   7.834   1.443   8.039 -0.1158  0.2778 -0.1841
  551MOL0     C72654   8.256   1.382   7.965  0.2343 -0.0712  0.6097
  551MOL0     C72655   8.324   1.367   8.093 -0.1379 -0.3959 -0.1674
  551MOL0     C72656   8.459   1.400   8.108 -0.6618 -0.1930  0.3178
  551MOL0     C72657   8.540   1.428   7.996  0.0587 -0.6199 -0.8752
  551MOL0     O72658   8.671   1.458   8.034  0.4679  0.5686 -0.1550
  551MOL0     C72659   8.760   1.492   7.932 -0.3732 -0.0169  0.0049
  551MOL0     C72660   8.891   1.532   7.992 -0.4767 -0.8178  0.0282
  551MOL0     C72661   8.987   1.603   7.890  0.5450 -0.3803  0.0467
  551MOL0     C72662   9.127   1.632   7.952 -1.1363  0.1140 -0.1404
  551MOL0     C72663   9.225   1.667   7.846 -0.5752  0.0190  0.3489
  551MOL0     C72664   9.310   1.684   7.761 -0.5393 -0.5410 -0.7169
  551MOL0     C72665   8.480   1.439   7.867 -0.0167  0.5900  0.0256
  551MOL0     C72666   8.346   1.411   7.851 -0.4860  0.3096  0.5676
  551MOL0     H72667   7.865   1.103   8.060  1.9563  0.3802 -0.5908
  551MOL0     H72668   7.640   1.110   8.015 -0.1985  1.1020 -2.2807
  551MOL0     H72669   7.360   1.343   8.189  1.9561  0.1047  1.8429
  551MOL0     H72670   7.472   1.221   8.224 -1.7247 -2.8718 -0.7748
  551MOL0     H72671   7.394   1.091   8.025  0.3004 -0.7901  0.4985
  551MOL0     H72672   7.256   1.210   8.011  0.9636 -0.0917 -0.7673
  551MOL0     H72673   7.330   1.058   8.273  0.0595  1.8106  0.0723
  551MOL0     H72674   7.229   0.969   8.155  0.2715 -0.1453  0.2385
  551MOL0     H72675   7.157   1.225   8.298  2.0247 -0.3315 -1.5034
  551MOL0     H72676   7.065   1.179   8.159  0.9737  2.3026 -0.9025
  551MOL0     H72677   7.091   0.984   8.385  2.0073 -1.4269 -3.1481
  551MOL0     H72678   6.987   0.973   8.246  0.5085  0.1249 -0.1180
  551MOL0     H72679   6.857   1.179   8.304  1.3060 -2.5958 -2.0003
  551MOL0     H72680   6.944   1.205   8.454  0.1634 -0.1441 -0.4315
  551MOL0     H72681   6.741   0.997   8.393 -0.3607 -0.1781  2.1471
  551MOL0     H72682   6.858   0.943   8.497  0.2202  0.7614  2.9101
  551MOL0     H72683   6.706   1.211   8.532 -4.0858  0.4915  3.1273
  551MOL0     H72684   6.822   1.146   8.643 -0.8226  0.2298 -0.4934
  551MOL0     H72685   6.493   1.037   8.471 -1.4765  0.7559  0.6429
  551MOL0     H72686   6.324   0.842   8.537 -1.6792  1.9196 -0.3312
  551MOL0     H72687   6.281   0.827   8.705 -0.2578 -1.5348 -1.1785
  551MOL0     H72688   6.335   0.615   8.684 -1.0743  0.6494  0.8920
  551MOL0     H72689   6.508   0.660   8.707 -0.2905  0.9430 -0.0416
  551MOL0     H72690   6.482   0.497   8.537 -0.0418  0.8434  1.3171
  551MOL0     H72691   6.379   0.599   8.445 -0.6447 -1.4524  0.4968
  551MOL0     H72692   6.662   0.703   8.508  2.1338  0.0278 -1.3293
  551MOL0     H72693   6.562   0.752   8.379  0.6150  1.7522  1.9610
  551MOL0     H72694   6.884   0.687   8.361 -2.2060 -0.1844  1.2495
  551MOL0     H72695   7.089   0.579   8.443  0.3569 -0.9837  0.1734
  551MOL0     H72696   7.295   0.176   8.370 -1.4790 -2.0399 -1.4772
  551MOL0     H72697   7.531   0.099   8.402 -1.3835  0.3015 -0.2790
  551MOL0     H72698   7.823   0.061   8.608  0.4440  0.0263 -0.5555
  551MOL0     H72699   7.724   0.123   8.483  0.8583 -0.5859 -0.5065
  551MOL0     H72700   7.693  -0.100   8.396 -0.4602 -5.5705  2.8380
  551MOL0     H72701   7.787  -0.174   8.519 -0.0393 -2.0443 -2.1467
  551MOL0     H72702   7.967   0.009   8.465  1.0790 -1.3844  0.2025
  551MOL0     H72703   7.885   0.031   8.311  0.0270 -2.6584 -1.9650
  551MOL0     H72704   7.997  -0.240   8.396 -0.5965 -0.7256  0.1709
  551MOL0     H72705   7.877  -0.202   8.271  0.3938  0.8984 -1.3020
  551MOL0     H72706   8.160  -0.076   8.296 -1.2811  2.0676  0.4568
  551MOL0     H72707   8.056  -0.073   8.151 -0.1994 -0.2418 -0.3084
  551MOL0     H72708   8.197  -0.245   8.089  0.2391 -1.2035 -1.0261
  551MOL0     H72709   8.043  -0.325   8.156 -0.9244  0.7422  1.5363
  551MOL0     H72710   8.324  -0.349   8.260  1.1644 -1.2574  1.1079
  551MOL0     H72711   8.197  -0.324   8.373  1.0953  2.1618 -0.6387
  551MOL0     H72712   8.237  -0.569   8.303 -1.6873 -1.3530 -2.7126
  551MOL0     H72713   8.156  -0.533   8.154  0.5265 -1.7918  0.1291
  551MOL0     H72714   7.418   0.004   8.815 -3.5703  3.2969  1.9460
  551MOL0     H72715   7.205   0.059   8.771 -0.6449  0.8299  0.3792
  551MOL0     H72716   6.867   0.200   8.494  2.3109 -1.8001 -2.9460
  551MOL0     H72717   6.653   0.352   8.441 -0.3973  1.5138  2.3717
  551MOL0     H72718   7.643   1.533   8.057 -0.5046 -1.4538  1.2186
  551MOL0     H72719   7.881   1.540   8.047  0.6408 -0.0942  0.0708
  551MOL0     H72720   8.259   1.342   8.176 -1.8697  0.4919 -1.2012
  551MOL0     H72721   8.504   1.408   8.206 -1.9816  0.9348  0.8821
  551MOL0     H72722   8.718   1.578   7.878  1.2886 -0.6411 -2.4557
  551MOL0     H72723   8.767   1.412   7.858  0.6934 -0.2466  0.3418
  551MOL0     H72724   8.875   1.594   8.080 -1.6751 -2.7672  1.2661
  551MOL0     H72725   8.949   1.447   8.030  1.1232  1.3571  2.7441
  551MOL0     H72726   8.939   1.697   7.862  0.0533 -1.6593 -4.1773
  551MOL0     H72727   9.001   1.549   7.796 -1.3803  1.5790 -1.4671
  551MOL0     H72728   9.112   1.708   8.028 -2.6682 -0.2373 -0.0628
  551MOL0     H72729   9.154   1.544   8.010 -2.4474  0.3482  0.8715
  551MOL0     H72730   9.374   1.725   7.685 -0.6062  1.8060  0.4075
  551MOL0     H72731   8.548   1.469   7.788  0.1730 -0.2085 -0.1288
  551MOL0     H72732   8.305   1.415   7.751  0.9669 -0.9942 -0.1259
  552MOL0     O72733   5.854   2.257   3.458  0.1616  0.5719 -0.4132
  552MOL0     C72734   5.854   2.158   3.530 -0.1481 -0.1377  0.2134
  552MOL0     O72735   5.735   2.096   3.584  0.3560  0.4453  0.5702
  552MOL0     C72736   5.616   2.148   3.540  0.9116  0.6299  0.2193
  552MOL0     C72737   5.536   2.081   3.448 -0.4915 -0.8070  0.1797
  552MOL0     C72738   5.418   2.140   3.398  0.4943 -0.0691 -0.1493
  552MOL0     C72739   5.369   2.258   3.442 -0.5687  0.0368 -0.3359
  552MOL0     O72740   5.259   2.320   3.397  0.8063 -0.9493  0.1715
  552MOL0     C72741   5.292   2.375   3.264 -0.5491  0.3979  0.9620
  552MOL0     C72742   5.208   2.500   3.240 -0.1100 -0.5240 -0.0746
  552MOL0     C72743   5.058   2.467   3.211 -0.4463  0.5674 -0.3140
  552MOL0     C72744   4.987   2.597   3.200  0.3892 -0.4177  0.7082
  552MOL0     C72745   4.834   2.575   3.185 -0.4394  0.3047  0.6637
  552MOL0     C72746   4.791   2.550   3.040  0.5314  0.3077  0.9745
  552MOL0     C72747   4.641   2.548   3.029 -0.9818 -0.3412 -0.7776
  552MOL0     C72748   4.593   2.536   2.886  0.3280  0.3885  0.6480
  552MOL0     N72749   4.447   2.527   2.890 -0.6656 -0.0197  0.3261
  552MOL0     C72750   4.365   2.621   2.838  0.2148 -0.8842  0.1537
  552MOL0     C72751   4.241   2.584   2.855  0.5874  0.4240  0.5910
  552MOL0     C72752   4.104   2.635   2.806 -0.5489 -0.5095  0.4570
  552MOL0     C72753   3.987   2.539   2.791 -0.2099  0.5422  0.2374
  552MOL0     C72754   3.852   2.596   2.748  0.2004  0.4658 -0.3498
  552MOL0     C72755   3.792   2.691   2.843 -0.6780 -0.0415 -0.1895
  552MOL0     O72756   3.671   2.743   2.780  0.0229 -0.0228  0.3495
  552MOL0     C72757   3.556   2.776   2.854  0.6776 -0.2704  0.2904
  552MOL0     C72758   3.558   2.779   2.995  0.0705  0.4575 -0.0163
  552MOL0     C72759   3.439   2.800   3.066 -0.7492  0.2266  0.2435
  552MOL0     C72760   3.316   2.832   3.000 -0.0526 -0.2166 -0.0792
  552MOL0     C72761   3.191   2.840   3.079  0.0746 -0.1638 -0.2711
  552MOL0     O72762   3.074   2.830   3.005 -0.6887  0.1422  0.0873
  552MOL0     C72763   2.952   2.800   3.066 -0.9836 -0.3475 -0.1474
  552MOL0     C72764   2.841   2.792   2.977 -0.0070  0.2973  0.4031
  552MOL0     C72765   2.714   2.760   3.011  0.4683  0.3977  0.6877
  552MOL0     C72766   2.684   2.741   3.151  0.4351  0.1286  0.2070
  552MOL0     O72767   2.560   2.747   3.199  0.5427 -0.5120 -0.5213
  552MOL0     C72768   2.450   2.698   3.119  0.0766  0.2680 -0.0464
  552MOL0     C72769   2.329   2.672   3.208  0.5654  0.7354  0.0994
  552MOL0     C72770   2.287   2.791   3.294 -0.6208 -0.5739 -1.1672
  552MOL0     C72771   2.176   2.768   3.395  1.1593 -0.7488  0.0271
  552MOL0     C72772   2.240   2.690   3.513  0.2806  0.0073  0.6594
  552MOL0     C72773   2.132   2.683   3.614  0.5741  0.7521 -0.5101
  552MOL0     C72774   2.179   2.615   3.744 -0.9724  0.3515 -0.2752
  552MOL0     C72775   2.100   2.628   3.871 -0.3470  0.3772 -0.8109
  552MOL0    Cl72776   2.097   2.797   3.928 -0.3916 -0.1760 -0.3972
  552MOL0     C72777   2.787   2.747   3.237  0.5788  0.6467 -0.3576
  552MOL0     C72778   2.920   2.776   3.201  0.1616 -1.0353  0.2388
  552MOL0     O72779   3.199   2.861   3.201  0.1598 -1.0982  0.4243
  552MOL0     C72780   3.316   2.831   2.858 -0.1253 -0.9070  0.1302
  552MOL0     C72781   3.434   2.803   2.791 -0.6481 -0.0623 -0.5038
  552MOL0     N72782   4.247   2.461   2.921 -0.5633 -0.5206 -0.1320
  552MOL0     N72783   4.372   2.418   2.937 -0.0541 -0.9759  0.6470
  552MOL0     C72784   5.449   2.329   3.533  0.0145 -0.6990  1.1279
  552MOL0     C72785   5.570   2.276   3.587 -0.2274  0.1567 -0.3641
  552MOL0     C72786   5.991   2.112   3.568  0.3920 -0.3721  0.1559
  552MOL0     C72787   6.109   2.193   3.553 -0.3066  0.3900  0.1031
  552MOL0     C72788   6.238   2.139   3.586 -0.0071  0.1555 -0.1442
  552MOL0     C72789   6.248   2.009   3.646 -0.0473 -0.2585  0.2677
  552MOL0     O72790   6.362   1.950   3.694  0.4154  0.7736  0.9512
  552MOL0     C72791   6.482   2.025   3.715 -1.0844  0.7417 -0.0209
  552MOL0     C72792   6.598   1.923   3.725 -0.3261  1.1237  0.8008
  552MOL0     C72793   6.721   1.982   3.786  1.3279  1.2044  1.0348
  552MOL0     C72794   6.827   1.867   3.796 -0.3306  0.6615 -0.2039
  552MOL0     C72795   6.949   1.912   3.863  0.2003 -0.0017  0.0122
  552MOL0     C72796   7.063   1.951   3.889  0.3467 -0.5687 -0.1214
  552MOL0     C72797   6.128   1.938   3.664 -0.2962  0.2072  0.1084
  552MOL0     C72798   6.010   1.992   3.625 -0.0854 -0.3041 -0.6163
  552MOL0     H72799   5.575   1.986   3.413  2.8764  0.5133 -0.0683
  552MOL0     H72800   5.353   2.093   3.325  0.1163 -0.3705  0.3681
  552MOL0     H72801   5.269   2.309   3.180 -2.1708  1.9201  0.1216
  552MOL0     H72802   5.398   2.401   3.263 -0.0841 -1.3608  1.8353
  552MOL0     H72803   5.252   2.541   3.149 -0.6923  1.8316  0.6418
  552MOL0     H72804   5.211   2.567   3.326  2.9377 -1.8189  0.9897
  552MOL0     H72805   5.006   2.407   3.287 -2.2293 -1.1432 -2.7189
  552MOL0     H72806   5.051   2.405   3.121 -0.8018 -2.9715  1.9655
  552MOL0     H72807   5.010   2.646   3.295 -0.5363 -1.2939  1.4053
  552MOL0     H72808   5.028   2.650   3.115  0.8119 -0.4831  0.8682
  552MOL0     H72809   4.784   2.664   3.224  1.6742  1.6981  0.3264
  552MOL0     H72810   4.794   2.493   3.246  1.0698 -0.2584  0.9514
  552MOL0     H72811   4.850   2.461   3.013  0.3509 -0.5653  3.2261
  552MOL0     H72812   4.829   2.627   2.973  1.3198 -0.1082  0.9290
  552MOL0     H72813   4.586   2.478   3.093 -2.1483  0.9382 -0.3267
  552MOL0     H72814   4.604   2.648   3.055 -0.1292 -0.2197  0.0521
  552MOL0     H72815   4.646   2.459   2.829 -0.8352  1.2340 -1.6992
  552MOL0     H72816   4.635   2.613   2.821 -1.8034  0.1698 -1.1149
  552MOL0     H72817   4.386   2.717   2.791  1.2037 -2.4091 -2.7006
  552MOL0     H72818   4.122   2.688   2.712  0.0169 -2.0013 -0.3129
  552MOL0     H72819   4.085   2.709   2.884 -0.5262 -0.2826  0.2515
  552MOL0     H72820   3.983   2.486   2.887  4.1199  0.0051  0.3182
  552MOL0     H72821   4.028   2.465   2.721  0.8092  0.2152  1.1538
  552MOL0     H72822   3.864   2.639   2.648  0.4649  1.1076 -0.0492
  552MOL0     H72823   3.785   2.510   2.742  0.4244 -0.0081  2.6119
  552MOL0     H72824   3.863   2.768   2.875 -0.1748 -0.4136 -0.3992
  552MOL0     H72825   3.761   2.643   2.937 -2.8836  1.1047 -0.2541
  552MOL0     H72826   3.648   2.761   3.052  0.1606  0.8638 -0.0324
  552MOL0     H72827   3.442   2.791   3.174  1.2577  1.1990  0.3248
  552MOL0     H72828   2.863   2.820   2.875  0.2877 -2.2183 -0.2918
  552MOL0     H72829   2.633   2.765   2.939 -0.9568  2.2411  2.3026
  552MOL0     H72830   2.477   2.606   3.067  0.0020  0.4056 -0.3286
  552MOL0     H72831   2.414   2.776   3.051  2.2777 -0.0886 -1.7345
  552MOL0     H72832   2.359   2.595   3.279 -0.7062  0.6129  0.5268
  552MOL0     H72833   2.250   2.626   3.148 -1.2416  0.4448  2.5767
  552MOL0     H72834   2.275   2.864   3.213  1.5095  0.1072 -0.9162
  552MOL0     H72835   2.366   2.835   3.355 -1.7856 -0.4343  0.3025
  552MOL0     H72836   2.132   2.862   3.428  0.9491 -1.0496  0.6137
  552MOL0     H72837   2.092   2.712   3.353 -0.9386  2.5102 -0.4895
  552MOL0     H72838   2.332   2.737   3.548  0.7985  1.5633 -2.4467
  552MOL0     H72839   2.260   2.589   3.478 -0.6692 -0.7579  2.2167
  552MOL0     H72840   2.048   2.620   3.583  0.0837 -1.0051  3.7248
  552MOL0     H72841   2.090   2.782   3.633 -4.4970 -0.8693 -1.7793
  552MOL0     H72842   2.166   2.509   3.719  0.2876 -0.5454  2.5345
  552MOL0     H72843   2.285   2.635   3.758 -0.8596 -0.6903  0.4491
  552MOL0     H72844   2.138   2.570   3.956 -1.1420 -1.6320 -1.7778
  552MOL0     H72845   2.005   2.577   3.854  0.5273 -1.1779 -1.2693
  552MOL0     H72846   2.757   2.731   3.340  1.2718 -2.3081 -0.5077
  552MOL0     H72847   2.982   2.803   3.286 -0.6057  2.7672 -0.2459
  552MOL0     H72848   3.223   2.847   2.805 -0.5129 -1.8919  0.4799
  552MOL0     H72849   3.427   2.790   2.683  2.4396 -0.2086 -0.7727
  552MOL0     H72850   5.402   2.423   3.562 -2.2325 -1.6179  0.7042
  552MOL0     H72851   5.623   2.328   3.665 -1.1995 -0.2861  0.6265
  552MOL0     H72852   6.103   2.294   3.513  0.0064 -0.9665 -3.8653
  552MOL0     H72853   6.323   2.206   3.575  0.2667  0.6723  3.7321
  552MOL0     H72854   6.478   2.087   3.806  1.1883 -0.6188  1.1012
  552MOL0     H72855   6.502   2.088   3.628 -3.2269 -2.1204 -2.7969
  552MOL0     H72856   6.575   1.830   3.778 -0.2469  0.3926 -0.4251
  552MOL0     H72857   6.625   1.886   3.626  0.1811 -2.3276  2.0956
  552MOL0     H72858   6.697   2.021   3.885  2.8808  1.6073  1.2835
  552MOL0     H72859   6.746   2.070   3.726  0.1221 -1.5194 -3.9976
  552MOL0     H72860   6.789   1.776   3.841 -5.0533  0.4157 -3.8611
  552MOL0     H72861   6.846   1.836   3.693 -1.0657 -2.7022  0.5640
  552MOL0     H72862   7.159   1.997   3.901  0.8923 -1.4211 -1.1015
  552MOL0     H72863   6.130   1.838   3.707  0.7784 -0.1925 -0.8038
  552MOL0     H72864   5.929   1.935   3.669 -0.5350 -0.3212 -1.4562
  553MOL0     O72865   5.097   2.477   4.267 -0.9606 -0.1916  0.0496
  553MOL0     C72866   5.154   2.368   4.301  0.1827  0.2368  0.6181
  553MOL0     O72867   5.088   2.248   4.340 -0.1576  0.2494  0.5571
  553MOL0     C72868   4.962   2.231   4.284 -0.5231 -0.0058  0.1809
  553MOL0     C72869   4.930   2.259   4.150  0.7872  0.2029  0.0839
  553MOL0     C72870   4.793   2.234   4.106 -0.1603 -0.0706  0.8411
  553MOL0     C72871   4.703   2.166   4.184  0.5057  0.4985  0.4448
  553MOL0     O72872   4.570   2.153   4.152  0.1879  0.0451  0.1548
  553MOL0     C72873   4.516   2.241   4.049  0.5080  0.1169 -0.0264
  553MOL0     C72874   4.364   2.238   4.053 -0.7459 -0.7170  0.6454
  553MOL0     C72875   4.306   2.326   3.932 -0.3034  0.5100  0.7466
  553MOL0     C72876   4.166   2.268   3.893  0.0753 -0.3963  0.4794
  553MOL0     C72877   4.115   2.334   3.761  0.1441  1.1475  0.4465
  553MOL0     C72878   3.961   2.313   3.757 -0.5007 -0.2490  0.4732
  553MOL0     C72879   3.891   2.381   3.631 -0.1820 -0.0306  0.3954
  553MOL0     C72880   3.916   2.305   3.499 -0.7880  0.1633 -0.1366
  553MOL0     N72881   3.844   2.367   3.389 -0.6974 -0.0818 -0.0874
  553MOL0     C72882   3.716   2.372   3.359 -1.0755  0.1956 -0.9005
  553MOL0     C72883   3.705   2.462   3.262 -0.5604 -0.3933  0.3187
  553MOL0     C72884   3.572   2.497   3.216  0.1658 -0.7265 -0.2563
  553MOL0     C72885   3.542   2.426   3.084  0.0270 -0.5454 -0.6745
  553MOL0     C72886   3.400   2.415   3.033 -0.3890 -0.2100 -0.5804
  553MOL0     C72887   3.301   2.374   3.137 -0.3290  0.3609 -0.9546
  553MOL0     O72888   3.257   2.485   3.223 -0.2272 -0.1934  0.7629
  553MOL0     C72889   3.150   2.453   3.298 -0.1375 -0.2476 -0.6009
  553MOL0     C72890   3.101   2.564   3.364 -0.0440 -0.6676 -1.0318
  553MOL0     C72891   3.000   2.548   3.459  0.4166 -0.4479  0.1833
  553MOL0     C72892   2.942   2.430   3.488 -0.3041 -0.2476  0.9464
  553MOL0     C72893   2.847   2.426   3.595  0.3682  1.0232  0.3187
  553MOL0     O72894   2.825   2.304   3.666  0.2886  0.1508 -0.2467
  553MOL0     C72895   2.713   2.310   3.747  0.8089 -1.0947  0.5716
  553MOL0     C72896   2.722   2.322   3.879 -0.0177 -0.5935 -1.3775
  553MOL0     C72897   2.608   2.326   3.968 -0.4903  0.1432 -0.5053
  553MOL0     C72898   2.478   2.337   3.919 -0.4612  0.4425 -0.6160
  553MOL0     O72899   2.360   2.350   3.995 -0.4520 -0.0621  0.8874
  553MOL0     C72900   2.381   2.379   4.139 -0.5655  0.0562  0.8083
  553MOL0     C72901   2.261   2.456   4.192 -0.8150  0.1494  0.0347
  553MOL0     C72902   2.130   2.383   4.179  0.0046  0.2379 -0.6157
  553MOL0     C72903   2.015   2.467   4.246 -0.5869 -0.2689  0.0799
  553MOL0     C72904   1.890   2.378   4.239 -0.2501  0.4920  0.2604
  553MOL0     C72905   1.809   2.371   4.111  0.8574  0.4105 -0.2556
  553MOL0     C72906   1.684   2.286   4.143  0.3864 -0.6651  0.2723
  553MOL0     C72907   1.597   2.290   4.019  1.2797  0.0044 -0.3258
  553MOL0    Cl72908   1.647   2.148   3.924  0.6965 -0.0105 -0.2925
  553MOL0     C72909   2.459   2.316   3.777  0.1183  0.3694 -0.7994
  553MOL0     C72910   2.576   2.302   3.687 -0.2127  0.4868 -0.4219
  553MOL0     O72911   2.796   2.535   3.624  0.2132 -0.1058 -0.3387
  553MOL0     C72912   2.993   2.317   3.426  0.0442 -0.5119  0.3309
  553MOL0     C72913   3.094   2.329   3.325 -0.5990 -0.3551 -0.2883
  553MOL0     N72914   3.830   2.519   3.238  0.1530  0.5328 -0.1362
  553MOL0     N72915   3.915   2.458   3.317 -0.4468  0.6357  0.4972
  553MOL0     C72916   4.741   2.136   4.310 -0.3547  0.5501 -0.2781
  553MOL0     C72917   4.862   2.170   4.360 -0.0374 -0.1894 -0.0143
  553MOL0     C72918   5.301   2.373   4.326 -0.0830  0.7825 -0.0596
  553MOL0     C72919   5.365   2.488   4.352 -0.8489 -0.2049  0.3758
  553MOL0     C72920   5.497   2.499   4.385 -0.3848 -0.0170  0.3172
  553MOL0     C72921   5.573   2.390   4.370  0.6235  0.0974  0.3992
  553MOL0     O72922   5.707   2.395   4.398 -0.1077 -0.2504 -0.6543
  553MOL0     C72923   5.789   2.282   4.393 -0.0705 -0.4278 -0.2478
  553MOL0     C72924   5.917   2.335   4.447  0.1051  0.2206 -0.1034
  553MOL0     C72925   5.906   2.397   4.584 -0.3507  0.5212 -0.6601
  553MOL0     C72926   6.020   2.491   4.599 -0.5482  0.0638 -0.3750
  553MOL0     C72927   6.141   2.419   4.616  0.3350  0.1960  0.8550
  553MOL0     C72928   6.239   2.348   4.629 -0.4001 -0.2158 -0.2348
  553MOL0     C72929   5.510   2.262   4.333 -0.2532  0.8314 -0.1053
  553MOL0     C72930   5.372   2.256   4.321  0.6342 -1.0344 -0.0877
  553MOL0     H72931   5.001   2.302   4.080  1.2874  0.2354  0.6060
  553MOL0     H72932   4.764   2.256   4.004  1.9760  0.0142  0.1975
  553MOL0     H72933   4.550   2.196   3.955  1.6672  2.4414 -0.8038
  553MOL0     H72934   4.541   2.346   4.061  0.0560  0.2569 -0.2822
  553MOL0     H72935   4.330   2.276   4.149 -1.2309 -2.0046  1.0149
  553MOL0     H72936   4.332   2.135   4.034 -0.1697 -0.6686 -0.7418
  553MOL0     H72937   4.371   2.315   3.845 -3.3137  0.6690 -1.7031
  553MOL0     H72938   4.295   2.432   3.956 -2.3734  0.4877  0.0580
  553MOL0     H72939   4.169   2.159   3.888 -0.9807 -0.5654  2.4075
  553MOL0     H72940   4.089   2.287   3.969 -1.8932  0.1570 -1.5455
  553MOL0     H72941   4.154   2.288   3.669 -2.4829 -2.7034  0.9806
  553MOL0     H72942   4.133   2.441   3.759 -1.1441  1.3801  0.2344
  553MOL0     H72943   3.914   2.352   3.847 -1.0383 -0.5555  0.3314
  553MOL0     H72944   3.925   2.210   3.746 -1.1308 -0.1044  1.1458
  553MOL0     H72945   3.783   2.384   3.648 -0.6211  0.7679 -2.0328
  553MOL0     H72946   3.921   2.485   3.620 -1.3135  0.3354  0.6923
  553MOL0     H72947   3.887   2.203   3.524 -4.0931  1.6107  2.8755
  553MOL0     H72948   4.023   2.309   3.477 -0.5140  1.1163  1.2059
  553MOL0     H72949   3.636   2.310   3.398  1.3097 -2.5008  0.0316
  553MOL0     H72950   3.552   2.605   3.207  0.2393 -0.8625 -2.9384
  553MOL0     H72951   3.504   2.446   3.284 -1.6237 -2.6742 -3.2880
  553MOL0     H72952   3.582   2.324   3.079  0.7686 -0.3075  0.1820
  553MOL0     H72953   3.597   2.485   3.011  0.2553  0.9604  0.6679
  553MOL0     H72954   3.366   2.506   2.985 -1.1119  0.2462  0.7577
  553MOL0     H72955   3.406   2.336   2.957  0.6903 -1.3374  0.6308
  553MOL0     H72956   3.352   2.298   3.197  2.8618  2.9794 -0.0526
  553MOL0     H72957   3.217   2.337   3.078  0.7963 -1.5786 -1.4355
  553MOL0     H72958   3.167   2.650   3.359  1.1988 -1.5142  0.0820
  553MOL0     H72959   2.987   2.645   3.506  3.4912  0.9152 -1.4554
  553MOL0     H72960   2.820   2.322   3.925 -1.3099  3.6456  2.0420
  553MOL0     H72961   2.635   2.331   4.073  0.1474 -2.7334 -0.4697
  553MOL0     H72962   2.468   2.444   4.154 -0.0030 -1.0755  2.8293
  553MOL0     H72963   2.409   2.282   4.181 -0.3316  0.6775  2.1230
  553MOL0     H72964   2.247   2.554   4.146  1.1457  0.4936  0.1065
  553MOL0     H72965   2.285   2.485   4.295 -1.2868  1.8185 -0.2942
  553MOL0     H72966   2.152   2.284   4.221  0.0561 -0.0563 -1.3238
  553MOL0     H72967   2.092   2.370   4.077  0.0138  1.6387 -0.8169
  553MOL0     H72968   2.041   2.489   4.350 -3.7333 -0.1825  0.9492
  553MOL0     H72969   1.989   2.563   4.200  0.0049 -0.2041 -0.1255
  553MOL0     H72970   1.824   2.399   4.325  2.8897 -0.3868  3.0867
  553MOL0     H72971   1.922   2.275   4.257  1.8959  0.7821 -1.4743
  553MOL0     H72972   1.845   2.341   4.012 -3.0365 -1.0827 -1.4218
  553MOL0     H72973   1.780   2.475   4.098 -1.3754 -0.0601  0.4540
  553MOL0     H72974   1.707   2.186   4.182  1.7789  0.0583  1.3923
  553MOL0     H72975   1.617   2.331   4.216  0.3113 -0.2562 -0.0490
  553MOL0     H72976   1.610   2.383   3.963  0.8638 -0.1875 -0.7503
  553MOL0     H72977   1.490   2.283   4.039  0.7999  0.9666 -2.2836
  553MOL0     H72978   2.359   2.317   3.736  0.0920 -0.9610 -0.7948
  553MOL0     H72979   2.566   2.293   3.580 -2.1648  1.1026 -0.3140
  553MOL0     H72980   2.944   2.223   3.450 -1.0282 -0.7112 -2.2674
  553MOL0     H72981   3.121   2.242   3.266  0.4221  0.2582 -0.7327
  553MOL0     H72982   4.684   2.079   4.382  0.2518  2.4352  1.8116
  553MOL0     H72983   4.876   2.127   4.459  0.4274 -1.5957 -0.6645
  553MOL0     H72984   5.302   2.574   4.333 -1.2726 -1.1114 -2.9797
  553MOL0     H72985   5.552   2.584   4.422 -0.6569  0.7570 -0.9875
  553MOL0     H72986   5.803   2.250   4.289 -0.7278 -0.0899 -0.4480
  553MOL0     H72987   5.766   2.201   4.463  2.2247  1.2390  2.6550
  553MOL0     H72988   5.988   2.252   4.451 -1.2629 -1.0494 -1.2848
  553MOL0     H72989   5.955   2.403   4.370 -2.4711  0.5769 -1.1387
  553MOL0     H72990   5.908   2.313   4.655 -1.2453  1.2089  0.2010
  553MOL0     H72991   5.818   2.459   4.599  0.6117  1.8601 -0.3483
  553MOL0     H72992   6.014   2.565   4.519  0.7160 -1.5534 -2.0265
  553MOL0     H72993   5.998   2.537   4.696 -0.3699  0.6939 -0.6271
  553MOL0     H72994   6.322   2.283   4.650 -1.7892 -0.5708  5.9805
  553MOL0     H72995   5.573   2.175   4.318 -2.6227 -1.7320  3.2686
  553MOL0     H72996   5.322   2.167   4.286  1.4945 -0.8745 -1.8113
  554MOL0     O72997   4.154   7.529   1.454 -0.3256 -0.1427 -0.0220
  554MOL0     C72998   4.129   7.410   1.473 -0.3018 -0.3423  0.7764
  554MOL0     O72999   4.221   7.312   1.501  0.2518  0.5795 -0.3654
  554MOL0     C73000   4.356   7.340   1.512 -0.5965  0.4053  0.1384
  554MOL0     C73001   4.429   7.266   1.604 -0.3859  0.5400 -0.7825
  554MOL0     C73002   4.560   7.297   1.635  0.1381 -0.5226  0.9136
  554MOL0     C73003   4.627   7.396   1.553  0.7307  0.5709  0.1963
  554MOL0     O73004   4.751   7.430   1.575 -0.3325  0.2258 -0.8187
  554MOL0     C73005   4.843   7.343   1.642  0.5197 -1.2294  0.1572
  554MOL0     C73006   4.987   7.368   1.590 -0.5572 -0.0844 -0.7889
  554MOL0     C73007   5.078   7.253   1.642 -0.1385 -0.2488 -0.2004
  554MOL0     C73008   5.222   7.269   1.597 -0.4682  0.3901 -0.3068
  554MOL0     C73009   5.312   7.145   1.645 -0.1938 -0.8839 -0.7533
  554MOL0     C73010   5.446   7.139   1.593  0.5924  0.3203 -0.7698
  554MOL0     C73011   5.530   7.032   1.664 -0.4827 -0.1566  0.3702
  554MOL0     C73012   5.545   6.911   1.576 -0.2277 -0.3129 -0.6153
  554MOL0     N73013   5.412   6.854   1.530 -0.1278 -0.1819 -0.0032
  554MOL0     C73014   5.323   6.794   1.623 -0.1122 -0.5332  0.7187
  554MOL0     C73015   5.208   6.770   1.562  0.1077 -0.1651  0.3010
  554MOL0     C73016   5.076   6.709   1.616 -1.1845 -0.0092  0.3214
  554MOL0     C73017   4.949   6.759   1.536 -0.3152  0.6821  0.5300
  554MOL0     C73018   4.913   6.897   1.581 -0.5910 -0.0042  0.7725
  554MOL0     C73019   4.769   6.935   1.530 -0.1340 -0.2382  0.3480
  554MOL0     O73020   4.669   6.855   1.599 -1.2055  0.3784 -0.0069
  554MOL0     C73021   4.541   6.857   1.559  1.1119 -0.2291  0.1421
  554MOL0     C73022   4.488   6.946   1.467  0.8536 -0.0981 -0.9778
  554MOL0     C73023   4.351   6.944   1.430  0.3444 -0.0455 -0.9578
  554MOL0     C73024   4.258   6.846   1.484 -0.1448 -0.4251 -0.0623
  554MOL0     C73025   4.118   6.858   1.446  0.6702 -0.0475 -0.2233
  554MOL0     O73026   4.022   6.759   1.467 -0.1762 -0.1453 -0.8192
  554MOL0     C73027   3.899   6.773   1.417  0.6012 -0.0962 -0.1911
  554MOL0     C73028   3.795   6.801   1.513 -0.0898 -0.4078 -0.1168
  554MOL0     C73029   3.663   6.803   1.462  0.2805 -0.0474 -0.3831
  554MOL0     C73030   3.633   6.783   1.320 -0.5119 -0.1756 -0.0077
  554MOL0     O73031   3.515   6.788   1.257  0.1529 -0.5640  0.3269
  554MOL0     C73032   3.405   6.840   1.344  0.4003 -0.6286 -0.0197
  554MOL0     C73033   3.287   6.888   1.260 -0.3572  1.0051  0.3786
  554MOL0     C73034   3.157   6.891   1.347  0.6971  0.0817  0.2045
  554MOL0     C73035   3.040   6.952   1.267  0.2011 -0.9208 -0.1869
  554MOL0     C73036   2.896   6.959   1.335  0.2424 -0.0239  0.9100
  554MOL0     C73037   2.808   7.007   1.221  0.6659 -0.1400  1.2549
  554MOL0     C73038   2.653   7.003   1.240 -0.2003  0.1364  0.1588
  554MOL0     C73039   2.614   7.065   1.375 -0.1164  0.1395 -0.9178
  554MOL0    Cl73040   2.672   7.230   1.400  0.1115 -0.3022  0.5473
  554MOL0     C73041   3.744   6.758   1.236 -0.0701  0.2610 -0.5496
  554MOL0     C73042   3.872   6.745   1.288  0.5041  0.5112 -0.7679
  554MOL0     O73043   4.087   6.962   1.387 -0.4305 -0.4727 -0.7259
  554MOL0     C73044   4.306   6.756   1.582 -0.1398  0.4804  0.0351
  554MOL0     C73045   4.448   6.767   1.618 -1.2074  0.2355  0.1921
  554MOL0     N73046   5.227   6.807   1.432 -0.6239  0.9129  0.0331
  554MOL0     N73047   5.350   6.852   1.408 -0.0395 -0.4312 -0.1500
  554MOL0     C73048   4.561   7.466   1.450  1.2564  0.5995  0.2511
  554MOL0     C73049   4.426   7.443   1.432  0.0759 -0.2664  0.5648
  554MOL0     C73050   3.988   7.375   1.485 -0.4617 -0.5939 -0.5991
  554MOL0     C73051   3.956   7.238   1.507  0.6137  0.6365 -0.9216
  554MOL0     C73052   3.823   7.196   1.525 -0.4676  0.9801  0.4856
  554MOL0     C73053   3.719   7.293   1.516 -0.5061 -1.0482  1.2151
  554MOL0     O73054   3.594   7.237   1.511  0.1993  0.3795 -0.2449
  554MOL0     C73055   3.475   7.323   1.529 -0.8287  0.0781 -1.1387
  554MOL0     C73056   3.358   7.229   1.533 -0.1557 -0.5196 -0.9665
  554MOL0     C73057   3.234   7.310   1.563  0.4773 -0.3184 -0.0551
  554MOL0     C73058   3.116   7.212   1.552  0.3721 -0.3315 -0.1023
  554MOL0     C73059   3.011   7.264   1.647 -0.2829  0.5582  0.7721
  554MOL0     C73060   2.922   7.303   1.718  0.0979  0.0672  0.7336
  554MOL0     C73061   3.750   7.428   1.495 -0.7169 -0.2731 -0.0798
  554MOL0     C73062   3.885   7.466   1.481 -0.4525 -0.2092  0.0736
  554MOL0     H73063   4.371   7.188   1.651 -1.8005 -0.3311 -3.7312
  554MOL0     H73064   4.614   7.259   1.721  1.6881 -0.2097  0.1368
  554MOL0     H73065   4.811   7.242   1.618 -3.6213 -0.1308  0.3973
  554MOL0     H73066   4.836   7.361   1.749  2.0134 -0.5709  0.1739
  554MOL0     H73067   5.028   7.462   1.629 -0.4152 -1.6439  3.3798
  554MOL0     H73068   4.991   7.357   1.482 -2.3185  0.3166 -0.9177
  554MOL0     H73069   5.032   7.162   1.601  2.3171  0.3777 -5.1110
  554MOL0     H73070   5.058   7.249   1.749  0.9850  4.3508  0.3642
  554MOL0     H73071   5.225   7.274   1.488  1.4194 -2.0631 -0.4383
  554MOL0     H73072   5.272   7.356   1.642 -0.0189  0.3101 -0.6461
  554MOL0     H73073   5.266   7.049   1.623  0.8578 -2.4765  3.1864
  554MOL0     H73074   5.300   7.147   1.754 -0.9600 -0.0698 -0.8372
  554MOL0     H73075   5.497   7.235   1.605  2.0121 -0.4373 -0.5216
  554MOL0     H73076   5.439   7.128   1.484 -0.3102  3.7535 -1.1603
  554MOL0     H73077   5.626   7.082   1.675  0.5320 -1.5782 -1.4643
  554MOL0     H73078   5.499   7.001   1.765  4.6799 -1.3070  1.9129
  554MOL0     H73079   5.599   6.829   1.624 -0.3604 -0.9927 -1.5820
  554MOL0     H73080   5.596   6.926   1.480  2.3838 -1.3190  0.5276
  554MOL0     H73081   5.326   6.786   1.732  1.4410 -2.3390  0.5848
  554MOL0     H73082   5.050   6.738   1.718  0.2845 -0.0441  0.7394
  554MOL0     H73083   5.081   6.599   1.611 -0.5841  0.0496 -0.9126
  554MOL0     H73084   4.862   6.694   1.548 -0.1694  0.6504  1.5289
  554MOL0     H73085   4.963   6.758   1.428 -0.9260 -0.0526  0.4493
  554MOL0     H73086   4.911   6.899   1.691  1.1333 -2.6825  0.9346
  554MOL0     H73087   4.979   6.970   1.534  2.0265 -2.8673 -0.3638
  554MOL0     H73088   4.764   6.921   1.422 -0.9673 -2.6491  0.6313
  554MOL0     H73089   4.752   7.041   1.548  0.3589 -0.4823  2.6323
  554MOL0     H73090   4.556   7.020   1.427  2.7741 -0.0987  1.9684
  554MOL0     H73091   4.317   7.024   1.366 -0.6500  0.7453  0.5059
  554MOL0     H73092   3.830   6.832   1.611 -1.6022 -4.5364  1.9605
  554MOL0     H73093   3.584   6.829   1.531 -1.3481  0.5729 -2.3706
  554MOL0     H73094   3.419   6.916   1.422 -0.2987 -2.5174  2.0661
  554MOL0     H73095   3.376   6.752   1.403 -0.1887  0.7145  1.8220
  554MOL0     H73096   3.267   6.804   1.192  2.6255  0.9503 -0.5781
  554MOL0     H73097   3.307   6.981   1.207 -1.4427  1.3178  0.4807
  554MOL0     H73098   3.173   6.956   1.434 -0.0566  0.1815  0.2733
  554MOL0     H73099   3.143   6.785   1.372 -0.5200  0.2471  0.3137
  554MOL0     H73100   3.054   7.057   1.242 -2.3544 -0.3692  0.4494
  554MOL0     H73101   3.034   6.897   1.172  1.9912 -2.7781  0.6926
  554MOL0     H73102   2.890   7.026   1.421 -4.4288 -1.0255  1.5963
  554MOL0     H73103   2.866   6.858   1.362 -0.2477 -0.1149  0.0862
  554MOL0     H73104   2.825   6.958   1.125 -3.0457  2.4965 -1.0498
  554MOL0     H73105   2.817   7.114   1.198 -2.9121 -0.3318 -2.0457
  554MOL0     H73106   2.596   7.059   1.165 -2.5489 -1.9052  0.2929
  554MOL0     H73107   2.609   6.903   1.241 -2.4107  1.0182 -1.1506
  554MOL0     H73108   2.639   7.003   1.461 -2.2305 -0.5856 -0.7739
  554MOL0     H73109   2.505   7.068   1.380 -0.0978 -0.1017 -0.3800
  554MOL0     H73110   3.728   6.708   1.141 -0.7877  1.0245 -0.8430
  554MOL0     H73111   3.942   6.688   1.228 -1.6733 -1.6884 -1.3640
  554MOL0     H73112   4.243   6.684   1.633 -0.8171 -1.0542 -2.7955
  554MOL0     H73113   4.494   6.700   1.690  1.6742  2.3069  0.4426
  554MOL0     H73114   4.620   7.529   1.385  1.1992  1.0347  0.6128
  554MOL0     H73115   4.373   7.495   1.353 -1.5828 -1.4207  0.8384
  554MOL0     H73116   4.028   7.157   1.506 -0.7410 -0.6152 -0.9058
  554MOL0     H73117   3.795   7.092   1.535 -1.7914  0.2896 -5.8974
  554MOL0     H73118   3.457   7.393   1.447  0.0302 -0.8129 -2.1197
  554MOL0     H73119   3.487   7.381   1.621  3.4177 -1.3994 -0.5801
  554MOL0     H73120   3.363   7.183   1.434  2.0614  0.0600 -1.1629
  554MOL0     H73121   3.379   7.147   1.602  1.0855  0.5245 -0.0553
  554MOL0     H73122   3.222   7.393   1.493 -0.1592 -0.4327 -0.0870
  554MOL0     H73123   3.233   7.365   1.657 -1.7270  1.4539 -1.0158
  554MOL0     H73124   3.081   7.201   1.449  1.3150 -1.2329 -0.3452
  554MOL0     H73125   3.150   7.111   1.580  1.5530 -1.3919 -4.5387
  554MOL0     H73126   2.839   7.334   1.778 -0.9251 -3.0839  1.1243
  554MOL0     H73127   3.677   7.508   1.485  0.0673  0.1948 -3.3626
  554MOL0     H73128   3.892   7.574   1.468 -1.3732 -0.4010 -2.6792
  555MOL0     O73129   3.602   5.808   8.318  0.3400 -0.0116  0.2234
  555MOL0     C73130   3.692   5.780   8.399  1.0410  0.4277 -0.8740
  555MOL0     O73131   3.672   5.761   8.537 -0.0098 -0.2025 -0.5426
  555MOL0     C73132   3.538   5.753   8.588  0.2330  0.0811 -0.1597
  555MOL0     C73133   3.444   5.844   8.543 -0.0051  0.1586  0.8364
  555MOL0     C73134   3.318   5.851   8.615 -0.3951  0.7867  0.0918
  555MOL0     C73135   3.284   5.764   8.718 -1.3420  1.3369 -0.5748
  555MOL0     O73136   3.164   5.751   8.791  0.5089  0.2018 -1.3490
  555MOL0     C73137   3.049   5.816   8.736  0.6278 -0.6034 -0.3347
  555MOL0     C73138   2.934   5.812   8.841 -0.1732  1.1116 -0.0748
  555MOL0     C73139   2.892   5.667   8.877 -0.0206  1.3089  0.0308
  555MOL0     C73140   2.792   5.663   8.989 -0.4685  0.2116 -0.5328
  555MOL0     C73141   2.650   5.701   8.948  0.3936 -1.0090  0.6963
  555MOL0     C73142   2.554   5.705   9.058  0.2492 -0.5766 -1.1222
  555MOL0     C73143   2.418   5.761   9.015  0.1616  0.1276  0.4827
  555MOL0     C73144   2.319   5.750   9.124  0.1425  0.2087  0.5155
  555MOL0     N73145   2.193   5.813   9.083  0.1321 -0.0251  0.6385
  555MOL0     C73146   2.104   5.770   8.981 -0.2002  0.1652  1.0440
  555MOL0     C73147   1.999   5.851   9.012  0.0203 -0.2259  0.0280
  555MOL0     C73148   1.866   5.843   8.940 -1.2582 -0.8502  1.0885
  555MOL0     C73149   1.743   5.815   9.011 -0.0256  0.4465 -0.8596
  555MOL0     C73150   1.753   5.671   9.068 -0.6655 -0.0009  0.1780
  555MOL0     C73151   1.620   5.603   9.067  0.1525  0.0012  1.0691
  555MOL0     O73152   1.636   5.471   9.094  0.7981 -0.6643  0.3789
  555MOL0     C73153   1.520   5.401   9.107  0.0804  0.5415  0.5568
  555MOL0     C73154   1.532   5.265   9.114  0.7213 -0.7002 -0.4796
  555MOL0     C73155   1.423   5.175   9.114 -0.9625 -0.1455 -0.0223
  555MOL0     C73156   1.293   5.221   9.105 -0.6074  0.4716  0.5751
  555MOL0     C73157   1.175   5.129   9.106 -0.3271  0.1589 -0.1145
  555MOL0     O73158   1.053   5.179   9.106  0.1727  0.0543  0.2937
  555MOL0     C73159   0.949   5.088   9.129 -0.2146  0.4361 -0.4131
  555MOL0     C73160   0.936   5.012   9.247  0.4265  0.5140  0.1342
  555MOL0     C73161   0.827   4.920   9.268  0.3686  0.7812  0.0645
  555MOL0     C73162   0.729   4.910   9.170  0.3685 -0.6518  0.3584
  555MOL0     O73163   0.609   4.839   9.180 -0.6826  0.3666  0.0216
  555MOL0     C73164   0.598   4.742   9.287 -0.0900  0.6203 -0.6155
  555MOL0     C73165   0.445   4.698   9.301 -0.1211  0.0060  0.1633
  555MOL0     C73166   0.403   4.607   9.188 -0.4382 -0.0145  0.4303
  555MOL0     C73167   0.252   4.595   9.173 -0.3003 -0.1848 -0.9243
  555MOL0     C73168   0.217   4.514   9.056  0.4637 -0.2152 -0.5451
  555MOL0     C73169   0.072   4.509   9.012 -0.1959  0.9088 -0.3348
  555MOL0     C73170   0.059   4.393   8.901 -0.5865 -0.4474  0.8555
  555MOL0     C73171  -0.042   4.426   8.798  0.4076 -0.4242 -0.0048
  555MOL0    Cl73172  -0.201   4.398   8.871 -0.2188 -0.0677  0.0380
  555MOL0     C73173   0.744   4.979   9.053 -0.0855 -0.1557 -0.6573
  555MOL0     C73174   0.850   5.071   9.028  0.2566 -0.5557  0.1261
  555MOL0     O73175   1.201   5.011   9.104  0.0408  0.1023  0.0217
  555MOL0     C73176   1.281   5.358   9.090 -0.4609 -0.0548  1.1420
  555MOL0     C73177   1.383   5.446   9.090  0.0746  0.2793  0.1758
  555MOL0     N73178   2.017   5.929   9.125  0.5579  0.6370 -0.5553
  555MOL0     N73179   2.140   5.905   9.164 -0.4601 -0.0071  0.8619
  555MOL0     C73180   3.385   5.664   8.755  0.2731 -0.1728 -0.4580
  555MOL0     C73181   3.506   5.667   8.690 -0.1407 -0.3724 -0.4135
  555MOL0     C73182   3.834   5.776   8.357  0.2379  0.5223  0.1442
  555MOL0     C73183   3.940   5.759   8.453  0.0089  0.3564 -0.5529
  555MOL0     C73184   4.065   5.767   8.407 -0.6296  0.4425  1.0918
  555MOL0     C73185   4.102   5.787   8.280 -0.0242 -0.2381  0.3260
  555MOL0     O73186   4.235   5.773   8.248  0.2261  0.2254  0.6454
  555MOL0     C73187   4.251   5.671   8.147  0.0080 -1.5070  0.7010
  555MOL0     C73188   4.399   5.656   8.133 -0.1408  0.6382 -0.0741
  555MOL0     C73189   4.436   5.516   8.065  0.3351  1.1072 -1.0929
  555MOL0     C73190   4.538   5.509   7.956 -0.5679 -0.0444  0.6267
  555MOL0     C73191   4.543   5.374   7.901 -0.3599  0.0435  0.0485
  555MOL0     C73192   4.528   5.262   7.860 -0.6788 -0.3965  0.2428
  555MOL0     C73193   4.011   5.819   8.182 -0.1790 -0.5541  0.3632
  555MOL0     C73194   3.878   5.823   8.231 -0.2047  0.2344  0.3918
  555MOL0     H73195   3.463   5.914   8.462  1.6471  0.4614  1.4440
  555MOL0     H73196   3.248   5.921   8.570  2.2603  3.4052 -0.3182
  555MOL0     H73197   3.008   5.782   8.640 -3.4340  1.7000  0.3303
  555MOL0     H73198   3.070   5.923   8.724 -0.2434 -0.3157  0.5826
  555MOL0     H73199   2.843   5.850   8.795  1.3025  2.5338 -1.9752
  555MOL0     H73200   2.955   5.872   8.931  2.1083  0.3230 -0.0232
  555MOL0     H73201   2.975   5.602   8.908 -0.3883  0.3181 -0.9857
  555MOL0     H73202   2.841   5.622   8.792  2.9587 -1.5682 -0.4733
  555MOL0     H73203   2.788   5.557   9.016 -0.5559 -0.0365 -1.4972
  555MOL0     H73204   2.824   5.724   9.075 -1.2382  1.2089 -0.9370
  555MOL0     H73205   2.611   5.626   8.878 -1.4856 -0.5093  1.1467
  555MOL0     H73206   2.653   5.801   8.903  2.3548 -0.3656  2.0771
  555MOL0     H73207   2.594   5.768   9.138  0.3494  1.7647 -2.9014
  555MOL0     H73208   2.533   5.606   9.100 -2.1702  0.1692 -0.3851
  555MOL0     H73209   2.440   5.860   8.973  0.7079 -0.8652 -1.6847
  555MOL0     H73210   2.377   5.702   8.934  2.3563 -2.9181  1.3987
  555MOL0     H73211   2.349   5.794   9.219 -0.2581 -1.7206  1.5937
  555MOL0     H73212   2.284   5.648   9.142 -3.4367  1.0500 -0.6556
  555MOL0     H73213   2.123   5.696   8.904  1.2379 -1.0520  2.5083
  555MOL0     H73214   1.872   5.762   8.866 -5.1659  0.3236 -0.7864
  555MOL0     H73215   1.861   5.939   8.887  0.5841 -0.3430  1.7673
  555MOL0     H73216   1.660   5.826   8.940  0.1706 -3.4309 -1.9353
  555MOL0     H73217   1.726   5.884   9.094 -0.1154  1.0180 -1.3459
  555MOL0     H73218   1.824   5.615   9.007  1.1283  2.6949 -0.3958
  555MOL0     H73219   1.772   5.672   9.176 -0.3012 -1.9732  0.1617
  555MOL0     H73220   1.570   5.596   8.970  0.0366 -1.0052  1.1911
  555MOL0     H73221   1.550   5.651   9.136 -1.5243  2.0838 -1.8686
  555MOL0     H73222   1.638   5.238   9.117  1.2900  1.2607  3.1671
  555MOL0     H73223   1.445   5.069   9.123  0.4152  0.0959 -0.3406
  555MOL0     H73224   1.014   5.029   9.320 -0.2333 -0.8661  1.2191
  555MOL0     H73225   0.831   4.869   9.364 -2.0560 -0.4784 -0.4432
  555MOL0     H73226   0.636   4.779   9.383 -0.0631  0.6727 -0.6458
  555MOL0     H73227   0.648   4.649   9.260  1.1083  0.8450  0.6712
  555MOL0     H73228   0.382   4.787   9.289 -0.3057 -0.2609 -0.9961
  555MOL0     H73229   0.427   4.652   9.399 -1.9942 -2.2445 -1.1120
  555MOL0     H73230   0.445   4.506   9.194 -3.2111 -1.4254 -1.6659
  555MOL0     H73231   0.448   4.646   9.096 -3.3659  1.9426 -0.3005
  555MOL0     H73232   0.205   4.551   9.262  2.0200  0.5347  0.7511
  555MOL0     H73233   0.212   4.697   9.166  0.2692  0.0120 -1.4214
  555MOL0     H73234   0.243   4.409   9.071 -0.6289 -0.3541  0.4428
  555MOL0     H73235   0.281   4.565   8.983  0.8390  2.9821  1.7898
  555MOL0     H73236   0.047   4.607   8.971 -3.4997  0.6040  0.6669
  555MOL0     H73237   0.006   4.496   9.098 -1.0552  0.5932 -1.0297
  555MOL0     H73238   0.146   4.406   8.836 -1.5004  0.4465 -0.2421
  555MOL0     H73239   0.045   4.295   8.947 -1.8895 -0.3963  0.6132
  555MOL0     H73240  -0.020   4.361   8.712  2.2909 -0.7748  0.6794
  555MOL0     H73241  -0.042   4.528   8.760  0.0048 -0.6406 -0.5989
  555MOL0     H73242   0.689   4.955   8.963  1.5327  1.4457 -2.1435
  555MOL0     H73243   0.866   5.126   8.936 -2.2692  3.0942  1.6207
  555MOL0     H73244   1.183   5.399   9.070 -0.2385 -0.4785 -1.1060
  555MOL0     H73245   1.371   5.554   9.083 -0.1367  0.2099 -0.5894
  555MOL0     H73246   3.355   5.593   8.832 -0.4487  1.6828  1.0703
  555MOL0     H73247   3.575   5.593   8.729 -0.1655 -0.0559  0.2481
  555MOL0     H73248   3.917   5.744   8.558 -3.1224  2.8941 -0.7174
  555MOL0     H73249   4.138   5.741   8.484 -2.1431  0.5666  2.6350
  555MOL0     H73250   4.208   5.676   8.046  3.6168 -0.6880 -0.9682
  555MOL0     H73251   4.211   5.584   8.199 -2.6695 -0.4331  0.5955
  555MOL0     H73252   4.435   5.735   8.065  0.9039  0.8899  0.7413
  555MOL0     H73253   4.447   5.671   8.230  0.8384  1.3479 -0.6407
  555MOL0     H73254   4.342   5.471   8.034 -0.8038  0.8857  2.2270
  555MOL0     H73255   4.486   5.454   8.141  1.9888  0.7639 -2.3912
  555MOL0     H73256   4.513   5.578   7.876 -1.0851  0.0212  0.8393
  555MOL0     H73257   4.639   5.519   7.998 -1.0376  0.3815  1.6945
  555MOL0     H73258   4.524   5.157   7.840  2.8442 -0.8435  1.3284
  555MOL0     H73259   4.032   5.844   8.078  0.1236  1.2065  0.8021
  555MOL0     H73260   3.800   5.861   8.165 -1.5453 -1.9341  0.6164
  556MOL0     O73261   1.860   4.264  11.271  0.2188 -0.3874 -0.0762
  556MOL0     C73262   1.822   4.382  11.272  0.0553 -0.3676 -0.0277
  556MOL0     O73263   1.694   4.431  11.253  0.1031  0.5677 -0.3301
  556MOL0     C73264   1.595   4.341  11.234  0.1885  0.3747 -0.2079
  556MOL0     C73265   1.556   4.262  11.335  0.4982  0.4067 -0.2425
  556MOL0     C73266   1.459   4.163  11.315 -0.9216  0.1179  0.0241
  556MOL0     C73267   1.405   4.147  11.188  0.4346 -0.9450 -0.3306
  556MOL0     O73268   1.311   4.049  11.170 -0.1355  0.5958  0.4229
  556MOL0     C73269   1.204   4.025  11.265 -0.7541 -0.0139  0.2171
  556MOL0     C73270   1.103   4.147  11.279 -0.3515  0.7709  0.5282
  556MOL0     C73271   1.041   4.185  11.136  0.0746  0.1100 -0.3599
  556MOL0     C73272   0.916   4.271  11.128  0.5790 -0.1760  0.5995
  556MOL0     C73273   0.894   4.313  10.981  0.9374  0.3030  0.5992
  556MOL0     C73274   0.782   4.417  10.965  0.3732 -0.4714 -0.3317
  556MOL0     C73275   0.650   4.374  11.012  0.2272  0.1142  0.5002
  556MOL0     C73276   0.571   4.503  10.982 -0.1529  0.5988  0.1648
  556MOL0     N73277   0.428   4.491  11.010 -0.3458 -0.0767  0.6174
  556MOL0     C73278   0.341   4.406  10.943 -0.2623 -0.3850  0.1464
  556MOL0     C73279   0.216   4.449  10.967  0.5820  0.0817 -0.0741
  556MOL0     C73280   0.100   4.389  10.890 -0.2530 -0.1642  1.0191
  556MOL0     C73281  -0.013   4.361  10.995 -0.6721  0.5911  0.3109
  556MOL0     C73282  -0.148   4.326  10.934  1.1527 -0.8295  0.3927
  556MOL0     C73283  -0.161   4.194  10.857  0.2668  0.3383  0.4019
  556MOL0     O73284  -0.271   4.179  10.764  0.4216  0.7364  0.1981
  556MOL0     C73285  -0.388   4.232  10.807 -0.2238  0.7889 -0.0339
  556MOL0     C73286  -0.451   4.211  10.925  0.2432  0.2892 -0.3302
  556MOL0     C73287  -0.581   4.262  10.942  0.0866  0.4200 -0.2738
  556MOL0     C73288  -0.641   4.342  10.843  0.7729 -0.7428  0.2742
  556MOL0     C73289  -0.775   4.413  10.855  0.1855  0.8049 -0.6155
  556MOL0     O73290  -0.853   4.429  10.742  0.0883 -0.0554  0.7815
  556MOL0     C73291  -0.975   4.474  10.746 -0.1283  0.7249  0.1131
  556MOL0     C73292  -1.083   4.381  10.762 -0.7711  0.0961 -0.1718
  556MOL0     C73293  -1.212   4.420  10.791  0.0813  0.7440  0.0368
  556MOL0     C73294  -1.242   4.555  10.806 -0.3487  0.5917 -0.2411
  556MOL0     O73295  -1.369   4.603  10.834 -0.3323  0.8543  0.4045
  556MOL0     C73296  -1.476   4.527  10.762  0.0097 -0.8060  0.3649
  556MOL0     C73297  -1.456   4.518  10.610 -0.7920  0.0857 -0.2443
  556MOL0     C73298  -1.592   4.451  10.548 -0.6143  0.2715  0.7659
  556MOL0     C73299  -1.624   4.308  10.597 -0.6152  0.0140  0.0729
  556MOL0     C73300  -1.748   4.247  10.525  0.4810 -0.5897 -0.3072
  556MOL0     C73301  -1.738   4.097  10.540  0.9165 -0.2787  0.0946
  556MOL0     C73302  -1.869   4.032  10.475  0.2397  0.3787  0.2773
  556MOL0     C73303  -2.005   4.049  10.544  0.4355 -0.3391 -0.3799
  556MOL0    Cl73304  -2.010   3.956  10.702  0.1427  0.1977 -0.3033
  556MOL0     C73305  -1.142   4.648  10.789 -0.0527 -0.2917 -0.0800
  556MOL0     C73306  -1.001   4.606  10.758 -0.1934 -0.1933  0.7764
  556MOL0     O73307  -0.824   4.423  10.970 -0.1234 -0.1733 -0.1550
  556MOL0     C73308  -0.570   4.354  10.714  0.7107  0.2405 -0.7423
  556MOL0     C73309  -0.442   4.306  10.704 -0.2076  0.4344 -0.8839
  556MOL0     N73310   0.229   4.565  11.048  0.0952 -0.4385  0.6912
  556MOL0     N73311   0.353   4.588  11.065  0.0825  0.3999 -0.1188
  556MOL0     C73312   1.438   4.241  11.085 -1.2450 -0.0019 -0.2967
  556MOL0     C73313   1.540   4.340  11.106 -0.4228 -0.2048 -0.5037
  556MOL0     C73314   1.915   4.498  11.289 -0.2056  0.4009  0.3231
  556MOL0     C73315   2.057   4.489  11.264  0.3337  0.4858  0.1716
  556MOL0     C73316   2.149   4.582  11.310  0.9578  0.4774 -0.2674
  556MOL0     C73317   2.100   4.695  11.386 -0.2767  0.6151 -0.1788
  556MOL0     O73318   2.183   4.782  11.456  0.2478  0.2629 -0.5211
  556MOL0     C73319   2.326   4.758  11.463  0.2287 -0.1050  0.6214
  556MOL0     C73320   2.401   4.872  11.531  0.0575 -0.2930  0.1549
  556MOL0     C73321   2.340   4.934  11.653  1.0613  1.0137  0.2862
  556MOL0     C73322   2.431   5.045  11.711 -0.1049  0.4282  0.6025
  556MOL0     C73323   2.438   5.165  11.623  0.6202 -0.2783 -0.4865
  556MOL0     C73324   2.446   5.275  11.565 -0.4474  0.6121  0.7288
  556MOL0     C73325   1.966   4.695  11.411  0.5325 -0.1181  0.0525
  556MOL0     C73326   1.876   4.602  11.358  0.2882 -0.4297  1.0615
  556MOL0     H73327   1.584   4.280  11.439 -0.3442 -3.0556  0.6897
  556MOL0     H73328   1.428   4.106  11.402  1.0893 -0.8577  0.1637
  556MOL0     H73329   1.244   3.977  11.356  2.7023 -0.6166 -1.4494
  556MOL0     H73330   1.142   3.949  11.217 -0.1954 -0.4968  0.2487
  556MOL0     H73331   1.155   4.236  11.317  0.0077  1.5191 -1.5759
  556MOL0     H73332   1.030   4.114  11.353 -0.1034  1.7424  1.2184
  556MOL0     H73333   1.009   4.089  11.094 -0.8890  0.6905 -0.9738
  556MOL0     H73334   1.112   4.228  11.064 -1.0679 -1.3365 -2.4508
  556MOL0     H73335   0.830   4.215  11.163 -0.0259 -1.1153 -2.1358
  556MOL0     H73336   0.928   4.365  11.184  0.6689  1.7204 -2.3803
  556MOL0     H73337   0.852   4.219  10.944  1.6958 -0.3094  1.2451
  556MOL0     H73338   0.991   4.337  10.937  1.3078  0.0551  1.2549
  556MOL0     H73339   0.771   4.466  10.868 -1.8350 -0.5398 -0.1693
  556MOL0     H73340   0.811   4.508  11.019 -1.8909 -1.2907  2.5045
  556MOL0     H73341   0.600   4.299  10.951  0.3024 -0.4374  1.1108
  556MOL0     H73342   0.658   4.346  11.117  2.7927  0.6647  0.5245
  556MOL0     H73343   0.590   4.538  10.879 -1.5924 -0.3065 -0.4304
  556MOL0     H73344   0.609   4.595  11.027  1.5969 -0.1075  0.2122
  556MOL0     H73345   0.375   4.328  10.876  2.7955  1.4703 -0.7023
  556MOL0     H73346   0.127   4.294  10.843 -4.1289 -0.2050 -1.5376
  556MOL0     H73347   0.071   4.451  10.805  0.1042  1.0709  1.7647
  556MOL0     H73348  -0.037   4.446  11.060  0.0158  0.2807  0.9815
  556MOL0     H73349   0.018   4.276  11.055 -0.2326  1.4137  1.2775
  556MOL0     H73350  -0.212   4.328  11.023 -2.7387  0.5099 -2.1707
  556MOL0     H73351  -0.184   4.415  10.882  0.1365  0.4348  3.0682
  556MOL0     H73352  -0.187   4.133  10.943  0.2367  4.9961  4.1129
  556MOL0     H73353  -0.069   4.165  10.806  0.3517  0.0500  0.7195
  556MOL0     H73354  -0.395   4.156  11.001 -1.5632 -1.6295 -0.3019
  556MOL0     H73355  -0.627   4.265  11.040  1.4497  0.9461  0.3610
  556MOL0     H73356  -1.044   4.279  10.766 -0.0503  0.2593 -2.1281
  556MOL0     H73357  -1.295   4.349  10.791  0.5442  0.1910  0.2954
  556MOL0     H73358  -1.565   4.588  10.779  0.9594  0.4337  0.9968
  556MOL0     H73359  -1.486   4.429  10.811 -2.5829 -0.5291  0.5003
  556MOL0     H73360  -1.365   4.461  10.591 -1.0286 -0.8964  1.3688
  556MOL0     H73361  -1.440   4.620  10.574  2.6232  0.1958  1.2757
  556MOL0     H73362  -1.585   4.460  10.439  1.3906  1.6743  0.9718
  556MOL0     H73363  -1.677   4.516  10.573  0.3515  1.1230  1.9364
  556MOL0     H73364  -1.535   4.247  10.577 -0.7044 -0.2512  0.4814
  556MOL0     H73365  -1.637   4.305  10.705 -1.0906 -0.1135  0.0151
  556MOL0     H73366  -1.749   4.276  10.419  2.8748 -0.1194 -0.2644
  556MOL0     H73367  -1.840   4.279  10.573 -0.9401 -0.8483 -2.7024
  556MOL0     H73368  -1.722   4.073  10.646  2.8354 -0.1342 -0.1287
  556MOL0     H73369  -1.653   4.056  10.485  1.9247  2.6387 -0.7444
  556MOL0     H73370  -1.892   4.086  10.383  2.0120  1.4183  0.4107
  556MOL0     H73371  -1.851   3.925  10.457  0.5352  0.5187 -0.2741
  556MOL0     H73372  -2.088   4.013  10.482 -0.2580  1.3162 -0.4845
  556MOL0     H73373  -2.021   4.155  10.568 -1.8906 -1.2665  2.9134
  556MOL0     H73374  -1.170   4.752  10.794  1.0561  0.0635 -0.8106
  556MOL0     H73375  -0.925   4.683  10.758 -2.4411  2.1702  1.8933
  556MOL0     H73376  -0.625   4.391  10.628 -0.8346 -0.5546 -0.1243
  556MOL0     H73377  -0.398   4.308  10.605  0.9060 -0.4821 -0.4212
  556MOL0     H73378   1.382   4.246  10.992  2.7673  0.8185 -2.9377
  556MOL0     H73379   1.565   4.419  11.036  1.4072 -1.1789 -1.0134
  556MOL0     H73380   2.100   4.419  11.193  0.0338  2.6734 -2.3201
  556MOL0     H73381   2.254   4.574  11.283  1.3393 -1.1612  1.5079
  556MOL0     H73382   2.368   4.753  11.362 -2.6940  2.3775 -0.8559
  556MOL0     H73383   2.345   4.662  11.512  1.7642  0.2242  0.7356
  556MOL0     H73384   2.496   4.839  11.573 -1.1649  1.0624  4.4652
  556MOL0     H73385   2.413   4.950  11.455 -3.3733  1.8052  1.5203
  556MOL0     H73386   2.321   4.844  11.713 -0.7143  0.2245 -1.3479
  556MOL0     H73387   2.238   4.970  11.632  0.4787 -1.5089 -1.6902
  556MOL0     H73388   2.387   5.077  11.806  0.6357 -0.1255  1.1460
  556MOL0     H73389   2.534   5.013  11.726  0.6045  2.2124 -0.1771
  556MOL0     H73390   2.470   5.355  11.498  3.6552 -2.8754 -2.5786
  556MOL0     H73391   1.907   4.754  11.481 -3.7071 -4.1372  0.3312
  556MOL0     H73392   1.772   4.623  11.383  0.7500 -1.2298  4.1003
  557MOL0     O73393  10.465  10.944   5.536 -0.1331  0.0956  0.5770
  557MOL0     C73394  10.498  11.003   5.635  0.1110 -0.4397  0.2688
  557MOL0     O73395  10.435  11.000   5.757 -0.5692 -0.0222 -0.4897
  557MOL0     C73396  10.324  10.922   5.785  0.1649 -1.0805  0.3468
  557MOL0     C73397  10.251  10.853   5.690  0.4592 -0.1857  0.1549
  557MOL0     C73398  10.146  10.786   5.729  0.7770 -0.1961  0.1526
  557MOL0     C73399  10.117  10.759   5.862 -0.0683  0.3596 -0.3601
  557MOL0     O73400  10.002  10.673   5.884  0.0436 -0.2040 -0.5501
  557MOL0     C73401   9.960  10.664   6.025  0.0131 -0.9476  1.2738
  557MOL0     C73402   9.823  10.596   6.019 -1.2506 -0.1208  0.3661
  557MOL0     C73403   9.832  10.445   5.971 -1.3132 -0.7318 -0.8587
  557MOL0     C73404   9.703  10.361   5.980 -0.3788 -0.1903  0.5363
  557MOL0     C73405   9.590  10.413   5.885 -0.6918 -0.5032  0.4773
  557MOL0     C73406   9.500  10.295   5.830  0.3857  0.5846 -0.3996
  557MOL0     C73407   9.572  10.222   5.711 -0.2904 -0.2424 -0.4096
  557MOL0     C73408   9.483  10.107   5.652  0.3243  0.1193 -0.3553
  557MOL0     N73409   9.441  10.006   5.750 -0.1833  0.3045  0.2655
  557MOL0     C73410   9.517   9.895   5.782  0.5862  0.7282  0.6734
  557MOL0     C73411   9.448   9.838   5.886 -0.7507  0.6797  0.4463
  557MOL0     C73412   9.513   9.726   5.964 -0.8355 -1.2305  0.6939
  557MOL0     C73413   9.408   9.682   6.083 -1.5727 -0.1503 -0.1027
  557MOL0     C73414   9.458   9.566   6.162  0.7929 -0.2662 -0.4174
  557MOL0     C73415   9.336   9.524   6.255 -0.1115 -0.7049 -0.9970
  557MOL0     O73416   9.393   9.424   6.338  0.7912  0.3111  0.0354
  557MOL0     C73417   9.301   9.338   6.402 -0.5400 -0.4930 -0.1563
  557MOL0     C73418   9.204   9.373   6.486 -0.5346 -0.4908 -0.3777
  557MOL0     C73419   9.139   9.284   6.570 -0.4992 -0.2026  0.1556
  557MOL0     C73420   9.172   9.145   6.562 -0.4891  0.0370  0.1414
  557MOL0     C73421   9.087   9.045   6.635 -0.3237 -1.1273  0.8581
  557MOL0     O73422   8.978   9.097   6.713  0.4456  0.2679 -0.2077
  557MOL0     C73423   8.907   9.010   6.790  0.5817  0.5278 -0.2266
  557MOL0     C73424   8.976   8.939   6.892  0.0233  0.8909  0.3213
  557MOL0     C73425   8.899   8.863   6.984  0.3939 -0.8580  0.7333
  557MOL0     C73426   8.764   8.844   6.965  0.4780 -0.6435 -1.1807
  557MOL0     O73427   8.688   8.761   7.049  0.2772 -0.4484 -0.4772
  557MOL0     C73428   8.737   8.647   7.111 -0.2911 -0.1067  0.0241
  557MOL0     C73429   8.619   8.581   7.186  0.5460  0.2076  0.5832
  557MOL0     C73430   8.666   8.467   7.284 -0.0264  0.2509 -0.4795
  557MOL0     C73431   8.547   8.434   7.374  0.3437  0.0684 -1.1704
  557MOL0     C73432   8.436   8.370   7.286  0.3120 -0.0637 -0.7100
  557MOL0     C73433   8.311   8.345   7.376 -0.8240  0.2152  0.2248
  557MOL0     C73434   8.225   8.259   7.291  0.1412 -0.4188 -0.1973
  557MOL0     C73435   8.084   8.247   7.359 -0.3334 -0.3542  0.4920
  557MOL0    Cl73436   7.992   8.122   7.263 -0.5213  0.2674 -0.1257
  557MOL0     C73437   8.695   8.907   6.863  0.2397 -0.0833 -0.1899
  557MOL0     C73438   8.768   8.995   6.780 -0.0430  0.0932  0.1774
  557MOL0     O73439   9.120   8.931   6.620  0.0411  0.3273 -0.6670
  557MOL0     C73440   9.276   9.105   6.473  0.4497  0.0806 -1.0649
  557MOL0     C73441   9.348   9.206   6.405  0.3035  0.5983  0.3710
  557MOL0     N73442   9.331   9.913   5.904  0.2488 -0.5179  0.0470
  557MOL0     N73443   9.327  10.015   5.829 -0.2014  0.5384 -0.0623
  557MOL0     C73444  10.196  10.832   5.958  0.4957  0.6065 -0.4856
  557MOL0     C73445  10.302  10.909   5.909  0.4144  0.4904 -0.2902
  557MOL0     C73446  10.611  11.094   5.614 -0.0250 -0.2136 -0.5238
  557MOL0     C73447  10.645  11.176   5.718  0.2237 -0.9044 -0.4913
  557MOL0     C73448  10.749  11.260   5.703 -0.3861 -0.0733 -0.1018
  557MOL0     C73449  10.833  11.262   5.586 -0.4081 -0.6017  0.4444
  557MOL0     O73450  10.934  11.354   5.564  1.1496 -0.3033 -0.6675
  557MOL0     C73451  10.993  11.424   5.677 -0.9812 -0.2928  0.6880
  557MOL0     C73452  10.904  11.552   5.684  0.0413 -0.0153  0.4008
  557MOL0     C73453  10.951  11.661   5.781  0.3644  0.0674  0.6165
  557MOL0     C73454  11.067  11.738   5.720 -0.4310  0.3509  0.9469
  557MOL0     C73455  11.030  11.826   5.606 -0.1459  0.2390  0.2304
  557MOL0     C73456  10.988  11.904   5.521  0.2796  0.3348 -0.2404
  557MOL0     C73457  10.788  11.193   5.475 -0.2528 -0.1333 -0.4777
  557MOL0     C73458  10.688  11.094   5.494 -0.7022  0.3516 -0.5226
  557MOL0     H73459  10.267  10.851   5.583  2.9587  0.7164  0.4420
  557MOL0     H73460  10.079  10.746   5.653  2.3828  0.0202 -1.4427
  557MOL0     H73461   9.946  10.764   6.067 -0.0309  0.6081 -2.0875
  557MOL0     H73462  10.036  10.607   6.079  1.8841 -1.2465 -1.4535
  557MOL0     H73463   9.762  10.657   5.952 -1.5210 -0.3372  0.4126
  557MOL0     H73464   9.780  10.596   6.120 -1.6138 -1.1722  0.2304
  557MOL0     H73465   9.894  10.388   6.040 -0.6597  1.3034  0.2966
  557MOL0     H73466   9.869  10.438   5.868  0.6169 -0.1048 -0.2490
  557MOL0     H73467   9.728  10.258   5.952 -1.9627  0.0335 -2.0597
  557MOL0     H73468   9.666  10.347   6.082  0.2092 -2.6484  0.4651
  557MOL0     H73469   9.636  10.459   5.797  1.9374 -1.6318  1.1623
  557MOL0     H73470   9.525  10.490   5.928  0.1729  1.1162 -0.9786
  557MOL0     H73471   9.402  10.326   5.794 -2.4014 -2.3859  3.6403
  557MOL0     H73472   9.473  10.223   5.908  0.6493  0.2862 -0.5851
  557MOL0     H73473   9.581  10.289   5.625  1.1136 -2.3521 -1.9834
  557MOL0     H73474   9.672  10.189   5.741 -0.2365  1.3778  1.3789
  557MOL0     H73475   9.542  10.065   5.569  0.9738 -2.1644  1.1649
  557MOL0     H73476   9.395  10.152   5.605  1.5845  1.1665 -1.8410
  557MOL0     H73477   9.608   9.858   5.736  0.2536  1.5947 -0.7381
  557MOL0     H73478   9.598   9.770   6.017 -1.0869 -1.6728  1.4792
  557MOL0     H73479   9.559   9.657   5.893  0.5535  2.8351 -2.8332
  557MOL0     H73480   9.318   9.648   6.033  0.0583 -1.0458 -2.6302
  557MOL0     H73481   9.390   9.770   6.146  1.8935 -0.5579  1.7061
  557MOL0     H73482   9.471   9.486   6.088 -2.1143 -1.7291  0.4762
  557MOL0     H73483   9.551   9.589   6.216 -0.4681  1.6899  1.0609
  557MOL0     H73484   9.255   9.475   6.199 -3.7009 -2.9765  5.1822
  557MOL0     H73485   9.301   9.608   6.315 -2.4633 -1.6240 -0.9756
  557MOL0     H73486   9.173   9.477   6.486  1.9267  0.3325 -1.0008
  557MOL0     H73487   9.061   9.309   6.642 -1.7402 -4.3998  0.5199
  557MOL0     H73488   9.083   8.952   6.903  0.1308 -0.0627  0.4629
  557MOL0     H73489   8.942   8.821   7.074 -1.1240 -0.2152  1.7907
  557MOL0     H73490   8.815   8.678   7.181  2.0620 -0.1003 -2.4218
  557MOL0     H73491   8.778   8.593   7.025 -2.9561 -0.0461 -1.3859
  557MOL0     H73492   8.553   8.544   7.107 -0.7495 -0.9139  2.1478
  557MOL0     H73493   8.561   8.661   7.231  1.7630  1.6993 -0.3694
  557MOL0     H73494   8.754   8.489   7.345  0.1216 -1.1214 -0.1559
  557MOL0     H73495   8.695   8.381   7.221 -1.3320 -1.0505  0.6215
  557MOL0     H73496   8.574   8.368   7.456  1.5264  2.1563  0.2043
  557MOL0     H73497   8.504   8.521   7.425  0.0677 -0.4162 -0.5736
  557MOL0     H73498   8.469   8.271   7.254 -0.5586 -1.3533  2.0128
  557MOL0     H73499   8.402   8.431   7.202 -3.7385  1.5794  1.7826
  557MOL0     H73500   8.265   8.441   7.403 -0.3398  0.6310 -0.4112
  557MOL0     H73501   8.349   8.297   7.467  1.1174  2.4639  0.6916
  557MOL0     H73502   8.218   8.295   7.188 -0.5592  2.0024  0.6351
  557MOL0     H73503   8.267   8.157   7.289 -1.7482 -1.2172 -0.7728
  557MOL0     H73504   8.028   8.341   7.354  0.9868  0.4048 -1.7194
  557MOL0     H73505   8.093   8.223   7.465  2.3230 -2.0117 -0.0331
  557MOL0     H73506   8.588   8.888   6.866  0.6219 -2.3555  1.5290
  557MOL0     H73507   8.715   9.052   6.704 -1.2240  0.5106  1.2959
  557MOL0     H73508   9.296   8.998   6.466  3.0625  0.2595  1.5068
  557MOL0     H73509   9.433   9.185   6.341  0.1359  2.0393 -0.3646
  557MOL0     H73510  10.172  10.834   6.064 -0.1725 -1.6948 -0.5584
  557MOL0     H73511  10.371  10.971   5.965  0.9702 -0.5398  0.1817
  557MOL0     H73512  10.609  11.175   5.820 -0.8887 -0.5886 -0.8605
  557MOL0     H73513  10.785  11.318   5.788  1.5727 -1.7763  0.3044
  557MOL0     H73514  11.093  11.459   5.649 -1.1953 -0.2824 -0.0851
  557MOL0     H73515  10.996  11.375   5.774 -0.4355  0.8749  1.2874
  557MOL0     H73516  10.884  11.603   5.589  0.3358  3.3516  2.0188
  557MOL0     H73517  10.809  11.518   5.727  0.8591 -1.2813  1.2485
  557MOL0     H73518  10.991  11.615   5.871  2.5780  1.2404  0.3097
  557MOL0     H73519  10.866  11.729   5.791  0.6374  0.2424  1.9218
  557MOL0     H73520  11.117  11.797   5.797 -0.7027  1.6930  0.1266
  557MOL0     H73521  11.141  11.665   5.686 -1.3175 -0.4538  0.7200
  557MOL0     H73522  10.948  11.974   5.450  0.2541 -1.5003 -2.1383
  557MOL0     H73523  10.835  11.204   5.378  0.0081 -1.9087 -0.5869
  557MOL0     H73524  10.669  11.025   5.412  2.4443 -1.8346  0.4430
  558MOL0     O73525   2.659   9.773   3.248 -1.2114  0.0122 -0.2253
  558MOL0     C73526   2.695   9.817   3.362  0.0664 -0.1268 -0.5361
  558MOL0     O73527   2.605   9.878   3.459 -0.0472 -0.5536 -0.3266
  558MOL0     C73528   2.468   9.887   3.433  0.0917 -0.8028  0.4217
  558MOL0     C73529   2.408  10.020   3.456  0.2106  0.2548 -0.2652
  558MOL0     C73530   2.275  10.042   3.431 -1.3881  0.0479 -0.1797
  558MOL0     C73531   2.196   9.936   3.388  0.3042  0.0569  0.4872
  558MOL0     O73532   2.061   9.954   3.383  0.0958  0.4010 -0.0708
  558MOL0     C73533   1.996   9.990   3.505  0.4577  1.1315 -0.6895
  558MOL0     C73534   1.861   9.918   3.517 -0.3426 -0.0770  0.5909
  558MOL0     C73535   1.893   9.765   3.540  1.1596  0.3427 -0.2638
  558MOL0     C73536   1.762   9.676   3.543  0.0935 -0.4861  0.1704
  558MOL0     C73537   1.781   9.528   3.525  0.9734 -0.0056  0.3667
  558MOL0     C73538   1.649   9.460   3.487 -0.3499 -0.5521 -0.1680
  558MOL0     C73539   1.649   9.306   3.512 -0.8278 -0.2192 -0.0386
  558MOL0     C73540   1.712   9.212   3.405 -0.8722 -0.1734 -0.4636
  558MOL0     N73541   1.644   9.229   3.274  0.0016 -0.3672 -0.6416
  558MOL0     C73542   1.508   9.226   3.263  0.0250 -0.3860  0.3186
  558MOL0     C73543   1.486   9.228   3.126  0.3284 -0.1159 -0.0985
  558MOL0     C73544   1.359   9.271   3.068  0.2410  0.0411  0.2119
  558MOL0     C73545   1.264   9.150   3.048 -0.3350  1.3456  0.4901
  558MOL0     C73546   1.159   9.202   2.958 -0.1789 -0.3891  0.2754
  558MOL0     C73547   1.035   9.131   2.965 -0.6420  1.2069 -0.1391
  558MOL0     O73548   1.039   8.991   2.934  0.4757  0.2860  0.3807
  558MOL0     C73549   0.925   8.920   2.969 -0.3661 -0.3303 -0.2509
  558MOL0     C73550   0.797   8.982   2.989  0.1064 -0.7803  0.0851
  558MOL0     C73551   0.693   8.890   2.998 -0.3061 -0.2731  0.0834
  558MOL0     C73552   0.708   8.747   2.978 -0.3154  0.4883 -0.6122
  558MOL0     C73553   0.591   8.645   2.964 -0.2212  0.5595 -0.1753
  558MOL0     O73554   0.630   8.515   2.966  0.4408  0.4180 -0.1292
  558MOL0     C73555   0.525   8.423   2.953 -0.2584  0.5128 -0.8250
  558MOL0     C73556   0.512   8.332   3.062 -0.0372  0.4188 -0.8802
  558MOL0     C73557   0.402   8.239   3.071 -0.3211  1.0185 -0.8979
  558MOL0     C73558   0.317   8.223   2.963 -0.0105  0.5070 -0.2400
  558MOL0     O73559   0.214   8.132   2.954  0.3821  0.4591 -0.8472
  558MOL0     C73560   0.169   8.068   3.075  0.3302 -0.4689  0.1776
  558MOL0     C73561   0.056   7.979   3.038 -0.3253 -0.7377  0.4295
  558MOL0     C73562   0.001   7.903   3.162 -0.6934 -0.1654 -0.0691
  558MOL0     C73563  -0.072   7.783   3.117  0.8594  0.1715  0.7619
  558MOL0     C73564  -0.211   7.762   3.179 -0.4855  0.4255 -0.7824
  558MOL0     C73565  -0.292   7.650   3.136 -0.1758 -0.3296  0.8078
  558MOL0     C73566  -0.364   7.673   3.008  0.0150  0.3344  0.0058
  558MOL0     C73567  -0.454   7.548   2.967  0.1983 -0.3513  0.6020
  558MOL0    Cl73568  -0.364   7.400   2.982  0.6858  0.7148 -0.3897
  558MOL0     C73569   0.346   8.301   2.848 -0.2150 -0.8758  0.3783
  558MOL0     C73570   0.441   8.404   2.850 -0.7212  0.7711  0.8025
  558MOL0     O73571   0.478   8.686   2.948 -0.4217 -0.2549  0.2827
  558MOL0     C73572   0.842   8.699   2.963  0.2561  0.4223  0.0519
  558MOL0     C73573   0.949   8.780   2.969  0.2312  1.1962  1.3165
  558MOL0     N73574   1.607   9.229   3.059  0.0184  0.4479  0.4435
  558MOL0     N73575   1.693   9.245   3.148 -0.0634  0.8929 -0.3586
  558MOL0     C73576   2.250   9.808   3.360  0.4571  0.3456  0.6997
  558MOL0     C73577   2.392   9.789   3.382  0.2706 -0.4302 -0.0451
  558MOL0     C73578   2.841   9.811   3.403 -0.2691  0.9788 -0.0683
  558MOL0     C73579   2.929   9.714   3.342  0.0682 -0.4395  0.0840
  558MOL0     C73580   3.065   9.720   3.350 -0.2763 -0.3598 -0.4691
  558MOL0     C73581   3.126   9.822   3.416  0.2937 -0.3681 -0.0532
  558MOL0     O73582   3.264   9.831   3.425  0.1559 -0.3135  0.2323
  558MOL0     C73583   3.343   9.743   3.343 -0.0333  0.2477  1.0170
  558MOL0     C73584   3.472   9.816   3.301  0.2936 -0.2970 -0.6583
  558MOL0     C73585   3.562   9.827   3.422  0.8667  0.2310 -0.2724
  558MOL0     C73586   3.632   9.693   3.420  0.2127 -0.2377 -1.1175
  558MOL0     C73587   3.725   9.693   3.525 -0.1934  0.3566 -0.1640
  558MOL0     C73588   3.805   9.708   3.621  0.0365  0.1147  0.0120
  558MOL0     C73589   3.045   9.923   3.480  0.1051  0.3204 -0.2128
  558MOL0     C73590   2.903   9.916   3.471  0.1519 -0.8347 -0.0936
  558MOL0     H73591   2.475  10.096   3.494  0.1591 -1.2132  3.1575
  558MOL0     H73592   2.230  10.134   3.465  1.6779  1.1414  1.3070
  558MOL0     H73593   1.966  10.095   3.511 -0.7766  0.7690 -0.0637
  558MOL0     H73594   2.050   9.969   3.598 -0.5309 -0.2135 -0.3974
  558MOL0     H73595   1.812   9.927   3.420  3.4121  0.9676 -1.4202
  558MOL0     H73596   1.790   9.963   3.587 -0.8706  1.1289 -0.6655
  558MOL0     H73597   1.946   9.750   3.635 -0.9064 -0.5289  0.8364
  558MOL0     H73598   1.959   9.733   3.459  0.5715  1.4496 -1.1977
  558MOL0     H73599   1.710   9.702   3.635  1.2186 -0.2691  0.7646
  558MOL0     H73600   1.699   9.720   3.465 -2.6708  3.6894  4.2365
  558MOL0     H73601   1.817   9.494   3.623  2.6471  0.3355 -0.0910
  558MOL0     H73602   1.856   9.510   3.447  0.2469  1.9502 -0.8552
  558MOL0     H73603   1.637   9.478   3.379  2.2186 -1.9259 -0.7620
  558MOL0     H73604   1.571   9.513   3.542 -0.7351  0.6566 -1.7812
  558MOL0     H73605   1.708   9.273   3.598 -0.2611  0.5960 -0.1026
  558MOL0     H73606   1.545   9.273   3.516 -1.2093  0.5040 -2.3492
  558MOL0     H73607   1.707   9.111   3.446  0.8711  0.7818  2.3985
  558MOL0     H73608   1.821   9.216   3.399 -0.7737 -2.7922 -1.8729
  558MOL0     H73609   1.436   9.222   3.344 -1.0105 -2.2788 -0.6415
  558MOL0     H73610   1.372   9.318   2.970 -2.7297 -3.6318 -2.2280
  558MOL0     H73611   1.308   9.339   3.137 -1.4096 -0.1722 -0.7535
  558MOL0     H73612   1.234   9.099   3.140  0.5373  0.3307  0.2439
  558MOL0     H73613   1.307   9.071   2.985 -0.0741  2.2468 -0.4965
  558MOL0     H73614   1.139   9.306   2.985  2.5488 -0.5809  3.6252
  558MOL0     H73615   1.206   9.204   2.859  0.5208 -0.5473  0.5994
  558MOL0     H73616   0.976   9.171   2.882  1.3466  0.5891 -1.9449
  558MOL0     H73617   0.980   9.146   3.058 -2.6163  0.6003 -1.1404
  558MOL0     H73618   0.779   9.089   2.987 -0.9919 -0.9655 -0.4242
  558MOL0     H73619   0.596   8.937   3.013  1.1898  2.9381  0.4257
  558MOL0     H73620   0.585   8.327   3.143 -0.3681 -6.4444 -0.4417
  558MOL0     H73621   0.388   8.183   3.162 -1.4442  1.1690 -0.9673
  558MOL0     H73622   0.134   8.126   3.161  0.3050 -1.9691  1.2057
  558MOL0     H73623   0.251   8.008   3.116 -1.5023 -2.4029  1.1802
  558MOL0     H73624   0.085   7.918   2.952 -1.2507 -0.7244  0.0953
  558MOL0     H73625  -0.027   8.042   3.005 -1.8027 -2.6549  0.3943
  558MOL0     H73626  -0.072   7.970   3.208 -0.7705 -0.5227  0.3254
  558MOL0     H73627   0.082   7.890   3.234  0.4508  0.5632 -1.1776
  558MOL0     H73628  -0.099   7.795   3.011  2.1067  1.9587  0.5956
  558MOL0     H73629  -0.008   7.696   3.132 -0.4663 -0.5644  2.3593
  558MOL0     H73630  -0.265   7.855   3.158  1.5058  1.8709  0.0791
  558MOL0     H73631  -0.199   7.752   3.287  0.3080 -1.4264 -1.0051
  558MOL0     H73632  -0.359   7.607   3.211 -2.5234 -0.5610 -1.2680
  558MOL0     H73633  -0.217   7.577   3.103 -0.6625  0.1812 -1.6091
  558MOL0     H73634  -0.428   7.760   3.022  1.5447  2.0091 -2.5863
  558MOL0     H73635  -0.291   7.696   2.930 -3.2600  4.1606 -2.3306
  558MOL0     H73636  -0.475   7.556   2.860 -2.5647  1.6536  1.1900
  558MOL0     H73637  -0.546   7.540   3.026  0.3429  1.0662  1.0401
  558MOL0     H73638   0.291   8.272   2.759  1.0100 -2.5144  0.1045
  558MOL0     H73639   0.455   8.462   2.759 -0.5551  0.1927  0.4540
  558MOL0     H73640   0.856   8.591   2.960  2.4309  0.6845 -1.1595
  558MOL0     H73641   1.046   8.733   2.963 -1.3989 -2.3378 -2.7576
  558MOL0     H73642   2.189   9.725   3.324  0.8649  0.9326 -1.4687
  558MOL0     H73643   2.443   9.693   3.387  2.2193  0.5853  0.6281
  558MOL0     H73644   2.897   9.618   3.301 -0.3836 -0.4377  0.4171
  558MOL0     H73645   3.113   9.635   3.302  0.9588  0.4423 -0.7190
  558MOL0     H73646   3.296   9.721   3.246 -0.6716 -0.1069  1.4020
  558MOL0     H73647   3.357   9.648   3.396  0.2975  0.6740  1.6927
  558MOL0     H73648   3.518   9.773   3.211 -0.7543  0.5528 -1.6297
  558MOL0     H73649   3.435   9.913   3.266 -1.6358 -1.4405 -1.9947
  558MOL0     H73650   3.508   9.840   3.516  1.1352 -0.9071  0.0436
  558MOL0     H73651   3.636   9.907   3.408  0.8034  0.3008 -0.2141
  558MOL0     H73652   3.555   9.619   3.445  0.9444 -1.2980 -1.9385
  558MOL0     H73653   3.671   9.663   3.322 -0.9785 -2.1797 -1.0631
  558MOL0     H73654   3.880   9.724   3.697 -1.1869  0.5609  1.1687
  558MOL0     H73655   3.090  10.004   3.537 -3.4171  2.2730  0.0875
  558MOL0     H73656   2.835   9.983   3.522  0.1829 -2.0831  1.6583
  559MOL0     O73657   7.507   2.975  10.005  0.1720  0.7353 -0.1049
  559MOL0     C73658   7.605   3.050  10.026  0.4197  0.1336 -0.0783
  559MOL0     O73659   7.615   3.181  10.001 -0.2155 -0.4829  0.8261
  559MOL0     C73660   7.526   3.249   9.917 -0.7090 -0.2530 -0.2242
  559MOL0     C73661   7.532   3.387   9.921 -0.9367  0.0612  0.4670
  559MOL0     C73662   7.453   3.466   9.839  1.9199  0.3280 -0.2147
  559MOL0     C73663   7.379   3.407   9.734  0.3617  0.3710  1.1014
  559MOL0     O73664   7.320   3.489   9.636  0.0041  0.0106 -0.1053
  559MOL0     C73665   7.338   3.456   9.500  0.5966 -0.6861 -0.5746
  559MOL0     C73666   7.287   3.553   9.403  0.9861 -0.0794 -0.7535
  559MOL0     C73667   7.138   3.553   9.400  0.1880 -0.5664  1.5567
  559MOL0     C73668   7.084   3.658   9.304  0.3210 -0.6032 -0.6220
  559MOL0     C73669   6.938   3.648   9.262  0.4983 -0.0801  0.3923
  559MOL0     C73670   6.841   3.627   9.380 -0.6609 -0.1342  1.2929
  559MOL0     C73671   6.694   3.659   9.347 -0.4779  0.4929 -0.3635
  559MOL0     C73672   6.595   3.639   9.464  0.1513  0.6801 -1.3973
  559MOL0     N73673   6.461   3.631   9.408 -0.5152  1.0683 -0.7251
  559MOL0     C73674   6.373   3.737   9.402  0.3867  0.1341  0.7356
  559MOL0     C73675   6.259   3.678   9.337  0.6296  0.3798 -0.1778
  559MOL0     C73676   6.131   3.739   9.284 -0.1553 -0.6167 -1.0650
  559MOL0     C73677   6.152   3.865   9.192  0.2621  0.0488  0.0272
  559MOL0     C73678   6.018   3.934   9.176 -0.0702 -0.6853 -0.1824
  559MOL0     C73679   5.913   3.840   9.131 -0.4121  0.6756  0.9596
  559MOL0     O73680   5.789   3.920   9.122  0.3682  0.8861 -0.1782
  559MOL0     C73681   5.672   3.851   9.099 -0.2860 -0.7123  0.6544
  559MOL0     C73682   5.553   3.922   9.112  0.7964  0.2569  0.1871
  559MOL0     C73683   5.430   3.862   9.091  0.5886 -0.2022  0.4958
  559MOL0     C73684   5.423   3.726   9.046 -0.2846  0.3796 -0.0390
  559MOL0     C73685   5.291   3.666   9.009 -0.2495 -0.1117  0.1297
  559MOL0     O73686   5.289   3.537   8.969  0.7849 -1.1789 -0.4682
  559MOL0     C73687   5.167   3.493   8.922  0.1662  0.2786 -0.4301
  559MOL0     C73688   5.133   3.511   8.788 -0.3935  0.9113  0.5681
  559MOL0     C73689   5.011   3.459   8.732  0.1392 -0.2816 -0.9102
  559MOL0     C73690   4.922   3.387   8.813  0.1898 -0.6880  0.1093
  559MOL0     O73691   4.807   3.345   8.750  0.2525 -1.1903  0.3485
  559MOL0     C73692   4.713   3.265   8.823 -0.8000  0.0893 -0.8046
  559MOL0     C73693   4.592   3.223   8.736 -0.0539 -0.4704  0.2244
  559MOL0     C73694   4.505   3.348   8.710  0.0296  0.1371 -0.0104
  559MOL0     C73695   4.370   3.301   8.645 -0.2369 -0.2853 -0.0515
  559MOL0     C73696   4.281   3.419   8.609 -0.9430 -0.1058 -0.6873
  559MOL0     C73697   4.347   3.524   8.512  0.0005 -0.4660 -0.5682
  559MOL0     C73698   4.234   3.618   8.455  0.4474 -0.2335 -0.2001
  559MOL0     C73699   4.302   3.739   8.395  0.3922 -0.8610 -0.0951
  559MOL0    Cl73700   4.173   3.866   8.374  0.4565  0.5773 -0.1616
  559MOL0     C73701   4.954   3.374   8.952  0.1975  0.4850  0.0209
  559MOL0     C73702   5.075   3.423   9.004 -0.3864 -0.0076 -0.3098
  559MOL0     O73703   5.198   3.742   9.011 -0.6297 -0.5073  0.4464
  559MOL0     C73704   5.545   3.658   9.029  0.6083  0.1888 -1.0024
  559MOL0     C73705   5.666   3.721   9.051 -0.7413  0.2520  0.7203
  559MOL0     N73706   6.275   3.545   9.322 -0.4975  0.4929  0.4702
  559MOL0     N73707   6.396   3.511   9.362 -0.0591 -0.6317 -0.0748
  559MOL0     C73708   7.378   3.264   9.723  0.9108 -0.4739 -0.2515
  559MOL0     C73709   7.452   3.186   9.815  0.0134  0.3460  0.7270
  559MOL0     C73710   7.725   2.989  10.086  0.2448  0.1194 -0.7982
  559MOL0     C73711   7.716   2.861  10.144  0.0718 -0.7935  0.3205
  559MOL0     C73712   7.823   2.787  10.192 -1.0497 -0.1859 -0.7804
  559MOL0     C73713   7.947   2.857  10.193 -0.0476 -0.9962  0.5837
  559MOL0     O73714   8.057   2.799  10.249 -0.0863 -0.6540  0.3869
  559MOL0     C73715   8.070   2.825  10.387 -0.0761  1.1672 -0.3485
  559MOL0     C73716   8.222   2.820  10.421 -0.2099 -0.3067  0.4100
  559MOL0     C73717   8.253   2.857  10.564  0.1907  0.1262 -0.1986
  559MOL0     C73718   8.201   2.755  10.664 -0.5472 -0.3020 -0.0360
  559MOL0     C73719   8.282   2.741  10.783 -0.7204 -0.7512 -0.3008
  559MOL0     C73720   8.363   2.736  10.872 -0.4297 -0.0134  0.0298
  559MOL0     C73721   7.962   2.988  10.125 -0.6329  0.4759 -0.4654
  559MOL0     C73722   7.853   3.055  10.084  0.5073  0.5248 -0.4635
  559MOL0     H73723   7.620   3.431   9.968 -0.7436  0.6989 -0.4795
  559MOL0     H73724   7.470   3.573   9.836  3.1706  0.1705  0.7122
  559MOL0     H73725   7.275   3.367   9.490 -1.7278  0.5351  1.8471
  559MOL0     H73726   7.444   3.440   9.482  1.6377  1.9127  2.4232
  559MOL0     H73727   7.349   3.531   9.316  4.3778  1.0520  1.1746
  559MOL0     H73728   7.318   3.652   9.440 -1.0613  0.2296  0.3053
  559MOL0     H73729   7.106   3.560   9.504  0.6838 -1.3424  1.7616
  559MOL0     H73730   7.107   3.452   9.373 -1.6020  0.0767  1.0976
  559MOL0     H73731   7.099   3.757   9.347 -1.6098 -0.7167  0.4555
  559MOL0     H73732   7.132   3.641   9.207  1.7466 -5.4101  0.6661
  559MOL0     H73733   6.927   3.565   9.193  1.0421  0.6419 -0.5863
  559MOL0     H73734   6.913   3.740   9.209  2.4799 -0.2001 -0.8368
  559MOL0     H73735   6.867   3.699   9.458  1.1351  3.3120 -2.1172
  559MOL0     H73736   6.854   3.522   9.405  0.2872 -0.5327 -0.6854
  559MOL0     H73737   6.678   3.761   9.310 -0.4288  1.4576  2.0744
  559MOL0     H73738   6.658   3.587   9.274 -0.2292 -1.0447  0.9711
  559MOL0     H73739   6.602   3.720   9.537 -1.2201  0.3244 -0.8306
  559MOL0     H73740   6.622   3.549   9.519  2.3570  2.5153  0.7443
  559MOL0     H73741   6.387   3.839   9.436 -0.8220  0.7807 -0.5835
  559MOL0     H73742   6.091   3.780   9.377  0.1491 -3.0331  0.2161
  559MOL0     H73743   6.059   3.661   9.259 -2.1324  0.9612 -0.5049
  559MOL0     H73744   6.195   3.831   9.097 -1.3273 -3.7031  0.4451
  559MOL0     H73745   6.230   3.932   9.228 -0.2610  0.0457  1.1966
  559MOL0     H73746   5.989   3.978   9.272 -2.8287  1.8321 -1.9664
  559MOL0     H73747   6.021   4.015   9.103 -1.2351 -1.1295 -0.7460
  559MOL0     H73748   5.900   3.752   9.195 -2.2117  0.0548 -0.1747
  559MOL0     H73749   5.952   3.811   9.034  0.4660  0.1139  1.4740
  559MOL0     H73750   5.551   4.024   9.147  0.4909  0.6541 -0.9634
  559MOL0     H73751   5.343   3.925   9.102  1.8174  1.7621 -0.5390
  559MOL0     H73752   5.196   3.567   8.720  0.3590  1.1044  1.4021
  559MOL0     H73753   4.977   3.471   8.629  0.4219  1.9818 -0.7964
  559MOL0     H73754   4.687   3.324   8.911 -1.3458  1.4445 -1.8237
  559MOL0     H73755   4.752   3.171   8.863  4.8354  2.8509  1.2278
  559MOL0     H73756   4.531   3.148   8.786  1.4921 -1.2327  1.0403
  559MOL0     H73757   4.623   3.174   8.643 -0.1591 -1.2497  0.5935
  559MOL0     H73758   4.549   3.421   8.642 -0.9294  3.0011  2.2118
  559MOL0     H73759   4.485   3.405   8.802 -2.7992 -1.1061  0.2543
  559MOL0     H73760   4.397   3.245   8.555 -0.1219 -2.6289  1.3425
  559MOL0     H73761   4.316   3.238   8.716  2.4299 -2.5867  0.0982
  559MOL0     H73762   4.256   3.483   8.693  0.1404 -0.2344 -0.2523
  559MOL0     H73763   4.187   3.386   8.563 -0.6813 -1.2364 -0.4610
  559MOL0     H73764   4.389   3.464   8.430  0.5928  0.3877 -0.9026
  559MOL0     H73765   4.427   3.581   8.559  0.9828 -1.8409 -0.5073
  559MOL0     H73766   4.185   3.563   8.374 -1.0477 -0.7824  1.0495
  559MOL0     H73767   4.166   3.641   8.537 -0.7144 -0.5664 -1.0381
  559MOL0     H73768   4.349   3.703   8.303  0.9525 -2.1523  0.6581
  559MOL0     H73769   4.374   3.786   8.462 -0.6004  4.4762 -2.2684
  559MOL0     H73770   4.883   3.319   9.013  0.5761 -0.9422 -0.7729
  559MOL0     H73771   5.106   3.409   9.107 -0.5739  1.0467 -0.0981
  559MOL0     H73772   5.547   3.556   8.990  0.9927  1.0315 -3.3359
  559MOL0     H73773   5.752   3.655   9.042  0.1224  1.2740  1.2001
  559MOL0     H73774   7.325   3.212   9.644 -3.5506  2.3943  0.4284
  559MOL0     H73775   7.433   3.083   9.790 -4.2908  0.7171  1.7344
  559MOL0     H73776   7.620   2.813  10.163  0.6590 -2.1060  0.0705
  559MOL0     H73777   7.816   2.688  10.235 -1.0686  0.7842  1.6000
  559MOL0     H73778   8.005   2.761  10.447  1.0311 -0.1236 -0.4747
  559MOL0     H73779   8.021   2.921  10.399 -2.4306 -0.0524  0.3114
  559MOL0     H73780   8.265   2.723  10.397  0.5055 -0.3407  1.7455
  559MOL0     H73781   8.276   2.884  10.351 -0.1150 -0.9970 -0.1487
  559MOL0     H73782   8.224   2.961  10.575  0.9313  0.7015 -3.0101
  559MOL0     H73783   8.362   2.846  10.571  0.3066 -0.2418 -2.1561
  559MOL0     H73784   8.097   2.775  10.689 -1.0519  0.0307 -2.1740
  559MOL0     H73785   8.209   2.655  10.622  3.2061 -0.8248  1.5244
  559MOL0     H73786   8.428   2.734  10.956  1.6993  2.0095 -1.4376
  559MOL0     H73787   8.060   3.034  10.117  0.8803 -1.6840  3.1581
  559MOL0     H73788   7.867   3.154  10.042 -1.6299  1.0238 -0.1674
  560MOL0     O73789   2.562   9.592   5.526  0.3003 -0.4780  0.3973
  560MOL0     C73790   2.616   9.631   5.624 -0.6370  0.4505 -0.3329
  560MOL0     O73791   2.566   9.622   5.747  0.1247 -0.0426 -0.1920
  560MOL0     C73792   2.449   9.567   5.782  0.8002 -0.3811  1.0797
  560MOL0     C73793   2.424   9.433   5.754 -0.1852  1.1276 -0.8049
  560MOL0     C73794   2.310   9.366   5.808 -0.3733 -0.0279  0.5539
  560MOL0     C73795   2.226   9.436   5.897 -0.9257  0.3128  0.6501
  560MOL0     O73796   2.118   9.370   5.952 -0.1433  0.4828  0.6075
  560MOL0     C73797   1.987   9.414   5.919 -0.1702 -0.4115 -0.5813
  560MOL0     C73798   1.904   9.427   6.048 -0.5408  0.8423  0.0443
  560MOL0     C73799   1.757   9.438   6.021 -0.2206  0.1994  0.5122
  560MOL0     C73800   1.673   9.469   6.138 -0.4034  0.5201 -0.4070
  560MOL0     C73801   1.537   9.419   6.115 -0.1748  0.6901 -0.0256
  560MOL0     C73802   1.423   9.477   6.198 -0.0892  0.8029  0.6904
  560MOL0     C73803   1.277   9.427   6.153  0.3495 -0.2757 -0.2286
  560MOL0     C73804   1.236   9.469   6.007 -0.2436 -0.0352  0.4822
  560MOL0     N73805   1.100   9.515   6.004 -0.1937 -0.7911  0.8129
  560MOL0     C73806   0.999   9.469   6.081 -0.3465  0.7698  0.1957
  560MOL0     C73807   0.894   9.555   6.062 -0.2803 -0.0111 -0.7670
  560MOL0     C73808   0.749   9.538   6.123  0.1976 -0.0526  0.6163
  560MOL0     C73809   0.673   9.466   6.012  0.3239  0.0866  0.1137
  560MOL0     C73810   0.532   9.442   6.054 -0.5692  0.0869 -0.1166
  560MOL0     C73811   0.454   9.409   5.926 -0.2810  0.6483 -0.5234
  560MOL0     O73812   0.465   9.270   5.892 -0.1522 -0.2266 -0.0732
  560MOL0     C73813   0.390   9.215   5.789 -0.4905 -0.0289  0.1797
  560MOL0     C73814   0.408   9.080   5.776  0.2016 -0.2015  0.0709
  560MOL0     C73815   0.335   9.008   5.673  0.8399 -0.1837 -0.2323
  560MOL0     C73816   0.254   9.081   5.590 -0.4937  0.6669  0.5409
  560MOL0     C73817   0.182   9.011   5.469  0.5167  0.6932 -0.2573
  560MOL0     O73818   0.144   9.089   5.368  0.2544  0.1251 -0.5676
  560MOL0     C73819   0.072   9.039   5.265 -0.1210 -0.7932  0.0068
  560MOL0     C73820   0.117   8.940   5.174  0.3731  0.2730 -0.2656
  560MOL0     C73821   0.040   8.909   5.058 -1.0306  0.7886 -1.1295
  560MOL0     C73822  -0.080   8.978   5.042  1.1464 -0.1722  0.2773
  560MOL0     O73823  -0.152   8.961   4.927 -0.3310 -0.2102 -0.2601
  560MOL0     C73824  -0.093   9.024   4.814 -0.4792 -0.1277  0.6768
  560MOL0     C73825  -0.105   9.175   4.812 -0.6299  0.5495 -0.9753
  560MOL0     C73826  -0.248   9.225   4.810 -0.2325 -0.2977 -0.2010
  560MOL0     C73827  -0.258   9.373   4.831  0.0204 -0.8282 -0.2597
  560MOL0     C73828  -0.408   9.411   4.817  1.2770  1.0219 -0.0366
  560MOL0     C73829  -0.415   9.567   4.816  1.2518 -0.6179  0.1261
  560MOL0     C73830  -0.559   9.610   4.794 -0.4571  0.2050 -1.1857
  560MOL0     C73831  -0.571   9.749   4.857  0.7372  0.3736  1.1596
  560MOL0    Cl73832  -0.470   9.860   4.752  0.4367 -0.2077 -0.1052
  560MOL0     C73833  -0.141   9.067   5.134 -0.9775 -0.0086  0.7495
  560MOL0     C73834  -0.059   9.096   5.241  0.0260  0.2945  0.8216
  560MOL0     O73835   0.181   8.890   5.470 -0.1656  0.1274  0.3716
  560MOL0     C73836   0.246   9.218   5.607  0.8476  0.4198 -0.4074
  560MOL0     C73837   0.295   9.289   5.724  0.1551  0.2228  0.1657
  560MOL0     N73838   0.938   9.657   5.980  0.5668  1.1326 -0.2017
  560MOL0     N73839   1.058   9.632   5.942  1.0608  0.0553 -0.6389
  560MOL0     C73840   2.244   9.579   5.918  0.3076 -0.2042 -0.6866
  560MOL0     C73841   2.356   9.635   5.852 -0.0994 -0.5721 -0.2174
  560MOL0     C73842   2.740   9.700   5.616 -0.3728  0.0658 -0.6846
  560MOL0     C73843   2.830   9.672   5.517 -0.0648 -1.1937  0.2364
  560MOL0     C73844   2.948   9.752   5.500 -1.0086  0.4000  0.1917
  560MOL0     C73845   2.979   9.860   5.589  0.2750  0.1918 -0.5100
  560MOL0     O73846   3.098   9.940   5.572 -0.2446 -0.5636  0.0774
  560MOL0     C73847   3.217   9.869   5.522 -0.1825 -0.4632 -0.7117
  560MOL0     C73848   3.345   9.948   5.543  0.0624  0.0143 -0.3300
  560MOL0     C73849   3.432   9.891   5.659 -0.7713  0.2504 -0.1718
  560MOL0     C73850   3.576   9.954   5.669  0.0262  0.0095 -0.9617
  560MOL0     C73851   3.584  10.098   5.684 -0.3478 -0.0095  0.1958
  560MOL0     C73852   3.590  10.216   5.690 -1.0243  0.0579  0.2999
  560MOL0     C73853   2.891   9.881   5.693  0.0662  1.2415  0.8579
  560MOL0     C73854   2.777   9.794   5.714 -0.3110 -0.4022  0.9257
  560MOL0     H73855   2.499   9.377   5.699  0.3391 -0.0742  1.0260
  560MOL0     H73856   2.304   9.265   5.767 -0.7316 -0.1304  0.8514
  560MOL0     H73857   1.933   9.340   5.859 -2.1614  0.7374 -0.3010
  560MOL0     H73858   1.991   9.501   5.853  0.8073  0.5021  0.6273
  560MOL0     H73859   1.942   9.513   6.104  1.2095  0.6664 -0.8280
  560MOL0     H73860   1.918   9.329   6.095 -1.1434  0.0270 -1.4150
  560MOL0     H73861   1.719   9.340   5.990 -4.0621  0.8757  2.4965
  560MOL0     H73862   1.738   9.520   5.951  1.5758  0.4183  0.2235
  560MOL0     H73863   1.715   9.409   6.219  2.8990 -3.7409 -4.6986
  560MOL0     H73864   1.666   9.576   6.162 -1.2931  0.6508 -1.1931
  560MOL0     H73865   1.535   9.310   6.125 -3.7932  0.4818 -1.4508
  560MOL0     H73866   1.512   9.447   6.012  1.5161  1.7198 -0.2085
  560MOL0     H73867   1.419   9.587   6.199  2.3971  0.9719  0.0881
  560MOL0     H73868   1.445   9.441   6.299  0.5920  2.7584  1.2862
  560MOL0     H73869   1.267   9.318   6.151  0.8182 -0.4187  2.5005
  560MOL0     H73870   1.202   9.462   6.225  2.2106  0.5638  1.3752
  560MOL0     H73871   1.247   9.389   5.934 -1.2491  0.7925 -0.6249
  560MOL0     H73872   1.304   9.550   5.979  0.3199 -1.1583 -1.5897
  560MOL0     H73873   1.004   9.393   6.158 -0.9839  1.6952  1.1795
  560MOL0     H73874   0.695   9.630   6.148 -1.6348  0.0758 -3.1225
  560MOL0     H73875   0.757   9.473   6.210  0.2570  0.5004  1.0262
  560MOL0     H73876   0.725   9.374   5.985 -0.7657 -0.4012 -0.3972
  560MOL0     H73877   0.687   9.535   5.928  3.2638 -1.8206 -1.1367
  560MOL0     H73878   0.533   9.359   6.125 -3.0746 -1.6096 -1.8499
  560MOL0     H73879   0.490   9.532   6.100  1.9891  1.0915  0.4187
  560MOL0     H73880   0.488   9.469   5.840  0.7381 -0.5106 -0.9513
  560MOL0     H73881   0.347   9.425   5.943 -0.0776 -0.5716  2.3743
  560MOL0     H73882   0.476   9.042   5.851  1.0839  3.8346  1.5281
  560MOL0     H73883   0.344   8.900   5.670  4.0295  0.0083 -0.2683
  560MOL0     H73884   0.205   8.884   5.203  0.0343 -1.9824 -3.1690
  560MOL0     H73885   0.078   8.826   4.999 -0.5093  0.5451 -0.4671
  560MOL0     H73886  -0.143   8.983   4.726  1.4475 -0.1236 -0.4516
  560MOL0     H73887   0.010   8.989   4.807  0.2042  1.9226 -0.4275
  560MOL0     H73888  -0.059   9.212   4.720  2.4906  1.3441  0.7432
  560MOL0     H73889  -0.052   9.210   4.901  0.7560 -0.8090 -1.2322
  560MOL0     H73890  -0.312   9.177   4.885 -0.0018 -1.7412 -0.8924
  560MOL0     H73891  -0.276   9.185   4.712  1.5249  1.2172 -1.3827
  560MOL0     H73892  -0.220   9.397   4.931 -2.1381  1.0428  0.2014
  560MOL0     H73893  -0.198   9.425   4.757  0.3606 -0.3433  0.3467
  560MOL0     H73894  -0.465   9.386   4.906  0.0848  1.3783 -0.6710
  560MOL0     H73895  -0.457   9.370   4.728  2.7426 -0.8944 -0.0166
  560MOL0     H73896  -0.361   9.603   4.728 -1.4548 -1.9359 -2.2195
  560MOL0     H73897  -0.371   9.608   4.908 -1.8126  0.1099  1.4114
  560MOL0     H73898  -0.599   9.617   4.692 -1.2819  4.0182 -0.7587
  560MOL0     H73899  -0.632   9.541   4.836  0.3609 -1.3518 -2.2235
  560MOL0     H73900  -0.549   9.764   4.964 -0.8962  0.3244  1.5343
  560MOL0     H73901  -0.672   9.791   4.845  0.1048 -1.7289 -1.9901
  560MOL0     H73902  -0.241   9.105   5.119 -0.0357  2.8224  1.1486
  560MOL0     H73903  -0.095   9.170   5.312  2.8565 -0.9021  3.7305
  560MOL0     H73904   0.181   9.273   5.539  1.9556  2.0118 -0.2370
  560MOL0     H73905   0.269   9.390   5.751  0.7449  0.7506 -1.1483
  560MOL0     H73906   2.178   9.633   5.986 -1.2335 -1.2971 -1.2449
  560MOL0     H73907   2.374   9.739   5.875  1.2684 -0.8486  0.0432
  560MOL0     H73908   2.806   9.594   5.444 -4.0593 -1.0447  1.1530
  560MOL0     H73909   3.013   9.740   5.414  1.5172 -3.7832  2.3442
  560MOL0     H73910   3.187   9.874   5.417  2.8060 -1.4410 -1.7236
  560MOL0     H73911   3.233   9.765   5.550  3.9010  0.0241 -0.5190
  560MOL0     H73912   3.401   9.945   5.450  1.6392 -0.7513  0.6151
  560MOL0     H73913   3.321  10.051   5.572 -2.1550  0.1332 -2.3055
  560MOL0     H73914   3.436   9.782   5.654  0.2407  0.1772  1.5119
  560MOL0     H73915   3.376   9.903   5.752 -1.3951  2.1822 -0.7655
  560MOL0     H73916   3.612   9.913   5.764 -1.3574  2.2653  0.6498
  560MOL0     H73917   3.636   9.930   5.581  0.4701 -1.7528 -0.2214
  560MOL0     H73918   3.578  10.319   5.716 -6.1342 -0.5199  1.3929
  560MOL0     H73919   2.930   9.948   5.768  2.9531  0.5753  0.0908
  560MOL0     H73920   2.707   9.832   5.788 -0.7938  0.8380 -0.1197
  561MOL0     O73921   7.107   7.020   6.281  0.4292  0.0407 -0.2296
  561MOL0     C73922   7.181   6.969   6.369 -0.0613  0.0122  0.1224
  561MOL0     O73923   7.157   6.960   6.506 -0.3281  0.2080  0.1760
  561MOL0     C73924   7.064   7.032   6.567  0.1404 -0.2555  0.7000
  561MOL0     C73925   6.982   6.967   6.657 -0.5755  0.3148  0.1236
  561MOL0     C73926   6.871   7.029   6.712  0.1801  0.7212 -0.3521
  561MOL0     C73927   6.856   7.176   6.700  0.6719 -0.5964 -0.4350
  561MOL0     O73928   6.743   7.242   6.757 -0.5057  0.9104  0.0480
  561MOL0     C73929   6.615   7.173   6.731 -0.3117 -0.1755  0.5455
  561MOL0     C73930   6.492   7.256   6.774  0.7421  0.5241 -1.0951
  561MOL0     C73931   6.379   7.166   6.755  0.4887 -0.7896 -0.2829
  561MOL0     C73932   6.247   7.237   6.785  0.1511  0.1214  0.4535
  561MOL0     C73933   6.125   7.140   6.772 -0.9054  0.9689 -0.7504
  561MOL0     C73934   5.999   7.211   6.799  1.1515 -0.3604 -1.4395
  561MOL0     C73935   5.876   7.130   6.754 -0.0677  0.6917  0.0081
  561MOL0     C73936   5.753   7.215   6.791 -0.4203  0.6338  0.7638
  561MOL0     N73937   5.623   7.148   6.766  0.3724  0.0694 -0.6247
  561MOL0     C73938   5.501   7.183   6.815 -0.0442 -0.1373  0.1407
  561MOL0     C73939   5.406   7.102   6.755 -0.0350 -0.9079 -0.1494
  561MOL0     C73940   5.256   7.127   6.740 -0.4860  0.3451  0.3595
  561MOL0     C73941   5.228   7.209   6.611  0.0843  0.5541  0.4398
  561MOL0     C73942   5.079   7.220   6.591 -0.3905  0.7145 -0.2856
  561MOL0     C73943   5.009   7.101   6.539 -0.7014 -0.2302  0.2032
  561MOL0     O73944   4.877   7.123   6.492  0.3498  0.0626  0.2390
  561MOL0     C73945   4.779   7.128   6.584  0.2216 -0.0233  0.1466
  561MOL0     C73946   4.656   7.177   6.542  0.4258  0.0918  0.4110
  561MOL0     C73947   4.551   7.191   6.628  0.6132 -0.1231  0.4732
  561MOL0     C73948   4.560   7.130   6.756 -0.8176  0.1195  0.2508
  561MOL0     C73949   4.452   7.123   6.847  0.6509 -0.2796 -0.4964
  561MOL0     O73950   4.471   7.054   6.965 -0.5122  0.9581 -0.6168
  561MOL0     C73951   4.376   6.981   7.022  0.2546 -0.5886  0.0280
  561MOL0     C73952   4.421   6.924   7.146  0.5673  1.0049 -1.5006
  561MOL0     C73953   4.328   6.852   7.226 -0.4345 -0.0494  0.4655
  561MOL0     C73954   4.197   6.838   7.174  0.3296  0.2328  0.4188
  561MOL0     O73955   4.104   6.770   7.249  0.4994 -0.1090 -0.4045
  561MOL0     C73956   3.967   6.805   7.230  1.6020  0.0944 -0.0062
  561MOL0     C73957   3.888   6.729   7.338 -0.4440 -0.9439 -0.5870
  561MOL0     C73958   3.737   6.726   7.311  0.1025 -0.3315  0.7336
  561MOL0     C73959   3.657   6.860   7.305 -0.2535  0.3074  0.0353
  561MOL0     C73960   3.514   6.818   7.281 -0.4731  0.3947  0.7103
  561MOL0     C73961   3.483   6.778   7.143  0.6688  0.5440  1.5600
  561MOL0     C73962   3.350   6.842   7.095 -0.0411 -0.4326  0.0231
  561MOL0     C73963   3.232   6.805   7.194 -0.2628  0.1127  0.5008
  561MOL0    Cl73964   3.073   6.861   7.125 -0.2552 -0.1659 -0.2261
  561MOL0     C73965   4.156   6.885   7.044  0.6893 -0.5150  0.8457
  561MOL0     C73966   4.253   6.949   6.967  0.2969  0.0783  0.6283
  561MOL0     O73967   4.344   7.177   6.816  0.1971  0.0204 -0.0146
  561MOL0     C73968   4.683   7.080   6.795  0.7914 -0.8801 -0.5181
  561MOL0     C73969   4.792   7.080   6.720 -1.0945  0.4193  0.7695
  561MOL0     N73970   5.478   7.004   6.690  0.5415  0.7566  0.7962
  561MOL0     N73971   5.602   7.034   6.688  0.1098  0.1559 -0.3804
  561MOL0     C73972   6.934   7.238   6.606 -0.3031  0.6634  0.0594
  561MOL0     C73973   7.033   7.163   6.530  0.6261  0.4445 -0.2838
  561MOL0     C73974   7.303   6.904   6.323  0.0032  0.8660  0.2641
  561MOL0     C73975   7.344   6.918   6.186 -0.2260 -0.4412  0.0168
  561MOL0     C73976   7.456   6.849   6.132 -0.6684 -0.2560 -0.1500
  561MOL0     C73977   7.539   6.775   6.213 -0.2126 -0.1806 -1.1042
  561MOL0     O73978   7.651   6.714   6.149  0.3890  0.0153  0.4373
  561MOL0     C73979   7.766   6.790   6.155  0.3832 -0.0093  0.1473
  561MOL0     C73980   7.888   6.711   6.125  0.1646  0.2779  0.1997
  561MOL0     C73981   8.007   6.806   6.143  0.7072 -0.0385 -0.0981
  561MOL0     C73982   8.131   6.716   6.125 -0.8287 -0.1879  1.0538
  561MOL0     C73983   8.251   6.798   6.148  0.0499  0.0588 -0.2471
  561MOL0     C73984   8.342   6.879   6.149  0.2502 -0.3311 -0.1409
  561MOL0     C73985   7.503   6.766   6.348 -0.1516  0.1747 -0.5540
  561MOL0     C73986   7.386   6.824   6.403 -0.6066  0.3710 -0.2107
  561MOL0     H73987   7.026   6.871   6.684 -3.4413 -1.4853 -1.1474
  561MOL0     H73988   6.806   6.956   6.759  0.8000 -0.0784 -0.6991
  561MOL0     H73989   6.611   7.073   6.775  0.9589 -1.5710 -2.2688
  561MOL0     H73990   6.598   7.162   6.624 -3.5420  0.5327  0.8884
  561MOL0     H73991   6.483   7.342   6.707  4.2713  0.5637 -1.7031
  561MOL0     H73992   6.508   7.275   6.880  0.8539  1.3316 -1.2503
  561MOL0     H73993   6.386   7.079   6.821 -1.4601 -1.6137 -1.0763
  561MOL0     H73994   6.382   7.127   6.653  1.5566 -2.0918  0.2218
  561MOL0     H73995   6.252   7.280   6.885  0.8834  2.4921 -0.5362
  561MOL0     H73996   6.227   7.320   6.717  0.8832  1.7591  2.1397
  561MOL0     H73997   6.138   7.047   6.829  0.1694  0.2893 -2.0438
  561MOL0     H73998   6.126   7.096   6.672  3.8364  0.1630 -0.6055
  561MOL0     H73999   5.994   7.296   6.730  0.0405 -0.7153 -1.8212
  561MOL0     H74000   5.990   7.232   6.906  3.6530 -2.1079 -0.7911
  561MOL0     H74001   5.878   7.094   6.650  1.6108 -0.0425  0.2679
  561MOL0     H74002   5.861   7.040   6.814  2.3572 -2.3295 -3.4503
  561MOL0     H74003   5.753   7.309   6.735 -1.3182 -0.1585 -0.6223
  561MOL0     H74004   5.756   7.244   6.896 -0.2934 -3.4293  2.0190
  561MOL0     H74005   5.476   7.279   6.859  0.6595  0.3618 -0.5361
  561MOL0     H74006   5.209   7.178   6.825 -2.5353  0.2590 -0.6488
  561MOL0     H74007   5.207   7.030   6.730 -1.3840  0.6109  1.8750
  561MOL0     H74008   5.277   7.163   6.524 -3.2640 -0.9793 -0.7865
  561MOL0     H74009   5.275   7.308   6.616  0.1250  0.4983  1.2945
  561MOL0     H74010   5.035   7.244   6.688  1.5996 -2.3164  1.5032
  561MOL0     H74011   5.068   7.308   6.526  1.1845 -0.0864 -1.7225
  561MOL0     H74012   5.018   7.014   6.605  0.8647 -0.2094  0.0721
  561MOL0     H74013   5.071   7.074   6.453  0.4935 -1.1510  1.3179
  561MOL0     H74014   4.663   7.218   6.442  1.7605 -4.2355 -1.5091
  561MOL0     H74015   4.468   7.244   6.582  1.4820  0.5147 -0.3933
  561MOL0     H74016   4.526   6.936   7.170  0.1835  1.0592  0.2634
  561MOL0     H74017   4.368   6.809   7.318  0.4923  2.1280  1.1378
  561MOL0     H74018   3.928   6.768   7.135  1.6011  1.2487 -0.4666
  561MOL0     H74019   3.940   6.910   7.238 -0.1760 -0.3020 -0.3061
  561MOL0     H74020   3.906   6.777   7.434  1.5818 -4.8549  1.2325
  561MOL0     H74021   3.923   6.628   7.362 -0.4764 -0.6140  0.9516
  561MOL0     H74022   3.697   6.649   7.377 -0.3008 -1.0544 -0.3250
  561MOL0     H74023   3.728   6.671   7.217 -0.7545  0.2119  0.4862
  561MOL0     H74024   3.648   6.903   7.406  1.5383  2.0585 -0.4799
  561MOL0     H74025   3.696   6.933   7.233 -0.5052  1.6844  1.2410
  561MOL0     H74026   3.455   6.910   7.295 -0.1133  0.3758  2.5097
  561MOL0     H74027   3.475   6.745   7.352 -0.0428  1.1310  1.7172
  561MOL0     H74028   3.476   6.669   7.138  2.0295  0.4655  0.8395
  561MOL0     H74029   3.565   6.800   7.074  0.1278 -2.1602 -0.0807
  561MOL0     H74030   3.367   6.950   7.092  0.8246 -0.5287  1.0755
  561MOL0     H74031   3.329   6.808   6.993 -0.4052  0.3243 -0.1643
  561MOL0     H74032   3.233   6.874   7.279 -2.5724 -0.5001  1.1030
  561MOL0     H74033   3.244   6.701   7.225  0.2962 -0.3801 -1.2739
  561MOL0     H74034   4.053   6.890   7.012  0.5732  1.6246  1.4116
  561MOL0     H74035   4.229   6.984   6.867  0.4733  0.6885  0.7921
  561MOL0     H74036   4.693   7.049   6.899  2.0096  1.6406  0.1897
  561MOL0     H74037   4.883   7.047   6.770 -1.7970  0.8554  2.4094
  561MOL0     H74038   6.924   7.343   6.582  0.8141  0.1462 -3.0860
  561MOL0     H74039   7.092   7.211   6.453  0.5443  0.7660 -0.1486
  561MOL0     H74040   7.280   6.985   6.128  4.3094  2.1490 -2.5305
  561MOL0     H74041   7.482   6.862   6.027 -0.6296 -0.3875 -0.1571
  561MOL0     H74042   7.772   6.836   6.254 -2.7613  1.1176 -0.0845
  561MOL0     H74043   7.756   6.869   6.080 -1.8390  0.1642  0.5672
  561MOL0     H74044   7.902   6.623   6.189  0.1098 -0.1941 -0.4257
  561MOL0     H74045   7.893   6.671   6.023  2.2491  0.4903  0.1878
  561MOL0     H74046   8.003   6.856   6.240 -0.5372 -0.5464  0.1356
  561MOL0     H74047   8.019   6.893   6.078  1.8151  0.2566  0.4734
  561MOL0     H74048   8.129   6.638   6.201  3.3800  0.4610  2.0719
  561MOL0     H74049   8.137   6.678   6.023 -0.3699 -1.5427  1.5649
  561MOL0     H74050   8.427   6.944   6.140  0.0320 -0.2512 -2.0173
  561MOL0     H74051   7.568   6.701   6.405 -0.6356 -3.0503 -3.3671
  561MOL0     H74052   7.365   6.820   6.509 -2.5134 -1.0404 -0.6007
  562MOL0     O74053   2.087   3.234   9.444 -0.3957 -0.6277  0.2747
  562MOL0     C74054   2.122   3.233   9.319 -0.0607 -1.2016 -0.1831
  562MOL0     O74055   2.036   3.255   9.210 -0.0186  0.5861  0.0569
  562MOL0     C74056   1.909   3.292   9.237 -0.9284  0.8393  0.1564
  562MOL0     C74057   1.858   3.409   9.192  0.3291  0.3552  0.7216
  562MOL0     C74058   1.726   3.454   9.215 -0.1851  0.3708 -1.1128
  562MOL0     C74059   1.640   3.375   9.287  0.0315 -0.1856  0.2953
  562MOL0     O74060   1.514   3.420   9.329 -0.9152  0.0701 -0.4879
  562MOL0     C74061   1.412   3.404   9.231 -0.2834  0.5498  0.1315
  562MOL0     C74062   1.310   3.289   9.250  0.2671  0.2794  0.5124
  562MOL0     C74063   1.192   3.326   9.334  0.3285  0.4442 -0.6706
  562MOL0     C74064   1.110   3.194   9.375 -0.0233  0.4387 -0.1539
  562MOL0     C74065   0.957   3.216   9.360 -0.0258  0.0049 -0.9895
  562MOL0     C74066   0.881   3.087   9.364 -0.2466  0.5824 -1.1336
  562MOL0     C74067   0.733   3.099   9.320  0.4175 -0.1574  0.2443
  562MOL0     C74068   0.655   2.970   9.321 -0.2915 -0.2370  0.2593
  562MOL0     N74069   0.517   2.991   9.291 -0.1510 -0.2393  0.0910
  562MOL0     C74070   0.404   2.958   9.365 -0.4491 -0.3753 -0.0275
  562MOL0     C74071   0.300   2.995   9.289 -0.0292  0.4542  0.9749
  562MOL0     C74072   0.150   2.993   9.324 -0.4311 -0.1043 -0.6458
  562MOL0     C74073   0.067   3.034   9.204  0.2120 -1.0726  0.2075
  562MOL0     C74074   0.066   2.941   9.085  0.8658 -0.4696  1.2192
  562MOL0     C74075  -0.076   2.863   9.092 -0.8062 -0.4267  0.4719
  562MOL0     O74076  -0.177   2.956   9.063  0.3805 -0.2403  0.0199
  562MOL0     C74077  -0.314   2.911   9.065 -0.2994  0.6859 -0.4421
  562MOL0     C74078  -0.346   2.776   9.097 -0.1604  0.1485  0.6571
  562MOL0     C74079  -0.481   2.742   9.089  0.2995  0.2939 -0.7052
  562MOL0     C74080  -0.576   2.837   9.058 -0.2518  0.6333  0.3756
  562MOL0     C74081  -0.715   2.796   9.045  0.4282 -0.4894 -0.0252
  562MOL0     O74082  -0.743   2.659   9.043  0.9136 -0.0938  0.2941
  562MOL0     C74083  -0.871   2.612   9.055  0.8985  1.2053 -0.1802
  562MOL0     C74084  -0.897   2.489   8.988 -0.1396 -0.3310 -0.2253
  562MOL0     C74085  -1.024   2.434   9.006 -0.3726  0.1690  0.6203
  562MOL0     C74086  -1.132   2.500   9.065  1.0391  0.1078  0.1924
  562MOL0     O74087  -1.256   2.445   9.078 -0.0827 -0.3925 -0.2978
  562MOL0     C74088  -1.273   2.304   9.037 -0.0990 -0.1370  0.1834
  562MOL0     C74089  -1.420   2.264   9.074 -0.1802  0.3476  0.8183
  562MOL0     C74090  -1.527   2.366   9.055  0.6728 -0.4751  0.0143
  562MOL0     C74091  -1.560   2.394   8.906  0.2961 -0.8949 -0.3424
  562MOL0     C74092  -1.676   2.501   8.890 -0.0627 -0.3959 -0.6284
  562MOL0     C74093  -1.762   2.450   8.777 -0.0852  0.0340  0.4661
  562MOL0     C74094  -1.869   2.543   8.730  0.4049 -0.1814  0.3044
  562MOL0     C74095  -1.799   2.652   8.636  0.4611  0.2033  0.3613
  562MOL0    Cl74096  -1.943   2.760   8.578 -0.1324 -0.2807 -0.0836
  562MOL0     C74097  -1.120   2.627   9.110  0.3889 -0.6569  0.0666
  562MOL0     C74098  -0.988   2.678   9.114 -0.8209  0.2454  0.5826
  562MOL0     O74099  -0.793   2.885   9.011 -0.2045  1.0322  0.7057
  562MOL0     C74100  -0.538   2.964   9.032  0.5366 -0.0465 -0.2233
  562MOL0     C74101  -0.408   3.007   9.030  0.0821 -0.0514 -0.7193
  562MOL0     N74102   0.354   3.049   9.171  0.2762  0.7802  0.1640
  562MOL0     N74103   0.476   3.051   9.180 -0.6137 -0.1847 -0.3498
  562MOL0     C74104   1.695   3.255   9.337  0.1675 -0.2480 -0.0574
  562MOL0     C74105   1.829   3.213   9.313  0.3102 -0.2728 -0.3364
  562MOL0     C74106   2.258   3.198   9.296 -1.3326 -0.9659 -0.0754
  562MOL0     C74107   2.305   3.182   9.166 -0.5190  0.7459  0.2135
  562MOL0     C74108   2.441   3.161   9.135 -0.3807  0.4251  0.1745
  562MOL0     C74109   2.533   3.144   9.244  0.4240 -0.0344  0.7620
  562MOL0     O74110   2.660   3.097   9.217  0.1378  0.3710  0.2726
  562MOL0     C74111   2.736   3.171   9.117  0.0113  0.3987  0.2866
  562MOL0     C74112   2.887   3.173   9.171 -0.4526  0.6046 -0.5109
  562MOL0     C74113   2.919   3.283   9.268 -1.1608  0.2448  0.2097
  562MOL0     C74114   2.856   3.278   9.406 -0.4334 -0.4483 -0.0146
  562MOL0     C74115   2.905   3.162   9.480 -0.1710  0.5112  0.6522
  562MOL0     C74116   2.960   3.070   9.534  0.4775  0.7672 -0.1388
  562MOL0     C74117   2.484   3.158   9.368 -0.5298  0.4084  0.4312
  562MOL0     C74118   2.350   3.184   9.393 -0.7432  0.2134 -0.4601
  562MOL0     H74119   1.930   3.473   9.141 -2.8848  1.8575 -2.3341
  562MOL0     H74120   1.681   3.544   9.175 -2.8510 -1.5671 -2.8691
  562MOL0     H74121   1.461   3.399   9.133 -0.0515  3.3637  0.0114
  562MOL0     H74122   1.356   3.498   9.227 -4.1937 -1.5545  0.2150
  562MOL0     H74123   1.368   3.211   9.300  2.3354  1.6600  0.4136
  562MOL0     H74124   1.277   3.264   9.149  3.1285 -2.1501  0.0352
  562MOL0     H74125   1.131   3.389   9.268  0.6861 -0.4828 -1.9201
  562MOL0     H74126   1.225   3.378   9.425  0.7856 -2.4858  0.9434
  562MOL0     H74127   1.144   3.116   9.306  3.1607  2.5698 -1.2192
  562MOL0     H74128   1.133   3.145   9.470 -1.3692 -5.7772 -2.5644
  562MOL0     H74129   0.944   3.254   9.259 -3.1391 -1.3514 -1.2177
  562MOL0     H74130   0.911   3.287   9.430 -1.2222 -3.5826  2.2557
  562MOL0     H74131   0.887   3.045   9.465  4.9689  0.8950 -1.0443
  562MOL0     H74132   0.939   3.020   9.299 -1.7401  0.0312 -1.9296
  562MOL0     H74133   0.685   3.165   9.392  0.5757  0.1890  0.0335
  562MOL0     H74134   0.729   3.155   9.225  0.1378 -2.2682 -1.0613
  562MOL0     H74135   0.663   2.930   9.423  2.7180 -1.1705 -0.2597
  562MOL0     H74136   0.704   2.903   9.251  3.1871  0.4949  1.7941
  562MOL0     H74137   0.400   2.910   9.462 -0.9635  1.8863  1.1605
  562MOL0     H74138   0.120   3.059   9.405 -0.0992  0.9318 -1.3423
  562MOL0     H74139   0.124   2.892   9.358 -2.4887  1.2178  1.9898
  562MOL0     H74140   0.099   3.134   9.174 -0.7347 -1.4845 -2.5079
  562MOL0     H74141  -0.040   3.054   9.221  0.3201  0.6533 -0.9048
  562MOL0     H74142   0.058   2.987   8.986 -0.9306  0.8337  1.9222
  562MOL0     H74143   0.149   2.870   9.088  1.6812  0.4033  0.0748
  562MOL0     H74144  -0.093   2.818   9.190  0.7531 -0.9465  0.5263
  562MOL0     H74145  -0.082   2.787   9.013 -2.4665  0.1046  0.0382
  562MOL0     H74146  -0.278   2.694   9.115  0.8491  1.0774  1.2401
  562MOL0     H74147  -0.514   2.639   9.099 -2.3255  1.2688  2.4442
  562MOL0     H74148  -0.819   2.431   8.939 -1.3534 -1.6754 -0.6432
  562MOL0     H74149  -1.045   2.332   8.974 -0.4314  0.2181  0.4994
  562MOL0     H74150  -1.211   2.234   9.093 -1.4631 -0.8648  0.8543
  562MOL0     H74151  -1.255   2.293   8.929  0.0918  2.0156 -0.0472
  562MOL0     H74152  -1.422   2.246   9.182 -0.6601  0.2848  0.8030
  562MOL0     H74153  -1.456   2.176   9.021  2.7423  0.0493 -0.8792
  562MOL0     H74154  -1.505   2.464   9.098 -1.3053  0.2465 -0.5011
  562MOL0     H74155  -1.616   2.322   9.102  1.4275 -1.0796  0.9113
  562MOL0     H74156  -1.465   2.420   8.858 -0.0946  1.8659  0.2029
  562MOL0     H74157  -1.588   2.297   8.866  1.7588 -0.2420 -3.2444
  562MOL0     H74158  -1.622   2.592   8.864  3.2187 -1.4868  1.6377
  562MOL0     H74159  -1.733   2.519   8.982 -2.6382  0.1407 -2.2279
  562MOL0     H74160  -1.812   2.359   8.810 -1.7213  0.5661 -0.4593
  562MOL0     H74161  -1.697   2.422   8.694  1.4631  0.8105  1.3594
  562MOL0     H74162  -1.948   2.491   8.675 -1.0417  0.7834  1.4042
  562MOL0     H74163  -1.917   2.578   8.822  1.0819 -1.9195  1.3680
  562MOL0     H74164  -1.757   2.604   8.547 -1.4451  1.1771 -1.1489
  562MOL0     H74165  -1.721   2.708   8.688  1.2557 -3.2329  3.2896
  562MOL0     H74166  -1.206   2.671   9.159 -2.6040 -2.1658 -3.3358
  562MOL0     H74167  -0.968   2.778   9.148 -0.5308  1.5768 -3.0430
  562MOL0     H74168  -0.611   3.038   9.001 -1.0600 -1.3853  0.2379
  562MOL0     H74169  -0.389   3.113   9.023 -1.1537  0.5010  2.4821
  562MOL0     H74170   1.625   3.215   9.411  1.4286  0.9102  1.8525
  562MOL0     H74171   1.864   3.125   9.366  1.2593  0.6841  0.6866
  562MOL0     H74172   2.233   3.189   9.085 -0.1940 -0.2174 -0.1657
  562MOL0     H74173   2.473   3.177   9.033 -1.0071  1.7628  0.1677
  562MOL0     H74174   2.687   3.268   9.102  0.4873  0.5629 -0.2201
  562MOL0     H74175   2.732   3.118   9.022 -0.7134 -1.2412  1.1903
  562MOL0     H74176   2.909   3.074   9.209  2.6121  0.9261 -1.2378
  562MOL0     H74177   2.958   3.185   9.089 -2.3121 -3.8236 -3.1055
  562MOL0     H74178   2.878   3.373   9.221 -2.2940  0.1494  0.9847
  562MOL0     H74179   3.027   3.286   9.285 -0.9146 -1.2933 -0.9140
  562MOL0     H74180   2.882   3.371   9.458 -1.4665 -1.1348  1.8484
  562MOL0     H74181   2.749   3.273   9.384 -0.2803 -2.9968 -0.5201
  562MOL0     H74182   2.992   2.977   9.577 -0.1787  0.8807  0.6076
  562MOL0     H74183   2.550   3.141   9.453  0.4665  3.6120  0.4242
  562MOL0     H74184   2.320   3.179   9.497  1.4317  1.2563  0.2959
  563MOL0     O74185   1.713   2.824   7.898  0.2033  0.5336 -0.5350
  563MOL0     C74186   1.725   2.817   8.022  0.5218  0.4312 -0.4011
  563MOL0     O74187   1.644   2.735   8.095 -0.0811  0.3396  0.1169
  563MOL0     C74188   1.525   2.671   8.073  0.7840  0.0186 -0.8175
  563MOL0     C74189   1.480   2.582   8.166 -0.0309  0.2154 -0.2340
  563MOL0     C74190   1.345   2.535   8.162  0.1751  0.7039 -0.1244
  563MOL0     C74191   1.258   2.556   8.056 -1.2560  0.5743 -0.3605
  563MOL0     O74192   1.130   2.509   8.068 -0.7038 -0.2198  0.2112
  563MOL0     C74193   1.055   2.488   7.950  0.0182  0.8573  0.3937
  563MOL0     C74194   1.113   2.382   7.853 -1.0733 -0.0386  1.0344
  563MOL0     C74195   1.099   2.243   7.911 -0.1263  0.5465  1.1613
  563MOL0     C74196   1.100   2.117   7.808 -0.7976 -0.7051 -0.9724
  563MOL0     C74197   1.132   1.981   7.882  0.3227 -0.2657 -0.3169
  563MOL0     C74198   1.108   1.858   7.788 -0.2688  0.6670 -0.5274
  563MOL0     C74199   1.124   1.721   7.853 -0.3015  0.2733 -0.7458
  563MOL0     C74200   1.140   1.607   7.754  0.0486 -0.6012 -0.0225
  563MOL0     N74201   1.273   1.608   7.708  0.8641  1.0205 -0.5772
  563MOL0     C74202   1.387   1.576   7.784  0.5043  0.1547  0.1027
  563MOL0     C74203   1.476   1.557   7.683 -0.2503 -0.8590 -0.2776
  563MOL0     C74204   1.618   1.528   7.699  0.3888 -0.0542 -0.3586
  563MOL0     C74205   1.671   1.594   7.821 -0.3101  0.0781 -0.7797
  563MOL0     C74206   1.808   1.541   7.854 -0.7612 -0.6347 -0.0837
  563MOL0     C74207   1.804   1.421   7.951 -0.6540  0.8272  0.0344
  563MOL0     O74208   1.804   1.471   8.089 -0.0118 -0.1218 -0.1703
  563MOL0     C74209   1.919   1.517   8.156 -0.7558 -1.2727  0.1250
  563MOL0     C74210   2.046   1.545   8.091  0.3892  0.1108 -1.3478
  563MOL0     C74211   2.155   1.604   8.160 -0.1890 -0.1180 -0.0295
  563MOL0     C74212   2.144   1.631   8.296  0.1160 -0.5507  0.8384
  563MOL0     C74213   2.254   1.689   8.375  0.9356 -0.8585 -0.9181
  563MOL0     O74214   2.233   1.681   8.506  0.0187  0.4696 -0.0510
  563MOL0     C74215   2.341   1.719   8.582  0.5781 -0.7353 -0.6719
  563MOL0     C74216   2.369   1.854   8.587 -0.5879 -0.0166  0.5445
  563MOL0     C74217   2.473   1.906   8.660  0.2768 -0.0805  0.5067
  563MOL0     C74218   2.547   1.823   8.745  0.5226  1.2032  0.0883
  563MOL0     O74219   2.662   1.863   8.798  0.2147 -0.8533  0.1005
  563MOL0     C74220   2.664   1.880   8.938  0.9156 -0.2617  0.2809
  563MOL0     C74221   2.779   1.955   8.994 -0.3578 -0.9577 -0.1211
  563MOL0     C74222   2.770   2.109   8.967  0.7008 -0.3345 -0.3255
  563MOL0     C74223   2.891   2.189   9.027  0.5318 -0.7421 -0.7564
  563MOL0     C74224   2.874   2.342   9.010  0.6342 -0.0372 -0.0816
  563MOL0     C74225   2.980   2.421   9.081 -0.4352 -0.4337  0.4095
  563MOL0     C74226   3.120   2.395   9.033  0.2667  0.6285 -0.2437
  563MOL0     C74227   3.220   2.509   9.065  0.2208  0.0611  0.1752
  563MOL0    Cl74228   3.382   2.434   9.068  0.0709  0.3121 -0.2376
  563MOL0     C74229   2.519   1.690   8.742 -0.2429  0.4189 -0.2832
  563MOL0     C74230   2.416   1.634   8.661 -0.5408  0.1850 -0.5392
  563MOL0     O74231   2.360   1.729   8.323  0.9926  0.5050 -0.2034
  563MOL0     C74232   2.023   1.604   8.358  0.6036 -0.0082 -0.1504
  563MOL0     C74233   1.914   1.549   8.291  0.5820 -0.2425 -0.0782
  563MOL0     N74234   1.429   1.602   7.564  0.4559  0.3546  0.4778
  563MOL0     N74235   1.301   1.621   7.575 -0.4932 -0.9282  0.7647
  563MOL0     C74236   1.310   2.635   7.950  0.1441  0.0471  0.5520
  563MOL0     C74237   1.435   2.696   7.965 -0.1050  0.0286  0.0916
  563MOL0     C74238   1.848   2.872   8.076  1.1964  0.3190 -0.5843
  563MOL0     C74239   1.931   2.945   7.995  0.2683  0.1948 -0.6864
  563MOL0     C74240   2.042   3.013   8.054 -0.2741 -0.3678 -0.2188
  563MOL0     C74241   2.064   3.016   8.190  0.5966  0.8853  0.1773
  563MOL0     O74242   2.185   3.081   8.232  0.8203 -0.7171  0.0390
  563MOL0     C74243   2.199   3.084   8.372  0.6794 -0.0053 -0.2504
  563MOL0     C74244   2.320   3.169   8.422  0.1737 -0.1962  0.5075
  563MOL0     C74245   2.439   3.160   8.326 -0.5637  0.0443 -0.5954
  563MOL0     C74246   2.563   3.214   8.403 -0.5812 -0.3183  0.0196
  563MOL0     C74247   2.587   3.361   8.386 -0.4013  0.4180 -0.5999
  563MOL0     C74248   2.604   3.483   8.376  0.8890  0.1062  0.9331
  563MOL0     C74249   1.969   2.946   8.267  0.2664 -0.3226  0.9661
  563MOL0     C74250   1.868   2.867   8.213  0.0209  0.5893 -0.2146
  563MOL0     H74251   1.552   2.558   8.245 -1.8995 -1.1506  1.1464
  563MOL0     H74252   1.307   2.460   8.230 -0.0735  1.2100  0.3028
  563MOL0     H74253   1.036   2.586   7.904 -2.5545  0.2700  0.0432
  563MOL0     H74254   0.952   2.457   7.972 -0.3771  0.8701 -1.3358
  563MOL0     H74255   1.215   2.408   7.826  0.2074 -4.0608  1.3584
  563MOL0     H74256   1.055   2.399   7.762  0.8877  1.1382 -0.0388
  563MOL0     H74257   1.002   2.244   7.961 -0.3898 -0.3203  0.6743
  563MOL0     H74258   1.167   2.235   7.996  2.9266  1.4731 -0.9987
  563MOL0     H74259   1.013   2.120   7.742  0.3935  0.1870 -2.5615
  563MOL0     H74260   1.184   2.130   7.739 -1.0805  1.5553 -0.9505
  563MOL0     H74261   1.065   1.963   7.967 -1.4565 -0.9135 -1.7833
  563MOL0     H74262   1.237   1.978   7.913  1.1948  1.3069 -2.8047
  563MOL0     H74263   1.178   1.859   7.704 -1.7014  1.4129 -1.7469
  563MOL0     H74264   1.006   1.863   7.750 -0.1199  0.0497 -1.0216
  563MOL0     H74265   1.202   1.709   7.929 -1.4655 -0.6391  0.3585
  563MOL0     H74266   1.034   1.694   7.909 -0.2561 -0.2743 -0.9246
  563MOL0     H74267   1.081   1.634   7.666 -3.1826 -1.0692  1.8649
  563MOL0     H74268   1.103   1.516   7.802 -1.0711 -1.0120 -1.6070
  563MOL0     H74269   1.396   1.552   7.889 -0.1753 -2.7945 -0.4122
  563MOL0     H74270   1.666   1.558   7.605  1.6292 -1.0858 -0.0822
  563MOL0     H74271   1.631   1.420   7.710 -1.1347 -0.1754  0.5262
  563MOL0     H74272   1.612   1.581   7.912 -2.9433 -0.5199 -2.4526
  563MOL0     H74273   1.670   1.702   7.808 -0.8625 -0.1732 -3.3187
  563MOL0     H74274   1.859   1.507   7.763 -0.6356 -1.9251  0.4486
  563MOL0     H74275   1.863   1.625   7.898  0.0193 -0.9301 -0.4813
  563MOL0     H74276   1.897   1.365   7.936 -1.2743 -1.0121  2.4690
  563MOL0     H74277   1.718   1.357   7.934 -0.3887  0.7545 -1.1026
  563MOL0     H74278   2.053   1.525   7.985 -0.3250  0.0589 -1.3932
  563MOL0     H74279   2.239   1.647   8.107 -0.4975 -1.2991 -1.5655
  563MOL0     H74280   2.316   1.926   8.525  2.4485  1.9054 -0.0327
  563MOL0     H74281   2.492   2.013   8.670 -0.0004 -0.1102  1.4871
  563MOL0     H74282   2.662   1.783   8.988 -0.4470 -0.7303 -0.6536
  563MOL0     H74283   2.579   1.945   8.960  1.1825  0.6121 -1.1770
  563MOL0     H74284   2.866   1.902   8.955 -1.7630 -3.0092 -0.6307
  563MOL0     H74285   2.768   1.948   9.103  1.6608 -0.2669  0.1623
  563MOL0     H74286   2.682   2.156   9.011  1.3336  1.6798 -1.0945
  563MOL0     H74287   2.760   2.121   8.858 -0.7410  0.1670 -0.1620
  563MOL0     H74288   2.887   2.167   9.134  2.8416 -1.1042 -0.6870
  563MOL0     H74289   2.987   2.156   8.986  1.2748 -0.8033  0.9568
  563MOL0     H74290   2.771   2.354   9.046 -0.4553 -3.3831 -1.6146
  563MOL0     H74291   2.891   2.349   8.902  4.4788 -1.7824  0.2761
  563MOL0     H74292   2.982   2.400   9.188 -1.5045 -2.2519  0.1111
  563MOL0     H74293   2.954   2.528   9.079 -0.3100 -0.3837  1.2120
  563MOL0     H74294   3.162   2.304   9.079  1.1245  0.6875 -0.8708
  563MOL0     H74295   3.120   2.387   8.924  1.3112 -1.4128 -0.1532
  563MOL0     H74296   3.207   2.556   9.163  2.8224 -1.6680  1.5017
  563MOL0     H74297   3.203   2.583   8.987  0.3510 -0.1330 -0.0377
  563MOL0     H74298   2.581   1.615   8.789 -0.7581 -2.5943 -3.9364
  563MOL0     H74299   2.394   1.527   8.658 -0.5270  0.1712 -0.1331
  563MOL0     H74300   1.997   1.631   8.459  2.1353  0.1242  0.2192
  563MOL0     H74301   1.814   1.551   8.335 -0.6288  1.0799 -2.6293
  563MOL0     H74302   1.256   2.646   7.856  0.6546  1.0511  0.3661
  563MOL0     H74303   1.469   2.756   7.881  0.8900  1.6160  1.5415
  563MOL0     H74304   1.920   2.957   7.887 -1.6713  2.2806 -0.3165
  563MOL0     H74305   2.112   3.058   7.985 -1.7089  2.1641 -0.1096
  563MOL0     H74306   2.202   2.979   8.404 -2.6540  0.0216  0.4383
  563MOL0     H74307   2.107   3.120   8.418  0.3853 -3.3338  2.1880
  563MOL0     H74308   2.284   3.272   8.413 -1.3871 -0.9030 -3.7196
  563MOL0     H74309   2.345   3.131   8.521 -0.1652 -1.8250  0.0102
  563MOL0     H74310   2.418   3.214   8.233  0.5594 -0.8320 -1.3901
  563MOL0     H74311   2.456   3.054   8.305 -1.6412 -1.0753  3.3595
  563MOL0     H74312   2.566   3.193   8.510  0.8758 -0.0792  0.0501
  563MOL0     H74313   2.654   3.169   8.362  1.2234  0.5030  2.8753
  563MOL0     H74314   2.621   3.589   8.372 -1.9708  0.6102 -1.2788
  563MOL0     H74315   1.984   2.936   8.374  1.2582  2.4294  1.1672
  563MOL0     H74316   1.805   2.815   8.284 -2.6520  1.2448 -1.9660
  564MOL0     O74317   3.974   6.146   2.000 -0.5524 -0.3041 -0.0352
  564MOL0     C74318   4.008   6.148   1.879  0.3061 -1.1120  0.4779
  564MOL0     O74319   3.925   6.123   1.772  0.7654  0.1510  0.2675
  564MOL0     C74320   3.787   6.128   1.798  0.6873 -0.2536 -0.9290
  564MOL0     C74321   3.717   6.226   1.871 -0.0720  0.5159 -0.1609
  564MOL0     C74322   3.583   6.255   1.838 -0.1969  1.0017 -0.2089
  564MOL0     C74323   3.515   6.178   1.740 -0.5217 -0.5441  0.0701
  564MOL0     O74324   3.384   6.192   1.719  0.0373  0.5375 -0.2135
  564MOL0     C74325   3.336   6.239   1.589  0.8371 -0.5341 -0.6970
  564MOL0     C74326   3.187   6.208   1.587 -0.3310  0.0153 -0.4865
  564MOL0     C74327   3.115   6.294   1.680 -0.3431 -0.1639 -0.4729
  564MOL0     C74328   2.973   6.240   1.682 -0.4747  0.1279  0.5694
  564MOL0     C74329   2.887   6.356   1.726 -0.7499  0.2850 -0.1439
  564MOL0     C74330   2.893   6.389   1.876  0.1493  0.1540 -0.2459
  564MOL0     C74331   2.881   6.264   1.968  0.5942  0.1816 -0.3753
  564MOL0     C74332   2.749   6.180   1.957 -1.0648 -1.0437 -0.1619
  564MOL0     N74333   2.626   6.257   1.943 -0.4375  0.2873  0.6952
  564MOL0     C74334   2.558   6.261   1.827 -0.3601 -0.5862  0.8759
  564MOL0     C74335   2.451   6.342   1.851 -0.6118 -0.6830 -0.1866
  564MOL0     C74336   2.338   6.370   1.746 -1.0720 -0.1553 -0.9088
  564MOL0     C74337   2.196   6.377   1.797 -0.5266 -0.5517  0.7283
  564MOL0     C74338   2.163   6.256   1.877  0.4545 -0.4498  0.5615
  564MOL0     C74339   2.159   6.129   1.784 -1.0969 -1.0677  0.2891
  564MOL0     O74340   2.080   6.142   1.673  0.8500  0.6426  0.2696
  564MOL0     C74341   1.953   6.082   1.674 -0.5947 -0.4456 -0.3051
  564MOL0     C74342   1.868   6.081   1.789 -0.5351 -0.5255 -0.3625
  564MOL0     C74343   1.743   6.020   1.782 -0.3652  0.2581 -0.2878
  564MOL0     C74344   1.710   5.948   1.664 -0.4046 -0.1092 -0.3093
  564MOL0     C74345   1.592   5.869   1.667 -0.0903 -0.4672  0.6473
  564MOL0     O74346   1.494   5.883   1.771 -0.0112 -0.8346  0.5974
  564MOL0     C74347   1.377   5.817   1.778  0.0271 -0.0265  0.5910
  564MOL0     C74348   1.282   5.828   1.679  0.0731  0.1749  0.0534
  564MOL0     C74349   1.154   5.771   1.698  1.0054  0.0143  0.1964
  564MOL0     C74350   1.117   5.709   1.817  0.2792  0.0483 -0.2107
  564MOL0     O74351   0.995   5.650   1.856  0.1124 -0.0749  0.0157
  564MOL0     C74352   0.896   5.640   1.751 -0.3934 -0.2552 -0.2547
  564MOL0     C74353   0.758   5.621   1.818 -0.1643  0.3678 -0.0883
  564MOL0     C74354   0.661   5.572   1.707  0.4912 -0.1390  0.6429
  564MOL0     C74355   0.518   5.576   1.767 -1.3794 -0.2080 -0.8299
  564MOL0     C74356   0.435   5.462   1.715 -0.2904  0.5243  0.8274
  564MOL0     C74357   0.292   5.511   1.701 -0.8042  0.9317  0.5308
  564MOL0     C74358   0.191   5.405   1.655 -0.4781 -0.1562  0.5824
  564MOL0     C74359   0.047   5.445   1.658  0.1727  0.6583 -0.4452
  564MOL0    Cl74360   0.029   5.581   1.536 -0.4603  0.5546  0.0980
  564MOL0     C74361   1.223   5.690   1.914 -0.2728  0.6135  0.3379
  564MOL0     C74362   1.347   5.744   1.896  0.6263  1.0017 -0.7671
  564MOL0     O74363   1.565   5.809   1.558  0.1291 -0.1708  0.1808
  564MOL0     C74364   1.799   5.936   1.558 -0.4427 -0.7729  0.8313
  564MOL0     C74365   1.920   6.001   1.568 -0.4039 -0.1830 -0.1765
  564MOL0     N74366   2.468   6.394   1.976  0.2232  0.1805 -0.4775
  564MOL0     N74367   2.570   6.345   2.037 -0.6556 -0.5961  0.2364
  564MOL0     C74368   3.583   6.069   1.675  0.2566  0.2197 -1.2669
  564MOL0     C74369   3.716   6.047   1.704 -0.3619 -1.0356 -0.7904
  564MOL0     C74370   4.143   6.184   1.852  0.8983 -0.7012  1.0646
  564MOL0     C74371   4.148   6.294   1.765 -0.2184  0.1082 -0.7702
  564MOL0     C74372   4.266   6.365   1.751  0.1385  0.0606  0.6687
  564MOL0     C74373   4.384   6.335   1.818 -0.4420 -0.0008 -0.9256
  564MOL0     O74374   4.493   6.420   1.802  0.7685  0.1246 -0.2814
  564MOL0     C74375   4.618   6.375   1.853 -0.0717 -0.3483 -0.2881
  564MOL0     C74376   4.740   6.470   1.817  0.1160  0.8164  0.1354
  564MOL0     C74377   4.862   6.376   1.842  0.6766 -0.4238 -0.4958
  564MOL0     C74378   4.960   6.445   1.926 -0.2432  0.0883  0.7100
  564MOL0     C74379   5.090   6.386   1.892  0.8659  0.0827  0.9118
  564MOL0     C74380   5.193   6.332   1.859  0.0529 -0.2177  0.1537
  564MOL0     C74381   4.386   6.208   1.891  0.2073 -0.5741  0.2334
  564MOL0     C74382   4.259   6.143   1.912  0.0598  0.2255  0.0673
  564MOL0     H74383   3.768   6.300   1.931 -1.5555  0.0245  1.7643
  564MOL0     H74384   3.524   6.326   1.895  2.6057 -0.3927  5.0673
  564MOL0     H74385   3.394   6.203   1.504 -0.2377 -1.6018 -1.0032
  564MOL0     H74386   3.349   6.348   1.596 -0.1960 -0.4632  0.6098
  564MOL0     H74387   3.175   6.101   1.605 -1.4799  0.3190  0.6365
  564MOL0     H74388   3.154   6.230   1.485  2.7423  2.3481 -1.1304
  564MOL0     H74389   3.122   6.395   1.638 -0.2503  1.1402  2.4458
  564MOL0     H74390   3.151   6.290   1.783 -1.2734 -2.7653 -0.1725
  564MOL0     H74391   2.957   6.211   1.578  1.8752 -0.1241  0.2238
  564MOL0     H74392   2.967   6.152   1.748  0.6255  0.4252  1.1018
  564MOL0     H74393   2.783   6.337   1.701 -0.8950  2.4465 -1.4147
  564MOL0     H74394   2.920   6.441   1.666  2.0747 -2.1770 -2.4573
  564MOL0     H74395   2.811   6.457   1.902  0.6621  0.0834  1.7531
  564MOL0     H74396   2.987   6.435   1.906  1.5613 -3.6058  1.8028
  564MOL0     H74397   2.971   6.204   1.949 -2.0909 -3.4229 -3.0509
  564MOL0     H74398   2.876   6.290   2.074 -1.1973 -3.4196  0.5860
  564MOL0     H74399   2.734   6.114   2.042 -0.3323 -0.8352  0.1404
  564MOL0     H74400   2.756   6.111   1.872 -0.0255 -0.9704 -0.1546
  564MOL0     H74401   2.576   6.203   1.737 -1.5805  1.2183 -0.6025
  564MOL0     H74402   2.341   6.291   1.670  0.7719 -0.5344 -0.4892
  564MOL0     H74403   2.361   6.462   1.691  1.9324 -0.7056 -0.7649
  564MOL0     H74404   2.117   6.394   1.724  1.8205  1.8974 -1.4968
  564MOL0     H74405   2.193   6.467   1.859 -0.7772  1.6596 -2.3122
  564MOL0     H74406   2.232   6.256   1.961  0.9981  0.1077  0.1240
  564MOL0     H74407   2.066   6.271   1.925  0.4924 -2.3669  1.3267
  564MOL0     H74408   2.135   6.038   1.840 -0.4949 -1.4265 -0.0245
  564MOL0     H74409   2.264   6.119   1.753 -1.4241 -1.9048 -0.6162
  564MOL0     H74410   1.905   6.137   1.875  0.6014 -1.0497 -0.4968
  564MOL0     H74411   1.686   6.022   1.874  1.9561 -2.1262  1.3364
  564MOL0     H74412   1.298   5.879   1.585 -0.3335  3.2063  1.5162
  564MOL0     H74413   1.088   5.786   1.612  0.4390 -1.3939  0.3565
  564MOL0     H74414   0.920   5.555   1.687  2.0005  0.8169 -0.9016
  564MOL0     H74415   0.889   5.722   1.679 -1.4697 -1.5127 -1.6387
  564MOL0     H74416   0.723   5.709   1.873 -0.7417  0.1659 -0.1224
  564MOL0     H74417   0.761   5.544   1.895 -0.2962 -1.1072 -1.5015
  564MOL0     H74418   0.691   5.470   1.683 -0.7851 -0.0995 -1.3897
  564MOL0     H74419   0.669   5.629   1.614 -2.5277 -2.0207 -0.9570
  564MOL0     H74420   0.503   5.576   1.876 -0.4797 -1.2804 -0.6869
  564MOL0     H74421   0.476   5.665   1.719  2.3275  1.8973 -0.6130
  564MOL0     H74422   0.442   5.379   1.786 -0.9340 -0.5931 -0.3747
  564MOL0     H74423   0.460   5.411   1.622 -2.5603 -3.5003  2.1489
  564MOL0     H74424   0.290   5.593   1.629 -0.3717  1.2234  0.8478
  564MOL0     H74425   0.256   5.539   1.801  1.1281  0.4894  1.3929
  564MOL0     H74426   0.220   5.358   1.560  4.3238  0.5580  1.4706
  564MOL0     H74427   0.200   5.331   1.735 -0.2499  1.5285  2.1663
  564MOL0     H74428   0.017   5.473   1.760  0.5801 -1.8037  0.4125
  564MOL0     H74429  -0.014   5.360   1.626  1.4729  0.5854 -2.9824
  564MOL0     H74430   1.192   5.635   2.003 -0.7610 -0.8412 -0.7090
  564MOL0     H74431   1.421   5.721   1.972  0.5899  1.8731 -0.4574
  564MOL0     H74432   1.792   5.866   1.476  0.4716  0.0593  0.0146
  564MOL0     H74433   1.985   5.982   1.482 -1.3544  0.1540 -0.9825
  564MOL0     H74434   3.520   6.006   1.614  0.2518 -0.9344 -0.1058
  564MOL0     H74435   3.783   5.989   1.641  0.2417 -2.7525  1.2950
  564MOL0     H74436   4.059   6.327   1.712  0.5037  1.1088 -1.3863
  564MOL0     H74437   4.276   6.454   1.691 -0.1274  0.0065  0.5388
  564MOL0     H74438   4.638   6.276   1.811 -2.5854  0.3227 -3.4959
  564MOL0     H74439   4.613   6.377   1.962 -1.9152 -0.4458 -0.3361
  564MOL0     H74440   4.733   6.500   1.712  0.2197  0.4096  0.0087
  564MOL0     H74441   4.752   6.555   1.884 -0.3698 -0.0148  1.3031
  564MOL0     H74442   4.898   6.340   1.746  0.7646  1.6550 -1.2970
  564MOL0     H74443   4.836   6.280   1.889  0.4548 -0.2335 -0.2248
  564MOL0     H74444   4.971   6.554   1.920  2.4500  0.1046  3.3816
  564MOL0     H74445   4.939   6.415   2.029 -2.7526 -2.3490 -0.3994
  564MOL0     H74446   5.271   6.278   1.809 -1.4876  1.4678 -4.6489
  564MOL0     H74447   4.471   6.175   1.949 -0.3186 -1.1796  0.6685
  564MOL0     H74448   4.250   6.061   1.982  0.8847  0.4189  0.4214
  565MOL0     O74449   8.453   3.661  10.248 -0.3273  0.0727 -0.1632
  565MOL0     C74450   8.533   3.757  10.253 -0.8425  0.1314 -1.0746
  565MOL0     O74451   8.564   3.839  10.143  0.9006 -0.0554  0.5911
  565MOL0     C74452   8.504   3.815  10.014 -0.6572 -0.0646  0.0929
  565MOL0     C74453   8.601   3.814   9.912  0.6377  0.5393 -0.3467
  565MOL0     C74454   8.565   3.790   9.781  0.5630  0.7836  0.4442
  565MOL0     C74455   8.427   3.781   9.749  0.0126  0.5826 -0.0536
  565MOL0     O74456   8.397   3.749   9.618  0.6902 -0.5170 -0.9079
  565MOL0     C74457   8.270   3.684   9.589 -0.4106  0.3296  0.1385
  565MOL0     C74458   8.227   3.690   9.446 -0.7867 -0.6104 -0.5207
  565MOL0     C74459   8.175   3.830   9.399  1.2198 -0.4277 -1.3690
  565MOL0     C74460   8.178   3.856   9.243 -0.4125 -0.2837 -0.4428
  565MOL0     C74461   8.087   3.760   9.164  0.5086  0.9798 -0.5253
  565MOL0     C74462   7.937   3.776   9.202  0.1514 -0.4789  0.1243
  565MOL0     C74463   7.859   3.706   9.092 -0.8080  0.2858 -1.1952
  565MOL0     C74464   7.711   3.694   9.138 -1.2776 -0.7626 -0.1720
  565MOL0     N74465   7.629   3.683   9.017 -0.1456  0.2041  1.0506
  565MOL0     C74466   7.572   3.786   8.953  0.7408 -0.4489 -0.2135
  565MOL0     C74467   7.504   3.733   8.851  0.5872 -0.2052  0.4003
  565MOL0     C74468   7.440   3.823   8.744 -0.4849  0.2704 -0.2564
  565MOL0     C74469   7.524   3.804   8.610 -0.0412 -0.3062 -0.4017
  565MOL0     C74470   7.465   3.900   8.510 -0.8493  0.0141 -0.2853
  565MOL0     C74471   7.495   3.865   8.367  0.0371 -0.7327 -0.0700
  565MOL0     O74472   7.635   3.823   8.355 -0.2444 -0.6206  0.4574
  565MOL0     C74473   7.737   3.918   8.351  0.0556 -0.2891  0.0767
  565MOL0     C74474   7.868   3.866   8.343 -0.6585  1.0624  0.3003
  565MOL0     C74475   7.984   3.941   8.339  0.4300 -0.4030  1.2296
  565MOL0     C74476   7.976   4.081   8.352 -0.1440 -0.2676  0.4414
  565MOL0     C74477   8.092   4.174   8.350 -0.1472 -0.2967 -1.0089
  565MOL0     O74478   8.214   4.119   8.336 -0.3540 -0.2415  0.0249
  565MOL0     C74479   8.326   4.191   8.320 -1.0088  0.0458  0.2266
  565MOL0     C74480   8.345   4.326   8.340  0.1333  0.3630 -0.6715
  565MOL0     C74481   8.476   4.374   8.350  0.3227 -0.3586 -0.1014
  565MOL0     C74482   8.592   4.303   8.339 -0.8474 -0.0233  0.5648
  565MOL0     O74483   8.725   4.339   8.344 -0.8923 -0.6474 -0.1827
  565MOL0     C74484   8.753   4.476   8.358  0.5542 -0.9819 -0.2196
  565MOL0     C74485   8.901   4.496   8.348  0.3112 -0.4088  0.7635
  565MOL0     C74486   8.936   4.640   8.300 -0.3586 -0.4918  0.6886
  565MOL0     C74487   9.092   4.666   8.282  0.2647 -0.3372 -0.2917
  565MOL0     C74488   9.141   4.604   8.154  0.6451 -0.7898  1.2278
  565MOL0     C74489   9.261   4.658   8.094 -0.8994  0.7699 -1.0061
  565MOL0     C74490   9.379   4.689   8.190 -1.1575 -0.5234  0.4042
  565MOL0     C74491   9.516   4.693   8.119 -0.3993  0.4428  1.2398
  565MOL0    Cl74492   9.513   4.828   7.993  0.3292  0.4717  0.1053
  565MOL0     C74493   8.571   4.167   8.298 -0.9009 -0.0842  0.6157
  565MOL0     C74494   8.442   4.116   8.306 -0.6517 -1.2201 -0.6291
  565MOL0     O74495   8.067   4.292   8.370  0.3706 -0.2885 -0.0505
  565MOL0     C74496   7.841   4.140   8.355  0.8901 -0.2086 -0.0856
  565MOL0     C74497   7.731   4.059   8.358  0.3031  0.5512 -0.6377
  565MOL0     N74498   7.515   3.593   8.846 -0.2415  1.3114  0.0360
  565MOL0     N74499   7.592   3.568   8.954  0.5179  0.4950  0.0765
  565MOL0     C74500   8.335   3.786   9.853  0.2313  0.7553 -0.6438
  565MOL0     C74501   8.374   3.805   9.985 -0.4160  0.1946  0.0357
  565MOL0     C74502   8.611   3.774  10.379 -0.1544  0.6368 -0.3120
  565MOL0     C74503   8.744   3.833  10.372  1.0438  0.8819  1.0554
  565MOL0     C74504   8.817   3.845  10.491  0.0405  0.5538 -1.0461
  565MOL0     C74505   8.767   3.791  10.612 -1.2835 -0.6835 -0.1025
  565MOL0     O74506   8.838   3.793  10.728  0.3351  1.1728 -0.2875
  565MOL0     C74507   8.856   3.918  10.796  1.1367  0.7313 -0.8257
  565MOL0     C74508   8.771   3.929  10.920  0.1301 -0.6296 -0.4194
  565MOL0     C74509   8.796   3.819  11.033 -0.5730  0.1567 -0.2643
  565MOL0     C74510   8.905   3.856  11.134  0.3987  0.5469 -0.5382
  565MOL0     C74511   9.038   3.805  11.101  0.5677  0.4522 -1.2741
  565MOL0     C74512   9.155   3.765  11.097 -0.1546  0.3911 -0.1169
  565MOL0     C74513   8.644   3.732  10.613  0.9047  0.1862  0.3748
  565MOL0     C74514   8.566   3.719  10.496 -0.3459  0.2321  0.2595
  565MOL0     H74515   8.697   3.842   9.955 -0.3735  3.5485  0.2342
  565MOL0     H74516   8.643   3.801   9.707  1.7270  2.1370  1.8041
  565MOL0     H74517   8.195   3.745   9.639  0.2556  1.0511  0.2806
  565MOL0     H74518   8.285   3.582   9.627  2.8435  1.5201  2.5983
  565MOL0     H74519   8.143   3.623   9.423 -1.1527  0.4552 -2.5507
  565MOL0     H74520   8.318   3.674   9.388  0.1989 -1.7082  1.2514
  565MOL0     H74521   8.244   3.901   9.446  0.9476 -1.3070  0.4519
  565MOL0     H74522   8.075   3.846   9.442  0.7797  1.6207 -2.9807
  565MOL0     H74523   8.146   3.960   9.242 -1.8509 -0.7053 -0.0455
  565MOL0     H74524   8.278   3.855   9.197 -0.4328 -1.3914 -0.4993
  565MOL0     H74525   8.123   3.658   9.178 -1.6188  0.4572  1.9134
  565MOL0     H74526   8.107   3.782   9.059  0.5316  0.2383 -0.6807
  565MOL0     H74527   7.896   3.877   9.208 -3.6220 -1.8654  1.1959
  565MOL0     H74528   7.928   3.739   9.305 -0.5932 -0.1949  0.1652
  565MOL0     H74529   7.860   3.766   9.000 -2.1812  0.8895 -0.8392
  565MOL0     H74530   7.906   3.609   9.074  1.1027  1.1981 -1.4167
  565MOL0     H74531   7.681   3.787   9.188 -2.3801  0.1696 -2.4217
  565MOL0     H74532   7.706   3.609   9.207  0.8578 -1.6483 -1.0214
  565MOL0     H74533   7.577   3.892   8.971  0.9236 -0.3267 -0.9628
  565MOL0     H74534   7.432   3.927   8.776  0.9017  0.8356 -1.6050
  565MOL0     H74535   7.337   3.793   8.726 -0.4817  0.9215 -1.4704
  565MOL0     H74536   7.511   3.701   8.575  0.7392  0.8338 -4.6836
  565MOL0     H74537   7.627   3.830   8.635 -0.1483  2.1786 -2.0881
  565MOL0     H74538   7.356   3.909   8.517 -0.7233  1.0873  0.5944
  565MOL0     H74539   7.505   4.002   8.519 -1.7222  0.4056 -0.7256
  565MOL0     H74540   7.473   3.946   8.297  3.1521 -0.3800 -0.7832
  565MOL0     H74541   7.437   3.780   8.330 -1.4666  0.1492  0.1918
  565MOL0     H74542   7.870   3.758   8.343 -2.6803  0.9779 -0.3366
  565MOL0     H74543   8.082   3.896   8.349  0.6231 -0.0699  0.8866
  565MOL0     H74544   8.264   4.396   8.359  0.1186  1.2373 -3.5198
  565MOL0     H74545   8.485   4.479   8.378  4.2140  0.3084 -2.9635
  565MOL0     H74546   8.715   4.499   8.458  0.9968 -3.8810  0.6948
  565MOL0     H74547   8.693   4.533   8.287 -1.0159 -2.2720  0.0065
  565MOL0     H74548   8.942   4.418   8.283 -1.2032 -0.0396 -0.6824
  565MOL0     H74549   8.934   4.476   8.451  2.8692 -1.6399 -0.2075
  565MOL0     H74550   8.909   4.714   8.376  3.0848  2.2706 -0.4881
  565MOL0     H74551   8.880   4.660   8.209  0.7179  2.6407  0.6026
  565MOL0     H74552   9.111   4.773   8.273  6.4662 -1.0148  0.8469
  565MOL0     H74553   9.142   4.620   8.366 -0.2066 -0.4480 -0.0669
  565MOL0     H74554   9.071   4.606   8.070  0.4914 -1.0183  1.3500
  565MOL0     H74555   9.148   4.496   8.173  1.7941 -1.0112 -0.3079
  565MOL0     H74556   9.239   4.748   8.036 -0.9432  0.2037 -1.8876
  565MOL0     H74557   9.304   4.579   8.031  1.9092  1.0872  0.3628
  565MOL0     H74558   9.369   4.790   8.232  1.3549  0.3961 -0.9777
  565MOL0     H74559   9.371   4.616   8.271 -2.5587  1.2568  1.9801
  565MOL0     H74560   9.533   4.595   8.074  2.3023  0.3557  2.3024
  565MOL0     H74561   9.601   4.718   8.183  0.8341  2.2231 -0.9173
  565MOL0     H74562   8.657   4.104   8.281 -0.5123  0.5901  0.0114
  565MOL0     H74563   8.430   4.012   8.276  5.2097 -1.8556 -1.9857
  565MOL0     H74564   7.825   4.247   8.370 -2.0180 -0.7312  1.2958
  565MOL0     H74565   7.631   4.100   8.357  1.0798  3.1301  2.9494
  565MOL0     H74566   8.229   3.774   9.832  0.3944 -2.4335 -0.1052
  565MOL0     H74567   8.312   3.815  10.073  2.5252 -0.0572  2.3013
  565MOL0     H74568   8.783   3.877  10.280  0.6458  0.6695  0.7792
  565MOL0     H74569   8.918   3.884  10.506 -1.0553  2.9178  1.0898
  565MOL0     H74570   8.824   4.000  10.732 -0.4265  0.4587 -0.4463
  565MOL0     H74571   8.962   3.923  10.824  0.8017 -2.9163  1.7800
  565MOL0     H74572   8.791   4.029  10.958 -2.7643  1.2465 -3.3153
  565MOL0     H74573   8.672   3.938  10.875 -0.5737 -0.1623  1.1476
  565MOL0     H74574   8.815   3.730  10.971  1.2528  1.2130 -1.2822
  565MOL0     H74575   8.699   3.813  11.084 -0.1964  1.4872  0.6542
  565MOL0     H74576   8.920   3.963  11.148 -0.7506  0.7720 -0.9216
  565MOL0     H74577   8.884   3.818  11.235 -2.0602  1.4783 -0.6197
  565MOL0     H74578   9.250   3.717  11.106  0.9802  2.6083  0.4737
  565MOL0     H74579   8.609   3.704  10.712  0.5554  2.2972  0.8878
  565MOL0     H74580   8.464   3.688  10.512  0.1522 -1.0226  1.1656
  566MOL0     O74581  10.397   9.120   8.218  0.4559 -0.0888  0.5144
  566MOL0     C74582  10.356   9.202   8.138  0.4012  0.1019 -0.0327
  566MOL0     O74583  10.220   9.236   8.122 -0.1581  0.0970  0.4003
  566MOL0     C74584  10.107   9.195   8.192  0.1940  0.9594  0.1044
  566MOL0     C74585   9.985   9.216   8.119  0.3003 -0.0668  0.2845
  566MOL0     C74586   9.869   9.172   8.181  0.7305  0.6543  0.0855
  566MOL0     C74587   9.868   9.105   8.302  0.2498  0.3246 -0.6588
  566MOL0     O74588   9.754   9.069   8.374  0.1411  0.6521 -0.1885
  566MOL0     C74589   9.629   9.060   8.302  0.0655  1.1673 -0.2841
  566MOL0     C74590   9.526   8.967   8.370 -0.2783 -1.1604 -0.3903
  566MOL0     C74591   9.565   8.813   8.377 -0.1744  0.5413  0.0107
  566MOL0     C74592   9.626   8.753   8.237 -0.2945 -0.2047 -0.0116
  566MOL0     C74593   9.615   8.603   8.209 -0.7696 -0.0420 -0.0440
  566MOL0     C74594   9.705   8.520   8.307 -0.3083  1.1924  0.5632
  566MOL0     C74595   9.721   8.382   8.252 -0.1160  0.3071  0.0846
  566MOL0     C74596   9.658   8.272   8.345 -0.3439 -0.7195 -0.4196
  566MOL0     N74597   9.521   8.249   8.307 -0.2852 -0.3730  0.2759
  566MOL0     C74598   9.476   8.170   8.201  0.6805  0.1392 -0.1095
  566MOL0     C74599   9.341   8.187   8.200 -0.6490 -1.2998 -0.0546
  566MOL0     C74600   9.234   8.148   8.100 -0.1167  0.4711 -0.1243
  566MOL0     C74601   9.136   8.043   8.158 -0.4522 -0.8184 -0.1363
  566MOL0     C74602   9.030   8.014   8.051  1.1501 -0.2192  0.6068
  566MOL0     C74603   8.927   7.909   8.105  0.5181 -0.3879 -0.0983
  566MOL0     O74604   8.994   7.791   8.169  0.2119 -0.1469  0.0052
  566MOL0     C74605   8.917   7.675   8.160 -1.0612 -0.5342  0.3612
  566MOL0     C74606   8.973   7.555   8.148  0.1031 -1.1489 -0.5513
  566MOL0     C74607   8.901   7.436   8.170  1.0624  0.1164 -0.1664
  566MOL0     C74608   8.762   7.442   8.189 -0.0379 -0.6439  0.8245
  566MOL0     C74609   8.681   7.322   8.206  0.6407  0.1766 -0.7188
  566MOL0     O74610   8.553   7.330   8.272 -0.2323  0.8743  0.5918
  566MOL0     C74611   8.507   7.204   8.304  0.4643 -0.2284  0.9123
  566MOL0     C74612   8.462   7.104   8.214  0.0778 -1.0531  0.6834
  566MOL0     C74613   8.407   6.981   8.269  0.3833 -0.4249 -0.0926
  566MOL0     C74614   8.377   6.967   8.401 -0.0371 -0.9333 -1.2790
  566MOL0     O74615   8.334   6.846   8.453 -0.6177 -0.3124  0.2044
  566MOL0     C74616   8.239   6.773   8.385  0.2976  0.3522 -0.9761
  566MOL0     C74617   8.195   6.647   8.471  0.0626  0.3501  0.3260
  566MOL0     C74618   8.102   6.689   8.576  0.0303  0.6265 -0.6079
  566MOL0     C74619   7.958   6.725   8.526  0.2159  0.6006  0.0586
  566MOL0     C74620   7.856   6.738   8.645  0.0623 -0.0172 -0.2084
  566MOL0     C74621   7.885   6.855   8.745  0.0994  0.4867  0.7314
  566MOL0     C74622   7.853   6.808   8.891  0.5140 -0.8798  0.3213
  566MOL0     C74623   7.903   6.894   9.003 -0.6948 -0.3481  0.9199
  566MOL0    Cl74624   7.825   6.823   9.149 -0.3742  0.2977 -0.0214
  566MOL0     C74625   8.413   7.076   8.484  0.5109 -0.2494 -0.1943
  566MOL0     C74626   8.478   7.188   8.441 -0.5259 -0.2314  0.2065
  566MOL0     O74627   8.733   7.218   8.181 -0.0602  0.1362  0.2706
  566MOL0     C74628   8.700   7.568   8.194  0.0747 -0.8735 -0.4355
  566MOL0     C74629   8.774   7.687   8.166 -0.5986  0.0834 -0.3854
  566MOL0     N74630   9.310   8.270   8.304 -0.5579  0.2617 -0.1481
  566MOL0     N74631   9.415   8.306   8.365 -1.1351 -0.2067 -0.9187
  566MOL0     C74632   9.989   9.072   8.362  0.1758 -0.4989 -0.1644
  566MOL0     C74633  10.110   9.115   8.314 -0.5258 -1.3700 -0.0139
  566MOL0     C74634  10.457   9.261   8.047  0.1778 -0.3710  0.9656
  566MOL0     C74635  10.422   9.361   7.961 -0.0053  0.7119  0.0473
  566MOL0     C74636  10.514   9.415   7.869 -0.3286 -0.6882  0.4713
  566MOL0     C74637  10.640   9.363   7.859  0.0910  0.0861 -0.0911
  566MOL0     O74638  10.718   9.430   7.760  1.1493  0.2918 -1.1846
  566MOL0     C74639  10.867   9.429   7.768  0.6477  0.1221 -0.5112
  566MOL0     C74640  10.930   9.523   7.667  0.0551  0.2893 -0.0764
  566MOL0     C74641  10.852   9.652   7.653 -0.2115 -0.1445  0.0062
  566MOL0     C74642  10.926   9.764   7.579 -0.6540  0.6347  0.3801
  566MOL0     C74643  10.841   9.879   7.548 -0.2322  0.0611 -0.3272
  566MOL0     C74644  10.787   9.987   7.533  0.8055  0.7657 -0.0970
  566MOL0     C74645  10.683   9.273   7.950 -0.3322 -0.6693  0.5412
  566MOL0     C74646  10.595   9.222   8.046  0.0186 -0.1712 -0.4846
  566MOL0     H74647   9.991   9.270   8.025 -0.0940  0.2317  0.4302
  566MOL0     H74648   9.770   9.183   8.136  1.2271  0.9360 -0.9754
  566MOL0     H74649   9.650   9.012   8.206  2.8657 -0.7250  1.1405
  566MOL0     H74650   9.593   9.163   8.298  1.5366  1.8214  1.6866
  566MOL0     H74651   9.432   8.973   8.314  0.1183  2.2574 -0.9112
  566MOL0     H74652   9.523   9.004   8.473 -0.7272  2.1559 -1.4638
  566MOL0     H74653   9.473   8.759   8.401 -0.9362  1.8198  0.0700
  566MOL0     H74654   9.637   8.799   8.458  2.7613 -0.1581 -2.5227
  566MOL0     H74655   9.583   8.807   8.153  0.7207 -0.7698 -0.9104
  566MOL0     H74656   9.732   8.777   8.248 -0.6123  1.4276 -0.2548
  566MOL0     H74657   9.645   8.588   8.105 -2.2891 -2.0643 -0.2524
  566MOL0     H74658   9.519   8.550   8.215 -0.2035 -1.0790  0.2550
  566MOL0     H74659   9.659   8.517   8.407  0.6449 -1.1553  1.0062
  566MOL0     H74660   9.802   8.566   8.326 -0.7481  1.5381  2.1408
  566MOL0     H74661   9.678   8.372   8.152 -0.1795 -0.4472  0.1792
  566MOL0     H74662   9.827   8.354   8.257 -1.1374 -4.2055  3.5202
  566MOL0     H74663   9.666   8.304   8.449  0.8806 -0.3250 -0.6157
  566MOL0     H74664   9.717   8.181   8.331  2.7757  1.3025 -1.8156
  566MOL0     H74665   9.535   8.133   8.118  3.7996  1.3112  1.4355
  566MOL0     H74666   9.271   8.114   8.003 -0.8202  2.1662 -1.0369
  566MOL0     H74667   9.184   8.242   8.075 -1.1515 -0.2512 -0.8414
  566MOL0     H74668   9.081   8.079   8.246 -1.1819 -2.1253 -0.0278
  566MOL0     H74669   9.188   7.953   8.191  0.1175 -1.4004 -2.4938
  566MOL0     H74670   8.981   8.104   8.014  0.3710 -1.1647 -0.7664
  566MOL0     H74671   9.078   7.971   7.963  4.2342 -0.3071  2.1959
  566MOL0     H74672   8.860   7.880   8.024  0.6263 -2.7819  0.5859
  566MOL0     H74673   8.856   7.946   8.180 -0.9119  0.8867 -1.9958
  566MOL0     H74674   9.081   7.554   8.138 -0.0933 -0.8998 -3.8097
  566MOL0     H74675   8.938   7.334   8.170 -2.2441 -1.1820 -0.0858
  566MOL0     H74676   8.474   7.110   8.107 -1.5715 -4.1303  0.1994
  566MOL0     H74677   8.389   6.890   8.214 -1.4344  0.2962 -0.7429
  566MOL0     H74678   8.280   6.733   8.291  1.6969  3.8769 -2.0474
  566MOL0     H74679   8.163   6.839   8.343  0.9098  0.6416 -1.6646
  566MOL0     H74680   8.287   6.601   8.508  0.3343  0.8406  0.2671
  566MOL0     H74681   8.150   6.570   8.408  1.9787 -0.5961  0.0494
  566MOL0     H74682   8.144   6.766   8.642  3.4425 -2.0187  0.5781
  566MOL0     H74683   8.082   6.608   8.646 -2.9926  1.8226  0.1039
  566MOL0     H74684   7.967   6.818   8.471 -0.4551  1.2130  0.9523
  566MOL0     H74685   7.924   6.651   8.453 -0.9242 -1.7866  2.7645
  566MOL0     H74686   7.853   6.648   8.707  1.4699  0.2914  0.3467
  566MOL0     H74687   7.756   6.748   8.602 -0.2751 -2.8758 -0.2798
  566MOL0     H74688   7.821   6.940   8.720  0.3949  1.0208  1.7568
  566MOL0     H74689   7.988   6.893   8.740  0.2657 -0.0328 -0.0030
  566MOL0     H74690   7.744   6.812   8.899  0.3845 -1.2409 -1.0281
  566MOL0     H74691   7.891   6.708   8.913 -2.2012 -2.4147 -1.3752
  566MOL0     H74692   7.890   7.001   8.984  2.6334  0.2738  1.5063
  566MOL0     H74693   8.011   6.888   9.020 -0.7343  0.6334  1.6191
  566MOL0     H74694   8.399   7.064   8.591  1.5702  1.5369  0.1868
  566MOL0     H74695   8.502   7.262   8.518  2.4102  0.1627 -0.9849
  566MOL0     H74696   8.596   7.580   8.220  0.3199 -2.2370  1.3409
  566MOL0     H74697   8.717   7.779   8.175 -2.7748 -1.0434 -1.9163
  566MOL0     H74698   9.988   9.028   8.462 -0.8008  2.9777  1.5137
  566MOL0     H74699  10.198   9.093   8.373 -0.6484  0.4220  0.9163
  566MOL0     H74700  10.323   9.405   7.961 -2.3981 -3.7797 -3.6097
  566MOL0     H74701  10.492   9.503   7.809  1.5574  0.2017  1.0298
  566MOL0     H74702  10.891   9.324   7.751 -0.6362 -0.1457 -0.7586
  566MOL0     H74703  10.903   9.456   7.867 -1.7472  3.6366 -0.4117
  566MOL0     H74704  11.027   9.553   7.708 -0.7152  3.1944 -0.1420
  566MOL0     H74705  10.933   9.471   7.571 -2.1640 -0.7791  0.3634
  566MOL0     H74706  10.820   9.685   7.753 -1.9288 -0.3781 -0.4281
  566MOL0     H74707  10.765   9.628   7.591  0.0788 -0.3802 -0.3093
  566MOL0     H74708  11.017   9.793   7.632 -1.9760  2.1706  1.8995
  566MOL0     H74709  10.960   9.734   7.479 -0.6721 -1.4387  0.9434
  566MOL0     H74710  10.749  10.085   7.511 -0.6347  0.1220 -0.6573
  566MOL0     H74711  10.782   9.228   7.947 -0.1104 -0.2600  1.2763
  566MOL0     H74712  10.629   9.149   8.118  0.2269  2.3694  2.1639
  567MOL0     O74713   7.249   3.033   8.329  0.0794 -0.5580 -0.2053
  567MOL0     C74714   7.260   3.122   8.410  0.1137 -1.0136 -0.3027
  567MOL0     O74715   7.172   3.221   8.429 -0.3162  0.3118 -0.1238
  567MOL0     C74716   7.054   3.219   8.366  0.1666 -0.0703  0.9635
  567MOL0     C74717   6.979   3.106   8.335  0.2771  0.2920  0.5107
  567MOL0     C74718   6.854   3.125   8.280 -0.0103 -0.4870 -0.1439
  567MOL0     C74719   6.808   3.252   8.238  0.3967  0.2184 -0.2483
  567MOL0     O74720   6.677   3.272   8.204  0.9897  0.3641  0.1718
  567MOL0     C74721   6.664   3.315   8.069  0.5624 -0.3607 -0.6438
  567MOL0     C74722   6.514   3.346   8.051  0.4904 -0.1480  1.3821
  567MOL0     C74723   6.448   3.397   8.181  0.2680  0.6630  0.0845
  567MOL0     C74724   6.302   3.442   8.137  0.4387 -0.5579 -0.1240
  567MOL0     C74725   6.219   3.478   8.266  0.3925  0.6946  0.7370
  567MOL0     C74726   6.103   3.554   8.207 -0.2061  0.3822 -0.9078
  567MOL0     C74727   6.011   3.589   8.335  0.3353 -0.0725  0.5225
  567MOL0     C74728   5.924   3.491   8.409 -0.1850  0.1046  0.3986
  567MOL0     N74729   5.791   3.472   8.349 -0.1690  0.4542 -0.3911
  567MOL0     C74730   5.671   3.464   8.418 -0.0318  0.5125 -0.2089
  567MOL0     C74731   5.581   3.400   8.339  0.2611 -0.0889 -0.0410
  567MOL0     C74732   5.433   3.404   8.369 -0.0688  0.3160 -0.1647
  567MOL0     C74733   5.399   3.260   8.417  0.8995  0.4154 -0.4486
  567MOL0     C74734   5.239   3.241   8.422  0.1053 -0.0070  0.2876
  567MOL0     C74735   5.184   3.101   8.427 -0.1325  0.2862  0.3257
  567MOL0     O74736   5.196   3.048   8.293 -0.9189 -1.1105  0.0333
  567MOL0     C74737   5.103   2.975   8.231 -0.6290  0.0296 -0.8702
  567MOL0     C74738   5.010   2.883   8.289  0.3687 -0.3394  0.2078
  567MOL0     C74739   4.919   2.812   8.209 -0.1223 -0.0422  0.3380
  567MOL0     C74740   4.909   2.840   8.063 -0.6829  0.7741  0.3692
  567MOL0     C74741   4.805   2.759   7.989 -0.2935 -0.2682  0.6481
  567MOL0     O74742   4.746   2.645   8.047 -0.5177 -0.1592  0.3624
  567MOL0     C74743   4.642   2.581   7.986 -0.0571 -0.7575  0.2724
  567MOL0     C74744   4.531   2.641   7.923  0.1870  0.6503  0.5560
  567MOL0     C74745   4.429   2.575   7.852  0.2462  0.5669  0.1147
  567MOL0     C74746   4.439   2.434   7.835 -0.1207  0.4165  0.3664
  567MOL0     O74747   4.355   2.364   7.755  0.2807  0.1172 -0.4352
  567MOL0     C74748   4.281   2.431   7.659 -0.0638  0.1010  0.5924
  567MOL0     C74749   4.215   2.335   7.554 -0.2124 -0.3521 -0.6095
  567MOL0     C74750   4.127   2.402   7.449 -0.7217 -0.7155  1.1297
  567MOL0     C74751   4.020   2.304   7.398 -0.5486  0.4511  0.4227
  567MOL0     C74752   3.942   2.363   7.283  0.0131 -0.0960 -0.3697
  567MOL0     C74753   3.816   2.275   7.252 -0.0027  0.3780  0.5282
  567MOL0     C74754   3.863   2.151   7.172  0.1692 -0.2032 -0.0712
  567MOL0     C74755   3.748   2.085   7.094  1.5343  0.1894  0.4183
  567MOL0    Cl74756   3.623   2.009   7.191 -0.2120 -0.2958 -0.3639
  567MOL0     C74757   4.545   2.366   7.893  0.0636  1.0185  0.2026
  567MOL0     C74758   4.636   2.437   7.973 -1.0967  0.0309 -0.7018
  567MOL0     O74759   4.792   2.793   7.872 -0.1624  0.6671  0.7469
  567MOL0     C74760   5.002   2.935   8.006 -0.6127  0.8548  0.5249
  567MOL0     C74761   5.094   2.998   8.090  0.2264  1.3019  0.0099
  567MOL0     N74762   5.645   3.366   8.221 -0.5413  0.2459 -0.3886
  567MOL0     N74763   5.769   3.411   8.232 -0.4666 -0.5358  0.5745
  567MOL0     C74764   6.880   3.365   8.273 -1.1437 -1.2280 -0.8934
  567MOL0     C74765   7.002   3.347   8.338 -0.3396  0.1542 -0.3618
  567MOL0     C74766   7.392   3.139   8.483 -0.1794  0.3409  0.1856
  567MOL0     C74767   7.415   3.232   8.590  0.7978 -0.3341  0.2805
  567MOL0     C74768   7.536   3.239   8.650 -0.0752 -0.0661  0.6960
  567MOL0     C74769   7.629   3.143   8.621 -0.7034  0.0300  1.5268
  567MOL0     O74770   7.749   3.137   8.689 -0.5985  0.5385 -0.2635
  567MOL0     C74771   7.821   3.253   8.735 -0.6451 -0.2571 -0.8357
  567MOL0     C74772   7.898   3.335   8.632  0.0039 -0.9180 -0.4954
  567MOL0     C74773   7.814   3.450   8.566  0.0059 -0.1768  0.2558
  567MOL0     C74774   7.816   3.588   8.636 -0.4246  0.2217 -0.8236
  567MOL0     C74775   7.953   3.636   8.665 -0.0095 -1.0696 -0.3893
  567MOL0     C74776   8.072   3.672   8.688 -0.4121  0.7142  0.3106
  567MOL0     C74777   7.612   3.049   8.511  1.1311 -0.3366  0.4024
  567MOL0     C74778   7.487   3.045   8.446  0.0179 -0.3053 -0.2033
  567MOL0     H74779   7.003   3.001   8.350 -0.8500 -0.5332 -2.8185
  567MOL0     H74780   6.800   3.031   8.274 -0.4594 -0.3933  1.8576
  567MOL0     H74781   6.697   3.247   7.990  2.1589  2.3716 -2.5024
  567MOL0     H74782   6.722   3.408   8.064 -0.0454  0.3679  2.8173
  567MOL0     H74783   6.454   3.257   8.029 -0.1750  0.3569  1.1392
  567MOL0     H74784   6.510   3.415   7.967  0.2322 -0.8674  0.7926
  567MOL0     H74785   6.507   3.481   8.219  2.1059 -2.5282  5.2478
  567MOL0     H74786   6.437   3.317   8.255 -2.7469  0.0837 -0.8201
  567MOL0     H74787   6.301   3.531   8.073 -2.5852 -2.2960 -2.8052
  567MOL0     H74788   6.253   3.369   8.072  0.6976  1.9309 -3.3941
  567MOL0     H74789   6.280   3.538   8.335  2.7637 -1.1657  0.3779
  567MOL0     H74790   6.187   3.384   8.311 -0.9566  0.7834  0.0173
  567MOL0     H74791   6.043   3.500   8.134  1.3197  1.3094 -2.9492
  567MOL0     H74792   6.144   3.647   8.165  2.7156  1.0769  2.9304
  567MOL0     H74793   6.082   3.631   8.406  1.1939 -0.5953 -0.0078
  567MOL0     H74794   5.950   3.678   8.314  3.2046  2.2835  1.6454
  567MOL0     H74795   5.915   3.543   8.505  0.0027  1.9229 -0.5281
  567MOL0     H74796   5.980   3.399   8.426  1.3588  1.2928  2.1344
  567MOL0     H74797   5.650   3.493   8.521 -0.6179 -0.7924  0.0698
  567MOL0     H74798   5.387   3.422   8.271  1.6287  2.2473 -0.6682
  567MOL0     H74799   5.391   3.480   8.437  0.5759  0.6440 -0.1254
  567MOL0     H74800   5.439   3.240   8.516  2.4589  0.2366 -1.0900
  567MOL0     H74801   5.441   3.187   8.347 -1.0072 -1.3675  0.1663
  567MOL0     H74802   5.200   3.290   8.512 -0.2158 -0.7138  0.5455
  567MOL0     H74803   5.194   3.287   8.334 -0.1010  1.6585  1.2158
  567MOL0     H74804   5.078   3.113   8.449 -0.5678  1.4968 -2.0722
  567MOL0     H74805   5.238   3.043   8.503 -1.5792  1.0326  2.0027
  567MOL0     H74806   5.011   2.872   8.397 -1.7002  0.4587  0.3475
  567MOL0     H74807   4.850   2.743   8.256 -0.5818  0.2823  0.1488
  567MOL0     H74808   4.529   2.749   7.922  2.1095  0.7375 -1.0409
  567MOL0     H74809   4.352   2.630   7.800 -1.8461 -2.8746 -0.7752
  567MOL0     H74810   4.346   2.499   7.604 -2.8917  0.5384 -2.5782
  567MOL0     H74811   4.201   2.489   7.707 -0.2497 -0.2943  0.7663
  567MOL0     H74812   4.157   2.250   7.591  0.0115 -1.6146 -2.9401
  567MOL0     H74813   4.300   2.286   7.507 -0.5375 -1.6023  0.0496
  567MOL0     H74814   4.176   2.442   7.359  0.1225 -1.1451  1.3868
  567MOL0     H74815   4.070   2.484   7.493  1.4127  1.2746  0.4115
  567MOL0     H74816   4.056   2.207   7.363 -2.4014 -0.3495  0.6057
  567MOL0     H74817   3.952   2.274   7.479 -3.6841  1.9585 -1.4619
  567MOL0     H74818   3.998   2.370   7.189 -1.3760  0.2690 -1.2006
  567MOL0     H74819   3.910   2.462   7.319  3.5018  0.9800  0.1402
  567MOL0     H74820   3.734   2.329   7.204  1.0588 -0.0989 -1.9514
  567MOL0     H74821   3.778   2.235   7.347 -1.2435 -2.2171 -0.9371
  567MOL0     H74822   3.949   2.179   7.110 -0.0598  1.7224  0.4337
  567MOL0     H74823   3.898   2.070   7.237  0.9590  0.1646 -0.0317
  567MOL0     H74824   3.792   2.006   7.033  0.6654  0.4327 -0.5414
  567MOL0     H74825   3.705   2.161   7.029  1.9321  2.2273  2.4176
  567MOL0     H74826   4.574   2.264   7.874  1.0696  0.8034  2.4969
  567MOL0     H74827   4.722   2.386   8.015  0.7612  1.7498 -2.1931
  567MOL0     H74828   5.021   2.942   7.900 -1.1185 -1.8621  0.1958
  567MOL0     H74829   5.174   3.059   8.049  1.1783  1.0196  1.3935
  567MOL0     H74830   6.836   3.463   8.256  1.0018  0.0860  0.6543
  567MOL0     H74831   7.057   3.433   8.376  2.7417 -2.1210  0.7057
  567MOL0     H74832   7.338   3.300   8.626 -0.8911 -2.4732  0.8859
  567MOL0     H74833   7.543   3.300   8.739 -0.8027 -0.8989  1.3308
  567MOL0     H74834   7.901   3.215   8.800 -0.6074 -1.3953 -1.5026
  567MOL0     H74835   7.751   3.313   8.793 -3.2875 -1.9925 -2.0570
  567MOL0     H74836   7.990   3.378   8.672 -0.4516  0.5203 -0.9198
  567MOL0     H74837   7.933   3.268   8.552  1.9656 -0.6704  0.1112
  567MOL0     H74838   7.712   3.417   8.546  0.8084 -0.5459 -4.4471
  567MOL0     H74839   7.860   3.465   8.468 -1.3114 -1.2181 -0.5498
  567MOL0     H74840   7.756   3.651   8.570 -1.2169  2.0327  1.4502
  567MOL0     H74841   7.753   3.591   8.726 -1.2086 -1.0771 -1.2990
  567MOL0     H74842   8.164   3.722   8.708 -0.0802  0.1289  0.2596
  567MOL0     H74843   7.681   2.968   8.492  0.6238 -0.6786  0.0157
  567MOL0     H74844   7.478   2.974   8.364  1.0040 -1.8943  0.9838
  568MOL0     O74845   8.820   3.278   5.527  0.3680 -0.1482  0.5191
  568MOL0     C74846   8.888   3.333   5.440 -0.4771 -0.4303 -0.6918
  568MOL0     O74847   8.855   3.441   5.376 -0.3764 -0.6719  0.2878
  568MOL0     C74848   8.725   3.477   5.379  1.0198  0.9464 -0.5890
  568MOL0     C74849   8.672   3.536   5.495  0.0101  0.0541  0.6114
  568MOL0     C74850   8.538   3.544   5.515  0.6470 -0.9493 -0.5847
  568MOL0     C74851   8.443   3.494   5.421  1.1294  0.1659 -0.5036
  568MOL0     O74852   8.308   3.488   5.435  0.0185 -0.4202 -0.2448
  568MOL0     C74853   8.249   3.529   5.558  0.1707 -0.0802  0.4647
  568MOL0     C74854   8.088   3.498   5.544 -1.1269 -0.2344 -0.0271
  568MOL0     C74855   8.073   3.351   5.534  0.0391 -0.6487  0.3659
  568MOL0     C74856   7.928   3.301   5.523  0.0093 -0.1837  0.8474
  568MOL0     C74857   7.865   3.340   5.384 -0.4542  0.6817  0.0225
  568MOL0     C74858   7.749   3.256   5.348  0.0566  0.0042  0.5925
  568MOL0     C74859   7.698   3.290   5.212  0.2981  0.4175  1.2861
  568MOL0     C74860   7.555   3.227   5.178  0.6490  0.2010 -0.4315
  568MOL0     N74861   7.569   3.082   5.166 -0.0865 -0.0457 -0.3987
  568MOL0     C74862   7.480   2.995   5.211 -0.5450  0.5364  0.5438
  568MOL0     C74863   7.498   2.884   5.136  0.4465  0.8738  0.2836
  568MOL0     C74864   7.418   2.749   5.145 -0.2948 -0.1131  0.6985
  568MOL0     C74865   7.274   2.770   5.121  1.0813 -0.5307  0.0868
  568MOL0     C74866   7.197   2.647   5.159  0.0482  0.7759 -0.2490
  568MOL0     C74867   7.046   2.671   5.129  1.0881  0.3652 -0.3508
  568MOL0     O74868   6.957   2.561   5.157 -0.7054 -0.1054  0.1232
  568MOL0     C74869   6.822   2.577   5.142  0.4800 -0.8742 -0.0777
  568MOL0     C74870   6.746   2.479   5.200 -1.0597  0.1505  0.4978
  568MOL0     C74871   6.609   2.482   5.195  0.8906  0.0888 -0.5092
  568MOL0     C74872   6.547   2.586   5.119  0.2343  0.5376  0.2589
  568MOL0     C74873   6.396   2.585   5.114  0.3606 -1.0326 -0.2694
  568MOL0     O74874   6.332   2.470   5.156 -0.1791 -0.1724 -0.6129
  568MOL0     C74875   6.194   2.471   5.146  0.5814 -0.4877  1.1485
  568MOL0     C74876   6.142   2.443   5.014 -0.6690  0.0828 -0.5854
  568MOL0     C74877   6.010   2.444   4.988  0.9848  0.3304 -0.0797
  568MOL0     C74878   5.919   2.479   5.092  0.0676  0.1266  0.5453
  568MOL0     O74879   5.791   2.501   5.049 -0.4857 -0.3322 -0.3078
  568MOL0     C74880   5.690   2.535   5.146  0.0222  1.3677  0.1797
  568MOL0     C74881   5.556   2.535   5.073 -0.1505 -1.2816  0.0583
  568MOL0     C74882   5.447   2.590   5.168 -0.1137 -0.1350  0.6528
  568MOL0     C74883   5.311   2.626   5.105  0.0263 -0.8453 -0.6535
  568MOL0     C74884   5.233   2.506   5.071  0.5543  0.4710 -0.6978
  568MOL0     C74885   5.159   2.441   5.195  0.0831 -0.1782  0.1691
  568MOL0     C74886   5.090   2.316   5.156 -0.3636  0.0387  1.8277
  568MOL0     C74887   5.009   2.269   5.279 -0.4097  0.3916 -0.4993
  568MOL0    Cl74888   5.126   2.237   5.412  0.2836 -0.2085  0.2141
  568MOL0     C74889   5.969   2.507   5.223  0.5060 -0.6222 -0.6420
  568MOL0     C74890   6.103   2.483   5.249 -0.4076  0.4997 -0.3712
  568MOL0     O74891   6.346   2.695   5.085  0.3066 -0.3126  0.2701
  568MOL0     C74892   6.620   2.684   5.061 -0.4675 -0.2994 -0.7414
  568MOL0     C74893   6.762   2.677   5.064  0.4726  0.7670 -0.6067
  568MOL0     N74894   7.589   2.912   5.043 -0.4365  0.8385  0.6410
  568MOL0     N74895   7.631   3.032   5.055  0.4488 -0.0341 -0.4534
  568MOL0     C74896   8.502   3.434   5.309 -0.6726 -1.0187  0.1707
  568MOL0     C74897   8.634   3.437   5.288 -0.7749  0.1230  0.7821
  568MOL0     C74898   9.014   3.261   5.403  0.0232 -0.5143  0.0142
  568MOL0     C74899   9.091   3.301   5.289 -0.6590  0.7386  0.7794
  568MOL0     C74900   9.218   3.242   5.272  0.1266 -0.2402 -0.3626
  568MOL0     C74901   9.271   3.139   5.350 -0.0558  0.0711 -0.3754
  568MOL0     O74902   9.396   3.103   5.310  0.2958  0.8581  0.2980
  568MOL0     C74903   9.496   3.113   5.412 -0.7773  0.2993 -0.1538
  568MOL0     C74904   9.525   3.260   5.456 -0.4488 -0.7659  0.1011
  568MOL0     C74905   9.614   3.342   5.356  0.7354 -0.1160 -0.2354
  568MOL0     C74906   9.653   3.485   5.417  0.2428  0.2216  0.1192
  568MOL0     C74907   9.527   3.560   5.442 -0.2318 -0.5771 -0.3753
  568MOL0     C74908   9.423   3.619   5.452  0.0457 -0.4437 -1.0074
  568MOL0     C74909   9.189   3.099   5.465 -0.2606  1.1816 -0.1109
  568MOL0     C74910   9.068   3.159   5.493  0.4161 -0.4494  0.2033
  568MOL0     H74911   8.742   3.576   5.568 -1.3221 -0.1727  2.0948
  568MOL0     H74912   8.498   3.596   5.602 -2.2931 -2.1091 -1.1074
  568MOL0     H74913   8.252   3.638   5.550  0.1354 -0.0041  1.4623
  568MOL0     H74914   8.299   3.488   5.645  2.1696  3.4611  1.1889
  568MOL0     H74915   8.040   3.548   5.460 -0.0813  1.6924  0.4659
  568MOL0     H74916   8.039   3.520   5.639 -0.7314 -1.8100  0.5831
  568MOL0     H74917   8.120   3.314   5.626  2.4197  1.5150  0.1197
  568MOL0     H74918   8.127   3.315   5.446  1.1545 -2.8651  1.8503
  568MOL0     H74919   7.933   3.192   5.529  1.5656 -0.2777 -1.2536
  568MOL0     H74920   7.860   3.347   5.596  0.3592  2.0106 -0.1251
  568MOL0     H74921   7.939   3.331   5.304  2.3585  2.8072  2.1812
  568MOL0     H74922   7.834   3.445   5.377  0.6027  0.9136 -1.5929
  568MOL0     H74923   7.669   3.261   5.423  0.3566 -1.5671  1.0552
  568MOL0     H74924   7.783   3.152   5.350  0.2081 -0.3544 -5.2668
  568MOL0     H74925   7.671   3.396   5.204 -0.5336  0.0937 -1.1498
  568MOL0     H74926   7.772   3.268   5.135 -0.2862 -2.3365  1.4220
  568MOL0     H74927   7.517   3.276   5.088  1.5563 -0.7382 -1.3518
  568MOL0     H74928   7.478   3.245   5.254 -0.8004 -0.1421 -1.7647
  568MOL0     H74929   7.400   3.026   5.277 -2.5681  0.6346 -1.8128
  568MOL0     H74930   7.429   2.707   5.245  1.2551  1.3285  1.1610
  568MOL0     H74931   7.457   2.678   5.071 -0.8592  0.0336  0.2523
  568MOL0     H74932   7.262   2.787   5.013  0.7966 -3.1847 -0.3875
  568MOL0     H74933   7.240   2.861   5.170 -1.2407  0.7146 -3.3979
  568MOL0     H74934   7.213   2.555   5.102  0.7300  1.8395 -1.8046
  568MOL0     H74935   7.207   2.626   5.266  0.4779 -1.3219 -0.6517
  568MOL0     H74936   7.043   2.694   5.022 -0.9194 -1.7053 -0.8011
  568MOL0     H74937   7.015   2.762   5.182  3.7745  0.3634  1.4764
  568MOL0     H74938   6.798   2.395   5.244 -0.9105 -1.5301 -2.5956
  568MOL0     H74939   6.540   2.408   5.235 -0.6418  0.5340 -2.1658
  568MOL0     H74940   6.214   2.412   4.938 -1.6707 -2.6445 -0.5455
  568MOL0     H74941   5.975   2.423   4.887 -0.8346  4.0136 -0.3929
  568MOL0     H74942   5.696   2.638   5.182  0.0409  2.4375 -2.6488
  568MOL0     H74943   5.689   2.462   5.227  0.5765  3.0591  1.7663
  568MOL0     H74944   5.529   2.432   5.045  0.6767 -0.9706 -2.0602
  568MOL0     H74945   5.559   2.598   4.984 -1.4701 -3.1120 -1.3598
  568MOL0     H74946   5.485   2.681   5.217  1.3307  0.6470 -1.7806
  568MOL0     H74947   5.441   2.519   5.251  0.0890 -0.9862 -0.0594
  568MOL0     H74948   5.267   2.687   5.184  2.5423 -1.5420  1.4426
  568MOL0     H74949   5.319   2.701   5.026 -0.7681 -1.4300 -1.3096
  568MOL0     H74950   5.294   2.444   5.003 -1.3085 -0.9457 -1.1735
  568MOL0     H74951   5.148   2.533   5.009 -0.5418 -0.4755  0.3478
  568MOL0     H74952   5.088   2.514   5.235 -0.0035  0.5347 -1.2097
  568MOL0     H74953   5.224   2.415   5.279 -0.2475  1.8609  1.1345
  568MOL0     H74954   5.030   2.325   5.065  0.1880  0.9029  1.5429
  568MOL0     H74955   5.165   2.241   5.130 -1.1500  0.6391 -3.0819
  568MOL0     H74956   4.941   2.194   5.237  1.9460 -0.3447 -3.3316
  568MOL0     H74957   4.944   2.350   5.314 -2.7445 -1.4767 -0.2345
  568MOL0     H74958   5.901   2.531   5.304  1.7632 -0.1386  0.2994
  568MOL0     H74959   6.134   2.495   5.352  0.2098  1.0984 -0.6186
  568MOL0     H74960   6.570   2.769   5.016 -0.4328  1.8859  2.9629
  568MOL0     H74961   6.811   2.762   5.017  1.0053  0.6988 -0.1849
  568MOL0     H74962   8.451   3.398   5.220  0.2200 -0.1824 -0.6939
  568MOL0     H74963   8.688   3.399   5.202 -0.0868  1.2029  0.7153
  568MOL0     H74964   9.056   3.379   5.223  3.5984  2.0112 -0.2395
  568MOL0     H74965   9.282   3.283   5.194 -0.6063 -0.2097 -0.9618
  568MOL0     H74966   9.595   3.079   5.379 -0.5173  1.4267 -0.5769
  568MOL0     H74967   9.468   3.056   5.501 -0.1817 -2.0088 -1.3672
  568MOL0     H74968   9.430   3.311   5.474 -1.7052 -2.8719 -0.2402
  568MOL0     H74969   9.582   3.253   5.549  2.1990  0.5359 -1.2904
  568MOL0     H74970   9.567   3.364   5.259  0.6151  1.6148  0.1887
  568MOL0     H74971   9.707   3.287   5.343  1.2647  0.8942 -0.8530
  568MOL0     H74972   9.723   3.465   5.498 -2.0164 -0.6679  1.9507
  568MOL0     H74973   9.706   3.548   5.345 -2.4286  0.8862 -1.3915
  568MOL0     H74974   9.329   3.670   5.454  1.1677  1.7872  0.6337
  568MOL0     H74975   9.219   3.034   5.546 -0.9429  2.8678  1.5682
  568MOL0     H74976   9.005   3.127   5.575  1.3078 -5.0536 -0.6478
  569MOL0     O74977   2.694   1.986   0.342 -1.3981 -0.0113  0.4943
  569MOL0     C74978   2.776   1.898   0.324  0.1912 -0.5474 -0.2198
  569MOL0     O74979   2.762   1.769   0.350  0.2650 -0.2126 -0.8110
  569MOL0     C74980   2.663   1.718   0.428  0.7051  0.4004 -0.9320
  569MOL0     C74981   2.574   1.776   0.515 -0.1875  1.0386 -0.1020
  569MOL0     C74982   2.484   1.697   0.592 -0.9242 -0.3356 -0.0732
  569MOL0     C74983   2.469   1.560   0.565  0.4604 -1.0891  0.4298
  569MOL0     O74984   2.363   1.492   0.626  0.8842  0.0758 -0.3873
  569MOL0     C74985   2.376   1.348   0.620  1.0112  1.2940 -0.2097
  569MOL0     C74986   2.269   1.271   0.711  0.3923 -0.2513 -0.1409
  569MOL0     C74987   2.141   1.238   0.631 -0.0751  1.2499 -0.5271
  569MOL0     C74988   2.038   1.161   0.717  0.8160 -0.5982 -0.2961
  569MOL0     C74989   1.920   1.121   0.632  0.0986 -0.2355  0.4879
  569MOL0     C74990   1.856   0.982   0.683  0.2361 -0.0336 -0.3439
  569MOL0     C74991   1.714   0.954   0.630  1.0556  0.3781  0.8813
  569MOL0     C74992   1.613   1.059   0.678 -0.2983  0.3679  0.0412
  569MOL0     N74993   1.468   1.025   0.647  0.0133 -0.8251 -0.1529
  569MOL0     C74994   1.363   1.064   0.718 -0.7180 -0.5903 -0.0972
  569MOL0     C74995   1.255   0.997   0.679 -0.6336  1.1047  0.0304
  569MOL0     C74996   1.128   0.987   0.759 -0.1743 -0.1177 -0.1910
  569MOL0     C74997   1.011   1.068   0.704  0.3177  0.2585 -1.5713
  569MOL0     C74998   0.948   1.016   0.574 -0.6320  0.6243  0.3869
  569MOL0     C74999   0.888   0.874   0.578 -0.1959 -0.1570  0.5156
  569MOL0     O75000   0.835   0.842   0.453  0.1964  0.2973  0.3465
  569MOL0     C75001   0.750   0.734   0.439 -0.4600  0.1871  0.3725
  569MOL0     C75002   0.663   0.731   0.326  0.4326 -0.4370  0.4774
  569MOL0     C75003   0.538   0.659   0.317  0.1008 -0.5673 -0.4120
  569MOL0     C75004   0.509   0.579   0.430 -0.1220 -0.1406  0.4491
  569MOL0     C75005   0.379   0.517   0.439 -0.6556 -0.3695 -0.0754
  569MOL0     O75006   0.320   0.507   0.320 -0.3630  0.5739 -0.0993
  569MOL0     C75007   0.182   0.476   0.297 -0.0328 -0.3819 -0.3136
  569MOL0     C75008   0.147   0.422   0.176  0.6409 -0.4501 -0.2613
  569MOL0     C75009   0.014   0.398   0.147  0.5941 -0.2605 -0.2191
  569MOL0     C75010  -0.089   0.406   0.241  0.1817  0.4460 -0.1898
  569MOL0     O75011  -0.221   0.376   0.206  0.2691 -0.4190  0.6626
  569MOL0     C75012  -0.319   0.378   0.308 -0.4750 -0.6323 -0.5306
  569MOL0     C75013  -0.456   0.335   0.251  0.2902 -0.1542  0.5976
  569MOL0     C75014  -0.566   0.380   0.343  0.6370 -0.5636 -0.6449
  569MOL0     C75015  -0.705   0.319   0.297 -0.0619  0.2286  0.4046
  569MOL0     C75016  -0.830   0.369   0.370  1.2633  0.5630 -0.1510
  569MOL0     C75017  -0.825   0.320   0.517 -0.2571  0.1543 -0.4223
  569MOL0     C75018  -0.950   0.365   0.601  0.5018  0.3656 -0.3351
  569MOL0     C75019  -1.081   0.317   0.540 -0.0140  0.9821 -0.3887
  569MOL0    Cl75020  -1.149   0.432   0.429  0.2127  0.3659 -0.4400
  569MOL0     C75021  -0.051   0.449   0.377 -0.0423 -0.3484  0.1755
  569MOL0     C75022   0.080   0.483   0.397  0.9676 -0.4161  0.1099
  569MOL0     O75023   0.334   0.477   0.544 -0.8420 -0.1134  0.5128
  569MOL0     C75024   0.597   0.574   0.537 -0.3639  0.4162 -0.6691
  569MOL0     C75025   0.721   0.644   0.540 -0.2374 -0.9470  0.2270
  569MOL0     N75026   1.289   0.912   0.575 -0.2248 -0.7168 -0.1178
  569MOL0     N75027   1.418   0.936   0.557 -0.8923 -0.0656  0.0422
  569MOL0     C75028   2.568   1.499   0.484 -0.5325  0.3992 -0.7860
  569MOL0     C75029   2.663   1.581   0.420  0.2631 -0.1704  1.0999
  569MOL0     C75030   2.902   1.933   0.261  0.8711 -0.3356 -0.9885
  569MOL0     C75031   2.997   1.832   0.233  0.8426 -0.8634 -0.7401
  569MOL0     C75032   3.115   1.869   0.157 -0.2131  0.4693 -0.4210
  569MOL0     C75033   3.142   1.997   0.116  0.1938  0.1574  1.7289
  569MOL0     O75034   3.255   2.036   0.046 -0.4012 -0.1061  0.3760
  569MOL0     C75035   3.378   1.951   0.044 -0.6860  0.0741  1.1218
  569MOL0     C75036   3.472   2.011  -0.059  0.5185 -0.1797  0.1541
  569MOL0     C75037   3.446   1.968  -0.205  0.0357  0.1333 -0.4891
  569MOL0     C75038   3.563   2.002  -0.291  0.0018 -0.7240 -0.0037
  569MOL0     C75039   3.569   2.147  -0.324  0.1762 -0.4828  0.3039
  569MOL0     C75040   3.578   2.272  -0.350  0.4424 -0.2526 -0.0442
  569MOL0     C75041   3.057   2.095   0.161  0.1789  1.1712  0.0495
  569MOL0     C75042   2.940   2.068   0.235 -0.1131 -0.2638  0.7989
  569MOL0     H75043   2.571   1.883   0.535 -1.7700  0.9122  0.4181
  569MOL0     H75044   2.412   1.746   0.656  0.5135  0.3972  1.0547
  569MOL0     H75045   2.470   1.310   0.661  0.3957 -0.9599 -0.6940
  569MOL0     H75046   2.364   1.313   0.517 -1.1692  2.5246 -0.4262
  569MOL0     H75047   2.232   1.345   0.783 -2.7428 -0.1688 -1.6354
  569MOL0     H75048   2.301   1.180   0.763 -0.9705 -0.0938  1.0301
  569MOL0     H75049   2.168   1.195   0.535  2.7371  0.3334  0.5737
  569MOL0     H75050   2.094   1.333   0.603 -2.5082  0.6697  1.2575
  569MOL0     H75051   2.085   1.069   0.754  0.1090 -1.3552 -1.2394
  569MOL0     H75052   2.000   1.218   0.802 -0.6007  0.4014 -1.5451
  569MOL0     H75053   1.954   1.110   0.529 -0.7986  1.0582  0.0300
  569MOL0     H75054   1.855   1.208   0.644  1.3549  0.8282 -0.1940
  569MOL0     H75055   1.843   0.974   0.792 -0.6502  0.4245 -0.4082
  569MOL0     H75056   1.919   0.896   0.660 -1.3595 -0.7518 -2.3347
  569MOL0     H75057   1.724   0.971   0.522  0.7353  0.6753  0.8988
  569MOL0     H75058   1.677   0.852   0.643  1.9401 -0.1856 -0.6653
  569MOL0     H75059   1.649   1.147   0.625  0.4373 -0.1665 -0.3544
  569MOL0     H75060   1.626   1.065   0.787  0.8082 -1.2684  0.0248
  569MOL0     H75061   1.377   1.121   0.809 -1.1395  0.8329 -0.8940
  569MOL0     H75062   1.148   1.040   0.852 -1.4668 -2.0477  1.2629
  569MOL0     H75063   1.102   0.881   0.768 -0.6757  0.0096 -0.1385
  569MOL0     H75064   1.052   1.166   0.679  1.5308  0.3746  0.6640
  569MOL0     H75065   0.929   1.078   0.777  0.7625  0.5300 -1.1048
  569MOL0     H75066   0.874   1.091   0.544  0.7174  1.5182 -0.8401
  569MOL0     H75067   1.025   1.010   0.496 -1.5331 -0.8021 -0.4510
  569MOL0     H75068   0.820   0.864   0.662  2.3865  1.2628  2.9348
  569MOL0     H75069   0.971   0.809   0.604  0.7385  1.5104  1.9328
  569MOL0     H75070   0.676   0.808   0.250 -1.8680  0.0920  0.5511
  569MOL0     H75071   0.470   0.664   0.233 -1.4231 -0.5842  0.7808
  569MOL0     H75072   0.217   0.395   0.097  1.2602  0.3549  0.0014
  569MOL0     H75073  -0.024   0.361   0.053 -0.7785  0.3259  0.0815
  569MOL0     H75074  -0.332   0.477   0.352 -0.1908 -0.1541 -1.4972
  569MOL0     H75075  -0.292   0.317   0.395 -1.3751 -1.7168 -0.9989
  569MOL0     H75076  -0.463   0.231   0.216 -2.7093  0.0425  0.3738
  569MOL0     H75077  -0.462   0.394   0.159  2.3637 -1.4946 -0.4734
  569MOL0     H75078  -0.568   0.489   0.351 -0.8430 -0.7307  2.8727
  569MOL0     H75079  -0.540   0.353   0.446 -1.5140 -0.2595  0.0310
  569MOL0     H75080  -0.718   0.368   0.200  3.8196  0.0053 -0.3835
  569MOL0     H75081  -0.695   0.213   0.273 -1.2441  0.6883 -2.6112
  569MOL0     H75082  -0.916   0.327   0.317  0.2588  0.6087  1.3915
  569MOL0     H75083  -0.830   0.477   0.356  2.7177  0.2737 -3.1431
  569MOL0     H75084  -0.732   0.359   0.560  1.4228 -1.8143 -2.0687
  569MOL0     H75085  -0.822   0.211   0.521 -0.2121  0.0553 -2.4298
  569MOL0     H75086  -0.935   0.321   0.700 -3.5824 -2.2182 -0.6252
  569MOL0     H75087  -0.948   0.474   0.599 -1.0848  0.4313  0.6419
  569MOL0     H75088  -1.154   0.306   0.621  0.9455 -2.9810  0.1659
  569MOL0     H75089  -1.065   0.218   0.497  0.8934  0.0572  1.9199
  569MOL0     H75090  -0.117   0.459   0.463 -0.5059 -0.6056 -0.1473
  569MOL0     H75091   0.099   0.505   0.502 -0.7657  0.1206  0.3395
  569MOL0     H75092   0.578   0.518   0.628 -0.2912 -1.1376 -1.5603
  569MOL0     H75093   0.775   0.645   0.634  0.0917  0.6737  0.0563
  569MOL0     H75094   2.579   1.391   0.482 -0.6063  0.3924 -0.8305
  569MOL0     H75095   2.736   1.546   0.349 -0.9126 -2.2522  0.8474
  569MOL0     H75096   2.968   1.733   0.268  0.1673  0.0266  1.4033
  569MOL0     H75097   3.183   1.787   0.140  1.4988  2.0895 -1.7877
  569MOL0     H75098   3.345   1.848   0.032  3.4485 -1.3158  0.3753
  569MOL0     H75099   3.426   1.953   0.142 -0.3135 -0.4938  0.9535
  569MOL0     H75100   3.475   2.120  -0.056  0.1854 -0.1476 -0.4072
  569MOL0     H75101   3.568   1.969  -0.030 -0.3036 -1.5387  1.0102
  569MOL0     H75102   3.353   2.010  -0.246  0.2591  2.5731  1.2823
  569MOL0     H75103   3.440   1.859  -0.205 -0.3407  0.1052  2.1239
  569MOL0     H75104   3.656   1.977  -0.240  0.6160  1.3352 -0.0121
  569MOL0     H75105   3.557   1.949  -0.387 -3.3285 -0.1525 -0.2350
  569MOL0     H75106   3.577   2.379  -0.359  2.1332  0.0063  2.1001
  569MOL0     H75107   3.082   2.200   0.150  1.1566  0.9100 -0.3886
  569MOL0     H75108   2.863   2.142   0.255  0.4449  0.8675 -1.0265
  570MOL0     O75109   9.765   6.967   1.613  0.3209  0.4038  0.4379
  570MOL0     C75110   9.740   6.849   1.596  1.2218  0.2879 -0.1613
  570MOL0     O75111   9.695   6.768   1.697 -0.5094 -0.4257  0.8177
  570MOL0     C75112   9.681   6.812   1.825 -0.1326 -0.1521 -0.2917
  570MOL0     C75113   9.550   6.803   1.875 -0.7727 -0.2506 -0.0436
  570MOL0     C75114   9.533   6.839   2.004  0.4142  0.5297 -0.8254
  570MOL0     C75115   9.635   6.886   2.088  0.6269 -0.4939  0.6505
  570MOL0     O75116   9.602   6.929   2.214  0.3300  0.1866 -0.3577
  570MOL0     C75117   9.688   7.025   2.277 -0.3700 -0.3430 -0.5180
  570MOL0     C75118   9.594   7.098   2.379  0.0942 -0.3151  0.1582
  570MOL0     C75119   9.648   7.245   2.412 -0.0431  0.2155 -1.2306
  570MOL0     C75120   9.703   7.334   2.304 -0.6857  0.0265  0.2632
  570MOL0     C75121   9.738   7.478   2.348  0.1064 -0.8837 -0.2679
  570MOL0     C75122   9.859   7.467   2.441  0.5754  0.7002  0.0767
  570MOL0     C75123   9.915   7.607   2.477  0.1777  0.2416 -0.1382
  570MOL0     C75124  10.033   7.595   2.571  0.1003  0.3865 -0.9818
  570MOL0     N75125  10.162   7.545   2.509  0.5844  0.0165  0.0825
  570MOL0     C75126  10.272   7.625   2.489  0.3119  0.6342 -1.0613
  570MOL0     C75127  10.366   7.545   2.443 -0.4227  0.1562 -0.2692
  570MOL0     C75128  10.493   7.603   2.393 -0.7122 -0.0386 -0.3756
  570MOL0     C75129  10.485   7.732   2.330 -0.6416  0.5191 -0.0253
  570MOL0     C75130  10.613   7.769   2.246 -0.4854  0.2827 -0.2673
  570MOL0     C75131  10.668   7.897   2.293 -0.1818 -0.2730 -0.1203
  570MOL0     O75132  10.790   7.926   2.216  0.0317 -0.3649  0.4509
  570MOL0     C75133  10.857   8.047   2.231  0.0489 -0.3988  0.5651
  570MOL0     C75134  10.819   8.163   2.296  0.1087 -0.6462 -0.3157
  570MOL0     C75135  10.900   8.284   2.294  0.2221 -0.4623  0.8639
  570MOL0     C75136  11.002   8.292   2.202  0.1322  0.2233 -0.1700
  570MOL0     C75137  11.069   8.423   2.168 -0.0038  0.7275  0.3941
  570MOL0     O75138  11.183   8.426   2.095  0.4401  0.6142 -0.8706
  570MOL0     C75139  11.252   8.537   2.056 -0.3282 -0.4106  0.6694
  570MOL0     C75140  11.234   8.670   2.111  0.5004  0.2570 -0.3883
  570MOL0     C75141  11.320   8.771   2.067  0.4977  0.7643 -0.4820
  570MOL0     C75142  11.421   8.751   1.978 -1.2093  0.6781  0.4071
  570MOL0     O75143  11.519   8.841   1.929  0.0952  0.2724  0.2135
  570MOL0     C75144  11.517   8.980   1.971 -0.1537 -0.3317  0.3504
  570MOL0     C75145  11.569   8.985   2.114  0.8210  0.3380 -0.4743
  570MOL0     C75146  11.724   8.968   2.117 -0.2756  1.0505  0.6937
  570MOL0     C75147  11.782   8.994   2.253  0.5201 -0.3556 -0.1320
  570MOL0     C75148  11.934   8.970   2.243  0.7435 -0.6291  0.9606
  570MOL0     C75149  12.016   8.984   2.375 -0.2454  0.8898  0.0777
  570MOL0     C75150  12.009   9.123   2.430  0.5383  0.2673  0.2697
  570MOL0     C75151  12.085   9.136   2.558 -0.4639 -0.0720  0.0774
  570MOL0    Cl75152  12.009   9.018   2.688 -0.4380 -0.3097  0.0964
  570MOL0     C75153  11.439   8.618   1.928  1.2654 -0.3455 -1.0711
  570MOL0     C75154  11.356   8.517   1.966  0.5447  0.2123  1.5218
  570MOL0     O75155  11.013   8.516   2.206 -0.0100  0.5000  0.4387
  570MOL0     C75156  11.035   8.172   2.125 -0.0249  0.4147 -0.5078
  570MOL0     C75157  10.964   8.056   2.145 -0.2544  0.3340  0.3756
  570MOL0     N75158  10.321   7.414   2.435 -0.4303  0.2484  0.8429
  570MOL0     N75159  10.200   7.413   2.478  0.1436  0.8810 -0.4526
  570MOL0     C75160   9.767   6.888   2.036  0.1965 -0.7657 -1.2821
  570MOL0     C75161   9.788   6.848   1.907  0.6738  0.5785 -0.2311
  570MOL0     C75162   9.779   6.785   1.478  0.3432 -0.2646 -0.7023
  570MOL0     C75163   9.845   6.859   1.370 -0.7860  0.4159 -0.8326
  570MOL0     C75164   9.867   6.802   1.252 -0.2628  0.8225  1.3311
  570MOL0     C75165   9.828   6.673   1.227 -0.5690 -0.7537  0.0416
  570MOL0     O75166   9.845   6.613   1.106 -0.2514 -0.0430  0.3759
  570MOL0     C75167   9.843   6.689   0.985 -0.4940  0.4484 -0.1373
  570MOL0     C75168   9.851   6.600   0.866 -0.0697 -0.5824  0.5215
  570MOL0     C75169   9.990   6.527   0.863  0.3011  0.0435  0.4815
  570MOL0     C75170   9.991   6.418   0.752  0.1707  0.6890 -0.4896
  570MOL0     C75171  10.114   6.335   0.753  0.3104  0.3879  0.5856
  570MOL0     C75172  10.226   6.288   0.753  0.0480  0.1728 -0.3185
  570MOL0     C75173   9.770   6.601   1.331  0.1624  0.3785  0.7452
  570MOL0     C75174   9.752   6.649   1.457 -0.4451 -0.0377 -0.2417
  570MOL0     H75175   9.474   6.777   1.802  0.3444 -0.0579 -1.3169
  570MOL0     H75176   9.434   6.842   2.047  1.5106  0.0107  1.9711
  570MOL0     H75177   9.730   7.101   2.211  2.0428 -1.5343 -0.4560
  570MOL0     H75178   9.772   6.974   2.325  0.4487  1.0083 -0.4486
  570MOL0     H75179   9.576   7.048   2.474 -0.4520  0.5326  0.5190
  570MOL0     H75180   9.499   7.112   2.327  1.0425 -2.3156 -2.2982
  570MOL0     H75181   9.724   7.233   2.490 -2.2006  0.1421  0.9833
  570MOL0     H75182   9.559   7.296   2.449  0.0217 -0.8761  0.5446
  570MOL0     H75183   9.791   7.288   2.259 -2.2678 -1.2098 -1.7042
  570MOL0     H75184   9.630   7.334   2.223  1.5351  0.4747 -1.8410
  570MOL0     H75185   9.662   7.528   2.408 -0.3588 -0.6088 -1.0609
  570MOL0     H75186   9.751   7.545   2.263 -1.0030  1.0239  1.0066
  570MOL0     H75187   9.935   7.400   2.399  0.3249  0.7436 -0.4518
  570MOL0     H75188   9.832   7.423   2.538  2.3566  1.6402  1.0558
  570MOL0     H75189   9.955   7.659   2.389 -2.3359  0.6731 -1.1051
  570MOL0     H75190   9.832   7.657   2.527 -1.6298 -2.9411  0.2650
  570MOL0     H75191  10.006   7.529   2.653  3.7636 -2.7559 -2.0062
  570MOL0     H75192  10.064   7.687   2.622 -0.1516 -1.2098  2.3022
  570MOL0     H75193  10.291   7.732   2.496  0.4169  0.5539  0.0794
  570MOL0     H75194  10.554   7.527   2.343  1.1831  0.7503  0.6323
  570MOL0     H75195  10.549   7.608   2.487 -1.3658 -1.3975  0.1038
  570MOL0     H75196  10.464   7.808   2.406  0.5350  1.8296 -0.9673
  570MOL0     H75197  10.406   7.721   2.255 -1.1726  0.6381  0.5074
  570MOL0     H75198  10.688   7.690   2.247  1.7762  2.3201 -0.9270
  570MOL0     H75199  10.584   7.764   2.141 -0.1419 -2.2751 -0.3039
  570MOL0     H75200  10.698   7.898   2.398  1.6982 -0.6666 -0.6060
  570MOL0     H75201  10.591   7.974   2.281 -0.5143 -0.8420 -2.1320
  570MOL0     H75202  10.727   8.173   2.351 -0.4752  1.7602 -1.5939
  570MOL0     H75203  10.871   8.380   2.334  1.1905 -0.3912  1.4233
  570MOL0     H75204  11.159   8.674   2.189 -0.4152 -3.6631 -0.8540
  570MOL0     H75205  11.313   8.872   2.107  0.8291  0.9976 -0.9960
  570MOL0     H75206  11.416   9.021   1.962  0.0481  0.1726  0.3531
  570MOL0     H75207  11.585   9.036   1.905 -0.7351 -0.6868 -0.5612
  570MOL0     H75208  11.515   8.901   2.159 -1.9241  0.7103 -2.7297
  570MOL0     H75209  11.533   9.073   2.167 -2.3464  1.1550 -3.5345
  570MOL0     H75210  11.768   9.045   2.053  1.9273 -0.2078  0.6005
  570MOL0     H75211  11.753   8.870   2.079 -2.4022  1.5197 -2.4937
  570MOL0     H75212  11.756   9.095   2.288 -2.4096 -0.5309 -1.4939
  570MOL0     H75213  11.749   8.924   2.329  3.9863 -0.7728  1.1861
  570MOL0     H75214  11.974   9.048   2.179  2.3760 -1.5885  0.7571
  570MOL0     H75215  11.946   8.867   2.207  0.1871 -0.3077 -0.1836
  570MOL0     H75216  12.121   8.967   2.352 -0.5908  0.1650 -1.0386
  570MOL0     H75217  11.973   8.914   2.448 -0.9699  1.2058 -0.0416
  570MOL0     H75218  12.047   9.206   2.370 -1.4326  3.8531  3.4968
  570MOL0     H75219  11.908   9.160   2.452  0.5396  0.3659  0.1118
  570MOL0     H75220  12.106   9.237   2.592 -1.1442  0.2877 -0.5454
  570MOL0     H75221  12.181   9.087   2.541 -1.4531 -1.1198 -3.5246
  570MOL0     H75222  11.507   8.593   1.847  0.2879  2.2904 -2.8587
  570MOL0     H75223  11.377   8.416   1.931 -1.1546 -0.0955  1.2865
  570MOL0     H75224  11.115   8.183   2.053  1.0246  1.7309  0.8184
  570MOL0     H75225  10.986   7.969   2.084 -1.5115  1.3900 -1.7313
  570MOL0     H75226   9.849   6.930   2.094 -2.0284 -0.6836  2.0034
  570MOL0     H75227   9.886   6.861   1.862  0.8252  2.3805  0.5344
  570MOL0     H75228   9.859   6.967   1.372 -0.1180  0.3237  1.3943
  570MOL0     H75229   9.916   6.850   1.168 -1.6384 -1.4647 -0.8992
  570MOL0     H75230   9.924   6.762   0.975 -0.5948  0.7269  0.9232
  570MOL0     H75231   9.751   6.744   0.967  0.4338  1.1357 -3.2774
  570MOL0     H75232   9.767   6.529   0.866 -0.4586 -0.1578  1.9501
  570MOL0     H75233   9.844   6.648   0.768 -2.3129  0.9504  1.3607
  570MOL0     H75234  10.018   6.478   0.957  1.2874  0.5386  0.4638
  570MOL0     H75235  10.065   6.604   0.843 -1.1322  1.0473 -1.3332
  570MOL0     H75236   9.904   6.352   0.759  0.6864 -0.2458 -2.3468
  570MOL0     H75237   9.993   6.473   0.657  1.3749  2.3644  0.4679
  570MOL0     H75238  10.326   6.263   0.725 -0.0653 -0.5522 -0.0993
  570MOL0     H75239   9.744   6.497   1.311 -2.0392  0.6779  1.7395
  570MOL0     H75240   9.711   6.579   1.530  3.0014 -1.0682  0.8934
  571MOL0     O75241  10.781   0.317   5.115 -0.0845  0.1919  0.0320
  571MOL0     C75242  10.856   0.270   5.202  0.4959 -0.0520  0.1360
  571MOL0     O75243  10.812   0.200   5.312 -0.5450 -0.7097 -0.2238
  571MOL0     C75244  10.679   0.173   5.311 -0.0662  0.0883 -0.2894
  571MOL0     C75245  10.611   0.087   5.220 -0.9737 -0.5809  0.1378
  571MOL0     C75246  10.493   0.043   5.252 -0.3079  0.2883 -0.2953
  571MOL0     C75247  10.412   0.102   5.339  0.3554 -0.3283  0.5742
  571MOL0     O75248  10.277   0.081   5.332 -0.2378 -0.2374  0.6446
  571MOL0     C75249  10.232  -0.049   5.355 -0.2719  0.1210 -0.5841
  571MOL0     C75250  10.087  -0.036   5.392  0.1977 -0.0308 -0.7936
  571MOL0     C75251  10.059  -0.013   5.539  0.7110 -0.1081 -0.5864
  571MOL0     C75252  10.115  -0.118   5.635  0.2528  0.4600  0.5004
  571MOL0     C75253  10.028  -0.136   5.751 -0.2975 -0.4959 -1.2268
  571MOL0     C75254   9.908  -0.228   5.721 -0.5186  0.9857 -0.0051
  571MOL0     C75255   9.803  -0.262   5.833  0.1514  0.7752 -0.4919
  571MOL0     C75256   9.732  -0.392   5.796 -0.0354 -0.3299 -0.0380
  571MOL0     N75257   9.613  -0.422   5.874 -0.0412 -0.7949 -0.8932
  571MOL0     C75258   9.607  -0.416   6.011  1.0641  0.3503  0.1220
  571MOL0     C75259   9.500  -0.497   6.042  0.2643  0.8139 -0.1802
  571MOL0     C75260   9.443  -0.532   6.175 -0.8102  0.5088 -0.1747
  571MOL0     C75261   9.296  -0.586   6.162 -0.5914 -0.2323  0.2328
  571MOL0     C75262   9.213  -0.581   6.297 -0.1161  0.3413 -0.5066
  571MOL0     C75263   9.157  -0.448   6.337 -0.0439  0.3040 -0.7052
  571MOL0     O75264   9.115  -0.449   6.474  0.3164 -0.2989  0.1695
  571MOL0     C75265   8.988  -0.470   6.514 -0.0187 -0.7183 -0.9536
  571MOL0     C75266   8.889  -0.524   6.434 -0.7235 -0.3796 -0.9616
  571MOL0     C75267   8.759  -0.553   6.483 -0.8527  0.5375 -0.8721
  571MOL0     C75268   8.730  -0.540   6.622 -0.2168 -0.0442 -0.0722
  571MOL0     C75269   8.605  -0.587   6.679 -0.1674 -0.1218 -0.4146
  571MOL0     O75270   8.511  -0.612   6.590  0.0164  0.3948  0.6808
  571MOL0     C75271   8.393  -0.638   6.649  0.2099  0.5174 -0.3472
  571MOL0     C75272   8.348  -0.771   6.648  1.1020  0.3486  0.3986
  571MOL0     C75273   8.214  -0.802   6.693 -0.5246 -0.2598 -0.0609
  571MOL0     C75274   8.133  -0.699   6.738 -0.4554  0.6786 -0.3138
  571MOL0     O75275   8.007  -0.734   6.786 -0.2264 -0.3396  0.5079
  571MOL0     C75276   7.925  -0.647   6.861 -0.1517  0.6522 -0.0947
  571MOL0     C75277   7.789  -0.712   6.886  0.3390  0.4227 -0.0690
  571MOL0     C75278   7.739  -0.685   7.026  0.8186 -0.4027 -0.0299
  571MOL0     C75279   7.631  -0.789   7.060  0.4335 -0.1209 -0.5825
  571MOL0     C75280   7.537  -0.745   7.173  0.3793  0.3135  0.1872
  571MOL0     C75281   7.413  -0.692   7.115 -0.0628 -0.2130  0.3307
  571MOL0     C75282   7.324  -0.612   7.209 -0.0423 -0.6467  0.3244
  571MOL0     C75283   7.177  -0.621   7.164  0.7155  0.4276  0.0941
  571MOL0    Cl75284   7.082  -0.514   7.275 -0.4275 -0.1562 -0.3574
  571MOL0     C75285   8.176  -0.566   6.737 -0.8661 -0.5993  0.5464
  571MOL0     C75286   8.311  -0.534   6.696  1.5585  0.2603 -0.1994
  571MOL0     O75287   8.598  -0.610   6.804 -0.3130 -0.0732  0.6329
  571MOL0     C75288   8.829  -0.477   6.702 -0.2041  0.0899 -1.0354
  571MOL0     C75289   8.954  -0.443   6.655 -0.7043  0.4305  0.1679
  571MOL0     N75290   9.459  -0.568   5.927  0.0815 -0.4606 -0.2700
  571MOL0     N75291   9.530  -0.523   5.832 -1.5512  0.0955  0.5602
  571MOL0     C75292  10.462   0.203   5.418  0.4691 -0.8198 -0.1064
  571MOL0     C75293  10.600   0.239   5.403  0.2235  0.3045 -1.3105
  571MOL0     C75294  10.998   0.320   5.196  0.1024 -0.4009 -0.2059
  571MOL0     C75295  11.078   0.336   5.315  0.0736 -0.0472 -0.2048
  571MOL0     C75296  11.213   0.364   5.303  0.0023 -0.1864 -0.5171
  571MOL0     C75297  11.262   0.405   5.178 -0.4716 -0.3334 -0.2040
  571MOL0     O75298  11.395   0.439   5.174  0.0304 -0.5213  0.6550
  571MOL0     C75299  11.429   0.539   5.066  0.1238  0.5575  0.3243
  571MOL0     C75300  11.540   0.627   5.110  0.4616  1.1678  0.8668
  571MOL0     C75301  11.581   0.747   5.022  0.8779 -0.4752 -0.8066
  571MOL0     C75302  11.689   0.832   5.084  0.4511  0.2883 -0.1734
  571MOL0     C75303  11.815   0.758   5.081  1.3257 -0.2791  0.9075
  571MOL0     C75304  11.914   0.698   5.081 -0.1749  0.6030 -0.6550
  571MOL0     C75305  11.179   0.392   5.068  0.6661 -0.2834 -0.2058
  571MOL0     C75306  11.052   0.336   5.074 -0.4594  0.0470  0.5290
  571MOL0     H75307  10.658   0.037   5.136 -6.6152 -0.3586 -3.7283
  571MOL0     H75308  10.464  -0.042   5.191  2.1312 -0.3291 -0.6719
  571MOL0     H75309  10.280  -0.104   5.436  1.2355  0.3292 -1.3162
  571MOL0     H75310  10.241  -0.114   5.267 -1.3110 -0.2073 -0.4667
  571MOL0     H75311  10.037  -0.129   5.362 -2.3057  1.1246 -0.4448
  571MOL0     H75312  10.047   0.052   5.341 -0.8036 -0.3157 -0.5210
  571MOL0     H75313   9.950  -0.007   5.541  0.6320 -1.2402 -0.6648
  571MOL0     H75314  10.094   0.087   5.564 -1.7394  0.8995 -0.8976
  571MOL0     H75315  10.122  -0.212   5.580  1.8654  1.1078 -0.4659
  571MOL0     H75316  10.217  -0.093   5.666  0.1947  1.6888 -0.2416
  571MOL0     H75317  10.005  -0.043   5.804 -1.9181 -1.9076  0.7106
  571MOL0     H75318  10.093  -0.194   5.817  3.1241  1.6419 -2.4361
  571MOL0     H75319   9.949  -0.327   5.698 -0.9732  0.9369 -0.6073
  571MOL0     H75320   9.862  -0.194   5.628  1.1305  0.8977 -0.8924
  571MOL0     H75321   9.842  -0.280   5.934 -1.8943  0.3126  0.2771
  571MOL0     H75322   9.730  -0.183   5.850  0.9982  1.8897 -1.8496
  571MOL0     H75323   9.800  -0.477   5.805  1.4941  0.8425  0.0949
  571MOL0     H75324   9.693  -0.384   5.694 -2.3898  1.4560  0.9167
  571MOL0     H75325   9.671  -0.365   6.082  1.3799 -1.0121  0.8435
  571MOL0     H75326   9.445  -0.440   6.234  2.0624  0.6833 -0.4016
  571MOL0     H75327   9.502  -0.616   6.214  3.3792  3.0905 -0.2917
  571MOL0     H75328   9.297  -0.691   6.130  2.4953 -1.1540  2.8183
  571MOL0     H75329   9.246  -0.535   6.079  0.4459  1.6335  0.7132
  571MOL0     H75330   9.135  -0.658   6.298  0.2163  0.0121  0.4369
  571MOL0     H75331   9.278  -0.615   6.378 -0.7513 -3.3742 -1.3883
  571MOL0     H75332   9.069  -0.426   6.276  1.3917  3.2901 -1.9018
  571MOL0     H75333   9.233  -0.372   6.315 -0.9150  1.1128 -1.0020
  571MOL0     H75334   8.916  -0.568   6.338 -2.2226  0.2549 -1.7097
  571MOL0     H75335   8.682  -0.598   6.420 -2.2610 -1.2374  1.9198
  571MOL0     H75336   8.412  -0.840   6.594 -0.8035 -2.5630  1.5980
  571MOL0     H75337   8.181  -0.905   6.687  0.1532 -0.6578  1.9528
  571MOL0     H75338   7.910  -0.560   6.796 -1.1203 -0.7200 -1.7985
  571MOL0     H75339   7.979  -0.620   6.952 -0.6554  0.4548  0.2667
  571MOL0     H75340   7.809  -0.819   6.874  0.5011  0.3246  0.9738
  571MOL0     H75341   7.722  -0.672   6.809  0.3366  0.9194  0.1878
  571MOL0     H75342   7.693  -0.586   7.034  0.9418 -0.2414 -1.1571
  571MOL0     H75343   7.822  -0.690   7.097 -0.8513 -1.1541  1.9606
  571MOL0     H75344   7.571  -0.816   6.973 -1.5670 -2.6686  1.4073
  571MOL0     H75345   7.688  -0.877   7.093  5.3060  2.5541 -0.9362
  571MOL0     H75346   7.590  -0.672   7.235  2.0911 -0.9767  0.3254
  571MOL0     H75347   7.528  -0.835   7.235  1.7233  0.4332  0.6019
  571MOL0     H75348   7.348  -0.768   7.073 -1.4522  1.4425 -0.6325
  571MOL0     H75349   7.443  -0.630   7.030  0.4868 -2.0346 -0.8603
  571MOL0     H75350   7.325  -0.651   7.311  1.3126  0.7272  0.8875
  571MOL0     H75351   7.354  -0.506   7.217 -0.5784 -0.4872  0.2441
  571MOL0     H75352   7.135  -0.720   7.183  0.7367  0.4033  0.0123
  571MOL0     H75353   7.164  -0.587   7.061  0.5280  0.1156  0.0123
  571MOL0     H75354   8.123  -0.473   6.756  1.8335  1.9857 -2.9843
  571MOL0     H75355   8.345  -0.431   6.697  0.1462  0.7825  1.6735
  571MOL0     H75356   8.808  -0.457   6.807  1.6909 -0.8852 -0.4299
  571MOL0     H75357   9.022  -0.392   6.723 -0.5129 -1.8101  1.7558
  571MOL0     H75358  10.393   0.258   5.482  0.2109 -2.8026  1.4200
  571MOL0     H75359  10.644   0.313   5.469 -0.0176 -1.3978  0.8625
  571MOL0     H75360  11.035   0.325   5.414 -1.4209 -1.2043 -0.9384
  571MOL0     H75361  11.275   0.380   5.391  0.2575  1.9432 -1.0333
  571MOL0     H75362  11.343   0.595   5.028 -1.1477 -1.7754 -0.4889
  571MOL0     H75363  11.470   0.485   4.980 -2.9167 -0.7427 -0.4682
  571MOL0     H75364  11.498   0.674   5.200 -0.2753  2.2652 -0.0198
  571MOL0     H75365  11.625   0.565   5.142  0.1834  0.6496  0.6100
  571MOL0     H75366  11.496   0.812   5.001 -0.0162 -1.2854  0.1834
  571MOL0     H75367  11.617   0.709   4.926  3.8702 -2.8440  1.0537
  571MOL0     H75368  11.703   0.917   5.016 -2.6593  0.1847 -1.0736
  571MOL0     H75369  11.661   0.861   5.185 -1.5196 -1.1592 -0.2467
  571MOL0     H75370  12.005   0.643   5.087 -1.4944 -1.8722 -1.8683
  571MOL0     H75371  11.226   0.402   4.971 -1.7743 -0.9082 -1.5407
  571MOL0     H75372  10.992   0.315   4.985 -2.4461  0.5276  1.6798
  572MOL0     O75373   4.030   9.786   4.271 -0.0922 -0.4308  0.0097
  572MOL0     C75374   4.132   9.771   4.205 -1.1357  0.5564 -0.3485
  572MOL0     O75375   4.159   9.804   4.084 -1.1216 -0.5996  0.0630
  572MOL0     C75376   4.080   9.883   4.006  0.8018  0.1051 -0.3215
  572MOL0     C75377   4.132   9.924   3.882 -0.3648 -0.6214  0.6753
  572MOL0     C75378   4.069  10.003   3.792 -1.4043  0.8988  0.1701
  572MOL0     C75379   3.936  10.046   3.818 -0.3252 -1.3737  0.5493
  572MOL0     O75380   3.876  10.130   3.733 -0.4017 -0.3746  0.4854
  572MOL0     C75381   3.924  10.156   3.600 -0.2145 -0.8512 -0.4552
  572MOL0     C75382   3.830  10.254   3.527 -0.4828 -0.0478 -0.4599
  572MOL0     C75383   3.681  10.209   3.536 -0.1762 -0.5750  0.3739
  572MOL0     C75384   3.601  10.311   3.453 -0.2917 -0.3012 -0.3617
  572MOL0     C75385   3.462  10.258   3.459 -0.0001 -0.4006 -0.0935
  572MOL0     C75386   3.367  10.358   3.390 -0.3308  0.0660 -0.4548
  572MOL0     C75387   3.395  10.370   3.236 -0.3914  0.2180 -0.1819
  572MOL0     C75388   3.354  10.242   3.158 -0.4243 -0.3249  0.0451
  572MOL0     N75389   3.212  10.224   3.146  0.1961 -0.2259 -0.2316
  572MOL0     C75390   3.136  10.158   3.231  0.2814  0.7978  0.8580
  572MOL0     C75391   3.011  10.209   3.214  0.0483 -0.3455  0.5114
  572MOL0     C75392   2.878  10.178   3.263  0.5788  0.7204 -0.4014
  572MOL0     C75393   2.766  10.272   3.224  0.5894 -0.2052 -0.4030
  572MOL0     C75394   2.630  10.242   3.297 -0.9274  0.2745  0.0039
  572MOL0     C75395   2.532  10.358   3.292 -0.0691 -0.1505  0.9079
  572MOL0     O75396   2.428  10.322   3.377  0.2201  0.3564  0.2489
  572MOL0     C75397   2.342  10.428   3.398  0.4735  0.8930 -0.5087
  572MOL0     C75398   2.252  10.407   3.502  0.7725 -1.0840  0.0652
  572MOL0     C75399   2.156  10.504   3.531  0.7328 -0.5804  0.1193
  572MOL0     C75400   2.145  10.623   3.458 -0.0797 -0.3271  0.9042
  572MOL0     C75401   2.041  10.726   3.486 -0.0440 -0.7091 -0.2893
  572MOL0     O75402   1.966  10.692   3.598 -0.9237 -0.1802 -0.4179
  572MOL0     C75403   1.863  10.765   3.650  0.4153 -0.2014 -0.5609
  572MOL0     C75404   1.859  10.765   3.795 -0.9579  0.2845  0.4077
  572MOL0     C75405   1.768  10.843   3.867  0.5213 -0.2940 -0.5766
  572MOL0     C75406   1.682  10.930   3.802  0.2985  0.5465 -0.4968
  572MOL0     O75407   1.594  11.014   3.873  0.3499  0.7650 -0.4324
  572MOL0     C75408   1.655  11.072   3.996  0.1918  0.3594  0.2216
  572MOL0     C75409   1.791  11.141   3.986 -0.0161 -0.2839  0.5221
  572MOL0     C75410   1.773  11.254   3.886  0.1950 -0.4196  0.1174
  572MOL0     C75411   1.886  11.353   3.916 -0.2261 -0.1356  0.3341
  572MOL0     C75412   1.883  11.467   3.805 -0.1122 -0.7036  0.2229
  572MOL0     C75413   1.975  11.588   3.851 -0.7727 -0.2090 -0.2114
  572MOL0     C75414   2.115  11.560   3.791 -1.1031 -0.7713 -0.5928
  572MOL0     C75415   2.126  11.610   3.650  0.1368 -0.8213 -0.6080
  572MOL0    Cl75416   2.297  11.578   3.585 -0.0829  0.9498  0.3727
  572MOL0     C75417   1.689  10.939   3.661 -0.3886 -0.1958 -0.6609
  572MOL0     C75418   1.776  10.853   3.585  0.5160  0.2010  0.2853
  572MOL0     O75419   2.053  10.846   3.445  0.2982 -0.2969  0.3571
  572MOL0     C75420   2.241  10.646   3.352 -0.7444  0.4845 -0.2952
  572MOL0     C75421   2.339  10.551   3.336 -0.0977 -0.6474  0.5395
  572MOL0     N75422   3.030  10.319   3.134 -0.1301 -0.2624  1.1396
  572MOL0     N75423   3.142  10.318   3.083 -1.5319 -0.2574 -0.8307
  572MOL0     C75424   3.874  10.000   3.928  0.5705 -0.0803  0.3334
  572MOL0     C75425   3.943   9.920   4.018  0.2155  0.2127  0.4573
  572MOL0     C75426   4.237   9.687   4.271  0.2279 -0.3180  0.0364
  572MOL0     C75427   4.232   9.656   4.415 -1.1043  0.4016 -0.0989
  572MOL0     C75428   4.336   9.569   4.464  0.3162 -0.4574 -0.4903
  572MOL0     C75429   4.437   9.510   4.382 -0.0842  0.1273 -0.7651
  572MOL0     O75430   4.534   9.434   4.438  0.8329  0.2306  0.5397
  572MOL0     C75431   4.507   9.295   4.445 -0.2519 -0.3061  0.6721
  572MOL0     C75432   4.642   9.213   4.446  0.9884 -0.2416 -0.3493
  572MOL0     C75433   4.720   9.259   4.572  0.7011 -1.0698  0.4807
  572MOL0     C75434   4.812   9.150   4.619 -0.0077 -0.3010 -0.0689
  572MOL0     C75435   4.936   9.196   4.675  0.6579 -0.1695  0.1022
  572MOL0     C75436   5.032   9.236   4.719 -0.0390 -0.2578 -1.2579
  572MOL0     C75437   4.445   9.559   4.254  0.0746 -0.3175 -0.2019
  572MOL0     C75438   4.348   9.632   4.199 -0.2979 -0.5382  0.8635
  572MOL0     H75439   4.239   9.910   3.865  0.2622  2.5886  1.3545
  572MOL0     H75440   4.132  10.035   3.710 -2.5053 -0.5193 -1.2931
  572MOL0     H75441   3.935  10.063   3.543  1.8965 -1.3835  0.7151
  572MOL0     H75442   4.021  10.207   3.601 -0.8758  0.5235 -1.8287
  572MOL0     H75443   3.853  10.250   3.420  0.0084 -0.2714 -0.3496
  572MOL0     H75444   3.850  10.353   3.567 -2.0668  1.2943 -2.7430
  572MOL0     H75445   3.653  10.194   3.640  1.3585 -0.4150  0.8417
  572MOL0     H75446   3.676  10.112   3.485  2.2761 -0.3490 -0.4331
  572MOL0     H75447   3.600  10.416   3.484 -2.6981 -0.0422 -1.0940
  572MOL0     H75448   3.637  10.319   3.350 -0.5415  1.0638 -0.3713
  572MOL0     H75449   3.435  10.269   3.564  2.9984  2.7800  0.5164
  572MOL0     H75450   3.466  10.155   3.422  0.3798 -1.2394  2.1311
  572MOL0     H75451   3.381  10.455   3.439  1.7146 -0.8857  1.0258
  572MOL0     H75452   3.264  10.329   3.413 -0.7124 -0.0147 -2.1150
  572MOL0     H75453   3.352  10.466   3.207  0.4982  0.2478 -1.4846
  572MOL0     H75454   3.501  10.380   3.213  0.0233  1.4835  2.0800
  572MOL0     H75455   3.401  10.148   3.186 -0.8017 -1.3125 -2.3947
  572MOL0     H75456   3.402  10.266   3.063 -0.0444 -0.2388  0.2536
  572MOL0     H75457   3.174  10.082   3.298 -0.3017 -0.3960 -0.1248
  572MOL0     H75458   2.879  10.187   3.372 -1.2956  1.4900 -0.4072
  572MOL0     H75459   2.846  10.074   3.246 -0.5191  0.8444  0.7227
  572MOL0     H75460   2.759  10.246   3.118 -0.9143 -0.3349 -0.2926
  572MOL0     H75461   2.793  10.374   3.254 -1.3505 -0.4948  2.6561
  572MOL0     H75462   2.585  10.152   3.256 -2.1848  0.5437  0.7420
  572MOL0     H75463   2.655  10.223   3.402 -0.5616  1.1919  0.0923
  572MOL0     H75464   2.505  10.365   3.186  3.6475 -0.6984 -0.2509
  572MOL0     H75465   2.579  10.452   3.324  1.0858 -0.5165  0.3372
  572MOL0     H75466   2.259  10.315   3.559 -0.1299  1.2717  4.4764
  572MOL0     H75467   2.093  10.492   3.618  1.2906 -2.5284  0.3008
  572MOL0     H75468   1.940  10.710   3.842  1.1280  1.5026 -1.5750
  572MOL0     H75469   1.768  10.836   3.975  0.2434  2.0124 -0.3849
  572MOL0     H75470   1.654  11.008   4.085 -1.0629  0.0594  0.0194
  572MOL0     H75471   1.589  11.153   4.029  3.4724  2.3984  2.3552
  572MOL0     H75472   1.859  11.068   3.941 -1.4321  0.2540 -2.8640
  572MOL0     H75473   1.807  11.177   4.088 -3.3239 -0.3596  1.1897
  572MOL0     H75474   1.680  11.305   3.910 -0.8654 -1.9473 -0.6250
  572MOL0     H75475   1.765  11.217   3.783 -0.1282  0.7790 -0.3063
  572MOL0     H75476   1.875  11.402   4.014 -1.4928 -1.8282  1.0925
  572MOL0     H75477   1.982  11.302   3.916 -0.0246  0.1475  2.6765
  572MOL0     H75478   1.779  11.498   3.809 -0.9469 -2.9847 -1.3837
  572MOL0     H75479   1.902  11.433   3.702  0.7207  0.8670 -0.1632
  572MOL0     H75480   1.993  11.592   3.959 -2.6340  0.1397  0.1309
  572MOL0     H75481   1.934  11.684   3.820 -0.2895 -0.3382 -1.2927
  572MOL0     H75482   2.196  11.603   3.849 -0.1610 -2.0332 -0.9155
  572MOL0     H75483   2.134  11.452   3.788 -0.4017 -0.6627 -3.7129
  572MOL0     H75484   2.112  11.719   3.653  1.2848 -0.6579 -0.7463
  572MOL0     H75485   2.053  11.560   3.587  1.2709 -3.0600 -0.2422
  572MOL0     H75486   1.621  11.010   3.615  0.3292  0.6780 -0.4010
  572MOL0     H75487   1.786  10.855   3.477  4.5647 -1.1942  0.4618
  572MOL0     H75488   2.224  10.737   3.296 -0.6463 -0.1851 -1.4447
  572MOL0     H75489   2.416  10.572   3.262  1.6182 -0.4499  2.2871
  572MOL0     H75490   3.770  10.027   3.941  0.5176  0.6774 -1.4438
  572MOL0     H75491   3.892   9.893   4.110  2.0632 -2.2795  0.8751
  572MOL0     H75492   4.156   9.688   4.486 -0.1523  0.9240  0.7130
  572MOL0     H75493   4.321   9.544   4.568  0.9812 -0.7537 -0.4586
  572MOL0     H75494   4.451   9.265   4.356 -1.4657  0.1582  1.2517
  572MOL0     H75495   4.444   9.273   4.531  2.1078 -0.2041  2.5191
  572MOL0     H75496   4.627   9.105   4.453  1.9374 -0.2831  1.7743
  572MOL0     H75497   4.695   9.224   4.351  2.3266 -0.2844  0.3775
  572MOL0     H75498   4.652   9.280   4.656 -0.6349  1.0630 -1.0279
  572MOL0     H75499   4.773   9.352   4.548 -1.2181  0.0581  0.3828
  572MOL0     H75500   4.763   9.089   4.696  1.6792 -0.1180  1.2071
  572MOL0     H75501   4.828   9.090   4.529 -0.3179  1.5143 -1.3660
  572MOL0     H75502   5.110   9.290   4.768  0.1469  0.6301 -2.4965
  572MOL0     H75503   4.516   9.512   4.187 -0.3674 -0.5546 -0.5090
  572MOL0     H75504   4.333   9.653   4.094 -1.0544  0.3589  1.1421
  573MOL0     O75505   6.237   3.816  11.236 -0.3421  0.4998  0.6368
  573MOL0     C75506   6.318   3.794  11.330  0.3534 -0.0149 -0.7105
  573MOL0     O75507   6.290   3.807  11.464  0.0787 -0.3737  0.4770
  573MOL0     C75508   6.164   3.800  11.508  0.7719 -0.5458 -0.9609
  573MOL0     C75509   6.124   3.887  11.608  0.4099  0.8632  0.3713
  573MOL0     C75510   5.989   3.887  11.654 -0.1146 -0.0347 -0.0804
  573MOL0     C75511   5.886   3.824  11.581 -0.4584  0.1805  0.1605
  573MOL0     O75512   5.754   3.837  11.630 -0.5259 -0.2523 -0.6084
  573MOL0     C75513   5.679   3.718  11.621  0.1861  0.7642 -0.0352
  573MOL0     C75514   5.532   3.721  11.668 -0.4650 -0.3094 -0.3318
  573MOL0     C75515   5.472   3.578  11.652 -1.1151 -0.1346 -0.6763
  573MOL0     C75516   5.344   3.564  11.743  0.2976  0.3466 -0.3196
  573MOL0     C75517   5.276   3.432  11.718  1.0080  0.6010  0.0648
  573MOL0     C75518   5.136   3.419  11.777  0.3636  0.3496 -0.1227
  573MOL0     C75519   5.066   3.283  11.736 -0.0209 -0.6494  0.2971
  573MOL0     C75520   4.920   3.273  11.774 -0.6103  0.5417  0.0670
  573MOL0     N75521   4.849   3.164  11.697  0.5716 -0.1633 -0.3531
  573MOL0     C75522   4.717   3.175  11.642  0.8367 -0.0012  0.3811
  573MOL0     C75523   4.683   3.043  11.606 -0.4126 -0.1097  0.1604
  573MOL0     C75524   4.543   2.997  11.567 -0.2059 -0.0011  0.0153
  573MOL0     C75525   4.427   3.078  11.630 -0.2997 -0.3350 -0.0954
  573MOL0     C75526   4.290   3.027  11.605 -0.6547 -0.1206 -0.6460
  573MOL0     C75527   4.192   3.088  11.689 -0.8579 -0.0475  0.2250
  573MOL0     O75528   4.068   3.083  11.614  0.2550 -0.4308  0.2121
  573MOL0     C75529   3.958   3.127  11.677 -0.6296  0.8203 -0.5159
  573MOL0     C75530   3.832   3.095  11.617  0.4036  0.3342  0.0924
  573MOL0     C75531   3.707   3.121  11.676 -0.0873  0.8406  0.0005
  573MOL0     C75532   3.700   3.185  11.795  0.1143  0.1237  0.2410
  573MOL0     C75533   3.570   3.222  11.851 -0.0066  0.3945  0.2945
  573MOL0     O75534   3.459   3.175  11.784 -0.0532  0.1475 -0.1240
  573MOL0     C75535   3.332   3.198  11.819 -0.2375 -0.8046 -0.1482
  573MOL0     C75536   3.275   3.189  11.950  1.0992 -0.9161  0.5296
  573MOL0     C75537   3.148   3.242  11.980 -0.6633 -0.3962 -0.3397
  573MOL0     C75538   3.065   3.299  11.881  0.0092 -0.4099  0.8548
  573MOL0     O75539   2.936   3.339  11.913  0.8792  0.0308 -0.2392
  573MOL0     C75540   2.827   3.339  11.810  0.9436  0.0034  0.3973
  573MOL0     C75541   2.696   3.372  11.885 -0.5035 -0.3867  0.3949
  573MOL0     C75542   2.579   3.329  11.796 -0.0890 -0.7630 -0.2026
  573MOL0     C75543   2.439   3.383  11.838 -0.4526  1.4485 -0.1592
  573MOL0     C75544   2.391   3.318  11.971 -0.1241 -0.2360 -0.7643
  573MOL0     C75545   2.244   3.345  11.993 -0.1822  0.3937 -1.1414
  573MOL0     C75546   2.184   3.267  12.110 -0.3126 -0.7784  0.3813
  573MOL0     C75547   2.035   3.288  12.140 -0.8734  0.6474  0.3165
  573MOL0    Cl75548   1.937   3.271  11.994 -0.2648  0.0568 -0.0579
  573MOL0     C75549   3.112   3.295  11.749 -0.8887 -0.3199 -0.5182
  573MOL0     C75550   3.244   3.241  11.722 -0.2688  0.0753  0.3730
  573MOL0     O75551   3.560   3.293  11.950  0.5313 -0.4687 -0.5168
  573MOL0     C75552   3.829   3.210  11.856 -1.1023 -0.2584  0.2629
  573MOL0     C75553   3.954   3.186  11.801 -1.1662  0.3082  0.5113
  573MOL0     N75554   4.787   2.957  11.647 -0.7644 -0.1354 -0.2034
  573MOL0     N75555   4.885   3.032  11.696 -0.3114 -0.0437 -0.1742
  573MOL0     C75556   5.932   3.733  11.482  0.1656 -0.4407  0.4242
  573MOL0     C75557   6.068   3.715  11.447 -0.4718  0.1655 -1.1369
  573MOL0     C75558   6.463   3.775  11.303 -0.1316 -0.8378 -0.5937
  573MOL0     C75559   6.562   3.798  11.403  0.6771  0.3049 -0.1393
  573MOL0     C75560   6.697   3.774  11.384  0.7238 -0.3295  0.0880
  573MOL0     C75561   6.744   3.741  11.255  0.9513 -0.7620  0.1796
  573MOL0     O75562   6.875   3.724  11.247  0.0577 -0.1559  0.5043
  573MOL0     C75563   6.924   3.792  11.135 -0.3965  0.1144  0.4850
  573MOL0     C75564   7.075   3.797  11.153 -0.3057  1.3411 -0.5178
  573MOL0     C75565   7.133   3.652  11.140 -0.4298 -0.4594 -0.3336
  573MOL0     C75566   7.273   3.652  11.192 -0.1922 -0.7035 -1.3038
  573MOL0     C75567   7.302   3.514  11.161  0.2152  0.1818 -0.8987
  573MOL0     C75568   7.335   3.402  11.149  0.9659  0.6615  0.1591
  573MOL0     C75569   6.644   3.716  11.157 -0.3328 -0.9529  0.9234
  573MOL0     C75570   6.505   3.743  11.177  0.2862 -0.1321 -0.3663
  573MOL0     H75571   6.203   3.948  11.652  1.7236  1.1657 -2.2235
  573MOL0     H75572   5.970   3.945  11.744  0.4558 -0.4039  0.2828
  573MOL0     H75573   5.732   3.643  11.679  1.4292 -0.7351 -2.9075
  573MOL0     H75574   5.677   3.677  11.519 -4.4726 -1.2524  0.6179
  573MOL0     H75575   5.478   3.786  11.599 -1.2978  1.4714  1.8434
  573MOL0     H75576   5.524   3.765  11.769 -3.0144  0.4750 -0.7824
  573MOL0     H75577   5.548   3.507  11.687 -0.3829  0.1828 -1.5837
  573MOL0     H75578   5.453   3.564  11.545 -4.9191  1.0756 -0.3135
  573MOL0     H75579   5.360   3.574  11.851  1.3602  2.1835 -0.6053
  573MOL0     H75580   5.279   3.640  11.698 -1.4088 -1.0031 -0.2527
  573MOL0     H75581   5.335   3.350  11.760  0.0174  0.6133  1.5673
  573MOL0     H75582   5.276   3.424  11.609  2.6290 -1.4214  0.1577
  573MOL0     H75583   5.065   3.489  11.733  0.0485 -0.4098 -0.8432
  573MOL0     H75584   5.135   3.427  11.887  0.3435 -2.3136  0.1321
  573MOL0     H75585   5.073   3.257  11.630 -2.5455 -3.5978  0.7066
  573MOL0     H75586   5.108   3.198  11.791  2.6878  1.0338  1.0267
  573MOL0     H75587   4.884   3.375  11.757  4.0445  2.2872 -0.5465
  573MOL0     H75588   4.914   3.247  11.880  2.0642  1.1484  0.4193
  573MOL0     H75589   4.662   3.268  11.640 -1.6344 -1.3942 -0.9386
  573MOL0     H75590   4.533   2.892  11.592  1.5958 -0.0116  0.8512
  573MOL0     H75591   4.522   3.013  11.461 -0.2593  5.4629  0.5495
  573MOL0     H75592   4.427   3.175  11.581 -1.1536  0.2655  1.0443
  573MOL0     H75593   4.450   3.094  11.736  0.8951  0.8744 -0.5176
  573MOL0     H75594   4.256   3.045  11.502  0.5203  2.0792 -0.7126
  573MOL0     H75595   4.269   2.920  11.616  0.9640 -0.3404  0.6308
  573MOL0     H75596   4.233   3.185  11.717  1.0257 -1.5095  2.9756
  573MOL0     H75597   4.184   3.026  11.779  1.9999 -1.4433 -0.3871
  573MOL0     H75598   3.828   3.032  11.529  1.7264  2.7033 -1.7915
  573MOL0     H75599   3.615   3.084  11.631  0.6581 -4.9511  2.4152
  573MOL0     H75600   3.332   3.146  12.033  2.6589  2.2439  1.2391
  573MOL0     H75601   3.130   3.242  12.087  2.3074 -2.0842  0.2692
  573MOL0     H75602   2.817   3.240  11.764  0.1486  0.0298  0.5084
  573MOL0     H75603   2.835   3.413  11.730  0.0078  0.7421  0.9622
  573MOL0     H75604   2.700   3.479  11.906 -0.2884 -0.3053 -0.0538
  573MOL0     H75605   2.705   3.334  11.987 -0.1121  1.3769  1.0460
  573MOL0     H75606   2.586   3.222  11.815  2.1191 -0.8910 -1.4817
  573MOL0     H75607   2.601   3.357  11.693 -2.2483  0.7158 -0.3294
  573MOL0     H75608   2.438   3.493  11.839 -1.5679  1.5480  3.3707
  573MOL0     H75609   2.371   3.361  11.756 -0.4863 -2.6834  0.7618
  573MOL0     H75610   2.437   3.354  12.064 -3.5361 -3.5033  2.5483
  573MOL0     H75611   2.400   3.210  11.960 -1.8056 -0.4593 -0.2328
  573MOL0     H75612   2.187   3.323  11.902 -3.3878 -1.0263  1.0126
  573MOL0     H75613   2.231   3.453  12.010  0.2468  0.1855  0.7978
  573MOL0     H75614   2.190   3.161  12.087  0.4651 -0.5575 -0.4994
  573MOL0     H75615   2.238   3.291  12.203 -0.1761  1.7931 -0.2801
  573MOL0     H75616   2.036   3.390  12.180  0.3668  1.0986 -0.8124
  573MOL0     H75617   1.997   3.228  12.223  0.6048  4.9364  4.5876
  573MOL0     H75618   3.044   3.331  11.673  0.2515  4.7068  0.5143
  573MOL0     H75619   3.280   3.249  11.620 -5.3451  1.5312 -1.6168
  573MOL0     H75620   3.851   3.247  11.955  2.6143 -0.6738 -0.2560
  573MOL0     H75621   4.049   3.225  11.836 -0.5177  0.4469 -1.2885
  573MOL0     H75622   5.863   3.678  11.418  0.4459 -1.6887  1.1553
  573MOL0     H75623   6.095   3.642  11.372  2.4636  1.4876 -1.5005
  573MOL0     H75624   6.536   3.835  11.501  0.6393  3.6799 -1.2891
  573MOL0     H75625   6.769   3.790  11.463  0.6517  3.7294 -0.4580
  573MOL0     H75626   6.892   3.896  11.123  0.9906  0.4098 -1.1470
  573MOL0     H75627   6.897   3.743  11.040 -3.9567  0.4782  1.1855
  573MOL0     H75628   7.131   3.863  11.085  3.2866  2.6817  3.3017
  573MOL0     H75629   7.086   3.852  11.247 -1.3245  1.4399 -0.4404
  573MOL0     H75630   7.103   3.612  11.042  1.6163 -1.2117 -0.7162
  573MOL0     H75631   7.080   3.589  11.212 -0.1958  1.1428  1.3080
  573MOL0     H75632   7.331   3.723  11.132 -0.9303  0.7135 -0.3801
  573MOL0     H75633   7.284   3.663  11.300  0.5046 -0.3979 -1.3949
  573MOL0     H75634   7.360   3.300  11.128  1.7669  1.5154 -3.8315
  573MOL0     H75635   6.679   3.675  11.062  0.4185  1.3925  0.1260
  573MOL0     H75636   6.432   3.718  11.101  1.1094 -1.2390 -0.8222
  574MOL0     O75637   7.680   1.309   1.074 -0.7818  0.4214 -0.0532
  574MOL0     C75638   7.709   1.354   1.189 -1.0876 -0.3542 -0.2597
  574MOL0     O75639   7.615   1.398   1.273 -0.2698 -0.1397 -0.6350
  574MOL0     C75640   7.498   1.416   1.219  1.0633 -0.2612  0.2654
  574MOL0     C75641   7.458   1.542   1.194  0.9673 -1.0653  1.0777
  574MOL0     C75642   7.329   1.557   1.137 -0.2682  0.1215 -0.5994
  574MOL0     C75643   7.243   1.451   1.100  0.7065 -0.5438  0.6043
  574MOL0     O75644   7.116   1.483   1.060 -0.6962 -0.9907  0.4977
  574MOL0     C75645   7.039   1.376   1.003 -0.0056  0.2359  0.6526
  574MOL0     C75646   6.906   1.436   0.971  0.6127  0.6291  0.5686
  574MOL0     C75647   6.824   1.353   0.865 -0.3198 -0.3779  0.3753
  574MOL0     C75648   6.694   1.439   0.838 -0.4401 -0.5301 -0.2183
  574MOL0     C75649   6.586   1.359   0.764 -0.4157 -0.2224  0.7603
  574MOL0     C75650   6.456   1.438   0.785  0.3190 -1.2374  1.0353
  574MOL0     C75651   6.348   1.347   0.724 -0.4276  0.0331  0.5229
  574MOL0     C75652   6.203   1.400   0.745 -0.0392 -0.7082 -0.2486
  574MOL0     N75653   6.104   1.342   0.649 -0.3887  0.2867 -0.2465
  574MOL0     C75654   6.058   1.207   0.652  0.7016  0.8514 -0.4217
  574MOL0     C75655   5.972   1.203   0.550 -0.0289 -0.2251  0.7575
  574MOL0     C75656   5.896   1.092   0.490  0.3371  0.3885  0.4376
  574MOL0     C75657   5.745   1.126   0.518 -0.1167 -0.0563  0.2924
  574MOL0     C75658   5.652   1.036   0.450 -0.7518  1.0759  0.0093
  574MOL0     C75659   5.509   1.062   0.488  0.7059 -0.7113  1.1066
  574MOL0     O75660   5.485   1.057   0.629 -0.2955  0.0327  0.1729
  574MOL0     C75661   5.352   1.063   0.666 -0.4908  0.6098 -0.7454
  574MOL0     C75662   5.235   1.049   0.586 -0.8730  0.0675 -0.2786
  574MOL0     C75663   5.107   1.057   0.652 -0.2277  0.8030 -0.5891
  574MOL0     C75664   5.092   1.069   0.794 -0.9344 -0.0077  0.2191
  574MOL0     C75665   4.955   1.086   0.856 -0.6064  0.2198 -0.2775
  574MOL0     O75666   4.860   1.147   0.770  0.7602 -0.0975  0.2781
  574MOL0     C75667   4.732   1.181   0.810  0.5052  0.6316 -0.2333
  574MOL0     C75668   4.706   1.261   0.916 -0.8944 -0.6541  0.5122
  574MOL0     C75669   4.575   1.285   0.955 -1.1459 -0.9345 -0.2235
  574MOL0     C75670   4.466   1.239   0.874 -0.2272 -0.1404  0.2685
  574MOL0     O75671   4.329   1.248   0.901 -0.1006 -0.2192 -1.1384
  574MOL0     C75672   4.287   1.278   1.037  0.3532  0.2820  0.7320
  574MOL0     C75673   4.142   1.238   1.062 -0.9765  0.3469 -0.2503
  574MOL0     C75674   4.047   1.309   0.972  0.6538 -0.0915  0.5630
  574MOL0     C75675   3.913   1.308   1.036 -0.0498  0.3738 -0.1114
  574MOL0     C75676   3.816   1.397   0.957  0.2151 -0.3540  0.7730
  574MOL0     C75677   3.666   1.371   0.993 -0.6958 -0.2552  0.4302
  574MOL0     C75678   3.574   1.473   0.910  0.1462  0.9053 -0.0581
  574MOL0     C75679   3.437   1.413   0.879  0.5073 -0.6631 -0.1364
  574MOL0    Cl75680   3.318   1.429   1.005 -0.2993  0.3314 -0.2352
  574MOL0     C75681   4.496   1.173   0.755  0.2687  0.3348 -0.2310
  574MOL0     C75682   4.628   1.153   0.717 -0.4448 -0.5897  0.2173
  574MOL0     O75683   4.949   1.067   0.979 -0.3747  0.3437 -0.1762
  574MOL0     C75684   5.209   1.063   0.869  0.7130 -0.0094 -0.2690
  574MOL0     C75685   5.326   1.067   0.802 -0.0643  0.6124  0.2694
  574MOL0     N75686   5.993   1.317   0.469 -0.0646 -0.0853  0.3154
  574MOL0     N75687   6.064   1.408   0.532  1.0482  0.8723 -0.0206
  574MOL0     C75688   7.285   1.329   1.144  0.0403  0.0279  0.3323
  574MOL0     C75689   7.406   1.316   1.213  0.2504 -0.0277  0.0312
  574MOL0     C75690   7.843   1.332   1.248  0.1577 -1.0302 -0.2137
  574MOL0     C75691   7.871   1.370   1.381 -0.6080  0.4447 -0.1914
  574MOL0     C75692   7.997   1.337   1.438  0.8215  0.5676  0.0121
  574MOL0     C75693   8.097   1.270   1.362  0.3938  0.0778  0.6891
  574MOL0     O75694   8.211   1.217   1.416 -0.2386 -0.8357  0.3501
  574MOL0     C75695   8.251   1.263   1.548  0.1191 -0.4613 -0.5369
  574MOL0     C75696   8.401   1.212   1.566  0.6150 -0.6563  0.1757
  574MOL0     C75697   8.468   1.256   1.695 -0.3536 -0.1183  0.8683
  574MOL0     C75698   8.595   1.165   1.727  0.1356  0.4500 -0.1366
  574MOL0     C75699   8.655   1.194   1.855  0.4328  0.4713 -0.8947
  574MOL0     C75700   8.680   1.239   1.966 -0.0848 -0.0338 -0.1022
  574MOL0     C75701   8.062   1.233   1.233 -0.4809  0.1335 -0.1227
  574MOL0     C75702   7.941   1.256   1.184  0.2995 -0.0425  1.3981
  574MOL0     H75703   7.531   1.622   1.196  1.5718 -1.2567 -3.0852
  574MOL0     H75704   7.294   1.659   1.126  0.2739  0.2974 -0.7288
  574MOL0     H75705   7.022   1.298   1.077  1.6134 -0.5235  0.2649
  574MOL0     H75706   7.086   1.333   0.914  0.2319  0.5904  0.6053
  574MOL0     H75707   6.923   1.536   0.931  1.1949  0.1012 -0.5570
  574MOL0     H75708   6.853   1.455   1.065  1.2116  0.8614  0.8669
  574MOL0     H75709   6.787   1.256   0.900 -0.8332 -0.9859 -1.6769
  574MOL0     H75710   6.882   1.348   0.773 -1.2225  0.4026 -0.2571
  574MOL0     H75711   6.657   1.475   0.934  0.8762 -0.2002  0.1915
  574MOL0     H75712   6.733   1.525   0.781  1.7224  0.0137  1.9276
  574MOL0     H75713   6.587   1.264   0.818  2.6248  0.8512  2.8777
  574MOL0     H75714   6.615   1.343   0.660 -0.8691  1.7899  0.2814
  574MOL0     H75715   6.460   1.533   0.730 -0.2656 -3.0016 -2.3519
  574MOL0     H75716   6.439   1.455   0.891  1.7842  3.0829  0.7646
  574MOL0     H75717   6.375   1.330   0.619  0.6710 -0.8698  0.9338
  574MOL0     H75718   6.356   1.248   0.769  1.9118  1.1352  2.7763
  574MOL0     H75719   6.213   1.508   0.730  1.2941 -0.9225 -1.0212
  574MOL0     H75720   6.175   1.392   0.850  2.1382  2.0610  0.6718
  574MOL0     H75721   6.093   1.131   0.721  0.9044  0.4845 -0.9187
  574MOL0     H75722   5.923   0.997   0.538  3.1594  0.9994  0.2605
  574MOL0     H75723   5.914   1.082   0.383 -2.8566 -1.3966 -0.0734
  574MOL0     H75724   5.727   1.233   0.501  2.0676  0.4786  1.0813
  574MOL0     H75725   5.724   1.123   0.625 -4.1089 -0.9078 -0.3383
  574MOL0     H75726   5.664   1.034   0.342 -1.1140  2.0527 -0.0611
  574MOL0     H75727   5.674   0.938   0.493 -2.0621  0.8865  0.2975
  574MOL0     H75728   5.448   0.982   0.446 -0.4045  0.7991 -0.2582
  574MOL0     H75729   5.479   1.160   0.449  1.9484 -0.6783  0.1442
  574MOL0     H75730   5.223   1.035   0.479  0.0815 -3.3687 -0.0589
  574MOL0     H75731   5.009   1.056   0.606 -1.9344 -0.4474  2.6927
  574MOL0     H75732   4.787   1.295   0.981 -0.7995 -0.1982  0.1624
  574MOL0     H75733   4.570   1.332   1.052 -1.5184 -1.3952 -0.0190
  574MOL0     H75734   4.291   1.384   1.062 -2.1323  0.2179  1.7047
  574MOL0     H75735   4.349   1.220   1.107 -0.7900 -0.4650  1.1561
  574MOL0     H75736   4.122   1.244   1.169  1.1805  1.5363  0.1453
  574MOL0     H75737   4.129   1.130   1.048 -1.4337  0.5439 -1.4502
  574MOL0     H75738   4.041   1.253   0.878  2.9812 -0.1201  0.3841
  574MOL0     H75739   4.082   1.412   0.955 -0.0592 -0.1088 -1.2381
  574MOL0     H75740   3.886   1.202   1.042  0.3426  0.1495 -1.7366
  574MOL0     H75741   3.912   1.341   1.140 -0.0205 -3.0166  1.0867
  574MOL0     H75742   3.841   1.377   0.853  1.8111 -1.6797  1.3702
  574MOL0     H75743   3.835   1.503   0.975 -0.4673 -0.5806  3.2446
  574MOL0     H75744   3.646   1.394   1.098 -1.0211  0.5846  0.1958
  574MOL0     H75745   3.640   1.267   0.973 -0.7334  0.0756 -1.4551
  574MOL0     H75746   3.561   1.569   0.961 -0.3440  0.3404  0.9215
  574MOL0     H75747   3.625   1.507   0.820 -1.1352  0.7790 -0.8593
  574MOL0     H75748   3.462   1.308   0.866  3.5529 -0.4734  2.8444
  574MOL0     H75749   3.392   1.467   0.795 -1.1607  1.0271  1.7247
  574MOL0     H75750   4.412   1.145   0.692 -0.9041 -1.9616  2.1695
  574MOL0     H75751   4.654   1.119   0.617  0.8214  2.8828 -0.7666
  574MOL0     H75752   5.213   1.048   0.977  1.5174  2.9809  0.2144
  574MOL0     H75753   5.415   1.056   0.862 -1.2516  1.4999  2.2920
  574MOL0     H75754   7.216   1.245   1.152  0.2778 -0.3047 -0.9620
  574MOL0     H75755   7.440   1.228   1.267  1.9366 -0.6272 -1.8824
  574MOL0     H75756   7.796   1.424   1.438 -1.9229 -0.2793 -1.1688
  574MOL0     H75757   8.019   1.375   1.537 -1.1715  1.6313  0.0984
  574MOL0     H75758   8.182   1.235   1.628 -2.3322  3.9547 -0.7349
  574MOL0     H75759   8.249   1.372   1.560  4.4004 -0.2146 -0.7949
  574MOL0     H75760   8.400   1.103   1.566 -1.2103 -0.6832 -0.6394
  574MOL0     H75761   8.458   1.235   1.475  0.4539 -1.3704 -0.1117
  574MOL0     H75762   8.404   1.251   1.784 -0.0104 -1.2061  1.0716
  574MOL0     H75763   8.489   1.360   1.670  0.3714 -1.1046 -3.4927
  574MOL0     H75764   8.566   1.060   1.735  2.9598 -0.3378  0.9280
  574MOL0     H75765   8.677   1.170   1.654  1.1404 -3.5033  0.4842
  574MOL0     H75766   8.705   1.293   2.055 -1.9248  5.5979 -2.5152
  574MOL0     H75767   8.133   1.175   1.175  1.5853  2.5469 -0.2060
  574MOL0     H75768   7.912   1.214   1.088  3.1505  1.5746 -0.3136
  575MOL0     O75769  10.602   3.843   9.531  0.3106  0.0936  0.1734
  575MOL0     C75770  10.681   3.757   9.489  0.1860  0.0949  0.3272
  575MOL0     O75771  10.639   3.650   9.416  0.4420  0.0918 -0.5732
  575MOL0     C75772  10.505   3.629   9.395  0.5252  0.4568  0.7700
  575MOL0     C75773  10.446   3.508   9.443 -0.4524 -1.0270  0.5913
  575MOL0     C75774  10.311   3.486   9.429  0.6078 -0.1197 -0.2720
  575MOL0     C75775  10.227   3.578   9.357  0.0258 -0.2863  0.2675
  575MOL0     O75776  10.096   3.559   9.346  0.1151  0.5941  0.7691
  575MOL0     C75777  10.007   3.636   9.270  0.0390  0.6579 -0.1508
  575MOL0     C75778   9.877   3.561   9.245  0.3946 -0.3562  0.3440
  575MOL0     C75779   9.882   3.415   9.203 -0.3217  0.1753  0.1102
  575MOL0     C75780   9.742   3.351   9.203 -0.7538  0.2186  0.2990
  575MOL0     C75781   9.686   3.337   9.343  0.7158  0.2056  0.6567
  575MOL0     C75782   9.582   3.230   9.360  0.7107  0.6797  0.1986
  575MOL0     C75783   9.646   3.094   9.339 -0.5967  0.2819  0.3493
  575MOL0     C75784   9.552   2.975   9.375 -0.3524 -0.5721 -0.7679
  575MOL0     N75785   9.476   2.926   9.265 -0.1878 -0.2491  0.9776
  575MOL0     C75786   9.388   3.002   9.192  0.2695  0.4905  0.7784
  575MOL0     C75787   9.352   2.922   9.083 -0.4975  0.8251  0.1790
  575MOL0     C75788   9.274   2.987   8.968  0.7740  0.7285 -0.2858
  575MOL0     C75789   9.190   2.880   8.897  0.3641  0.1536 -0.0513
  575MOL0     C75790   9.097   2.928   8.787 -0.0358 -1.0296  0.9645
  575MOL0     C75791   9.014   2.799   8.744 -0.4353 -0.3613 -0.1788
  575MOL0     O75792   8.911   2.843   8.652  0.3662  0.1102  0.4362
  575MOL0     C75793   8.796   2.770   8.655 -0.9447 -0.1872  0.5645
  575MOL0     C75794   8.766   2.648   8.718  0.3932  0.4379 -0.3264
  575MOL0     C75795   8.638   2.595   8.711  0.1665 -0.2955 -0.2551
  575MOL0     C75796   8.525   2.659   8.657 -0.7788 -0.0888  0.7251
  575MOL0     C75797   8.385   2.606   8.664 -0.1785 -0.0119 -0.3746
  575MOL0     O75798   8.289   2.691   8.619  0.2472  0.7944  0.2843
  575MOL0     C75799   8.159   2.641   8.620 -0.1484  0.6867  0.1616
  575MOL0     C75800   8.105   2.514   8.602 -0.9279 -0.7332 -0.5456
  575MOL0     C75801   7.967   2.503   8.601  0.6102  0.2393  0.5320
  575MOL0     C75802   7.877   2.609   8.607  0.2865 -0.5016  0.1875
  575MOL0     O75803   7.749   2.576   8.582  0.3701  0.0777  0.3080
  575MOL0     C75804   7.651   2.685   8.600  0.0083 -0.2800  0.0515
  575MOL0     C75805   7.523   2.606   8.626  0.5723  0.7620 -0.9535
  575MOL0     C75806   7.398   2.697   8.629  0.3129 -0.3598 -0.6313
  575MOL0     C75807   7.310   2.692   8.497  0.2197  0.1807 -0.1071
  575MOL0     C75808   7.185   2.769   8.495 -0.5267  0.7772 -0.0717
  575MOL0     C75809   7.067   2.702   8.550 -0.4584  0.1588  0.7171
  575MOL0     C75810   6.942   2.758   8.485  0.9256  0.0113 -0.4808
  575MOL0     C75811   6.821   2.689   8.538 -0.4446 -0.0978 -0.1519
  575MOL0    Cl75812   6.679   2.759   8.445  0.2011 -0.0061  0.2374
  575MOL0     C75813   7.934   2.735   8.634  0.0630  0.5638  0.4834
  575MOL0     C75814   8.069   2.744   8.648 -0.4343  0.5561  0.1526
  575MOL0     O75815   8.377   2.488   8.696  0.0429  0.5285 -0.8723
  575MOL0     C75816   8.556   2.772   8.582  0.5059 -0.4431 -0.3708
  575MOL0     C75817   8.688   2.826   8.582  0.0822 -0.8205 -0.6644
  575MOL0     N75818   9.409   2.792   9.101 -0.7535 -0.3957 -0.0116
  575MOL0     N75819   9.489   2.802   9.201  0.5289  0.2651  0.3349
  575MOL0     C75820  10.295   3.691   9.300  0.5806 -0.5174 -0.2634
  575MOL0     C75821  10.430   3.720   9.321 -0.4210 -0.1332 -0.4493
  575MOL0     C75822  10.825   3.771   9.516  0.0430 -0.1035 -0.8116
  575MOL0     C75823  10.879   3.878   9.580 -0.4023  0.6771 -0.2324
  575MOL0     C75824  11.015   3.883   9.593 -0.3154  0.4322  0.3264
  575MOL0     C75825  11.096   3.778   9.554 -0.2645  0.0770 -0.2358
  575MOL0     O75826  11.225   3.797   9.600 -0.4203  0.0699 -0.3096
  575MOL0     C75827  11.328   3.721   9.541 -0.3243  0.4485  0.0314
  575MOL0     C75828  11.473   3.789   9.559  0.7601 -0.2819  0.1443
  575MOL0     C75829  11.499   3.888   9.448  0.7049  0.3313  0.4366
  575MOL0     C75830  11.638   3.945   9.452 -0.0178 -0.0609  0.1544
  575MOL0     C75831  11.639   4.068   9.378 -0.6263 -0.7002 -0.2973
  575MOL0     C75832  11.646   4.169   9.307  0.1126 -0.6423  0.6739
  575MOL0     C75833  11.044   3.667   9.503 -0.1026 -0.5201 -0.6443
  575MOL0     C75834  10.906   3.660   9.479  1.1234  0.3698  0.6347
  575MOL0     H75835  10.508   3.430   9.487  2.8273  0.8415 -0.3990
  575MOL0     H75836  10.272   3.405   9.489  0.7930 -0.6496 -0.8542
  575MOL0     H75837  10.055   3.664   9.176  3.1821 -1.8251  0.5008
  575MOL0     H75838   9.987   3.727   9.327  0.3552  0.0392  0.9775
  575MOL0     H75839   9.815   3.619   9.176 -2.0574  1.3018  3.5985
  575MOL0     H75840   9.823   3.567   9.341  0.8605  0.9827  0.5430
  575MOL0     H75841   9.961   3.364   9.259 -2.4866 -1.4863  1.8382
  575MOL0     H75842   9.917   3.426   9.100 -1.9160  1.0098 -0.3784
  575MOL0     H75843   9.682   3.421   9.145 -0.4231  1.2284  1.1570
  575MOL0     H75844   9.737   3.255   9.150  4.3795 -0.0490 -0.2580
  575MOL0     H75845   9.638   3.433   9.359  0.0479  0.4193 -2.2558
  575MOL0     H75846   9.761   3.328   9.423  0.3833  1.3992  1.1101
  575MOL0     H75847   9.495   3.254   9.298  0.4088 -0.8435  0.0159
  575MOL0     H75848   9.556   3.227   9.466 -0.4985 -0.7859 -0.1087
  575MOL0     H75849   9.691   3.083   9.240  1.2650 -0.4379  1.2290
  575MOL0     H75850   9.734   3.075   9.401  0.4478  0.3101 -1.0970
  575MOL0     H75851   9.486   3.002   9.458  0.8633 -1.5819  0.5819
  575MOL0     H75852   9.611   2.888   9.405  1.1648 -0.5914 -3.4407
  575MOL0     H75853   9.353   3.101   9.219 -0.1021  0.5109  0.2305
  575MOL0     H75854   9.350   3.036   8.907  0.7580  3.2342  1.5380
  575MOL0     H75855   9.203   3.059   9.011 -0.5684 -0.7939  0.1568
  575MOL0     H75856   9.122   2.841   8.973  2.0628 -1.3315  0.7870
  575MOL0     H75857   9.251   2.804   8.847 -2.9923 -0.8545 -3.0211
  575MOL0     H75858   9.025   3.006   8.813  0.7974 -0.2033  0.8303
  575MOL0     H75859   9.157   2.955   8.699 -2.8282  0.3685 -0.6439
  575MOL0     H75860   8.969   2.747   8.830 -0.5763  1.5128  0.9294
  575MOL0     H75861   9.087   2.729   8.702 -0.3088  0.8215 -2.0452
  575MOL0     H75862   8.848   2.595   8.766 -0.8652  0.2172  1.7144
  575MOL0     H75863   8.624   2.491   8.741  0.8587 -0.6156 -1.0017
  575MOL0     H75864   8.161   2.421   8.589 -2.5425 -2.0324  1.2141
  575MOL0     H75865   7.935   2.400   8.584  1.4791 -0.0242  0.4064
  575MOL0     H75866   7.639   2.750   8.512  3.5296  1.9085  0.9772
  575MOL0     H75867   7.666   2.747   8.689  1.6530 -1.4247  0.6062
  575MOL0     H75868   7.533   2.559   8.725 -4.7114 -1.7600 -1.2922
  575MOL0     H75869   7.502   2.522   8.561 -2.2756 -0.2976  1.1261
  575MOL0     H75870   7.415   2.804   8.646  0.3505 -0.4538 -0.0638
  575MOL0     H75871   7.342   2.651   8.711 -1.9346  0.6442 -1.5271
  575MOL0     H75872   7.366   2.726   8.409 -2.0409 -0.0739 -1.7466
  575MOL0     H75873   7.289   2.586   8.484  2.1128 -0.1549 -0.7343
  575MOL0     H75874   7.164   2.792   8.390  0.6576  0.0299 -0.4843
  575MOL0     H75875   7.202   2.864   8.548  0.2021 -0.0207  1.1670
  575MOL0     H75876   7.068   2.712   8.659  3.3734 -1.1029  0.9583
  575MOL0     H75877   7.075   2.594   8.531 -0.7820 -0.0657  1.7679
  575MOL0     H75878   6.934   2.865   8.504  4.0648  0.6417 -2.0575
  575MOL0     H75879   6.953   2.732   8.379  1.1277  0.8035 -0.6588
  575MOL0     H75880   6.828   2.705   8.646  0.6240  0.6444 -0.2995
  575MOL0     H75881   6.833   2.582   8.523 -0.5516 -0.9612  4.5235
  575MOL0     H75882   7.883   2.829   8.649 -1.7925 -0.7558  3.1318
  575MOL0     H75883   8.113   2.842   8.661 -2.5135  1.5726 -0.0681
  575MOL0     H75884   8.492   2.833   8.519 -0.3123 -1.7761 -0.8519
  575MOL0     H75885   8.695   2.929   8.549 -4.5442  1.4470  3.9626
  575MOL0     H75886  10.244   3.767   9.240  1.1656 -0.0177 -0.1444
  575MOL0     H75887  10.469   3.812   9.278  0.0509  0.0487  0.3403
  575MOL0     H75888  10.811   3.962   9.590  0.5318  2.2740 -4.9994
  575MOL0     H75889  11.062   3.979   9.616 -0.1457  0.5462 -0.4627
  575MOL0     H75890  11.306   3.704   9.435 -1.6936 -2.7760  0.7323
  575MOL0     H75891  11.329   3.627   9.597  2.5691 -0.1453 -0.8333
  575MOL0     H75892  11.474   3.843   9.654 -4.3222 -0.4709  0.5877
  575MOL0     H75893  11.538   3.701   9.557 -0.1839 -0.9999 -1.0894
  575MOL0     H75894  11.420   3.963   9.458 -0.9497 -1.4262  1.1358
  575MOL0     H75895  11.482   3.839   9.352  2.0117 -0.5777  0.6411
  575MOL0     H75896  11.692   3.964   9.545 -0.5049  2.7764 -0.0643
  575MOL0     H75897  11.708   3.877   9.402 -2.1077 -0.4251 -2.4962
  575MOL0     H75898  11.637   4.265   9.262 -0.8750  0.5084  3.1434
  575MOL0     H75899  11.097   3.576   9.475 -0.5651 -1.0187  0.0644
  575MOL0     H75900  10.859   3.579   9.424  0.2329  1.7988 -0.8059
  576MOL0     O75901   8.258   6.363   0.140 -0.3066  0.4201 -0.3009
  576MOL0     C75902   8.307   6.443   0.219 -1.1842  0.4236 -0.3581
  576MOL0     O75903   8.242   6.512   0.316  0.3265 -0.2349  0.4425
  576MOL0     C75904   8.110   6.485   0.341 -0.3494 -0.3340  0.2251
  576MOL0     C75905   8.060   6.358   0.347 -0.3853  0.1531 -0.4587
  576MOL0     C75906   7.921   6.327   0.367 -0.9467 -0.8271 -0.1549
  576MOL0     C75907   7.838   6.444   0.379  0.1328  1.4036  1.1764
  576MOL0     O75908   7.701   6.433   0.378 -0.2943 -0.3693  0.3535
  576MOL0     C75909   7.646   6.307   0.339 -0.0860  0.3694  0.2152
  576MOL0     C75910   7.490   6.334   0.337  0.6055  0.2604 -0.2089
  576MOL0     C75911   7.415   6.212   0.286  0.0282 -0.3254 -0.9376
  576MOL0     C75912   7.262   6.248   0.268  0.0644  0.6289 -0.4956
  576MOL0     C75913   7.185   6.114   0.266  1.2686 -0.5982  0.3350
  576MOL0     C75914   7.033   6.136   0.318 -0.2268 -0.4898 -0.3372
  576MOL0     C75915   6.955   6.006   0.342  0.4330 -0.4007  0.2563
  576MOL0     C75916   6.828   6.012   0.428  0.4585  0.7896 -0.2394
  576MOL0     N75917   6.719   6.102   0.380 -0.7129  0.2558 -0.5568
  576MOL0     C75918   6.650   6.096   0.263 -0.1937  0.9690  0.1282
  576MOL0     C75919   6.537   6.161   0.279 -0.2566 -0.2410  0.3755
  576MOL0     C75920   6.424   6.165   0.177 -0.2958 -0.2745 -0.6194
  576MOL0     C75921   6.352   6.033   0.177  0.2575 -0.1278  0.0924
  576MOL0     C75922   6.208   6.033   0.125  0.6222  0.9496 -0.3174
  576MOL0     C75923   6.106   6.088   0.233  0.0236  0.2604 -0.5573
  576MOL0     O75924   5.972   6.073   0.203  0.3967  0.3515 -0.0069
  576MOL0     C75925   5.914   5.942   0.200  0.3649 -0.2294  0.7286
  576MOL0     C75926   5.802   5.919   0.128 -0.0282  0.5550  1.1781
  576MOL0     C75927   5.735   5.795   0.124  0.1281 -0.1460 -0.2884
  576MOL0     C75928   5.774   5.696   0.207 -1.0277 -0.2192  0.0432
  576MOL0     C75929   5.714   5.563   0.200  0.2600 -0.2204  1.1770
  576MOL0     O75930   5.614   5.541   0.118 -0.1665  0.6574  0.6805
  576MOL0     C75931   5.535   5.430   0.124  0.5103 -0.0433  0.1124
  576MOL0     C75932   5.399   5.456   0.107  0.8978 -0.4559 -0.2895
  576MOL0     C75933   5.298   5.357   0.129  0.9358  0.6024  0.5455
  576MOL0     C75934   5.340   5.225   0.159 -0.1722  0.2645  0.6351
  576MOL0     O75935   5.253   5.126   0.177  0.4390  0.2580  1.0167
  576MOL0     C75936   5.181   5.106   0.052 -0.1884 -0.4799  0.0877
  576MOL0     C75937   5.087   4.987   0.065  1.3339 -0.0098  0.8225
  576MOL0     C75938   4.996   4.969  -0.061 -0.0266 -0.3283  0.2308
  576MOL0     C75939   4.870   4.881  -0.037  0.6088 -0.3809  0.0295
  576MOL0     C75940   4.806   4.835  -0.170  0.1954  0.2363  0.2446
  576MOL0     C75941   4.714   4.715  -0.145  0.1996  0.8199  0.9115
  576MOL0     C75942   4.579   4.744  -0.087 -0.1482  0.2076  0.3111
  576MOL0     C75943   4.482   4.659  -0.159 -0.0284 -0.7643  1.0140
  576MOL0    Cl75944   4.324   4.737  -0.119 -0.0599  0.4110 -0.0978
  576MOL0     C75945   5.474   5.191   0.160 -0.6391  1.1612  0.7524
  576MOL0     C75946   5.570   5.295   0.135 -0.5678  0.5233 -0.8352
  576MOL0     O75947   5.766   5.483   0.283 -0.5040 -0.1745 -0.2409
  576MOL0     C75948   5.887   5.722   0.287  0.0065  0.3501 -0.8158
  576MOL0     C75949   5.960   5.837   0.275 -0.3572 -0.2412  0.2128
  576MOL0     N75950   6.534   6.207   0.407  0.6368 -0.4739  0.1330
  576MOL0     N75951   6.644   6.175   0.467  0.4461  0.3937 -0.0613
  576MOL0     C75952   7.891   6.573   0.359  0.4580  0.3115 -0.3431
  576MOL0     C75953   8.024   6.593   0.333  0.3985 -0.5447 -0.0576
  576MOL0     C75954   8.447   6.474   0.203 -0.1650  0.1147 -1.0832
  576MOL0     C75955   8.523   6.546   0.301 -0.0502 -0.2104 -0.6321
  576MOL0     C75956   8.662   6.559   0.293  0.0532 -0.4306 -0.1244
  576MOL0     C75957   8.735   6.490   0.199  0.9231 -0.5764  0.4213
  576MOL0     O75958   8.877   6.494   0.199 -0.5945 -0.4794  0.9230
  576MOL0     C75959   8.929   6.362   0.222  0.8684 -0.2344  0.1459
  576MOL0     C75960   8.990   6.303   0.093 -0.1917  0.4177  0.5837
  576MOL0     C75961   9.140   6.237   0.101  0.3931 -0.8372  0.7147
  576MOL0     C75962   9.158   6.133   0.209  0.2097  0.5297 -0.7612
  576MOL0     C75963   9.049   6.034   0.215 -0.4586 -0.5852  0.5439
  576MOL0     C75964   8.951   5.972   0.240 -0.8422  0.6833 -0.1508
  576MOL0     C75965   8.660   6.408   0.107 -0.2842 -0.0966 -0.0162
  576MOL0     C75966   8.522   6.405   0.107 -0.0769  0.3357 -0.0393
  576MOL0     H75967   8.132   6.276   0.351  4.1759  3.6448 -1.5621
  576MOL0     H75968   7.885   6.225   0.371 -0.8694 -0.9177 -1.4640
  576MOL0     H75969   7.657   6.231   0.417  1.2947  1.9092  1.5996
  576MOL0     H75970   7.681   6.269   0.242  0.4667  0.8597  0.2183
  576MOL0     H75971   7.474   6.414   0.264 -2.3227 -1.5492 -1.7495
  576MOL0     H75972   7.457   6.376   0.432  0.6843  1.3139 -0.6388
  576MOL0     H75973   7.427   6.135   0.363 -1.2406  0.1304 -0.2585
  576MOL0     H75974   7.448   6.185   0.185  0.3700 -1.1536 -0.6101
  576MOL0     H75975   7.232   6.297   0.361  2.6913 -1.4493  1.6158
  576MOL0     H75976   7.255   6.309   0.178  2.2362  2.8877  0.7649
  576MOL0     H75977   7.233   6.047   0.337 -0.5168 -1.4565  0.7954
  576MOL0     H75978   7.185   6.071   0.165 -0.4071 -3.4391  1.4323
  576MOL0     H75979   6.979   6.195   0.243 -1.0742  0.4481  0.9757
  576MOL0     H75980   7.043   6.186   0.414 -1.5097 -2.0129  0.6374
  576MOL0     H75981   6.917   5.975   0.244  3.2917  0.5114 -1.2665
  576MOL0     H75982   7.013   5.918   0.370 -0.7432 -1.7653 -1.4013
  576MOL0     H75983   6.849   6.043   0.531  0.0292 -0.0076  0.0982
  576MOL0     H75984   6.799   5.907   0.421  1.9414  0.4867 -3.7900
  576MOL0     H75985   6.683   6.043   0.174  1.4720  4.2233 -1.3682
  576MOL0     H75986   6.457   6.192   0.076 -1.1596  2.0900 -0.3194
  576MOL0     H75987   6.349   6.238   0.207 -2.8417 -2.9417 -0.0975
  576MOL0     H75988   6.349   6.004   0.283  1.2051 -2.3473 -0.4219
  576MOL0     H75989   6.421   5.961   0.131  2.3615  2.3234 -0.8212
  576MOL0     H75990   6.195   6.107   0.045 -2.0167 -0.7141 -1.5632
  576MOL0     H75991   6.179   5.931   0.099 -3.1302  2.5021 -3.2709
  576MOL0     H75992   6.116   6.196   0.239 -2.6829  0.5285  0.4979
  576MOL0     H75993   6.129   6.050   0.333 -3.2600  2.0426  1.0201
  576MOL0     H75994   5.790   6.007   0.065  4.4186  0.7762  0.3079
  576MOL0     H75995   5.660   5.777   0.048 -0.4977 -0.9274  0.4935
  576MOL0     H75996   5.355   5.555   0.094 -1.2538 -1.4810 -1.2804
  576MOL0     H75997   5.196   5.391   0.138  0.6559  0.3605 -1.2894
  576MOL0     H75998   5.258   5.090  -0.024  1.6759  0.9962  1.5636
  576MOL0     H75999   5.125   5.193   0.017  0.7926 -0.0976 -0.5638
  576MOL0     H76000   5.028   5.010   0.154 -1.0367  0.2304 -0.7189
  576MOL0     H76001   5.144   4.896   0.085  0.7790  0.0143  2.7151
  576MOL0     H76002   5.057   4.937  -0.145  0.4468 -2.6925  1.3866
  576MOL0     H76003   4.947   5.065  -0.082 -2.2176 -1.3203  0.5071
  576MOL0     H76004   4.901   4.794   0.021 -2.9092 -0.2877  2.3835
  576MOL0     H76005   4.801   4.928   0.033  0.5953 -1.4167  0.7377
  576MOL0     H76006   4.895   4.804  -0.225  0.0285  0.6048 -0.2435
  576MOL0     H76007   4.751   4.916  -0.220 -1.2730  0.3743  2.0023
  576MOL0     H76008   4.759   4.639  -0.080 -0.0251  0.4345  0.6243
  576MOL0     H76009   4.712   4.657  -0.238 -0.9162 -2.9165  3.0216
  576MOL0     H76010   4.574   4.730   0.021 -1.5415 -0.7053  0.1529
  576MOL0     H76011   4.559   4.850  -0.106 -3.5511 -0.0422  1.8096
  576MOL0     H76012   4.482   4.558  -0.117 -1.7473 -1.0937  0.2992
  576MOL0     H76013   4.491   4.652  -0.267 -1.5588  1.0294  0.7192
  576MOL0     H76014   5.496   5.086   0.177 -3.2291  0.7593  2.1813
  576MOL0     H76015   5.676   5.273   0.126  0.0728  2.1600  1.8012
  576MOL0     H76016   5.921   5.642   0.352  1.6216 -1.0074 -3.1839
  576MOL0     H76017   6.055   5.847   0.326 -0.9876  1.5755  1.1095
  576MOL0     H76018   7.812   6.647   0.362 -0.6500 -0.8719  1.9552
  576MOL0     H76019   8.050   6.694   0.304 -0.5080  0.6896  3.0307
  576MOL0     H76020   8.477   6.608   0.378  1.0855  0.5285 -0.5251
  576MOL0     H76021   8.715   6.623   0.363  1.0934 -1.7364  0.3299
  576MOL0     H76022   8.850   6.296   0.259  1.1053 -0.0324  1.0435
  576MOL0     H76023   9.000   6.357   0.305  2.3948  0.3581 -1.0806
  576MOL0     H76024   8.918   6.232   0.053 -0.0708  1.3194 -1.3659
  576MOL0     H76025   8.993   6.379   0.014  3.2300 -0.2196 -0.0828
  576MOL0     H76026   9.213   6.318   0.107  0.3707 -0.8112  0.6369
  576MOL0     H76027   9.160   6.196   0.001 -0.0707  2.3752 -0.8296
  576MOL0     H76028   9.258   6.092   0.196  0.7079  1.8410 -1.2777
  576MOL0     H76029   9.157   6.188   0.304 -2.3733 -1.0714  0.2369
  576MOL0     H76030   8.854   5.944   0.274 -1.1190 -0.3211 -1.6364
  576MOL0     H76031   8.712   6.364   0.023  2.2522 -0.0178  1.4362
  576MOL0     H76032   8.476   6.345   0.029  0.5565  0.8446 -0.8215
  577MOL0     O76033   2.674   1.897   7.502  0.1290 -0.7102  0.4285
  577MOL0     C76034   2.676   1.791   7.563  0.2566 -0.8049  0.9138
  577MOL0     O76035   2.599   1.682   7.539  0.1146  0.5643 -0.5236
  577MOL0     C76036   2.518   1.660   7.427 -0.1604  0.3004 -0.2119
  577MOL0     C76037   2.496   1.747   7.327  0.0392  0.1419  0.6039
  577MOL0     C76038   2.412   1.718   7.218 -0.3784  0.0488  0.3187
  577MOL0     C76039   2.331   1.606   7.209  0.4061  0.9366  0.7275
  577MOL0     O76040   2.237   1.577   7.103 -0.6676  0.7637 -0.0043
  577MOL0     C76041   2.250   1.652   6.982  0.1041  0.4095  0.0830
  577MOL0     C76042   2.134   1.621   6.881  0.5460 -0.5511  0.6523
  577MOL0     C76043   2.018   1.719   6.906 -0.0226  0.0482 -0.2603
  577MOL0     C76044   1.949   1.714   7.042 -0.4956  0.1892  0.3100
  577MOL0     C76045   1.902   1.572   7.059  0.2771  0.4941  0.0096
  577MOL0     C76046   1.844   1.555   7.201  0.4222  0.2928  0.3310
  577MOL0     C76047   1.780   1.417   7.226 -0.5051 -0.3502 -1.0024
  577MOL0     C76048   1.679   1.381   7.124  0.4584  0.6212 -0.1979
  577MOL0     N76049   1.571   1.482   7.114  0.5346 -0.0925 -0.4210
  577MOL0     C76050   1.484   1.537   7.215 -0.4665  1.0629  0.3542
  577MOL0     C76051   1.410   1.624   7.149 -0.1850 -0.1169  0.6086
  577MOL0     C76052   1.316   1.725   7.213  0.4259 -0.5179  0.1942
  577MOL0     C76053   1.167   1.713   7.170  0.5468  0.2868  0.2664
  577MOL0     C76054   1.142   1.782   7.026  0.3430  0.1286 -0.4833
  577MOL0     C76055   1.009   1.733   6.968  0.7001 -0.0092 -0.9409
  577MOL0     O76056   0.899   1.799   7.023  0.4877 -0.6293  0.4065
  577MOL0     C76057   0.770   1.761   6.996 -0.0107  0.3678  0.2108
  577MOL0     C76058   0.728   1.651   6.915  0.6884 -0.8743  1.2118
  577MOL0     C76059   0.595   1.613   6.930  0.0742  0.1410  0.3210
  577MOL0     C76060   0.497   1.673   7.004  0.3567 -0.5243 -1.6129
  577MOL0     C76061   0.347   1.655   6.982 -0.2486 -0.2904 -0.3903
  577MOL0     O76062   0.258   1.738   7.045 -0.5158  0.5453 -0.5530
  577MOL0     C76063   0.132   1.750   7.001  1.3890 -0.3776 -0.1324
  577MOL0     C76064   0.072   1.878   7.001  0.1083  0.2717 -0.1706
  577MOL0     C76065  -0.066   1.900   6.962 -0.6076 -1.2637 -0.7659
  577MOL0     C76066  -0.140   1.789   6.913 -1.0697 -0.3285 -0.1326
  577MOL0     O76067  -0.264   1.817   6.861 -0.2162  0.5329  0.5653
  577MOL0     C76068  -0.369   1.715   6.858  0.2228 -1.0406 -0.4218
  577MOL0     C76069  -0.503   1.785   6.824  0.6380  0.6898  0.0768
  577MOL0     C76070  -0.637   1.713   6.861 -0.1462  0.2818 -0.3688
  577MOL0     C76071  -0.756   1.796   6.835 -0.0509 -0.5677  0.1397
  577MOL0     C76072  -0.891   1.743   6.871 -0.0678 -0.0693 -0.2284
  577MOL0     C76073  -0.937   1.790   7.012 -0.6365 -0.6529  0.0931
  577MOL0     C76074  -1.084   1.761   7.050 -0.1946  0.0645  0.3282
  577MOL0     C76075  -1.117   1.798   7.198 -0.5154  0.8505  0.5714
  577MOL0    Cl76076  -1.292   1.813   7.182  0.2025 -0.2576  0.0453
  577MOL0     C76077  -0.094   1.661   6.924  0.0575  0.1813  0.2828
  577MOL0     C76078   0.042   1.648   6.955  0.6803 -0.0225  0.3355
  577MOL0     O76079   0.317   1.556   6.911 -1.0079 -0.4500  0.3783
  577MOL0     C76080   0.541   1.785   7.084 -0.8780  1.1116  0.0249
  577MOL0     C76081   0.680   1.823   7.084  0.5004  0.0009  0.7162
  577MOL0     N76082   1.437   1.606   7.015  0.8815 -0.2735  0.0981
  577MOL0     N76083   1.545   1.537   6.996  0.7822  0.0938  0.6405
  577MOL0     C76084   2.334   1.526   7.323 -0.5017 -1.1958  0.3968
  577MOL0     C76085   2.430   1.547   7.425  0.2279  0.1400 -0.0418
  577MOL0     C76086   2.771   1.788   7.671  0.0660 -0.2461 -0.1055
  577MOL0     C76087   2.766   1.678   7.757 -0.0823  0.1799  0.2505
  577MOL0     C76088   2.869   1.652   7.852  0.1761 -0.0658  1.0446
  577MOL0     C76089   2.965   1.752   7.878  0.8646  0.7090 -0.3027
  577MOL0     O76090   3.073   1.744   7.963  0.2691  0.3564 -0.3922
  577MOL0     C76091   3.066   1.640   8.058  0.1563  0.9190  1.1138
  577MOL0     C76092   3.196   1.639   8.136 -0.5411  0.0245 -0.2837
  577MOL0     C76093   3.188   1.562   8.272 -0.4183  0.7763 -0.4176
  577MOL0     C76094   3.332   1.550   8.336  0.0306 -0.1722  0.7876
  577MOL0     C76095   3.429   1.466   8.258 -0.0784 -0.5449 -0.5651
  577MOL0     C76096   3.505   1.425   8.184 -0.0700 -0.1645 -0.2295
  577MOL0     C76097   2.962   1.869   7.802  0.3784  0.2382  0.0724
  577MOL0     C76098   2.873   1.889   7.699  1.0068  0.1052 -0.5902
  577MOL0     H76099   2.562   1.833   7.318  1.4830 -0.7758  1.9597
  577MOL0     H76100   2.407   1.798   7.144  0.9892  1.4449  1.6394
  577MOL0     H76101   2.346   1.632   6.935  1.0179  1.3636  1.4681
  577MOL0     H76102   2.256   1.760   7.000  0.1740  0.4208 -0.0095
  577MOL0     H76103   2.117   1.513   6.891  0.7481 -0.4956  1.6277
  577MOL0     H76104   2.171   1.640   6.780  0.5999 -1.1783  0.5464
  577MOL0     H76105   1.935   1.707   6.836 -1.5503  0.5781  1.3865
  577MOL0     H76106   2.062   1.819   6.901 -1.5125  0.6684 -2.2602
  577MOL0     H76107   2.020   1.733   7.122 -1.2116 -1.4468  1.3840
  577MOL0     H76108   1.878   1.797   7.053 -1.0258  0.0635 -1.6858
  577MOL0     H76109   1.968   1.488   7.037 -1.0657 -0.2754 -1.2464
  577MOL0     H76110   1.817   1.564   6.990  1.7392 -2.2060 -1.6430
  577MOL0     H76111   1.772   1.631   7.231  0.6113 -0.3131  2.4860
  577MOL0     H76112   1.927   1.558   7.273  0.9288 -2.8114  0.0211
  577MOL0     H76113   1.860   1.344   7.219 -0.1760  0.0171 -1.0743
  577MOL0     H76114   1.748   1.406   7.330 -0.2151  2.2111 -0.5788
  577MOL0     H76115   1.637   1.285   7.153 -2.4646  2.4530  2.2222
  577MOL0     H76116   1.722   1.366   7.025  0.6188 -3.6285  0.3581
  577MOL0     H76117   1.502   1.522   7.321  1.8553  1.4057  0.0577
  577MOL0     H76118   1.360   1.825   7.203 -0.6232  0.9946  6.3888
  577MOL0     H76119   1.320   1.707   7.321 -0.4057  0.6631  0.4449
  577MOL0     H76120   1.101   1.763   7.242  0.3468  3.3909 -1.8900
  577MOL0     H76121   1.126   1.611   7.168 -2.5977  1.4084 -2.6097
  577MOL0     H76122   1.157   1.890   7.031  0.4697  0.1119 -0.4884
  577MOL0     H76123   1.219   1.749   6.956  0.1799  1.2860 -1.2383
  577MOL0     H76124   0.998   1.629   6.999 -0.5509  0.3534 -0.1184
  577MOL0     H76125   0.995   1.738   6.859  0.5680  0.0941 -0.9186
  577MOL0     H76126   0.795   1.591   6.855 -2.2507 -1.7667 -1.5008
  577MOL0     H76127   0.565   1.541   6.854 -1.3536  0.6712  0.3471
  577MOL0     H76128   0.131   1.950   7.057 -0.0768  1.2975 -1.2651
  577MOL0     H76129  -0.099   2.004   6.960  0.6113 -0.8593 -0.7229
  577MOL0     H76130  -0.383   1.673   6.958 -3.5943 -0.5663 -0.6082
  577MOL0     H76131  -0.352   1.635   6.785  0.1859 -1.0602 -0.4085
  577MOL0     H76132  -0.502   1.802   6.716 -1.2833  0.0959 -0.0682
  577MOL0     H76133  -0.501   1.884   6.870  1.0661  1.8669 -2.2847
  577MOL0     H76134  -0.641   1.685   6.967  1.5780  3.0287  0.5450
  577MOL0     H76135  -0.646   1.616   6.811 -3.2303  0.4683 -0.3785
  577MOL0     H76136  -0.751   1.901   6.868 -3.0065 -1.3363  3.7326
  577MOL0     H76137  -0.752   1.817   6.727 -0.1093 -2.4531 -0.2518
  577MOL0     H76138  -0.902   1.634   6.864  0.7408 -0.4180  2.5315
  577MOL0     H76139  -0.954   1.790   6.795 -0.4350 -0.4777 -0.1830
  577MOL0     H76140  -0.921   1.898   7.009 -0.8990 -0.6179 -0.1231
  577MOL0     H76141  -0.879   1.752   7.096 -0.5868 -1.2929 -0.2189
  577MOL0     H76142  -1.135   1.826   6.978 -0.7118 -1.4916 -0.7679
  577MOL0     H76143  -1.129   1.664   7.027  0.6839 -0.6216  1.4393
  577MOL0     H76144  -1.075   1.891   7.235  0.5583  0.4850  0.3338
  577MOL0     H76145  -1.085   1.713   7.259 -0.4086 -3.6594 -4.8728
  577MOL0     H76146  -0.146   1.584   6.868  2.4163 -2.9223  2.0833
  577MOL0     H76147   0.063   1.542   6.947 -1.6201 -0.3681 -2.7903
  577MOL0     H76148   0.479   1.816   7.167 -0.4660  3.4120 -0.4688
  577MOL0     H76149   0.711   1.896   7.159  1.5330  0.1115  0.1986
  577MOL0     H76150   2.270   1.438   7.316 -0.1696 -1.3199 -1.6974
  577MOL0     H76151   2.446   1.475   7.505 -1.1385 -1.4224 -1.1326
  577MOL0     H76152   2.702   1.592   7.744 -0.4426  0.1921  1.7299
  577MOL0     H76153   2.878   1.549   7.888  1.2455 -1.5103 -2.8619
  577MOL0     H76154   3.066   1.539   8.016  1.7940  1.5809 -0.6169
  577MOL0     H76155   2.977   1.651   8.121 -1.4603 -1.0869 -0.6356
  577MOL0     H76156   3.274   1.594   8.074 -2.5689  0.2680 -3.1936
  577MOL0     H76157   3.227   1.742   8.157 -1.4556  0.5087 -1.2610
  577MOL0     H76158   3.150   1.462   8.247  2.6505 -1.1790  1.9668
  577MOL0     H76159   3.121   1.614   8.341  0.3694  2.5032 -0.9053
  577MOL0     H76160   3.376   1.650   8.335 -2.0965  0.8722 -1.8809
  577MOL0     H76161   3.334   1.509   8.437 -1.9823 -1.0515  0.5107
  577MOL0     H76162   3.567   1.372   8.115 -1.4599 -2.5879  0.3022
  577MOL0     H76163   3.032   1.945   7.835  0.1179 -0.8512  3.6426
  577MOL0     H76164   2.877   1.975   7.632  0.1732 -0.0305 -0.8278
  578MOL0     O76165   8.020  10.072   2.482  0.3535  0.7926  0.5864
  578MOL0     C76166   8.079  10.028   2.376 -0.1913  0.6741 -0.7210
  578MOL0     O76167   8.025  10.015   2.251  0.6005  0.2669  0.3537
  578MOL0     C76168   7.893  10.059   2.234  0.2982 -0.1366  0.6152
  578MOL0     C76169   7.875  10.173   2.165 -0.2531  0.2951 -0.3228
  578MOL0     C76170   7.745  10.219   2.149 -0.2516  0.6337 -0.5783
  578MOL0     C76171   7.630  10.140   2.191 -0.0586 -0.0113 -0.1895
  578MOL0     O76172   7.516  10.169   2.130  0.2255 -0.4082  0.1175
  578MOL0     C76173   7.393  10.098   2.154  0.2958 -0.6826 -0.1286
  578MOL0     C76174   7.322  10.156   2.272  0.5628 -0.2001 -0.0145
  578MOL0     C76175   7.198  10.065   2.308 -0.7070 -0.2574  0.1885
  578MOL0     C76176   7.099  10.139   2.397 -0.0554 -0.1843 -0.5422
  578MOL0     C76177   6.976  10.053   2.453  0.0086 -0.0350 -0.7694
  578MOL0     C76178   6.847  10.061   2.375  0.9330 -0.2801  0.9026
  578MOL0     C76179   6.730   9.998   2.450 -0.1334  0.1153  0.6592
  578MOL0     C76180   6.681  10.084   2.565 -0.7385 -0.6381  0.7504
  578MOL0     N76181   6.544  10.038   2.590 -0.8221  0.3102 -0.1119
  578MOL0     C76182   6.436  10.063   2.515  0.0905  0.8457 -0.0895
  578MOL0     C76183   6.344   9.982   2.570  0.3307  0.4644  0.8403
  578MOL0     C76184   6.199   9.956   2.543  0.2689  0.2077  0.2116
  578MOL0     C76185   6.105  10.037   2.634 -0.1160 -1.0597 -0.2004
  578MOL0     C76186   6.098  10.188   2.600 -0.0639 -0.1877  0.5698
  578MOL0     C76187   6.082  10.223   2.453  0.1349 -0.5267 -0.5238
  578MOL0     O76188   5.966  10.173   2.385  0.5111  0.3661 -0.4034
  578MOL0     C76189   5.932  10.219   2.256  0.7894 -0.1930 -0.5455
  578MOL0     C76190   5.998  10.324   2.191 -0.3324  0.5005 -1.1508
  578MOL0     C76191   5.942  10.366   2.070 -0.6381  0.7680  0.2547
  578MOL0     C76192   5.838  10.302   2.006 -0.2968  0.0917 -0.2005
  578MOL0     C76193   5.802  10.326   1.864 -0.1026 -0.3938  0.5701
  578MOL0     O76194   5.914  10.340   1.779  0.3964  0.3165  0.2257
  578MOL0     C76195   5.900  10.356   1.642  0.3506  0.4108  0.6998
  578MOL0     C76196   5.886  10.476   1.581 -0.4901 -0.9263 -0.4029
  578MOL0     C76197   5.876  10.485   1.442  0.0508  0.5203 -1.0294
  578MOL0     C76198   5.904  10.371   1.360  1.1485  0.4829 -0.0919
  578MOL0     O76199   5.924  10.401   1.226 -0.0071  0.6101  0.2808
  578MOL0     C76200   6.038  10.337   1.167  0.1722  0.3788  0.8198
  578MOL0     C76201   6.032  10.348   1.014  0.3303  0.1358  0.1995
  578MOL0     C76202   6.031  10.509   0.977 -0.0001  0.5422 -0.0802
  578MOL0     C76203   6.088  10.545   0.846 -0.4749  0.0218 -0.7023
  578MOL0     C76204   6.096  10.695   0.829 -0.0435 -0.1273 -0.0491
  578MOL0     C76205   6.199  10.767   0.925 -0.1518  0.1949 -0.3261
  578MOL0     C76206   6.195  10.912   0.903 -0.2408  0.3595  0.6395
  578MOL0     C76207   6.284  10.992   1.001 -0.8729  0.4485 -0.4807
  578MOL0    Cl76208   6.227  11.163   1.024 -0.0298 -0.1457 -0.2598
  578MOL0     C76209   5.920  10.244   1.421  0.0013 -0.3662  0.1275
  578MOL0     C76210   5.908  10.236   1.561  0.0810  0.2590 -0.2677
  578MOL0     O76211   5.686  10.340   1.838 -0.2818  0.5053  0.6934
  578MOL0     C76212   5.775  10.190   2.072 -0.2357  0.7401  0.4506
  578MOL0     C76213   5.827  10.156   2.199 -0.8108  0.9308  0.1693
  578MOL0     N76214   6.414   9.899   2.663  0.6903 -0.4560 -0.8059
  578MOL0     N76215   6.530   9.932   2.672  0.2531 -0.6759  0.4148
  578MOL0     C76216   7.652  10.046   2.292  0.3379 -0.0947  0.0001
  578MOL0     C76217   7.782   9.992   2.294 -0.0929  0.3541 -0.0274
  578MOL0     C76218   8.220   9.991   2.392  0.1791  1.1226 -0.1313
  578MOL0     C76219   8.307   9.971   2.281 -0.5095  0.2481 -0.7193
  578MOL0     C76220   8.439   9.945   2.300 -0.5867 -0.3460  0.4981
  578MOL0     C76221   8.505   9.947   2.431 -0.0335 -0.1432  0.8654
  578MOL0     O76222   8.632   9.926   2.457 -0.0312  0.2014 -0.5120
  578MOL0     C76223   8.704   9.895   2.339 -0.6696  0.1087  0.5231
  578MOL0     C76224   8.852   9.881   2.367  0.0060  0.3876  0.5508
  578MOL0     C76225   8.925  10.012   2.384 -1.1635 -0.2760 -0.2017
  578MOL0     C76226   9.065   9.990   2.448 -0.1359 -0.2038  0.2737
  578MOL0     C76227   9.073   9.889   2.544  0.0369  0.6338  0.6141
  578MOL0     C76228   9.067   9.790   2.614 -0.1685  0.0409 -0.5817
  578MOL0     C76229   8.418   9.952   2.537  0.8790  0.3376  0.2650
  578MOL0     C76230   8.283   9.979   2.512 -0.0613  0.6408 -1.0057
  578MOL0     H76231   7.964  10.227   2.134 -0.5666  0.4890 -0.9049
  578MOL0     H76232   7.737  10.309   2.089 -0.4484  0.4299 -0.8598
  578MOL0     H76233   7.416   9.994   2.179  1.5910  0.1483  2.5044
  578MOL0     H76234   7.334  10.102   2.062 -0.9419  4.4079  0.5709
  578MOL0     H76235   7.293  10.257   2.242 -0.6999 -0.1212  1.3684
  578MOL0     H76236   7.374  10.172   2.367 -2.2811  1.5051  1.4008
  578MOL0     H76237   7.242   9.983   2.365 -3.5278 -1.1797  1.1875
  578MOL0     H76238   7.145  10.030   2.219 -0.1523 -1.1425  0.1926
  578MOL0     H76239   7.141  10.178   2.490 -1.7759  0.7273 -0.1136
  578MOL0     H76240   7.054  10.213   2.330 -1.5589 -1.6978 -1.2864
  578MOL0     H76241   6.949  10.090   2.552 -2.1277 -1.3591 -0.7851
  578MOL0     H76242   7.002   9.947   2.463 -0.6975 -0.0399  1.4188
  578MOL0     H76243   6.848  10.017   2.275 -0.8766 -1.1470  1.2215
  578MOL0     H76244   6.823  10.166   2.355  0.4471 -0.7209 -1.0667
  578MOL0     H76245   6.649   9.993   2.376  0.3467  2.9511 -0.1642
  578MOL0     H76246   6.750   9.895   2.480 -2.9610 -0.6439  0.2785
  578MOL0     H76247   6.688  10.193   2.553 -0.1767 -0.1388  4.3198
  578MOL0     H76248   6.741  10.079   2.656 -0.7270  2.3404  1.0082
  578MOL0     H76249   6.415  10.133   2.434 -1.6406  0.8177  0.2811
  578MOL0     H76250   6.184   9.849   2.560  3.0772 -0.5364 -1.4041
  578MOL0     H76251   6.178   9.967   2.436 -0.5501 -1.2436  0.1983
  578MOL0     H76252   6.125  10.040   2.741 -2.8245  0.2743  0.3665
  578MOL0     H76253   6.007   9.989   2.630 -0.5428 -0.2406  0.1383
  578MOL0     H76254   6.011  10.220   2.659 -0.0090  0.7064  0.1848
  578MOL0     H76255   6.180  10.238   2.652 -1.4972  0.6555  2.1385
  578MOL0     H76256   6.160  10.200   2.379 -2.7179  1.8822 -4.7444
  578MOL0     H76257   6.072  10.332   2.463  3.0804  0.0397 -2.3657
  578MOL0     H76258   6.077  10.380   2.240  0.7680 -0.9728 -1.2052
  578MOL0     H76259   6.000  10.445   2.024 -0.6069 -0.0031 -1.0627
  578MOL0     H76260   5.871  10.563   1.644  0.3894  1.8689 -3.7619
  578MOL0     H76261   5.865  10.580   1.391 -0.0426 -0.3873 -2.8127
  578MOL0     H76262   6.036  10.229   1.186 -3.7698  0.2667  0.6555
  578MOL0     H76263   6.130  10.384   1.201  0.7110  0.0982 -0.2011
  578MOL0     H76264   5.938  10.299   0.986  0.0854 -0.9737  2.7201
  578MOL0     H76265   6.113  10.304   0.954 -1.2417 -1.0016 -1.1948
  578MOL0     H76266   6.078  10.564   1.059  1.2137 -1.6273  0.7669
  578MOL0     H76267   5.930  10.549   0.975  0.3894  1.5678 -2.1349
  578MOL0     H76268   6.185  10.498   0.827 -0.6695 -1.1680  0.9960
  578MOL0     H76269   6.019  10.505   0.771  1.0916  0.2402 -2.3399
  578MOL0     H76270   5.994  10.731   0.842  0.1352 -0.1847  1.6355
  578MOL0     H76271   6.134  10.722   0.729  1.9768 -1.3887  0.3248
  578MOL0     H76272   6.297  10.722   0.906 -0.8412 -0.6451 -2.0715
  578MOL0     H76273   6.179  10.745   1.030  6.2982  0.7657  1.4943
  578MOL0     H76274   6.242  10.918   0.805  1.1139 -1.3180  1.1256
  578MOL0     H76275   6.091  10.943   0.915 -0.9188 -0.6505 -1.9731
  578MOL0     H76276   6.388  10.986   0.969 -0.7314  3.7319 -1.0283
  578MOL0     H76277   6.281  10.943   1.098  1.9881 -1.4585 -1.2256
  578MOL0     H76278   5.950  10.150   1.376  2.5423  1.3068 -1.8686
  578MOL0     H76279   5.927  10.150   1.624 -0.3126  0.0030 -0.4964
  578MOL0     H76280   5.689  10.140   2.029 -1.1713  1.3434  1.5578
  578MOL0     H76281   5.791  10.074   2.260  2.0470 -1.2680 -0.8670
  578MOL0     H76282   7.573   9.992   2.342 -1.0621 -0.1129 -2.1041
  578MOL0     H76283   7.808   9.904   2.352  2.2080 -0.3458 -1.9678
  578MOL0     H76284   8.263   9.993   2.184  1.2251  0.1283 -1.5717
  578MOL0     H76285   8.493   9.919   2.209  1.9713 -0.8800  2.0377
  578MOL0     H76286   8.684   9.978   2.270  2.3040 -1.0018 -1.8582
  578MOL0     H76287   8.671   9.800   2.296  1.0752 -0.1005 -0.4211
  578MOL0     H76288   8.852   9.813   2.453  2.2505 -0.0612  0.2529
  578MOL0     H76289   8.893   9.833   2.278 -2.0412  1.6504 -1.1628
  578MOL0     H76290   8.865  10.071   2.454 -2.2842 -0.9421 -0.5844
  578MOL0     H76291   8.949  10.069   2.294  1.4424  0.5778  0.9101
  578MOL0     H76292   9.133   9.957   2.369 -2.4633  1.6453 -2.7641
  578MOL0     H76293   9.092  10.091   2.481 -1.4388 -0.6332  2.9022
  578MOL0     H76294   9.053   9.698   2.666  0.6754 -0.0220 -0.4644
  578MOL0     H76295   8.452   9.955   2.641  1.4472 -0.6076  0.1181
  578MOL0     H76296   8.230   9.994   2.606  0.1623  1.5747 -1.0120
  579MOL0     O76297   5.168   7.024   4.605  0.0604  0.0382  0.5895
  579MOL0     C76298   5.246   6.931   4.608 -0.1315 -0.0663  0.2117
  579MOL0     O76299   5.209   6.800   4.626  0.1679  0.5807  0.4357
  579MOL0     C76300   5.080   6.748   4.655  0.6690 -0.2255  0.1533
  579MOL0     C76301   4.969   6.828   4.694 -0.0842 -0.1592  0.5613
  579MOL0     C76302   4.841   6.769   4.735  0.5492 -0.5648  0.2596
  579MOL0     C76303   4.832   6.634   4.713  1.2546  0.0391 -0.0852
  579MOL0     O76304   4.706   6.585   4.750 -0.3520  0.8404  0.3679
  579MOL0     C76305   4.667   6.477   4.664  1.5439  0.0155 -0.2314
  579MOL0     C76306   4.520   6.464   4.670  0.8069  0.1690 -0.2089
  579MOL0     C76307   4.447   6.586   4.620  0.7105  0.4531 -0.3001
  579MOL0     C76308   4.456   6.583   4.465 -0.1301  0.5116  0.2865
  579MOL0     C76309   4.357   6.682   4.405 -0.5428 -0.3397  1.6628
  579MOL0     C76310   4.219   6.643   4.437  0.3891 -0.2902 -0.1076
  579MOL0     C76311   4.117   6.717   4.353 -0.9889 -0.0091 -1.0373
  579MOL0     C76312   3.971   6.698   4.403  0.2873  0.3011 -0.8521
  579MOL0     N76313   3.875   6.747   4.297 -0.1126  0.4660 -0.1622
  579MOL0     C76314   3.775   6.661   4.255  0.2952 -0.2794 -0.6013
  579MOL0     C76315   3.695   6.745   4.178  1.6927  0.7542 -0.1579
  579MOL0     C76316   3.554   6.712   4.117  0.3541  0.0722 -0.7654
  579MOL0     C76317   3.508   6.829   4.024  0.9112 -0.2907 -0.4448
  579MOL0     C76318   3.383   6.810   3.940 -0.8531 -0.0535  1.1086
  579MOL0     C76319   3.251   6.804   4.017 -0.6926 -0.3422 -0.8856
  579MOL0     O76320   3.146   6.746   3.939 -0.2144  0.7321 -0.0692
  579MOL0     C76321   3.021   6.761   3.986 -0.5366 -0.0463  0.4475
  579MOL0     C76322   2.924   6.751   3.886  0.0637 -0.4227 -0.6801
  579MOL0     C76323   2.785   6.769   3.920 -0.1535  0.5070 -0.4236
  579MOL0     C76324   2.746   6.785   4.053 -0.7911  0.0978  0.2531
  579MOL0     C76325   2.608   6.810   4.095  0.1546 -0.2970  0.7483
  579MOL0     O76326   2.516   6.807   3.995  0.1454 -0.0780  0.0286
  579MOL0     C76327   2.378   6.812   4.022 -0.0506 -0.3603  0.4141
  579MOL0     C76328   2.287   6.853   3.926  0.5402  0.1019  0.0627
  579MOL0     C76329   2.154   6.875   3.961 -0.9346 -0.2455  0.3142
  579MOL0     C76330   2.094   6.826   4.078 -0.3379  0.0662 -0.2133
  579MOL0     O76331   1.956   6.827   4.087  0.0389 -0.4343  0.9041
  579MOL0     C76332   1.886   6.752   4.185  0.1728 -0.9711  0.9115
  579MOL0     C76333   1.740   6.744   4.136 -0.6080  0.6846 -0.1438
  579MOL0     C76334   1.652   6.692   4.252  0.0114  0.2804 -0.2489
  579MOL0     C76335   1.508   6.726   4.221  0.7825 -0.3157 -0.5984
  579MOL0     C76336   1.422   6.629   4.311  0.4616  0.2511 -0.0590
  579MOL0     C76337   1.398   6.480   4.263  1.1115  0.1378  0.8931
  579MOL0     C76338   1.339   6.461   4.123  0.5536  0.0518  0.4938
  579MOL0     C76339   1.308   6.315   4.080 -1.1167 -0.4279  0.4338
  579MOL0    Cl76340   1.466   6.222   4.055 -0.5052 -0.4526 -0.1195
  579MOL0     C76341   2.181   6.776   4.175 -0.0982  0.4157 -0.2750
  579MOL0     C76342   2.319   6.767   4.144  0.0206  0.2099  0.4813
  579MOL0     O76343   2.588   6.825   4.214 -0.1249 -0.2793  0.5861
  579MOL0     C76344   2.854   6.799   4.148 -0.4336  0.0531 -0.5513
  579MOL0     C76345   2.987   6.794   4.113 -0.0329 -0.1222 -0.7666
  579MOL0     N76346   3.757   6.867   4.179  0.4683 -0.9780 -0.3325
  579MOL0     N76347   3.861   6.878   4.257 -0.1015 -0.6192  0.2067
  579MOL0     C76348   4.930   6.559   4.660 -0.4481 -0.0744  1.0756
  579MOL0     C76349   5.055   6.611   4.638 -0.1626  0.4854  0.8577
  579MOL0     C76350   5.393   6.953   4.572  0.1284  0.0108 -0.2895
  579MOL0     C76351   5.444   7.083   4.559  0.4809 -0.0665 -0.6245
  579MOL0     C76352   5.569   7.107   4.503 -0.3764 -1.0058 -0.4296
  579MOL0     C76353   5.637   7.002   4.446 -0.8512  0.2177 -0.1109
  579MOL0     O76354   5.747   7.015   4.366  0.6757  0.4107 -0.1308
  579MOL0     C76355   5.831   7.128   4.391  0.5510  0.4484  0.6019
  579MOL0     C76356   5.975   7.088   4.392 -0.7575 -0.0028  0.4053
  579MOL0     C76357   6.007   7.008   4.264 -0.5209  0.1619 -0.0248
  579MOL0     C76358   6.154   6.978   4.246 -0.1642  0.2375  0.1317
  579MOL0     C76359   6.247   7.094   4.257  0.6968  0.6683 -0.2109
  579MOL0     C76360   6.324   7.184   4.241  0.6834 -0.1146  0.5297
  579MOL0     C76361   5.590   6.866   4.461  0.0528 -1.6612  0.0345
  579MOL0     C76362   5.470   6.843   4.532 -0.5600  0.7134 -0.1896
  579MOL0     H76363   4.977   6.936   4.703 -0.2163 -0.1913  1.1257
  579MOL0     H76364   4.746   6.819   4.749  0.1912  0.3279 -3.8659
  579MOL0     H76365   4.706   6.383   4.704 -0.6426 -1.0499 -0.4578
  579MOL0     H76366   4.698   6.478   4.560  0.8948 -0.9516 -0.4458
  579MOL0     H76367   4.483   6.453   4.772 -0.8545  4.0195 -0.2287
  579MOL0     H76368   4.482   6.374   4.621  1.7247 -0.8687  0.9218
  579MOL0     H76369   4.500   6.678   4.647  0.8449  1.2628 -3.0515
  579MOL0     H76370   4.346   6.573   4.659  0.3993  0.8289 -0.9745
  579MOL0     H76371   4.559   6.581   4.428  0.4410 -4.2185  1.4738
  579MOL0     H76372   4.429   6.482   4.431 -1.2871  1.7424 -2.7770
  579MOL0     H76373   4.364   6.666   4.297 -4.6304 -4.3454  1.6916
  579MOL0     H76374   4.383   6.786   4.428 -0.0382 -0.2406  0.7260
  579MOL0     H76375   4.197   6.677   4.538 -1.0754  1.3759 -0.9336
  579MOL0     H76376   4.202   6.535   4.429  0.2886 -0.3601  0.9105
  579MOL0     H76377   4.117   6.826   4.363  1.6555 -0.0764  0.5752
  579MOL0     H76378   4.133   6.690   4.249  0.1225 -0.0712 -0.8599
  579MOL0     H76379   3.962   6.748   4.500  1.7999 -0.8930 -0.0535
  579MOL0     H76380   3.966   6.591   4.427 -0.7272  0.2225 -1.3449
  579MOL0     H76381   3.767   6.553   4.269 -2.3252  0.0251  0.9814
  579MOL0     H76382   3.487   6.693   4.202 -0.0250 -0.6111 -1.2036
  579MOL0     H76383   3.551   6.617   4.063 -1.9240  0.0780 -0.7402
  579MOL0     H76384   3.587   6.842   3.950  0.3893  1.3828 -0.7467
  579MOL0     H76385   3.513   6.918   4.088  3.7251  0.2714 -1.3352
  579MOL0     H76386   3.375   6.897   3.874 -1.0629  0.7778  2.1943
  579MOL0     H76387   3.401   6.726   3.872  2.2778 -0.3148  2.0946
  579MOL0     H76388   3.229   6.903   4.058  1.7732 -0.3130  0.5618
  579MOL0     H76389   3.267   6.734   4.099  2.6005  2.3060  1.0289
  579MOL0     H76390   2.946   6.735   3.781 -1.2283  1.2802 -1.2605
  579MOL0     H76391   2.708   6.748   3.846  2.1707 -0.5764 -2.6636
  579MOL0     H76392   2.330   6.872   3.829  4.1692 -1.9285  1.0901
  579MOL0     H76393   2.097   6.916   3.878  0.4641  1.2939  0.0358
  579MOL0     H76394   1.901   6.800   4.282  1.5247  0.1905  0.1720
  579MOL0     H76395   1.928   6.651   4.190 -1.7145 -1.8284  0.2688
  579MOL0     H76396   1.741   6.672   4.053  1.1551  0.3424  0.1477
  579MOL0     H76397   1.698   6.835   4.093 -0.6037  0.6541 -0.2145
  579MOL0     H76398   1.661   6.744   4.348 -0.3500  0.5480 -0.3585
  579MOL0     H76399   1.672   6.587   4.276  1.0714  1.0066  2.3897
  579MOL0     H76400   1.468   6.825   4.245  0.4974  0.2929 -3.3190
  579MOL0     H76401   1.484   6.708   4.116 -2.0351  1.7223 -0.4248
  579MOL0     H76402   1.320   6.668   4.321  0.0922 -0.9463  1.2071
  579MOL0     H76403   1.466   6.630   4.412 -0.5527 -2.0926  0.4680
  579MOL0     H76404   1.338   6.426   4.337  1.1595 -0.2105  0.6755
  579MOL0     H76405   1.497   6.435   4.275  3.1742  4.2385  1.1120
  579MOL0     H76406   1.243   6.513   4.124 -1.9088 -4.0603  1.8454
  579MOL0     H76407   1.407   6.505   4.049  1.0171  1.5841  1.7725
  579MOL0     H76408   1.254   6.310   3.984 -2.4258  0.5524  1.0900
  579MOL0     H76409   1.243   6.266   4.152 -1.0171  1.8057  2.1393
  579MOL0     H76410   2.146   6.732   4.268  1.3155 -2.7960 -1.1241
  579MOL0     H76411   2.388   6.723   4.214  0.0322 -0.5638 -0.0054
  579MOL0     H76412   2.830   6.810   4.253  1.6877 -1.1941  0.1429
  579MOL0     H76413   3.061   6.816   4.188 -1.2749  2.8633 -0.2370
  579MOL0     H76414   4.933   6.451   4.649  0.5858  0.1623 -2.5585
  579MOL0     H76415   5.126   6.539   4.599  0.0024 -0.7550  3.2639
  579MOL0     H76416   5.382   7.169   4.583  3.5170  2.3268 -0.7557
  579MOL0     H76417   5.593   7.212   4.493 -0.5295 -1.1576 -3.0078
  579MOL0     H76418   5.818   7.176   4.488  0.6883 -2.1005  1.9506
  579MOL0     H76419   5.811   7.208   4.319  2.4378  0.0148 -0.4735
  579MOL0     H76420   6.029   7.183   4.400 -2.1349  0.7555  1.0229
  579MOL0     H76421   6.004   7.034   4.483 -0.6537 -0.8167 -0.0975
  579MOL0     H76422   5.969   7.074   4.187 -0.6751 -1.7739 -1.6893
  579MOL0     H76423   5.954   6.912   4.268 -1.2277  0.5624  2.5585
  579MOL0     H76424   6.184   6.898   4.314  0.8602  2.2415  2.1530
  579MOL0     H76425   6.178   6.943   4.145 -1.3370 -2.9783  0.8352
  579MOL0     H76426   6.379   7.274   4.225  0.5052  0.2532  1.8502
  579MOL0     H76427   5.641   6.788   4.405  0.9179 -0.3530 -1.0746
  579MOL0     H76428   5.437   6.739   4.528  0.8760  0.2041  0.3847
  580MOL0     O76429   3.517   4.937   9.913 -0.6143  0.3406 -0.2230
  580MOL0     C76430   3.538   4.943  10.032  0.4921 -0.6819 -0.6114
  580MOL0     O76431   3.452   4.915  10.131  0.4247  0.3843  0.4384
  580MOL0     C76432   3.324   4.908  10.097  0.7664 -0.3502 -0.2518
  580MOL0     C76433   3.260   4.785  10.050 -0.2408 -0.3239 -0.3482
  580MOL0     C76434   3.119   4.778  10.019 -0.6900  0.1215  0.0468
  580MOL0     C76435   3.043   4.891  10.036  0.8038  0.4291 -0.7560
  580MOL0     O76436   2.906   4.904  10.005  0.0209 -1.0927 -0.7841
  580MOL0     C76437   2.830   4.789   9.976 -0.1879  1.1216 -0.2047
  580MOL0     C76438   2.671   4.803   9.953 -0.3491 -0.4059  0.4479
  580MOL0     C76439   2.608   4.869  10.070  0.6755 -0.2913  0.4549
  580MOL0     C76440   2.579   4.775  10.187 -0.1303  0.7248  0.0437
  580MOL0     C76441   2.472   4.840  10.286 -0.4096  0.1295 -0.0233
  580MOL0     C76442   2.324   4.810  10.231  0.4919  0.4199 -0.5707
  580MOL0     C76443   2.219   4.865  10.332 -0.3783  0.1918  0.5868
  580MOL0     C76444   2.082   4.855  10.264  0.3768 -0.2797  0.7350
  580MOL0     N76445   1.985   4.862  10.368  0.2616  0.3230 -0.2261
  580MOL0     C76446   1.971   4.763  10.463  0.4093 -0.2941 -0.3627
  580MOL0     C76447   1.872   4.810  10.546  0.2093 -0.5633  0.1833
  580MOL0     C76448   1.813   4.754  10.668 -0.1455  0.1587 -0.0253
  580MOL0     C76449   1.687   4.678  10.635  0.9284 -0.8311 -0.7026
  580MOL0     C76450   1.594   4.655  10.761 -0.1036 -0.2971 -0.4102
  580MOL0     C76451   1.493   4.545  10.727 -0.4705  0.2799  0.0844
  580MOL0     O76452   1.400   4.507  10.827  0.7130 -0.4016  0.1993
  580MOL0     C76453   1.276   4.468  10.778  0.1402 -0.8340 -0.7231
  580MOL0     C76454   1.176   4.569  10.758  0.5175 -0.2586  0.0982
  580MOL0     C76455   1.055   4.538  10.696  0.8814 -0.9630  0.2728
  580MOL0     C76456   1.034   4.411  10.639  0.6593  0.5217 -0.3763
  580MOL0     C76457   0.904   4.368  10.569  0.1102 -1.5254  0.1952
  580MOL0     O76458   0.826   4.478  10.527  0.6522 -0.5604 -0.4234
  580MOL0     C76459   0.711   4.449  10.466  0.6417 -0.5618 -0.0869
  580MOL0     C76460   0.691   4.406  10.336  1.0345  0.2299  0.1725
  580MOL0     C76461   0.571   4.398  10.270  0.2586  0.1756 -0.4987
  580MOL0     C76462   0.450   4.418  10.346  0.0683 -0.4304  1.2584
  580MOL0     O76463   0.330   4.417  10.279  0.2206 -0.5125  0.8681
  580MOL0     C76464   0.248   4.531  10.285 -0.1934 -0.5122  0.8612
  580MOL0     C76465   0.178   4.540  10.149 -0.0952  0.3571 -0.4360
  580MOL0     C76466   0.084   4.657  10.148  0.4551  0.3279 -0.5053
  580MOL0     C76467   0.002   4.638  10.019 -0.1764  0.1859 -0.0037
  580MOL0     C76468  -0.134   4.711  10.028  0.0912 -0.5162  1.5341
  580MOL0     C76469  -0.219   4.685   9.905  0.9421 -0.4137  0.7606
  580MOL0     C76470  -0.157   4.737   9.766  0.6772  0.2299  0.7546
  580MOL0     C76471  -0.234   4.691   9.646 -0.5610 -0.3046  0.7624
  580MOL0    Cl76472  -0.396   4.782   9.672  0.1119 -0.2083 -0.2331
  580MOL0     C76473   0.459   4.453  10.484 -0.3209 -0.5820  0.2014
  580MOL0     C76474   0.591   4.478  10.539 -0.4962  0.2540 -0.6538
  580MOL0     O76475   0.880   4.251  10.541  0.3528 -0.1013 -0.4878
  580MOL0     C76476   1.135   4.314  10.658  0.1434 -0.8200 -0.2100
  580MOL0     C76477   1.255   4.341  10.723  0.4552 -0.4984 -0.3296
  580MOL0     N76478   1.837   4.937  10.495  0.3087  0.4597  0.0982
  580MOL0     N76479   1.898   4.963  10.390  0.4470  0.1967  0.4779
  580MOL0     C76480   3.100   5.016  10.079 -0.3702 -0.4915  0.5949
  580MOL0     C76481   3.235   5.021  10.115 -0.5504 -0.6208 -0.3584
  580MOL0     C76482   3.677   4.952  10.080 -0.4762  0.5129  0.0206
  580MOL0     C76483   3.781   4.961   9.984 -0.6387  1.4717 -0.2993
  580MOL0     C76484   3.910   4.950  10.027  0.4432 -0.4278 -0.7394
  580MOL0     C76485   3.931   4.919  10.164 -0.1243 -0.9774  0.0590
  580MOL0     O76486   4.058   4.908  10.206 -0.4540 -0.2812 -0.1297
  580MOL0     C76487   4.148   4.815  10.142  0.5602 -0.7114 -0.1782
  580MOL0     C76488   4.283   4.836  10.221  0.3814 -1.3085  0.6598
  580MOL0     C76489   4.403   4.771  10.157 -0.3495  0.6518 -0.3750
  580MOL0     C76490   4.525   4.788  10.246  1.1313 -0.0419  0.6165
  580MOL0     C76491   4.620   4.718  10.163  0.2862 -0.6508 -0.8504
  580MOL0     C76492   4.711   4.663  10.114 -0.0262  1.1067  0.5762
  580MOL0     C76493   3.832   4.916  10.257 -0.0900 -0.5168  1.0393
  580MOL0     C76494   3.708   4.941  10.219  0.3136 -0.6610  0.0468
  580MOL0     H76495   3.320   4.695  10.038  1.5673  0.8523 -0.5764
  580MOL0     H76496   3.085   4.686   9.973  0.2433 -0.9683  1.4347
  580MOL0     H76497   2.850   4.733  10.068 -1.3012  1.9342  0.5532
  580MOL0     H76498   2.860   4.724   9.893 -3.6925  1.0123 -1.5728
  580MOL0     H76499   2.632   4.701   9.941 -0.9139 -0.1060 -0.3863
  580MOL0     H76500   2.650   4.847   9.855  0.3242 -3.4489 -1.2231
  580MOL0     H76501   2.510   4.896  10.031  0.3639 -2.0738 -0.0437
  580MOL0     H76502   2.670   4.957  10.090  0.9330 -0.3135 -0.2060
  580MOL0     H76503   2.543   4.678  10.151 -2.8823  2.0966 -1.2480
  580MOL0     H76504   2.677   4.763  10.233 -0.2926 -2.0887 -0.1834
  580MOL0     H76505   2.492   4.947  10.303 -3.1807  0.4813  1.8500
  580MOL0     H76506   2.483   4.791  10.383  3.8374 -4.4216 -2.3961
  580MOL0     H76507   2.298   4.708  10.203 -1.5418  1.3185 -2.2786
  580MOL0     H76508   2.316   4.868  10.139  0.3568  0.2485 -0.6679
  580MOL0     H76509   2.218   4.804  10.422 -0.4157 -1.9942 -0.8355
  580MOL0     H76510   2.230   4.972  10.355  0.9316  0.1528  0.2125
  580MOL0     H76511   2.079   4.760  10.210 -0.4750 -0.2188  0.6626
  580MOL0     H76512   2.067   4.935  10.191  3.5103 -0.2459 -0.0145
  580MOL0     H76513   2.036   4.683  10.498  1.5080  1.5186  2.0842
  580MOL0     H76514   1.796   4.828  10.747  0.2443  0.2961 -0.0659
  580MOL0     H76515   1.885   4.676  10.696 -0.2422 -0.8036 -2.2627
  580MOL0     H76516   1.721   4.583  10.594 -0.0211 -1.0923 -0.8998
  580MOL0     H76517   1.626   4.735  10.565 -0.4662  1.3557  2.0623
  580MOL0     H76518   1.647   4.620  10.849 -2.6060 -1.1533  0.8758
  580MOL0     H76519   1.542   4.750  10.773  2.0963  0.7584  1.4641
  580MOL0     H76520   1.530   4.457  10.673  0.7329 -0.6485  2.3200
  580MOL0     H76521   1.430   4.583  10.646 -2.3324 -1.8211  0.4715
  580MOL0     H76522   1.186   4.670  10.798 -3.3243 -0.6189  2.5386
  580MOL0     H76523   0.978   4.615  10.692  0.4879 -1.3984 -0.9702
  580MOL0     H76524   0.784   4.398  10.280  1.3310 -1.3398  0.8232
  580MOL0     H76525   0.575   4.381  10.162  0.8427 -0.6519 -0.3572
  580MOL0     H76526   0.297   4.627  10.305 -0.7733  0.3415 -1.5233
  580MOL0     H76527   0.172   4.514  10.362 -0.2408  0.6037  1.0751
  580MOL0     H76528   0.131   4.446  10.119 -0.0709  1.1216 -3.0444
  580MOL0     H76529   0.254   4.561  10.073 -0.7138  0.2957 -1.0776
  580MOL0     H76530   0.140   4.750  10.137 -0.4916  0.8545 -0.9889
  580MOL0     H76531   0.020   4.662  10.236 -1.5376  0.1553 -1.8853
  580MOL0     H76532   0.058   4.670   9.931 -0.2238 -1.4028 -0.6383
  580MOL0     H76533  -0.024   4.532  10.009 -1.9192  0.5603  0.1421
  580MOL0     H76534  -0.130   4.820  10.034 -1.1180 -0.2880 -0.6901
  580MOL0     H76535  -0.176   4.686  10.126  3.8603  2.3716  4.1321
  580MOL0     H76536  -0.317   4.727   9.925  1.6573  0.6100  2.3012
  580MOL0     H76537  -0.235   4.578   9.891 -1.8146 -0.0818  0.9174
  580MOL0     H76538  -0.148   4.846   9.763  0.7779  0.2149  0.5123
  580MOL0     H76539  -0.060   4.688   9.765 -1.1061 -3.7558  2.0700
  580MOL0     H76540  -0.245   4.583   9.655  0.2251 -0.3160  1.7484
  580MOL0     H76541  -0.185   4.726   9.555  1.5281  0.3556  2.0695
  580MOL0     H76542   0.378   4.482  10.551  0.9863 -0.1347  1.6515
  580MOL0     H76543   0.591   4.516  10.641  0.1643 -1.6638  0.1153
  580MOL0     H76544   1.134   4.216  10.612  0.4586 -1.4967  1.1934
  580MOL0     H76545   1.333   4.266  10.724 -0.6941 -1.7451  1.2532
  580MOL0     H76546   3.046   5.109  10.095  1.9659  1.2197 -0.8072
  580MOL0     H76547   3.278   5.112  10.155 -0.2372 -0.3945 -1.1873
  580MOL0     H76548   3.765   4.971   9.877 -1.3671 -0.9460 -0.4795
  580MOL0     H76549   4.002   4.962   9.970  1.5363 -0.6930  0.9101
  580MOL0     H76550   4.168   4.842  10.038  3.2387 -0.2127  0.3858
  580MOL0     H76551   4.116   4.712  10.163  0.5680 -0.5161  0.8456
  580MOL0     H76552   4.297   4.944  10.228 -0.5159 -1.1223 -0.2005
  580MOL0     H76553   4.256   4.809  10.323 -2.2156  2.4770  1.1499
  580MOL0     H76554   4.426   4.828  10.067 -2.0322  0.7405 -0.7874
  580MOL0     H76555   4.394   4.669  10.117 -2.0667  0.9487 -0.8227
  580MOL0     H76556   4.551   4.894  10.254  2.2935 -0.0583 -1.9210
  580MOL0     H76557   4.516   4.742  10.345 -1.2998 -0.4046  0.3050
  580MOL0     H76558   4.803   4.643  10.064 -0.7486  2.4551 -1.4207
  580MOL0     H76559   3.850   4.896  10.362 -2.5716 -0.8790  1.4528
  580MOL0     H76560   3.631   4.920  10.293  1.3262 -0.1456  1.2740
  581MOL0     O76561   0.007   7.596  10.582  0.6141 -0.4086  0.4203
  581MOL0     C76562   0.068   7.642  10.484  0.0502 -0.1053 -0.4290
  581MOL0     O76563   0.075   7.593  10.355  0.5350 -0.3771  0.2446
  581MOL0     C76564   0.018   7.474  10.325  0.8418  0.0134 -0.9368
  581MOL0     C76565  -0.073   7.464  10.214 -0.8399  0.1588  0.6528
  581MOL0     C76566  -0.135   7.343  10.180  0.2958  0.1261  0.2641
  581MOL0     C76567  -0.107   7.225  10.259  0.6427  0.6079 -0.1028
  581MOL0     O76568  -0.139   7.089  10.229  0.0402 -0.6762 -0.2717
  581MOL0     C76569  -0.038   6.994  10.249 -0.0973  0.7930  0.8006
  581MOL0     C76570  -0.022   6.937  10.106 -0.3176  0.0819 -0.0099
  581MOL0     C76571  -0.161   6.904  10.040 -0.6029 -0.2082  0.1148
  581MOL0     C76572  -0.133   6.817   9.916  0.7398  0.6571  0.6069
  581MOL0     C76573  -0.264   6.782   9.841  0.0710 -0.0583  0.2175
  581MOL0     C76574  -0.228   6.732   9.703 -1.1331  0.0236  0.7220
  581MOL0     C76575  -0.342   6.658   9.634 -0.0916 -0.2956 -0.0192
  581MOL0     C76576  -0.400   6.527   9.680 -0.0354 -0.0476 -0.5242
  581MOL0     N76577  -0.505   6.470   9.600 -0.7779  0.3918 -0.0135
  581MOL0     C76578  -0.619   6.529   9.579 -0.5081 -0.1965  0.4684
  581MOL0     C76579  -0.674   6.449   9.487 -0.7238 -0.7506  0.2146
  581MOL0     C76580  -0.812   6.468   9.429 -0.1660  0.6233 -0.4237
  581MOL0     C76581  -0.918   6.391   9.510 -0.0083  0.2191 -0.5285
  581MOL0     C76582  -0.947   6.453   9.653 -0.8441 -0.0687  0.6862
  581MOL0     C76583  -1.070   6.407   9.718 -0.1221 -0.4025  1.5670
  581MOL0     O76584  -1.079   6.438   9.857 -0.3852  0.1424 -0.4516
  581MOL0     C76585  -1.180   6.383   9.924 -0.8539 -0.5764 -0.3200
  581MOL0     C76586  -1.169   6.361  10.063 -0.6291  0.2670 -0.0673
  581MOL0     C76587  -1.292   6.312  10.115  0.5479 -0.3838 -0.1698
  581MOL0     C76588  -1.411   6.276  10.051 -0.5037 -1.0169 -0.1248
  581MOL0     C76589  -1.527   6.222  10.123 -0.7428 -0.7730  0.2139
  581MOL0     O76590  -1.650   6.253  10.068  0.3222 -0.0805  0.1360
  581MOL0     C76591  -1.769   6.206  10.126 -0.7139 -0.7356 -0.0321
  581MOL0     C76592  -1.874   6.280  10.076  0.0604 -0.8583  0.0360
  581MOL0     C76593  -2.007   6.240  10.117  0.3967  0.1831  0.2429
  581MOL0     C76594  -2.024   6.128  10.201 -0.3381 -0.1611  0.2100
  581MOL0     O76595  -2.140   6.090  10.245 -0.1397  0.8247 -0.0317
  581MOL0     C76596  -2.253   6.111  10.171  0.5563  0.0169  0.5025
  581MOL0     C76597  -2.373   6.020  10.216  0.3445  0.7562 -0.3905
  581MOL0     C76598  -2.516   6.065  10.161  0.1803 -0.2060  0.0881
  581MOL0     C76599  -2.618   5.984  10.219  0.7262  0.2475  0.0391
  581MOL0     C76600  -2.760   6.021  10.164  0.9822  0.9113 -0.0526
  581MOL0     C76601  -2.872   5.952  10.245  1.2489 -0.5087 -0.5393
  581MOL0     C76602  -3.005   6.010  10.193 -0.6707 -0.4407 -0.4167
  581MOL0     C76603  -3.126   5.933  10.256  0.0047  0.4149  0.1640
  581MOL0    Cl76604  -3.281   6.002  10.211 -0.1098 -0.3180 -0.2293
  581MOL0     C76605  -1.911   6.059  10.247  0.5268 -0.7271  0.3251
  581MOL0     C76606  -1.784   6.097  10.210  0.2637  0.4293  0.5946
  581MOL0     O76607  -1.502   6.171  10.233  0.1063 -0.3101 -0.2927
  581MOL0     C76608  -1.399   6.286   9.920  0.1594  0.3471  0.0264
  581MOL0     C76609  -1.293   6.346   9.850 -0.1875  0.1827 -0.8510
  581MOL0     N76610  -0.607   6.330   9.483  0.0224  0.6421  0.5205
  581MOL0     N76611  -0.497   6.348   9.543  0.1945 -0.1007  0.6353
  581MOL0     C76612  -0.033   7.244  10.373  0.7275  0.2575  0.4291
  581MOL0     C76613   0.035   7.360  10.407 -0.2920  0.8701 -0.6068
  581MOL0     C76614   0.129   7.772  10.515 -0.4494  0.5869 -0.6247
  581MOL0     C76615   0.245   7.812  10.448  0.5534 -0.2190 -0.3107
  581MOL0     C76616   0.315   7.929  10.486  1.4185 -0.0181  0.4075
  581MOL0     C76617   0.271   8.011  10.582  0.4383 -0.5349 -0.3972
  581MOL0     O76618   0.347   8.127  10.621 -0.6079  0.2062  0.0819
  581MOL0     C76619   0.297   8.241  10.680  0.5590  0.5551  0.2402
  581MOL0     C76620   0.276   8.238  10.838  0.3423  0.4651  0.4336
  581MOL0     C76621   0.263   8.380  10.896  0.3341 -0.0437  0.3248
  581MOL0     C76622   0.137   8.444  10.831 -1.0371  0.3592  0.3388
  581MOL0     C76623   0.132   8.561  10.921  0.4726  0.7524  0.9868
  581MOL0     C76624   0.133   8.646  11.008  0.0402  0.2255 -0.5976
  581MOL0     C76625   0.145   7.986  10.650  0.0868 -0.1749 -0.0058
  581MOL0     C76626   0.080   7.866  10.619 -0.1093  0.3476 -0.6357
  581MOL0     H76627  -0.096   7.557  10.162  0.2665 -0.7123 -1.4974
  581MOL0     H76628  -0.211   7.345  10.103 -0.4094  2.2211  0.9539
  581MOL0     H76629  -0.077   6.921  10.320  0.8671 -0.2963  0.2400
  581MOL0     H76630   0.054   7.022  10.301 -0.1684  1.2755  0.6738
  581MOL0     H76631   0.041   6.849  10.114 -0.4270 -0.3295 -2.6691
  581MOL0     H76632   0.036   7.007  10.046 -0.4610  0.6908  0.5535
  581MOL0     H76633  -0.217   6.995  10.017  1.2772  1.1567  0.7123
  581MOL0     H76634  -0.219   6.844  10.111  0.5751 -0.8699  0.5421
  581MOL0     H76635  -0.074   6.874   9.844  2.0272  2.9908  3.3410
  581MOL0     H76636  -0.091   6.722   9.951  1.0806  0.2450 -0.8365
  581MOL0     H76637  -0.331   6.869   9.841 -0.2270 -0.2618  1.4626
  581MOL0     H76638  -0.313   6.703   9.899  0.9475  0.6388  1.9748
  581MOL0     H76639  -0.155   6.652   9.718 -1.8095 -1.1800 -1.8466
  581MOL0     H76640  -0.201   6.814   9.635 -1.8238 -0.3297  0.0013
  581MOL0     H76641  -0.423   6.731   9.631 -0.2294 -0.4832 -1.6685
  581MOL0     H76642  -0.305   6.637   9.534 -2.5822 -1.2444 -0.8312
  581MOL0     H76643  -0.419   6.530   9.787  5.4771 -2.3484  0.8848
  581MOL0     H76644  -0.318   6.454   9.683  1.5618  1.6991  2.4569
  581MOL0     H76645  -0.645   6.631   9.606  3.6562  1.5788 -1.2744
  581MOL0     H76646  -0.808   6.456   9.320 -0.9814  1.9590 -0.6263
  581MOL0     H76647  -0.848   6.571   9.439 -1.8034  0.3586 -2.7490
  581MOL0     H76648  -0.873   6.295   9.537 -2.3660 -0.5603  0.8601
  581MOL0     H76649  -1.010   6.378   9.453 -0.7110 -1.9276  0.9490
  581MOL0     H76650  -0.856   6.432   9.711 -0.3903  1.1359  0.4433
  581MOL0     H76651  -0.954   6.561   9.643  0.0109 -0.2048 -2.3013
  581MOL0     H76652  -1.071   6.300   9.700  1.8735 -0.6846  2.7508
  581MOL0     H76653  -1.154   6.461   9.673 -3.0189 -2.8504  3.6976
  581MOL0     H76654  -1.087   6.378  10.133 -0.8223  0.5221  0.0971
  581MOL0     H76655  -1.294   6.312  10.223 -0.1310  1.4908 -0.1497
  581MOL0     H76656  -1.864   6.365  10.009 -0.2426  0.5009  1.6558
  581MOL0     H76657  -2.091   6.300  10.084 -0.8780 -1.5318  0.2621
  581MOL0     H76658  -2.230   6.092  10.066  1.4177  1.2262  0.4485
  581MOL0     H76659  -2.277   6.218  10.173 -1.5971 -0.4233  0.8591
  581MOL0     H76660  -2.376   6.026  10.325 -0.7435  2.0337 -0.4786
  581MOL0     H76661  -2.357   5.914  10.192  1.5296  1.2762 -2.0605
  581MOL0     H76662  -2.532   6.057  10.053 -2.0071 -0.5687  0.3952
  581MOL0     H76663  -2.536   6.170  10.184  0.2196  0.4960 -2.7807
  581MOL0     H76664  -2.600   5.882  10.183  2.2943  0.9674 -1.3670
  581MOL0     H76665  -2.608   5.985  10.327  1.6174  1.4363 -0.0356
  581MOL0     H76666  -2.761   5.980  10.063  1.8648 -0.8897  0.5992
  581MOL0     H76667  -2.782   6.127  10.158  3.1805  1.4800  0.8083
  581MOL0     H76668  -2.870   5.985  10.350 -1.8231  4.2711 -1.6090
  581MOL0     H76669  -2.866   5.844  10.235 -2.4623 -0.9936  0.7662
  581MOL0     H76670  -3.002   6.111  10.235 -0.2166 -0.7625  0.3683
  581MOL0     H76671  -3.022   6.033  10.088 -0.3600  0.8255 -0.2042
  581MOL0     H76672  -3.114   5.923  10.364 -0.0136 -2.6139 -0.0128
  581MOL0     H76673  -3.128   5.838  10.202  0.8534  0.9266 -0.7959
  581MOL0     H76674  -1.921   5.978  10.318  1.3180 -1.5899 -0.5253
  581MOL0     H76675  -1.702   6.034  10.241 -0.7241 -0.8187  0.7230
  581MOL0     H76676  -1.485   6.250   9.865  1.3018 -0.8443 -1.0562
  581MOL0     H76677  -1.309   6.370   9.745 -4.9589  3.1769  0.2013
  581MOL0     H76678  -0.041   7.157  10.437 -2.1174  0.1210 -0.0010
  581MOL0     H76679   0.091   7.366  10.499 -0.8106  0.4466 -0.2531
  581MOL0     H76680   0.295   7.751  10.374  1.8581 -0.6391  0.8932
  581MOL0     H76681   0.408   7.955  10.438 -0.3231 -0.0452 -3.3208
  581MOL0     H76682   0.203   8.274  10.634  0.6565  2.4937  1.2973
  581MOL0     H76683   0.381   8.311  10.673  1.4223  0.0751  3.9487
  581MOL0     H76684   0.199   8.171  10.879  0.2414  0.3762  0.1036
  581MOL0     H76685   0.365   8.194  10.883 -0.7806 -1.2512  1.0681
  581MOL0     H76686   0.350   8.438  10.865  0.8540 -0.9958 -0.0381
  581MOL0     H76687   0.268   8.372  11.005  0.0541  2.4365  0.5786
  581MOL0     H76688   0.149   8.485  10.730  1.2905  1.2398  0.9028
  581MOL0     H76689   0.045   8.386  10.840 -1.7363  1.4355  0.3134
  581MOL0     H76690   0.118   8.720  11.084 -5.0110  0.3392 -1.3661
  581MOL0     H76691   0.100   8.048  10.727  0.2249  0.9213 -0.7821
  581MOL0     H76692   0.001   7.820  10.678  1.5533 -1.0280  0.6036
  582MOL0     O76693   3.380   4.929  11.045  0.3529 -0.6203  0.5948
  582MOL0     C76694   3.377   4.945  11.164  0.6680 -0.6578 -0.1564
  582MOL0     O76695   3.261   4.951  11.242 -0.3893  0.7805 -0.5160
  582MOL0     C76696   3.134   4.954  11.179  0.9889  0.3235 -0.9851
  582MOL0     C76697   3.064   4.835  11.150 -0.2962 -0.5973 -0.4663
  582MOL0     C76698   2.943   4.844  11.080 -0.4337  0.3601  0.1878
  582MOL0     C76699   2.877   4.966  11.060 -0.1965  0.0282  0.0439
  582MOL0     O76700   2.745   4.974  11.024  1.1466  0.4046 -0.0347
  582MOL0     C76701   2.704   4.895  10.908 -0.2028 -0.3433 -0.6836
  582MOL0     C76702   2.615   4.981  10.831 -0.8721 -0.0042  0.3574
  582MOL0     C76703   2.537   4.889  10.729  0.1514  0.4924 -0.0308
  582MOL0     C76704   2.445   4.975  10.646 -0.8139 -1.0460  0.2837
  582MOL0     C76705   2.339   5.039  10.733  0.1575  1.1374 -0.3401
  582MOL0     C76706   2.222   5.088  10.647 -0.9687  0.5060  0.5818
  582MOL0     C76707   2.096   5.110  10.727  0.2914 -0.1450 -0.7269
  582MOL0     C76708   2.025   5.235  10.664 -0.4925  0.3665  0.3339
  582MOL0     N76709   1.893   5.262  10.713  0.3416  0.5643  0.0581
  582MOL0     C76710   1.775   5.226  10.656 -0.1559 -0.1188 -0.0246
  582MOL0     C76711   1.682   5.288  10.734 -0.2778 -0.4794 -0.5839
  582MOL0     C76712   1.534   5.292  10.712  0.0561  0.5613  0.4041
  582MOL0     C76713   1.490   5.202  10.602 -0.6970  1.0480  0.1555
  582MOL0     C76714   1.487   5.055  10.660  0.3023  0.4838  0.2074
  582MOL0     C76715   1.344   5.014  10.689  0.2464 -0.8122 -1.0273
  582MOL0     O76716   1.257   5.026  10.575  1.2663  0.5995 -0.3444
  582MOL0     C76717   1.131   4.968  10.595 -0.4705 -0.5045 -0.1763
  582MOL0     C76718   1.074   4.951  10.721  0.3532 -0.4138 -0.1650
  582MOL0     C76719   0.952   4.903  10.740  0.1928 -0.7367 -0.7193
  582MOL0     C76720   0.877   4.864  10.628 -1.0185  0.2299  0.5059
  582MOL0     C76721   0.742   4.823  10.651  0.4208 -0.7007  0.8275
  582MOL0     O76722   0.654   4.884  10.560 -0.4292  0.1395 -0.0058
  582MOL0     C76723   0.516   4.871  10.567  1.1448  0.3879  0.3336
  582MOL0     C76724   0.444   4.871  10.447 -0.8368  0.2614  0.2532
  582MOL0     C76725   0.305   4.848  10.451 -0.1041  0.2122  0.0052
  582MOL0     C76726   0.243   4.832  10.575  0.1059  0.5076  0.9934
  582MOL0     O76727   0.113   4.791  10.564  0.4040  0.5294  0.2447
  582MOL0     C76728   0.067   4.684  10.653 -0.2764  0.2853 -0.7706
  582MOL0     C76729  -0.077   4.657  10.633  0.1715  0.1483  0.1703
  582MOL0     C76730  -0.178   4.730  10.727  0.3261 -0.5467  0.4606
  582MOL0     C76731  -0.314   4.653  10.733  0.3986  0.2171 -0.2565
  582MOL0     C76732  -0.418   4.714  10.838 -0.0192  0.0044  0.3051
  582MOL0     C76733  -0.378   4.749  10.981 -0.4431 -0.0280 -0.0834
  582MOL0     C76734  -0.351   4.612  11.048  0.5933  0.1872 -0.3640
  582MOL0     C76735  -0.321   4.613  11.193 -0.1046 -0.4972  0.1981
  582MOL0    Cl76736  -0.189   4.741  11.226 -0.1391  0.3607 -0.0433
  582MOL0     C76737   0.308   4.858  10.691  0.8879  0.5690  0.7697
  582MOL0     C76738   0.447   4.879  10.694  0.7662  0.6783  0.4376
  582MOL0     O76739   0.713   4.741  10.740 -0.3419  0.0527  0.2594
  582MOL0     C76740   0.937   4.874  10.501 -0.4554 -0.7922  0.8462
  582MOL0     C76741   1.060   4.933  10.481  0.2819 -0.4477 -0.0696
  582MOL0     N76742   1.751   5.343  10.846 -0.0388  0.0112 -0.4982
  582MOL0     N76743   1.874   5.325  10.832 -0.0511 -0.0907  0.5218
  582MOL0     C76744   2.946   5.081  11.104 -1.0944  0.1767  0.0577
  582MOL0     C76745   3.069   5.075  11.165  0.0849 -0.3604  0.3097
  582MOL0     C76746   3.513   4.955  11.228 -0.1938  0.4388 -0.0235
  582MOL0     C76747   3.529   4.959  11.368 -0.7546 -0.5074  0.0121
  582MOL0     C76748   3.652   4.984  11.427  0.3103 -0.2073  0.0930
  582MOL0     C76749   3.765   4.990  11.343  0.2724 -0.8629 -0.0727
  582MOL0     O76750   3.879   5.018  11.408 -0.4469  0.4621 -0.3865
  582MOL0     C76751   3.979   5.098  11.337  0.4702 -0.2987 -0.5750
  582MOL0     C76752   4.082   5.004  11.278  0.0697 -0.5222  0.5219
  582MOL0     C76753   4.183   5.067  11.184 -0.2803 -0.9813  0.5058
  582MOL0     C76754   4.325   5.085  11.250 -0.2890  0.0413 -0.0415
  582MOL0     C76755   4.336   5.200  11.339  0.3146 -0.1990  0.1336
  582MOL0     C76756   4.337   5.304  11.402  0.6639  0.2858 -0.4074
  582MOL0     C76757   3.752   4.963  11.204 -0.2804 -1.0565  0.0265
  582MOL0     C76758   3.630   4.953  11.149 -0.3671 -0.5188 -0.4747
  582MOL0     H76759   3.111   4.744  11.183  0.7091 -0.5178 -1.6044
  582MOL0     H76760   2.887   4.752  11.066  1.4122 -0.9727  1.0996
  582MOL0     H76761   2.656   4.804  10.946 -1.5218 -0.6676 -2.9433
  582MOL0     H76762   2.794   4.874  10.848 -0.5065 -0.3442 -1.1417
  582MOL0     H76763   2.665   5.057  10.771 -2.0736 -0.6815 -1.5724
  582MOL0     H76764   2.538   5.018  10.900  1.0715  4.8496  0.2919
  582MOL0     H76765   2.478   4.812  10.780 -0.5723  1.2321  0.2709
  582MOL0     H76766   2.616   4.837  10.674  0.5639  1.9546 -0.8889
  582MOL0     H76767   2.505   5.058  10.607 -2.3974  0.3278  0.6661
  582MOL0     H76768   2.404   4.926  10.558  0.2941  0.0965 -0.8989
  582MOL0     H76769   2.372   5.124  10.794 -2.8738  2.3954 -0.2540
  582MOL0     H76770   2.310   4.960  10.802 -1.5613  0.3724 -1.8569
  582MOL0     H76771   2.210   5.022  10.561  1.8706  1.8472 -0.9915
  582MOL0     H76772   2.265   5.181  10.608  1.4097 -0.2097  1.3095
  582MOL0     H76773   2.032   5.023  10.743  1.1623 -0.5543  0.7288
  582MOL0     H76774   2.124   5.162  10.819  1.7156  1.1458 -1.8278
  582MOL0     H76775   2.023   5.225  10.555  2.4686 -0.3952  0.2501
  582MOL0     H76776   2.071   5.331  10.688  0.7146 -0.4492  1.4566
  582MOL0     H76777   1.763   5.169  10.565  0.3720  0.1997 -0.2992
  582MOL0     H76778   1.503   5.388  10.670 -4.7571 -2.0070 -2.7018
  582MOL0     H76779   1.475   5.284  10.804 -0.0388 -2.2466  0.1740
  582MOL0     H76780   1.556   5.220  10.517 -3.2487 -0.0921 -2.2502
  582MOL0     H76781   1.395   5.226  10.553 -1.7973 -1.6383  0.7860
  582MOL0     H76782   1.523   5.005  10.570  0.1254 -0.2235  0.5200
  582MOL0     H76783   1.549   5.041  10.749  3.9262  0.7456 -2.0770
  582MOL0     H76784   1.315   5.089  10.763  1.0100  1.0459 -2.5139
  582MOL0     H76785   1.344   4.923  10.749  1.1306 -0.4822 -0.5069
  582MOL0     H76786   1.122   4.999  10.806 -0.8690 -0.4940  0.5963
  582MOL0     H76787   0.911   4.886  10.839 -0.7184 -2.2856 -1.3249
  582MOL0     H76788   0.506   4.889  10.360  1.2443  0.9176  1.7911
  582MOL0     H76789   0.234   4.842  10.369 -1.8121 -0.4658  1.4840
  582MOL0     H76790   0.076   4.729  10.753 -3.3091  2.8834 -1.5119
  582MOL0     H76791   0.119   4.588  10.651 -0.6218 -0.0316  1.6049
  582MOL0     H76792  -0.094   4.550  10.653  0.4026 -0.7423 -3.6230
  582MOL0     H76793  -0.096   4.671  10.527  1.0310  0.8277  0.1050
  582MOL0     H76794  -0.201   4.830  10.689  1.0213  0.7202  3.1144
  582MOL0     H76795  -0.135   4.740  10.827 -1.5314  0.2472  1.2121
  582MOL0     H76796  -0.368   4.657  10.637  1.5228  2.6626 -0.8741
  582MOL0     H76797  -0.290   4.550  10.758  2.5337  0.6513 -0.3345
  582MOL0     H76798  -0.505   4.652  10.858  0.0223 -0.3885 -0.6772
  582MOL0     H76799  -0.458   4.806  10.793  1.8824 -0.2277 -2.0902
  582MOL0     H76800  -0.466   4.794  11.027  0.0163  1.6412 -0.7890
  582MOL0     H76801  -0.299   4.824  10.987 -0.2523 -0.2575  0.2961
  582MOL0     H76802  -0.418   4.528  11.026  0.1060  1.1924 -3.0600
  582MOL0     H76803  -0.258   4.586  10.998  0.2556 -2.5448  0.2884
  582MOL0     H76804  -0.279   4.515  11.217  0.0297 -0.3039  0.7623
  582MOL0     H76805  -0.417   4.630  11.243 -0.7035  1.3348 -1.4700
  582MOL0     H76806   0.249   4.865  10.782  0.3137 -2.3496  0.7434
  582MOL0     H76807   0.496   4.918  10.783  1.5985  1.3045 -0.2789
  582MOL0     H76808   0.896   4.831  10.410 -0.5791 -1.2500  1.1131
  582MOL0     H76809   1.110   4.928  10.385  1.6769 -0.5053  0.6348
  582MOL0     H76810   2.892   5.168  11.068  2.7672  3.7783  2.0783
  582MOL0     H76811   3.106   5.167  11.210 -2.0426  1.2852 -1.0773
  582MOL0     H76812   3.437   4.947  11.424  0.4838 -0.7365  2.1047
  582MOL0     H76813   3.665   5.019  11.529 -2.1571  1.9731 -0.2473
  582MOL0     H76814   4.034   5.167  11.400 -1.2610  0.9015 -0.3116
  582MOL0     H76815   3.932   5.171  11.270 -2.9501 -1.2324  0.6002
  582MOL0     H76816   4.139   4.960  11.360  0.0705 -0.1270  0.7318
  582MOL0     H76817   4.037   4.917  11.228  0.8194  0.1845 -1.5050
  582MOL0     H76818   4.150   5.158  11.133  1.1599 -1.0468 -0.6052
  582MOL0     H76819   4.207   5.004  11.098 -0.5070  0.3847 -0.5908
  582MOL0     H76820   4.359   4.993  11.299  0.1745 -0.2474 -0.8759
  582MOL0     H76821   4.394   5.096  11.166 -1.5245 -0.5082 -1.1735
  582MOL0     H76822   4.312   5.392  11.458 -0.2992 -0.4278  0.3292
  582MOL0     H76823   3.839   4.956  11.140 -0.7827 -1.6447 -0.6036
  582MOL0     H76824   3.628   4.946  11.041 -5.1240 -0.6106 -0.5809
  583MOL0     O76825   8.773   2.101  10.012  0.4535 -0.1396  0.4372
  583MOL0     C76826   8.779   2.084   9.889  0.2793  1.0440  0.0466
  583MOL0     O76827   8.685   2.125   9.791  0.1394 -0.6057 -0.6824
  583MOL0     C76828   8.572   2.188   9.844 -0.6014  0.2965  0.3761
  583MOL0     C76829   8.461   2.107   9.852  0.0394  0.2840 -0.3066
  583MOL0     C76830   8.340   2.158   9.903 -0.2832  0.6130 -0.0264
  583MOL0     C76831   8.332   2.288   9.955 -0.4155 -0.7792  0.0229
  583MOL0     O76832   8.203   2.346   9.986 -0.4159  0.0054 -0.6069
  583MOL0     C76833   8.110   2.379   9.879 -0.2165  0.4775 -0.4841
  583MOL0     C76834   7.978   2.441   9.932  0.0506  0.4164  0.2841
  583MOL0     C76835   7.885   2.466   9.823  0.7227 -0.0183  0.0225
  583MOL0     C76836   7.753   2.540   9.861 -0.3311  1.1437  0.6050
  583MOL0     C76837   7.656   2.461   9.948  0.3138  0.2565 -0.3916
  583MOL0     C76838   7.555   2.548  10.033  0.1116 -0.2216  0.5359
  583MOL0     C76839   7.454   2.632   9.936  0.4321  0.1920 -0.6914
  583MOL0     C76840   7.329   2.679  10.015  0.8917 -0.2990 -0.0416
  583MOL0     N76841   7.219   2.732   9.926 -0.2667  0.2618 -0.3101
  583MOL0     C76842   7.228   2.852   9.866  0.0444  0.2453  0.3181
  583MOL0     C76843   7.151   2.840   9.756  0.2340 -1.2197 -0.0466
  583MOL0     C76844   7.113   2.952   9.673 -0.6576 -0.1582  0.2880
  583MOL0     C76845   6.998   3.025   9.727  0.1055 -1.2091 -0.6711
  583MOL0     C76846   6.876   2.935   9.763  0.1202 -1.0900 -1.0542
  583MOL0     C76847   6.752   3.015   9.808 -0.3662 -0.9617  0.3441
  583MOL0     O76848   6.716   3.113   9.707 -0.0039 -0.5705 -0.3012
  583MOL0     C76849   6.588   3.151   9.705  0.9589 -0.2682 -0.0117
  583MOL0     C76850   6.509   3.157   9.817  0.5480 -0.0980  0.1189
  583MOL0     C76851   6.373   3.184   9.805 -0.1814  0.3744 -0.2788
  583MOL0     C76852   6.308   3.204   9.681 -0.6843 -0.1697  0.3999
  583MOL0     C76853   6.155   3.232   9.678  0.2055 -1.0387  0.5004
  583MOL0     O76854   6.103   3.289   9.798 -0.5735  0.0641  0.4581
  583MOL0     C76855   5.968   3.307   9.807  0.1823 -0.6907  1.2535
  583MOL0     C76856   5.886   3.198   9.835  0.1999 -0.3532  0.0622
  583MOL0     C76857   5.755   3.226   9.881  0.2475 -0.4436 -0.0872
  583MOL0     C76858   5.704   3.364   9.883  1.5125 -0.1202  1.1036
  583MOL0     O76859   5.575   3.393   9.925  1.4500 -0.4719  0.5360
  583MOL0     C76860   5.492   3.357   9.822  0.4579  0.3549  0.9552
  583MOL0     C76861   5.344   3.408   9.830 -0.1663 -0.2503 -0.5542
  583MOL0     C76862   5.243   3.310   9.780 -0.1294  0.4379  0.2122
  583MOL0     C76863   5.098   3.366   9.787  0.3551  0.5109 -0.0486
  583MOL0     C76864   4.982   3.268   9.759  0.2512  0.1228  0.1981
  583MOL0     C76865   4.846   3.338   9.782  0.4541 -0.4506  0.0429
  583MOL0     C76866   4.725   3.251   9.753  0.1110 -1.0901  0.0380
  583MOL0     C76867   4.590   3.332   9.754 -0.3337  0.2943  0.7652
  583MOL0    Cl76868   4.601   3.428   9.597  0.4998  0.3158  0.2753
  583MOL0     C76869   5.788   3.460   9.849 -0.2339  0.0922  0.1851
  583MOL0     C76870   5.913   3.436   9.798 -0.3209  0.2308 -0.5819
  583MOL0     O76871   6.087   3.200   9.581 -0.4016 -0.0412 -0.5318
  583MOL0     C76872   6.390   3.194   9.565  0.0482  0.1014 -1.4288
  583MOL0     C76873   6.526   3.168   9.575 -0.3696  0.0192  0.2994
  583MOL0     N76874   7.089   2.717   9.751 -0.4237  0.7477  0.1215
  583MOL0     N76875   7.132   2.654   9.852 -0.0535 -0.2763 -0.6134
  583MOL0     C76876   8.447   2.365   9.949 -0.7026 -0.0890 -1.2018
  583MOL0     C76877   8.572   2.320   9.890 -0.0773 -0.7227 -0.0643
  583MOL0     C76878   8.893   2.004   9.836  0.2039  0.6356 -0.6643
  583MOL0     C76879   8.901   1.991   9.698 -0.0438  0.7443 -0.6174
  583MOL0     C76880   8.994   1.899   9.640  1.0566 -0.2467 -0.4871
  583MOL0     C76881   9.078   1.827   9.727  0.0270  0.1174  0.2169
  583MOL0     O76882   9.171   1.727   9.698  0.5090  0.0202  0.0040
  583MOL0     C76883   9.165   1.691   9.562 -0.3636 -0.2638  0.5877
  583MOL0     C76884   9.236   1.558   9.538 -0.9567  0.1112 -0.1504
  583MOL0     C76885   9.130   1.452   9.553  0.0847  0.4126 -0.6559
  583MOL0     C76886   9.186   1.312   9.546  0.4017  0.4328 -0.2381
  583MOL0     C76887   9.073   1.216   9.560 -0.0257 -0.3923 -0.1187
  583MOL0     C76888   8.985   1.130   9.561 -0.7461  0.3526 -0.0403
  583MOL0     C76889   9.071   1.848   9.866  0.6151 -0.3713  0.1114
  583MOL0     C76890   8.982   1.940   9.924 -0.3624 -0.2749  0.6432
  583MOL0     H76891   8.472   2.010   9.804 -1.5541 -0.5193  0.8693
  583MOL0     H76892   8.245   2.108   9.891 -1.2739  1.5883  2.8492
  583MOL0     H76893   8.086   2.287   9.826 -0.1918  0.7087 -0.9020
  583MOL0     H76894   8.161   2.448   9.812  3.0350 -0.9081  0.3926
  583MOL0     H76895   7.999   2.526   9.998  0.9065 -0.7249  1.5407
  583MOL0     H76896   7.935   2.363   9.995 -2.2471 -0.8847 -2.6509
  583MOL0     H76897   7.866   2.379   9.760  0.9431  0.0598 -0.1525
  583MOL0     H76898   7.949   2.539   9.773  2.5562  0.6013  2.9985
  583MOL0     H76899   7.772   2.638   9.905 -1.3185  2.5790 -1.9598
  583MOL0     H76900   7.703   2.547   9.764  1.2559 -0.6018 -0.3943
  583MOL0     H76901   7.706   2.398  10.023 -0.8891  1.3997  1.4678
  583MOL0     H76902   7.581   2.401   9.896  0.3752  0.8377 -1.1648
  583MOL0     H76903   7.613   2.615  10.097 -1.9420 -0.7339  3.0764
  583MOL0     H76904   7.497   2.482  10.097 -0.8807 -1.1925 -1.2815
  583MOL0     H76905   7.496   2.722   9.890 -0.1620  0.1719 -1.2950
  583MOL0     H76906   7.435   2.571   9.847  2.4062 -1.2607 -0.2089
  583MOL0     H76907   7.363   2.762  10.077 -0.3764  0.5767 -0.4667
  583MOL0     H76908   7.278   2.600  10.072  3.2370 -1.0157  1.1710
  583MOL0     H76909   7.289   2.935   9.900  2.4218 -2.0366  2.0716
  583MOL0     H76910   7.098   2.910   9.573  0.9736 -0.6984  0.2316
  583MOL0     H76911   7.199   3.017   9.653 -0.4978 -0.3556  0.3283
  583MOL0     H76912   6.965   3.104   9.659 -0.0310  0.1477  0.9240
  583MOL0     H76913   7.036   3.063   9.822 -1.0765  1.0782 -1.0444
  583MOL0     H76914   6.835   2.881   9.677  1.0767 -0.4593 -1.9309
  583MOL0     H76915   6.915   2.859   9.831  2.1602  2.4206  2.0384
  583MOL0     H76916   6.774   3.076   9.896 -1.0138  3.6822 -2.4103
  583MOL0     H76917   6.661   2.956   9.822 -0.4256 -1.0976 -0.5854
  583MOL0     H76918   6.565   3.137   9.908  2.2252  0.7928 -0.6649
  583MOL0     H76919   6.328   3.207   9.901  2.8106  0.7858  1.1393
  583MOL0     H76920   5.932   3.100   9.842  1.8447  0.3771 -0.0613
  583MOL0     H76921   5.697   3.143   9.921  0.9201  0.4685  3.1331
  583MOL0     H76922   5.497   3.249   9.801  0.9294  0.5326  0.0754
  583MOL0     H76923   5.521   3.407   9.729  0.3546 -1.3346 -0.0226
  583MOL0     H76924   5.333   3.501   9.773 -1.6522  0.0122  0.1325
  583MOL0     H76925   5.338   3.438   9.935  1.4232  2.1466 -1.0608
  583MOL0     H76926   5.255   3.224   9.846  2.2154 -0.4488 -1.2366
  583MOL0     H76927   5.273   3.281   9.679  0.6038 -2.7066  1.2316
  583MOL0     H76928   5.078   3.415   9.882  2.2951  2.3446 -0.5000
  583MOL0     H76929   5.092   3.446   9.713 -1.1257  0.7080  0.2697
  583MOL0     H76930   4.985   3.187   9.832  1.6840  0.0115  0.0422
  583MOL0     H76931   4.993   3.229   9.658 -0.2811  3.2025 -1.1593
  583MOL0     H76932   4.837   3.421   9.712  2.4228 -0.6895 -0.5549
  583MOL0     H76933   4.847   3.376   9.884  2.4331 -2.9993  1.0730
  583MOL0     H76934   4.736   3.204   9.655  0.8904  0.4264 -0.6280
  583MOL0     H76935   4.715   3.178   9.834 -2.0202 -0.3667  0.5105
  583MOL0     H76936   4.592   3.401   9.839 -4.4377  2.7629 -0.8701
  583MOL0     H76937   4.500   3.272   9.764  0.4852 -1.2288 -0.4978
  583MOL0     H76938   5.762   3.566   9.848 -0.8381  0.0638  3.3610
  583MOL0     H76939   5.981   3.515   9.767  1.1942 -1.6609 -2.3856
  583MOL0     H76940   6.350   3.227   9.470 -0.4637  2.5302 -0.4384
  583MOL0     H76941   6.586   3.147   9.487  0.9889 -0.7603  1.3680
  583MOL0     H76942   8.442   2.466   9.990 -1.7460 -0.6174  0.0191
  583MOL0     H76943   8.658   2.384   9.874 -1.8537  2.5241  2.1573
  583MOL0     H76944   8.835   2.041   9.627 -2.1391 -1.9231 -0.7217
  583MOL0     H76945   9.013   1.881   9.534  2.9366 -0.0846 -0.2189
  583MOL0     H76946   9.211   1.775   9.508 -1.6723 -0.5079 -0.9851
  583MOL0     H76947   9.063   1.681   9.525 -0.5059  3.2895 -0.3480
  583MOL0     H76948   9.283   1.551   9.439  0.6624 -0.3335  0.6062
  583MOL0     H76949   9.314   1.539   9.613 -1.4056 -2.0334 -0.1626
  583MOL0     H76950   9.041   1.461   9.490 -2.0747  0.3718  2.2007
  583MOL0     H76951   9.085   1.474   9.651  0.2017  1.3975 -0.8159
  583MOL0     H76952   9.240   1.312   9.451  0.5318 -0.3255 -0.1670
  583MOL0     H76953   9.256   1.281   9.624  0.0496 -2.3609 -0.9068
  583MOL0     H76954   8.910   1.055   9.546 -1.3233  1.1643 -1.3350
  583MOL0     H76955   9.136   1.797   9.937 -1.4315 -0.3546  2.0971
  583MOL0     H76956   8.960   1.935  10.030 -1.9586 -2.4270  0.2847
  584MOL0     O76957   3.903   4.669  10.483  0.9943 -0.5900 -0.3243
  584MOL0     C76958   3.934   4.555  10.465 -0.4560 -0.0672 -1.0328
  584MOL0     O76959   3.849   4.451  10.446  0.9223  0.5432 -0.4816
  584MOL0     C76960   3.718   4.467  10.455  0.4781 -0.4700 -0.6105
  584MOL0     C76961   3.639   4.407  10.562 -0.2398  0.3766 -0.2498
  584MOL0     C76962   3.497   4.419  10.573 -0.1270 -0.3727 -1.1563
  584MOL0     C76963   3.430   4.483  10.467  0.3937  0.1415 -0.6601
  584MOL0     O76964   3.296   4.505  10.494 -0.1172 -0.3331 -0.3709
  584MOL0     C76965   3.236   4.631  10.453 -0.1450  0.5871 -0.1106
  584MOL0     C76966   3.161   4.605  10.331  0.5347  0.4997  0.3993
  584MOL0     C76967   3.009   4.577  10.343 -0.5209 -0.5203 -0.4922
  584MOL0     C76968   2.981   4.441  10.388  0.0600  1.0809 -0.4458
  584MOL0     C76969   2.829   4.426  10.412 -0.4040  0.7878 -0.3452
  584MOL0     C76970   2.796   4.488  10.546 -0.5452  0.0070 -0.0684
  584MOL0     C76971   2.658   4.556  10.542  0.2723  0.4913 -0.4474
  584MOL0     C76972   2.549   4.442  10.528 -0.5282 -0.1498  0.6877
  584MOL0     N76973   2.413   4.485  10.567 -1.1024 -0.0203 -0.8178
  584MOL0     C76974   2.365   4.450  10.691 -0.1726  0.0278  0.4104
  584MOL0     C76975   2.245   4.511  10.704 -0.2784  0.1043 -0.1208
  584MOL0     C76976   2.147   4.487  10.818 -0.3574  0.1639 -0.1602
  584MOL0     C76977   2.053   4.372  10.779  0.1149  0.0497 -0.0915
  584MOL0     C76978   1.953   4.366  10.889 -0.0109  0.0433  0.2007
  584MOL0     C76979   1.847   4.262  10.870  0.6346  1.4276 -0.1230
  584MOL0     O76980   1.765   4.285  10.753 -1.2181 -0.8221 -0.8685
  584MOL0     C76981   1.664   4.195  10.724 -0.2621 -0.1255 -0.7019
  584MOL0     C76982   1.615   4.101  10.819  0.4980  0.5606 -0.0808
  584MOL0     C76983   1.520   4.009  10.779  0.7178  0.0663 -0.0760
  584MOL0     C76984   1.460   4.025  10.652  0.0336  0.1575 -0.2378
  584MOL0     C76985   1.359   3.924  10.610 -0.0594  0.0766  0.6378
  584MOL0     O76986   1.266   3.978  10.525  0.0259  0.4722 -0.0011
  584MOL0     C76987   1.194   3.884  10.456  0.4294  0.0291 -0.4600
  584MOL0     C76988   1.058   3.874  10.475  0.4238  0.1626 -0.2299
  584MOL0     C76989   0.974   3.781  10.406 -0.4437 -0.1669  0.0003
  584MOL0     C76990   1.036   3.689  10.321  0.3641  0.5102 -0.1302
  584MOL0     O76991   0.953   3.588  10.278 -0.3035  0.0929  0.2732
  584MOL0     C76992   1.000   3.481  10.193 -0.4247 -0.4876 -0.8991
  584MOL0     C76993   1.055   3.364  10.272  0.6936 -0.7503  0.0325
  584MOL0     C76994   0.946   3.287  10.339  0.5597 -0.5972 -0.0458
  584MOL0     C76995   0.889   3.167  10.263  0.3260  0.0026  0.2092
  584MOL0     C76996   0.809   3.069  10.357 -0.0403  0.2982 -0.3414
  584MOL0     C76997   0.665   3.107  10.387 -0.2691 -0.2982  0.2980
  584MOL0     C76998   0.590   3.128  10.251 -0.1468 -0.3599  0.4733
  584MOL0     C76999   0.437   3.102  10.277 -0.5573  0.0077 -0.0989
  584MOL0    Cl77000   0.333   3.248  10.233  0.5731 -0.2245  0.0722
  584MOL0     C77001   1.177   3.696  10.301  0.1143  0.2218 -0.3597
  584MOL0     C77002   1.251   3.801  10.361  0.0173 -0.0401  0.4123
  584MOL0     O77003   1.386   3.804  10.632  0.6883 -0.5105 -0.2564
  584MOL0     C77004   1.498   4.132  10.567 -0.5505 -0.5205  0.2876
  584MOL0     C77005   1.612   4.208  10.598  0.4407  0.3192  0.8036
  584MOL0     N77006   2.227   4.574  10.588 -0.1933 -0.2540  0.2753
  584MOL0     N77007   2.323   4.557  10.499 -1.1809  0.3005 -1.3126
  584MOL0     C77008   3.503   4.528  10.357  0.1902 -1.0245  0.5872
  584MOL0     C77009   3.648   4.512  10.345 -0.8918  0.1380  0.0650
  584MOL0     C77010   4.078   4.521  10.449  0.1714 -0.2566 -1.2607
  584MOL0     C77011   4.178   4.596  10.511 -0.6973  0.8700 -0.0532
  584MOL0     C77012   4.316   4.554  10.506  0.1415 -0.1371  0.0118
  584MOL0     C77013   4.351   4.431  10.445 -0.1034  0.7993 -0.3726
  584MOL0     O77014   4.476   4.376  10.451 -0.2586  0.9339  0.2607
  584MOL0     C77015   4.599   4.453  10.491  0.8707  0.0202 -0.0392
  584MOL0     C77016   4.714   4.367  10.462  0.1769  0.6224 -0.1348
  584MOL0     C77017   4.855   4.431  10.448  0.4090 -0.0027  0.1898
  584MOL0     C77018   4.966   4.333  10.433  0.0789  0.7599  0.2209
  584MOL0     C77019   5.098   4.401  10.430 -0.4455  0.3975 -0.1743
  584MOL0     C77020   5.214   4.446  10.436  0.1318 -0.0644 -0.0298
  584MOL0     C77021   4.251   4.351  10.393 -0.0883  0.6413  0.3616
  584MOL0     C77022   4.121   4.400  10.389 -0.0550 -0.4104  0.6638
  584MOL0     H77023   3.697   4.363  10.642 -0.4231  0.1618 -0.2343
  584MOL0     H77024   3.445   4.372  10.656 -1.8102  0.5683 -1.6345
  584MOL0     H77025   3.308   4.713  10.437 -1.8657  2.4035  1.0378
  584MOL0     H77026   3.171   4.645  10.540  1.5442 -1.4620  1.5988
  584MOL0     H77027   3.202   4.519  10.276 -2.7204 -4.3964  4.5978
  584MOL0     H77028   3.171   4.699  10.276  3.6333 -0.1664 -0.3952
  584MOL0     H77029   2.955   4.585  10.247 -1.3328 -2.2275 -0.2343
  584MOL0     H77030   2.964   4.654  10.406 -0.4343  1.4574 -2.6931
  584MOL0     H77031   3.019   4.361  10.322  1.4693 -1.7483  3.4399
  584MOL0     H77032   3.039   4.437  10.480 -0.2414  0.5520 -0.2689
  584MOL0     H77033   2.810   4.319  10.418 -2.7404  1.2149  1.5413
  584MOL0     H77034   2.773   4.474  10.332 -3.8688 -5.6596 -2.4211
  584MOL0     H77035   2.859   4.572  10.575 -1.1719 -0.4004  2.8193
  584MOL0     H77036   2.800   4.414  10.627 -1.2867  0.6892  0.6058
  584MOL0     H77037   2.642   4.616  10.632 -4.0327 -0.6714 -0.2172
  584MOL0     H77038   2.640   4.626  10.460 -1.7025  0.8677  0.2632
  584MOL0     H77039   2.576   4.359  10.593 -0.8531 -1.2930 -0.5908
  584MOL0     H77040   2.556   4.399  10.428  1.9970 -0.7378  1.0625
  584MOL0     H77041   2.407   4.380  10.763  1.9356 -0.0833 -0.8343
  584MOL0     H77042   2.083   4.575  10.832 -1.8659 -0.3404 -3.0798
  584MOL0     H77043   2.204   4.480  10.911  0.1701  0.7034 -0.4348
  584MOL0     H77044   2.102   4.275  10.767 -0.9605 -0.8262  2.0668
  584MOL0     H77045   2.000   4.397  10.686 -2.3873 -0.1813  1.1992
  584MOL0     H77046   1.987   4.367  10.993 -0.6402 -1.1902  0.4415
  584MOL0     H77047   1.891   4.454  10.873  0.5764 -0.0422 -3.5684
  584MOL0     H77048   1.786   4.276  10.960  0.6690  1.4615 -0.1059
  584MOL0     H77049   1.892   4.164  10.853  2.9994  2.9192 -3.4574
  584MOL0     H77050   1.665   4.088  10.914  0.0002  0.6727  0.2003
  584MOL0     H77051   1.480   3.933  10.845 -1.0622  1.4473  0.5165
  584MOL0     H77052   1.009   3.942  10.544  1.4492 -0.4495  1.1347
  584MOL0     H77053   0.868   3.772  10.431 -0.1883 -1.4331  0.6714
  584MOL0     H77054   1.063   3.518  10.112 -0.0010 -0.4989 -0.5789
  584MOL0     H77055   0.911   3.450  10.138 -0.6675  2.5243 -2.4265
  584MOL0     H77056   1.121   3.405  10.349 -0.6941 -0.1773  0.9677
  584MOL0     H77057   1.103   3.297  10.201 -0.8822 -1.5621 -0.3120
  584MOL0     H77058   0.868   3.360  10.362  3.8336  2.3332  3.2376
  584MOL0     H77059   0.975   3.258  10.440 -1.5221 -0.4711  0.6273
  584MOL0     H77060   0.845   3.186  10.165  0.0119 -2.8760 -0.2882
  584MOL0     H77061   0.976   3.106  10.237  0.9286  0.6030  0.8095
  584MOL0     H77062   0.864   3.068  10.452  1.6101  3.5369 -1.1045
  584MOL0     H77063   0.809   2.970  10.311  0.7776  0.0617  0.1411
  584MOL0     H77064   0.664   3.198  10.447  1.1534  0.5823 -0.9602
  584MOL0     H77065   0.620   3.033  10.454  1.2848  1.3908  3.4080
  584MOL0     H77066   0.601   3.227  10.204 -2.0731  0.0533  0.7991
  584MOL0     H77067   0.630   3.060  10.175  0.5588 -0.5035  0.9594
  584MOL0     H77068   0.417   3.086  10.384 -0.7855 -1.0818 -0.2916
  584MOL0     H77069   0.416   3.006  10.230  3.7756 -0.3749 -1.7282
  584MOL0     H77070   1.225   3.618  10.243  0.3968  2.0299 -2.7175
  584MOL0     H77071   1.357   3.809  10.338  0.2573 -1.3259  0.9235
  584MOL0     H77072   1.454   4.154  10.471 -1.7565  4.5469  1.6670
  584MOL0     H77073   1.666   4.272  10.528  1.5134  1.4275  2.5685
  584MOL0     H77074   3.452   4.573  10.272 -0.0937  1.2520  1.8823
  584MOL0     H77075   3.696   4.552  10.256 -0.8951  0.1987  0.0903
  584MOL0     H77076   4.153   4.695  10.547 -3.6242  0.1327  0.2001
  584MOL0     H77077   4.382   4.622  10.559 -0.3546  2.1306 -2.1200
  584MOL0     H77078   4.581   4.475  10.597 -3.3874  0.3473 -0.6343
  584MOL0     H77079   4.602   4.546  10.433 -0.5864  0.5378  0.6482
  584MOL0     H77080   4.719   4.308  10.554  1.1647  0.2528 -0.4120
  584MOL0     H77081   4.701   4.308  10.371  1.0368  1.4850 -0.8462
  584MOL0     H77082   4.880   4.484  10.541 -0.6888 -0.9840  1.0710
  584MOL0     H77083   4.862   4.498  10.362 -1.1223  0.3585  0.3246
  584MOL0     H77084   4.966   4.259  10.513 -0.1031  0.4967 -0.0232
  584MOL0     H77085   4.946   4.275  10.343 -0.4979 -0.3894  1.0705
  584MOL0     H77086   5.312   4.485  10.454  0.2864  0.6318 -2.0895
  584MOL0     H77087   4.284   4.254  10.356 -2.1112 -0.8889  2.3056
  584MOL0     H77088   4.053   4.329  10.343  0.2255 -1.3034  1.5804
  585MOL0     O77089   9.023  11.118   2.307 -0.9749 -0.2947 -0.3825
  585MOL0     C77090   9.076  11.008   2.307  0.0565 -0.2802  0.1788
  585MOL0     O77091   9.010  10.891   2.298 -0.0500  0.3282  0.1626
  585MOL0     C77092   8.879  10.880   2.282 -0.5620 -1.1940  0.2940
  585MOL0     C77093   8.791  10.937   2.375 -0.3191 -0.1220  0.9622
  585MOL0     C77094   8.653  10.916   2.372  0.3242  0.6454 -0.5487
  585MOL0     C77095   8.609  10.822   2.277  0.1047  0.2769 -0.3569
  585MOL0     O77096   8.484  10.760   2.287 -0.5964 -0.7775  0.0369
  585MOL0     C77097   8.397  10.777   2.176 -0.7602  0.3932 -0.9975
  585MOL0     C77098   8.255  10.760   2.227 -0.2822 -0.0583 -0.8481
  585MOL0     C77099   8.197  10.888   2.293 -0.7364  0.4407 -0.6401
  585MOL0     C77100   8.050  10.867   2.339  0.4886 -0.4722  0.4067
  585MOL0     C77101   7.965  10.988   2.362  0.0887  0.2285  0.0046
  585MOL0     C77102   7.819  10.950   2.404 -0.4576 -0.6637 -0.0503
  585MOL0     C77103   7.733  11.066   2.441  0.0002 -0.2456  0.0232
  585MOL0     C77104   7.593  11.017   2.488 -0.1386 -0.0275 -0.5284
  585MOL0     N77105   7.589  10.948   2.621 -0.2190  0.3255  0.0019
  585MOL0     C77106   7.625  10.827   2.646 -0.1562  0.7190 -1.0259
  585MOL0     C77107   7.611  10.816   2.784 -0.0255 -0.3705 -0.3123
  585MOL0     C77108   7.605  10.694   2.869 -0.4061  0.0826  0.2563
  585MOL0     C77109   7.545  10.577   2.788  0.4039  0.3569 -0.3497
  585MOL0     C77110   7.516  10.458   2.873 -0.0778  0.8036 -1.0089
  585MOL0     C77111   7.481  10.325   2.797  0.0878 -0.1868  0.1096
  585MOL0     O77112   7.377  10.352   2.696  0.3040  0.5544  0.5099
  585MOL0     C77113   7.244  10.357   2.746  0.3731  0.3664  0.4380
  585MOL0     C77114   7.194  10.294   2.860  0.4226  0.6358 -0.3010
  585MOL0     C77115   7.058  10.299   2.899  0.4545  0.0888  0.0836
  585MOL0     C77116   6.967  10.353   2.810  0.6012  0.2923  0.1522
  585MOL0     C77117   6.821  10.351   2.827 -0.5262  0.9013  0.4934
  585MOL0     O77118   6.736  10.375   2.718  0.2713 -0.5320  0.1774
  585MOL0     C77119   6.602  10.388   2.743 -0.2919  0.1864 -1.0958
  585MOL0     C77120   6.544  10.514   2.720  1.2181 -0.3144  1.1798
  585MOL0     C77121   6.411  10.537   2.746 -0.9198 -0.2262  0.3304
  585MOL0     C77122   6.331  10.443   2.802 -0.3605 -0.2900  0.1759
  585MOL0     O77123   6.206  10.489   2.831 -0.7513  0.5067 -0.2913
  585MOL0     C77124   6.123  10.426   2.929  0.1842  0.6380  0.1109
  585MOL0     C77125   5.992  10.503   2.929 -1.0492  0.0061 -0.4499
  585MOL0     C77126   5.928  10.495   2.800  0.1921  0.4582  0.0587
  585MOL0     C77127   5.801  10.573   2.803  0.7388  0.1032  0.3365
  585MOL0     C77128   5.768  10.613   2.655  0.0899 -0.1205  0.2274
  585MOL0     C77129   5.626  10.644   2.636 -0.6668 -0.7543 -0.3200
  585MOL0     C77130   5.607  10.746   2.516  0.8315  1.1148 -0.7376
  585MOL0     C77131   5.459  10.770   2.488  0.6865 -0.0280 -0.8481
  585MOL0    Cl77132   5.376  10.819   2.638  0.5636  0.2112  0.4155
  585MOL0     C77133   6.387  10.319   2.827  0.0568 -0.1761 -0.1763
  585MOL0     C77134   6.518  10.290   2.788 -0.7257  0.0842  0.1402
  585MOL0     O77135   6.786  10.321   2.941 -0.0779  0.1836 -0.5940
  585MOL0     C77136   7.013  10.415   2.688  0.8449  0.6734  0.2540
  585MOL0     C77137   7.153  10.429   2.665  0.4479 -0.1398 -0.3020
  585MOL0     N77138   7.584  10.939   2.830 -0.2827  0.4666 -0.3213
  585MOL0     N77139   7.558  11.017   2.734  0.1354 -0.1017  0.0501
  585MOL0     C77140   8.703  10.761   2.191  0.4492  0.0432  0.3439
  585MOL0     C77141   8.835  10.790   2.186 -0.1552 -0.3924 -0.3269
  585MOL0     C77142   9.222  11.007   2.321  0.0889 -0.9234 -0.0529
  585MOL0     C77143   9.309  11.126   2.348  0.6714  0.0301 -0.0302
  585MOL0     C77144   9.445  11.120   2.383  0.2937  0.0276 -0.5381
  585MOL0     C77145   9.504  10.991   2.397  0.4914  0.0229 -0.5358
  585MOL0     O77146   9.627  10.968   2.440 -0.0521  0.4092  1.1117
  585MOL0     C77147   9.680  11.062   2.532 -0.3052 -0.0587 -0.9878
  585MOL0     C77148   9.794  10.984   2.605  0.5167  1.0363  0.1824
  585MOL0     C77149   9.925  10.986   2.523 -0.0471 -0.9955 -0.3988
  585MOL0     C77150   9.927  10.883   2.411 -0.3384 -0.3185  1.1803
  585MOL0     C77151  10.057  10.874   2.338 -0.7772  0.1374 -0.5321
  585MOL0     C77152  10.165  10.844   2.286 -0.1094  0.0090 -0.1522
  585MOL0     C77153   9.425  10.881   2.358 -0.9179 -0.0270 -0.5576
  585MOL0     C77154   9.286  10.882   2.327 -0.2813 -0.1022 -0.4904
  585MOL0     H77155   8.839  11.009   2.440  0.0115  0.5172  0.0285
  585MOL0     H77156   8.598  10.958   2.455  0.2812  2.7832 -1.5930
  585MOL0     H77157   8.419  10.702   2.099 -2.9276  0.5581 -1.8562
  585MOL0     H77158   8.417  10.873   2.129 -0.6128  1.0987  0.4473
  585MOL0     H77159   8.234  10.671   2.287 -2.5732 -0.4415 -2.1195
  585MOL0     H77160   8.202  10.738   2.134  1.4139 -2.4330 -1.3480
  585MOL0     H77161   8.207  10.973   2.225 -1.2686  0.9862 -0.0454
  585MOL0     H77162   8.264  10.912   2.376  0.7044  0.7193 -1.8421
  585MOL0     H77163   7.993  10.815   2.261  0.4309  3.0770 -2.1720
  585MOL0     H77164   8.045  10.805   2.429  1.0819  1.6900  2.0335
  585MOL0     H77165   7.961  11.049   2.271  0.0998 -1.8080 -1.4189
  585MOL0     H77166   8.018  11.051   2.434 -1.0292  1.0407  0.1360
  585MOL0     H77167   7.831  10.888   2.493 -1.8941 -1.3630 -0.3252
  585MOL0     H77168   7.767  10.902   2.321 -0.7748  0.4643 -0.5262
  585MOL0     H77169   7.780  11.142   2.504 -1.0191  1.0593 -0.7250
  585MOL0     H77170   7.706  11.126   2.353 -0.7146 -2.5471 -1.4114
  585MOL0     H77171   7.546  10.955   2.411  0.6065  0.7038 -1.6135
  585MOL0     H77172   7.526  11.102   2.505 -1.0850 -0.5021 -1.7552
  585MOL0     H77173   7.627  10.742   2.579 -0.6310  0.7731 -1.1124
  585MOL0     H77174   7.545  10.702   2.959 -0.7332  0.1764  0.0318
  585MOL0     H77175   7.703  10.668   2.910  0.7067 -0.5364 -2.5676
  585MOL0     H77176   7.614  10.559   2.704  1.0682  0.4998  0.1615
  585MOL0     H77177   7.454  10.617   2.741 -0.1794  0.5089  0.8846
  585MOL0     H77178   7.601  10.423   2.932 -1.3764 -1.5127 -0.3921
  585MOL0     H77179   7.434  10.487   2.939 -0.7182 -1.3296 -0.7886
  585MOL0     H77180   7.457  10.246   2.869  2.1493  0.2743  1.3690
  585MOL0     H77181   7.574  10.294   2.748 -2.0044 -1.5055 -3.4694
  585MOL0     H77182   7.256  10.235   2.927 -1.7890 -0.6315  0.7821
  585MOL0     H77183   7.045  10.241   2.989 -0.5153  0.4291  0.1676
  585MOL0     H77184   6.604  10.594   2.678 -1.5940  1.0791 -0.4778
  585MOL0     H77185   6.370  10.636   2.724  1.2324  0.6878  0.1419
  585MOL0     H77186   6.174  10.436   3.026  0.2248 -0.0329  0.1648
  585MOL0     H77187   6.098  10.323   2.902 -2.4022  0.4449  2.7137
  585MOL0     H77188   6.021  10.608   2.942  0.2120 -0.1636 -1.6630
  585MOL0     H77189   5.929  10.474   3.013 -0.3002 -0.3565 -0.0092
  585MOL0     H77190   5.904  10.390   2.781 -1.1412  0.3089  2.2283
  585MOL0     H77191   5.989  10.532   2.717  1.2011  1.1164  1.0708
  585MOL0     H77192   5.719  10.507   2.833  0.9705 -0.1897  0.3206
  585MOL0     H77193   5.803  10.670   2.853  0.3690  0.1466  0.2703
  585MOL0     H77194   5.794  10.531   2.588 -1.5357  1.3900 -2.4215
  585MOL0     H77195   5.825  10.696   2.612  0.4392  1.1733  2.9701
  585MOL0     H77196   5.579  10.672   2.731  0.7634  0.9980 -0.0832
  585MOL0     H77197   5.570  10.560   2.594  0.5436 -1.9138  0.3419
  585MOL0     H77198   5.670  10.828   2.551  2.1700 -0.8245  1.7781
  585MOL0     H77199   5.647  10.691   2.431  1.7141 -0.8715  0.8583
  585MOL0     H77200   5.421  10.672   2.458  2.0236 -1.6973  2.3665
  585MOL0     H77201   5.441  10.847   2.412 -1.0683  2.3214  1.7574
  585MOL0     H77202   6.343  10.239   2.885  3.1783 -0.9505  1.2936
  585MOL0     H77203   6.565  10.193   2.796  0.8478  0.3236 -3.8504
  585MOL0     H77204   6.939  10.447   2.616  0.2770  1.0024  0.9786
  585MOL0     H77205   7.178  10.463   2.565 -1.2800 -0.4274 -0.8571
  585MOL0     H77206   8.667  10.679   2.130 -4.8415  2.4874 -0.3990
  585MOL0     H77207   8.906  10.738   2.123 -0.6311 -2.6437  0.8901
  585MOL0     H77208   9.251  11.218   2.357 -3.8612 -2.4811 -0.5112
  585MOL0     H77209   9.488  11.217   2.407 -1.2654  0.8263 -0.8435
  585MOL0     H77210   9.609  11.100   2.606 -0.5857 -0.4508 -1.0523
  585MOL0     H77211   9.721  11.157   2.496 -3.2134  1.7137  0.0550
  585MOL0     H77212   9.814  11.031   2.701 -1.1200 -1.2702  1.7655
  585MOL0     H77213   9.766  10.886   2.644 -3.1998  2.3190  1.1678
  585MOL0     H77214  10.014  10.958   2.581  1.6984  0.6075 -2.1914
  585MOL0     H77215   9.942  11.088   2.487 -0.8453 -0.6104  0.2814
  585MOL0     H77216   9.910  10.786   2.459  3.6275 -1.1643  1.2511
  585MOL0     H77217   9.850  10.910   2.338  1.2763 -1.7290 -1.2121
  585MOL0     H77218  10.264  10.831   2.247 -0.4285  0.1270 -1.0211
  585MOL0     H77219   9.471  10.783   2.350 -1.7196 -0.6611  1.9268
  585MOL0     H77220   9.226  10.793   2.311 -1.5451  1.1243 -3.2208
  586MOL0     O77221   0.905   9.868   4.059  0.4237  0.1177 -0.0777
  586MOL0     C77222   0.995   9.869   3.972  0.1086  0.0239 -1.1040
  586MOL0     O77223   0.992   9.803   3.856  0.6421  0.1576 -0.1023
  586MOL0     C77224   0.874   9.737   3.817  0.0153  0.5296 -0.1136
  586MOL0     C77225   0.735   9.779   3.844 -0.1960 -0.0764  0.5928
  586MOL0     C77226   0.619   9.710   3.801  0.2893  0.1906 -0.0069
  586MOL0     C77227   0.634   9.600   3.726 -1.0478  0.0329 -0.8191
  586MOL0     O77228   0.540   9.517   3.672  0.7428 -0.2447  0.5569
  586MOL0     C77229   0.412   9.504   3.740 -0.3046  0.3073  0.6302
  586MOL0     C77230   0.345   9.385   3.688  0.5852 -0.0988  0.3266
  586MOL0     C77231   0.222   9.356   3.769  0.3437  0.0430  0.1842
  586MOL0     C77232   0.133   9.245   3.719  0.5700  0.6696  0.2393
  586MOL0     C77233   0.025   9.209   3.822  0.7434  0.3408  0.1093
  586MOL0     C77234  -0.087   9.115   3.760 -0.2113  0.6390 -0.7761
  586MOL0     C77235  -0.187   9.071   3.866  0.0848 -0.2586 -0.9314
  586MOL0     C77236  -0.312   9.007   3.793  0.9701  0.6626 -0.0123
  586MOL0     N77237  -0.413   8.966   3.886  0.2865  0.9538  0.6262
  586MOL0     C77238  -0.503   8.858   3.873 -0.3870 -0.2265  0.0437
  586MOL0     C77239  -0.585   8.866   3.985  0.8220 -0.4125  0.6109
  586MOL0     C77240  -0.691   8.770   4.030  0.8037 -0.2665 -0.4096
  586MOL0     C77241  -0.826   8.815   3.978  0.2430  0.3625 -0.0090
  586MOL0     C77242  -0.955   8.789   4.059  0.2107 -0.8553 -0.7929
  586MOL0     C77243  -1.065   8.893   4.040  0.0329 -0.1808 -0.7409
  586MOL0     O77244  -1.103   8.905   3.904 -0.1901 -0.0533  0.5452
  586MOL0     C77245  -1.222   8.966   3.879  0.0004  0.9640 -0.5633
  586MOL0     C77246  -1.328   8.882   3.856 -0.3220  0.2128 -0.8444
  586MOL0     C77247  -1.457   8.931   3.819  0.1925  0.1116 -0.0842
  586MOL0     C77248  -1.466   9.074   3.804 -0.2603  0.1089 -0.2313
  586MOL0     C77249  -1.592   9.126   3.754  0.9798  0.2434  0.9028
  586MOL0     O77250  -1.659   9.217   3.822 -0.0185 -0.2767  0.4205
  586MOL0     C77251  -1.765   9.272   3.758 -0.4802 -0.6735  0.2603
  586MOL0     C77252  -1.884   9.198   3.748  0.0780 -0.9204 -0.3003
  586MOL0     C77253  -1.978   9.245   3.665 -0.4768 -1.0164  0.7502
  586MOL0     C77254  -1.976   9.385   3.625  0.3648  0.1745 -0.4284
  586MOL0     O77255  -2.069   9.429   3.533 -0.0455 -0.2514 -0.4038
  586MOL0     C77256  -2.153   9.530   3.587 -0.4588  0.2854 -0.4475
  586MOL0     C77257  -2.289   9.488   3.545 -0.9703 -0.4010  0.2778
  586MOL0     C77258  -2.303   9.423   3.404 -0.0510 -0.2545  0.0928
  586MOL0     C77259  -2.447   9.393   3.380 -1.1195 -0.1866  0.4537
  586MOL0     C77260  -2.475   9.328   3.254  0.4018  0.3399 -0.4537
  586MOL0     C77261  -2.455   9.421   3.125  0.7285  0.2952 -0.5367
  586MOL0     C77262  -2.561   9.527   3.108  0.4052  0.3942  0.5712
  586MOL0     C77263  -2.530   9.631   3.000 -0.5445 -1.2018  0.1586
  586MOL0    Cl77264  -2.674   9.730   2.978 -0.5866  0.0672 -0.5442
  586MOL0     C77265  -1.860   9.463   3.643  0.1686 -0.1438 -0.2006
  586MOL0     C77266  -1.756   9.401   3.698 -0.4942  0.1882  0.7791
  586MOL0     O77267  -1.632   9.075   3.647  0.9447 -0.0083  0.1714
  586MOL0     C77268  -1.351   9.159   3.829  0.3347 -0.6439 -0.1432
  586MOL0     C77269  -1.228   9.098   3.865  0.6629  0.0790  0.7596
  586MOL0     N77270  -0.540   8.980   4.051 -0.1398  0.7778  0.1864
  586MOL0     N77271  -0.450   9.043   3.987  1.0949 -0.3144  0.6312
  586MOL0     C77272   0.765   9.554   3.700  0.1199 -0.9713 -0.0223
  586MOL0     C77273   0.885   9.615   3.743 -0.0475  0.5151  0.5119
  586MOL0     C77274   1.114   9.949   3.993 -0.5887  0.0797 -0.1993
  586MOL0     C77275   1.215   9.972   3.897 -0.2056  0.0932 -0.3751
  586MOL0     C77276   1.329  10.045   3.931  0.4348 -0.6560 -0.5034
  586MOL0     C77277   1.366  10.072   4.060  0.2145  1.1721 -0.1171
  586MOL0     O77278   1.481  10.142   4.079  0.0978  0.9458  0.3783
  586MOL0     C77279   1.567  10.093   4.183  0.1523  0.2168 -0.2647
  586MOL0     C77280   1.711  10.133   4.153  0.9078 -0.4819  0.0011
  586MOL0     C77281   1.730  10.276   4.185 -1.0414 -0.7710  0.8722
  586MOL0     C77282   1.870  10.316   4.236 -0.0626  0.1828 -0.2768
  586MOL0     C77283   1.958  10.359   4.133 -0.8993 -1.0384  0.0053
  586MOL0     C77284   2.047  10.429   4.068 -0.3151  0.7393 -0.1411
  586MOL0     C77285   1.268  10.048   4.158 -0.4284 -0.3363 -0.2821
  586MOL0     C77286   1.142   9.995   4.126  0.4602  0.5726  0.6567
  586MOL0     H77287   0.701   9.869   3.894  1.7280  1.9983 -1.6273
  586MOL0     H77288   0.516   9.725   3.833  0.4301  1.5444 -0.1289
  586MOL0     H77289   0.353   9.596   3.738 -0.5197  0.1572 -1.0715
  586MOL0     H77290   0.425   9.490   3.848  1.1974  2.5918  0.8260
  586MOL0     H77291   0.416   9.302   3.701  0.3935 -0.5809 -1.5307
  586MOL0     H77292   0.324   9.395   3.582 -0.5155  1.5643  0.6809
  586MOL0     H77293   0.166   9.447   3.796 -1.6256 -1.4193  1.3119
  586MOL0     H77294   0.248   9.323   3.870 -2.6294 -2.5375  0.2563
  586MOL0     H77295   0.080   9.278   3.629 -1.8094  0.1931  1.3788
  586MOL0     H77296   0.188   9.152   3.700  2.7899  1.7259  1.1190
  586MOL0     H77297  -0.034   9.294   3.858 -1.6525 -1.1451 -0.0394
  586MOL0     H77298   0.076   9.166   3.908  0.1109  0.1910  0.4159
  586MOL0     H77299  -0.043   9.034   3.702  1.0647  1.7086 -1.3332
  586MOL0     H77300  -0.133   9.169   3.677 -3.0301  0.3868  0.4969
  586MOL0     H77301  -0.128   8.998   3.924  2.1965  0.2857 -2.2743
  586MOL0     H77302  -0.225   9.154   3.926  0.7385  0.9065 -2.0714
  586MOL0     H77303  -0.284   8.919   3.734 -0.8771  0.0812 -0.0857
  586MOL0     H77304  -0.361   9.080   3.728  0.7542 -0.7405 -1.4961
  586MOL0     H77305  -0.517   8.780   3.799 -0.8792 -2.4893  2.3675
  586MOL0     H77306  -0.684   8.775   4.139  0.6818  2.6555 -0.4472
  586MOL0     H77307  -0.661   8.677   3.982 -0.3342 -2.1532  2.3173
  586MOL0     H77308  -0.843   8.774   3.878  0.9826  0.2915 -0.1131
  586MOL0     H77309  -0.815   8.923   3.965 -0.7139  0.4549 -0.1220
  586MOL0     H77310  -0.992   8.687   4.044 -2.5418 -1.3144  5.7582
  586MOL0     H77311  -0.933   8.791   4.166 -1.0454 -0.6977 -0.5233
  586MOL0     H77312  -1.031   8.987   4.083 -2.4058 -0.1371  1.3222
  586MOL0     H77313  -1.160   8.868   4.088 -0.8176  0.6193 -1.9594
  586MOL0     H77314  -1.299   8.778   3.864 -0.6555  0.1768  0.1451
  586MOL0     H77315  -1.547   8.871   3.808 -2.1443  2.6971  2.8711
  586MOL0     H77316  -1.897   9.100   3.792  2.9893  0.2049  3.6407
  586MOL0     H77317  -2.052   9.181   3.619 -2.2844  0.9507  0.7717
  586MOL0     H77318  -2.121   9.627   3.547 -2.1739  1.7856  1.5589
  586MOL0     H77319  -2.153   9.534   3.696  0.2953  0.5123 -0.4556
  586MOL0     H77320  -2.353   9.576   3.557 -0.1097  0.1635  0.8888
  586MOL0     H77321  -2.330   9.415   3.616  0.4587  0.2395  1.8629
  586MOL0     H77322  -2.246   9.329   3.412  2.1615  1.0072  0.0237
  586MOL0     H77323  -2.269   9.490   3.324 -3.8548 -0.7726 -2.2188
  586MOL0     H77324  -2.481   9.324   3.458 -0.0694 -0.6928  0.4832
  586MOL0     H77325  -2.508   9.482   3.400  1.8378  1.7348  1.5152
  586MOL0     H77326  -2.581   9.300   3.253  0.7808 -1.4181  1.3639
  586MOL0     H77327  -2.412   9.238   3.245  0.6404  0.1491  2.1734
  586MOL0     H77328  -2.432   9.358   3.038 -1.5005 -0.7401 -0.4556
  586MOL0     H77329  -2.365   9.477   3.151  0.0357  0.6414  1.2087
  586MOL0     H77330  -2.650   9.470   3.079  2.6402 -3.2313  0.1380
  586MOL0     H77331  -2.580   9.582   3.200  2.2012 -0.2856  1.3977
  586MOL0     H77332  -2.504   9.566   2.916  1.2263 -0.5134  0.1279
  586MOL0     H77333  -2.457   9.709   3.023 -2.1002  0.5971 -0.6663
  586MOL0     H77334  -1.848   9.561   3.597  3.6128 -0.4114 -0.1667
  586MOL0     H77335  -1.661   9.454   3.696  0.4194 -1.1588  3.5051
  586MOL0     H77336  -1.361   9.266   3.812  1.3629 -0.4291  0.5740
  586MOL0     H77337  -1.147   9.169   3.876  0.6360 -0.1775  3.4294
  586MOL0     H77338   0.769   9.463   3.640 -3.4499 -0.8864 -0.6038
  586MOL0     H77339   0.983   9.575   3.718 -1.4626 -1.6536 -2.0383
  586MOL0     H77340   1.195   9.931   3.799 -1.3902 -2.6996  0.9168
  586MOL0     H77341   1.406  10.078   3.862 -0.7725 -0.1046 -1.6325
  586MOL0     H77342   1.560   9.986   4.204 -4.2695  0.4667  0.4856
  586MOL0     H77343   1.533  10.149   4.270  0.8777  1.4165 -0.7259
  586MOL0     H77344   1.775  10.066   4.211  1.7319  0.5578  0.3410
  586MOL0     H77345   1.735  10.117   4.048  1.0149  0.0620 -0.0630
  586MOL0     H77346   1.659  10.303   4.264 -1.8517  1.9435 -0.6212
  586MOL0     H77347   1.718  10.343   4.099  1.4507 -0.8935  0.3300
  586MOL0     H77348   1.874  10.397   4.310  1.3085 -0.2916  0.2240
  586MOL0     H77349   1.900  10.228   4.295  0.4921  0.2656 -0.4322
  586MOL0     H77350   2.121  10.481   4.011  2.6519  0.4200  3.0748
  586MOL0     H77351   1.285  10.068   4.264 -1.3019  0.1940 -0.2251
  586MOL0     H77352   1.078   9.975   4.211 -0.6596  0.3274 -0.2259
  587MOL0     O77353   3.199   4.550   1.073  0.5445  0.3473 -0.8151
  587MOL0     C77354   3.163   4.662   1.105 -0.0599 -0.2427  0.3158
  587MOL0     O77355   3.087   4.753   1.038  0.2767 -0.0584  0.1020
  587MOL0     C77356   3.003   4.715   0.936  0.1088  0.5685  0.6030
  587MOL0     C77357   2.992   4.788   0.818  0.4943 -0.0306 -0.0935
  587MOL0     C77358   2.919   4.741   0.711  0.3687 -0.1173  0.2827
  587MOL0     C77359   2.833   4.628   0.731 -0.4252  0.0474  0.7736
  587MOL0     O77360   2.766   4.588   0.617 -0.4748 -0.6248  0.3116
  587MOL0     C77361   2.628   4.536   0.617 -0.5258 -1.7547  0.4613
  587MOL0     C77362   2.529   4.656   0.593 -0.6389  0.2367 -0.5713
  587MOL0     C77363   2.383   4.610   0.606  0.5798 -0.2770 -0.1881
  587MOL0     C77364   2.337   4.488   0.512 -0.2636 -0.6336 -0.2150
  587MOL0     C77365   2.178   4.467   0.499 -0.4772  0.0556 -0.3691
  587MOL0     C77366   2.104   4.576   0.424 -0.1197  0.0544  0.2215
  587MOL0     C77367   1.945   4.559   0.426 -0.2874  0.5642 -0.4061
  587MOL0     C77368   1.899   4.417   0.384 -0.5915  0.2192  0.2156
  587MOL0     N77369   1.752   4.410   0.379 -0.6932  0.6354  0.3716
  587MOL0     C77370   1.671   4.401   0.490 -0.2398  0.2535 -0.2966
  587MOL0     C77371   1.540   4.427   0.435 -0.8810 -1.1095  0.0067
  587MOL0     C77372   1.413   4.458   0.502  0.6702 -0.3700 -0.1816
  587MOL0     C77373   1.308   4.340   0.511 -1.1051  0.1313 -0.5741
  587MOL0     C77374   1.273   4.282   0.374  0.8744 -0.2483 -0.9707
  587MOL0     C77375   1.125   4.250   0.361  0.1619  0.4142 -0.1145
  587MOL0     O77376   1.076   4.174   0.470  0.2227  0.1320 -0.6576
  587MOL0     C77377   0.946   4.141   0.475 -0.2287 -0.0053 -0.4710
  587MOL0     C77378   0.911   4.051   0.579 -0.0509  0.9364  0.7174
  587MOL0     C77379   0.794   3.987   0.583  0.4344 -0.2305  1.0776
  587MOL0     C77380   0.693   4.012   0.492 -0.1713 -0.1714 -0.1208
  587MOL0     C77381   0.558   3.954   0.493  0.2578  0.1652 -0.4421
  587MOL0     O77382   0.481   3.968   0.386  0.2337  0.2208  0.5695
  587MOL0     C77383   0.346   3.931   0.378 -0.0558  0.1224  0.8393
  587MOL0     C77384   0.300   3.806   0.403 -0.3982  0.5754  0.0762
  587MOL0     C77385   0.158   3.776   0.394 -0.2797  0.0807  0.1089
  587MOL0     C77386   0.063   3.873   0.353  0.6901 -0.7379 -0.3058
  587MOL0     O77387  -0.071   3.868   0.354 -0.4100  0.5519  0.2315
  587MOL0     C77388  -0.136   3.751   0.392 -0.1431  0.1205  0.0913
  587MOL0     C77389  -0.279   3.758   0.345  0.3692 -0.2555 -0.0840
  587MOL0     C77390  -0.336   3.884   0.416 -0.3125  0.2026 -0.1478
  587MOL0     C77391  -0.480   3.888   0.372  0.6230  0.7459  1.0614
  587MOL0     C77392  -0.545   4.002   0.454  0.6003 -0.4403 -0.6886
  587MOL0     C77393  -0.501   4.146   0.412  0.4453  0.1704 -0.0261
  587MOL0     C77394  -0.589   4.195   0.302  1.0242  0.5071  0.4476
  587MOL0     C77395  -0.542   4.330   0.257 -0.3436 -1.0704 -0.5247
  587MOL0    Cl77396  -0.607   4.377   0.100  0.6468  0.7419  0.0860
  587MOL0     C77397   0.114   4.002   0.334  0.1971 -0.4401 -0.0917
  587MOL0     C77398   0.256   4.031   0.339 -0.1626  0.3546  0.8207
  587MOL0     O77399   0.524   3.907   0.600  0.0297  0.3694  0.7246
  587MOL0     C77400   0.722   4.112   0.401  0.0033  0.1112  0.4905
  587MOL0     C77401   0.845   4.169   0.383  0.2254 -0.4834 -0.0302
  587MOL0     N77402   1.554   4.445   0.299  0.7236  0.7330 -0.1764
  587MOL0     N77403   1.681   4.451   0.266 -0.0886  0.5831 -0.2656
  587MOL0     C77404   2.846   4.554   0.843  0.3729 -0.0837  0.2706
  587MOL0     C77405   2.932   4.595   0.950 -0.3184 -0.0375  0.3836
  587MOL0     C77406   3.234   4.716   1.212 -0.1298 -0.2128 -0.0205
  587MOL0     C77407   3.357   4.654   1.254 -0.5635 -0.2764 -0.3274
  587MOL0     C77408   3.437   4.715   1.353 -0.9718  0.3596 -0.0157
  587MOL0     C77409   3.392   4.827   1.416  0.8664 -0.0795 -0.5459
  587MOL0     O77410   3.469   4.887   1.505  0.6544 -0.0357  0.4550
  587MOL0     C77411   3.551   5.003   1.463 -0.5301 -0.3891 -0.6488
  587MOL0     C77412   3.679   4.964   1.394 -0.2301  0.5512 -0.2752
  587MOL0     C77413   3.779   5.073   1.360 -0.0933  0.5321 -0.0915
  587MOL0     C77414   3.818   5.162   1.482  0.1394 -0.1528  0.4396
  587MOL0     C77415   3.868   5.088   1.599 -1.0283  0.8667 -0.2402
  587MOL0     C77416   3.919   5.025   1.689 -0.6780 -0.5059 -0.3766
  587MOL0     C77417   3.264   4.877   1.389  1.0399 -0.5386 -0.0799
  587MOL0     C77418   3.181   4.827   1.290 -0.0046 -0.1675 -0.2052
  587MOL0     H77419   3.064   4.868   0.806 -0.0915  0.6210  0.6518
  587MOL0     H77420   2.932   4.774   0.608 -2.0947  0.5429  0.1075
  587MOL0     H77421   2.612   4.480   0.710 -1.0255 -2.6596 -0.1514
  587MOL0     H77422   2.608   4.468   0.534 -2.2823  1.1946 -1.6990
  587MOL0     H77423   2.553   4.701   0.496  0.2607 -0.6197 -0.7577
  587MOL0     H77424   2.536   4.735   0.668 -2.3057 -1.8101  1.9519
  587MOL0     H77425   2.312   4.693   0.601 -0.4671 -1.0857  0.7789
  587MOL0     H77426   2.370   4.577   0.710  1.3195 -0.5970 -0.1884
  587MOL0     H77427   2.364   4.513   0.409 -4.6546 -0.0580 -1.4474
  587MOL0     H77428   2.396   4.400   0.539 -1.2830 -2.0109 -2.2122
  587MOL0     H77429   2.136   4.454   0.599  0.7941  0.5416  0.2589
  587MOL0     H77430   2.170   4.373   0.444  2.1831 -0.5761  0.1490
  587MOL0     H77431   2.135   4.572   0.320  1.6523 -2.8642  0.7340
  587MOL0     H77432   2.128   4.678   0.456  1.8200 -1.3395  3.8544
  587MOL0     H77433   1.913   4.570   0.530  1.7146 -2.3396  0.6279
  587MOL0     H77434   1.898   4.639   0.368  2.7566  2.2882 -0.6646
  587MOL0     H77435   1.928   4.333   0.448 -0.8448 -0.4357 -0.5124
  587MOL0     H77436   1.940   4.411   0.283 -0.2710  3.0124  0.1103
  587MOL0     H77437   1.698   4.377   0.592  1.3695 -1.4115 -1.0533
  587MOL0     H77438   1.379   4.547   0.449  1.3389 -1.7109 -3.0792
  587MOL0     H77439   1.435   4.490   0.604  2.6092  1.4988 -1.1184
  587MOL0     H77440   1.220   4.369   0.568  0.7343 -1.6725  3.6181
  587MOL0     H77441   1.339   4.251   0.566 -1.8775  0.4582  0.4158
  587MOL0     H77442   1.314   4.344   0.294  2.8330  0.0701  0.2015
  587MOL0     H77443   1.328   4.187   0.371 -0.1805 -0.9886  1.0429
  587MOL0     H77444   1.107   4.197   0.268  0.2885  0.8159 -0.3713
  587MOL0     H77445   1.071   4.345   0.355 -0.9995 -0.1493  0.8599
  587MOL0     H77446   0.985   4.024   0.653 -0.7525  0.1887  1.1600
  587MOL0     H77447   0.779   3.918   0.665 -0.2197  0.1831  1.3127
  587MOL0     H77448   0.381   3.735   0.418 -3.3240 -3.2021 -0.3900
  587MOL0     H77449   0.130   3.674   0.418  0.3320 -0.3478 -0.9226
  587MOL0     H77450  -0.133   3.730   0.499  0.1179 -0.9836 -0.1177
  587MOL0     H77451  -0.081   3.672   0.340  3.1435  2.3045 -0.0899
  587MOL0     H77452  -0.338   3.671   0.375  3.0408 -2.5872 -1.2608
  587MOL0     H77453  -0.287   3.781   0.238 -0.3409 -0.1549 -0.0183
  587MOL0     H77454  -0.280   3.975   0.394 -2.5855  2.4701  2.5590
  587MOL0     H77455  -0.323   3.861   0.523  1.2514 -0.4499 -0.4491
  587MOL0     H77456  -0.477   3.906   0.264  2.3557 -0.2674  0.8922
  587MOL0     H77457  -0.542   3.800   0.389  0.0544  0.7647 -0.6957
  587MOL0     H77458  -0.523   4.000   0.562  1.5475  3.2544 -0.6707
  587MOL0     H77459  -0.654   3.998   0.446  0.5240  2.9252 -4.2027
  587MOL0     H77460  -0.397   4.166   0.383  0.3186 -0.1559 -0.7150
  587MOL0     H77461  -0.530   4.205   0.500 -0.1572 -0.3755  0.1475
  587MOL0     H77462  -0.583   4.127   0.216  0.8106 -1.0918  1.6449
  587MOL0     H77463  -0.692   4.196   0.341  0.2604  0.0088 -1.4502
  587MOL0     H77464  -0.433   4.333   0.250 -0.3336 -1.0525 -0.3626
  587MOL0     H77465  -0.565   4.402   0.336 -1.2899  0.2786 -1.9748
  587MOL0     H77466   0.045   4.080   0.303  3.3311  1.8908 -1.7445
  587MOL0     H77467   0.294   4.128   0.312  3.2307 -1.2143 -0.6299
  587MOL0     H77468   0.648   4.145   0.329 -0.8047  0.7830  1.5880
  587MOL0     H77469   0.854   4.242   0.303  0.2902  1.4462  1.6720
  587MOL0     H77470   2.793   4.459   0.848  0.1768 -0.1779 -2.4170
  587MOL0     H77471   2.934   4.543   1.045 -0.3846  0.0275  0.4205
  587MOL0     H77472   3.385   4.558   1.212 -2.5810 -1.3684  0.6532
  587MOL0     H77473   3.534   4.671   1.376 -0.8981  1.4738  1.9759
  587MOL0     H77474   3.568   5.075   1.544  0.0971  1.0688 -2.0428
  587MOL0     H77475   3.489   5.061   1.395  1.1057  0.2637 -1.6363
  587MOL0     H77476   3.720   4.889   1.462 -3.0005  0.1761  1.1376
  587MOL0     H77477   3.643   4.912   1.305 -1.5319 -1.1797  1.2000
  587MOL0     H77478   3.731   5.132   1.281 -3.4759  0.5178  1.7790
  587MOL0     H77479   3.870   5.021   1.328  1.2513  1.5653  1.8891
  587MOL0     H77480   3.894   5.235   1.453  0.2500 -0.9841 -1.5905
  587MOL0     H77481   3.732   5.217   1.521  2.5035  3.3895  1.1072
  587MOL0     H77482   3.957   4.952   1.758  1.5261 -0.3413 -1.3220
  587MOL0     H77483   3.236   4.966   1.444  3.4424 -1.1974  2.4495
  587MOL0     H77484   3.082   4.861   1.265  0.7432  0.0358 -3.2572
  588MOL0     O77485   2.766   4.199   2.013 -0.6521 -0.8095 -0.1585
  588MOL0     C77486   2.805   4.169   1.901 -0.7679  0.5857  0.2459
  588MOL0     O77487   2.740   4.176   1.791  0.0829  0.5006  0.3522
  588MOL0     C77488   2.608   4.224   1.790 -0.1918  0.5444  0.5630
  588MOL0     C77489   2.509   4.174   1.877  0.0607 -0.4076  0.1644
  588MOL0     C77490   2.378   4.211   1.860  0.6563 -0.6130 -0.2523
  588MOL0     C77491   2.337   4.297   1.756 -0.6990 -0.1925 -0.7822
  588MOL0     O77492   2.206   4.337   1.754  0.0634 -0.5168  0.4360
  588MOL0     C77493   2.162   4.438   1.661  0.2687 -0.4558 -0.0306
  588MOL0     C77494   2.127   4.389   1.521 -0.4235 -0.2490  0.3749
  588MOL0     C77495   2.025   4.290   1.509 -0.1020  0.3290  0.6824
  588MOL0     C77496   1.890   4.324   1.567  0.4874 -0.6766  0.6644
  588MOL0     C77497   1.816   4.421   1.471  0.8174 -0.2196  0.5101
  588MOL0     C77498   1.699   4.495   1.547 -0.5476  0.6979  0.2655
  588MOL0     C77499   1.629   4.595   1.440 -0.6674 -0.9122 -0.1158
  588MOL0     C77500   1.565   4.708   1.515  0.6802 -0.3302 -1.1021
  588MOL0     N77501   1.461   4.670   1.614 -0.3956 -0.0508 -0.2631
  588MOL0     C77502   1.336   4.656   1.570 -0.1974  0.4186  0.9927
  588MOL0     C77503   1.267   4.634   1.687 -0.0028 -0.1954 -0.0008
  588MOL0     C77504   1.128   4.638   1.709  0.2280  0.1810 -0.0145
  588MOL0     C77505   1.063   4.552   1.598 -0.2762  0.3171  0.0874
  588MOL0     C77506   0.927   4.488   1.640  0.1501 -0.2424 -0.1950
  588MOL0     C77507   0.834   4.452   1.532  0.3301 -0.0043 -0.3694
  588MOL0     O77508   0.704   4.432   1.592  0.3681 -0.4308 -0.6789
  588MOL0     C77509   0.594   4.415   1.514 -1.1518  0.6113  1.1244
  588MOL0     C77510   0.469   4.468   1.555  0.2334 -0.2161 -0.6603
  588MOL0     C77511   0.359   4.439   1.488  0.2284  0.3651  0.2459
  588MOL0     C77512   0.357   4.345   1.377 -0.7455 -0.6764 -0.7843
  588MOL0     C77513   0.231   4.318   1.311  0.4437  0.3790  0.8839
  588MOL0     O77514   0.117   4.383   1.355 -0.2364  0.7801 -0.1656
  588MOL0     C77515   0.003   4.373   1.275 -0.0319  0.1731  0.4072
  588MOL0     C77516  -0.090   4.265   1.282 -0.1288 -0.3259 -0.1087
  588MOL0     C77517  -0.214   4.270   1.217  0.4262  0.3956  1.1042
  588MOL0     C77518  -0.246   4.385   1.143 -0.3858 -0.5450 -0.4816
  588MOL0     O77519  -0.371   4.408   1.091  0.4714 -0.1210  0.5148
  588MOL0     C77520  -0.396   4.328   0.970  0.5163  0.5441  0.7752
  588MOL0     C77521  -0.320   4.387   0.840 -1.0259  0.6478  0.6591
  588MOL0     C77522  -0.256   4.291   0.750  0.6447 -1.3722  0.8479
  588MOL0     C77523  -0.198   4.358   0.620 -0.2630  0.5743 -0.3366
  588MOL0     C77524  -0.138   4.260   0.525  0.4479 -0.6536  0.2252
  588MOL0     C77525  -0.144   4.318   0.381  0.4567 -0.7725 -0.0096
  588MOL0     C77526  -0.026   4.424   0.361 -0.4844  0.5860  0.4291
  588MOL0     C77527   0.068   4.416   0.241 -0.0754  0.3073 -0.6506
  588MOL0    Cl77528  -0.017   4.435   0.083 -0.1325 -0.2062  0.4117
  588MOL0     C77529  -0.143   4.476   1.111  0.2178  0.2818 -0.6455
  588MOL0     C77530  -0.022   4.472   1.178 -0.5300 -0.5634 -0.1108
  588MOL0     O77531   0.231   4.230   1.223 -0.1763  0.6793  0.1401
  588MOL0     C77532   0.481   4.286   1.338  0.0824  0.1894 -0.0208
  588MOL0     C77533   0.598   4.328   1.403 -0.5666  1.0220 -1.0627
  588MOL0     N77534   1.353   4.653   1.791 -0.1700  0.2941 -0.1640
  588MOL0     N77535   1.472   4.666   1.743  0.3018  0.3702 -0.2199
  588MOL0     C77536   2.435   4.341   1.673 -0.4348  0.7298 -0.9094
  588MOL0     C77537   2.566   4.299   1.686  0.3105 -1.4227  0.6530
  588MOL0     C77538   2.926   4.092   1.892 -0.4293 -0.2787 -0.5717
  588MOL0     C77539   2.929   3.973   1.810 -0.2478  0.3729  0.7989
  588MOL0     C77540   3.051   3.890   1.799  0.3577 -0.4273 -0.1452
  588MOL0     C77541   3.164   3.937   1.864 -1.2687  0.5949 -0.3561
  588MOL0     O77542   3.280   3.865   1.842 -0.3751  0.6109 -0.2074
  588MOL0     C77543   3.379   3.935   1.779  0.0488 -0.1926 -0.1182
  588MOL0     C77544   3.343   3.946   1.627 -0.5873  0.8242 -0.0240
  588MOL0     C77545   3.462   3.948   1.525  0.5888  0.5866  0.6287
  588MOL0     C77546   3.511   4.099   1.533  1.0862 -0.3060 -0.2561
  588MOL0     C77547   3.647   4.131   1.500  0.1821  0.3213 -0.3801
  588MOL0     C77548   3.760   4.158   1.478  0.5189  0.9471  0.9466
  588MOL0     C77549   3.154   4.044   1.948 -0.3982  0.8234 -0.1851
  588MOL0     C77550   3.037   4.120   1.962 -1.1348 -0.4122 -0.7854
  588MOL0     H77551   2.534   4.119   1.967  1.4044  0.9627  0.6685
  588MOL0     H77552   2.305   4.191   1.937 -0.2723  0.5287 -0.8014
  588MOL0     H77553   2.245   4.509   1.652  0.6350 -0.7032  1.2267
  588MOL0     H77554   2.081   4.489   1.712  1.4145  0.9940  0.4013
  588MOL0     H77555   2.215   4.350   1.469 -0.6722  0.7481 -0.8429
  588MOL0     H77556   2.100   4.475   1.459  0.6331  0.3259  0.6857
  588MOL0     H77557   2.064   4.213   1.576 -1.5901 -0.1053  1.0710
  588MOL0     H77558   2.011   4.257   1.405 -0.1278 -0.2681  0.8701
  588MOL0     H77559   1.837   4.232   1.591  1.3724 -0.8377  2.1142
  588MOL0     H77560   1.914   4.387   1.653 -1.6460  1.8491 -0.4293
  588MOL0     H77561   1.775   4.363   1.387 -0.4053  0.4511  0.6245
  588MOL0     H77562   1.881   4.494   1.422 -0.5450 -0.0069 -1.0768
  588MOL0     H77563   1.731   4.538   1.642 -1.4199  1.0910  0.3822
  588MOL0     H77564   1.624   4.423   1.580 -0.5140  1.1577  1.3673
  588MOL0     H77565   1.711   4.643   1.387 -0.8684 -0.3657  0.0650
  588MOL0     H77566   1.576   4.555   1.353  3.4675  1.1039 -3.9137
  588MOL0     H77567   1.508   4.762   1.439  0.3114 -0.2851 -0.7974
  588MOL0     H77568   1.641   4.780   1.548  0.3978  0.5545 -2.2766
  588MOL0     H77569   1.303   4.661   1.467  1.2349  1.2515  0.5535
  588MOL0     H77570   1.087   4.739   1.700  0.4283  0.0639 -3.3988
  588MOL0     H77571   1.118   4.595   1.809  1.0147  0.8662  0.3751
  588MOL0     H77572   1.131   4.475   1.560 -1.3499 -1.2008  1.1307
  588MOL0     H77573   1.043   4.615   1.511 -4.1059 -2.4707 -1.3490
  588MOL0     H77574   0.946   4.403   1.705 -1.1237 -1.4799 -1.3647
  588MOL0     H77575   0.878   4.560   1.706 -0.8460  0.1947 -1.3637
  588MOL0     H77576   0.883   4.364   1.487  1.8304  0.6950 -0.1665
  588MOL0     H77577   0.840   4.530   1.456  1.1064 -0.1550 -0.4723
  588MOL0     H77578   0.469   4.524   1.648  0.7293 -1.3229  0.0182
  588MOL0     H77579   0.269   4.480   1.533 -0.6765 -0.8109 -0.4525
  588MOL0     H77580  -0.063   4.187   1.352  1.3985  0.1532 -0.1261
  588MOL0     H77581  -0.282   4.186   1.228  0.8761 -0.4379 -1.7248
  588MOL0     H77582  -0.504   4.326   0.953  0.8543 -1.9259 -1.8218
  588MOL0     H77583  -0.371   4.222   0.982 -1.1342  0.1888  1.3795
  588MOL0     H77584  -0.243   4.462   0.861 -0.8624  1.3031 -1.9435
  588MOL0     H77585  -0.400   4.438   0.787 -2.3054 -0.9684  0.9461
  588MOL0     H77586  -0.330   4.211   0.741 -1.9239  0.7783  1.5660
  588MOL0     H77587  -0.169   4.247   0.799  2.3750  2.4298  1.4976
  588MOL0     H77588  -0.285   4.400   0.569 -0.6150 -0.9958 -1.0975
  588MOL0     H77589  -0.130   4.440   0.645  0.1137  0.0488  0.4003
  588MOL0     H77590  -0.186   4.162   0.522  0.6160 -0.7278 -0.0576
  588MOL0     H77591  -0.034   4.255   0.558  1.0755  1.9272 -1.1393
  588MOL0     H77592  -0.242   4.358   0.355 -0.1202 -1.7349  0.6348
  588MOL0     H77593  -0.130   4.231   0.316  1.6526 -0.4019 -0.2811
  588MOL0     H77594  -0.075   4.522   0.359 -1.6475  0.0192 -1.4721
  588MOL0     H77595   0.028   4.420   0.456 -2.9318 -2.3663  1.8681
  588MOL0     H77596   0.120   4.320   0.247 -1.1012 -0.3594 -1.9882
  588MOL0     H77597   0.138   4.500   0.237 -0.8259  1.0712  1.1538
  588MOL0     H77598  -0.165   4.548   1.033 -0.5396 -0.1341 -0.8169
  588MOL0     H77599   0.044   4.555   1.154 -2.3547  0.3818 -2.1705
  588MOL0     H77600   0.495   4.222   1.252 -1.4856 -0.0844 -0.0946
  588MOL0     H77601   0.696   4.289   1.379  0.5439  2.7647  0.3907
  588MOL0     H77602   2.416   4.403   1.585 -0.5519  1.5294 -0.3349
  588MOL0     H77603   2.629   4.324   1.601 -0.1597 -0.4724  0.5719
  588MOL0     H77604   2.842   3.934   1.757  0.7823 -0.6815 -0.1868
  588MOL0     H77605   3.050   3.802   1.736  0.5273 -1.3012  1.0339
  588MOL0     H77606   3.471   3.878   1.791  1.4765  0.9356 -4.1438
  588MOL0     H77607   3.390   4.041   1.806 -1.4052  0.1215 -0.6894
  588MOL0     H77608   3.291   3.853   1.601 -0.1006  0.3326  0.7250
  588MOL0     H77609   3.278   4.033   1.615  0.7724  1.9176  0.2885
  588MOL0     H77610   3.437   3.912   1.425 -0.9387 -1.8692  1.7873
  588MOL0     H77611   3.549   3.887   1.552  0.5834  0.1284 -0.3745
  588MOL0     H77612   3.448   4.149   1.459  1.4564 -1.9923 -1.7805
  588MOL0     H77613   3.508   4.142   1.633  3.1366  3.1551 -1.4927
  588MOL0     H77614   3.854   4.181   1.432 -0.8998 -0.0627 -2.8608
  588MOL0     H77615   3.243   4.058   2.008  0.1047 -3.0053  0.2354
  588MOL0     H77616   3.032   4.206   2.028  0.1858  0.2394 -1.4966
  589MOL0     O77617   0.432   5.889   3.361  0.3232  0.4858 -0.0287
  589MOL0     C77618   0.427   5.761   3.346  0.2000 -0.8726 -0.1197
  589MOL0     O77619   0.533   5.678   3.306  0.5815  0.0600 -0.0618
  589MOL0     C77620   0.662   5.721   3.319  0.1325 -0.3747 -0.1358
  589MOL0     C77621   0.757   5.631   3.358  0.1217  0.4577  0.2649
  589MOL0     C77622   0.898   5.657   3.370  0.8293  0.2884 -0.8850
  589MOL0     C77623   0.935   5.780   3.325  0.7718 -0.2476 -0.2370
  589MOL0     O77624   1.066   5.827   3.323  0.8202  0.4332  0.6508
  589MOL0     C77625   1.157   5.733   3.271  0.4585 -0.1070  0.0688
  589MOL0     C77626   1.286   5.799   3.229  0.0214 -0.0684  0.7868
  589MOL0     C77627   1.342   5.877   3.342  0.4273  0.4501  0.5811
  589MOL0     C77628   1.496   5.893   3.330  0.2633  0.6956  0.4131
  589MOL0     C77629   1.582   5.776   3.295  0.3896 -0.2490 -0.7789
  589MOL0     C77630   1.559   5.666   3.406  0.4336 -0.5167  0.5296
  589MOL0     C77631   1.631   5.532   3.387 -0.2520  0.5305  0.7789
  589MOL0     C77632   1.567   5.456   3.272  0.5503 -0.5415 -0.0124
  589MOL0     N77633   1.430   5.407   3.297 -0.0471 -0.0519 -1.2392
  589MOL0     C77634   1.372   5.377   3.419  0.6768  0.0349  0.4275
  589MOL0     C77635   1.242   5.348   3.388 -0.5874 -0.7002 -0.5598
  589MOL0     C77636   1.130   5.288   3.483  0.5926  0.0975 -0.5990
  589MOL0     C77637   1.039   5.182   3.417  0.0816 -0.6746  0.1401
  589MOL0     C77638   0.953   5.105   3.521 -0.2971 -0.1928  0.1493
  589MOL0     C77639   0.878   4.989   3.456 -0.3486 -1.2061 -0.5897
  589MOL0     O77640   0.775   5.032   3.362  0.0606 -0.1031 -0.7682
  589MOL0     C77641   0.669   4.946   3.325 -1.0343 -0.1127 -0.4224
  589MOL0     C77642   0.632   4.830   3.395  0.3257  0.0995 -0.4074
  589MOL0     C77643   0.520   4.760   3.351 -0.6167 -0.1281  0.3555
  589MOL0     C77644   0.441   4.801   3.242 -0.1524 -1.0960  0.5508
  589MOL0     C77645   0.321   4.726   3.196 -0.2078  0.1521 -0.5200
  589MOL0     O77646   0.291   4.599   3.244  0.4339  0.6863 -0.2202
  589MOL0     C77647   0.194   4.517   3.195  0.2197 -0.3920  0.1218
  589MOL0     C77648   0.207   4.379   3.222 -1.0272  0.0820 -0.0643
  589MOL0     C77649   0.123   4.282   3.163  0.8362  0.1439 -0.4408
  589MOL0     C77650   0.009   4.322   3.091  0.6123 -0.4565 -0.0126
  589MOL0     O77651  -0.092   4.241   3.038 -0.1199  0.2638 -0.3637
  589MOL0     C77652  -0.122   4.127   3.121 -0.6131  0.1749  0.0866
  589MOL0     C77653  -0.260   4.082   3.076 -0.8395  0.0897  0.3716
  589MOL0     C77654  -0.372   4.181   3.122  0.4388 -0.1179 -0.8549
  589MOL0     C77655  -0.516   4.133   3.112  0.3862 -0.0573  0.0822
  589MOL0     C77656  -0.552   4.037   3.222  0.1561 -0.0356  0.6682
  589MOL0     C77657  -0.695   3.988   3.219  0.3334  0.1224  0.4923
  589MOL0     C77658  -0.744   3.928   3.356  0.0968 -0.0159 -0.3284
  589MOL0     C77659  -0.899   3.915   3.368 -0.3073  0.0517  0.8855
  589MOL0    Cl77660  -0.974   3.880   3.210  0.7316 -0.4530  0.1207
  589MOL0     C77661   0.003   4.458   3.054  0.1300  0.7615  0.5605
  589MOL0     C77662   0.090   4.554   3.113 -0.3010 -0.9136 -0.2373
  589MOL0     O77663   0.258   4.785   3.113 -0.3204  0.3700 -0.2547
  589MOL0     C77664   0.472   4.932   3.189 -0.4057  0.9523  0.0756
  589MOL0     C77665   0.591   5.000   3.221 -0.1303  0.0083 -0.3519
  589MOL0     N77666   1.224   5.381   3.246 -0.2554 -0.9159 -0.1739
  589MOL0     N77667   1.341   5.418   3.198  0.5549 -0.0564 -0.1747
  589MOL0     C77668   0.837   5.883   3.288  0.8085 -0.3342 -0.6355
  589MOL0     C77669   0.701   5.846   3.281 -0.3248  0.9331 -0.1318
  589MOL0     C77670   0.292   5.692   3.363 -0.0624  0.0683  0.8573
  589MOL0     C77671   0.272   5.554   3.350 -0.5721 -1.1421  0.7986
  589MOL0     C77672   0.145   5.503   3.345  0.1721 -0.7759 -0.1363
  589MOL0     C77673   0.039   5.595   3.375  0.5294 -0.4301  0.3452
  589MOL0     O77674  -0.088   5.558   3.379  0.8017  0.0303  0.0930
  589MOL0     C77675  -0.151   5.543   3.249 -0.0384  0.0958 -0.2323
  589MOL0     C77676  -0.295   5.486   3.283  0.0076  0.1873  0.4594
  589MOL0     C77677  -0.334   5.375   3.184 -0.5082 -0.3989  0.1668
  589MOL0     C77678  -0.489   5.342   3.185  1.1513 -0.2338 -0.0451
  589MOL0     C77679  -0.528   5.211   3.125  0.0896 -0.3413 -0.3273
  589MOL0     C77680  -0.566   5.113   3.072  0.0153 -0.2926 -0.7321
  589MOL0     C77681   0.058   5.729   3.398 -0.2875 -0.2821 -0.2091
  589MOL0     C77682   0.185   5.780   3.391  0.0831 -0.2795  0.2372
  589MOL0     H77683   0.723   5.529   3.367 -1.7556  1.1191  1.2090
  589MOL0     H77684   0.967   5.579   3.401 -1.3006 -1.3144  0.1244
  589MOL0     H77685   1.119   5.669   3.191  0.4234  1.8917 -1.6183
  589MOL0     H77686   1.177   5.672   3.359  4.5359  3.5419  2.0387
  589MOL0     H77687   1.256   5.871   3.152 -1.6400  0.6409  2.0322
  589MOL0     H77688   1.359   5.725   3.196  3.1227  2.3348  1.7219
  589MOL0     H77689   1.316   5.817   3.430 -0.6774 -0.8074 -0.5673
  589MOL0     H77690   1.285   5.970   3.353 -2.4553 -0.8431 -2.0426
  589MOL0     H77691   1.506   5.972   3.254  0.0167  1.2474  0.9469
  589MOL0     H77692   1.527   5.929   3.428  0.0174  3.1187 -0.3200
  589MOL0     H77693   1.685   5.813   3.294  1.3467 -2.6388 -2.8324
  589MOL0     H77694   1.564   5.736   3.195 -1.0318 -2.2833  0.2191
  589MOL0     H77695   1.452   5.643   3.405  0.6107 -1.4457 -0.5431
  589MOL0     H77696   1.599   5.711   3.497  0.6895  1.6736 -0.5849
  589MOL0     H77697   1.737   5.538   3.363  0.1177  0.3581  2.2251
  589MOL0     H77698   1.618   5.471   3.478 -0.1264 -3.2479 -1.5275
  589MOL0     H77699   1.627   5.367   3.249  2.9313  1.4341 -2.1068
  589MOL0     H77700   1.582   5.515   3.181  3.4285  2.0387  1.9016
  589MOL0     H77701   1.425   5.377   3.514  2.4961  1.9275 -0.4920
  589MOL0     H77702   1.074   5.367   3.535  0.8649 -0.1197  0.0409
  589MOL0     H77703   1.171   5.235   3.570 -1.3216  0.7459  0.7915
  589MOL0     H77704   1.109   5.114   3.367  0.0411 -0.2887 -0.4488
  589MOL0     H77705   0.977   5.227   3.339 -0.2810 -0.7179  0.3997
  589MOL0     H77706   1.001   5.060   3.609 -0.0855  0.2667  0.2772
  589MOL0     H77707   0.887   5.182   3.562  1.2341  1.5972 -0.5955
  589MOL0     H77708   0.833   4.933   3.539 -0.4003 -0.5529 -0.1739
  589MOL0     H77709   0.954   4.928   3.406 -0.1857 -0.7487 -0.8979
  589MOL0     H77710   0.683   4.799   3.486 -0.7442  0.6389  0.4022
  589MOL0     H77711   0.499   4.662   3.394  1.5237 -1.8468 -2.1716
  589MOL0     H77712   0.297   4.339   3.269 -1.8278  0.3528  1.7951
  589MOL0     H77713   0.132   4.175   3.173  2.3859  0.4043  1.4230
  589MOL0     H77714  -0.134   4.143   3.228 -0.2974 -0.5751  0.2360
  589MOL0     H77715  -0.052   4.046   3.100 -0.0805  0.7466 -0.3773
  589MOL0     H77716  -0.274   3.980   3.116  3.8298 -0.5985  0.8148
  589MOL0     H77717  -0.265   4.083   2.967  0.4213 -1.4947  0.2550
  589MOL0     H77718  -0.367   4.263   3.050  3.0265 -0.4541 -1.1672
  589MOL0     H77719  -0.346   4.229   3.217 -0.6427  2.6539 -1.8644
  589MOL0     H77720  -0.586   4.216   3.103  0.4343  0.1720  1.6590
  589MOL0     H77721  -0.524   4.089   3.012 -1.2433  0.1552  0.0878
  589MOL0     H77722  -0.534   4.091   3.315  0.5307 -0.1576  0.6677
  589MOL0     H77723  -0.486   3.950   3.213 -0.1588 -0.1697 -0.5879
  589MOL0     H77724  -0.701   3.918   3.134  0.3375  1.7103 -0.8670
  589MOL0     H77725  -0.761   4.070   3.190  0.0647  0.4909  2.0756
  589MOL0     H77726  -0.702   3.827   3.355 -0.9717 -0.4974  1.0262
  589MOL0     H77727  -0.710   3.987   3.441 -0.4024 -0.3578  0.1147
  589MOL0     H77728  -0.949   3.998   3.418 -1.0179 -0.3379  0.8374
  589MOL0     H77729  -0.928   3.827   3.426  2.1910 -3.1225 -2.1829
  589MOL0     H77730  -0.077   4.489   2.987 -1.8239  0.7011  2.7433
  589MOL0     H77731   0.069   4.659   3.092 -1.7886 -1.0048  0.6117
  589MOL0     H77732   0.411   4.973   3.109 -1.1087 -1.0404 -0.4604
  589MOL0     H77733   0.610   5.099   3.180  2.3386 -0.7135 -1.1235
  589MOL0     H77734   0.851   5.985   3.254 -0.1625  0.8631  2.1892
  589MOL0     H77735   0.641   5.930   3.246 -1.2886  0.4073  0.2076
  589MOL0     H77736   0.359   5.489   3.344  0.4184  0.2294 -0.8223
  589MOL0     H77737   0.126   5.398   3.325 -0.0639 -0.9051  0.7463
  589MOL0     H77738  -0.096   5.468   3.193  1.4789  0.5891  0.5608
  589MOL0     H77739  -0.149   5.638   3.193 -2.9012  0.0446 -0.5952
  589MOL0     H77740  -0.303   5.457   3.388 -2.1899  2.4985  1.0129
  589MOL0     H77741  -0.367   5.568   3.285  0.4277  0.5514  2.1301
  589MOL0     H77742  -0.281   5.284   3.212 -1.1398 -1.3822 -1.6569
  589MOL0     H77743  -0.314   5.407   3.081 -4.2470  2.8299  0.1769
  589MOL0     H77744  -0.528   5.344   3.287 -1.8552  2.7807 -1.0752
  589MOL0     H77745  -0.544   5.425   3.140  1.2321 -0.3906 -0.4317
  589MOL0     H77746  -0.599   5.021   3.028 -1.8189 -0.2499  0.4587
  589MOL0     H77747  -0.027   5.790   3.427  0.7326  0.7194  0.7629
  589MOL0     H77748   0.194   5.883   3.424 -0.8997 -0.6498  1.7325
  590MOL0     O77749   7.236   4.725   7.391 -0.6941 -0.6525 -0.3363
  590MOL0     C77750   7.237   4.624   7.317  0.3135  0.0792  0.4878
  590MOL0     O77751   7.251   4.496   7.362 -0.3718 -0.2141 -0.1243
  590MOL0     C77752   7.279   4.488   7.494  0.0013  1.0880 -0.0011
  590MOL0     C77753   7.407   4.471   7.552 -0.7266 -0.7415  1.1245
  590MOL0     C77754   7.427   4.471   7.684 -0.0014 -0.0560  0.2680
  590MOL0     C77755   7.316   4.485   7.775 -0.8226  0.4318  0.3650
  590MOL0     O77756   7.351   4.474   7.907 -0.1933  0.2857 -0.2762
  590MOL0     C77757   7.344   4.596   7.975  1.1768 -0.0275  0.0576
  590MOL0     C77758   7.223   4.591   8.073 -0.9311  0.0607 -1.0237
  590MOL0     C77759   7.244   4.466   8.166  0.2757 -0.5825 -0.4026
  590MOL0     C77760   7.172   4.459   8.294  0.3481  0.3914  0.2859
  590MOL0     C77761   7.270   4.530   8.409 -0.3284 -0.1043  0.3037
  590MOL0     C77762   7.185   4.554   8.531  0.3622  0.1807 -0.1117
  590MOL0     C77763   7.253   4.620   8.655 -0.4238 -0.0430 -1.2051
  590MOL0     C77764   7.168   4.620   8.776 -0.2773 -0.2496  0.4679
  590MOL0     N77765   7.051   4.696   8.751 -0.0561  0.3938  0.6091
  590MOL0     C77766   6.927   4.644   8.710 -0.8243  0.1751 -0.2350
  590MOL0     C77767   6.840   4.755   8.707 -0.3574  0.2091 -0.1216
  590MOL0     C77768   6.683   4.766   8.699  0.1549  0.2600  0.3987
  590MOL0     C77769   6.642   4.746   8.555  0.0889 -0.5249 -0.0945
  590MOL0     C77770   6.512   4.818   8.503  0.7381  0.0775 -0.4169
  590MOL0     C77771   6.390   4.765   8.573  0.1189  0.6008  0.4241
  590MOL0     O77772   6.370   4.623   8.575  0.1830 -0.2043  0.6127
  590MOL0     C77773   6.246   4.567   8.544 -1.4925  0.1027 -0.5379
  590MOL0     C77774   6.245   4.432   8.510  0.6226 -0.4882 -0.5391
  590MOL0     C77775   6.118   4.370   8.471  0.2033 -0.7690  0.9382
  590MOL0     C77776   5.998   4.446   8.487  0.8420 -0.3965  0.4213
  590MOL0     C77777   5.863   4.391   8.446  0.4459 -0.1277 -1.2562
  590MOL0     O77778   5.750   4.466   8.467 -0.5609  0.3596 -0.1152
  590MOL0     C77779   5.630   4.415   8.424  1.5316  0.5835  0.1043
  590MOL0     C77780   5.566   4.460   8.311 -0.3632 -0.2101  0.3600
  590MOL0     C77781   5.436   4.409   8.286 -0.7468 -0.0467  0.2437
  590MOL0     C77782   5.373   4.300   8.365  1.0324 -0.2947  0.3446
  590MOL0     O77783   5.252   4.232   8.353  0.8109 -0.4004 -0.2452
  590MOL0     C77784   5.161   4.289   8.266  0.0804  0.3962  0.0966
  590MOL0     C77785   5.028   4.212   8.260 -0.8022 -0.1160  0.2058
  590MOL0     C77786   5.011   4.132   8.133 -0.4788  0.0824  0.4817
  590MOL0     C77787   5.111   4.024   8.113  0.4465 -0.2623 -0.0064
  590MOL0     C77788   5.083   3.917   7.998 -0.7624 -0.6216 -1.1364
  590MOL0     C77789   5.015   3.787   8.053  0.5440  0.1895 -0.6152
  590MOL0     C77790   4.956   3.695   7.945  0.7233 -0.9556  0.2865
  590MOL0     C77791   4.928   3.555   7.999 -0.5034 -0.8483 -0.0257
  590MOL0    Cl77792   5.097   3.463   8.013 -0.2810  0.4247 -0.4850
  590MOL0     C77793   5.451   4.250   8.468 -0.4765  0.6042 -0.2296
  590MOL0     C77794   5.574   4.306   8.499 -0.6543 -0.5424 -0.0314
  590MOL0     O77795   5.863   4.283   8.383 -0.1807 -0.1873 -0.8057
  590MOL0     C77796   5.999   4.576   8.541  0.8385 -0.1432  0.2129
  590MOL0     C77797   6.122   4.635   8.565 -0.4845 -0.7605  0.3162
  590MOL0     N77798   6.918   4.866   8.725  0.1494  0.9798  0.6102
  590MOL0     N77799   7.040   4.829   8.755  0.0058 -0.0792  0.3246
  590MOL0     C77800   7.188   4.499   7.725 -0.4648 -0.4338  0.4590
  590MOL0     C77801   7.173   4.509   7.583 -0.0668 -0.1832  0.0400
  590MOL0     C77802   7.209   4.632   7.176 -0.5966 -0.3834  0.8040
  590MOL0     C77803   7.230   4.529   7.084  0.3216 -0.3978  0.4306
  590MOL0     C77804   7.178   4.548   6.958 -0.5992  0.5016 -0.1109
  590MOL0     C77805   7.123   4.666   6.910  0.5565  0.1559 -1.1128
  590MOL0     O77806   7.071   4.675   6.782 -0.1467 -0.6209  0.1637
  590MOL0     C77807   7.152   4.625   6.677 -0.2602 -0.5686  0.7779
  590MOL0     C77808   7.095   4.494   6.626  0.2713  0.1086 -0.1964
  590MOL0     C77809   6.971   4.497   6.519 -0.3747 -0.0313 -0.2067
  590MOL0     C77810   6.998   4.413   6.394  0.1098  0.3461  0.9210
  590MOL0     C77811   6.872   4.421   6.322 -0.0543  0.0129  0.5115
  590MOL0     C77812   6.775   4.435   6.246 -0.0803  0.3799  1.5081
  590MOL0     C77813   7.102   4.770   6.998  0.2360  0.2582 -0.2521
  590MOL0     C77814   7.152   4.754   7.126 -0.4858 -0.2423  0.0812
  590MOL0     H77815   7.498   4.471   7.494 -0.9039  0.1037  0.8380
  590MOL0     H77816   7.529   4.463   7.720 -0.0335  3.1569  1.3131
  590MOL0     H77817   7.315   4.679   7.909  0.5887 -0.3384 -0.0803
  590MOL0     H77818   7.440   4.611   8.026  0.4349 -0.8817  1.7672
  590MOL0     H77819   7.124   4.583   8.028 -2.1455  0.4747  1.3746
  590MOL0     H77820   7.218   4.677   8.141  1.9200 -0.8603  0.5280
  590MOL0     H77821   7.351   4.460   8.190 -0.1159 -0.5311  1.5325
  590MOL0     H77822   7.208   4.380   8.108 -1.2754 -0.7364  0.7202
  590MOL0     H77823   7.077   4.513   8.286  0.5057  1.1020  2.4300
  590MOL0     H77824   7.147   4.356   8.320  0.1177  0.8389  1.9320
  590MOL0     H77825   7.312   4.626   8.378 -0.5952 -0.0136  0.2192
  590MOL0     H77826   7.344   4.457   8.442 -2.1524 -0.9100  2.9559
  590MOL0     H77827   7.119   4.471   8.557  2.5199 -1.2868  1.0040
  590MOL0     H77828   7.101   4.620   8.508 -0.6627  0.3179  3.4699
  590MOL0     H77829   7.351   4.580   8.680 -0.3836  0.2377 -0.9101
  590MOL0     H77830   7.278   4.724   8.632  0.6408 -0.1777 -0.6895
  590MOL0     H77831   7.235   4.666   8.849 -0.4172 -2.1515  1.8699
  590MOL0     H77832   7.158   4.515   8.804  3.0686 -0.4064  1.4837
  590MOL0     H77833   6.897   4.540   8.696 -1.0085 -0.1898  2.3744
  590MOL0     H77834   6.662   4.865   8.742  0.4148  0.4341  0.1325
  590MOL0     H77835   6.632   4.694   8.763  1.4106 -1.0024  0.0276
  590MOL0     H77836   6.632   4.639   8.533 -1.2071 -0.6402  0.9504
  590MOL0     H77837   6.710   4.794   8.484 -2.1338  1.6873 -0.9087
  590MOL0     H77838   6.513   4.927   8.505 -2.8626  0.2718 -2.0059
  590MOL0     H77839   6.499   4.786   8.399 -4.6964  1.3153 -0.3928
  590MOL0     H77840   6.308   4.802   8.510 -1.3494 -2.4454  0.3762
  590MOL0     H77841   6.386   4.804   8.675  0.2494  0.3940  0.5079
  590MOL0     H77842   6.343   4.388   8.496  2.5947  3.0937  0.5285
  590MOL0     H77843   6.112   4.275   8.418 -1.0860 -0.5418  0.6303
  590MOL0     H77844   5.604   4.539   8.246 -2.7610  1.5897  0.9851
  590MOL0     H77845   5.391   4.441   8.193 -0.4688 -0.3054  0.0176
  590MOL0     H77846   5.202   4.276   8.166 -1.7819 -1.8229 -0.4718
  590MOL0     H77847   5.154   4.396   8.289  0.9571  0.4052  0.3508
  590MOL0     H77848   4.950   4.288   8.252  0.1767  1.0115  1.0953
  590MOL0     H77849   5.029   4.155   8.353 -0.0698 -1.4883 -0.6087
  590MOL0     H77850   5.007   4.207   8.054 -1.6108  0.9057  1.2812
  590MOL0     H77851   4.913   4.085   8.148  0.4344 -1.4827  1.9901
  590MOL0     H77852   5.211   4.067   8.102 -0.2846  1.9501  1.1955
  590MOL0     H77853   5.110   3.961   8.203 -1.1248 -1.2008 -0.6428
  590MOL0     H77854   5.184   3.888   7.967 -1.1563 -1.7650 -1.4150
  590MOL0     H77855   5.017   3.965   7.925 -1.4881  0.1344 -0.0248
  590MOL0     H77856   4.939   3.823   8.123 -0.0010 -1.6051 -0.2227
  590MOL0     H77857   5.087   3.723   8.105 -2.6737 -3.0377  0.3531
  590MOL0     H77858   4.861   3.734   7.907  0.7732 -2.6067 -1.6730
  590MOL0     H77859   5.018   3.695   7.855  2.7443  3.0008  1.4271
  590MOL0     H77860   4.857   3.491   7.945  1.5188 -1.9310 -1.5366
  590MOL0     H77861   4.886   3.568   8.100  2.9189  0.9262  1.3443
  590MOL0     H77862   5.409   4.169   8.527 -0.1486  1.5489  1.3385
  590MOL0     H77863   5.621   4.256   8.584  0.7774 -0.3771 -0.6919
  590MOL0     H77864   5.904   4.625   8.561  0.9042 -0.3616  1.0918
  590MOL0     H77865   6.111   4.735   8.606 -3.3091 -0.7701 -0.2007
  590MOL0     H77866   7.102   4.511   7.790  0.1974  0.8855  1.1355
  590MOL0     H77867   7.069   4.533   7.564 -0.1377 -0.1376  0.4565
  590MOL0     H77868   7.256   4.429   7.117  0.9778  0.2078  1.8391
  590MOL0     H77869   7.197   4.461   6.895 -1.1086 -0.2654  0.7741
  590MOL0     H77870   7.253   4.601   6.713  1.4417  2.6151 -1.3583
  590MOL0     H77871   7.172   4.700   6.600  0.3114 -1.8965 -0.4245
  590MOL0     H77872   7.172   4.441   6.569 -0.2967 -0.5837 -0.3325
  590MOL0     H77873   7.063   4.442   6.717  0.3412 -0.5778 -0.5535
  590MOL0     H77874   6.965   4.597   6.475  0.3957  0.0624 -0.1117
  590MOL0     H77875   6.879   4.471   6.573  0.9746 -0.5760  1.9831
  590MOL0     H77876   7.084   4.449   6.338 -0.8150 -0.3817 -1.0386
  590MOL0     H77877   7.011   4.306   6.416 -0.5174 -0.6825 -2.9632
  590MOL0     H77878   6.684   4.452   6.192  1.5982  0.2280 -1.5868
  590MOL0     H77879   7.046   4.860   6.974  0.0662 -0.1639 -1.4834
  590MOL0     H77880   7.144   4.835   7.198  3.9853 -0.8774  1.6084
  591MOL0     O77881   3.446   9.333   1.006 -0.0906  0.2465  0.3470
  591MOL0     C77882   3.364   9.377   1.086  0.3833  1.1799  0.2390
  591MOL0     O77883   3.390   9.481   1.179  0.2280  0.8315 -0.1370
  591MOL0     C77884   3.505   9.536   1.212 -0.4456 -0.2561  0.0025
  591MOL0     C77885   3.637   9.530   1.156 -0.2167  1.2197 -1.5497
  591MOL0     C77886   3.748   9.587   1.218 -0.0794 -0.0122 -0.8613
  591MOL0     C77887   3.743   9.674   1.327  0.2809 -0.0422  0.4095
  591MOL0     O77888   3.851   9.742   1.387  0.0197  0.3890 -0.2343
  591MOL0     C77889   3.980   9.719   1.331 -1.0150  0.1384 -0.4122
  591MOL0     C77890   4.043   9.591   1.374  0.3929  0.7781 -0.0834
  591MOL0     C77891   4.170   9.586   1.296 -0.2380  0.1773  0.5984
  591MOL0     C77892   4.276   9.484   1.323  0.5830 -0.2649  0.5876
  591MOL0     C77893   4.226   9.350   1.262  0.6299  0.6040 -0.1188
  591MOL0     C77894   4.297   9.236   1.338  0.9339 -0.2155 -0.1426
  591MOL0     C77895   4.250   9.096   1.306 -0.1024  0.0608  0.3077
  591MOL0     C77896   4.101   9.101   1.300 -0.3056 -0.0942 -0.5216
  591MOL0     N77897   4.033   9.153   1.424  0.3683 -0.9550  0.2085
  591MOL0     C77898   3.920   9.228   1.416 -0.2310  0.0111 -0.6747
  591MOL0     C77899   3.898   9.292   1.533 -0.7071  0.1529 -1.6177
  591MOL0     C77900   3.762   9.362   1.574 -0.2833  0.3754  0.6252
  591MOL0     C77901   3.648   9.267   1.623  0.3876 -0.3246 -0.4543
  591MOL0     C77902   3.584   9.177   1.517  0.3840  0.3731  0.1068
  591MOL0     C77903   3.485   9.258   1.428 -0.7653 -0.2777 -0.0519
  591MOL0     O77904   3.396   9.342   1.503  0.6222  0.3939 -0.4550
  591MOL0     C77905   3.264   9.302   1.525 -0.3128  0.0943  0.9267
  591MOL0     C77906   3.165   9.402   1.529  0.8828 -0.3518 -1.1861
  591MOL0     C77907   3.031   9.369   1.548  0.0763 -0.2002  0.0204
  591MOL0     C77908   2.995   9.236   1.552  0.1785  0.3703  0.3749
  591MOL0     C77909   2.852   9.192   1.577 -0.1696 -0.2493 -0.0426
  591MOL0     O77910   2.818   9.075   1.525 -0.1069  0.2895 -0.2833
  591MOL0     C77911   2.692   9.020   1.549 -0.2805 -0.1887 -0.2534
  591MOL0     C77912   2.574   9.087   1.514 -1.1506  0.0034 -0.3493
  591MOL0     C77913   2.445   9.025   1.513 -0.1337 -0.4204  0.1957
  591MOL0     C77914   2.441   8.893   1.563  0.2801 -0.0415  0.0186
  591MOL0     O77915   2.317   8.830   1.559  1.0388  0.3353 -0.4846
  591MOL0     C77916   2.299   8.694   1.608  0.4464  0.4530  0.9572
  591MOL0     C77917   2.163   8.640   1.581 -0.5381 -0.1440 -0.0045
  591MOL0     C77918   2.112   8.546   1.697  0.3843 -0.6500  0.9814
  591MOL0     C77919   1.988   8.456   1.659  1.3584 -1.1214 -0.4554
  591MOL0     C77920   1.967   8.327   1.745  0.7537  0.2912  0.3688
  591MOL0     C77921   1.935   8.383   1.879  0.6285 -0.2242  0.4300
  591MOL0     C77922   1.902   8.270   1.976 -0.1128 -0.3003  0.0009
  591MOL0     C77923   2.034   8.212   2.040 -0.4059 -0.9374  0.0626
  591MOL0    Cl77924   2.132   8.335   2.134 -0.1074 -0.3846  0.1327
  591MOL0     C77925   2.565   8.830   1.607  0.5011  0.2322  0.3583
  591MOL0     C77926   2.684   8.890   1.595  0.0311 -0.1560 -0.0910
  591MOL0     O77927   2.784   9.253   1.663 -0.4287 -0.2080  0.3524
  591MOL0     C77928   3.094   9.138   1.531  0.3607  0.5926  0.1320
  591MOL0     C77929   3.227   9.170   1.526  0.9231 -0.2276  0.4761
  591MOL0     N77930   3.999   9.250   1.615  0.6809  0.2407 -0.6465
  591MOL0     N77931   4.077   9.167   1.554 -0.3105 -0.0525  0.0216
  591MOL0     C77932   3.615   9.692   1.378  0.2490 -0.4801  0.8741
  591MOL0     C77933   3.500   9.628   1.323  0.1549  0.4374 -0.5792
  591MOL0     C77934   3.230   9.323   1.078 -1.0449 -0.0914  0.9545
  591MOL0     C77935   3.149   9.338   1.189 -1.2532  0.3507 -0.4361
  591MOL0     C77936   3.013   9.299   1.192  0.0647  0.1510 -0.4084
  591MOL0     C77937   2.958   9.231   1.083  0.2880  0.1656 -1.5654
  591MOL0     O77938   2.829   9.191   1.076  0.4028 -0.1311  0.0378
  591MOL0     C77939   2.744   9.207   1.183 -0.4395  0.0943 -0.2032
  591MOL0     C77940   2.596   9.157   1.147  0.0243 -0.2206 -0.6212
  591MOL0     C77941   2.599   9.042   1.057 -0.1820  0.2199  0.7168
  591MOL0     C77942   2.460   8.960   1.078 -0.3471 -0.5843  0.1387
  591MOL0     C77943   2.444   8.848   0.996 -0.4825 -0.0740  0.3968
  591MOL0     C77944   2.452   8.747   0.928  0.2614 -0.9277  0.0469
  591MOL0     C77945   3.046   9.198   0.978  0.8732  0.2594 -0.1896
  591MOL0     C77946   3.176   9.247   0.972 -0.3667 -0.4503  0.2764
  591MOL0     H77947   3.644   9.481   1.059  1.5794 -1.1629 -0.3507
  591MOL0     H77948   3.842   9.558   1.172 -0.5916 -1.7688 -0.8543
  591MOL0     H77949   4.046   9.801   1.360  0.6295 -0.6065 -1.8013
  591MOL0     H77950   3.978   9.720   1.221 -0.6968  2.8674 -0.4570
  591MOL0     H77951   3.980   9.512   1.331  1.1344  0.7555 -1.1667
  591MOL0     H77952   4.065   9.574   1.480 -0.3567 -0.8720 -0.1559
  591MOL0     H77953   4.217   9.683   1.317  2.0097 -1.0606  1.6586
  591MOL0     H77954   4.148   9.583   1.189 -1.3132  1.6345  0.7443
  591MOL0     H77955   4.369   9.516   1.275  0.4179 -2.4307 -1.3330
  591MOL0     H77956   4.291   9.474   1.431  5.1442  0.7099  0.2148
  591MOL0     H77957   4.251   9.338   1.156  2.6899 -1.6720  0.5313
  591MOL0     H77958   4.116   9.351   1.268  0.4829  0.1142 -1.9339
  591MOL0     H77959   4.301   9.259   1.445  2.0662  0.6545 -0.3495
  591MOL0     H77960   4.405   9.245   1.320  1.0129  0.9331  0.7393
  591MOL0     H77961   4.274   9.061   1.205 -2.3628 -1.9170  0.3548
  591MOL0     H77962   4.280   9.020   1.379  1.7922  0.3570 -0.0996
  591MOL0     H77963   4.060   9.002   1.278 -2.4559  0.9134 -1.3153
  591MOL0     H77964   4.075   9.162   1.213  1.2969  0.8035 -0.4088
  591MOL0     H77965   3.847   9.228   1.335  1.7693 -3.2115 -2.6682
  591MOL0     H77966   3.730   9.416   1.484  2.0882 -1.0599 -1.1909
  591MOL0     H77967   3.769   9.441   1.649 -2.6460  0.5596  0.7392
  591MOL0     H77968   3.578   9.336   1.671  0.5748 -0.2632 -0.2690
  591MOL0     H77969   3.689   9.208   1.706 -1.2733  0.1119  0.7352
  591MOL0     H77970   3.665   9.136   1.456  0.2777 -2.2944  1.6157
  591MOL0     H77971   3.529   9.094   1.563 -1.3694  0.7065 -1.2673
  591MOL0     H77972   3.432   9.198   1.354 -0.4824 -1.3726  0.6005
  591MOL0     H77973   3.549   9.334   1.380  3.8424 -2.0254  2.6597
  591MOL0     H77974   3.190   9.507   1.517  3.0658 -0.8964 -1.7366
  591MOL0     H77975   2.953   9.444   1.552 -2.2790 -2.5274  0.6120
  591MOL0     H77976   2.587   9.184   1.467 -0.7464 -0.3053 -0.8853
  591MOL0     H77977   2.359   9.083   1.482 -0.5703 -1.2473 -0.1682
  591MOL0     H77978   2.330   8.691   1.713 -0.5876 -0.4367  1.2522
  591MOL0     H77979   2.362   8.624   1.552 -1.4084 -0.4314 -0.1111
  591MOL0     H77980   2.146   8.600   1.481 -3.9820 -1.6190  1.0223
  591MOL0     H77981   2.093   8.724   1.582  2.1635  2.2787 -1.5104
  591MOL0     H77982   2.095   8.595   1.794  0.6133 -1.7874  1.6167
  591MOL0     H77983   2.200   8.484   1.715  1.3624 -0.2315 -1.8553
  591MOL0     H77984   1.912   8.534   1.668  1.5292 -1.2251  4.0656
  591MOL0     H77985   1.993   8.431   1.553 -1.8053 -2.5876 -0.3428
  591MOL0     H77986   2.055   8.263   1.737  1.6402  1.3820  1.2177
  591MOL0     H77987   1.888   8.266   1.700 -0.9987 -0.0353  3.6075
  591MOL0     H77988   1.843   8.441   1.869  1.0275  0.1527 -1.2887
  591MOL0     H77989   2.016   8.447   1.915  1.8071 -0.7310 -1.2320
  591MOL0     H77990   1.832   8.307   2.052  1.4641 -0.0930  1.4123
  591MOL0     H77991   1.850   8.199   1.911  0.4593  0.1343 -0.9469
  591MOL0     H77992   2.085   8.168   1.954 -0.5487  1.3702 -1.2613
  591MOL0     H77993   2.024   8.129   2.111  2.3804 -1.1952  0.2432
  591MOL0     H77994   2.559   8.724   1.630  1.2102  0.2851  0.8230
  591MOL0     H77995   2.777   8.840   1.621 -0.1928  0.3399  1.8329
  591MOL0     H77996   3.077   9.031   1.535  2.4413  0.2134 -0.1440
  591MOL0     H77997   3.297   9.088   1.514  1.9586  0.3918  2.0145
  591MOL0     H77998   3.594   9.773   1.447  3.0179 -0.1670  1.4597
  591MOL0     H77999   3.402   9.654   1.364 -0.1150  1.6411 -1.9349
  591MOL0     H78000   3.191   9.394   1.272  3.2354 -0.8496 -1.6416
  591MOL0     H78001   2.947   9.321   1.275 -1.9102 -0.3423 -1.7731
  591MOL0     H78002   2.744   9.312   1.212  0.8787  0.4395 -1.3736
  591MOL0     H78003   2.778   9.159   1.275  1.1877  1.1403 -0.2193
  591MOL0     H78004   2.546   9.121   1.237  0.6740 -0.7071 -0.4438
  591MOL0     H78005   2.528   9.235   1.111 -0.9817 -0.4226  0.7685
  591MOL0     H78006   2.678   8.968   1.074  2.0773  1.9175 -1.4406
  591MOL0     H78007   2.613   9.074   0.953  1.0232 -0.8273  0.5190
  591MOL0     H78008   2.438   8.924   1.179 -2.6920 -3.2907 -1.1985
  591MOL0     H78009   2.383   9.031   1.045 -0.2240  0.0002  1.0817
  591MOL0     H78010   2.457   8.670   0.855 -0.2497 -0.6764 -0.2573
  591MOL0     H78011   3.019   9.138   0.891 -2.0389 -0.6310  1.2169
  591MOL0     H78012   3.229   9.217   0.883  2.1541  1.9053  0.8539
  592MOL0     O78013   2.552   6.634   7.194  0.7147 -0.1425  0.4275
  592MOL0     C78014   2.525   6.751   7.207 -0.3430  0.0476 -0.5510
  592MOL0     O78015   2.413   6.795   7.269  0.3417 -0.0771 -0.4495
  592MOL0     C78016   2.318   6.701   7.307 -0.2291  0.6944  0.2328
  592MOL0     C78017   2.329   6.593   7.392  0.1280  0.2522  0.2296
  592MOL0     C78018   2.230   6.505   7.423  0.0475  0.1713  0.2564
  592MOL0     C78019   2.102   6.526   7.372  0.0540  0.6918  0.2062
  592MOL0     O78020   2.009   6.428   7.413  0.6104 -0.2299 -0.1195
  592MOL0     C78021   1.884   6.440   7.360 -0.3861  0.5095  0.2206
  592MOL0     C78022   1.777   6.399   7.468 -0.1760 -0.2932  0.6317
  592MOL0     C78023   1.637   6.372   7.419 -0.3334 -0.0914 -1.3045
  592MOL0     C78024   1.540   6.338   7.538 -0.0145 -0.1235  0.2963
  592MOL0     C78025   1.421   6.255   7.484  0.0902 -0.3112 -0.4134
  592MOL0     C78026   1.320   6.249   7.594  0.1033 -0.7897 -0.0212
  592MOL0     C78027   1.186   6.167   7.561 -0.4429 -0.6000 -0.3241
  592MOL0     C78028   1.104   6.172   7.693 -0.6670  0.5073 -0.0326
  592MOL0     N78029   0.982   6.101   7.674  1.1666  0.4577  0.9085
  592MOL0     C78030   0.959   5.966   7.665  0.6770 -0.2788 -0.0944
  592MOL0     C78031   0.850   5.962   7.577  0.2631  0.0200  0.4613
  592MOL0     C78032   0.779   5.841   7.528 -0.9510  0.2761 -0.6736
  592MOL0     C78033   0.659   5.810   7.621 -1.0098 -0.9496  1.3618
  592MOL0     C78034   0.681   5.720   7.747  0.5654 -1.0618 -0.0445
  592MOL0     C78035   0.544   5.711   7.819 -0.0807  0.4738 -0.0798
  592MOL0     O78036   0.553   5.605   7.919 -0.1081  0.1125 -0.5272
  592MOL0     C78037   0.430   5.562   7.961  0.2615  0.3947  0.1884
  592MOL0     C78038   0.418   5.525   8.095  0.0363 -0.1830 -0.1908
  592MOL0     C78039   0.290   5.490   8.151 -0.9456 -0.4570  0.2253
  592MOL0     C78040   0.179   5.473   8.065 -0.0872  0.8472 -0.2382
  592MOL0     C78041   0.052   5.417   8.119 -0.3972  0.0192 -0.4791
  592MOL0     O78042   0.052   5.407   8.257  0.2007 -0.8395 -0.2932
  592MOL0     C78043  -0.054   5.382   8.342  0.1247  0.5043  0.5746
  592MOL0     C78044  -0.026   5.411   8.481 -0.9299  0.0846  0.6168
  592MOL0     C78045  -0.140   5.411   8.568 -0.5104  1.3410 -0.0352
  592MOL0     C78046  -0.266   5.373   8.528  0.0903  0.5397  0.4692
  592MOL0     O78047  -0.374   5.374   8.613 -0.3675 -0.6352 -0.2031
  592MOL0     C78048  -0.454   5.250   8.618 -0.4104 -0.0036  0.8486
  592MOL0     C78049  -0.596   5.298   8.632  0.1448 -0.4230 -0.7977
  592MOL0     C78050  -0.700   5.186   8.607 -0.7776 -0.4338 -0.0068
  592MOL0     C78051  -0.841   5.237   8.640 -0.3051 -0.8746  0.1068
  592MOL0     C78052  -0.950   5.145   8.601 -0.1378  0.7596  0.4710
  592MOL0     C78053  -0.940   5.007   8.659  0.4724 -1.0021 -0.7845
  592MOL0     C78054  -1.050   4.911   8.603 -0.1037  0.7383 -0.0062
  592MOL0     C78055  -1.064   4.779   8.682  0.1476  0.4444 -0.1921
  592MOL0    Cl78056  -1.172   4.679   8.586  0.3198 -0.2183 -0.0833
  592MOL0     C78057  -0.284   5.343   8.388 -1.3020 -0.0120 -0.0281
  592MOL0     C78058  -0.180   5.346   8.301 -0.4079  1.2252  1.5017
  592MOL0     O78059  -0.043   5.401   8.046  0.2166  0.1572  0.4237
  592MOL0     C78060   0.194   5.506   7.934 -0.1013  0.2891  0.5003
  592MOL0     C78061   0.318   5.545   7.882 -0.4663 -0.0081  0.3404
  592MOL0     N78062   0.792   6.087   7.567 -0.0209  0.5578 -0.2340
  592MOL0     N78063   0.881   6.168   7.614  0.0011  0.3099  0.3917
  592MOL0     C78064   2.090   6.630   7.277 -0.1130  1.1304  0.3767
  592MOL0     C78065   2.196   6.724   7.249  0.5625  0.4866 -1.2928
  592MOL0     C78066   2.593   6.860   7.127 -0.7364 -0.2168  0.1502
  592MOL0     C78067   2.720   6.860   7.074 -0.1596 -0.4634  1.4466
  592MOL0     C78068   2.768   6.962   6.990  0.0708  0.0704 -0.2351
  592MOL0     C78069   2.690   7.077   6.978 -0.7771  0.1287  1.3039
  592MOL0     O78070   2.732   7.188   6.904  0.0846 -0.0501  0.1007
  592MOL0     C78071   2.767   7.171   6.766 -0.4595  0.7883 -0.5988
  592MOL0     C78072   2.645   7.170   6.671  0.2722 -0.5905 -0.2148
  592MOL0     C78073   2.619   7.311   6.617  0.1558  0.3552  0.6123
  592MOL0     C78074   2.506   7.313   6.513  0.4590 -0.1889  0.9005
  592MOL0     C78075   2.372   7.277   6.567 -0.2176 -0.5239  0.8839
  592MOL0     C78076   2.260   7.253   6.617 -0.5381 -0.2644 -0.1751
  592MOL0     C78077   2.562   7.074   7.027  0.0358  0.0197 -0.2007
  592MOL0     C78078   2.515   6.973   7.106  0.9991  0.1329  0.5251
  592MOL0     H78079   2.424   6.586   7.444  0.0751 -3.0305  0.0333
  592MOL0     H78080   2.252   6.422   7.490 -3.5915 -3.3976 -2.5031
  592MOL0     H78081   1.880   6.360   7.285  2.7256 -2.2517  2.6843
  592MOL0     H78082   1.859   6.535   7.312  4.6831  2.2195  0.3894
  592MOL0     H78083   1.781   6.475   7.547  0.9753  0.4814 -0.1453
  592MOL0     H78084   1.811   6.304   7.510 -0.2263 -1.3732 -1.6579
  592MOL0     H78085   1.638   6.291   7.345 -2.7232 -1.1206 -0.3188
  592MOL0     H78086   1.594   6.462   7.375 -0.7689  0.1144 -0.4624
  592MOL0     H78087   1.593   6.281   7.616  0.3165 -0.1544  0.0491
  592MOL0     H78088   1.510   6.439   7.568 -1.1320 -0.0734 -0.9162
  592MOL0     H78089   1.459   6.154   7.464  0.0001 -0.2031 -1.1506
  592MOL0     H78090   1.389   6.300   7.390  0.4416  1.1557  0.1458
  592MOL0     H78091   1.295   6.347   7.634 -2.3195 -2.0807  1.9419
  592MOL0     H78092   1.365   6.194   7.678 -1.6395  0.1216  1.5866
  592MOL0     H78093   1.125   6.210   7.481 -2.8301 -2.4033  0.4147
  592MOL0     H78094   1.206   6.062   7.537 -3.4297 -1.0931 -0.9876
  592MOL0     H78095   1.093   6.275   7.727  2.4287  0.5791  1.1329
  592MOL0     H78096   1.159   6.114   7.768 -2.0133 -1.0969 -0.2319
  592MOL0     H78097   1.016   5.880   7.698  0.2200  0.0785  1.7375
  592MOL0     H78098   0.836   5.747   7.530 -1.8870 -0.2919 -0.1528
  592MOL0     H78099   0.740   5.852   7.426  1.4271 -1.1741 -1.8304
  592MOL0     H78100   0.593   5.747   7.560  0.0361 -1.6577  0.9192
  592MOL0     H78101   0.597   5.893   7.654 -3.8992 -2.8130  0.9690
  592MOL0     H78102   0.707   5.617   7.721 -1.4212 -1.6340  0.0820
  592MOL0     H78103   0.760   5.752   7.816  0.0813 -1.2953  0.6234
  592MOL0     H78104   0.475   5.689   7.737 -1.1006  3.0763 -0.0321
  592MOL0     H78105   0.503   5.805   7.857 -2.7144 -0.9298  0.7850
  592MOL0     H78106   0.508   5.533   8.154  0.7043  2.8221 -1.4673
  592MOL0     H78107   0.269   5.462   8.254 -1.9950 -1.2241 -0.1765
  592MOL0     H78108   0.076   5.431   8.514  0.0448 -1.9742 -0.9392
  592MOL0     H78109  -0.123   5.431   8.673  1.6700  0.8874 -0.2629
  592MOL0     H78110  -0.425   5.185   8.701  2.9994  1.5001  1.0251
  592MOL0     H78111  -0.443   5.189   8.529  1.5743 -0.3502  1.2820
  592MOL0     H78112  -0.616   5.374   8.555 -0.0474 -0.5788 -0.9031
  592MOL0     H78113  -0.603   5.348   8.729  2.1025 -1.1758 -0.2321
  592MOL0     H78114  -0.681   5.099   8.670 -3.2771 -0.8853  0.2104
  592MOL0     H78115  -0.683   5.154   8.504  2.1796  3.0202 -0.7986
  592MOL0     H78116  -0.859   5.245   8.748 -0.7730 -2.5290  0.1876
  592MOL0     H78117  -0.842   5.338   8.598  0.8239 -0.9968 -0.2482
  592MOL0     H78118  -0.936   5.129   8.494  0.3114 -2.2842  0.9143
  592MOL0     H78119  -1.044   5.198   8.617  0.0845  0.5368  3.0654
  592MOL0     H78120  -0.950   5.015   8.768  0.3455 -0.9465 -0.7990
  592MOL0     H78121  -0.843   4.964   8.634  1.6894  0.1581  1.6536
  592MOL0     H78122  -1.146   4.958   8.580 -1.6357 -1.2155  1.9815
  592MOL0     H78123  -1.010   4.872   8.509  1.7658  0.1000  0.9939
  592MOL0     H78124  -1.111   4.790   8.780  0.1171  2.6567 -0.3950
  592MOL0     H78125  -0.963   4.739   8.695 -0.1676 -0.2140  0.2950
  592MOL0     H78126  -0.383   5.329   8.345 -2.1045  4.0720  0.1138
  592MOL0     H78127  -0.204   5.317   8.199 -1.0509  2.2640  1.3501
  592MOL0     H78128   0.101   5.509   7.880 -0.9746  0.1028  1.9433
  592MOL0     H78129   0.310   5.571   7.777 -1.5982 -0.5139  0.2862
  592MOL0     H78130   1.996   6.638   7.222  0.3154  0.3195 -0.4973
  592MOL0     H78131   2.178   6.804   7.178  1.7278 -0.7951 -3.1169
  592MOL0     H78132   2.781   6.771   7.088  0.7020 -0.3674 -1.2349
  592MOL0     H78133   2.865   6.958   6.941 -0.3926  1.2505 -1.2807
  592MOL0     H78134   2.822   7.077   6.769  2.2433  2.2797  0.7829
  592MOL0     H78135   2.843   7.242   6.732  1.5368 -0.2932  1.3631
  592MOL0     H78136   2.647   7.086   6.601 -2.8522 -1.0208  0.0764
  592MOL0     H78137   2.555   7.151   6.731 -1.9581  1.6508 -2.6002
  592MOL0     H78138   2.708   7.364   6.582  0.7662 -2.7574 -3.3737
  592MOL0     H78139   2.582   7.374   6.699  2.2773  1.9677  0.4214
  592MOL0     H78140   2.497   7.417   6.479 -4.3368 -0.4998  0.5806
  592MOL0     H78141   2.534   7.248   6.430 -3.3338 -0.6121 -0.2236
  592MOL0     H78142   2.173   7.210   6.662 -0.2447 -0.6279  0.0550
  592MOL0     H78143   2.502   7.162   7.006 -1.8038 -1.7678 -3.1861
  592MOL0     H78144   2.417   6.998   7.146  0.5474 -0.7326  0.0008
  593MOL0     O78145  10.492   4.263   0.783  0.1745 -0.6040  0.4649
  593MOL0     C78146  10.485   4.353   0.704 -0.0381 -0.6881  1.1594
  593MOL0     O78147  10.409   4.337   0.592 -0.1716 -0.0635 -0.3795
  593MOL0     C78148  10.303   4.248   0.591  0.6778 -0.3455  0.4170
  593MOL0     C78149  10.182   4.279   0.659 -1.0160  1.6144 -0.9123
  593MOL0     C78150  10.064   4.194   0.649  0.2137  0.0382 -0.0454
  593MOL0     C78151  10.066   4.077   0.568 -0.5670 -0.3048  0.3353
  593MOL0     O78152   9.956   3.988   0.558  0.0024 -0.3518  0.1417
  593MOL0     C78153   9.823   4.022   0.622 -1.0528 -0.1487 -0.5411
  593MOL0     C78154   9.724   3.914   0.583  0.6612 -0.1908  0.3343
  593MOL0     C78155   9.671   3.931   0.443 -0.4605 -0.7696  0.3737
  593MOL0     C78156   9.543   3.835   0.420 -0.1633  0.6503 -0.3682
  593MOL0     C78157   9.412   3.910   0.455  0.6881 -0.4042  0.8197
  593MOL0     C78158   9.372   4.023   0.358  0.2479  0.4434 -0.3244
  593MOL0     C78159   9.237   4.073   0.398  0.5156 -0.7532 -0.0497
  593MOL0     C78160   9.127   3.987   0.328  0.4016  0.0790 -0.3144
  593MOL0     N78161   9.003   3.997   0.408  0.0777 -0.1152  1.1090
  593MOL0     C78162   8.907   4.095   0.379 -0.6770 -0.7009  0.2917
  593MOL0     C78163   8.814   4.073   0.467  0.6112  0.3640 -0.3189
  593MOL0     C78164   8.671   4.132   0.457 -0.2965  0.4348  0.2371
  593MOL0     C78165   8.553   4.035   0.437  0.4889  0.8661  0.3612
  593MOL0     C78166   8.539   4.005   0.279  0.9832 -0.4317 -0.8392
  593MOL0     C78167   8.484   4.119   0.192  0.3305  0.6809  0.3558
  593MOL0     O78168   8.491   4.077   0.056  0.2713  0.3592 -0.0706
  593MOL0     C78169   8.380   4.038  -0.014 -0.4709  0.0646 -0.8058
  593MOL0     C78170   8.368   4.051  -0.156  0.0419 -0.1903 -0.8719
  593MOL0     C78171   8.252   4.012  -0.221  0.0373  0.0480 -1.2564
  593MOL0     C78172   8.145   3.956  -0.145  0.1447 -0.1392  0.5428
  593MOL0     C78173   8.017   3.917  -0.213 -0.2707  0.3911 -0.1210
  593MOL0     O78174   7.949   3.799  -0.180 -0.3117  0.4115  0.1785
  593MOL0     C78175   7.832   3.790  -0.253 -0.4310 -0.3604 -0.1925
  593MOL0     C78176   7.716   3.860  -0.212 -0.7093  0.6142  0.8822
  593MOL0     C78177   7.594   3.845  -0.277 -0.0943 -0.1822  0.4350
  593MOL0     C78178   7.597   3.763  -0.390  0.8876  0.3936 -0.3960
  593MOL0     O78179   7.477   3.744  -0.451 -0.6692  0.1110 -0.1256
  593MOL0     C78180   7.461   3.640  -0.556  0.4577  0.3803  0.3016
  593MOL0     C78181   7.311   3.643  -0.595  0.3633  0.6504 -0.3123
  593MOL0     C78182   7.237   3.773  -0.632 -0.7282 -0.7511  0.3842
  593MOL0     C78183   7.090   3.738  -0.652  0.1230 -0.3527  0.1262
  593MOL0     C78184   7.015   3.874  -0.677 -0.4931 -0.7340  1.0438
  593MOL0     C78185   6.872   3.846  -0.708  0.7970 -0.3635 -0.4737
  593MOL0     C78186   6.850   3.759  -0.839 -0.4808  0.2642  0.3199
  593MOL0     C78187   6.702   3.763  -0.878  0.3836  0.1043  0.3538
  593MOL0    Cl78188   6.680   3.703  -1.054  0.0012  0.0946 -0.3955
  593MOL0     C78189   7.713   3.704  -0.444  0.1106 -0.0300  1.1845
  593MOL0     C78190   7.831   3.711  -0.370 -0.0182 -0.5075 -0.0987
  593MOL0     O78191   7.976   4.003  -0.289 -0.1741 -0.3084  0.1966
  593MOL0     C78192   8.156   3.936  -0.011  0.1470  0.0577  0.3591
  593MOL0     C78193   8.267   3.982   0.056 -0.1836  0.4392 -0.2712
  593MOL0     N78194   8.852   3.977   0.555  0.6377 -0.1507 -0.6131
  593MOL0     N78195   8.962   3.930   0.523  0.1616  0.3190 -0.0058
  593MOL0     C78196  10.187   4.051   0.492  0.1988 -0.6957  0.4521
  593MOL0     C78197  10.294   4.141   0.493  0.6524 -0.9673 -0.3973
  593MOL0     C78198  10.567   4.474   0.717  0.5865  0.1507  0.6019
  593MOL0     C78199  10.619   4.519   0.844  0.3019  0.7415 -0.5425
  593MOL0     C78200  10.681   4.645   0.861  0.4939  0.4658  0.5139
  593MOL0     C78201  10.721   4.719   0.753  0.2132  0.2505  0.5487
  593MOL0     O78202  10.801   4.825   0.757 -0.4196 -0.1904  0.1090
  593MOL0     C78203  10.849   4.885   0.878  0.5420 -0.2586  0.4169
  593MOL0     C78204  10.972   4.814   0.925 -0.3188 -0.1170  0.3478
  593MOL0     C78205  11.019   4.872   1.060 -0.0198  0.2103 -0.0415
  593MOL0     C78206  10.923   4.838   1.172 -0.4044  0.3634 -0.6197
  593MOL0     C78207  10.990   4.851   1.310 -0.2049  0.3017  0.3737
  593MOL0     C78208  11.056   4.871   1.411 -0.6386 -0.8077 -0.1730
  593MOL0     C78209  10.677   4.670   0.627  1.2360  0.6200  0.9883
  593MOL0     C78210  10.608   4.550   0.606  0.1042 -0.4928  0.3481
  593MOL0     H78211  10.186   4.371   0.716 -1.5559  0.8436  0.4059
  593MOL0     H78212   9.974   4.225   0.700  2.3942  1.0826  3.4777
  593MOL0     H78213   9.783   4.120   0.592 -0.2067  0.3201 -0.1860
  593MOL0     H78214   9.830   4.018   0.731 -1.8171  1.3984 -0.3966
  593MOL0     H78215   9.641   3.899   0.653 -0.5107  3.7445  0.0248
  593MOL0     H78216   9.783   3.822   0.579  2.6445  1.0667 -0.8262
  593MOL0     H78217   9.752   3.904   0.374 -2.3614 -1.4085 -1.7225
  593MOL0     H78218   9.648   4.036   0.420  2.7248 -0.2410 -0.9988
  593MOL0     H78219   9.542   3.803   0.315 -2.1848 -5.2429  1.0194
  593MOL0     H78220   9.561   3.745   0.480 -0.5122  1.1290  0.4828
  593MOL0     H78221   9.423   3.952   0.556  4.9746  0.3500  0.2277
  593MOL0     H78222   9.339   3.828   0.449  0.5130 -0.1981  0.0180
  593MOL0     H78223   9.377   3.985   0.255  2.6995  0.8598 -0.4177
  593MOL0     H78224   9.444   4.105   0.365  0.6251  0.1935 -1.1861
  593MOL0     H78225   9.231   4.081   0.507  0.1846  0.9507 -0.1553
  593MOL0     H78226   9.231   4.174   0.356  2.3337 -0.4119  0.4433
  593MOL0     H78227   9.165   3.885   0.330  0.2246  0.0235  0.3805
  593MOL0     H78228   9.108   4.005   0.222 -0.4866 -1.0480 -0.3664
  593MOL0     H78229   8.913   4.167   0.298 -0.1978  1.3787  2.0768
  593MOL0     H78230   8.679   4.213   0.383 -2.4072  1.6865  1.2975
  593MOL0     H78231   8.658   4.177   0.556  1.5705  2.4107 -0.3084
  593MOL0     H78232   8.462   4.086   0.470  0.4696  1.3422 -0.4236
  593MOL0     H78233   8.569   3.940   0.490 -0.9682  0.3826 -0.0039
  593MOL0     H78234   8.627   3.961   0.231 -0.4050 -3.0867 -1.1692
  593MOL0     H78235   8.474   3.919   0.259  1.3788 -1.2881  1.3064
  593MOL0     H78236   8.545   4.210   0.193  0.1534  0.8361 -1.0031
  593MOL0     H78237   8.385   4.152   0.224  0.8432  0.2801  2.5256
  593MOL0     H78238   8.442   4.110  -0.209  1.1356  1.1828  1.9648
  593MOL0     H78239   8.253   4.027  -0.328  3.1131 -2.1270 -1.6708
  593MOL0     H78240   7.733   3.922  -0.125  2.6188  2.0065 -0.5750
  593MOL0     H78241   7.503   3.892  -0.240 -1.1496 -3.4653  2.4631
  593MOL0     H78242   7.486   3.537  -0.531  1.3170  0.2452 -1.0084
  593MOL0     H78243   7.526   3.652  -0.643 -1.5889 -2.6414 -1.8536
  593MOL0     H78244   7.258   3.601  -0.509  1.4519 -0.3259 -0.0991
  593MOL0     H78245   7.298   3.587  -0.688 -1.0622  2.5875 -1.3609
  593MOL0     H78246   7.281   3.837  -0.708  0.9556  0.7119  2.4719
  593MOL0     H78247   7.240   3.832  -0.540 -2.1433 -0.6658  0.3989
  593MOL0     H78248   7.073   3.678  -0.742 -1.0162 -0.9593  0.7205
  593MOL0     H78249   7.049   3.690  -0.562 -0.0604  0.8993  0.7363
  593MOL0     H78250   7.058   3.930  -0.760 -0.8189  2.5698  2.9527
  593MOL0     H78251   7.019   3.935  -0.587 -0.7819 -0.9133  1.1810
  593MOL0     H78252   6.814   3.936  -0.732 -0.5199 -0.8578  0.7310
  593MOL0     H78253   6.822   3.794  -0.626 -1.5693  2.0208 -0.2398
  593MOL0     H78254   6.913   3.802  -0.918 -0.9173 -0.6462 -0.5427
  593MOL0     H78255   6.872   3.653  -0.830  0.0809  0.3860  0.3777
  593MOL0     H78256   6.656   3.860  -0.857 -2.2214 -0.8493 -0.5318
  593MOL0     H78257   6.639   3.703  -0.813 -0.9562  1.3785  0.2907
  593MOL0     H78258   7.702   3.646  -0.535 -1.8732 -0.3882  1.5975
  593MOL0     H78259   7.911   3.645  -0.400 -0.6741 -2.3408  1.9013
  593MOL0     H78260   8.078   3.893   0.052 -1.9864  2.9714 -0.0891
  593MOL0     H78261   8.254   3.967   0.162 -1.4239  0.8605 -0.3541
  593MOL0     H78262  10.174   3.964   0.429 -0.9878 -0.0586 -0.2158
  593MOL0     H78263  10.382   4.124   0.432  2.1892 -1.4227  1.7937
  593MOL0     H78264  10.607   4.455   0.931 -1.8450  0.6699 -0.8393
  593MOL0     H78265  10.706   4.673   0.962 -0.2753  0.8173  0.6179
  593MOL0     H78266  10.777   4.891   0.960  0.6732  0.9771  0.4577
  593MOL0     H78267  10.863   4.988   0.846  1.3793  0.3713  2.6730
  593MOL0     H78268  10.956   4.706   0.931  0.7760 -0.6970 -3.8373
  593MOL0     H78269  11.049   4.833   0.850 -0.7543  0.1256 -0.0418
  593MOL0     H78270  11.022   4.981   1.059  0.3002  0.2423  1.7099
  593MOL0     H78271  11.127   4.855   1.071  0.3517  3.1278  1.8854
  593MOL0     H78272  10.841   4.909   1.163  0.7111  1.6226 -1.2536
  593MOL0     H78273  10.888   4.736   1.157  0.7464 -0.6103  2.4923
  593MOL0     H78274  11.118   4.880   1.498  0.8125 -0.2825 -1.2316
  593MOL0     H78275  10.708   4.730   0.542  0.1913  2.8428  2.0840
  593MOL0     H78276  10.589   4.525   0.503 -3.5141  4.1869 -0.4456
  594MOL0     O78277   2.162  10.299   7.343 -0.1910  0.2361 -0.2720
  594MOL0     C78278   2.194  10.192   7.402 -0.5738 -0.2648 -0.8269
  594MOL0     O78279   2.113  10.105   7.470 -0.1118  0.5135  0.1828
  594MOL0     C78280   1.980  10.116   7.485 -0.6753 -1.0517  0.1398
  594MOL0     C78281   1.928  10.058   7.604  0.4934 -0.0097 -0.6608
  594MOL0     C78282   1.788  10.057   7.622 -0.5407  0.4138 -0.1363
  594MOL0     C78283   1.706  10.116   7.528  0.6448  0.3625 -0.2920
  594MOL0     O78284   1.567  10.123   7.536  0.5369  0.4454  0.4574
  594MOL0     C78285   1.499   9.997   7.588 -0.4699 -0.1214  0.1518
  594MOL0     C78286   1.356  10.047   7.615 -0.1775  0.4554 -0.1037
  594MOL0     C78287   1.279   9.936   7.685 -0.1559 -0.8033 -0.1292
  594MOL0     C78288   1.125   9.948   7.692  0.1223  0.1424  0.5440
  594MOL0     C78289   1.046   9.856   7.790  0.2856  0.0659  0.2393
  594MOL0     C78290   0.892   9.854   7.764 -0.8285  0.5727  0.2428
  594MOL0     C78291   0.811   9.768   7.857  0.3089  0.3261  0.0710
  594MOL0     C78292   0.655   9.798   7.848 -0.7274  0.6215 -0.1485
  594MOL0     N78293   0.582   9.695   7.930 -0.2787 -0.2407 -1.2040
  594MOL0     C78294   0.568   9.706   8.065 -0.5250  0.3359 -0.0995
  594MOL0     C78295   0.487   9.600   8.098 -0.5198  0.6348 -0.0079
  594MOL0     C78296   0.454   9.550   8.232  0.1015  0.1239 -0.4042
  594MOL0     C78297   0.364   9.649   8.311  0.2689 -0.3615  0.4570
  594MOL0     C78298   0.226   9.660   8.245 -0.2809 -0.4501 -0.0667
  594MOL0     C78299   0.126   9.734   8.343 -0.2291  0.5370  0.1665
  594MOL0     O78300   0.107   9.663   8.469  0.3973 -0.1127  1.1488
  594MOL0     C78301   0.030   9.552   8.469  0.2969  0.9271  0.0821
  594MOL0     C78302   0.081   9.448   8.545  0.4617  1.5000  0.5816
  594MOL0     C78303   0.018   9.320   8.527 -0.0735  0.1414  0.2176
  594MOL0     C78304  -0.091   9.296   8.436 -0.0698 -0.3346 -0.9853
  594MOL0     C78305  -0.147   9.165   8.405  0.5073  1.1495  1.0154
  594MOL0     O78306  -0.273   9.156   8.360  0.5024  0.1834  0.0341
  594MOL0     C78307  -0.315   9.047   8.291  0.1005 -0.4680  0.3741
  594MOL0     C78308  -0.443   9.004   8.314  0.7384 -0.3020  0.1635
  594MOL0     C78309  -0.495   8.889   8.250  0.3635  0.1304  0.1116
  594MOL0     C78310  -0.414   8.819   8.158 -0.6386  0.3971 -0.7758
  594MOL0     O78311  -0.454   8.709   8.095 -0.3934  0.3542  1.2189
  594MOL0     C78312  -0.592   8.687   8.070  0.1878  0.3139  0.3390
  594MOL0     C78313  -0.625   8.560   7.996  0.9650 -0.1248  0.5329
  594MOL0     C78314  -0.778   8.535   7.983 -0.2015  0.6280  0.0131
  594MOL0     C78315  -0.791   8.424   7.874  0.3184  0.0942 -0.4206
  594MOL0     C78316  -0.938   8.426   7.819  0.0419  0.1026  0.1660
  594MOL0     C78317  -1.039   8.361   7.930 -0.6317 -1.1041  0.3589
  594MOL0     C78318  -1.180   8.406   7.899 -0.2014 -0.0408 -0.2116
  594MOL0     C78319  -1.275   8.391   8.017  0.3466  0.3913  0.0418
  594MOL0    Cl78320  -1.307   8.216   8.042 -0.0931  0.0383  0.0148
  594MOL0     C78321  -0.285   8.862   8.136 -0.3389  0.2791  0.1786
  594MOL0     C78322  -0.240   8.981   8.185  0.1609 -0.2203 -1.0142
  594MOL0     O78323  -0.068   9.071   8.423  0.0434  0.6331  0.2693
  594MOL0     C78324  -0.131   9.411   8.372 -0.5233  0.5276 -0.2359
  594MOL0     C78325  -0.082   9.536   8.390 -0.1210 -0.0337 -0.6087
  594MOL0     N78326   0.466   9.528   7.989  0.4334 -0.0777  0.4760
  594MOL0     N78327   0.523   9.582   7.889 -0.4724  0.6591 -0.3191
  594MOL0     C78328   1.755  10.182   7.419  0.6445  1.0448  0.2999
  594MOL0     C78329   1.895  10.179   7.397  0.6163  0.2812  0.1908
  594MOL0     C78330   2.333  10.150   7.381  0.6179 -0.3445  0.5366
  594MOL0     C78331   2.442  10.239   7.360  0.0285 -0.2545 -0.4026
  594MOL0     C78332   2.569  10.180   7.343 -0.0787  0.1647  0.5858
  594MOL0     C78333   2.590  10.046   7.327  0.2072 -0.2711  0.3893
  594MOL0     O78334   2.715   9.999   7.291  0.4241 -0.6201 -0.1351
  594MOL0     C78335   2.727   9.878   7.212 -0.8487 -0.3591 -0.0669
  594MOL0     C78336   2.869   9.870   7.164 -0.5703 -0.8060  0.0405
  594MOL0     C78337   2.921   9.992   7.084 -0.0282  0.3433 -0.1743
  594MOL0     C78338   3.039   9.965   6.992  0.6397 -0.1981  0.2947
  594MOL0     C78339   3.076  10.078   6.907 -0.8151 -0.7346 -0.3419
  594MOL0     C78340   3.133  10.176   6.863 -0.2590 -0.1968  0.9467
  594MOL0     C78341   2.483   9.958   7.339 -0.1684 -1.0007 -0.7867
  594MOL0     C78342   2.353  10.011   7.369 -0.3741 -0.1564 -0.0323
  594MOL0     H78343   1.998  10.000   7.664  1.1216 -0.9214 -2.2205
  594MOL0     H78344   1.749  10.000   7.706  0.8975  1.0763  1.0274
  594MOL0     H78345   1.531   9.960   7.686 -0.7468 -0.5473  0.0866
  594MOL0     H78346   1.498   9.923   7.508 -1.8746 -1.8037  1.6347
  594MOL0     H78347   1.309  10.070   7.519  2.3529 -1.0197 -1.8044
  594MOL0     H78348   1.371  10.141   7.670 -0.6208 -0.3291  1.4153
  594MOL0     H78349   1.316   9.939   7.788  0.0191 -1.2032 -0.1771
  594MOL0     H78350   1.308   9.840   7.642 -1.2616 -0.7439 -1.0326
  594MOL0     H78351   1.097  10.048   7.727  3.4844  1.2731  0.3830
  594MOL0     H78352   1.077   9.930   7.595 -0.1433  1.6510  0.3743
  594MOL0     H78353   1.047   9.902   7.890  0.5377  0.3957  0.0848
  594MOL0     H78354   1.077   9.751   7.792  1.3548  0.3813  1.0715
  594MOL0     H78355   0.880   9.820   7.661 -1.3090 -1.4612  0.9149
  594MOL0     H78356   0.850   9.955   7.759 -1.1937  0.3811 -0.7836
  594MOL0     H78357   0.825   9.662   7.838 -0.6121  0.0550  0.7893
  594MOL0     H78358   0.838   9.781   7.962  0.9525 -6.6133  1.2470
  594MOL0     H78359   0.619   9.781   7.746  0.0475 -0.2363 -0.2935
  594MOL0     H78360   0.638   9.899   7.886  0.6203  0.2629  1.5722
  594MOL0     H78361   0.601   9.786   8.130 -2.5954  1.2544 -0.1127
  594MOL0     H78362   0.549   9.551   8.288  1.8730  0.9174 -3.1900
  594MOL0     H78363   0.408   9.451   8.233  0.4099 -0.0340  1.1013
  594MOL0     H78364   0.415   9.745   8.327  0.7765 -0.9457  2.7364
  594MOL0     H78365   0.360   9.606   8.411 -1.7966 -1.8837 -0.1997
  594MOL0     H78366   0.245   9.722   8.157  3.4388 -0.1005  0.8465
  594MOL0     H78367   0.181   9.563   8.221  0.3026 -1.3445  2.1586
  594MOL0     H78368   0.040   9.771   8.286 -0.1325 -3.5894 -3.1299
  594MOL0     H78369   0.175   9.825   8.378  0.8424 -0.2249  0.7098
  594MOL0     H78370   0.169   9.454   8.609 -0.8785 -0.3137  2.7297
  594MOL0     H78371   0.059   9.236   8.583  0.0353  0.6005  0.8335
  594MOL0     H78372  -0.503   9.065   8.381  1.3123 -1.1041  1.4431
  594MOL0     H78373  -0.599   8.862   8.264  0.2517  0.7879  0.5690
  594MOL0     H78374  -0.637   8.768   8.012 -1.0896  0.8752  2.0105
  594MOL0     H78375  -0.639   8.685   8.169 -0.6173  1.4928  0.0074
  594MOL0     H78376  -0.584   8.481   8.060  1.5303 -0.1447  0.1510
  594MOL0     H78377  -0.580   8.558   7.897 -0.1928 -1.7374 -0.0095
  594MOL0     H78378  -0.835   8.620   7.947 -0.7306 -0.3585 -1.5736
  594MOL0     H78379  -0.822   8.515   8.082 -0.0968  2.6965  0.5187
  594MOL0     H78380  -0.731   8.440   7.784 -0.2788  1.1230 -0.6607
  594MOL0     H78381  -0.772   8.321   7.905 -1.3041 -0.5130 -1.3142
  594MOL0     H78382  -0.941   8.366   7.728  2.4346 -0.8070  0.6163
  594MOL0     H78383  -0.972   8.528   7.797 -2.7943 -0.7800  0.0905
  594MOL0     H78384  -1.013   8.405   8.027  0.0882 -0.1122 -0.2622
  594MOL0     H78385  -1.031   8.252   7.940  1.2184 -0.9263  1.2357
  594MOL0     H78386  -1.178   8.514   7.887 -2.7640  0.1605  0.4572
  594MOL0     H78387  -1.221   8.352   7.812 -0.6551 -1.8964  1.0757
  594MOL0     H78388  -1.368   8.445   7.997 -0.3922 -0.5536  0.8390
  594MOL0     H78389  -1.227   8.437   8.104  1.7145  2.0289 -1.4890
  594MOL0     H78390  -0.215   8.797   8.085 -0.9545 -1.5641  1.5733
  594MOL0     H78391  -0.138   9.003   8.157  0.5307 -1.5708 -0.8025
  594MOL0     H78392  -0.215   9.394   8.306 -1.1199 -1.0873  0.8762
  594MOL0     H78393  -0.119   9.627   8.343  3.9321  2.4031  0.3209
  594MOL0     H78394   1.693  10.228   7.343  1.0261  0.1449 -0.5746
  594MOL0     H78395   1.919  10.236   7.308 -2.3734 -1.4925 -1.9584
  594MOL0     H78396   2.413  10.342   7.381 -3.3416 -1.5260  2.1616
  594MOL0     H78397   2.656  10.241   7.323 -0.5529  0.8270  0.5132
  594MOL0     H78398   2.662   9.870   7.124 -1.9030 -0.6711  0.7272
  594MOL0     H78399   2.703   9.784   7.262  2.2699 -1.9353 -1.2241
  594MOL0     H78400   2.930   9.855   7.253 -0.2655  2.7507  0.5761
  594MOL0     H78401   2.870   9.782   7.099  0.2749 -0.0910 -0.9564
  594MOL0     H78402   2.952  10.070   7.154  3.3973  0.4316 -1.5755
  594MOL0     H78403   2.837  10.031   7.026 -0.4846 -2.0974 -1.2718
  594MOL0     H78404   3.124   9.914   7.040  0.6351 -0.9409 -0.4625
  594MOL0     H78405   2.993   9.888   6.929 -1.7316  1.4084 -0.0527
  594MOL0     H78406   3.185  10.261   6.825  0.3604 -0.5776  0.9375
  594MOL0     H78407   2.497   9.852   7.319  1.7971 -0.4443 -2.6963
  594MOL0     H78408   2.278   9.934   7.378  1.3937 -1.8953  0.6263
  595MOL0     O78409   2.039   4.782   1.357 -1.0156  0.4669 -0.7470
  595MOL0     C78410   2.062   4.881   1.290 -0.2592 -0.3948 -0.4568
  595MOL0     O78411   1.990   4.927   1.178  0.3792 -0.6048  0.0261
  595MOL0     C78412   1.879   4.856   1.151 -0.4996 -1.0933  0.2663
  595MOL0     C78413   1.763   4.883   1.215  0.4011  0.4095  0.0075
  595MOL0     C78414   1.641   4.816   1.184  0.5134 -0.1224 -0.6407
  595MOL0     C78415   1.639   4.748   1.063  0.8163 -0.8521  0.2361
  595MOL0     O78416   1.514   4.702   1.016  0.1555  0.0310 -0.7032
  595MOL0     C78417   1.407   4.798   1.015  0.3445  0.1054  0.4146
  595MOL0     C78418   1.337   4.822   0.883  0.8729  0.3909  0.1017
  595MOL0     C78419   1.210   4.740   0.870  0.6456  0.2645 -0.5350
  595MOL0     C78420   1.099   4.796   0.772  0.2028 -0.7689  0.1231
  595MOL0     C78421   0.956   4.728   0.785 -0.4407 -0.8105 -0.8079
  595MOL0     C78422   0.933   4.590   0.723  0.1615  0.0529  0.5697
  595MOL0     C78423   0.791   4.534   0.735  0.3544  0.5358  0.1953
  595MOL0     C78424   0.771   4.408   0.657  0.1995 -0.0793  1.6454
  595MOL0     N78425   0.626   4.413   0.627 -0.1406  0.0350  0.1560
  595MOL0     C78426   0.531   4.388   0.716 -0.4542  0.5720 -0.2867
  595MOL0     C78427   0.413   4.398   0.653 -1.4228 -0.6330  0.1576
  595MOL0     C78428   0.279   4.408   0.708 -1.0656  0.1135  0.3583
  595MOL0     C78429   0.260   4.290   0.804 -0.8323  0.2987  0.3335
  595MOL0     C78430   0.258   4.146   0.736 -0.5140 -0.1559  0.2044
  595MOL0     C78431   0.283   4.024   0.815 -0.3565  0.6743 -0.2352
  595MOL0     O78432   0.196   4.017   0.929  0.0009 -0.0779 -0.1388
  595MOL0     C78433   0.066   3.992   0.917  0.2373 -0.8154  0.1492
  595MOL0     C78434   0.002   3.936   0.807  0.0654 -0.6964 -0.3032
  595MOL0     C78435  -0.129   3.898   0.793 -0.2721  1.2634  0.4659
  595MOL0     C78436  -0.216   3.937   0.894  0.3662  0.0566 -0.4138
  595MOL0     C78437  -0.360   3.901   0.904  0.1089 -0.5087  0.6501
  595MOL0     O78438  -0.427   3.905   0.788  0.5125 -1.1597  0.7289
  595MOL0     C78439  -0.557   3.865   0.782 -0.1151  0.1191 -0.0880
  595MOL0     C78440  -0.665   3.953   0.808 -0.1429  0.5065  0.4091
  595MOL0     C78441  -0.796   3.916   0.810 -0.0643  0.0330 -0.4390
  595MOL0     C78442  -0.826   3.779   0.792  0.4628 -0.4270  0.1384
  595MOL0     O78443  -0.956   3.726   0.800 -0.3457 -1.0412 -0.0219
  595MOL0     C78444  -1.067   3.811   0.821 -0.2593 -0.0924  0.2154
  595MOL0     C78445  -1.188   3.712   0.844 -0.5744 -0.1120 -0.4356
  595MOL0     C78446  -1.247   3.654   0.710  1.3445  0.8179  0.4170
  595MOL0     C78447  -1.372   3.563   0.742  0.1876  0.0407  0.1688
  595MOL0     C78448  -1.428   3.480   0.623 -0.1119  0.5153  0.5571
  595MOL0     C78449  -1.548   3.388   0.657  0.5247 -0.5679 -0.3710
  595MOL0     C78450  -1.663   3.479   0.627  0.6551 -0.6493  0.4319
  595MOL0     C78451  -1.792   3.407   0.661  0.6986  0.0628 -0.3770
  595MOL0    Cl78452  -1.927   3.517   0.617 -0.5232  0.5715 -0.4359
  595MOL0     C78453  -0.719   3.694   0.760  0.8288  0.0215 -0.6328
  595MOL0     C78454  -0.587   3.733   0.763  0.4025  0.4345  0.6074
  595MOL0     O78455  -0.407   3.866   1.011 -0.4189  0.3164  1.1267
  595MOL0     C78456  -0.155   3.999   1.009 -0.0698 -0.2423  0.3180
  595MOL0     C78457  -0.019   4.024   1.015  0.1895  0.2928 -0.0989
  595MOL0     N78458   0.450   4.412   0.520 -0.1326 -0.3542  0.0499
  595MOL0     N78459   0.578   4.417   0.504 -0.7657 -0.3368 -0.1855
  595MOL0     C78460   1.754   4.723   0.992  0.2894 -0.0889  0.6491
  595MOL0     C78461   1.873   4.783   1.037 -0.2581 -1.0004 -0.3281
  595MOL0     C78462   2.184   4.955   1.324 -0.1548 -0.2791  0.9398
  595MOL0     C78463   2.239   4.967   1.449  0.1801  0.3325 -0.3395
  595MOL0     C78464   2.371   5.021   1.460 -0.5264 -0.0491 -0.6364
  595MOL0     C78465   2.432   5.096   1.354 -0.4398 -0.1051 -0.2254
  595MOL0     O78466   2.557   5.151   1.361 -0.5770 -0.1586 -0.3833
  595MOL0     C78467   2.633   5.139   1.479  1.0937 -0.4388 -0.3067
  595MOL0     C78468   2.751   5.244   1.470 -0.5229  0.3747 -0.2709
  595MOL0     C78469   2.867   5.209   1.375  0.0458  0.2766 -0.0750
  595MOL0     C78470   2.990   5.307   1.391 -0.3879  0.9035 -1.0622
  595MOL0     C78471   2.960   5.439   1.339 -0.2514  0.2401  0.2581
  595MOL0     C78472   2.940   5.545   1.290 -0.0133 -0.0401 -0.4273
  595MOL0     C78473   2.375   5.083   1.229  0.2940  0.6750  0.3925
  595MOL0     C78474   2.256   5.008   1.210  0.8279 -0.0947  0.4582
  595MOL0     H78475   1.777   4.954   1.296  2.3111 -0.5901  0.6101
  595MOL0     H78476   1.558   4.829   1.252  2.2663 -0.1215  1.6347
  595MOL0     H78477   1.439   4.894   1.056  3.1881 -1.3729  2.0597
  595MOL0     H78478   1.327   4.763   1.082 -1.6499 -0.5687 -2.1671
  595MOL0     H78479   1.402   4.801   0.798 -0.5868  2.7158 -1.7016
  595MOL0     H78480   1.306   4.926   0.874  0.0109  0.0382 -1.4172
  595MOL0     H78481   1.165   4.752   0.968  1.2275 -1.0785 -0.0833
  595MOL0     H78482   1.224   4.634   0.849 -2.8430 -0.4295  0.0686
  595MOL0     H78483   1.077   4.898   0.803 -1.6352 -1.2492  0.5462
  595MOL0     H78484   1.134   4.786   0.669 -1.1417  0.3108 -0.4685
  595MOL0     H78485   0.877   4.794   0.748 -0.8646  0.0180  1.3717
  595MOL0     H78486   0.931   4.714   0.891 -0.8982 -0.3046 -0.8461
  595MOL0     H78487   0.998   4.514   0.769 -2.7801 -0.2425  4.7105
  595MOL0     H78488   0.964   4.595   0.618 -1.0884 -2.2810  0.0296
  595MOL0     H78489   0.756   4.522   0.839  1.6299  1.0238  0.6976
  595MOL0     H78490   0.729   4.612   0.692 -0.7603  1.9840  4.0003
  595MOL0     H78491   0.808   4.321   0.711  1.6842  0.5039  1.6191
  595MOL0     H78492   0.820   4.412   0.559  0.9852  1.2207  2.0757
  595MOL0     H78493   0.563   4.385   0.819  1.1233 -1.4821 -0.7721
  595MOL0     H78494   0.214   4.426   0.623  1.7846  0.3813 -1.9212
  595MOL0     H78495   0.288   4.500   0.767  1.2918 -0.1289  0.4938
  595MOL0     H78496   0.164   4.299   0.856 -0.6806 -0.2983  0.7140
  595MOL0     H78497   0.341   4.284   0.877 -0.6483  1.1394  0.2173
  595MOL0     H78498   0.164   4.120   0.686 -1.2848  2.0137  0.4123
  595MOL0     H78499   0.334   4.141   0.657  0.3636 -1.0701  1.0850
  595MOL0     H78500   0.389   4.024   0.842  0.5294 -5.4282 -2.2540
  595MOL0     H78501   0.284   3.934   0.753 -0.0760  2.0080 -2.2901
  595MOL0     H78502   0.074   3.916   0.728  0.5624 -2.4072  0.5328
  595MOL0     H78503  -0.176   3.841   0.713  2.8950  1.3163 -1.5703
  595MOL0     H78504  -0.663   4.057   0.842 -3.3297  0.3294  1.5318
  595MOL0     H78505  -0.867   3.991   0.843  0.9026 -0.2600  2.6325
  595MOL0     H78506  -1.071   3.888   0.743 -1.7165  0.7061  1.0331
  595MOL0     H78507  -1.050   3.865   0.914  0.4038 -0.2520  0.1858
  595MOL0     H78508  -1.263   3.772   0.897  0.6040  1.4676 -0.4968
  595MOL0     H78509  -1.166   3.631   0.913  0.1522  0.2182 -0.2734
  595MOL0     H78510  -1.173   3.578   0.683  2.2321 -0.0428  4.5659
  595MOL0     H78511  -1.269   3.720   0.626 -0.6236 -0.3952 -0.1042
  595MOL0     H78512  -1.348   3.498   0.826  0.0901  2.3181  2.0811
  595MOL0     H78513  -1.460   3.626   0.761  0.9095  2.3088 -3.1169
  595MOL0     H78514  -1.344   3.413   0.602 -1.5604 -1.3666  0.5070
  595MOL0     H78515  -1.438   3.541   0.534  2.2132  1.6595  1.0035
  595MOL0     H78516  -1.549   3.354   0.761 -0.8027  0.9770  0.1739
  595MOL0     H78517  -1.548   3.298   0.593  2.0640 -1.6736  1.1033
  595MOL0     H78518  -1.661   3.577   0.677 -2.0374 -1.1815  1.7765
  595MOL0     H78519  -1.667   3.491   0.518 -3.1984 -0.9855  0.3769
  595MOL0     H78520  -1.814   3.383   0.766 -2.8782 -1.8332 -1.3968
  595MOL0     H78521  -1.797   3.313   0.605 -0.9017 -0.3507  0.3798
  595MOL0     H78522  -0.747   3.590   0.748  0.3764  0.2205 -1.4119
  595MOL0     H78523  -0.505   3.664   0.744  1.9023  2.1117  0.7154
  595MOL0     H78524  -0.213   4.001   1.101 -2.7619  0.3090 -1.2740
  595MOL0     H78525   0.014   4.068   1.109 -0.5332  0.3812  0.1240
  595MOL0     H78526   1.751   4.660   0.903  0.4613  3.9793 -2.5106
  595MOL0     H78527   1.969   4.755   0.994 -0.1379 -2.1498  0.6399
  595MOL0     H78528   2.198   4.919   1.538 -0.3274  0.1437 -0.6709
  595MOL0     H78529   2.427   5.023   1.554 -0.4136 -2.2583 -0.6121
  595MOL0     H78530   2.678   5.043   1.507  0.7207 -0.3945  0.4753
  595MOL0     H78531   2.568   5.173   1.559  2.0751 -1.5842  1.0320
  595MOL0     H78532   2.702   5.340   1.451 -0.5472  0.1672 -1.3274
  595MOL0     H78533   2.805   5.239   1.565 -0.2350  0.0009 -0.4506
  595MOL0     H78534   2.824   5.213   1.274 -2.0038 -1.1746  0.6677
  595MOL0     H78535   2.907   5.109   1.393  3.3791  1.5513  0.3703
  595MOL0     H78536   3.023   5.315   1.495  4.1348 -0.3636 -2.1672
  595MOL0     H78537   3.078   5.266   1.341 -0.2829  0.8009 -0.7943
  595MOL0     H78538   2.923   5.639   1.241  0.2891 -0.2338 -0.9087
  595MOL0     H78539   2.427   5.130   1.146  2.2205 -1.8726  0.0430
  595MOL0     H78540   2.202   4.999   1.116 -5.6742 -2.3098  3.7191
  596MOL0     O78541   5.283   0.254   7.339 -0.1827  0.0175  0.5152
  596MOL0     C78542   5.278   0.126   7.324  0.6228 -0.7254 -0.3709
  596MOL0     O78543   5.157   0.057   7.313 -0.4930 -0.6003 -0.1354
  596MOL0     C78544   5.028   0.111   7.331 -0.6051 -0.3184 -1.0884
  596MOL0     C78545   4.994   0.247   7.345  0.2533  0.1951 -0.4984
  596MOL0     C78546   4.860   0.280   7.360  0.6833 -0.0266  0.2979
  596MOL0     C78547   4.757   0.180   7.367 -0.0479 -0.6288  0.7364
  596MOL0     O78548   4.629   0.235   7.369  0.4656 -0.0315 -0.0155
  596MOL0     C78549   4.533   0.150   7.432  0.6469 -1.6656  0.6905
  596MOL0     C78550   4.402   0.232   7.453  0.9687  0.3931  0.7453
  596MOL0     C78551   4.292   0.142   7.494 -0.3283 -0.2892  0.0495
  596MOL0     C78552   4.153   0.205   7.498  0.4188 -0.3169 -0.1478
  596MOL0     C78553   4.048   0.099   7.481  0.1588  0.5546  0.2129
  596MOL0     C78554   3.906   0.156   7.491  0.3400 -0.4282 -0.6769
  596MOL0     C78555   3.801   0.049   7.496  0.0952 -0.4131  0.2308
  596MOL0     C78556   3.754   0.015   7.355 -0.0443  0.0308  0.5754
  596MOL0     N78557   3.638  -0.071   7.352  0.6882 -0.2207 -0.6203
  596MOL0     C78558   3.501  -0.033   7.351 -0.4918  0.7024 -0.3320
  596MOL0     C78559   3.433  -0.156   7.361 -0.1960  0.6044 -0.5623
  596MOL0     C78560   3.280  -0.202   7.344 -0.2448  0.3166  0.0267
  596MOL0     C78561   3.207  -0.138   7.226  0.2804  0.8263 -0.5845
  596MOL0     C78562   3.070  -0.094   7.265 -0.4463 -0.9650  0.5520
  596MOL0     C78563   2.983  -0.215   7.246  0.7029  0.4295  0.6346
  596MOL0     O78564   2.968  -0.246   7.108 -0.1188  0.0820  0.4378
  596MOL0     C78565   2.852  -0.208   7.049  0.9536 -0.3662 -1.1610
  596MOL0     C78566   2.765  -0.099   7.093  0.3301  0.1466 -0.1982
  596MOL0     C78567   2.643  -0.077   7.037 -0.4445 -0.3781  0.7460
  596MOL0     C78568   2.587  -0.170   6.947  0.6833 -0.3547 -0.6919
  596MOL0     C78569   2.443  -0.166   6.908  1.3706 -0.1976  0.2785
  596MOL0     O78570   2.387  -0.283   6.865 -0.2286 -0.4956  0.1741
  596MOL0     C78571   2.263  -0.289   6.797 -0.2324 -0.8248 -0.1641
  596MOL0     C78572   2.170  -0.388   6.820 -0.9354 -0.3995  0.7264
  596MOL0     C78573   2.052  -0.389   6.748 -0.0547 -0.6323  0.2910
  596MOL0     C78574   2.034  -0.298   6.646 -0.2396  0.1644 -0.3220
  596MOL0     O78575   1.923  -0.307   6.566 -0.2982 -0.6075 -0.1999
  596MOL0     C78576   1.807  -0.385   6.619  0.4827 -1.3171 -0.3126
  596MOL0     C78577   1.679  -0.363   6.533  0.3423 -0.2310 -0.4345
  596MOL0     C78578   1.599  -0.481   6.489 -0.3231  0.2223  0.9165
  596MOL0     C78579   1.487  -0.444   6.398  0.2851 -0.2533 -1.5035
  596MOL0     C78580   1.354  -0.458   6.468 -0.4010 -0.5976  0.3816
  596MOL0     C78581   1.295  -0.600   6.488 -0.6541 -1.1097  0.3447
  596MOL0     C78582   1.161  -0.589   6.566  0.6915  0.7410  0.2265
  596MOL0     C78583   1.043  -0.539   6.484  0.3167 -0.2718  0.5461
  596MOL0    Cl78584   0.900  -0.573   6.596 -0.1897  0.0366 -0.0621
  596MOL0     C78585   2.124  -0.200   6.623  0.3874  0.4652  1.0011
  596MOL0     C78586   2.238  -0.194   6.695 -0.0793  0.3110 -0.0801
  596MOL0     O78587   2.378  -0.065   6.931  0.7144 -0.1544  0.0227
  596MOL0     C78588   2.669  -0.272   6.907 -0.4612 -0.0297 -0.1161
  596MOL0     C78589   2.798  -0.296   6.954 -0.6768 -0.6972  0.2064
  596MOL0     N78590   3.531  -0.250   7.389 -0.3667  0.0443  0.2701
  596MOL0     N78591   3.644  -0.205   7.398  0.0042  0.1805  0.2957
  596MOL0     C78592   4.792   0.046   7.352  0.6779  0.0080 -0.4751
  596MOL0     C78593   4.931   0.013   7.346  0.2975 -0.7287 -0.4054
  596MOL0     C78594   5.407   0.054   7.339 -1.5141  0.3556 -0.7763
  596MOL0     C78595   5.530   0.121   7.345 -1.3246 -0.1876  0.3920
  596MOL0     C78596   5.646   0.052   7.370  0.2875 -0.1093 -0.3780
  596MOL0     C78597   5.649  -0.079   7.372  0.0739  1.6313 -0.0046
  596MOL0     O78598   5.772  -0.145   7.393  0.6988  0.1903 -0.4903
  596MOL0     C78599   5.789  -0.229   7.514 -0.0787  0.6451  0.3173
  596MOL0     C78600   5.871  -0.161   7.621  0.1279 -0.1409  0.3028
  596MOL0     C78601   5.810  -0.054   7.698 -0.0549  0.0659 -0.1641
  596MOL0     C78602   5.881  -0.038   7.831 -0.2470  0.5021 -0.5039
  596MOL0     C78603   5.833   0.061   7.929 -1.1957  0.4755  0.3800
  596MOL0     C78604   5.781   0.131   8.014  0.8578 -0.5169  0.1278
  596MOL0     C78605   5.530  -0.147   7.368 -0.5602  0.5234 -0.3904
  596MOL0     C78606   5.408  -0.087   7.359  0.6708  0.1096  0.4370
  596MOL0     H78607   5.065   0.329   7.334 -0.9191  1.6415  1.8768
  596MOL0     H78608   4.846   0.386   7.379 -0.4396 -0.1935  0.4745
  596MOL0     H78609   4.580   0.132   7.529  6.3170  3.8055 -0.4260
  596MOL0     H78610   4.517   0.062   7.369 -2.6814 -1.4924  1.0830
  596MOL0     H78611   4.389   0.293   7.363  1.1453 -1.3074 -0.4887
  596MOL0     H78612   4.440   0.300   7.530  2.3485  1.0903 -0.5094
  596MOL0     H78613   4.328   0.101   7.588  2.3014  1.0184 -0.3046
  596MOL0     H78614   4.289   0.065   7.416 -1.2636 -0.4399  0.2166
  596MOL0     H78615   4.148   0.263   7.591  1.5576  1.5362 -1.1703
  596MOL0     H78616   4.144   0.282   7.421 -3.9438  2.1309  2.4019
  596MOL0     H78617   4.064   0.018   7.552 -0.6710  0.2288  0.0340
  596MOL0     H78618   4.055   0.059   7.380  1.5954  0.9785  0.1150
  596MOL0     H78619   3.886   0.233   7.416 -0.9334  0.0820  0.1548
  596MOL0     H78620   3.893   0.203   7.589  3.6186  0.7002 -0.6610
  596MOL0     H78621   3.846  -0.038   7.545  2.7211  1.0931  0.6894
  596MOL0     H78622   3.718   0.087   7.555 -0.3925 -1.5353  0.2854
  596MOL0     H78623   3.836  -0.042   7.311 -1.2552 -0.6947 -0.8215
  596MOL0     H78624   3.734   0.110   7.305  1.9330  1.4709  2.3514
  596MOL0     H78625   3.457   0.066   7.339  1.1858  1.6549  1.0418
  596MOL0     H78626   3.215  -0.194   7.432 -1.6189 -2.0016 -0.6838
  596MOL0     H78627   3.275  -0.306   7.310  0.6203  0.3858 -0.3349
  596MOL0     H78628   3.208  -0.211   7.145  0.9503  0.9218 -0.6673
  596MOL0     H78629   3.264  -0.049   7.197 -0.5459  2.3233  2.0476
  596MOL0     H78630   3.062  -0.051   7.366 -1.5018 -1.1559  0.5567
  596MOL0     H78631   3.031  -0.021   7.194  0.6820 -0.8998 -0.0255
  596MOL0     H78632   2.889  -0.207   7.301  0.5110 -1.7065  0.7203
  596MOL0     H78633   3.037  -0.299   7.291  0.1348  0.3587  1.1939
  596MOL0     H78634   2.805  -0.030   7.167  2.5206 -1.0889 -0.1437
  596MOL0     H78635   2.592   0.009   7.079 -0.4806 -1.0507  2.1190
  596MOL0     H78636   2.183  -0.465   6.895 -1.0758 -2.1358 -0.9683
  596MOL0     H78637   1.985  -0.471   6.770 -1.9281  0.9412  0.7199
  596MOL0     H78638   1.803  -0.358   6.725  0.8218 -0.5908 -0.4803
  596MOL0     H78639   1.815  -0.495   6.617  2.2680 -1.2348 -3.0074
  596MOL0     H78640   1.702  -0.292   6.453 -1.4805 -0.4123 -1.1574
  596MOL0     H78641   1.606  -0.312   6.596 -0.9176  0.4010 -2.3543
  596MOL0     H78642   1.558  -0.537   6.573  0.6456 -2.3221 -0.2352
  596MOL0     H78643   1.654  -0.556   6.433  0.8229  0.6918  1.3801
  596MOL0     H78644   1.508  -0.339   6.378  1.1540 -0.4532 -1.6897
  596MOL0     H78645   1.476  -0.497   6.303 -0.9865 -1.7627 -0.5473
  596MOL0     H78646   1.283  -0.392   6.418  1.5514  2.1502  0.9861
  596MOL0     H78647   1.359  -0.426   6.573 -2.4704  0.2622  0.2552
  596MOL0     H78648   1.361  -0.660   6.552 -1.2196 -1.4818  0.5870
  596MOL0     H78649   1.277  -0.640   6.388 -0.9618 -0.6524  0.2124
  596MOL0     H78650   1.141  -0.690   6.604 -1.3097  0.6779 -0.9101
  596MOL0     H78651   1.168  -0.519   6.650 -2.3287  0.8531  0.4964
  596MOL0     H78652   1.033  -0.599   6.393 -0.3060 -1.6607  1.4797
  596MOL0     H78653   1.058  -0.434   6.459  3.3661 -0.7471 -0.0013
  596MOL0     H78654   2.107  -0.130   6.543  0.8887 -0.8607 -0.3183
  596MOL0     H78655   2.298  -0.105   6.678 -1.3686  1.1275 -0.5188
  596MOL0     H78656   2.629  -0.342   6.834  0.5098  2.8910 -3.7767
  596MOL0     H78657   2.848  -0.384   6.915  2.0243  0.2764  1.2229
  596MOL0     H78658   4.727  -0.041   7.352  3.3334 -2.1411  1.5600
  596MOL0     H78659   4.966  -0.089   7.351  0.0019 -0.7761  1.5680
  596MOL0     H78660   5.534   0.228   7.323 -1.5282 -0.1177  0.6868
  596MOL0     H78661   5.733   0.116   7.386  0.6477 -0.9005  1.0628
  596MOL0     H78662   5.831  -0.326   7.487 -0.5183  0.2263  1.0940
  596MOL0     H78663   5.686  -0.235   7.552 -0.5604  0.5117 -0.9678
  596MOL0     H78664   5.880  -0.242   7.694  0.0991  0.1859  0.6725
  596MOL0     H78665   5.965  -0.127   7.577  0.8419  1.2613  2.7091
  596MOL0     H78666   5.703  -0.076   7.703 -0.2723  0.7921 -1.1512
  596MOL0     H78667   5.825   0.039   7.641  2.5985 -0.6701 -0.8075
  596MOL0     H78668   5.889  -0.129   7.891  2.8376  0.6097 -0.6263
  596MOL0     H78669   5.981  -0.001   7.808 -0.7913  2.1717 -0.3030
  596MOL0     H78670   5.739   0.196   8.087 -0.2290  0.6813 -1.5093
  596MOL0     H78671   5.544  -0.255   7.370  2.1580  0.8003  1.2111
  596MOL0     H78672   5.322  -0.150   7.379  2.1495 -2.0481  0.2575
  597MOL0     O78673   9.308   5.296   1.943 -0.1049  0.2915  0.3151
  597MOL0     C78674   9.262   5.261   1.834  0.7242  0.1977 -0.8630
  597MOL0     O78675   9.132   5.241   1.809 -0.0986  0.6590  0.9722
  597MOL0     C78676   9.041   5.277   1.900  0.2139  0.3736 -0.1824
  597MOL0     C78677   8.944   5.177   1.934 -0.6757  0.5337 -0.2217
  597MOL0     C78678   8.849   5.214   2.026  0.1662 -0.7078 -0.6798
  597MOL0     C78679   8.840   5.348   2.080 -0.0550  0.8801  0.2593
  597MOL0     O78680   8.734   5.376   2.174  0.3224 -0.0929  0.1850
  597MOL0     C78681   8.711   5.303   2.292 -0.2185  0.2779 -0.3405
  597MOL0     C78682   8.563   5.254   2.294  0.1322 -0.8769  0.2889
  597MOL0     C78683   8.503   5.272   2.430 -0.4397 -0.6869 -0.0387
  597MOL0     C78684   8.375   5.182   2.440 -0.5246 -1.3014  0.6600
  597MOL0     C78685   8.328   5.177   2.589  0.1639 -0.1889  0.2607
  597MOL0     C78686   8.229   5.072   2.625  1.4649  0.6504  0.0057
  597MOL0     C78687   8.109   5.045   2.524  0.5902  0.5990  0.0015
  597MOL0     C78688   8.129   4.913   2.451  0.0009 -0.7747 -0.4112
  597MOL0     N78689   8.000   4.845   2.433 -0.2117 -0.0824 -0.2691
  597MOL0     C78690   7.888   4.909   2.376 -0.3112 -0.1548  0.3140
  597MOL0     C78691   7.796   4.808   2.362 -1.3338  0.8518  0.4883
  597MOL0     C78692   7.671   4.827   2.300 -0.0139  0.1451 -0.0730
  597MOL0     C78693   7.565   4.891   2.386 -0.1775  0.2171 -0.2314
  597MOL0     C78694   7.427   4.922   2.324 -0.4757  0.1706 -0.7412
  597MOL0     C78695   7.341   4.976   2.442 -0.3579  0.1699 -0.3216
  597MOL0     O78696   7.212   5.014   2.390 -0.0752  0.0188 -0.5012
  597MOL0     C78697   7.107   4.923   2.378 -0.7083  0.0247  1.3439
  597MOL0     C78698   7.132   4.787   2.384  0.6543 -0.2545  0.1612
  597MOL0     C78699   7.032   4.686   2.359  0.2922 -1.0839 -0.9700
  597MOL0     C78700   6.900   4.714   2.334 -0.8927  0.5426  0.0811
  597MOL0     C78701   6.803   4.614   2.333  0.7391 -0.7693 -0.1328
  597MOL0     O78702   6.683   4.656   2.363  0.6469 -0.3784 -0.6265
  597MOL0     C78703   6.568   4.578   2.374 -0.4086 -0.0148 -0.9305
  597MOL0     C78704   6.451   4.653   2.410  0.0489 -0.0620 -0.8152
  597MOL0     C78705   6.321   4.595   2.424 -0.3909 -0.5619  0.4636
  597MOL0     C78706   6.304   4.454   2.400  0.2594 -0.0172  0.4764
  597MOL0     O78707   6.194   4.381   2.397 -0.0688  0.2104 -0.1515
  597MOL0     C78708   6.072   4.455   2.421  0.6086  1.4259  1.8235
  597MOL0     C78709   5.950   4.359   2.425  0.5645  0.5438 -0.0913
  597MOL0     C78710   5.812   4.433   2.435  1.0260 -0.4345  0.0220
  597MOL0     C78711   5.703   4.327   2.417  0.2741 -1.0713 -0.7772
  597MOL0     C78712   5.571   4.380   2.471 -0.4980 -0.1112 -0.0856
  597MOL0     C78713   5.498   4.483   2.392 -0.2365 -0.1788  0.6796
  597MOL0     C78714   5.359   4.508   2.450 -0.2809 -0.0164 -0.9086
  597MOL0     C78715   5.284   4.606   2.357  0.1456  0.3794  0.9009
  597MOL0    Cl78716   5.330   4.771   2.386  0.5262 -0.2625  0.2111
  597MOL0     C78717   6.422   4.381   2.363 -0.2146  1.0462  0.9240
  597MOL0     C78718   6.553   4.440   2.362  0.4255  0.0151  0.0945
  597MOL0     O78719   6.828   4.503   2.293  0.6020 -0.5304  0.2256
  597MOL0     C78720   6.881   4.853   2.315  0.0516  0.4112 -0.2795
  597MOL0     C78721   6.980   4.952   2.331  0.2210  0.3927  0.0963
  597MOL0     N78722   7.848   4.695   2.407 -0.3571 -0.2906 -0.5564
  597MOL0     N78723   7.973   4.715   2.449 -0.0843 -0.6860 -0.1574
  597MOL0     C78724   8.934   5.440   2.040  0.3241  0.4803 -0.4497
  597MOL0     C78725   9.026   5.409   1.943 -0.0217 -0.1601 -0.3158
  597MOL0     C78726   9.365   5.261   1.723  0.1068  0.4824  0.5972
  597MOL0     C78727   9.502   5.270   1.735  0.0046 -0.1241  0.1998
  597MOL0     C78728   9.587   5.277   1.626 -0.3268 -0.2463  0.2813
  597MOL0     C78729   9.531   5.280   1.495 -0.1371 -0.6986  0.0529
  597MOL0     O78730   9.593   5.325   1.383 -0.4968 -0.0555  0.2076
  597MOL0     C78731   9.731   5.352   1.393  0.2658 -0.4393 -0.1262
  597MOL0     C78732   9.773   5.375   1.244  1.0361 -0.7096  0.3674
  597MOL0     C78733   9.928   5.346   1.228  0.7924 -1.0344  0.3549
  597MOL0     C78734  10.007   5.428   1.330  0.3014 -1.2969  0.0696
  597MOL0     C78735  10.148   5.420   1.297 -0.3709 -0.4279 -0.8776
  597MOL0     C78736  10.265   5.405   1.282  0.3984  0.0690  0.0885
  597MOL0     C78737   9.387   5.259   1.480  0.5652 -0.9231  0.6520
  597MOL0     C78738   9.312   5.250   1.593 -0.0000 -0.1483 -0.1588
  597MOL0     H78739   8.947   5.084   1.879  2.2005  0.9859 -0.9758
  597MOL0     H78740   8.768   5.151   2.063 -2.4278  1.7604 -1.7848
  597MOL0     H78741   8.741   5.362   2.379  0.9024  0.1809 -0.6476
  597MOL0     H78742   8.762   5.208   2.312 -2.5941 -0.9225  0.4518
  597MOL0     H78743   8.564   5.148   2.267 -0.5746 -0.6893 -0.4866
  597MOL0     H78744   8.504   5.301   2.215  1.1762  1.3893  0.7945
  597MOL0     H78745   8.475   5.375   2.456 -1.8288 -1.3328  1.2172
  597MOL0     H78746   8.578   5.241   2.504  0.3100  0.8356 -0.1097
  597MOL0     H78747   8.304   5.224   2.367  0.9297 -2.1235 -1.3242
  597MOL0     H78748   8.407   5.080   2.416  3.3920 -0.0494 -0.0914
  597MOL0     H78749   8.282   5.276   2.597 -1.2911 -0.2624 -4.3255
  597MOL0     H78750   8.418   5.167   2.650  3.4862  1.1852 -3.9353
  597MOL0     H78751   8.175   5.102   2.715  0.0466 -2.2700  0.2344
  597MOL0     H78752   8.273   4.976   2.653  2.2445  1.2561  0.9419
  597MOL0     H78753   8.014   5.040   2.580  0.3701  0.3872 -0.3866
  597MOL0     H78754   8.102   5.128   2.454  2.1119 -1.5209 -2.8787
  597MOL0     H78755   8.202   4.849   2.501  0.6211  1.4308  1.7035
  597MOL0     H78756   8.171   4.929   2.351 -1.6387  1.6961 -0.7813
  597MOL0     H78757   7.882   5.015   2.355  2.6026 -0.1328 -0.8278
  597MOL0     H78758   7.624   4.733   2.267 -1.8357  0.6676  0.9033
  597MOL0     H78759   7.690   4.886   2.210  1.9869 -0.0373  0.1986
  597MOL0     H78760   7.613   4.978   2.432  2.1311 -0.2875 -1.5174
  597MOL0     H78761   7.545   4.824   2.469 -0.7569 -1.2851 -1.5343
  597MOL0     H78762   7.429   4.987   2.236 -0.5738 -2.7149 -3.0450
  597MOL0     H78763   7.391   4.824   2.290  4.4550 -2.0449 -0.3858
  597MOL0     H78764   7.393   5.060   2.488  0.1512  0.4781 -1.4106
  597MOL0     H78765   7.341   4.908   2.528  3.3636  0.7551  0.3275
  597MOL0     H78766   7.225   4.744   2.418  2.0268  3.3792  1.3988
  597MOL0     H78767   7.071   4.587   2.380  0.4987 -0.9322 -0.6239
  597MOL0     H78768   6.467   4.760   2.414  0.6250 -0.1479 -0.6356
  597MOL0     H78769   6.232   4.656   2.438  1.2709  2.0841  0.1747
  597MOL0     H78770   6.059   4.519   2.334  0.4071 -0.6739  0.2178
  597MOL0     H78771   6.070   4.502   2.520 -0.7585 -0.6161  2.8463
  597MOL0     H78772   5.968   4.290   2.508 -0.1052  0.1255 -0.2857
  597MOL0     H78773   5.943   4.291   2.340  2.5974 -0.6792  0.6730
  597MOL0     H78774   5.810   4.503   2.352  1.5860 -1.9419 -1.3058
  597MOL0     H78775   5.784   4.488   2.525  0.1682  1.4615 -1.3392
  597MOL0     H78776   5.692   4.284   2.317  0.7706 -0.1283 -1.2445
  597MOL0     H78777   5.729   4.249   2.490  0.1620  0.7131  1.2984
  597MOL0     H78778   5.593   4.399   2.577  0.7326 -2.2857  0.1035
  597MOL0     H78779   5.503   4.295   2.472  0.2636 -0.7423  1.6346
  597MOL0     H78780   5.505   4.455   2.287  4.2659  0.6047  0.5822
  597MOL0     H78781   5.551   4.579   2.388  1.0513 -0.8927 -0.3276
  597MOL0     H78782   5.293   4.421   2.453  0.6128 -0.6860  2.1109
  597MOL0     H78783   5.366   4.544   2.552  3.2891 -0.7327 -0.7449
  597MOL0     H78784   5.178   4.598   2.382  0.1395  2.4429  1.7191
  597MOL0     H78785   5.294   4.580   2.251  1.5151  1.8588  0.6226
  597MOL0     H78786   6.402   4.275   2.349  0.2038  0.6431  2.9865
  597MOL0     H78787   6.638   4.377   2.340 -2.1559 -3.0579 -1.8587
  597MOL0     H78788   6.779   4.874   2.284 -0.2093 -1.4696 -0.8105
  597MOL0     H78789   6.936   5.048   2.307  0.9881  0.2344 -2.1747
  597MOL0     H78790   8.935   5.539   2.084  0.1851  0.0208  0.6394
  597MOL0     H78791   9.100   5.469   1.891 -1.5344  0.6400 -1.6224
  597MOL0     H78792   9.559   5.252   1.826  1.3602 -3.5885 -1.1807
  597MOL0     H78793   9.692   5.287   1.648  0.4133 -3.2228 -1.3819
  597MOL0     H78794   9.783   5.263   1.431  0.3174 -0.2992  0.1346
  597MOL0     H78795   9.753   5.444   1.448  0.6023 -0.3017 -0.4856
  597MOL0     H78796   9.713   5.322   1.170  0.6736 -0.0993  0.2140
  597MOL0     H78797   9.747   5.477   1.213 -0.7356 -0.8590  1.2616
  597MOL0     H78798   9.944   5.384   1.126  0.0262 -0.9501  0.2657
  597MOL0     H78799   9.941   5.238   1.240  2.1765 -1.5150 -3.7456
  597MOL0     H78800   9.989   5.535   1.342 -0.9145 -1.3282 -1.1990
  597MOL0     H78801   9.989   5.380   1.427 -1.4997 -1.5829 -0.3691
  597MOL0     H78802  10.371   5.414   1.293  0.1384  1.8942  1.7783
  597MOL0     H78803   9.343   5.246   1.382  0.3196 -3.2352  1.0019
  597MOL0     H78804   9.204   5.245   1.586  0.0375 -0.4828 -0.5800
  598MOL0     O78805  10.646   5.913   7.545 -0.1074 -0.6047 -0.1459
  598MOL0     C78806  10.547   5.887   7.612 -0.2256  0.3537 -0.1138
  598MOL0     O78807  10.429   5.840   7.566  0.0021 -0.0404  1.3622
  598MOL0     C78808  10.414   5.850   7.426 -0.1866  0.5631  0.0599
  598MOL0     C78809  10.364   5.968   7.370  0.5540 -0.2741 -0.0184
  598MOL0     C78810  10.341   5.981   7.234  0.5588 -0.0363 -0.3021
  598MOL0     C78811  10.390   5.883   7.149  0.0779  0.2399 -0.3844
  598MOL0     O78812  10.373   5.906   7.019 -0.1060 -0.0402 -0.0282
  598MOL0     C78813  10.334   5.797   6.938  0.8679  0.2342  0.5633
  598MOL0     C78814  10.195   5.732   6.986  0.5615 -0.8625  0.1609
  598MOL0     C78815  10.151   5.607   6.915  0.7769  0.5995 -0.7505
  598MOL0     C78816  10.021   5.539   6.977 -0.7732 -0.1218 -0.7959
  598MOL0     C78817   9.945   5.435   6.885  0.6721 -0.3947 -0.0821
  598MOL0     C78818   9.802   5.414   6.935 -0.3536 -0.3319  0.6090
  598MOL0     C78819   9.705   5.336   6.840 -0.8278 -0.2439 -0.9223
  598MOL0     C78820   9.567   5.327   6.896 -0.0357 -0.3543 -0.1770
  598MOL0     N78821   9.465   5.367   6.797  0.3091 -0.3469  0.2590
  598MOL0     C78822   9.415   5.306   6.678  0.9244  0.5673  0.8720
  598MOL0     C78823   9.305   5.375   6.643 -0.4428  0.6589  0.0415
  598MOL0     C78824   9.204   5.336   6.540  0.0722  0.1860 -0.4613
  598MOL0     C78825   9.067   5.348   6.602 -0.3773  0.4841  0.0417
  598MOL0     C78826   9.042   5.237   6.708  0.4503  0.4817  0.0185
  598MOL0     C78827   8.904   5.238   6.771  0.4462 -0.1883 -0.3904
  598MOL0     O78828   8.806   5.185   6.678  0.0846  1.0647 -0.5067
  598MOL0     C78829   8.681   5.152   6.732  0.7422 -1.0882  0.0945
  598MOL0     C78830   8.635   5.193   6.860  0.4707 -0.3199 -0.3329
  598MOL0     C78831   8.522   5.130   6.919 -0.5567  0.3729  0.3073
  598MOL0     C78832   8.446   5.032   6.845 -0.4743 -0.7464 -0.5789
  598MOL0     C78833   8.332   4.976   6.910  0.3894  0.6679 -0.1313
  598MOL0     O78834   8.308   5.012   7.044  0.1149  0.4511  0.6257
  598MOL0     C78835   8.209   4.957   7.130 -0.8697  0.1642 -1.1418
  598MOL0     C78836   8.229   4.985   7.267  0.6184 -0.0669 -0.0980
  598MOL0     C78837   8.154   4.931   7.364 -0.2703  0.6207 -0.3589
  598MOL0     C78838   8.048   4.850   7.327  0.2551  0.8424 -1.6417
  598MOL0     O78839   7.971   4.797   7.431 -0.7616  0.2937 -0.0204
  598MOL0     C78840   7.848   4.740   7.399  0.0388  0.5810 -0.1746
  598MOL0     C78841   7.803   4.660   7.522 -0.0558  0.3319  0.4095
  598MOL0     C78842   7.816   4.729   7.658 -0.1418 -0.0286  0.3401
  598MOL0     C78843   7.731   4.666   7.771 -0.1904  0.4801 -0.0629
  598MOL0     C78844   7.815   4.545   7.829  0.0067 -0.4127  0.8114
  598MOL0     C78845   7.746   4.494   7.956 -0.0442  0.0774 -0.1613
  598MOL0     C78846   7.847   4.419   8.052  0.4351  0.1209 -0.4904
  598MOL0     C78847   7.899   4.281   7.996  0.3490  0.3408  0.0859
  598MOL0    Cl78848   8.005   4.298   7.861 -0.0424  0.0645  0.1407
  598MOL0     C78849   8.015   4.836   7.189  0.4142 -1.1189 -0.1651
  598MOL0     C78850   8.089   4.893   7.094  0.0338  0.2735  1.0568
  598MOL0     O78851   8.266   4.895   6.851  0.4416 -0.4341  0.2643
  598MOL0     C78852   8.491   5.001   6.715 -0.4246 -0.6801 -0.2748
  598MOL0     C78853   8.604   5.062   6.654 -0.5156 -0.1021 -0.1689
  598MOL0     N78854   9.300   5.484   6.727 -0.7772 -1.3691  0.0774
  598MOL0     N78855   9.400   5.484   6.812  0.5508  0.0772 -0.6812
  598MOL0     C78856  10.435   5.760   7.200  0.0697 -0.8098  0.2420
  598MOL0     C78857  10.448   5.743   7.341  0.3299 -0.7046 -0.2367
  598MOL0     C78858  10.548   5.932   7.760  1.1725 -0.5603 -0.0376
  598MOL0     C78859  10.662   5.962   7.820  0.6395 -0.4160 -0.2199
  598MOL0     C78860  10.667   5.988   7.954 -0.6414  1.3185  0.0164
  598MOL0     C78861  10.559   5.979   8.038  0.7049 -0.4360 -0.1746
  598MOL0     O78862  10.566   6.007   8.170  0.7755  0.5279 -0.1813
  598MOL0     C78863  10.690   6.033   8.235 -0.2922  0.4611 -0.8115
  598MOL0     C78864  10.773   5.907   8.260  0.5268  0.0201 -1.6107
  598MOL0     C78865  10.705   5.826   8.366  0.0802  0.8928  0.5753
  598MOL0     C78866  10.780   5.690   8.399  0.2515  0.1235  0.0911
  598MOL0     C78867  10.735   5.576   8.336  0.5580 -0.3894 -0.7666
  598MOL0     C78868  10.693   5.477   8.272 -0.3518 -0.2715 -0.8609
  598MOL0     C78869  10.436   5.949   7.974  0.4238 -0.2476 -0.0906
  598MOL0     C78870  10.432   5.938   7.833  0.5335  0.0741  0.4046
  598MOL0     H78871  10.352   6.058   7.430 -2.7284 -1.4857  1.3883
  598MOL0     H78872  10.308   6.077   7.194 -0.9773 -0.9502 -1.3603
  598MOL0     H78873  10.406   5.716   6.926 -0.8423 -1.5177  1.4735
  598MOL0     H78874  10.310   5.842   6.841 -0.7604 -0.1269  0.7689
  598MOL0     H78875  10.117   5.809   6.983  2.4698  1.7367  5.0366
  598MOL0     H78876  10.193   5.708   7.092  0.2443 -0.5593  0.2235
  598MOL0     H78877  10.226   5.529   6.902 -0.0788 -0.1871 -1.0696
  598MOL0     H78878  10.128   5.653   6.819  2.0786 -1.3813 -2.0653
  598MOL0     H78879  10.047   5.486   7.069  1.1335 -2.7996 -2.7309
  598MOL0     H78880   9.955   5.624   6.996  3.0121  3.0189 -0.4291
  598MOL0     H78881  10.003   5.342   6.892  2.2818  0.6336  1.0705
  598MOL0     H78882   9.940   5.456   6.778  1.2458 -0.9194 -0.2199
  598MOL0     H78883   9.749   5.509   6.953 -2.4554 -1.6304  1.6776
  598MOL0     H78884   9.813   5.373   7.035  3.4596 -1.5690 -0.1524
  598MOL0     H78885   9.705   5.393   6.747 -1.1054 -0.2479 -0.9263
  598MOL0     H78886   9.731   5.233   6.814  0.8679  0.0203 -0.4092
  598MOL0     H78887   9.539   5.385   6.984 -0.4303 -1.2687  0.3195
  598MOL0     H78888   9.543   5.228   6.937 -1.0330  0.3866  1.1197
  598MOL0     H78889   9.438   5.207   6.641 -1.3798  0.1350  0.4514
  598MOL0     H78890   9.232   5.235   6.509  1.7582  0.3652  0.3347
  598MOL0     H78891   9.207   5.399   6.452 -3.3856  0.4501 -0.4987
  598MOL0     H78892   9.001   5.345   6.516 -0.4009 -4.2164 -0.0762
  598MOL0     H78893   9.061   5.447   6.648  0.8732 -0.0012  1.3451
  598MOL0     H78894   9.069   5.134   6.683 -0.4807  0.7246 -2.2661
  598MOL0     H78895   9.101   5.265   6.795 -0.5046  1.6236  0.3207
  598MOL0     H78896   8.876   5.336   6.811 -0.5438 -0.8282  0.5184
  598MOL0     H78897   8.915   5.177   6.860  1.3427 -0.2120 -0.5097
  598MOL0     H78898   8.688   5.275   6.907  0.4908  0.1473 -1.1425
  598MOL0     H78899   8.489   5.164   7.017 -0.3753 -2.7145  1.5532
  598MOL0     H78900   8.310   5.054   7.286  0.6887  0.3750 -1.8981
  598MOL0     H78901   8.181   4.942   7.468 -1.5081 -2.5862  0.4037
  598MOL0     H78902   7.851   4.674   7.312 -2.5749  0.7869 -0.5093
  598MOL0     H78903   7.774   4.820   7.385 -2.4994 -1.1466  2.3145
  598MOL0     H78904   7.867   4.574   7.542  0.7295  0.7097 -0.4182
  598MOL0     H78905   7.697   4.635   7.514 -0.0219  0.3259 -0.0941
  598MOL0     H78906   7.761   4.819   7.630 -1.8747 -1.5343 -1.3710
  598MOL0     H78907   7.914   4.765   7.691 -1.5755  2.5567  2.1169
  598MOL0     H78908   7.719   4.731   7.859  0.1915  1.1860 -0.5253
  598MOL0     H78909   7.636   4.640   7.724  0.7460  0.5995 -2.0932
  598MOL0     H78910   7.918   4.572   7.854  0.0108 -1.6954  2.3806
  598MOL0     H78911   7.828   4.458   7.764  0.5317  0.8186 -0.7669
  598MOL0     H78912   7.661   4.432   7.925 -1.5429  1.8784  0.2024
  598MOL0     H78913   7.698   4.578   8.006 -3.5453  0.5428 -3.8204
  598MOL0     H78914   7.930   4.484   8.082  2.0888 -2.6713  1.5291
  598MOL0     H78915   7.795   4.402   8.147 -1.6818 -3.2177 -2.0371
  598MOL0     H78916   7.815   4.220   7.963  1.4718 -1.8325  1.0809
  598MOL0     H78917   7.948   4.223   8.074  1.3230 -1.6374 -1.8858
  598MOL0     H78918   7.933   4.775   7.154  2.2474 -3.0793 -1.3002
  598MOL0     H78919   8.062   4.879   6.990  0.5797 -4.4441  1.3086
  598MOL0     H78920   8.438   4.919   6.668 -3.0980  0.8977 -0.1795
  598MOL0     H78921   8.628   5.050   6.549 -1.6459  4.0899 -1.1144
  598MOL0     H78922  10.464   5.677   7.137  2.5748  0.2273 -0.0701
  598MOL0     H78923  10.474   5.646   7.382 -1.2807 -1.2735 -0.5017
  598MOL0     H78924  10.760   5.978   7.776  1.3634  0.9117  1.7505
  598MOL0     H78925  10.763   6.034   7.976 -0.0796  0.5383 -0.7303
  598MOL0     H78926  10.665   6.068   8.336 -0.4575 -0.8879 -0.3691
  598MOL0     H78927  10.746   6.106   8.176 -0.5104  0.2118 -1.3333
  598MOL0     H78928  10.789   5.853   8.166  1.2210  0.7886 -1.9396
  598MOL0     H78929  10.874   5.934   8.291 -0.6290  1.9343  0.8111
  598MOL0     H78930  10.609   5.804   8.317  1.5710  0.0521 -2.1626
  598MOL0     H78931  10.685   5.894   8.449  0.3078  1.5327  0.1098
  598MOL0     H78932  10.888   5.694   8.380  0.0432  1.7959 -0.9670
  598MOL0     H78933  10.758   5.673   8.505 -1.6604 -0.7317 -0.4104
  598MOL0     H78934  10.675   5.378   8.236 -0.3271 -0.1793 -1.1281
  598MOL0     H78935  10.350   5.956   8.040  0.9723 -0.7069  0.6850
  598MOL0     H78936  10.340   5.937   7.775 -0.9181  4.6401  2.1570
  599MOL0     O78937   0.271   9.757   3.999  0.2850  0.5137  0.4073
  599MOL0     C78938   0.209   9.820   3.916 -0.4318 -0.0370 -0.1445
  599MOL0     O78939   0.080   9.823   3.885  0.0616 -0.1259 -1.7018
  599MOL0     C78940  -0.019   9.742   3.937  0.3702  0.0906 -0.9038
  599MOL0     C78941   0.009   9.620   4.000  0.5877 -0.1398 -0.4276
  599MOL0     C78942  -0.103   9.558   4.055  0.2035  0.1185  0.4842
  599MOL0     C78943  -0.231   9.601   4.040  0.5430  0.5374  0.4439
  599MOL0     O78944  -0.323   9.517   4.101 -0.2685  0.1079 -0.2261
  599MOL0     C78945  -0.458   9.533   4.091  0.2322  1.1980  1.4398
  599MOL0     C78946  -0.500   9.459   3.965  0.1573 -0.0841 -0.5221
  599MOL0     C78947  -0.655   9.451   3.938 -0.6004  0.0670 -0.3419
  599MOL0     C78948  -0.734   9.382   4.054  0.0948 -0.3792  0.6280
  599MOL0     C78949  -0.882   9.375   4.014  0.6821  0.2720 -0.6335
  599MOL0     C78950  -0.940   9.520   4.018  1.2041  0.7085  0.2151
  599MOL0     C78951  -1.097   9.535   4.005 -0.2443  0.4592  0.8489
  599MOL0     C78952  -1.138   9.671   3.948 -1.2622 -0.1270  0.8978
  599MOL0     N78953  -1.276   9.674   3.919 -0.2450 -0.5342  0.0955
  599MOL0     C78954  -1.333   9.769   3.845 -0.0493 -0.2230 -0.0441
  599MOL0     C78955  -1.467   9.766   3.878  0.4633  0.9392  0.5618
  599MOL0     C78956  -1.577   9.853   3.819  0.3183  0.0644  1.7383
  599MOL0     C78957  -1.715   9.788   3.806  0.5158 -0.8430 -0.1056
  599MOL0     C78958  -1.795   9.843   3.682 -0.1270  0.0600 -0.8140
  599MOL0     C78959  -1.826   9.993   3.678  0.2106  0.0861 -0.3308
  599MOL0     O78960  -1.857  10.041   3.547  0.6642 -0.8840  0.4974
  599MOL0     C78961  -1.983  10.017   3.514 -0.2305 -0.3115 -0.0096
  599MOL0     C78962  -1.998   9.903   3.440  0.7838 -1.0331  0.0752
  599MOL0     C78963  -2.126   9.865   3.398  0.5807  0.0746 -0.2299
  599MOL0     C78964  -2.245   9.942   3.429 -0.5170 -1.1486 -0.5022
  599MOL0     C78965  -2.379   9.895   3.387 -0.3679 -0.1761 -0.0723
  599MOL0     O78966  -2.476   9.956   3.455  0.2460  0.5679 -0.4414
  599MOL0     C78967  -2.607   9.919   3.449 -0.5313  0.3347 -0.1282
  599MOL0     C78968  -2.675   9.833   3.357 -0.1298 -0.0770 -0.0144
  599MOL0     C78969  -2.806   9.787   3.359  0.2232 -0.4067  0.4089
  599MOL0     C78970  -2.884   9.843   3.461  0.4038  0.2258 -0.6831
  599MOL0     O78971  -3.020   9.830   3.471 -0.6718  0.1220 -0.2835
  599MOL0     C78972  -3.106   9.773   3.367 -0.6056  0.1972  0.5511
  599MOL0     C78973  -3.248   9.746   3.421  0.0116  0.2817  0.0454
  599MOL0     C78974  -3.361   9.748   3.310 -1.1117 -0.1468  1.6767
  599MOL0     C78975  -3.500   9.742   3.357 -0.4780 -0.1269  0.1071
  599MOL0     C78976  -3.603   9.740   3.250  0.2185  0.0485 -0.5721
  599MOL0     C78977  -3.746   9.746   3.296 -0.9723 -0.5571 -0.7239
  599MOL0     C78978  -3.849   9.711   3.186 -0.4563 -0.5825 -0.1684
  599MOL0     C78979  -3.968   9.800   3.212 -0.3527  0.2120  0.4883
  599MOL0    Cl78980  -4.100   9.703   3.166  0.1752 -0.1201  0.1814
  599MOL0     C78981  -2.836   9.946   3.539  0.5094  0.4418  0.6444
  599MOL0     C78982  -2.698   9.978   3.539 -0.2047  0.1738 -0.1597
  599MOL0     O78983  -2.394   9.803   3.308  0.4159  0.0705  0.4818
  599MOL0     C78984  -2.223  10.055   3.503 -0.6077  0.0060 -0.4904
  599MOL0     C78985  -2.097  10.096   3.546 -0.3865 -0.6523 -0.4476
  599MOL0     N78986  -1.489   9.644   3.951  0.7690  0.0468  0.1389
  599MOL0     N78987  -1.367   9.595   3.985  1.1649  0.0814  0.0058
  599MOL0     C78988  -0.262   9.718   3.980 -0.4956 -0.5827  0.2971
  599MOL0     C78989  -0.155   9.791   3.932  0.0487 -0.2308 -0.4445
  599MOL0     C78990   0.292   9.939   3.862 -0.4691  0.5170  0.3131
  599MOL0     C78991   0.247  10.025   3.757  0.0495  0.6306  0.0579
  599MOL0     C78992   0.319  10.133   3.713 -0.6373  0.6259 -0.3807
  599MOL0     C78993   0.446  10.151   3.765 -0.0012 -0.6279 -0.2026
  599MOL0     O78994   0.515  10.256   3.702 -0.6039 -0.0926  0.4031
  599MOL0     C78995   0.648  10.294   3.736  0.3072 -0.6021 -0.2064
  599MOL0     C78996   0.741  10.207   3.661  0.2246 -0.2480 -0.2052
  599MOL0     C78997   0.883  10.246   3.710 -0.1385  0.1713  0.7342
  599MOL0     C78998   0.982  10.180   3.613 -0.0250 -0.7238  0.3265
  599MOL0     C78999   0.960  10.241   3.486 -0.1224 -0.4669  0.0356
  599MOL0     C79000   0.976  10.281   3.372  0.2892  0.3134  0.2357
  599MOL0     C79001   0.496  10.078   3.870 -0.5213 -0.0041  0.3179
  599MOL0     C79002   0.415   9.970   3.920 -0.5814 -0.4529  0.5198
  599MOL0     H79003   0.104   9.568   4.013  0.0233 -0.8204  1.2693
  599MOL0     H79004  -0.093   9.458   4.095 -4.6315 -0.7837  0.1182
  599MOL0     H79005  -0.487   9.638   4.093 -0.3983  1.1839 -1.5679
  599MOL0     H79006  -0.509   9.485   4.175 -1.2397  1.6755  0.8568
  599MOL0     H79007  -0.453   9.360   3.972  3.1898  1.3525  1.1326
  599MOL0     H79008  -0.464   9.518   3.880  1.3860  3.0331  1.9627
  599MOL0     H79009  -0.675   9.392   3.848 -2.5929 -0.7389  0.5578
  599MOL0     H79010  -0.678   9.557   3.928  2.7704  0.8149 -1.5620
  599MOL0     H79011  -0.709   9.276   4.065 -1.3374 -0.9541 -1.2456
  599MOL0     H79012  -0.715   9.431   4.150 -0.2945  0.0291  0.5018
  599MOL0     H79013  -0.929   9.312   4.090 -1.1703  1.3362 -0.8496
  599MOL0     H79014  -0.893   9.330   3.915  0.3044  0.1001 -0.5162
  599MOL0     H79015  -0.897   9.573   3.932 -1.7178  2.2309 -0.4444
  599MOL0     H79016  -0.922   9.577   4.110 -1.2664  1.8903  0.0669
  599MOL0     H79017  -1.123   9.455   3.934 -3.2223  1.8170  0.2675
  599MOL0     H79018  -1.149   9.506   4.097  1.2987 -0.6764  1.4079
  599MOL0     H79019  -1.084   9.696   3.856 -0.0126  1.5318  2.0034
  599MOL0     H79020  -1.121   9.759   4.011 -2.5709  1.1558 -0.4541
  599MOL0     H79021  -1.295   9.857   3.793  2.2700 -1.7687 -1.0895
  599MOL0     H79022  -1.550   9.897   3.723 -2.6785 -1.0828  0.2508
  599MOL0     H79023  -1.588   9.942   3.882 -0.5857  2.3378 -1.4018
  599MOL0     H79024  -1.768   9.807   3.900  2.0231 -0.1929  0.6402
  599MOL0     H79025  -1.705   9.681   3.784  2.0057 -1.5041  3.2152
  599MOL0     H79026  -1.744   9.812   3.590 -0.0462  0.0662 -0.7715
  599MOL0     H79027  -1.892   9.793   3.686  0.5818 -1.2602  0.7788
  599MOL0     H79028  -1.734  10.047   3.705  0.9656 -0.9000 -0.8497
  599MOL0     H79029  -1.903  10.021   3.749  0.3625  0.8385 -0.4570
  599MOL0     H79030  -1.906   9.846   3.439  1.6703  0.3510 -0.2181
  599MOL0     H79031  -2.139   9.774   3.342 -2.5690  1.0414 -1.2724
  599MOL0     H79032  -2.625   9.780   3.277 -2.7795 -1.8975 -0.5709
  599MOL0     H79033  -2.848   9.725   3.281  0.3971 -0.0749  0.0476
  599MOL0     H79034  -3.064   9.677   3.338 -0.3004 -0.0064  1.6454
  599MOL0     H79035  -3.124   9.849   3.291 -0.2624 -0.6833 -0.4267
  599MOL0     H79036  -3.276   9.831   3.484  0.4688 -0.0516  0.7088
  599MOL0     H79037  -3.240   9.656   3.482  1.1232  0.0859 -0.3654
  599MOL0     H79038  -3.345   9.657   3.252 -1.0675  1.5432 -1.1635
  599MOL0     H79039  -3.350   9.830   3.238  1.1367 -0.7638  1.2286
  599MOL0     H79040  -3.511   9.654   3.422 -0.9957  1.2161  1.9361
  599MOL0     H79041  -3.516   9.832   3.418  1.4273 -0.0359  0.5601
  599MOL0     H79042  -3.581   9.659   3.180  2.6222  1.1337 -1.1914
  599MOL0     H79043  -3.588   9.828   3.187  0.0020  1.0109  0.6791
  599MOL0     H79044  -3.758   9.847   3.336 -0.6400  0.0012 -1.9770
  599MOL0     H79045  -3.754   9.681   3.384  1.0870  0.8196  0.5612
  599MOL0     H79046  -3.804   9.705   3.086  2.5135  0.4831  0.9846
  599MOL0     H79047  -3.876   9.607   3.208  2.9302 -1.6972 -0.6771
  599MOL0     H79048  -3.966   9.891   3.151 -0.6557  1.5234  2.3327
  599MOL0     H79049  -3.975   9.829   3.317  1.9824 -3.8138  1.9837
  599MOL0     H79050  -2.900   9.999   3.609  0.8756  0.3683  1.0359
  599MOL0     H79051  -2.662  10.051   3.610  0.3547 -0.4214  0.1852
  599MOL0     H79052  -2.309  10.115   3.532  0.0055  0.0070  1.4960
  599MOL0     H79053  -2.075  10.187   3.600  1.5350 -1.2573 -0.0998
  599MOL0     H79054  -0.360   9.763   3.969 -0.2158 -0.4301 -1.9598
  599MOL0     H79055  -0.186   9.890   3.898 -0.3606 -0.2713 -0.2017
  599MOL0     H79056   0.151   9.996   3.717 -0.4822  0.9969  1.0322
  599MOL0     H79057   0.275  10.201   3.641  0.6166  2.0608  0.1284
  599MOL0     H79058   0.677  10.316   3.839  0.4162  6.5396 -1.2600
  599MOL0     H79059   0.675  10.389   3.691  0.4136 -1.4524 -2.0264
  599MOL0     H79060   0.715  10.102   3.681 -1.7061  0.7147  3.2209
  599MOL0     H79061   0.721  10.240   3.559  0.8166 -0.7807 -0.4972
  599MOL0     H79062   0.890  10.180   3.797 -0.4192 -2.8049 -1.3375
  599MOL0     H79063   0.902  10.354   3.716 -0.1154  0.2229 -0.2281
  599MOL0     H79064   1.083  10.204   3.646  0.7071 -0.3767 -2.0184
  599MOL0     H79065   0.965  10.071   3.612 -2.8770 -0.3591 -0.0544
  599MOL0     H79066   0.999  10.309   3.271  3.0516 -0.1721  0.6475
  599MOL0     H79067   0.595  10.094   3.912 -0.3462  1.9050 -0.7305
  599MOL0     H79068   0.462   9.915   4.001 -1.7380  0.8062  2.1243
  600MOL0     O79069   5.673   1.490   9.532 -0.5608  0.0814 -0.1611
  600MOL0     C79070   5.754   1.527   9.446 -0.0959 -0.4523 -0.8383
  600MOL0     O79071   5.721   1.539   9.312 -0.2914 -0.5115  0.6046
  600MOL0     C79072   5.603   1.492   9.277 -0.3494 -0.7269  0.0130
  600MOL0     C79073   5.593   1.373   9.198  0.0550  0.1572 -0.6591
  600MOL0     C79074   5.463   1.328   9.163 -0.5980  0.5839 -0.4991
  600MOL0     C79075   5.349   1.397   9.208 -1.1193  0.1189 -0.1377
  600MOL0     O79076   5.229   1.348   9.156 -0.2038 -0.2826 -0.1288
  600MOL0     C79077   5.112   1.359   9.239 -0.6343 -0.4814  0.3123
  600MOL0     C79078   5.027   1.241   9.201 -0.3235  0.2953 -0.6076
  600MOL0     C79079   4.885   1.222   9.274 -0.4617  0.5654 -0.2515
  600MOL0     C79080   4.789   1.129   9.194  0.2924 -0.3960 -0.2088
  600MOL0     C79081   4.650   1.127   9.256  0.7222  0.4699 -0.1457
  600MOL0     C79082   4.579   1.272   9.264 -0.2636 -0.4588  0.3567
  600MOL0     C79083   4.426   1.258   9.289  0.1577 -0.1974  0.3296
  600MOL0     C79084   4.404   1.208   9.431  0.1995  0.2331 -0.0122
  600MOL0     N79085   4.256   1.213   9.458 -0.2233 -0.3220  0.7435
  600MOL0     C79086   4.175   1.113   9.428 -0.5640  1.0752 -0.4390
  600MOL0     C79087   4.061   1.141   9.493  0.6997  0.4323 -1.3597
  600MOL0     C79088   3.933   1.054   9.496  0.5431 -1.0163 -0.4535
  600MOL0     C79089   3.831   1.083   9.384 -0.2772  0.5079 -0.8026
  600MOL0     C79090   3.808   1.236   9.370  0.6970  0.4025 -0.4186
  600MOL0     C79091   3.761   1.300   9.501 -0.0412  0.9142 -0.0746
  600MOL0     O79092   3.650   1.224   9.551  0.5082  0.0450 -0.7249
  600MOL0     C79093   3.608   1.255   9.684  0.2603  0.7818  0.0877
  600MOL0     C79094   3.520   1.362   9.710  0.3217 -0.6023 -0.4996
  600MOL0     C79095   3.465   1.369   9.838  0.1637 -0.5575  0.0359
  600MOL0     C79096   3.489   1.280   9.941 -0.5891 -0.4780  1.0843
  600MOL0     C79097   3.409   1.272  10.058  0.5312 -0.0793 -0.3964
  600MOL0     O79098   3.309   1.374  10.080 -0.0289 -0.1017  0.3152
  600MOL0     C79099   3.232   1.380  10.191  0.4188 -0.2813 -0.3840
  600MOL0     C79100   3.198   1.513  10.230  0.7553 -0.3135  0.6303
  600MOL0     C79101   3.110   1.531  10.343  0.1438 -0.2889  0.5174
  600MOL0     C79102   3.056   1.424  10.417  0.0183  0.4060  0.4082
  600MOL0     O79103   2.982   1.459  10.528 -0.1857 -0.5666  0.3301
  600MOL0     C79104   2.957   1.355  10.615  0.3843 -0.4439  0.0759
  600MOL0     C79105   2.912   1.423  10.735  0.4848 -1.3809 -0.9104
  600MOL0     C79106   2.783   1.493  10.712  0.7708  0.1262 -0.6211
  600MOL0     C79107   2.733   1.540  10.852  0.2024 -0.0446 -1.3716
  600MOL0     C79108   2.632   1.660  10.865 -0.4289  0.6821  0.6183
  600MOL0     C79109   2.499   1.618  10.810  0.5335 -0.1771  0.0700
  600MOL0     C79110   2.388   1.723  10.837 -0.4799 -0.3971 -1.6347
  600MOL0     C79111   2.250   1.658  10.807 -0.7473 -0.4062 -0.9441
  600MOL0    Cl79112   2.129   1.789  10.829  0.5118  0.1783  0.0611
  600MOL0     C79113   3.088   1.294  10.371  0.0536 -0.4181  0.5901
  600MOL0     C79114   3.170   1.271  10.256 -0.1724  0.2397  1.0601
  600MOL0     O79115   3.435   1.178  10.139 -0.1770 -0.3255 -0.1233
  600MOL0     C79116   3.584   1.183   9.920 -0.3653 -0.2740 -0.4630
  600MOL0     C79117   3.638   1.172   9.785 -0.1676  0.2834  0.0689
  600MOL0     N79118   4.081   1.262   9.560  0.4943 -0.4263 -0.3683
  600MOL0     N79119   4.197   1.304   9.544  0.0239  0.0498 -0.3538
  600MOL0     C79120   5.364   1.509   9.302  0.0738 -0.4867 -0.2112
  600MOL0     C79121   5.486   1.562   9.320  0.5488 -0.7095 -0.2886
  600MOL0     C79122   5.892   1.574   9.497 -0.1764 -0.1776  0.4477
  600MOL0     C79123   5.967   1.657   9.413 -0.3907 -0.3006 -0.1403
  600MOL0     C79124   6.100   1.686   9.443 -0.3382 -0.5734  0.3377
  600MOL0     C79125   6.157   1.656   9.567 -0.2001  0.9293  0.4170
  600MOL0     O79126   6.290   1.691   9.574 -0.3535  0.1758 -0.1349
  600MOL0     C79127   6.360   1.699   9.701  0.2035 -0.9441  0.2349
  600MOL0     C79128   6.499   1.657   9.685  0.3108 -0.5033 -0.4211
  600MOL0     C79129   6.585   1.670   9.814 -0.1805  0.3900  0.2986
  600MOL0     C79130   6.614   1.818   9.859 -0.4585 -0.9012 -0.0525
  600MOL0     C79131   6.732   1.838   9.946  0.3842  0.2168 -0.5698
  600MOL0     C79132   6.841   1.848  10.001 -0.3573  0.1341 -0.3374
  600MOL0     C79133   6.085   1.575   9.653 -0.3278 -0.2675 -0.0042
  600MOL0     C79134   5.951   1.541   9.617 -0.8838  0.0342 -0.4283
  600MOL0     H79135   5.679   1.321   9.158 -0.6251  0.1668 -2.2273
  600MOL0     H79136   5.446   1.241   9.101 -1.1269  1.0179 -0.9715
  600MOL0     H79137   5.053   1.450   9.228 -1.0999 -0.4078  2.7876
  600MOL0     H79138   5.152   1.352   9.341  2.1645  0.5299 -0.6302
  600MOL0     H79139   5.084   1.154   9.236 -0.6646 -0.8636 -2.7246
  600MOL0     H79140   5.013   1.231   9.093 -1.0568 -1.8079 -0.3677
  600MOL0     H79141   4.838   1.318   9.295 -2.8689 -1.2667  3.9154
  600MOL0     H79142   4.885   1.175   9.373 -0.1096  0.4260 -0.3123
  600MOL0     H79143   4.779   1.154   9.088  2.4369 -3.5608 -1.2845
  600MOL0     H79144   4.831   1.029   9.195 -0.1480 -0.5927  0.9999
  600MOL0     H79145   4.649   1.081   9.355  0.4764  1.7349  0.4628
  600MOL0     H79146   4.589   1.060   9.194  1.5099  1.4150 -2.0070
  600MOL0     H79147   4.599   1.317   9.167  1.2899 -1.5706  0.1098
  600MOL0     H79148   4.621   1.341   9.338 -0.7516 -2.3535  2.5067
  600MOL0     H79149   4.368   1.348   9.269  1.2054  0.1040 -1.6640
  600MOL0     H79150   4.389   1.177   9.225 -0.1982 -1.7363  2.3788
  600MOL0     H79151   4.461   1.279   9.492  1.4476  0.2394 -1.1345
  600MOL0     H79152   4.437   1.105   9.446 -1.6595 -0.0132  3.3428
  600MOL0     H79153   4.192   1.033   9.357 -0.3689  2.0657 -1.5469
  600MOL0     H79154   3.881   1.079   9.589 -1.3756  1.2259 -2.0122
  600MOL0     H79155   3.958   0.948   9.488  2.4374 -0.8786  2.3793
  600MOL0     H79156   3.737   1.035   9.409 -1.5634  3.2429  0.0974
  600MOL0     H79157   3.868   1.051   9.287  0.6847 -1.7089  0.2218
  600MOL0     H79158   3.888   1.298   9.326 -0.6730  2.7867  0.2536
  600MOL0     H79159   3.721   1.251   9.306  0.0701  0.3319  0.4137
  600MOL0     H79160   3.725   1.403   9.489 -2.2418  0.6798  3.0972
  600MOL0     H79161   3.841   1.306   9.576 -0.4679  1.3489  0.3592
  600MOL0     H79162   3.512   1.435   9.631  1.1851 -0.2089 -0.2366
  600MOL0     H79163   3.396   1.450   9.858  2.5173  2.2098 -2.2249
  600MOL0     H79164   3.239   1.599  10.178  0.5477 -0.7274 -0.2304
  600MOL0     H79165   3.081   1.630  10.374 -1.0904  0.3644 -2.3289
  600MOL0     H79166   3.048   1.310  10.657 -1.0457 -0.4923  3.4541
  600MOL0     H79167   2.881   1.288  10.576 -1.5419  1.8212 -0.2613
  600MOL0     H79168   2.985   1.496  10.769  1.2548 -0.3710 -4.2831
  600MOL0     H79169   2.897   1.349  10.814  0.0924 -3.7284 -3.0382
  600MOL0     H79170   2.703   1.426  10.680 -0.8967  1.2934  0.8351
  600MOL0     H79171   2.792   1.578  10.644 -0.7002  2.5401  1.9895
  600MOL0     H79172   2.712   1.453  10.915 -0.8692  0.7359 -0.6069
  600MOL0     H79173   2.815   1.579  10.912  0.5319  2.6395 -3.4191
  600MOL0     H79174   2.665   1.748  10.811 -2.4265  2.0459  1.4936
  600MOL0     H79175   2.626   1.685  10.971 -3.1846  0.3686  0.6038
  600MOL0     H79176   2.455   1.525  10.845  0.0307 -1.9961 -4.7002
  600MOL0     H79177   2.500   1.607  10.701  3.2652  1.7477 -0.2057
  600MOL0     H79178   2.384   1.763  10.938  0.8427  1.4890 -2.2770
  600MOL0     H79179   2.398   1.804  10.764  2.8809  1.2481  0.3909
  600MOL0     H79180   2.242   1.584  10.888  2.8295  0.1866  0.1347
  600MOL0     H79181   2.240   1.606  10.711 -0.3741 -1.0587 -0.6387
  600MOL0     H79182   3.050   1.205  10.421  1.0630  0.7757  3.7509
  600MOL0     H79183   3.192   1.171  10.222  3.0736  0.0412  3.3167
  600MOL0     H79184   3.620   1.116   9.998  0.9699  2.1105  1.0660
  600MOL0     H79185   3.706   1.089   9.767  0.6758  0.5401  1.8385
  600MOL0     H79186   5.278   1.547   9.356  1.1888  0.6779  0.7931
  600MOL0     H79187   5.507   1.650   9.379  0.4012 -0.8511 -0.0246
  600MOL0     H79188   5.922   1.698   9.324  0.2044 -0.7246 -0.6457
  600MOL0     H79189   6.173   1.742   9.385  0.7499 -0.9626  1.2861
  600MOL0     H79190   6.302   1.652   9.781 -2.0566  0.2713 -0.5926
  600MOL0     H79191   6.374   1.800   9.743 -2.2519  0.3076 -1.6731
  600MOL0     H79192   6.498   1.555   9.646 -0.8231  0.0013 -1.7874
  600MOL0     H79193   6.540   1.715   9.601 -0.2347 -2.0038 -1.7728
  600MOL0     H79194   6.681   1.626   9.784 -0.9495  2.1275 -6.1842
  600MOL0     H79195   6.536   1.610   9.891 -1.1394  0.0630 -0.5434
  600MOL0     H79196   6.618   1.883   9.770 -2.1880 -1.0072 -0.2443
  600MOL0     H79197   6.525   1.848   9.916 -0.5574 -3.1739  1.1083
  600MOL0     H79198   6.931   1.882  10.050  1.2213 -1.5403 -1.8915
  600MOL0     H79199   6.125   1.536   9.746 -1.1635 -1.1827 -0.0012
  600MOL0     H79200   5.903   1.478   9.691  1.8800 -1.6274  0.0906
  601MOL0     O79201  11.070   0.171  10.822  0.4460  0.3278 -0.0233
  601MOL0     C79202  11.030   0.051  10.813  0.1066 -0.4107  0.0349
  601MOL0     O79203  11.111  -0.055  10.779  0.6829 -0.5504 -0.5043
  601MOL0     C79204  11.244  -0.036  10.742  0.8012  0.9475  0.2894
  601MOL0     C79205  11.339  -0.117  10.805 -0.5370  0.6707  0.0206
  601MOL0     C79206  11.471  -0.097  10.789  0.5960 -0.5331 -0.4377
  601MOL0     C79207  11.519  -0.002  10.695  0.1613 -0.5993  0.3307
  601MOL0     O79208  11.656  -0.015  10.671  0.6270 -0.2589  0.6464
  601MOL0     C79209  11.726   0.105  10.663  0.2739 -0.3989 -0.2156
  601MOL0     C79210  11.866   0.062  10.627  0.0314  0.4418 -0.0267
  601MOL0     C79211  11.871   0.020  10.477  0.9723 -0.1196  0.0582
  601MOL0     C79212  12.009  -0.008  10.445  0.0424 -0.4149 -0.9100
  601MOL0     C79213  12.039  -0.047  10.305 -0.0979 -0.1765  0.5366
  601MOL0     C79214  12.191  -0.066  10.292 -0.5620 -0.3179 -0.2635
  601MOL0     C79215  12.231  -0.047  10.153  0.8006  0.2458  0.6646
  601MOL0     C79216  12.184  -0.161  10.074  0.4576 -0.5068 -1.0821
  601MOL0     N79217  12.234  -0.152   9.935  0.5128  0.6977  0.0982
  601MOL0     C79218  12.363  -0.184   9.891  0.3529 -0.0231  0.2958
  601MOL0     C79219  12.348  -0.184   9.757  0.4428  0.5534  0.4442
  601MOL0     C79220  12.463  -0.221   9.671 -0.7614 -0.1937 -0.1437
  601MOL0     C79221  12.462  -0.157   9.532  0.7338  0.1440 -0.1956
  601MOL0     C79222  12.591  -0.184   9.457 -0.6304  0.5179 -0.2959
  601MOL0     C79223  12.575  -0.160   9.305 -0.1439 -0.0680 -0.4013
  601MOL0     O79224  12.555  -0.017   9.280  0.2940 -0.2770 -0.1579
  601MOL0     C79225  12.441   0.036   9.217  0.2605  0.0403 -1.1220
  601MOL0     C79226  12.316  -0.026   9.201 -0.0961 -0.6622  0.1708
  601MOL0     C79227  12.212   0.027   9.124 -0.3215 -0.2823  0.4021
  601MOL0     C79228  12.229   0.148   9.054 -0.5764 -0.5092 -0.2295
  601MOL0     C79229  12.123   0.204   8.979 -0.3246 -1.3634 -0.5979
  601MOL0     O79230  12.111   0.340   8.985  0.2005 -0.1698  0.6125
  601MOL0     C79231  11.991   0.403   8.946  0.5103 -0.0753  0.3327
  601MOL0     C79232  11.863   0.334   8.932 -0.1370 -0.0302 -0.4508
  601MOL0     C79233  11.747   0.391   8.882  0.4218  0.0854 -0.3374
  601MOL0     C79234  11.753   0.519   8.842 -0.8095  0.1436 -0.9332
  601MOL0     O79235  11.643   0.569   8.785 -0.1335  0.2670  0.3049
  601MOL0     C79236  11.659   0.661   8.672 -0.1489 -0.4573 -0.1089
  601MOL0     C79237  11.531   0.718   8.616  0.0243 -0.2487  0.0903
  601MOL0     C79238  11.438   0.606   8.572 -0.0779  0.5805  0.8850
  601MOL0     C79239  11.294   0.650   8.595 -0.0037  0.0017 -0.9958
  601MOL0     C79240  11.254   0.766   8.493  0.5704 -0.3366  0.5030
  601MOL0     C79241  11.093   0.785   8.480 -0.2508 -0.4842 -0.6048
  601MOL0     C79242  11.050   0.860   8.351 -0.2690  0.0382 -0.0655
  601MOL0     C79243  10.906   0.832   8.302 -0.5955  0.5711  0.1093
  601MOL0    Cl79244  10.800   0.876   8.435  0.6091  0.4604  0.1017
  601MOL0     C79245  11.866   0.597   8.864 -0.3062 -0.2026  0.7718
  601MOL0     C79246  11.983   0.540   8.919  0.7109 -0.5883  0.9494
  601MOL0     O79247  12.058   0.129   8.910  0.5596 -0.6726 -0.1572
  601MOL0     C79248  12.354   0.215   9.070  0.4919  1.1143  0.7295
  601MOL0     C79249  12.459   0.156   9.146  0.3048 -0.0949  1.0068
  601MOL0     N79250  12.226  -0.142   9.718  0.1904  0.2398  0.5801
  601MOL0     N79251  12.149  -0.138   9.825 -0.4279 -0.0724  0.5258
  601MOL0     C79252  11.428   0.092  10.638 -0.4216 -0.7868  0.2274
  601MOL0     C79253  11.291   0.070  10.658 -0.3200  0.2348 -0.5625
  601MOL0     C79254  10.888   0.008  10.854  0.1980 -0.4142 -0.3425
  601MOL0     C79255  10.850  -0.125  10.849 -0.4683 -0.4651  0.0910
  601MOL0     C79256  10.721  -0.163  10.884  0.3203 -0.4094 -0.1954
  601MOL0     C79257  10.625  -0.068  10.910  0.1966  0.8258 -0.3411
  601MOL0     O79258  10.501  -0.104  10.943  0.2361  0.6601  0.1817
  601MOL0     C79259  10.458  -0.248  10.963 -0.6312  0.1178 -0.4298
  601MOL0     C79260  10.311  -0.261  10.981 -0.2048  0.4691  0.2453
  601MOL0     C79261  10.258  -0.250  11.124  0.3527 -0.1544 -0.4678
  601MOL0     C79262  10.112  -0.291  11.130  0.4523 -0.2240 -0.1309
  601MOL0     C79263  10.059  -0.279  11.267 -0.2306  0.1296  0.4070
  601MOL0     C79264  10.019  -0.272  11.384 -1.3264  0.8445  0.5743
  601MOL0     C79265  10.655   0.065  10.902 -0.4405 -0.3293 -0.7429
  601MOL0     C79266  10.790   0.104  10.877 -0.6646 -0.4195 -0.5931
  601MOL0     H79267  11.309  -0.196  10.874  1.6156  0.7019  1.0610
  601MOL0     H79268  11.531  -0.152  10.861  1.5060  0.5948 -0.3039
  601MOL0     H79269  11.739   0.158  10.758  3.1279  0.2856 -0.8800
  601MOL0     H79270  11.692   0.178  10.590 -0.6875 -0.2774  0.3410
  601MOL0     H79271  11.900  -0.012  10.701  0.9794 -1.5663 -2.3271
  601MOL0     H79272  11.932   0.146  10.649 -1.6288  1.9180 -0.4476
  601MOL0     H79273  11.837   0.099  10.410 -1.1126  0.4368  1.6791
  601MOL0     H79274  11.810  -0.068  10.456  1.9321 -0.2175 -2.6258
  601MOL0     H79275  12.071   0.078  10.474 -0.2112 -0.2367 -0.8849
  601MOL0     H79276  12.052  -0.084  10.511  3.8203  0.3556 -2.2144
  601MOL0     H79277  12.004   0.021  10.227  1.0681 -1.9176 -1.6380
  601MOL0     H79278  11.990  -0.141  10.277  0.0949  0.1538 -1.0456
  601MOL0     H79279  12.217  -0.163  10.335 -3.6695  0.4100  3.8728
  601MOL0     H79280  12.250   0.002  10.354 -2.7116 -1.0661  2.8487
  601MOL0     H79281  12.187   0.041  10.107  1.9554 -0.6216 -2.3307
  601MOL0     H79282  12.339  -0.027  10.148  0.5415  1.4857 -0.3749
  601MOL0     H79283  12.077  -0.184  10.076  0.8596 -2.6647 -1.3400
  601MOL0     H79284  12.226  -0.256  10.108  0.5095 -0.7271 -1.7495
  601MOL0     H79285  12.449  -0.210   9.951  2.5754  0.2457 -2.5738
  601MOL0     H79286  12.475  -0.330   9.665 -1.0801 -0.2354 -0.0329
  601MOL0     H79287  12.556  -0.189   9.719 -0.5509 -1.7512  0.5672
  601MOL0     H79288  12.452  -0.049   9.550 -0.3605  0.0663 -0.3075
  601MOL0     H79289  12.383  -0.201   9.472 -0.4358  1.4326  0.3397
  601MOL0     H79290  12.659  -0.103   9.486  1.0850 -0.3741 -1.6689
  601MOL0     H79291  12.628  -0.286   9.474  2.3396  1.2745 -1.5252
  601MOL0     H79292  12.500  -0.228   9.264 -1.2070  0.9755 -0.2484
  601MOL0     H79293  12.667  -0.186   9.252 -1.5762  1.4267 -3.9901
  601MOL0     H79294  12.302  -0.126   9.239  0.4657 -0.8893 -0.2067
  601MOL0     H79295  12.118  -0.026   9.114  0.0465 -0.6244 -1.9883
  601MOL0     H79296  11.847   0.230   8.957  0.1131  0.0257 -0.0479
  601MOL0     H79297  11.649   0.347   8.871 -1.1195  3.8475 -4.4922
  601MOL0     H79298  11.714   0.612   8.591 -0.7742 -3.2985  1.0406
  601MOL0     H79299  11.706   0.753   8.707 -1.7471  2.7992 -5.3209
  601MOL0     H79300  11.560   0.778   8.529  0.9192 -0.1806  0.4257
  601MOL0     H79301  11.477   0.783   8.686 -1.2196  1.2093 -2.0972
  601MOL0     H79302  11.451   0.524   8.643 -0.2829  0.8675  1.2621
  601MOL0     H79303  11.455   0.571   8.470 -2.2076  2.2877 -0.1375
  601MOL0     H79304  11.239   0.555   8.589  0.0441  0.0011 -1.4308
  601MOL0     H79305  11.283   0.690   8.697  3.3024 -1.3971  0.0280
  601MOL0     H79306  11.286   0.740   8.392 -0.0724  0.2197  0.1450
  601MOL0     H79307  11.306   0.858   8.520  2.5419 -0.9365 -1.0228
  601MOL0     H79308  11.063   0.846   8.565 -0.3686  0.6372 -1.4255
  601MOL0     H79309  11.059   0.681   8.484  3.9935 -2.0396  1.9398
  601MOL0     H79310  11.075   0.963   8.381 -1.0090  0.1028  0.3594
  601MOL0     H79311  11.111   0.825   8.267  0.8322  0.2201  0.6341
  601MOL0     H79312  10.892   0.728   8.272  2.9369 -0.8843  2.6950
  601MOL0     H79313  10.873   0.895   8.219 -1.3074  0.9173  0.6465
  601MOL0     H79314  11.872   0.702   8.839  2.5672 -0.7011 -1.0322
  601MOL0     H79315  12.067   0.608   8.925 -0.3439  0.6297  3.3581
  601MOL0     H79316  12.366   0.313   9.023 -0.3182  0.9898  0.2474
  601MOL0     H79317  12.549   0.213   9.167 -1.3559  2.7585  0.9597
  601MOL0     H79318  11.453   0.179  10.579 -1.4805  0.3804  1.4443
  601MOL0     H79319  11.225   0.143  10.610  1.6676  3.6976  1.5575
  601MOL0     H79320  10.914  -0.208  10.821 -1.3679 -1.9637  2.2337
  601MOL0     H79321  10.698  -0.268  10.892 -0.7225 -0.0508  2.7781
  601MOL0     H79322  10.505  -0.281  11.056 -0.0106 -1.4413 -1.2737
  601MOL0     H79323  10.493  -0.302  10.875  1.2905  0.8875 -0.2086
  601MOL0     H79324  10.266  -0.181  10.922  0.1573  2.6521  2.7151
  601MOL0     H79325  10.279  -0.358  10.943  1.4417  0.1498 -0.3970
  601MOL0     H79326  10.256  -0.147  11.161 -0.8692 -0.6346  0.9025
  601MOL0     H79327  10.314  -0.310  11.197 -1.2217 -1.4815 -0.3056
  601MOL0     H79328  10.052  -0.223  11.068  0.3037 -0.1929  0.0483
  601MOL0     H79329  10.103  -0.396  11.100  1.3803 -0.8813  1.7291
  601MOL0     H79330  10.004  -0.272  11.490  2.2193 -0.7378  1.2478
  601MOL0     H79331  10.563   0.120  10.918  0.4548  1.1480 -0.4185
  601MOL0     H79332  10.802   0.212  10.886 -1.3296  0.2210 -5.0290
  602MOL0     O79333   1.737  10.094  10.523  0.0953  0.8994 -0.2095
  602MOL0     C79334   1.658  10.009  10.570 -0.4925  1.0754  0.6577
  602MOL0     O79335   1.514  10.010  10.556 -0.0739 -0.3405  0.5138
  602MOL0     C79336   1.458  10.092  10.463  1.4462 -0.7000 -0.9434
  602MOL0     C79337   1.510  10.111  10.335  0.2861 -0.2531  0.7750
  602MOL0     C79338   1.464  10.208  10.247 -0.0348 -0.7928  0.1594
  602MOL0     C79339   1.358  10.292  10.280 -0.1023  0.8863  0.5235
  602MOL0     O79340   1.339  10.402  10.196  0.0549 -0.0157 -0.4168
  602MOL0     C79341   1.203  10.434  10.215  0.7679 -0.1274  0.2561
  602MOL0     C79342   1.172  10.534  10.113  0.2846  0.1516  0.5004
  602MOL0     C79343   1.036  10.606  10.113 -0.9940  0.1251 -0.9327
  602MOL0     C79344   1.025  10.713  10.009  0.4258  0.3305 -0.5181
  602MOL0     C79345   0.876  10.758   9.990 -0.0225 -0.4733  0.2915
  602MOL0     C79346   0.853  10.810   9.847  0.2125 -1.2453 -0.9918
  602MOL0     C79347   0.721  10.894   9.833 -0.6921  0.3656 -0.7183
  602MOL0     C79348   0.598  10.803   9.806 -0.3347  0.6753 -0.0410
  602MOL0     N79349   0.483  10.891   9.766 -0.3651 -0.6290 -0.2745
  602MOL0     C79350   0.452  10.934   9.640 -0.3558  0.0290  1.2831
  602MOL0     C79351   0.337  10.997   9.648  0.5598  0.5298 -0.1961
  602MOL0     C79352   0.265  11.049   9.518  0.6362  0.1033 -0.3602
  602MOL0     C79353   0.128  10.996   9.516 -0.4619  0.3858 -0.8936
  602MOL0     C79354   0.048  11.014   9.389 -0.3107  0.3582  0.4106
  602MOL0     C79355   0.044  11.151   9.341  0.6485  0.0089  0.4815
  602MOL0     O79356  -0.025  11.147   9.209  1.0067  0.0103 -0.7570
  602MOL0     C79357   0.027  11.113   9.094  0.1873 -0.1130 -0.6011
  602MOL0     C79358   0.158  11.060   9.085  0.5245  0.0523 -0.3809
  602MOL0     C79359   0.206  11.025   8.959  0.0161  0.3365 -0.1478
  602MOL0     C79360   0.126  11.042   8.842 -0.7587 -0.8960 -0.3309
  602MOL0     C79361   0.176  11.011   8.714  0.1260  0.4473 -0.0689
  602MOL0     O79362   0.103  11.058   8.601 -0.3541  0.2314  0.2103
  602MOL0     C79363   0.111  11.005   8.478 -0.2701  0.5608 -0.0416
  602MOL0     C79364   0.224  10.969   8.402 -0.7553  0.7206 -0.4456
  602MOL0     C79365   0.218  10.911   8.272 -0.5555  0.2793  0.4942
  602MOL0     C79366   0.088  10.906   8.214 -0.6980 -0.1545 -0.1859
  602MOL0     O79367   0.071  10.850   8.089  0.7207  0.0303 -0.0988
  602MOL0     C79368  -0.061  10.821   8.036  0.2806 -0.0377  0.0515
  602MOL0     C79369  -0.059  10.751   7.902  0.3663  0.4879  0.2248
  602MOL0     C79370  -0.189  10.699   7.841 -0.1674  0.7108 -0.3588
  602MOL0     C79371  -0.237  10.575   7.921 -0.1240  0.1497  0.2780
  602MOL0     C79372  -0.174  10.437   7.887  0.2871  0.5806 -0.2597
  602MOL0     C79373  -0.199  10.396   7.744 -0.5530 -0.2507  0.5783
  602MOL0     C79374  -0.192  10.244   7.739  0.0576 -0.2811 -0.2994
  602MOL0     C79375  -0.220  10.187   7.599 -0.6232 -0.3188  0.3471
  602MOL0    Cl79376  -0.080  10.121   7.510 -0.2046 -0.2719  0.3013
  602MOL0     C79377  -0.023  10.951   8.291  0.3093  0.3688 -0.2876
  602MOL0     C79378  -0.012  10.995   8.427 -0.2870 -0.1500  0.7463
  602MOL0     O79379   0.266  10.925   8.708  0.2015  0.8643 -0.3251
  602MOL0     C79380   0.005  11.118   8.859  0.0037  0.4990  0.0693
  602MOL0     C79381  -0.048  11.136   8.983 -0.6167  0.9696  0.1275
  602MOL0     N79382   0.296  11.004   9.784 -1.0474  0.4807 -0.9302
  602MOL0     N79383   0.388  10.939   9.853  0.2259  0.3645 -0.3501
  602MOL0     C79384   1.303  10.272  10.407 -1.3367  0.2739  0.0040
  602MOL0     C79385   1.349  10.174  10.502  0.0950  0.2353 -0.1905
  602MOL0     C79386   1.709   9.904  10.658 -0.1159  0.8113 -0.2797
  602MOL0     C79387   1.631   9.806  10.699  0.5142  0.2066  0.0234
  602MOL0     C79388   1.687   9.691  10.762 -0.5108 -0.3742  0.0962
  602MOL0     C79389   1.825   9.679  10.788 -0.2815  1.0082 -0.5654
  602MOL0     O79390   1.866   9.569  10.850  0.1390  0.5724 -0.3870
  602MOL0     C79391   1.985   9.563  10.936  0.0176 -0.5191 -0.3594
  602MOL0     C79392   1.988   9.431  11.005  0.0616  0.2222 -0.3444
  602MOL0     C79393   2.127   9.390  11.055  0.1885  0.4312 -0.1539
  602MOL0     C79394   2.120   9.270  11.162  0.5200 -0.1084  0.0169
  602MOL0     C79395   2.226   9.290  11.255 -0.4512  0.5533  0.2521
  602MOL0     C79396   2.323   9.320  11.323 -0.5193  0.3798  0.0331
  602MOL0     C79397   1.905   9.784  10.760  0.7225  0.6680  0.0399
  602MOL0     C79398   1.845   9.893  10.695 -0.0558  0.7197  0.0508
  602MOL0     H79399   1.591  10.052  10.293 -0.1928  1.7350 -3.4968
  602MOL0     H79400   1.504  10.217  10.147 -0.8332 -1.6134 -0.2401
  602MOL0     H79401   1.189  10.474  10.316 -0.4926  0.3410 -0.0928
  602MOL0     H79402   1.139  10.347  10.200  0.1611  0.3889 -0.1996
  602MOL0     H79403   1.190  10.480  10.020 -3.1308  3.1942 -2.2546
  602MOL0     H79404   1.242  10.618  10.119  0.0997  0.4137 -0.8360
  602MOL0     H79405   1.021  10.656  10.210 -0.1369 -2.2235  0.5108
  602MOL0     H79406   0.956  10.534  10.097 -3.2098  2.0675  0.7726
  602MOL0     H79407   1.080  10.804  10.033 -0.8550  0.8876  0.4131
  602MOL0     H79408   1.060  10.671   9.914  0.1880  1.5279 -1.1572
  602MOL0     H79409   0.847  10.829  10.068  0.7751 -1.9444  2.0022
  602MOL0     H79410   0.806  10.674  10.000  0.2644 -0.6072  1.2568
  602MOL0     H79411   0.842  10.724   9.781 -0.3455 -0.4904 -1.9165
  602MOL0     H79412   0.938  10.877   9.828 -1.0121  0.0215 -2.2366
  602MOL0     H79413   0.704  10.961   9.918  1.5672 -0.2516  0.2819
  602MOL0     H79414   0.732  10.951   9.741  0.0647 -1.5373 -1.8732
  602MOL0     H79415   0.562  10.740   9.888 -0.6781 -0.8879 -1.3270
  602MOL0     H79416   0.622  10.727   9.731 -3.1441  0.2972 -0.6670
  602MOL0     H79417   0.509  10.931   9.548 -1.1836  3.4410  0.5209
  602MOL0     H79418   0.313  11.005   9.430  1.1199  1.2788 -0.7080
  602MOL0     H79419   0.263  11.159   9.510  1.4477  0.1303 -0.3048
  602MOL0     H79420   0.080  11.055   9.595 -1.2656 -1.2132 -0.1433
  602MOL0     H79421   0.131  10.891   9.546  4.0462  0.3989 -0.5382
  602MOL0     H79422   0.093  10.953   9.310  0.2473  1.3612 -0.0641
  602MOL0     H79423  -0.051  10.969   9.397 -1.3541  2.3394 -0.7317
  602MOL0     H79424   0.146  11.188   9.324  1.0493 -0.9494  0.7454
  602MOL0     H79425  -0.002  11.219   9.413  1.9703  0.5733  0.8283
  602MOL0     H79426   0.228  11.047   9.167  2.5097 -0.0612 -1.9961
  602MOL0     H79427   0.302  10.975   8.951  0.8674  1.0668  3.4759
  602MOL0     H79428   0.320  10.981   8.452  0.0040 -2.2373 -0.9938
  602MOL0     H79429   0.307  10.877   8.220 -1.0470  1.5849 -1.2816
  602MOL0     H79430  -0.116  10.909   8.004 -0.3418 -0.4404 -0.0094
  602MOL0     H79431  -0.116  10.762   8.110 -1.1058 -0.2570 -1.0949
  602MOL0     H79432   0.015  10.671   7.898 -1.2318 -1.1390  1.4882
  602MOL0     H79433  -0.018  10.823   7.830 -0.8783  0.1942 -0.7879
  602MOL0     H79434  -0.188  10.683   7.732 -1.3011 -0.4018 -0.2292
  602MOL0     H79435  -0.257  10.785   7.852  0.6886  1.3076  0.4031
  602MOL0     H79436  -0.233  10.599   8.028 -0.5676 -0.1686  0.3731
  602MOL0     H79437  -0.342  10.559   7.893 -0.0266  2.3076 -1.5569
  602MOL0     H79438  -0.223  10.369   7.956  0.1272  1.3758  0.4199
  602MOL0     H79439  -0.070  10.429   7.919  0.6769 -2.4372 -1.9741
  602MOL0     H79440  -0.131  10.441   7.671 -2.7449 -0.3412 -1.6199
  602MOL0     H79441  -0.300  10.427   7.719 -2.2564 -3.5050  2.6605
  602MOL0     H79442  -0.101  10.207   7.788 -0.1857 -1.4411 -0.6951
  602MOL0     H79443  -0.275  10.215   7.805  1.1746  2.2363  2.4503
  602MOL0     H79444  -0.270  10.266   7.542  0.6816  1.4902  1.6094
  602MOL0     H79445  -0.284  10.099   7.608  0.4002 -1.2785 -1.2578
  602MOL0     H79446  -0.115  10.960   8.235 -0.2862  0.0434  0.6154
  602MOL0     H79447  -0.108  11.017   8.474 -0.1601 -2.1839  2.0873
  602MOL0     H79448  -0.072  11.132   8.784 -0.7929 -1.7378  0.3845
  602MOL0     H79449  -0.149  11.175   8.988 -1.6938 -0.7461 -3.9920
  602MOL0     H79450   1.224  10.332  10.450 -1.2110  0.3612  0.1117
  602MOL0     H79451   1.292  10.144  10.589  2.2094 -6.3463 -0.5263
  602MOL0     H79452   1.524   9.805  10.683 -0.0093 -0.7325  2.8663
  602MOL0     H79453   1.628   9.611  10.806 -0.2885 -1.4972 -1.5469
  602MOL0     H79454   1.996   9.639  11.014  0.6769 -2.2213  1.2849
  602MOL0     H79455   2.081   9.571  10.884  0.2413 -1.0660 -0.0377
  602MOL0     H79456   1.920   9.437  11.091  0.0583  3.3656 -0.4626
  602MOL0     H79457   1.946   9.363  10.930 -3.6319  1.3209  0.5538
  602MOL0     H79458   2.170   9.479  11.101  2.3219 -0.3307 -0.5576
  602MOL0     H79459   2.181   9.359  10.965  0.0941 -2.1020  0.5864
  602MOL0     H79460   2.027   9.270  11.219  0.8042 -1.4692  0.4972
  602MOL0     H79461   2.123   9.167  11.127 -3.4312 -0.1844 -0.4571
  602MOL0     H79462   2.416   9.333  11.375  0.6564  0.9306 -2.0534
  602MOL0     H79463   2.010   9.776  10.787  1.3236 -0.1069 -2.3207
  602MOL0     H79464   1.904   9.975  10.655  1.3056 -0.3341 -0.2153
  603MOL0     O79465   1.529   6.607   0.204  0.3548 -0.0574  0.0192
  603MOL0     C79466   1.523   6.662   0.092  0.1056 -0.4687 -0.3826
  603MOL0     O79467   1.406   6.713   0.041  0.2058  0.0569 -0.0285
  603MOL0     C79468   1.289   6.710   0.112  0.3763  0.9024  0.0358
  603MOL0     C79469   1.266   6.686   0.247 -0.2264  0.8842  0.3703
  603MOL0     C79470   1.142   6.695   0.297  0.4347  0.0346  0.2455
  603MOL0     C79471   1.030   6.733   0.222  0.3578 -0.5249  0.0240
  603MOL0     O79472   0.911   6.736   0.294  0.4214  0.5866  0.0392
  603MOL0     C79473   0.790   6.755   0.221 -0.4751 -0.5838 -0.3198
  603MOL0     C79474   0.677   6.745   0.317 -0.7189 -0.5353  0.3251
  603MOL0     C79475   0.541   6.800   0.265 -0.2429  0.1892 -0.4337
  603MOL0     C79476   0.440   6.808   0.390 -0.2378 -0.2497  0.1148
  603MOL0     C79477   0.298   6.808   0.343 -0.4087 -0.6494  1.1343
  603MOL0     C79478   0.190   6.825   0.450  0.4540  0.2767 -0.9223
  603MOL0     C79479   0.130   6.694   0.509 -0.4141  0.0802 -0.3158
  603MOL0     C79480   0.042   6.616   0.415  0.4798  1.5788 -0.1849
  603MOL0     N79481  -0.087   6.672   0.384 -0.6470 -0.0591  1.1294
  603MOL0     C79482  -0.175   6.600   0.305 -1.0715 -0.3714 -0.4720
  603MOL0     C79483  -0.284   6.679   0.290  0.6038  0.2393  0.8579
  603MOL0     C79484  -0.420   6.636   0.221 -0.1086  0.4838  0.0014
  603MOL0     C79485  -0.537   6.693   0.299 -0.6364  0.2539  0.7516
  603MOL0     C79486  -0.669   6.638   0.238  0.2168 -0.7376 -0.4984
  603MOL0     C79487  -0.779   6.658   0.350 -0.8395  0.4694  0.9477
  603MOL0     O79488  -0.903   6.638   0.288 -0.2263  0.2674 -0.1888
  603MOL0     C79489  -0.968   6.510   0.303 -0.2806 -0.0339  0.4746
  603MOL0     C79490  -1.107   6.498   0.279  0.4264  0.3546 -0.5043
  603MOL0     C79491  -1.176   6.386   0.326  0.7487  0.5580  0.2360
  603MOL0     C79492  -1.112   6.278   0.380 -0.1756  0.4802 -0.1971
  603MOL0     C79493  -1.183   6.157   0.434 -0.5247  0.3497  0.0658
  603MOL0     O79494  -1.316   6.153   0.408 -0.0189 -0.5596  0.4472
  603MOL0     C79495  -1.389   6.036   0.388  0.2789 -0.3244 -0.8079
  603MOL0     C79496  -1.380   5.915   0.453 -0.9352  0.3037  0.7972
  603MOL0     C79497  -1.476   5.805   0.428 -0.7807 -0.0416 -0.6138
  603MOL0     C79498  -1.570   5.813   0.326 -0.0054  0.4194 -0.3764
  603MOL0     O79499  -1.643   5.694   0.307 -0.2470 -1.1174 -0.4522
  603MOL0     C79500  -1.765   5.708   0.233 -0.4692  0.4137  0.4434
  603MOL0     C79501  -1.875   5.789   0.294  0.2040 -0.1185  0.6208
  603MOL0     C79502  -1.913   5.732   0.435  0.3215  0.3086 -0.6422
  603MOL0     C79503  -1.806   5.743   0.542 -0.5749  0.7029  0.3881
  603MOL0     C79504  -1.864   5.721   0.684  0.0086 -0.1812 -0.0175
  603MOL0     C79505  -1.747   5.715   0.789  0.1391 -0.1898  0.1855
  603MOL0     C79506  -1.631   5.607   0.755  0.8712 -0.5188  0.2845
  603MOL0     C79507  -1.578   5.534   0.879 -0.5728 -0.1283 -0.0238
  603MOL0    Cl79508  -1.441   5.637   0.937  0.3544  0.2076 -0.2183
  603MOL0     C79509  -1.572   5.936   0.249 -0.3875  1.1670  0.8392
  603MOL0     C79510  -1.482   6.045   0.281 -0.2285  0.6232 -0.6357
  603MOL0     O79511  -1.121   6.065   0.477 -0.4604  0.0089 -0.2483
  603MOL0     C79512  -0.970   6.278   0.392  0.4182  0.5010  0.9585
  603MOL0     C79513  -0.904   6.398   0.358 -0.0973  0.6583  0.7165
  603MOL0     N79514  -0.262   6.785   0.379  0.7889  0.4919 -0.7483
  603MOL0     N79515  -0.147   6.790   0.426  0.3809 -0.5891  0.3822
  603MOL0     C79516   1.051   6.758   0.092  0.1415 -0.5601 -0.0856
  603MOL0     C79517   1.184   6.754   0.037  0.0428 -0.7302 -0.4919
  603MOL0     C79518   1.634   6.656  -0.000 -1.1455  0.7586 -0.1759
  603MOL0     C79519   1.634   6.718  -0.125  0.4757  0.9752 -0.1867
  603MOL0     C79520   1.749   6.723  -0.200 -0.8998  0.4958  0.3238
  603MOL0     C79521   1.863   6.652  -0.164 -0.8472  0.3459 -0.5890
  603MOL0     O79522   1.982   6.650  -0.244 -0.5390 -0.5782 -0.0648
  603MOL0     C79523   2.070   6.535  -0.244 -0.7280  0.3068  0.5584
  603MOL0     C79524   1.990   6.423  -0.310 -0.1750  0.9362  0.4176
  603MOL0     C79525   2.058   6.274  -0.292  0.4114 -0.4247  0.5338
  603MOL0     C79526   1.962   6.168  -0.354  0.7664 -0.3657  1.0691
  603MOL0     C79527   2.033   6.037  -0.363 -0.2257 -0.0452  0.8946
  603MOL0     C79528   2.073   5.936  -0.392 -0.2312  0.1101 -0.4322
  603MOL0     C79529   1.864   6.586  -0.040  0.8762 -0.0417 -0.2374
  603MOL0     C79530   1.759   6.594   0.048  0.5251  0.7209 -0.0948
  603MOL0     H79531   1.342   6.648   0.315 -0.4865 -3.0228 -1.2715
  603MOL0     H79532   1.126   6.686   0.404  1.5870  2.2284  0.6756
  603MOL0     H79533   0.780   6.688   0.135  0.3788  0.7582 -1.5125
  603MOL0     H79534   0.790   6.856   0.180 -2.6664  0.1959  1.4083
  603MOL0     H79535   0.700   6.801   0.407 -1.5053 -1.7752  1.3352
  603MOL0     H79536   0.666   6.640   0.348 -1.6371  0.0642  2.1759
  603MOL0     H79537   0.502   6.725   0.196  0.9183 -0.0603 -0.8545
  603MOL0     H79538   0.548   6.894   0.210 -1.2576  0.0363 -0.8324
  603MOL0     H79539   0.455   6.729   0.464 -1.1113  0.5815  1.2255
  603MOL0     H79540   0.462   6.900   0.446 -0.1772 -0.8845  1.1597
  603MOL0     H79541   0.283   6.724   0.274  3.6823  0.2897 -1.2490
  603MOL0     H79542   0.287   6.898   0.282  0.7560  3.0217  5.7693
  603MOL0     H79543   0.106   6.883   0.411 -2.4706 -2.0457  1.4738
  603MOL0     H79544   0.224   6.891   0.531  1.8233 -0.3781 -0.9302
  603MOL0     H79545   0.205   6.626   0.550  0.4953  0.4703 -1.2937
  603MOL0     H79546   0.075   6.717   0.601  0.8827 -3.3048  1.5022
  603MOL0     H79547   0.021   6.517   0.456 -3.4543  1.2556 -2.4813
  603MOL0     H79548   0.091   6.596   0.319  2.6274  1.1479  0.9435
  603MOL0     H79549  -0.168   6.494   0.284  0.3390 -0.3688 -0.1192
  603MOL0     H79550  -0.407   6.528   0.210 -1.5640  0.3367 -0.5248
  603MOL0     H79551  -0.412   6.671   0.118  0.4681  0.2072 -0.0505
  603MOL0     H79552  -0.534   6.801   0.282  1.2430  0.2442  0.8450
  603MOL0     H79553  -0.527   6.677   0.406  2.4473  2.9802  1.0027
  603MOL0     H79554  -0.697   6.710   0.161  2.3660  2.6101  1.5599
  603MOL0     H79555  -0.675   6.534   0.206 -0.9415 -1.5970  2.2337
  603MOL0     H79556  -0.778   6.759   0.392 -0.3889 -0.1151  2.3910
  603MOL0     H79557  -0.750   6.588   0.428 -2.5559 -3.0131 -1.2773
  603MOL0     H79558  -1.156   6.581   0.229 -2.3735  1.0845  3.0114
  603MOL0     H79559  -1.284   6.395   0.331  0.7081  1.8045 -1.9760
  603MOL0     H79560  -1.294   5.887   0.514 -1.1836 -2.7123 -0.0669
  603MOL0     H79561  -1.455   5.721   0.494 -2.0197  1.7795  2.2933
  603MOL0     H79562  -1.788   5.603   0.212 -0.2887  0.7507 -1.7421
  603MOL0     H79563  -1.747   5.752   0.134 -5.2288 -1.0457 -1.3638
  603MOL0     H79564  -1.966   5.793   0.233 -0.7697  0.8217  2.0509
  603MOL0     H79565  -1.843   5.892   0.309 -1.4360  0.6622 -0.9098
  603MOL0     H79566  -1.950   5.629   0.436 -1.3167  0.8800  0.1021
  603MOL0     H79567  -1.994   5.793   0.475  1.2085 -1.6390  5.0207
  603MOL0     H79568  -1.741   5.658   0.518 -2.1538 -0.0691 -1.4660
  603MOL0     H79569  -1.748   5.836   0.542  1.1877 -0.2217 -3.1244
  603MOL0     H79570  -1.917   5.626   0.682 -0.3455  0.0369 -1.6955
  603MOL0     H79571  -1.920   5.806   0.725  2.5602  0.0597  3.4781
  603MOL0     H79572  -1.796   5.705   0.886 -1.3961  0.8154 -0.4416
  603MOL0     H79573  -1.699   5.814   0.795 -1.1644  0.4796 -0.0142
  603MOL0     H79574  -1.670   5.529   0.689 -1.5928  1.9817 -1.4801
  603MOL0     H79575  -1.548   5.656   0.703  2.7427 -1.7158  2.0025
  603MOL0     H79576  -1.522   5.440   0.872  3.0437  1.8308  0.2191
  603MOL0     H79577  -1.657   5.528   0.955 -1.9696  3.1900 -1.0629
  603MOL0     H79578  -1.654   5.943   0.179  0.3056  0.4076 -0.0845
  603MOL0     H79579  -1.486   6.140   0.229  2.9728  1.4438  0.3800
  603MOL0     H79580  -0.918   6.195   0.438  0.3648  0.2076  0.4944
  603MOL0     H79581  -0.799   6.406   0.382  0.1157  3.1326 -0.7280
  603MOL0     H79582   0.963   6.798   0.043  1.2195  3.1493  0.7052
  603MOL0     H79583   1.211   6.787  -0.063 -2.3601  0.8081 -0.7246
  603MOL0     H79584   1.551   6.769  -0.173 -1.6521 -2.9857 -1.1932
  603MOL0     H79585   1.750   6.780  -0.292  0.4358 -0.6086 -0.3832
  603MOL0     H79586   2.109   6.510  -0.145  0.0074  0.9678  0.4388
  603MOL0     H79587   2.162   6.555  -0.299  1.5717 -0.9437  3.6399
  603MOL0     H79588   1.890   6.423  -0.267 -0.8846 -0.7131 -1.1111
  603MOL0     H79589   1.981   6.430  -0.419  0.9219  0.5120  0.2843
  603MOL0     H79590   2.089   6.256  -0.189  0.6841  3.4030  1.2620
  603MOL0     H79591   2.148   6.285  -0.353  0.9359 -1.3465  1.1153
  603MOL0     H79592   1.881   6.156  -0.282 -0.7146 -0.1564 -0.5081
  603MOL0     H79593   1.933   6.213  -0.450 -0.4930 -0.1805  1.5286
  603MOL0     H79594   2.115   5.838  -0.410 -0.1697 -0.4893  2.5201
  603MOL0     H79595   1.943   6.518  -0.010 -0.2239 -1.2285  0.0889
  603MOL0     H79596   1.759   6.546   0.145 -0.2193 -2.2943 -1.4748
  604MOL0     O79597   9.775   3.008   0.005 -0.0316  0.1127  0.0633
  604MOL0     C79598   9.755   3.130  -0.008  0.4609  0.3555 -0.1306
  604MOL0     O79599   9.650   3.174  -0.083  0.1944  0.2466  0.1618
  604MOL0     C79600   9.540   3.103  -0.125 -0.6059 -0.4422  0.3017
  604MOL0     C79601   9.489   2.984  -0.069 -0.5687 -0.1951 -0.6894
  604MOL0     C79602   9.385   2.915  -0.122 -0.4586 -1.0033  0.6868
  604MOL0     C79603   9.337   2.948  -0.250 -1.4158 -0.1964  0.8426
  604MOL0     O79604   9.237   2.873  -0.305 -0.0910  0.1997 -0.4592
  604MOL0     C79605   9.172   2.922  -0.425  0.7712  0.0347  0.0287
  604MOL0     C79606   9.073   2.801  -0.456 -0.0970 -0.5727 -0.3085
  604MOL0     C79607   8.978   2.843  -0.572 -0.4862  0.4901  0.0312
  604MOL0     C79608   8.899   2.724  -0.642  0.2699 -0.6308  0.2873
  604MOL0     C79609   8.783   2.777  -0.738 -0.3585  0.0560 -0.3268
  604MOL0     C79610   8.718   2.658  -0.803  0.8827 -0.1664 -0.1261
  604MOL0     C79611   8.629   2.695  -0.918  0.3963  0.5846  0.1636
  604MOL0     C79612   8.704   2.765  -1.035  0.2305  0.6313  0.6570
  604MOL0     N79613   8.619   2.770  -1.158  0.2438  0.4333 -0.0379
  604MOL0     C79614   8.541   2.876  -1.185  0.1476 -0.5942 -0.4896
  604MOL0     C79615   8.507   2.855  -1.316  0.3584 -0.1669 -0.4992
  604MOL0     C79616   8.444   2.954  -1.410  0.1424  0.2201  0.0826
  604MOL0     C79617   8.332   2.884  -1.497  0.5873  0.1019  0.2189
  604MOL0     C79618   8.211   2.838  -1.412 -0.8270 -1.6076 -0.1208
  604MOL0     C79619   8.083   2.813  -1.502 -0.2814 -0.0666  0.2671
  604MOL0     O79620   8.033   2.947  -1.519  0.3921 -0.0856 -0.8365
  604MOL0     C79621   7.924   2.964  -1.594  0.5455  0.1427  0.7366
  604MOL0     C79622   7.927   3.042  -1.709  0.3249  0.8634 -0.1137
  604MOL0     C79623   7.804   3.059  -1.777 -0.6160  0.5943 -1.1247
  604MOL0     C79624   7.681   3.010  -1.729  0.7016 -0.2585 -0.7757
  604MOL0     C79625   7.565   3.047  -1.807 -0.8707 -1.3344 -0.7369
  604MOL0     O79626   7.576   3.129  -1.921 -0.6862 -0.0369  0.2267
  604MOL0     C79627   7.466   3.167  -1.993  0.2670 -0.5516 -0.3076
  604MOL0     C79628   7.327   3.165  -1.972 -0.4919  0.7394 -0.2975
  604MOL0     C79629   7.237   3.224  -2.058  0.6712  0.0751 -0.1176
  604MOL0     C79630   7.280   3.301  -2.164  0.0965 -0.1586  0.1523
  604MOL0     O79631   7.186   3.362  -2.251 -0.8144 -0.1118 -0.0476
  604MOL0     C79632   7.232   3.447  -2.354 -0.3174  0.1425 -0.9265
  604MOL0     C79633   7.117   3.500  -2.425  0.5369  1.3849 -0.6106
  604MOL0     C79634   7.143   3.546  -2.568  0.0417  0.0622  0.1388
  604MOL0     C79635   7.015   3.538  -2.655  0.3677  0.6734 -0.6221
  604MOL0     C79636   6.897   3.622  -2.594  0.1966  0.3513  0.1412
  604MOL0     C79637   6.774   3.611  -2.670 -0.7559 -0.7188  0.3386
  604MOL0     C79638   6.710   3.471  -2.684 -0.0647 -0.5679  0.1010
  604MOL0     C79639   6.590   3.471  -2.785 -0.2967 -0.8899 -0.2962
  604MOL0    Cl79640   6.516   3.311  -2.782 -0.3094 -0.2256 -0.1258
  604MOL0     C79641   7.416   3.310  -2.188 -0.5233 -0.0447  0.4274
  604MOL0     C79642   7.506   3.240  -2.104  0.0556 -0.6122 -0.4950
  604MOL0     O79643   7.460   2.996  -1.779  0.3838  0.4601 -0.4137
  604MOL0     C79644   7.682   2.935  -1.608  0.0252 -0.5805  0.4328
  604MOL0     C79645   7.807   2.913  -1.550  0.2887  0.3265 -0.9023
  604MOL0     N79646   8.555   2.735  -1.368  0.5845 -0.3904  0.4960
  604MOL0     N79647   8.628   2.692  -1.269 -0.2755  0.7720 -0.2904
  604MOL0     C79648   9.388   3.064  -0.309 -0.0028 -0.0352 -0.5615
  604MOL0     C79649   9.486   3.142  -0.245  0.2452 -0.2610 -0.0727
  604MOL0     C79650   9.852   3.223   0.048  0.2897 -0.6922 -0.6172
  604MOL0     C79651   9.847   3.359   0.012 -0.3798  0.0767 -0.2712
  604MOL0     C79652   9.940   3.450   0.062  0.4310 -0.1151 -0.1548
  604MOL0     C79653  10.041   3.416   0.150 -0.0094  0.5950  0.4496
  604MOL0     O79654  10.123   3.511   0.205  0.2054  0.1427  0.3505
  604MOL0     C79655  10.074   3.575   0.325  0.5186 -0.0352  0.0918
  604MOL0     C79656  10.167   3.696   0.349 -0.4453  1.3141 -0.3170
  604MOL0     C79657  10.320   3.663   0.372 -0.3907  0.6088  0.3274
  604MOL0     C79658  10.410   3.787   0.383  1.3690  0.3007  0.8971
  604MOL0     C79659  10.411   3.865   0.261 -0.7364  0.3159 -0.2748
  604MOL0     C79660  10.401   3.907   0.152 -0.0405 -0.3803 -0.7660
  604MOL0     C79661  10.051   3.279   0.180  0.2881 -0.1982  0.0695
  604MOL0     C79662   9.956   3.184   0.129  0.3226 -0.2979  0.3651
  604MOL0     H79663   9.531   2.953   0.026  1.7249  0.6394 -1.3533
  604MOL0     H79664   9.340   2.824  -0.083 -0.1282 -0.6206  1.9969
  604MOL0     H79665   9.237   2.923  -0.513 -1.8913  0.6717 -2.0590
  604MOL0     H79666   9.124   3.018  -0.404  1.9139  1.2089 -2.2732
  604MOL0     H79667   9.018   2.758  -0.372  1.0513  0.9936  1.3208
  604MOL0     H79668   9.140   2.728  -0.503  1.6300  2.4476 -2.9533
  604MOL0     H79669   9.030   2.891  -0.655 -1.9693  2.3419  0.1177
  604MOL0     H79670   8.909   2.920  -0.537 -1.1695  0.4239 -1.1349
  604MOL0     H79671   8.970   2.665  -0.701 -1.0745  0.4502 -2.5897
  604MOL0     H79672   8.855   2.665  -0.562 -1.9222 -0.2181 -0.5399
  604MOL0     H79673   8.825   2.837  -0.819 -2.1858  3.1765  0.8958
  604MOL0     H79674   8.716   2.845  -0.685 -0.1422  1.3006 -1.5922
  604MOL0     H79675   8.662   2.599  -0.729 -1.2597  2.3045  0.3701
  604MOL0     H79676   8.798   2.597  -0.845 -1.0355  0.2921 -5.0502
  604MOL0     H79677   8.585   2.605  -0.962 -0.2500  1.3944 -0.9217
  604MOL0     H79678   8.546   2.758  -0.885 -0.5019 -0.9657  0.9476
  604MOL0     H79679   8.789   2.700  -1.059 -0.1206  0.0034  1.0740
  604MOL0     H79680   8.733   2.869  -1.022 -2.1332  1.3382  0.5949
  604MOL0     H79681   8.507   2.958  -1.123  0.8221 -0.6436 -0.0453
  604MOL0     H79682   8.527   2.996  -1.468  1.0198  1.8629  2.3779
  604MOL0     H79683   8.402   3.032  -1.346  0.4146  1.5020 -1.2676
  604MOL0     H79684   8.370   2.799  -1.555  3.4162  0.5096  1.3037
  604MOL0     H79685   8.293   2.957  -1.569 -2.2033 -1.4667  0.0116
  604MOL0     H79686   8.238   2.745  -1.362 -3.4850 -1.1861  2.3452
  604MOL0     H79687   8.183   2.913  -1.338 -5.0316 -1.0623 -1.9486
  604MOL0     H79688   8.005   2.755  -1.452  0.3975 -1.8484 -0.6558
  604MOL0     H79689   8.102   2.773  -1.602 -2.6363 -1.2746  0.2184
  604MOL0     H79690   8.023   3.086  -1.734  0.2451  0.5503 -0.9864
  604MOL0     H79691   7.802   3.130  -1.859 -3.2931 -0.1269 -1.7850
  604MOL0     H79692   7.285   3.105  -1.893  2.1283 -4.5715 -2.4622
  604MOL0     H79693   7.130   3.205  -2.055  0.2467  2.0031 -1.1051
  604MOL0     H79694   7.303   3.399  -2.422 -2.1676  1.0182 -3.6347
  604MOL0     H79695   7.281   3.536  -2.312  0.2031 -0.3723 -0.4316
  604MOL0     H79696   7.076   3.576  -2.358  1.5616  1.4055  0.0086
  604MOL0     H79697   7.040   3.424  -2.442  1.3617  0.7888 -1.8167
  604MOL0     H79698   7.217   3.480  -2.614  0.4156 -0.4379  1.4133
  604MOL0     H79699   7.180   3.649  -2.574 -2.3262  1.0351  0.7107
  604MOL0     H79700   7.045   3.570  -2.755 -0.0137  0.8453 -0.6839
  604MOL0     H79701   6.985   3.434  -2.665  3.0023 -0.1565 -0.7927
  604MOL0     H79702   6.933   3.725  -2.598  2.4366 -0.2678  1.9389
  604MOL0     H79703   6.880   3.583  -2.493  1.5673  2.1454  1.1104
  604MOL0     H79704   6.797   3.639  -2.773  0.1802  1.2412  1.0236
  604MOL0     H79705   6.719   3.693  -2.624  0.3485  0.7390 -0.8112
  604MOL0     H79706   6.788   3.402  -2.718  1.2334 -0.2881  2.3449
  604MOL0     H79707   6.678   3.447  -2.583 -1.4680  3.1972  0.7247
  604MOL0     H79708   6.626   3.499  -2.885  0.5815 -0.2710  0.1771
  604MOL0     H79709   6.512   3.546  -2.767  2.1883  1.6522  0.6472
  604MOL0     H79710   7.458   3.371  -2.266  1.1799  1.5478  2.4571
  604MOL0     H79711   7.611   3.259  -2.124  0.1329  2.0443  1.8278
  604MOL0     H79712   7.593   2.888  -1.567  0.1059 -2.2573 -1.1904
  604MOL0     H79713   7.806   2.856  -1.458 -2.1337  1.6009 -0.0434
  604MOL0     H79714   9.344   3.102  -0.400  0.0103  0.3206 -0.4218
  604MOL0     H79715   9.528   3.233  -0.286 -0.6353 -0.1895 -0.8632
  604MOL0     H79716   9.774   3.401  -0.056  0.6445  4.6458  1.0959
  604MOL0     H79717   9.940   3.553   0.025 -1.6801 -0.0356 -0.0499
  604MOL0     H79718  10.081   3.517   0.417 -1.9575 -2.4472 -1.0905
  604MOL0     H79719   9.973   3.617   0.321  1.3208  2.1358 -4.3820
  604MOL0     H79720  10.151   3.757   0.259  0.6657  2.1076 -0.0006
  604MOL0     H79721  10.140   3.758   0.435 -0.1487 -0.8750  1.4560
  604MOL0     H79722  10.358   3.591   0.299  0.2199  1.8706 -0.6263
  604MOL0     H79723  10.337   3.618   0.471  1.7466  2.4443  0.8551
  604MOL0     H79724  10.375   3.843   0.470 -1.2210 -2.2225  1.6311
  604MOL0     H79725  10.512   3.751   0.398 -0.5082 -5.2418  2.8589
  604MOL0     H79726  10.378   3.942   0.053  2.0941  0.9659 -0.8651
  604MOL0     H79727  10.126   3.250   0.253  2.1766 -1.0022 -2.0659
  604MOL0     H79728   9.967   3.083   0.169  0.2749 -1.3740 -2.1487
  605MOL0     O79729   2.342   7.213   3.759  0.1521  0.0397  0.4773
  605MOL0     C79730   2.345   7.216   3.875 -0.6733  0.1005  0.5803
  605MOL0     O79731   2.470   7.226   3.944  0.5372  0.6080  0.1695
  605MOL0     C79732   2.593   7.203   3.889 -0.1660  0.3128  1.1024
  605MOL0     C79733   2.699   7.145   3.960  0.5832 -0.5385  0.6070
  605MOL0     C79734   2.815   7.111   3.903 -0.2960  0.7455  0.5618
  605MOL0     C79735   2.829   7.112   3.767 -0.2277 -0.5524  0.3091
  605MOL0     O79736   2.933   7.049   3.711  0.1204 -0.8386 -0.2848
  605MOL0     C79737   2.940   7.041   3.569  0.4572  0.8347  0.3381
  605MOL0     C79738   3.059   6.959   3.533  0.2471 -0.3225 -0.0294
  605MOL0     C79739   3.187   7.029   3.565 -0.1809 -0.1900  0.6907
  605MOL0     C79740   3.312   6.951   3.565  0.6223  0.3494  0.0688
  605MOL0     C79741   3.436   7.047   3.575 -0.5686  0.4434  0.3020
  605MOL0     C79742   3.561   6.959   3.592 -0.0312 -0.1833 -0.1713
  605MOL0     C79743   3.694   7.021   3.570 -0.3811  0.1153  0.0935
  605MOL0     C79744   3.750   7.102   3.690 -0.0639 -0.1397  0.4379
  605MOL0     N79745   3.857   7.033   3.756 -1.0566 -0.2074  0.8860
  605MOL0     C79746   3.863   6.917   3.830  1.7171  0.4388 -0.0043
  605MOL0     C79747   3.993   6.899   3.863 -1.0570  0.8993  0.1361
  605MOL0     C79748   4.058   6.792   3.951 -0.1992  0.3609  0.2571
  605MOL0     C79749   4.183   6.722   3.887  0.2546  0.7830  0.1067
  605MOL0     C79750   4.243   6.628   3.983 -0.6727 -0.6335  0.1731
  605MOL0     C79751   4.337   6.515   3.922 -0.4683 -0.2193 -0.0232
  605MOL0     O79752   4.449   6.587   3.870 -0.0453 -0.4663  0.1788
  605MOL0     C79753   4.576   6.550   3.910 -0.5180 -0.1618 -0.2872
  605MOL0     C79754   4.633   6.613   4.024 -0.1899 -0.4605 -1.4424
  605MOL0     C79755   4.749   6.561   4.075 -0.3215 -0.5985  0.2710
  605MOL0     C79756   4.822   6.451   4.018 -0.0001 -0.5864 -0.3949
  605MOL0     C79757   4.938   6.392   4.086 -0.5348 -0.5921  0.3251
  605MOL0     O79758   4.963   6.446   4.213 -0.5679  0.3861 -0.1945
  605MOL0     C79759   5.084   6.430   4.279  0.4406  0.2737 -0.8453
  605MOL0     C79760   5.108   6.320   4.361  0.0156  0.0851 -0.0280
  605MOL0     C79761   5.237   6.303   4.409  0.2519  0.1678  0.2331
  605MOL0     C79762   5.331   6.407   4.401  0.0827  0.3177  0.6497
  605MOL0     O79763   5.461   6.398   4.431 -0.2907  0.3483 -1.2669
  605MOL0     C79764   5.510   6.272   4.486  0.0136  0.1914 -1.1128
  605MOL0     C79765   5.656   6.279   4.459  1.0590 -0.3079 -0.9856
  605MOL0     C79766   5.736   6.162   4.522  0.3825 -0.4270 -0.0150
  605MOL0     C79767   5.880   6.200   4.482 -0.0532 -0.2783 -0.2262
  605MOL0     C79768   5.975   6.097   4.545  0.7481 -0.4269 -0.4943
  605MOL0     C79769   6.117   6.148   4.522  0.1417  0.3948 -0.3312
  605MOL0     C79770   6.227   6.048   4.587 -0.4106  0.4963 -0.5596
  605MOL0     C79771   6.351   6.135   4.613 -0.7557  0.5302 -0.4371
  605MOL0    Cl79772   6.477   6.026   4.672  0.0786  0.3649  0.3747
  605MOL0     C79773   5.290   6.525   4.339 -0.5795  0.2131 -0.3815
  605MOL0     C79774   5.164   6.538   4.281 -0.3262 -0.4999 -0.2259
  605MOL0     O79775   5.008   6.310   4.031  0.1690 -0.1764  0.0010
  605MOL0     C79776   4.762   6.383   3.912 -0.2165 -0.9468  0.6254
  605MOL0     C79777   4.647   6.438   3.853  0.0738 -0.5261  1.0174
  605MOL0     N79778   4.063   7.002   3.812 -0.7247  0.5974 -0.0968
  605MOL0     N79779   3.986   7.082   3.747  0.2413  0.0714  0.1061
  605MOL0     C79780   2.740   7.192   3.698 -0.2779 -0.7434 -0.3044
  605MOL0     C79781   2.624   7.244   3.754 -0.5047  0.9657 -0.0993
  605MOL0     C79782   2.229   7.202   3.957  0.6595  0.2102  0.0354
  605MOL0     C79783   2.241   7.176   4.092 -0.3262 -0.6782 -0.6325
  605MOL0     C79784   2.127   7.169   4.175 -0.5325  0.2750 -0.6777
  605MOL0     C79785   2.002   7.206   4.131  1.1794  0.3368  0.3891
  605MOL0     O79786   1.883   7.220   4.200 -0.6937 -0.4239 -0.5752
  605MOL0     C79787   1.891   7.197   4.340 -0.0515 -1.0713 -0.2691
  605MOL0     C79788   1.758   7.222   4.413  1.2677 -0.2927  0.2240
  605MOL0     C79789   1.641   7.157   4.328 -0.6817  0.3108 -0.8017
  605MOL0     C79790   1.518   7.127   4.417  0.5742 -0.5669  0.3463
  605MOL0     C79791   1.549   7.029   4.523 -0.3150  0.2964  0.5890
  605MOL0     C79792   1.593   6.948   4.600  0.5084  0.5282  0.2313
  605MOL0     C79793   1.991   7.219   3.986  0.0342  0.9374 -0.3722
  605MOL0     C79794   2.097   7.216   3.905  0.3847  0.5002  0.0504
  605MOL0     H79795   2.687   7.119   4.065 -2.0776  0.4146  0.6152
  605MOL0     H79796   2.895   7.069   3.964 -0.1589 -0.7772 -0.6114
  605MOL0     H79797   2.956   7.142   3.532  1.7422  0.9783  1.2121
  605MOL0     H79798   2.854   6.984   3.532 -0.7473  3.6020 -1.4082
  605MOL0     H79799   3.058   6.946   3.424  2.0697 -1.0323 -0.0084
  605MOL0     H79800   3.044   6.870   3.595 -1.4654  0.1691  0.3067
  605MOL0     H79801   3.174   7.058   3.669  0.2573 -1.3659  1.0902
  605MOL0     H79802   3.198   7.120   3.505  1.4477 -0.6674  0.2120
  605MOL0     H79803   3.315   6.884   3.652 -2.3372  0.9868  0.7878
  605MOL0     H79804   3.319   6.894   3.473 -0.0595  1.7798 -0.9130
  605MOL0     H79805   3.410   7.106   3.663 -3.6177 -1.2059  0.6367
  605MOL0     H79806   3.448   7.108   3.485 -1.7723  0.4599  0.1367
  605MOL0     H79807   3.554   6.879   3.518 -2.7184  0.8684 -1.1512
  605MOL0     H79808   3.567   6.906   3.688 -3.6704  1.4709  1.1503
  605MOL0     H79809   3.769   6.946   3.543  0.3236  0.8568 -0.0472
  605MOL0     H79810   3.685   7.088   3.484 -1.3743  0.1673  0.2231
  605MOL0     H79811   3.664   7.130   3.751 -1.7254  0.7838 -2.1899
  605MOL0     H79812   3.794   7.192   3.644  3.1825 -2.3343 -1.1954
  605MOL0     H79813   3.773   6.858   3.852  1.4514 -0.5580 -3.2646
  605MOL0     H79814   3.978   6.727   3.988  0.4531  1.1782  3.4726
  605MOL0     H79815   4.096   6.837   4.044 -0.3709  1.2043 -0.0756
  605MOL0     H79816   4.254   6.803   3.865 -0.9961  1.1155 -3.2727
  605MOL0     H79817   4.144   6.671   3.798 -1.3021  0.5015  0.9231
  605MOL0     H79818   4.301   6.687   4.054 -0.7446  0.5173 -0.7009
  605MOL0     H79819   4.162   6.579   4.038  1.0495 -2.0266  1.5935
  605MOL0     H79820   4.282   6.469   3.840  0.5666 -2.0420  0.2430
  605MOL0     H79821   4.380   6.450   3.999  0.8639  1.5151  0.7873
  605MOL0     H79822   4.585   6.698   4.073 -0.9572 -1.6766  0.0229
  605MOL0     H79823   4.771   6.622   4.162  1.9661 -0.3627 -0.4130
  605MOL0     H79824   5.040   6.235   4.368  2.0351 -1.5275  1.3889
  605MOL0     H79825   5.251   6.204   4.450 -2.3945 -1.4978 -2.4875
  605MOL0     H79826   5.466   6.189   4.431  2.7721  0.9806 -4.8972
  605MOL0     H79827   5.497   6.254   4.593 -0.6243  2.1930 -0.8079
  605MOL0     H79828   5.683   6.372   4.508 -1.0439  0.1094 -0.5218
  605MOL0     H79829   5.677   6.296   4.353 -1.0398  2.0061 -1.0948
  605MOL0     H79830   5.703   6.070   4.473  2.9891 -0.1546 -2.5909
  605MOL0     H79831   5.724   6.155   4.630  2.0520  0.1691  0.2408
  605MOL0     H79832   5.894   6.192   4.374 -2.9092  0.6783 -0.7519
  605MOL0     H79833   5.922   6.296   4.513  1.8603 -0.8370 -0.9303
  605MOL0     H79834   5.963   5.997   4.502 -1.7500 -0.8746  1.0592
  605MOL0     H79835   5.951   6.089   4.651 -0.9155  5.3602 -0.1349
  605MOL0     H79836   6.134   6.252   4.550  0.4246  0.7670 -1.8260
  605MOL0     H79837   6.130   6.148   4.413  1.2037  1.5399 -0.2339
  605MOL0     H79838   6.190   6.005   4.681  0.9283 -2.0498 -1.1106
  605MOL0     H79839   6.252   5.966   4.520  0.7943  1.3653 -1.2178
  605MOL0     H79840   6.313   6.207   4.686 -1.0923 -3.5842  3.9164
  605MOL0     H79841   6.379   6.185   4.520 -4.3618 -1.7427 -3.0192
  605MOL0     H79842   5.363   6.604   4.324  2.0642 -1.8400  0.6345
  605MOL0     H79843   5.134   6.635   4.242 -1.2944 -0.9933 -0.7415
  605MOL0     H79844   4.809   6.300   3.859 -2.3052 -1.3927 -0.6314
  605MOL0     H79845   4.608   6.386   3.767 -1.3053  1.0147  0.6611
  605MOL0     H79846   2.764   7.212   3.594 -0.8071 -0.5638 -0.3976
  605MOL0     H79847   2.577   7.318   3.690  1.3284  0.6099 -1.9676
  605MOL0     H79848   2.336   7.146   4.134 -0.4537  0.3145  0.4039
  605MOL0     H79849   2.131   7.149   4.282  1.3663  0.1757 -0.7309
  605MOL0     H79850   1.967   7.256   4.391 -1.2609 -0.8958  1.4110
  605MOL0     H79851   1.923   7.092   4.342  2.6576 -0.3167  0.1767
  605MOL0     H79852   1.755   7.190   4.518  1.7863  2.6125  1.2427
  605MOL0     H79853   1.740   7.330   4.419  1.8019 -0.1254 -0.9193
  605MOL0     H79854   1.678   7.069   4.275  1.0519 -0.0493  0.8777
  605MOL0     H79855   1.609   7.234   4.258  0.3314  1.5239  0.0213
  605MOL0     H79856   1.484   7.221   4.462  3.5413  2.6304 -3.3362
  605MOL0     H79857   1.441   7.090   4.349  1.3493 -2.3455  0.3721
  605MOL0     H79858   1.635   6.866   4.655 -2.5567 -0.6850  0.9971
  605MOL0     H79859   1.892   7.230   3.943  0.1963 -1.2674 -1.4450
  605MOL0     H79860   2.086   7.240   3.800  0.9271 -0.2165 -0.1790
  606MOL0     O79861   5.797   3.357   0.253  0.6259  0.0927  0.7051
  606MOL0     C79862   5.881   3.345   0.160  0.4213  0.3504 -0.7470
  606MOL0     O79863   5.851   3.323   0.029 -0.1640  0.1590  0.1467
  606MOL0     C79864   5.717   3.315  -0.009 -0.1145 -0.1313 -0.6162
  606MOL0     C79865   5.652   3.193   0.006  0.1633  0.6458  0.4807
  606MOL0     C79866   5.512   3.179  -0.015 -0.0270  0.7088 -0.2240
  606MOL0     C79867   5.437   3.293  -0.054 -0.4112 -0.6348 -0.3357
  606MOL0     O79868   5.297   3.289  -0.070  0.3802 -0.4814  0.0899
  606MOL0     C79869   5.229   3.161  -0.084  0.4306 -0.1951 -0.2653
  606MOL0     C79870   5.085   3.198  -0.113 -0.5220 -0.6404  0.2956
  606MOL0     C79871   4.990   3.076  -0.109  1.1996  0.1113 -0.2569
  606MOL0     C79872   4.839   3.120  -0.111 -1.1146 -0.3300  0.5814
  606MOL0     C79873   4.805   3.187  -0.239 -0.2152  0.1252 -0.1495
  606MOL0     C79874   4.649   3.181  -0.255 -0.0435  0.0752 -0.0808
  606MOL0     C79875   4.583   3.292  -0.165 -1.5249 -0.1415 -0.4713
  606MOL0     C79876   4.436   3.301  -0.188  0.4659  0.1853  0.1297
  606MOL0     N79877   4.382   3.359  -0.064 -0.7868  0.4879 -0.2127
  606MOL0     C79878   4.336   3.482  -0.056 -0.1608  0.1977  0.5134
  606MOL0     C79879   4.254   3.489   0.045  0.2813  0.1262 -0.1171
  606MOL0     C79880   4.179   3.605   0.111 -0.4620  0.0689 -0.2961
  606MOL0     C79881   4.025   3.607   0.088  0.3399 -0.4049  0.4225
  606MOL0     C79882   3.952   3.503   0.176  1.0724  1.2406  0.0710
  606MOL0     C79883   3.798   3.501   0.139 -0.3407  0.4397 -0.1444
  606MOL0     O79884   3.707   3.493   0.254 -0.2631 -0.7164 -0.9322
  606MOL0     C79885   3.576   3.509   0.219  0.0820 -0.8590  0.3446
  606MOL0     C79886   3.523   3.466   0.097 -0.5475  0.0398 -0.2930
  606MOL0     C79887   3.381   3.486   0.068 -0.1909 -0.4214  0.4150
  606MOL0     C79888   3.291   3.531   0.166  0.7385  0.1547  0.1408
  606MOL0     C79889   3.149   3.512   0.143  0.1693 -0.3426 -1.0980
  606MOL0     O79890   3.107   3.447   0.026 -0.6102 -0.7008 -0.1747
  606MOL0     C79891   2.981   3.399   0.032  0.8707 -0.3156  0.3579
  606MOL0     C79892   2.958   3.269   0.067  1.0605  0.6887 -0.0532
  606MOL0     C79893   2.830   3.216   0.062  0.3863 -0.1064 -0.2787
  606MOL0     C79894   2.718   3.294   0.018  0.2096  0.3049  0.1422
  606MOL0     O79895   2.594   3.238   0.002  0.3376  0.3747  0.0879
  606MOL0     C79896   2.509   3.292   0.104 -0.4372  1.2197 -0.1640
  606MOL0     C79897   2.422   3.177   0.144  0.5152  0.4952 -0.2174
  606MOL0     C79898   2.333   3.124   0.024  1.2850 -0.0439 -0.1202
  606MOL0     C79899   2.237   3.012   0.081  0.3486  0.4574 -0.2864
  606MOL0     C79900   2.172   2.918  -0.027 -0.5457  0.3612 -0.3314
  606MOL0     C79901   2.279   2.846  -0.114  0.2701  0.3656 -1.0350
  606MOL0     C79902   2.214   2.740  -0.214  0.5386 -0.3746  0.1103
  606MOL0     C79903   2.154   2.633  -0.134 -0.3664 -0.0527 -0.4185
  606MOL0    Cl79904   1.982   2.680  -0.105 -0.2105  0.0014  0.4565
  606MOL0     C79905   2.735   3.424  -0.023 -0.7238 -0.1835  0.0935
  606MOL0     C79906   2.873   3.470  -0.033  1.6212  1.2897  0.5245
  606MOL0     O79907   3.080   3.547   0.239 -0.1572  0.2915 -0.1912
  606MOL0     C79908   3.337   3.556   0.297 -0.6386  0.3934 -0.0577
  606MOL0     C79909   3.480   3.545   0.318 -0.7260  0.2228  0.1441
  606MOL0     N79910   4.271   3.367   0.114 -0.3454  0.2295  1.2118
  606MOL0     N79911   4.335   3.285   0.036  0.9144 -1.3125  0.2384
  606MOL0     C79912   5.493   3.416  -0.048  0.0282  0.2909  0.1759
  606MOL0     C79913   5.632   3.431  -0.024  0.6660  0.1196 -0.4344
  606MOL0     C79914   6.027   3.361   0.194 -0.6302  0.1425  0.5502
  606MOL0     C79915   6.126   3.335   0.091 -0.5420 -0.6287 -1.3157
  606MOL0     C79916   6.262   3.369   0.112 -0.4049  0.0505 -0.1583
  606MOL0     C79917   6.301   3.412   0.237  0.1480 -0.4636 -0.5185
  606MOL0     O79918   6.441   3.437   0.242 -0.0379  0.3473 -0.2233
  606MOL0     C79919   6.498   3.451   0.375  1.1192 -1.2197  0.3158
  606MOL0     C79920   6.645   3.464   0.388 -0.4822  0.8617 -0.6642
  606MOL0     C79921   6.722   3.331   0.363 -0.6483  0.0973  0.7208
  606MOL0     C79922   6.874   3.323   0.382  0.3120  0.6896 -0.1526
  606MOL0     C79923   6.920   3.429   0.295 -0.6724  0.1031 -0.0836
  606MOL0     C79924   6.962   3.514   0.221  0.1458 -0.4770  0.1591
  606MOL0     C79925   6.205   3.424   0.346 -0.0075 -0.0345 -0.0512
  606MOL0     C79926   6.073   3.406   0.315  0.5547 -0.3882  0.3122
  606MOL0     H79927   5.713   3.107   0.032  1.5701  1.8605  1.3626
  606MOL0     H79928   5.464   3.085   0.007  0.8939  0.4708  0.8536
  606MOL0     H79929   5.230   3.095   0.003 -1.8999  1.5206  1.1583
  606MOL0     H79930   5.278   3.105  -0.165  0.7548 -0.2622 -0.0246
  606MOL0     H79931   5.086   3.258  -0.205  1.4682 -0.7723  0.1813
  606MOL0     H79932   5.057   3.262  -0.029  0.4844 -2.3790  2.0456
  606MOL0     H79933   4.999   3.024  -0.014 -0.0768  1.6519  0.7563
  606MOL0     H79934   5.010   3.006  -0.191 -0.3833 -0.1036 -0.4849
  606MOL0     H79935   4.776   3.032  -0.097 -2.9985  0.9140  0.3884
  606MOL0     H79936   4.818   3.174  -0.018 -3.2903 -2.8798  1.6975
  606MOL0     H79937   4.862   3.142  -0.321  0.2957 -1.4564  1.0321
  606MOL0     H79938   4.848   3.288  -0.245  3.7889 -1.4090 -0.0450
  606MOL0     H79939   4.617   3.080  -0.228 -2.5119 -0.9103 -5.3823
  606MOL0     H79940   4.628   3.191  -0.362 -0.2074 -0.6824 -0.1280
  606MOL0     H79941   4.603   3.266  -0.060 -1.9306  0.3477 -0.2678
  606MOL0     H79942   4.626   3.390  -0.188 -0.8443 -0.6710 -1.5189
  606MOL0     H79943   4.397   3.201  -0.209 -0.3193  1.0023 -2.7809
  606MOL0     H79944   4.411   3.357  -0.279 -0.3284 -0.9843 -0.3886
  606MOL0     H79945   4.355   3.559  -0.130 -0.3762 -0.9299 -0.7461
  606MOL0     H79946   4.223   3.702   0.085  3.0704 -0.5270  2.6503
  606MOL0     H79947   4.194   3.616   0.218  0.5720  0.6122 -0.4825
  606MOL0     H79948   3.995   3.571  -0.011 -0.5691  0.3477  0.4066
  606MOL0     H79949   3.997   3.712   0.095 -0.2336 -0.5296  0.0470
  606MOL0     H79950   3.998   3.404   0.177  1.2610  1.3029 -1.1182
  606MOL0     H79951   3.965   3.542   0.277  0.3569  0.0489  0.6558
  606MOL0     H79952   3.782   3.417   0.071  0.5833  0.2628 -0.1541
  606MOL0     H79953   3.779   3.595   0.085  1.8288  1.5997  0.9663
  606MOL0     H79954   3.584   3.418   0.021  1.2875  0.8065  0.6492
  606MOL0     H79955   3.340   3.464  -0.031 -1.5859 -0.8346  1.0543
  606MOL0     H79956   3.045   3.222   0.114 -0.0365  1.8902  3.4573
  606MOL0     H79957   2.812   3.120   0.109  2.6325  1.2971  3.9825
  606MOL0     H79958   2.449   3.372   0.061  0.4246  1.9377 -0.0644
  606MOL0     H79959   2.572   3.332   0.184  0.2878 -0.1191 -0.0229
  606MOL0     H79960   2.364   3.226   0.222  1.0295 -0.0223  0.4979
  606MOL0     H79961   2.485   3.100   0.189  0.2939 -0.1076 -0.9246
  606MOL0     H79962   2.396   3.087  -0.057 -0.3971 -2.4582 -0.4535
  606MOL0     H79963   2.265   3.200  -0.015 -0.8795 -3.0746 -2.7769
  606MOL0     H79964   2.305   2.951   0.142 -0.1347  1.3098  1.1450
  606MOL0     H79965   2.162   3.057   0.147  0.3271  1.0132 -0.6844
  606MOL0     H79966   2.113   2.979  -0.096  1.8980  1.1672 -1.8404
  606MOL0     H79967   2.105   2.848   0.022 -1.2360 -1.1366 -3.2308
  606MOL0     H79968   2.343   2.785  -0.050  4.3945  0.0764 -4.8966
  606MOL0     H79969   2.340   2.919  -0.168  1.8143 -0.0976  0.0252
  606MOL0     H79970   2.136   2.796  -0.267 -0.5211 -2.7221 -0.9332
  606MOL0     H79971   2.293   2.710  -0.284  0.9600 -0.4419  0.6087
  606MOL0     H79972   2.201   2.615  -0.037 -1.2430 -2.1667 -0.3172
  606MOL0     H79973   2.148   2.541  -0.192  0.6131  0.7042 -1.7671
  606MOL0     H79974   2.648   3.483  -0.051 -1.1055 -1.6063 -1.9424
  606MOL0     H79975   2.917   3.564  -0.067  3.7236  0.4649  0.8005
  606MOL0     H79976   3.271   3.589   0.376 -0.5914 -1.5314  0.8384
  606MOL0     H79977   3.514   3.592   0.410  0.6385  1.8067 -1.1199
  606MOL0     H79978   5.427   3.500  -0.069  0.1242  0.1550 -0.7364
  606MOL0     H79979   5.673   3.531  -0.012 -0.7473  0.6782 -0.1047
  606MOL0     H79980   6.088   3.285   0.002 -0.9118 -2.5847 -0.1240
  606MOL0     H79981   6.326   3.355   0.026  0.5553 -1.9762  0.8083
  606MOL0     H79982   6.475   3.362   0.435  0.6014  0.6617  3.0828
  606MOL0     H79983   6.456   3.540   0.423  1.7556 -0.1697 -0.9996
  606MOL0     H79984   6.671   3.539   0.312  2.5278 -1.6076 -2.2930
  606MOL0     H79985   6.665   3.502   0.488 -4.8212  1.3113  0.2287
  606MOL0     H79986   6.696   3.293   0.264  0.0782  2.4646 -0.4351
  606MOL0     H79987   6.689   3.252   0.432 -1.1388 -1.3031 -1.0496
  606MOL0     H79988   6.897   3.342   0.487  2.4414 -3.7210  0.3800
  606MOL0     H79989   6.921   3.229   0.354  1.2924  1.6837 -2.0949
  606MOL0     H79990   7.014   3.589   0.164 -1.4642  0.6946  0.1685
  606MOL0     H79991   6.229   3.456   0.447  0.2634 -0.9975  0.1968
  606MOL0     H79992   5.999   3.407   0.394 -0.6002  0.9805 -0.7476
  607MOL0     O79993   4.242   0.803   5.465 -0.5101 -0.6684  0.0817
  607MOL0     C79994   4.291   0.738   5.372 -0.5310  0.5526  0.1915
  607MOL0     O79995   4.229   0.701   5.259 -0.4408 -0.3874  0.9645
  607MOL0     C79996   4.104   0.754   5.241 -0.7572 -0.3986  0.5489
  607MOL0     C79997   4.001   0.665   5.241 -0.7973 -0.1349  0.1128
  607MOL0     C79998   3.868   0.706   5.215  0.8187 -0.2515 -0.0387
  607MOL0     C79999   3.843   0.844   5.194 -0.1183 -0.2244  0.2461
  607MOL0     O80000   3.714   0.884   5.170  0.0016 -0.0125  0.3997
  607MOL0     C80001   3.692   0.975   5.060 -1.1458 -0.7037  0.1193
  607MOL0     C80002   3.553   1.023   5.064  0.5897  0.5290 -0.4297
  607MOL0     C80003   3.482   1.103   4.953 -0.6441  0.2254  0.2780
  607MOL0     C80004   3.349   1.152   5.000 -0.3326  0.4570  0.3457
  607MOL0     C80005   3.228   1.057   4.978  0.5885  0.7953 -0.1609
  607MOL0     C80006   3.178   1.058   4.825 -0.4850  1.0547  0.5656
  607MOL0     C80007   3.049   0.972   4.796 -0.2348 -0.1699  0.0318
  607MOL0     C80008   2.937   1.017   4.886 -0.9096  0.6653 -0.0032
  607MOL0     N80009   2.812   0.951   4.833  0.3135  0.6861 -0.1642
  607MOL0     C80010   2.700   0.930   4.915  0.7670 -0.1349 -0.0319
  607MOL0     C80011   2.605   0.860   4.843 -0.2806  0.1446 -0.2702
  607MOL0     C80012   2.476   0.803   4.886 -0.1879  0.3576 -0.2501
  607MOL0     C80013   2.354   0.879   4.832  0.8167 -0.3345 -0.4391
  607MOL0     C80014   2.345   0.861   4.674  1.1206  0.7968 -0.4233
  607MOL0     C80015   2.222   0.917   4.604 -0.3186  0.2713 -0.3778
  607MOL0     O80016   2.100   0.863   4.648 -0.1032 -0.2901  0.3763
  607MOL0     C80017   1.983   0.855   4.581  0.4306 -0.1845  0.2522
  607MOL0     C80018   1.933   0.954   4.487 -0.0750  0.1771 -1.3374
  607MOL0     C80019   1.798   0.955   4.454  1.0504  0.7128 -0.0069
  607MOL0     C80020   1.718   0.858   4.509  0.5876 -0.0320 -0.3667
  607MOL0     C80021   1.573   0.855   4.482 -0.2924 -0.0235  0.4353
  607MOL0     O80022   1.490   0.758   4.522 -0.1874  0.2155 -0.0175
  607MOL0     C80023   1.353   0.765   4.529 -0.2537  0.4028  0.1041
  607MOL0     C80024   1.278   0.883   4.545  0.8104 -0.7777  0.2551
  607MOL0     C80025   1.138   0.875   4.529 -0.0753  0.0723 -0.2330
  607MOL0     C80026   1.078   0.749   4.496  0.1014 -0.6439 -0.2593
  607MOL0     O80027   0.942   0.746   4.474  0.2988 -0.4063 -0.5513
  607MOL0     C80028   0.870   0.634   4.524  0.4121 -0.2195 -0.5384
  607MOL0     C80029   0.724   0.668   4.542  0.3791 -0.8285 -0.2052
  607MOL0     C80030   0.691   0.799   4.611  0.3595 -0.1230  0.2407
  607MOL0     C80031   0.543   0.835   4.593  0.5518  0.5158  0.1262
  607MOL0     C80032   0.515   0.970   4.646  0.7068 -0.6056 -0.1277
  607MOL0     C80033   0.368   1.007   4.655  0.2902 -0.0072  0.4509
  607MOL0     C80034   0.345   1.145   4.718 -0.9328  1.0593  0.3896
  607MOL0     C80035   0.392   1.269   4.631 -0.5711  0.9436 -0.2456
  607MOL0    Cl80036   0.386   1.419   4.731 -0.0747  0.5483  0.1080
  607MOL0     C80037   1.155   0.636   4.478  0.2766 -0.1769  0.3093
  607MOL0     C80038   1.289   0.649   4.489  0.2928 -0.3592  0.0561
  607MOL0     O80039   1.530   0.952   4.424 -0.2629  0.1196 -0.2727
  607MOL0     C80040   1.771   0.754   4.583  0.9116 -0.2828 -0.0827
  607MOL0     C80041   1.898   0.756   4.627  0.3047  0.1337 -0.1783
  607MOL0     N80042   2.661   0.856   4.717  0.4618 -0.1877 -0.0379
  607MOL0     N80043   2.783   0.898   4.708 -0.9070 -0.0384 -0.9525
  607MOL0     C80044   3.946   0.938   5.192  0.3904 -0.0874  0.0807
  607MOL0     C80045   4.081   0.890   5.209  0.3736  0.2430 -0.5719
  607MOL0     C80046   4.437   0.691   5.369  0.4710  0.2164  0.0643
  607MOL0     C80047   4.530   0.753   5.438  0.7849  0.9966 -0.3601
  607MOL0     C80048   4.668   0.723   5.435 -0.2118  0.1807  0.5297
  607MOL0     C80049   4.724   0.632   5.346  0.3109  0.5498  0.0305
  607MOL0     O80050   4.861   0.609   5.328 -0.0136 -0.1321  0.0202
  607MOL0     C80051   4.957   0.634   5.437  0.7172 -0.5248  0.4755
  607MOL0     C80052   4.941   0.530   5.546 -0.3711 -0.0754  0.7103
  607MOL0     C80053   4.911   0.390   5.493  0.7176 -0.1918 -0.0209
  607MOL0     C80054   4.981   0.284   5.574  0.1863 -0.2380 -0.0043
  607MOL0     C80055   4.922   0.150   5.550 -0.5596  0.0406 -0.4961
  607MOL0     C80056   4.865   0.046   5.529 -0.3847 -0.6749 -0.4794
  607MOL0     C80057   4.619   0.556   5.273 -0.3573  0.0725  0.2088
  607MOL0     C80058   4.484   0.579   5.291  1.3219 -0.9119 -0.1981
  607MOL0     H80059   4.010   0.563   5.275  0.1601  0.3969  1.5202
  607MOL0     H80060   3.782   0.640   5.223  1.6809 -1.5004 -0.7945
  607MOL0     H80061   3.715   0.941   4.959 -2.0792  0.4070 -0.4829
  607MOL0     H80062   3.755   1.058   5.093  0.1392 -2.3473  2.1213
  607MOL0     H80063   3.548   1.083   5.155  2.3707 -0.2596  0.2272
  607MOL0     H80064   3.493   0.931   5.067 -0.1774  0.7817 -3.8162
  607MOL0     H80065   3.480   1.048   4.858  1.3818 -3.3394  2.1096
  607MOL0     H80066   3.533   1.200   4.940 -0.0061  0.2060  2.3979
  607MOL0     H80067   3.368   1.182   5.103 -0.8071 -1.2379  0.9677
  607MOL0     H80068   3.327   1.243   4.944  2.1149  1.2626  0.5918
  607MOL0     H80069   3.148   1.093   5.043 -0.5277 -1.1861 -0.3617
  607MOL0     H80070   3.241   0.953   5.009 -1.2281 -0.0435 -1.9716
  607MOL0     H80071   3.266   1.023   4.770 -2.1663  0.4701 -1.9249
  607MOL0     H80072   3.151   1.158   4.789  0.8279  1.1301 -0.2632
  607MOL0     H80073   3.025   0.982   4.690 -0.3436 -1.2888 -0.0633
  607MOL0     H80074   3.081   0.868   4.810 -1.4626 -0.5558  0.1184
  607MOL0     H80075   2.918   1.125   4.885  1.2824  1.1005  0.2553
  607MOL0     H80076   2.953   0.981   4.988  1.6695  0.0085 -0.5718
  607MOL0     H80077   2.678   0.966   5.016 -3.2986 -0.0320 -0.7582
  607MOL0     H80078   2.478   0.809   4.995 -2.8324  3.4303 -0.2164
  607MOL0     H80079   2.483   0.698   4.855  1.6224  0.7174 -1.1748
  607MOL0     H80080   2.350   0.985   4.861 -2.3169 -1.4273  4.0404
  607MOL0     H80081   2.264   0.835   4.875  0.0029  1.3607 -0.3238
  607MOL0     H80082   2.434   0.908   4.631  1.7226  2.4738  2.3603
  607MOL0     H80083   2.350   0.756   4.644  0.6251  0.7217 -0.2494
  607MOL0     H80084   2.230   0.876   4.502 -1.0233 -2.3595  0.5275
  607MOL0     H80085   2.228   1.026   4.605 -1.2618  0.3323 -0.4813
  607MOL0     H80086   1.991   1.034   4.442  0.0092  0.4679 -0.7123
  607MOL0     H80087   1.755   1.033   4.392 -1.7324 -0.8304 -0.1594
  607MOL0     H80088   1.322   0.981   4.561  2.8749 -1.0393 -2.8684
  607MOL0     H80089   1.078   0.963   4.551  1.7205  1.6187 -1.1904
  607MOL0     H80090   0.909   0.604   4.621  1.0308 -0.1130 -0.7536
  607MOL0     H80091   0.891   0.548   4.460  3.5184 -0.5870  0.8369
  607MOL0     H80092   0.675   0.581   4.586  0.6873 -0.6894  0.4314
  607MOL0     H80093   0.686   0.680   4.440 -0.2086  2.9856  0.3024
  607MOL0     H80094   0.758   0.881   4.580  2.1537 -1.1799  1.1368
  607MOL0     H80095   0.711   0.791   4.719 -0.4214  0.7585  0.4652
  607MOL0     H80096   0.507   0.830   4.490  1.9177 -0.3311 -0.3356
  607MOL0     H80097   0.486   0.763   4.653  1.3890 -2.1456 -2.0449
  607MOL0     H80098   0.569   1.046   4.590 -1.8636  2.3059  1.0500
  607MOL0     H80099   0.555   0.968   4.748  1.2143 -1.4245 -0.3279
  607MOL0     H80100   0.309   0.929   4.705  0.7134 -0.9778 -0.5332
  607MOL0     H80101   0.339   1.002   4.550  0.5678 -2.6854  0.4357
  607MOL0     H80102   0.239   1.153   4.744 -1.5599 -0.1394 -1.5136
  607MOL0     H80103   0.394   1.152   4.815  2.2473 -1.9011 -0.7987
  607MOL0     H80104   0.327   1.274   4.544 -0.3336  2.5701 -0.3610
  607MOL0     H80105   0.496   1.261   4.597  0.0914  1.3831  1.5848
  607MOL0     H80106   1.116   0.538   4.453 -0.0369 -1.0033  3.5755
  607MOL0     H80107   1.349   0.560   4.473 -0.0389 -0.3490 -1.4583
  607MOL0     H80108   1.713   0.669   4.618 -1.0586  0.8470 -0.4644
  607MOL0     H80109   1.923   0.681   4.701 -0.7430 -0.0673 -0.0107
  607MOL0     H80110   3.929   1.043   5.169 -1.3777  0.2615  2.5858
  607MOL0     H80111   4.170   0.950   5.194 -0.9822  2.1467 -1.4429
  607MOL0     H80112   4.494   0.837   5.497 -0.1278  0.8252 -0.6579
  607MOL0     H80113   4.733   0.782   5.499  0.9424 -1.4017  0.9087
  607MOL0     H80114   4.942   0.730   5.486  3.2265  0.6891 -0.9457
  607MOL0     H80115   5.055   0.617   5.391 -0.7760 -1.8181 -2.4531
  607MOL0     H80116   5.031   0.532   5.608  0.3462 -0.6628 -0.2814
  607MOL0     H80117   4.852   0.573   5.592 -2.2562 -0.4957 -2.2558
  607MOL0     H80118   4.949   0.379   5.391  1.5117  1.0713  0.1113
  607MOL0     H80119   4.803   0.374   5.481  0.6776  0.6859 -1.0656
  607MOL0     H80120   5.088   0.277   5.549  0.2355 -1.0031  0.3695
  607MOL0     H80121   4.974   0.298   5.683  0.0684 -4.2890  0.6762
  607MOL0     H80122   4.789  -0.030   5.524 -2.3988  0.9954  2.0662
  607MOL0     H80123   4.645   0.483   5.197 -1.1223  0.5291 -0.5121
  607MOL0     H80124   4.414   0.523   5.230 -0.0155 -0.2285  0.6275
  608MOL0     O80125   3.926   2.838   7.311  0.1195  0.2128 -0.1077
  608MOL0     C80126   3.927   2.807   7.435  0.2882  0.9234  0.2408
  608MOL0     O80127   3.819   2.785   7.512 -0.8724  0.3244  0.3750
  608MOL0     C80128   3.696   2.780   7.459 -0.2366  0.0816 -0.3512
  608MOL0     C80129   3.656   2.756   7.328 -0.7826  0.5386 -0.1320
  608MOL0     C80130   3.525   2.745   7.302 -0.5831 -0.3351  0.3396
  608MOL0     C80131   3.419   2.784   7.387  0.5520  0.7742  0.5291
  608MOL0     O80132   3.294   2.786   7.342  0.4373 -0.5573 -0.4253
  608MOL0     C80133   3.191   2.865   7.404  0.4150  0.6321 -0.7812
  608MOL0     C80134   3.061   2.869   7.330  0.2641  0.1964 -0.0724
  608MOL0     C80135   2.992   2.727   7.326 -0.0626 -0.1231  0.2403
  608MOL0     C80136   2.863   2.730   7.251 -1.0322 -1.5477 -0.6252
  608MOL0     C80137   2.832   2.591   7.203  0.5318  0.7295 -0.0247
  608MOL0     C80138   2.711   2.598   7.114  0.8041 -0.7591 -0.6130
  608MOL0     C80139   2.683   2.457   7.055 -0.1003 -0.1045 -1.2164
  608MOL0     C80140   2.694   2.336   7.154 -0.3369 -0.2189  0.1138
  608MOL0     N80141   2.663   2.210   7.083 -0.8387  0.5790  0.2504
  608MOL0     C80142   2.713   2.159   6.961 -0.0818  0.2131 -0.7821
  608MOL0     C80143   2.648   2.051   6.936 -0.1089  0.6595  0.3227
  608MOL0     C80144   2.667   1.959   6.818  0.2520 -0.4782  0.6609
  608MOL0     C80145   2.554   1.872   6.764  0.6346  0.6011 -0.2087
  608MOL0     C80146   2.434   1.954   6.704 -0.6562  0.7483 -0.6442
  608MOL0     C80147   2.310   1.873   6.677 -0.3037  0.5034  0.0827
  608MOL0     O80148   2.236   1.967   6.601 -0.6050 -0.1446 -0.0747
  608MOL0     C80149   2.116   1.921   6.567  0.4475  0.7481  0.0058
  608MOL0     C80150   2.028   2.022   6.531  0.5597 -0.8280  1.2121
  608MOL0     C80151   1.898   1.985   6.490  0.2064 -1.2698  0.7630
  608MOL0     C80152   1.857   1.853   6.474  0.9883  0.3604  0.5635
  608MOL0     C80153   1.737   1.818   6.407  0.2195 -0.5246  0.1081
  608MOL0     O80154   1.677   1.916   6.331 -0.4259 -0.0584 -0.6745
  608MOL0     C80155   1.564   1.888   6.258  0.1594  0.8746  0.7912
  608MOL0     C80156   1.571   1.842   6.125  0.6739 -0.7106 -0.0683
  608MOL0     C80157   1.458   1.830   6.038 -0.5861 -0.0534  0.2623
  608MOL0     C80158   1.330   1.856   6.088 -0.2446 -0.3120  0.3117
  608MOL0     O80159   1.225   1.846   5.995 -0.1021 -0.6786 -0.4237
  608MOL0     C80160   1.107   1.776   6.041 -0.5952 -0.5460  0.0577
  608MOL0     C80161   0.986   1.808   5.965  0.1881  0.2700 -0.2394
  608MOL0     C80162   0.867   1.793   6.065  0.5562  0.1309  0.4032
  608MOL0     C80163   0.722   1.848   6.032  0.0372  0.0467 -0.6128
  608MOL0     C80164   0.619   1.790   6.132  0.4037  0.4219  0.3709
  608MOL0     C80165   0.477   1.813   6.076  0.3029 -0.1979  0.3994
  608MOL0     C80166   0.372   1.828   6.179 -0.7553  0.2241  0.8084
  608MOL0     C80167   0.238   1.833   6.112  0.6620 -0.1691 -0.1657
  608MOL0    Cl80168   0.194   1.664   6.100  0.1681  0.0697 -0.1001
  608MOL0     C80169   1.322   1.897   6.224 -0.2171  0.7908  0.0594
  608MOL0     C80170   1.436   1.902   6.307  0.8558 -0.1817 -0.0314
  608MOL0     O80171   1.697   1.705   6.422  0.3685 -0.7137 -0.6451
  608MOL0     C80172   1.943   1.757   6.527  0.8405  0.1288 -0.0697
  608MOL0     C80173   2.067   1.794   6.572 -0.5265 -0.1155  0.4479
  608MOL0     N80174   2.558   2.024   7.039  0.5436  0.3006  0.6550
  608MOL0     N80175   2.571   2.114   7.132  0.1195 -0.3168  0.0836
  608MOL0     C80176   3.459   2.796   7.521  0.1358 -0.7894 -0.1844
  608MOL0     C80177   3.596   2.802   7.553 -1.1380 -0.4588 -0.2016
  608MOL0     C80178   4.050   2.808   7.507  0.5251  1.3578  0.1000
  608MOL0     C80179   4.057   2.801   7.655 -0.1427 -0.2352  0.0092
  608MOL0     C80180   4.175   2.812   7.716  0.4662 -0.8813  0.2845
  608MOL0     C80181   4.292   2.843   7.647 -0.8481  0.0542  0.1250
  608MOL0     O80182   4.406   2.864   7.728 -0.0340  0.8123  0.2903
  608MOL0     C80183   4.500   2.949   7.664 -0.0372 -0.1200  0.4232
  608MOL0     C80184   4.569   3.040   7.770 -0.1198  0.1297 -0.1095
  608MOL0     C80185   4.682   3.122   7.726 -0.0239  1.1031  0.3776
  608MOL0     C80186   4.758   3.189   7.843  0.1803 -0.8065 -0.0959
  608MOL0     C80187   4.896   3.232   7.800 -0.1946  0.4613 -0.1870
  608MOL0     C80188   4.998   3.277   7.754 -0.1107  0.1908  0.3709
  608MOL0     C80189   4.289   2.826   7.509 -0.1502 -0.0428  0.1647
  608MOL0     C80190   4.167   2.814   7.439  0.7842 -0.5826 -0.4741
  608MOL0     H80191   3.726   2.733   7.247 -0.2423  1.6498 -0.0051
  608MOL0     H80192   3.502   2.709   7.202 -2.9884 -5.0564  2.2561
  608MOL0     H80193   3.232   2.967   7.410 -0.4379  1.3684 -4.6873
  608MOL0     H80194   3.170   2.818   7.501 -0.0785 -2.8376 -2.4290
  608MOL0     H80195   3.089   2.903   7.230  3.5858  2.2954  1.3854
  608MOL0     H80196   2.989   2.940   7.373 -0.8159 -0.6647 -0.3989
  608MOL0     H80197   2.970   2.701   7.430  0.1594 -1.8993 -0.1210
  608MOL0     H80198   3.060   2.655   7.280 -0.1685  0.2312 -0.4929
  608MOL0     H80199   2.787   2.772   7.318  1.4792  2.4131  0.0433
  608MOL0     H80200   2.859   2.795   7.163 -0.3863  1.2820  1.3033
  608MOL0     H80201   2.807   2.530   7.291 -2.1616 -0.4662 -1.5027
  608MOL0     H80202   2.916   2.552   7.146  0.4988  0.6171  0.0040
  608MOL0     H80203   2.736   2.676   7.042  0.8375  0.2316  0.4330
  608MOL0     H80204   2.626   2.630   7.175  3.1210  2.5837  1.2451
  608MOL0     H80205   2.580   2.450   7.017 -0.0690 -0.0763 -1.3068
  608MOL0     H80206   2.752   2.456   6.971  1.3047 -1.3489 -0.0973
  608MOL0     H80207   2.632   2.343   7.243 -0.4495  0.4206 -0.0059
  608MOL0     H80208   2.797   2.330   7.192  0.0246 -0.5124 -0.8776
  608MOL0     H80209   2.796   2.209   6.913  0.8688 -0.2916  0.2894
  608MOL0     H80210   2.746   1.885   6.834  2.7792  0.4053 -5.1442
  608MOL0     H80211   2.699   2.005   6.725 -0.1852 -1.1825  0.1464
  608MOL0     H80212   2.512   1.810   6.843 -0.0307 -0.0599 -1.0612
  608MOL0     H80213   2.591   1.824   6.673 -3.3800  0.4194 -1.9204
  608MOL0     H80214   2.410   2.036   6.772 -0.2855  0.2020  0.1601
  608MOL0     H80215   2.467   1.993   6.607  1.1769  0.2876 -0.2347
  608MOL0     H80216   2.272   1.838   6.773  1.2062 -2.0951 -0.1464
  608MOL0     H80217   2.336   1.787   6.613 -1.7425  1.3680 -1.7593
  608MOL0     H80218   2.052   2.126   6.547  0.8479  0.2363 -4.2167
  608MOL0     H80219   1.826   2.066   6.480  1.1699 -0.5289 -0.2974
  608MOL0     H80220   1.672   1.847   6.085  0.8281 -2.2697  0.0632
  608MOL0     H80221   1.481   1.790   5.940  2.8798 -0.9515  1.3116
  608MOL0     H80222   1.086   1.788   6.148  1.4852 -4.1300  1.0333
  608MOL0     H80223   1.140   1.672   6.033  3.1085  0.5587 -0.7396
  608MOL0     H80224   0.976   1.757   5.869  1.3866  0.6019 -0.5546
  608MOL0     H80225   0.986   1.914   5.939 -0.8065  0.2245 -0.4535
  608MOL0     H80226   0.892   1.822   6.167 -0.6661 -2.1018  1.4211
  608MOL0     H80227   0.853   1.685   6.081 -2.0758  0.2806 -0.5314
  608MOL0     H80228   0.719   1.957   6.043 -2.5210 -0.2291  3.0179
  608MOL0     H80229   0.689   1.835   5.928 -0.5720  2.1721 -0.7359
  608MOL0     H80230   0.637   1.838   6.229  3.6530  3.7250 -1.5936
  608MOL0     H80231   0.640   1.685   6.154  3.9373  1.2125  1.3960
  608MOL0     H80232   0.460   1.724   6.015  0.3922 -1.0499  1.5812
  608MOL0     H80233   0.483   1.904   6.016  0.6732  1.0705  2.2514
  608MOL0     H80234   0.373   1.737   6.240  0.6546 -0.0310  0.4330
  608MOL0     H80235   0.391   1.914   6.244  0.5908  0.2233  0.4414
  608MOL0     H80236   0.236   1.890   6.019 -1.6565  1.5623  0.8379
  608MOL0     H80237   0.166   1.871   6.185  0.4148 -2.7433  1.0690
  608MOL0     H80238   1.228   1.927   6.268 -1.0453 -0.6804 -0.6122
  608MOL0     H80239   1.434   1.947   6.406 -3.1447 -1.1659  0.5099
  608MOL0     H80240   1.931   1.649   6.531 -0.5449  0.1600 -1.9388
  608MOL0     H80241   2.129   1.706   6.589 -1.4934 -0.2661  4.1114
  608MOL0     H80242   3.389   2.816   7.602 -1.1594  0.3922 -1.5379
  608MOL0     H80243   3.621   2.812   7.658 -1.0078  0.8579 -0.3370
  608MOL0     H80244   3.962   2.800   7.707 -0.2045 -1.5939 -0.0933
  608MOL0     H80245   4.180   2.806   7.824  1.2402  0.2380  0.3395
  608MOL0     H80246   4.461   2.995   7.573 -0.4555 -0.9080  0.1901
  608MOL0     H80247   4.579   2.884   7.626  0.9197  0.6743  1.0177
  608MOL0     H80248   4.488   3.106   7.804  0.5923  1.4338 -0.8429
  608MOL0     H80249   4.601   2.979   7.855 -3.3674 -0.0002  1.1462
  608MOL0     H80250   4.660   3.201   7.653  1.3944 -0.2421 -1.6171
  608MOL0     H80251   4.744   3.044   7.681 -1.6735 -0.8554  1.3398
  608MOL0     H80252   4.714   3.282   7.880  0.4528 -0.6567 -0.1414
  608MOL0     H80253   4.754   3.126   7.932  0.3790  1.9671  1.9955
  608MOL0     H80254   5.094   3.311   7.719 -0.9888  0.5933 -1.7650
  608MOL0     H80255   4.380   2.834   7.451  0.4997 -0.2406  1.1482
  608MOL0     H80256   4.164   2.825   7.331  0.1091  2.9885 -0.2151
  609MOL0     O80257   8.451  10.225   8.064 -0.3467  0.0253  0.2336
  609MOL0     C80258   8.513  10.246   7.958  0.6733  0.1232 -0.6342
  609MOL0     O80259   8.458  10.242   7.826 -0.0773  0.2490 -0.1363
  609MOL0     C80260   8.327  10.194   7.801 -0.1063 -0.1718  0.9030
  609MOL0     C80261   8.257  10.262   7.701  0.5165 -0.4158 -0.0943
  609MOL0     C80262   8.138  10.217   7.657  0.1375 -0.4601 -0.9312
  609MOL0     C80263   8.068  10.120   7.737 -0.8552 -0.3321 -0.0041
  609MOL0     O80264   7.945  10.092   7.692  0.7119  0.0316  0.5459
  609MOL0     C80265   7.847  10.107   7.795  0.2485 -0.1903  0.2651
  609MOL0     C80266   7.706  10.076   7.739  0.3650  0.2067  0.2779
  609MOL0     C80267   7.596  10.051   7.845  0.2823  0.2421  0.1354
  609MOL0     C80268   7.463  10.028   7.771  0.6959  0.2562  0.7387
  609MOL0     C80269   7.371   9.953   7.864 -0.4403  0.3573  0.1337
  609MOL0     C80270   7.251   9.892   7.790 -0.4312  0.0336  0.1944
  609MOL0     C80271   7.139   9.834   7.886  0.3485 -0.2841  0.0308
  609MOL0     C80272   7.041   9.748   7.801 -0.5865  0.1712 -0.3821
  609MOL0     N80273   6.947   9.818   7.721  0.2835 -0.2790 -0.5473
  609MOL0     C80274   6.978   9.895   7.615 -0.3717 -0.9745 -0.0375
  609MOL0     C80275   6.860   9.952   7.575  0.7320  0.5313 -0.1378
  609MOL0     C80276   6.868  10.046   7.464  0.3511 -0.7917 -1.3274
  609MOL0     C80277   6.807   9.987   7.339  0.1390 -0.4486  0.5544
  609MOL0     C80278   6.901   9.887   7.271  0.2932  0.7827  1.1799
  609MOL0     C80279   7.043   9.928   7.252 -1.2177 -0.2594  0.0816
  609MOL0     O80280   7.111   9.859   7.149 -0.8597 -0.1148 -0.1604
  609MOL0     C80281   7.246   9.872   7.122 -0.5122  1.0671  0.0521
  609MOL0     C80282   7.311   9.777   7.043 -0.6031 -0.0096 -0.1988
  609MOL0     C80283   7.445   9.785   7.007  0.1601  0.9089 -0.9602
  609MOL0     C80284   7.516   9.900   7.051  0.0711 -1.1588  0.8316
  609MOL0     C80285   7.646   9.933   6.993  0.5084 -0.2139  0.6800
  609MOL0     O80286   7.710  10.045   7.035 -0.0417  0.0188  0.0453
  609MOL0     C80287   7.838  10.073   6.990  0.3075  0.1154  0.0566
  609MOL0     C80288   7.860  10.194   6.917  0.7170  0.1834 -0.6056
  609MOL0     C80289   7.988  10.217   6.864  0.0919 -0.1559  0.0151
  609MOL0     C80290   8.097  10.129   6.892 -0.6208  0.4996  0.5270
  609MOL0     O80291   8.225  10.157   6.860  0.1309 -0.0572  0.0824
  609MOL0     C80292   8.268  10.111   6.728 -0.6054 -1.0115 -0.1578
  609MOL0     C80293   8.425  10.116   6.725  0.0101 -0.6131 -0.0932
  609MOL0     C80294   8.479  10.003   6.637  0.7360  0.7176 -0.5558
  609MOL0     C80295   8.415   9.987   6.502 -0.1563  0.0938 -0.1335
  609MOL0     C80296   8.430  10.117   6.413 -1.2951 -0.3643  0.4914
  609MOL0     C80297   8.424  10.097   6.260 -0.1075  0.5351 -1.0697
  609MOL0     C80298   8.555  10.103   6.183  0.9029  0.2582 -0.8289
  609MOL0     C80299   8.676  10.009   6.219  0.3688 -0.4874 -0.0611
  609MOL0    Cl80300   8.628   9.839   6.248  0.2111  0.2606  0.1896
  609MOL0     C80301   8.077  10.012   6.972  0.8808  0.6470  0.0157
  609MOL0     C80302   7.945   9.986   7.013 -0.4433 -0.2466 -0.0038
  609MOL0     O80303   7.698   9.842   6.917 -0.2351  0.2890  0.0015
  609MOL0     C80304   7.455   9.996   7.140 -0.0280  0.0544 -0.3463
  609MOL0     C80305   7.325   9.974   7.182  2.0097  0.5176 -0.0759
  609MOL0     N80306   6.759   9.914   7.655  0.1213 -0.0844  0.3077
  609MOL0     N80307   6.808   9.835   7.746 -0.6308  0.2276 -0.8051
  609MOL0     C80308   8.137  10.066   7.852  0.5591  0.1322 -0.1214
  609MOL0     C80309   8.272  10.093   7.868 -0.2119 -0.0867 -1.0484
  609MOL0     C80310   8.652  10.290   7.979 -0.1171 -0.9640 -0.0902
  609MOL0     C80311   8.741  10.286   7.865  1.1034 -0.0120  0.6891
  609MOL0     C80312   8.876  10.317   7.876 -0.2563  0.3051  0.1045
  609MOL0     C80313   8.935  10.355   7.999 -0.1720 -0.1508 -0.2261
  609MOL0     O80314   9.068  10.410   8.016 -0.2035  0.7520  0.1689
  609MOL0     C80315   9.160  10.410   7.907 -0.4200 -0.4219 -0.1553
  609MOL0     C80316   9.249  10.530   7.920 -0.3830 -0.6438 -0.8600
  609MOL0     C80317   9.356  10.518   8.024 -0.8891  0.4359 -0.2757
  609MOL0     C80318   9.476  10.438   7.957 -0.5047  0.0678 -0.9998
  609MOL0     C80319   9.592  10.443   8.040 -0.1256 -0.4272  0.1948
  609MOL0     C80320   9.678  10.457   8.114 -0.2412  0.5456  0.2688
  609MOL0     C80321   8.849  10.364   8.105 -0.1715 -1.8385 -0.2035
  609MOL0     C80322   8.714  10.335   8.098 -0.3131 -0.0808  0.2486
  609MOL0     H80323   8.298  10.351   7.656  0.5042  1.4799  3.3108
  609MOL0     H80324   8.090  10.261   7.570  0.8295  0.3280 -0.9259
  609MOL0     H80325   7.840  10.209   7.835  1.4497  0.7359 -1.7253
  609MOL0     H80326   7.865  10.038   7.878  1.4602 -0.1951  0.0115
  609MOL0     H80327   7.727   9.988   7.677  3.4501 -0.4903  2.1082
  609MOL0     H80328   7.665  10.158   7.680  1.4001  0.7476  0.3011
  609MOL0     H80329   7.588  10.140   7.908 -0.0769 -0.0773  0.5440
  609MOL0     H80330   7.624   9.967   7.909 -0.9314  0.9648  1.6841
  609MOL0     H80331   7.409  10.117   7.737  1.3317  0.1340 -0.6726
  609MOL0     H80332   7.471   9.963   7.683 -3.4218 -0.8995  1.0105
  609MOL0     H80333   7.335  10.017   7.944  1.2552  0.1959  1.0681
  609MOL0     H80334   7.420   9.872   7.919  1.6229  1.3276 -0.1860
  609MOL0     H80335   7.275   9.813   7.718  1.3299  0.8355 -0.1232
  609MOL0     H80336   7.207   9.966   7.722  0.7124  0.8531  0.3236
  609MOL0     H80337   7.186   9.779   7.968 -0.8504 -0.6671  0.4712
  609MOL0     H80338   7.097   9.921   7.937  0.1945 -1.6397  2.3496
  609MOL0     H80339   6.977   9.694   7.870 -0.8291 -0.6840 -1.2576
  609MOL0     H80340   7.097   9.687   7.729 -0.5370  1.2147 -1.2640
  609MOL0     H80341   7.070   9.914   7.561  1.5829 -2.2510  2.6005
  609MOL0     H80342   6.964  10.095   7.451 -0.3127  0.8773 -0.2838
  609MOL0     H80343   6.811  10.133   7.499  1.2666 -1.2506  1.5422
  609MOL0     H80344   6.782  10.064   7.266 -1.6979 -2.2679 -0.8741
  609MOL0     H80345   6.710   9.947   7.370 -0.2767  1.4996  1.9757
  609MOL0     H80346   6.910   9.798   7.334  1.9731 -1.9255 -2.5429
  609MOL0     H80347   6.866   9.855   7.173 -0.1498 -2.1467  2.2084
  609MOL0     H80348   7.107   9.892   7.333 -1.1901 -0.4829 -0.0378
  609MOL0     H80349   7.039  10.037   7.244  0.1658 -0.2435 -0.6078
  609MOL0     H80350   7.262   9.689   7.002 -2.0030  0.8636 -0.4814
  609MOL0     H80351   7.494   9.709   6.946  1.8767 -2.0958  3.6252
  609MOL0     H80352   7.768  10.252   6.906  0.8100  0.3853 -0.3176
  609MOL0     H80353   8.011  10.301   6.798  1.2712  1.8893  2.8514
  609MOL0     H80354   8.234  10.170   6.642  3.7998  4.1409  1.1091
  609MOL0     H80355   8.238  10.008   6.707  0.2874 -1.1424 -0.8355
  609MOL0     H80356   8.464  10.103   6.826  0.9549 -1.8263 -0.5856
  609MOL0     H80357   8.453  10.215   6.688  0.0552  0.9913  3.7332
  609MOL0     H80358   8.465   9.906   6.687  3.9387 -0.3471 -1.5175
  609MOL0     H80359   8.586  10.025   6.641  0.5234  1.6714  1.9831
  609MOL0     H80360   8.485   9.914   6.460  2.4443  0.9044  2.5309
  609MOL0     H80361   8.319   9.934   6.504  0.7799 -1.7896 -1.5517
  609MOL0     H80362   8.514  10.179   6.446 -1.7031 -1.1413  3.2538
  609MOL0     H80363   8.344  10.183   6.428  0.0851  1.3919  1.1100
  609MOL0     H80364   8.371  10.186   6.223  0.3059  2.8344  3.2076
  609MOL0     H80365   8.358  10.017   6.226  0.2216  0.5090 -1.6737
  609MOL0     H80366   8.525  10.092   6.078 -1.3568  1.1971 -0.3200
  609MOL0     H80367   8.596  10.204   6.175  1.0120  0.1183 -2.4350
  609MOL0     H80368   8.721  10.042   6.313 -1.3992 -2.7028  1.6545
  609MOL0     H80369   8.759  10.019   6.149  0.1886  0.9733 -0.1024
  609MOL0     H80370   8.156   9.942   6.996  0.0005  0.5319  3.0381
  609MOL0     H80371   7.945   9.899   7.078 -1.5760  1.2268  2.0604
  609MOL0     H80372   7.501  10.086   7.181  1.1707  0.7401 -2.9471
  609MOL0     H80373   7.275  10.034   7.258  2.7454 -1.6131  2.1955
  609MOL0     H80374   8.082   9.999   7.917 -1.5009  1.1680 -0.7340
  609MOL0     H80375   8.321  10.050   7.954 -1.1778  1.0884  0.1158
  609MOL0     H80376   8.700  10.254   7.769  2.5383  0.5905 -0.1697
  609MOL0     H80377   8.938  10.311   7.787 -0.2108  0.7819  0.1017
  609MOL0     H80378   9.116  10.423   7.808 -0.8721 -0.3997  0.0465
  609MOL0     H80379   9.226  10.325   7.928  1.8093  1.3343  0.3574
  609MOL0     H80380   9.296  10.563   7.827  0.9755 -0.4408 -0.1376
  609MOL0     H80381   9.193  10.622   7.936  3.1940  2.1964 -2.9597
  609MOL0     H80382   9.324  10.492   8.125 -0.4175 -1.5978 -0.6134
  609MOL0     H80383   9.396  10.618   8.043 -0.7255  0.8095 -2.3272
  609MOL0     H80384   9.448  10.333   7.953  3.3248 -1.0987 -2.8732
  609MOL0     H80385   9.497  10.462   7.852 -0.0591 -0.6103 -1.0711
  609MOL0     H80386   9.754  10.474   8.187 -2.0853 -0.5317  2.6007
  609MOL0     H80387   8.886  10.409   8.197  0.8201  2.2799 -2.3824
  609MOL0     H80388   8.658  10.338   8.191 -0.2534 -0.5437  0.3021
  610MOL0     O80389   9.827  11.234   7.069  0.0371 -0.5129 -0.0312
  610MOL0     C80390   9.823  11.134   7.151 -0.7244 -0.4102 -0.2969
  610MOL0     O80391   9.934  11.058   7.197 -0.0119 -0.3786 -0.5027
  610MOL0     C80392  10.061  11.108   7.170 -0.2628  0.6996 -0.3889
  610MOL0     C80393  10.111  11.198   7.267 -0.5209 -0.3867  0.2840
  610MOL0     C80394  10.231  11.264   7.245 -0.4977  0.3788  0.2975
  610MOL0     C80395  10.304  11.242   7.121 -0.3695 -0.6138 -0.4317
  610MOL0     O80396  10.429  11.299   7.112  0.1685  0.2246 -0.0677
  610MOL0     C80397  10.505  11.306   6.984 -0.5271  0.4098 -0.4097
  610MOL0     C80398  10.646  11.342   7.004 -0.7245 -0.0771  0.2892
  610MOL0     C80399  10.667  11.475   7.070  0.9106  0.0114 -0.3519
  610MOL0     C80400  10.804  11.516   7.067 -0.3019  0.2037 -0.0313
  610MOL0     C80401  10.873  11.481   6.934 -0.0462 -0.1568  0.2642
  610MOL0     C80402  10.997  11.571   6.908 -0.6203 -0.2623  0.4135
  610MOL0     C80403  11.114  11.523   6.820  0.1437 -0.6117  0.2647
  610MOL0     C80404  11.224  11.626   6.795 -0.5565 -0.1916  0.5909
  610MOL0     N80405  11.292  11.692   6.908  0.3950 -0.9417 -0.4306
  610MOL0     C80406  11.235  11.795   6.984  0.4698 -1.0352  0.2219
  610MOL0     C80407  11.338  11.855   7.048 -0.1971  0.5392  0.2291
  610MOL0     C80408  11.323  11.981   7.121  0.5332  0.0444 -0.6614
  610MOL0     C80409  11.332  12.102   7.022 -0.1702 -0.4355 -0.4817
  610MOL0     C80410  11.200  12.179   7.004  0.0521  0.4471  0.3268
  610MOL0     C80411  11.077  12.103   6.963  0.0421  0.0957  0.3234
  610MOL0     O80412  11.032  12.022   7.072  0.6880 -0.1280 -0.5378
  610MOL0     C80413  10.908  11.966   7.053 -0.6239 -0.1204 -0.5153
  610MOL0     C80414  10.840  11.956   6.929  0.4432  0.5929  0.6374
  610MOL0     C80415  10.706  11.906   6.931 -0.1481 -0.0105  0.0759
  610MOL0     C80416  10.642  11.862   7.042 -0.0660  0.1426 -0.0510
  610MOL0     C80417  10.509  11.814   7.052 -0.3401  0.1739  0.2722
  610MOL0     O80418  10.461  11.792   7.171 -0.5959 -0.3868 -0.2352
  610MOL0     C80419  10.328  11.768   7.177 -0.2464 -0.1110  0.3562
  610MOL0     C80420  10.283  11.636   7.191  0.1462  0.4896  0.3959
  610MOL0     C80421  10.147  11.590   7.196 -0.3203 -0.1598 -0.0451
  610MOL0     C80422  10.052  11.690   7.194  0.2509 -0.7276  0.4977
  610MOL0     O80423   9.916  11.657   7.197 -0.0686  0.7032 -0.0190
  610MOL0     C80424   9.867  11.552   7.111 -0.0836  0.6223  0.7775
  610MOL0     C80425   9.900  11.584   6.959  0.0902 -0.4797 -0.1861
  610MOL0     C80426   9.834  11.712   6.916  0.1283  0.1165  0.0373
  610MOL0     C80427   9.830  11.738   6.766 -0.1761 -0.2167  0.5607
  610MOL0     C80428   9.975  11.746   6.708 -0.2971 -0.3107  0.4760
  610MOL0     C80429   9.954  11.803   6.573 -0.2020 -0.0788 -1.0594
  610MOL0     C80430  10.081  11.824   6.508 -0.5635 -0.2258  0.7612
  610MOL0     C80431  10.058  11.843   6.355  0.4837  0.2625  0.4673
  610MOL0    Cl80432  10.228  11.866   6.285  0.0007 -0.0326  0.0641
  610MOL0     C80433  10.092  11.826   7.182  0.0749 -0.3674 -0.7870
  610MOL0     C80434  10.229  11.864   7.178  0.2325 -0.4821  0.0926
  610MOL0     O80435  10.444  11.793   6.947  0.2460  0.3637 -0.5810
  610MOL0     C80436  10.714  11.876   7.165 -0.2191 -0.4884 -0.3071
  610MOL0     C80437  10.846  11.923   7.163 -0.0211 -0.8103  0.3133
  610MOL0     N80438  11.457  11.789   7.007  0.0842 -0.0159 -0.3760
  610MOL0     N80439  11.437  11.695   6.921  0.5299 -0.2175  0.4502
  610MOL0     C80440  10.245  11.160   7.020 -0.0321  0.4769 -0.7854
  610MOL0     C80441  10.129  11.091   7.051  0.1418  0.1459 -0.1555
  610MOL0     C80442   9.696  11.080   7.204  1.0185 -0.2127  0.0132
  610MOL0     C80443   9.691  10.968   7.284  0.2110 -0.6484 -0.6944
  610MOL0     C80444   9.558  10.934   7.331 -0.7509  0.9502 -0.2084
  610MOL0     C80445   9.443  11.002   7.298  0.7631  0.0787  0.9901
  610MOL0     O80446   9.319  10.948   7.343  0.8046 -0.1713 -0.0117
  610MOL0     C80447   9.207  11.049   7.344 -0.4220  0.0316  0.2212
  610MOL0     C80448   9.097  11.019   7.445  0.1770 -0.0944  0.2633
  610MOL0     C80449   9.162  11.017   7.589 -0.5970 -0.7517  0.4038
  610MOL0     C80450   9.052  10.962   7.680 -0.0865 -0.2720 -0.7408
  610MOL0     C80451   8.958  11.074   7.729 -0.5728  0.7043  0.9696
  610MOL0     C80452   8.889  11.170   7.742 -0.8066 -0.2434 -0.1974
  610MOL0     C80453   9.457  11.109   7.221  0.0767  0.9459  0.2904
  610MOL0     C80454   9.578  11.148   7.170 -0.5396 -0.2258  0.3111
  610MOL0     H80455  10.062  11.214   7.362 -0.2356 -2.7838  0.9014
  610MOL0     H80456  10.278  11.325   7.322  2.1435 -0.6982 -0.3297
  610MOL0     H80457  10.466  11.384   6.918  2.8171  1.6951 -1.0876
  610MOL0     H80458  10.496  11.217   6.921 -2.0081 -0.8343  1.4585
  610MOL0     H80459  10.687  11.332   6.903 -1.6982 -0.1660 -0.1021
  610MOL0     H80460  10.696  11.263   7.061  0.8487  0.0117 -0.8953
  610MOL0     H80461  10.632  11.470   7.173  3.0964 -3.9044  0.3855
  610MOL0     H80462  10.608  11.547   7.012 -2.3214 -2.4004 -0.3215
  610MOL0     H80463  10.817  11.621   7.096 -0.7099 -0.0505  1.1295
  610MOL0     H80464  10.860  11.454   7.137 -0.1783  0.0814 -0.2405
  610MOL0     H80465  10.808  11.498   6.848  1.2302 -0.3492 -0.7839
  610MOL0     H80466  10.904  11.376   6.922 -1.3376 -0.3755 -1.4449
  610MOL0     H80467  11.047  11.591   7.003 -3.0748  1.6495  1.4169
  610MOL0     H80468  10.974  11.674   6.881 -0.2626 -0.4291 -0.5747
  610MOL0     H80469  11.167  11.434   6.855 -0.2408 -1.1576 -0.5053
  610MOL0     H80470  11.063  11.490   6.729  0.5152 -1.2598  0.2915
  610MOL0     H80471  11.180  11.709   6.737  2.8283  1.3022 -0.0575
  610MOL0     H80472  11.304  11.582   6.736 -0.7587  0.8565 -0.4964
  610MOL0     H80473  11.129  11.817   6.993  0.2356 -1.7663 -0.6177
  610MOL0     H80474  11.406  11.984   7.192  0.1734  0.6532 -0.2527
  610MOL0     H80475  11.232  11.987   7.181  0.5707  0.2090 -0.6197
  610MOL0     H80476  11.374  12.069   6.927  2.0120  0.2238  0.2061
  610MOL0     H80477  11.402  12.170   7.071 -0.1729 -1.1808  0.6180
  610MOL0     H80478  11.170  12.230   7.096 -0.9852 -0.9305  0.7829
  610MOL0     H80479  11.225  12.258   6.933 -1.0401  1.8794  1.4869
  610MOL0     H80480  11.113  12.052   6.874  0.4052  2.7152 -1.1438
  610MOL0     H80481  11.011  12.189   6.951  2.0490  2.1158  2.4766
  610MOL0     H80482  10.884  11.989   6.835 -0.2808 -0.5020 -0.1221
  610MOL0     H80483  10.654  11.914   6.836 -0.2368 -1.5097 -0.0255
  610MOL0     H80484  10.361  11.560   7.187 -0.5806 -0.2899  0.8958
  610MOL0     H80485  10.116  11.486   7.194  1.7317 -0.9788  3.3462
  610MOL0     H80486   9.759  11.547   7.128 -0.1144  1.2530  0.7965
  610MOL0     H80487   9.908  11.459   7.150  0.6769  1.6251  2.4940
  610MOL0     H80488   9.850  11.508   6.898 -2.2836  0.3814  0.5838
  610MOL0     H80489  10.008  11.599   6.950  0.0116  0.0240 -0.2719
  610MOL0     H80490   9.897  11.794   6.951 -0.3173  0.4026  0.1745
  610MOL0     H80491   9.735  11.710   6.961  0.6004 -0.8454  1.0842
  610MOL0     H80492   9.773  11.663   6.710 -0.0909  1.2678 -1.6287
  610MOL0     H80493   9.771  11.831   6.762  0.3574  0.1242  0.5939
  610MOL0     H80494  10.033  11.654   6.700  1.5084  0.8290 -0.4658
  610MOL0     H80495  10.045  11.802   6.772  1.3706  1.6328 -2.7866
  610MOL0     H80496   9.903  11.899   6.558 -0.4225  0.1284  0.8110
  610MOL0     H80497   9.894  11.728   6.521 -2.2019  1.6388 -1.3654
  610MOL0     H80498  10.115  11.920   6.547 -1.1229 -0.1564  1.0859
  610MOL0     H80499  10.155  11.745   6.522  1.8835  1.0623 -3.1164
  610MOL0     H80500   9.996  11.931   6.333 -1.3661 -0.4205  2.5176
  610MOL0     H80501  10.013  11.753   6.311 -1.7391  0.3872  2.2958
  610MOL0     H80502  10.025  11.910   7.166 -1.7298 -1.5095  0.3586
  610MOL0     H80503  10.257  11.967   7.159 -3.1447  0.8956  1.8102
  610MOL0     H80504  10.663  11.868   7.260  2.7873 -0.7348  1.4036
  610MOL0     H80505  10.909  11.937   7.250  2.5690  0.8016 -1.6484
  610MOL0     H80506  10.299  11.143   6.927  1.8551 -0.4375  0.4177
  610MOL0     H80507  10.067  11.040   6.979 -0.6576  0.2937  0.4167
  610MOL0     H80508   9.782  10.914   7.306  0.0434 -0.6004  0.1725
  610MOL0     H80509   9.541  10.846   7.392 -0.9403  1.1743  0.0634
  610MOL0     H80510   9.164  11.057   7.243  0.9862  1.5991 -0.2905
  610MOL0     H80511   9.251  11.147   7.364  2.1856  0.5555 -5.7626
  610MOL0     H80512   9.026  11.101   7.435 -0.6598 -0.5347  2.1911
  610MOL0     H80513   9.047  10.922   7.433  0.1461 -0.2910  1.7480
  610MOL0     H80514   9.197  11.116   7.620 -2.3154 -0.8161  2.7607
  610MOL0     H80515   9.246  10.947   7.593 -1.5956 -1.8946  2.8736
  610MOL0     H80516   8.996  10.877   7.642 -1.0327 -1.2992  2.6348
  610MOL0     H80517   9.107  10.914   7.761  0.8576 -1.0375 -1.7980
  610MOL0     H80518   8.821  11.248   7.768 -0.1304  0.0397  0.7796
  610MOL0     H80519   9.368  11.153   7.177 -0.4102 -1.0281 -0.8171
  610MOL0     H80520   9.576  11.236   7.107  0.4207 -0.0653  0.4933
  611MOL0     O80521   4.503   1.861   8.524  0.7271  0.3016  0.0794
  611MOL0     C80522   4.578   1.809   8.612  0.7903 -0.0843 -0.6235
  611MOL0     O80523   4.549   1.696   8.691  0.1665 -0.1570  0.1909
  611MOL0     C80524   4.417   1.637   8.687 -0.0483 -0.0357  0.4792
  611MOL0     C80525   4.415   1.499   8.713  0.0721 -0.8403 -0.5046
  611MOL0     C80526   4.294   1.435   8.713  0.2727 -0.9394 -0.0358
  611MOL0     C80527   4.177   1.497   8.676  0.2043  0.9367  0.5314
  611MOL0     O80528   4.052   1.433   8.680  0.2041 -0.2715  1.0074
  611MOL0     C80529   4.043   1.309   8.621  0.1284 -0.7733 -0.0202
  611MOL0     C80530   4.033   1.321   8.470  0.6843 -0.1083  0.6398
  611MOL0     C80531   3.900   1.384   8.421 -0.2516 -0.0897  0.1988
  611MOL0     C80532   3.912   1.381   8.272  0.0933  0.0361  0.2410
  611MOL0     C80533   3.878   1.528   8.217  0.5060 -0.5311 -0.4691
  611MOL0     C80534   3.882   1.536   8.068 -0.0359 -0.7500  0.3421
  611MOL0     C80535   3.790   1.654   8.018 -0.0509 -0.2980  0.2643
  611MOL0     C80536   3.752   1.624   7.873 -0.2129  0.4690 -0.0955
  611MOL0     N80537   3.862   1.586   7.780 -0.8234 -0.0507 -0.7340
  611MOL0     C80538   3.984   1.646   7.772 -0.6050 -0.2401  0.7674
  611MOL0     C80539   4.070   1.557   7.717  0.5661  0.1480 -0.2363
  611MOL0     C80540   4.209   1.576   7.663 -0.3479 -0.7503 -0.3170
  611MOL0     C80541   4.322   1.618   7.760  0.0121  0.1026 -0.4685
  611MOL0     C80542   4.458   1.612   7.688  0.1181 -0.2389  0.5014
  611MOL0     C80543   4.575   1.605   7.780  0.8582 -0.0657  0.6571
  611MOL0     O80544   4.563   1.726   7.853 -0.8515  0.1523  0.2757
  611MOL0     C80545   4.655   1.824   7.831 -0.2402 -0.0296  0.4965
  611MOL0     C80546   4.742   1.848   7.718  0.0670  0.0470 -2.2249
  611MOL0     C80547   4.824   1.962   7.719  0.2587 -0.4347  0.0870
  611MOL0     C80548   4.832   2.047   7.832 -0.7358 -0.7758 -0.0775
  611MOL0     C80549   4.931   2.168   7.848  0.2660  0.3607 -0.1806
  611MOL0     O80550   4.944   2.222   7.977  0.5010  0.4025 -0.0159
  611MOL0     C80551   5.044   2.313   7.999  0.5684  0.2960  0.8205
  611MOL0     C80552   5.017   2.448   7.991  0.4966  0.0080  0.3865
  611MOL0     C80553   5.122   2.540   8.020 -0.4282  0.2315  0.1477
  611MOL0     C80554   5.252   2.499   8.061  1.0317 -0.1520 -0.0010
  611MOL0     O80555   5.350   2.577   8.091 -0.4503  0.4849 -0.2923
  611MOL0     C80556   5.346   2.724   8.102  0.7327  0.7766 -0.5626
  611MOL0     C80557   5.487   2.761   8.093  0.1123 -0.8115  0.5517
  611MOL0     C80558   5.511   2.907   8.092  1.0190  0.5971  0.3179
  611MOL0     C80559   5.654   2.939   8.100  0.0908  0.8027 -0.5987
  611MOL0     C80560   5.717   2.936   8.238  0.3455 -0.3306  0.1100
  611MOL0     C80561   5.867   2.963   8.236 -0.0416 -0.0891 -0.2174
  611MOL0     C80562   5.890   3.111   8.212 -0.1563 -0.3926  0.7505
  611MOL0     C80563   6.012   3.165   8.283  0.0657 -0.6684 -1.1708
  611MOL0    Cl80564   6.174   3.127   8.221  0.5365 -0.0153  0.4704
  611MOL0     C80565   5.274   2.361   8.073  0.4055  0.4646  0.1781
  611MOL0     C80566   5.173   2.266   8.039 -0.2525  0.0173 -0.3585
  611MOL0     O80567   4.963   2.226   7.747 -0.5562 -0.5503  0.4337
  611MOL0     C80568   4.748   2.024   7.933 -0.7328  0.1184  0.5111
  611MOL0     C80569   4.657   1.916   7.939  0.4835  0.0597  0.2586
  611MOL0     N80570   3.990   1.442   7.689 -0.2235  0.2908 -0.5385
  611MOL0     N80571   3.873   1.459   7.726  0.6368 -0.3365 -0.4701
  611MOL0     C80572   4.179   1.635   8.656  0.3568  0.0555 -0.3966
  611MOL0     C80573   4.304   1.707   8.657  0.4473  0.8139  0.5232
  611MOL0     C80574   4.712   1.868   8.623 -0.1739 -0.7321  0.4547
  611MOL0     C80575   4.820   1.794   8.666  0.7551  1.1445  0.3906
  611MOL0     C80576   4.949   1.857   8.675 -0.4154 -0.1075  0.9005
  611MOL0     C80577   4.958   1.999   8.658 -0.1421 -0.0395 -0.2001
  611MOL0     O80578   5.073   2.062   8.703  0.9106  0.1672  0.4212
  611MOL0     C80579   5.167   1.998   8.787  0.0072 -0.7708  0.6531
  611MOL0     C80580   5.264   2.103   8.846  0.2547  0.7498  0.5802
  611MOL0     C80581   5.401   2.072   8.800  1.1754 -0.5885 -0.1665
  611MOL0     C80582   5.502   2.173   8.851  0.6333  1.0417  0.2337
  611MOL0     C80583   5.637   2.127   8.819  0.0485 -0.0740  0.0994
  611MOL0     C80584   5.750   2.097   8.810 -0.5252  0.1212 -0.2434
  611MOL0     C80585   4.851   2.077   8.618 -0.7452  0.0154 -0.4886
  611MOL0     C80586   4.727   2.008   8.597  0.5322  0.0477 -0.3122
  611MOL0     H80587   4.507   1.446   8.736 -0.5058 -0.4697  3.4645
  611MOL0     H80588   4.308   1.335   8.752 -1.3761 -0.3558  2.2336
  611MOL0     H80589   3.952   1.259   8.655  0.0754  0.2381  1.3874
  611MOL0     H80590   4.133   1.258   8.658  0.7047 -1.0602 -1.7471
  611MOL0     H80591   4.045   1.219   8.432  2.2181 -0.5182  2.1103
  611MOL0     H80592   4.113   1.388   8.436  1.2732 -0.9014  0.4278
  611MOL0     H80593   3.887   1.485   8.460  0.6127 -0.3555  1.2233
  611MOL0     H80594   3.828   1.305   8.444  1.1676 -0.8596  2.2856
  611MOL0     H80595   4.014   1.350   8.245  0.0840  0.5711 -0.4497
  611MOL0     H80596   3.842   1.312   8.225  2.9636 -1.4530 -2.1969
  611MOL0     H80597   3.926   1.612   8.267 -2.0145 -0.7333  2.6627
  611MOL0     H80598   3.771   1.526   8.238  0.6116  2.2972  0.7569
  611MOL0     H80599   3.861   1.441   8.018 -1.7633  0.2768 -0.9801
  611MOL0     H80600   3.985   1.557   8.037  0.1051 -1.5098  0.2677
  611MOL0     H80601   3.698   1.665   8.075 -0.0017  1.6570  0.0362
  611MOL0     H80602   3.839   1.751   8.031 -0.4798  0.2768 -1.9718
  611MOL0     H80603   3.707   1.718   7.840 -1.3623  1.3412  3.5121
  611MOL0     H80604   3.682   1.540   7.876  0.7012 -0.3282  2.5989
  611MOL0     H80605   4.012   1.749   7.789  1.5555 -0.5038 -0.8114
  611MOL0     H80606   4.207   1.648   7.580 -0.1238 -1.8091 -1.2710
  611MOL0     H80607   4.238   1.476   7.631 -0.6712 -0.3921 -1.8205
  611MOL0     H80608   4.324   1.560   7.853  3.0531 -1.5255 -1.4005
  611MOL0     H80609   4.300   1.722   7.786  1.5853 -0.2984  3.1092
  611MOL0     H80610   4.455   1.533   7.614  1.8545  1.0242 -1.0066
  611MOL0     H80611   4.468   1.704   7.630 -0.1482 -0.0345  0.7720
  611MOL0     H80612   4.669   1.598   7.724  0.7032 -0.9375  0.4798
  611MOL0     H80613   4.566   1.521   7.850  1.9011 -0.6260  0.1479
  611MOL0     H80614   4.731   1.779   7.635 -0.3902  1.1765 -3.1225
  611MOL0     H80615   4.893   1.962   7.635 -0.5364  2.0097 -0.6513
  611MOL0     H80616   4.920   2.487   7.960  1.4317  2.1534 -0.0468
  611MOL0     H80617   5.106   2.647   8.018 -1.3710  0.1122  0.4036
  611MOL0     H80618   5.305   2.755   8.199  1.7270  0.2804  0.0395
  611MOL0     H80619   5.287   2.765   8.020  0.4438  1.8728  0.1691
  611MOL0     H80620   5.522   2.718   7.999  2.5071 -2.2960  2.0102
  611MOL0     H80621   5.546   2.715   8.173  0.3162  1.9148  2.0955
  611MOL0     H80622   5.457   2.949   8.178 -0.1163  0.1302 -0.1518
  611MOL0     H80623   5.464   2.940   7.999 -0.1335 -0.0787  0.6369
  611MOL0     H80624   5.712   2.861   8.048 -0.1251  1.9047 -2.5997
  611MOL0     H80625   5.674   3.035   8.053 -1.4996  0.6984 -1.5613
  611MOL0     H80626   5.709   2.830   8.262  0.4345 -1.4118 -3.8704
  611MOL0     H80627   5.661   2.994   8.312 -0.7703 -1.5082  0.2167
  611MOL0     H80628   5.911   2.909   8.151  1.7673  0.2658  0.4607
  611MOL0     H80629   5.906   2.923   8.330 -2.3464  0.5378  1.0924
  611MOL0     H80630   5.894   3.143   8.107 -3.1864  1.1634  1.0035
  611MOL0     H80631   5.806   3.170   8.249 -0.1637  0.6477 -0.8324
  611MOL0     H80632   6.009   3.134   8.388 -2.8601 -0.7871 -1.2038
  611MOL0     H80633   6.006   3.274   8.275  0.5905 -0.6344 -1.0802
  611MOL0     H80634   5.372   2.328   8.104  0.4152 -1.7437 -1.9818
  611MOL0     H80635   5.194   2.162   8.062  0.7539  0.5306  1.2073
  611MOL0     H80636   4.753   2.091   8.018  1.8817 -0.6096  1.0346
  611MOL0     H80637   4.605   1.905   8.033 -1.8330  3.8800 -0.3842
  611MOL0     H80638   4.081   1.681   8.647 -0.3308 -1.3983 -0.6536
  611MOL0     H80639   4.287   1.814   8.664 -1.9124  0.4291  1.8110
  611MOL0     H80640   4.802   1.688   8.683  0.4451  0.7886 -1.9238
  611MOL0     H80641   5.035   1.792   8.689  0.0300  0.3294  0.2398
  611MOL0     H80642   5.221   1.915   8.740  2.7090  1.1239  0.1302
  611MOL0     H80643   5.123   1.962   8.880  2.9685 -0.2539  2.3937
  611MOL0     H80644   5.221   2.199   8.818 -2.7181 -1.0995 -1.8682
  611MOL0     H80645   5.283   2.099   8.954  1.6703 -0.6509  0.3244
  611MOL0     H80646   5.418   2.065   8.692 -0.7849  0.7435 -0.5901
  611MOL0     H80647   5.432   1.977   8.847  1.1031 -0.8652 -0.6696
  611MOL0     H80648   5.486   2.272   8.808  0.1441  1.1466  0.6527
  611MOL0     H80649   5.496   2.177   8.960  0.4832 -1.8585  0.4224
  611MOL0     H80650   5.853   2.068   8.818  0.3046  3.0096  0.9824
  611MOL0     H80651   4.856   2.184   8.600  0.6645 -0.1817 -1.3594
  611MOL0     H80652   4.632   2.056   8.576  1.5296  1.5202 -1.7610
  612MOL0     O80653   3.584   7.941   4.376 -0.4626  0.2935  0.1845
  612MOL0     C80654   3.467   7.926   4.405  0.6222  0.0445  0.9269
  612MOL0     O80655   3.372   8.021   4.428  0.1576 -0.3387  0.9966
  612MOL0     C80656   3.411   8.155   4.422 -1.0229 -0.0159  0.4078
  612MOL0     C80657   3.521   8.204   4.490 -1.2244 -0.4988  0.2052
  612MOL0     C80658   3.558   8.342   4.486  0.2201 -0.2085 -0.4616
  612MOL0     C80659   3.484   8.429   4.410  0.3086 -0.3324  0.1277
  612MOL0     O80660   3.523   8.563   4.401 -0.1420 -0.2760  0.3340
  612MOL0     C80661   3.574   8.643   4.510  1.0673  0.1294  0.1330
  612MOL0     C80662   3.481   8.636   4.634 -1.6346 -0.9377  0.6709
  612MOL0     C80663   3.517   8.759   4.724 -0.3995 -0.3008 -0.6139
  612MOL0     C80664   3.433   8.763   4.850 -0.0654  0.7323  0.1207
  612MOL0     C80665   3.448   8.876   4.940 -0.0769 -0.6998 -0.6455
  612MOL0     C80666   3.364   8.999   4.893  0.1573 -0.8532 -0.8946
  612MOL0     C80667   3.210   8.982   4.925 -0.0469 -0.9993 -0.7192
  612MOL0     C80668   3.133   9.114   4.917 -0.1516 -0.7684  0.1637
  612MOL0     N80669   2.987   9.105   4.898 -0.1886  0.5335  0.2005
  612MOL0     C80670   2.903   9.001   4.915  0.4922  0.2180 -0.2103
  612MOL0     C80671   2.776   9.056   4.912 -0.5540 -0.3037 -0.9884
  612MOL0     C80672   2.642   8.987   4.933 -0.9853  0.4871  0.4254
  612MOL0     C80673   2.576   9.032   5.068 -0.3591  0.7299 -0.0346
  612MOL0     C80674   2.491   9.158   5.048  0.0242  0.1815 -0.7433
  612MOL0     C80675   2.353   9.117   5.005 -0.4147 -0.2423 -0.4777
  612MOL0     O80676   2.285   9.063   5.117 -0.6585 -0.3195 -0.2625
  612MOL0     C80677   2.156   9.039   5.099 -0.1698 -0.4375  1.1655
  612MOL0     C80678   2.091   9.009   5.219 -0.0593 -0.2734  0.9256
  612MOL0     C80679   1.952   8.971   5.228 -0.7997  0.0068  0.1954
  612MOL0     C80680   1.878   8.966   5.110 -0.1342 -0.1585  1.0203
  612MOL0     C80681   1.740   8.934   5.120 -0.2606  0.6139  0.3658
  612MOL0     O80682   1.680   8.943   5.239 -0.6255  0.9011 -0.1384
  612MOL0     C80683   1.543   8.917   5.257 -0.6745  0.1597  0.6325
  612MOL0     C80684   1.502   8.977   5.376  0.2947  0.3210  0.8487
  612MOL0     C80685   1.375   8.946   5.439  0.0792  0.5731  0.9356
  612MOL0     C80686   1.288   8.860   5.375  0.3368  0.0602 -1.1296
  612MOL0     O80687   1.184   8.819   5.453  0.5834  0.0444  0.3721
  612MOL0     C80688   1.071   8.770   5.372  0.0976  0.5723 -0.2394
  612MOL0     C80689   0.944   8.788   5.448 -0.0220 -0.6252 -0.5822
  612MOL0     C80690   0.826   8.718   5.383  0.0811  0.1559  1.1429
  612MOL0     C80691   0.701   8.720   5.483 -0.1404 -0.1203  0.0478
  612MOL0     C80692   0.579   8.635   5.427  0.3881  1.2393 -0.6327
  612MOL0     C80693   0.461   8.643   5.521  0.5283  0.8548 -0.4721
  612MOL0     C80694   0.331   8.579   5.466  0.8651  0.5375  0.4505
  612MOL0     C80695   0.324   8.432   5.498 -0.5254 -0.1939 -0.1339
  612MOL0    Cl80696   0.262   8.413   5.659 -0.0921  0.4079 -0.1517
  612MOL0     C80697   1.318   8.811   5.246 -0.3850  0.6791  0.4972
  612MOL0     C80698   1.449   8.834   5.188  0.6302  0.0602  0.0864
  612MOL0     O80699   1.688   8.895   5.016  0.6051  0.1273 -0.3835
  612MOL0     C80700   1.942   8.989   4.989  0.9856 -0.3763  0.1802
  612MOL0     C80701   2.080   9.026   4.978  0.3378  0.3636 -0.6380
  612MOL0     N80702   2.793   9.192   4.907  0.5979  0.4053  0.1404
  612MOL0     N80703   2.916   9.218   4.901  0.4495  0.5009  0.7372
  612MOL0     C80704   3.367   8.378   4.341  0.6996  0.0812  0.1955
  612MOL0     C80705   3.328   8.243   4.344 -0.8860  0.1102  0.7933
  612MOL0     C80706   3.430   7.789   4.438 -0.4743  0.4635 -0.2476
  612MOL0     C80707   3.520   7.684   4.419  0.5207  0.5276  0.0784
  612MOL0     C80708   3.495   7.554   4.467  0.1963 -0.3808  0.6276
  612MOL0     C80709   3.375   7.525   4.513  0.7074  0.2714 -0.2690
  612MOL0     O80710   3.353   7.395   4.558 -0.4940  0.4072  0.2130
  612MOL0     C80711   3.331   7.387   4.698 -0.5212  1.5392 -0.9619
  612MOL0     C80712   3.300   7.234   4.738  0.3603 -0.2576  0.6973
  612MOL0     C80713   3.315   7.206   4.884  0.0600  0.2292 -0.4462
  612MOL0     C80714   3.456   7.234   4.949 -0.6184  0.0154  0.5556
  612MOL0     C80715   3.466   7.196   5.093 -0.3438 -0.9564 -0.1039
  612MOL0     C80716   3.476   7.172   5.211 -0.2332 -0.0593 -0.2856
  612MOL0     C80717   3.273   7.624   4.517  1.0310 -0.2897  0.4058
  612MOL0     C80718   3.299   7.758   4.489 -0.1107 -0.1441 -0.1799
  612MOL0     H80719   3.591   8.149   4.552  0.7755  0.6360 -0.9526
  612MOL0     H80720   3.645   8.385   4.533  2.1812  0.0725 -4.0365
  612MOL0     H80721   3.598   8.745   4.479  1.8233 -0.2812 -0.6688
  612MOL0     H80722   3.675   8.602   4.524  2.4167  2.2475 -2.6194
  612MOL0     H80723   3.504   8.544   4.688 -0.4673 -0.6494  0.6983
  612MOL0     H80724   3.377   8.639   4.600 -0.9778 -1.8474 -1.6394
  612MOL0     H80725   3.493   8.848   4.665 -0.8006  0.6168  0.8938
  612MOL0     H80726   3.621   8.764   4.757 -1.0876  1.5235  1.4858
  612MOL0     H80727   3.332   8.771   4.807  1.0143  2.5560 -2.3112
  612MOL0     H80728   3.466   8.671   4.900  1.6947  1.2644  0.0072
  612MOL0     H80729   3.553   8.909   4.943 -0.1174 -0.1900  4.6756
  612MOL0     H80730   3.427   8.853   5.045 -3.2381  1.0569 -0.7579
  612MOL0     H80731   3.379   9.016   4.786  4.6795  0.0892 -0.3055
  612MOL0     H80732   3.384   9.087   4.955 -1.5738 -0.0370 -1.4308
  612MOL0     H80733   3.174   8.918   4.844  1.1358 -1.2800 -1.0403
  612MOL0     H80734   3.179   8.936   5.019 -0.4458  2.0801  0.7869
  612MOL0     H80735   3.168   9.176   4.833 -1.1280  2.6028  2.0318
  612MOL0     H80736   3.152   9.184   4.999  0.0978 -0.2406 -0.3275
  612MOL0     H80737   2.933   8.897   4.922 -0.6156  0.0150  2.8674
  612MOL0     H80738   2.654   8.879   4.938  0.5924  0.4974 -1.6837
  612MOL0     H80739   2.574   8.993   4.847 -0.3124 -1.0439 -0.2425
  612MOL0     H80740   2.658   9.063   5.133  0.6868  1.3064 -1.5904
  612MOL0     H80741   2.511   8.960   5.120 -0.5629  0.8010 -0.1918
  612MOL0     H80742   2.474   9.194   5.150  0.8201 -5.4548  1.7233
  612MOL0     H80743   2.537   9.235   4.985 -2.6551  1.1467 -1.6538
  612MOL0     H80744   2.363   9.040   4.927 -2.4574 -3.3567  2.0766
  612MOL0     H80745   2.301   9.200   4.956  1.3962  1.6275  0.6281
  612MOL0     H80746   2.153   9.013   5.307  2.1793  3.6851 -0.5549
  612MOL0     H80747   1.908   8.942   5.323 -1.9651 -2.1897 -0.9352
  612MOL0     H80748   1.577   9.022   5.440  3.3132 -2.3031 -0.5908
  612MOL0     H80749   1.341   9.006   5.523  0.9537  0.3267  1.4703
  612MOL0     H80750   1.093   8.664   5.364 -2.8233 -0.0826 -0.4299
  612MOL0     H80751   1.065   8.813   5.272 -0.4823  2.6663  0.6351
  612MOL0     H80752   0.916   8.891   5.470  2.4509  0.1850 -0.8826
  612MOL0     H80753   0.958   8.749   5.549 -1.2265  0.1112 -0.1097
  612MOL0     H80754   0.846   8.617   5.346 -3.2482 -0.2248  0.0750
  612MOL0     H80755   0.806   8.769   5.289  0.0914 -2.8693 -0.6489
  612MOL0     H80756   0.727   8.698   5.587 -0.6394  1.7074  0.5971
  612MOL0     H80757   0.679   8.827   5.482  1.4016  0.2162 -0.1199
  612MOL0     H80758   0.600   8.528   5.429  2.3450  1.6020  1.4130
  612MOL0     H80759   0.545   8.661   5.326 -5.4542 -0.6352  0.4679
  612MOL0     H80760   0.437   8.748   5.544 -0.2790 -0.0310  3.4063
  612MOL0     H80761   0.482   8.601   5.620 -3.3867 -1.6220 -0.4846
  612MOL0     H80762   0.233   8.619   5.492 -1.2817 -3.1870 -1.0290
  612MOL0     H80763   0.329   8.593   5.357  0.9835 -0.9202  0.2418
  612MOL0     H80764   0.416   8.373   5.499  0.3937  1.1681 -0.9624
  612MOL0     H80765   0.252   8.371   5.441  0.3399  0.2103 -1.7145
  612MOL0     H80766   1.245   8.743   5.202 -0.0135  1.8210 -2.0636
  612MOL0     H80767   1.485   8.776   5.103  0.7843 -2.9742  2.0729
  612MOL0     H80768   1.879   8.979   4.902 -2.0433  0.9007  2.0741
  612MOL0     H80769   2.133   9.034   4.883  2.8674  1.2063  0.7318
  612MOL0     H80770   3.307   8.446   4.283  2.0084  2.3649  1.3851
  612MOL0     H80771   3.246   8.207   4.282 -1.1119 -0.3708  1.3638
  612MOL0     H80772   3.621   7.700   4.384  0.5959  0.7079  0.3711
  612MOL0     H80773   3.550   7.466   4.439 -1.0242 -0.6626 -1.0682
  612MOL0     H80774   3.248   7.450   4.732 -0.3686  1.3795 -0.2845
  612MOL0     H80775   3.425   7.427   4.738 -0.6807  0.5009  0.5198
  612MOL0     H80776   3.196   7.209   4.716  0.4217  1.2690 -1.7566
  612MOL0     H80777   3.364   7.160   4.690  0.7125 -0.2540  1.1518
  612MOL0     H80778   3.295   7.098   4.887  0.3614  0.0407 -2.9223
  612MOL0     H80779   3.239   7.255   4.946 -1.2405 -1.3826 -0.6837
  612MOL0     H80780   3.518   7.168   4.887  0.7080  3.1827 -1.7615
  612MOL0     H80781   3.489   7.338   4.941 -1.0826  0.4821  3.6113
  612MOL0     H80782   3.481   7.142   5.313  2.8722  0.7256 -0.0955
  612MOL0     H80783   3.173   7.590   4.543 -0.3281  0.4503 -3.3039
  612MOL0     H80784   3.217   7.829   4.496 -1.6572 -1.2673 -4.1679
  613MOL0     O80785   4.923   0.903   9.490 -0.4166  0.2914  0.2608
  613MOL0     C80786   4.825   0.851   9.463  1.1742 -0.0523  0.4227
  613MOL0     O80787   4.805   0.766   9.354  0.5810  0.2155  0.4650
  613MOL0     C80788   4.918   0.718   9.288 -0.0446  0.8486  0.0272
  613MOL0     C80789   4.914   0.579   9.263  0.0129  0.2946  0.3038
  613MOL0     C80790   5.007   0.517   9.176 -0.2505 -0.7612 -0.4361
  613MOL0     C80791   5.112   0.604   9.130 -1.4103 -0.1003 -0.2766
  613MOL0     O80792   5.211   0.558   9.045 -0.3957  0.2227  0.0837
  613MOL0     C80793   5.272   0.433   9.067  0.2909  0.8994 -0.0478
  613MOL0     C80794   5.384   0.435   8.967  0.4001  0.5021 -0.3383
  613MOL0     C80795   5.480   0.313   8.969  1.0175 -1.5625 -0.3112
  613MOL0     C80796   5.591   0.328   8.866  0.5318  0.5308 -0.8325
  613MOL0     C80797   5.705   0.223   8.878 -0.2043 -1.2136  0.2639
  613MOL0     C80798   5.808   0.251   8.769  0.5547 -0.0896 -0.0545
  613MOL0     C80799   5.858   0.397   8.763  0.2435 -0.2353  0.2344
  613MOL0     C80800   5.987   0.438   8.688 -0.6797  0.1826 -0.9185
  613MOL0     N80801   6.112   0.370   8.728 -0.5336  0.1246 -0.2312
  613MOL0     C80802   6.142   0.236   8.685  0.5027 -0.7098  0.0972
  613MOL0     C80803   6.251   0.212   8.758 -0.0461  0.3265 -0.2405
  613MOL0     C80804   6.316   0.071   8.774  0.2762 -0.0511  0.3743
  613MOL0     C80805   6.443   0.067   8.696  0.1469  0.6527 -0.7459
  613MOL0     C80806   6.429   0.023   8.552 -0.6010  0.2412  0.0211
  613MOL0     C80807   6.561   0.023   8.473 -0.1095 -0.4788 -0.2038
  613MOL0     O80808   6.642  -0.084   8.518  0.2338 -0.2876 -0.5536
  613MOL0     C80809   6.766  -0.099   8.464 -0.3810  0.2061 -0.6145
  613MOL0     C80810   6.857  -0.187   8.529 -0.7055  0.3895  0.0304
  613MOL0     C80811   6.985  -0.206   8.487 -0.2896  0.5257  0.1489
  613MOL0     C80812   7.027  -0.164   8.354 -0.3161 -0.2829 -0.5688
  613MOL0     C80813   7.160  -0.179   8.289  0.7174 -0.2683  0.0693
  613MOL0     O80814   7.184  -0.104   8.181 -0.3793  0.0086  0.5248
  613MOL0     C80815   7.299  -0.108   8.113  0.6361 -1.3508 -0.1750
  613MOL0     C80816   7.298  -0.082   7.978 -0.0026 -0.6319 -0.2694
  613MOL0     C80817   7.419  -0.083   7.903  0.7737  0.0049  0.4310
  613MOL0     C80818   7.541  -0.104   7.959 -0.6708  0.0375  1.0605
  613MOL0     O80819   7.654  -0.120   7.877 -0.4578 -0.5698 -0.5720
  613MOL0     C80820   7.682  -0.035   7.763 -0.0033 -0.0288 -0.4888
  613MOL0     C80821   7.812  -0.097   7.711  0.2912  0.9089  0.5164
  613MOL0     C80822   7.939  -0.022   7.769 -0.5048 -0.4939  0.0772
  613MOL0     C80823   8.076  -0.080   7.719  0.3032  0.8660 -0.1933
  613MOL0     C80824   8.189   0.020   7.759  0.1140 -0.4041 -1.0230
  613MOL0     C80825   8.317  -0.011   7.675 -1.1739 -0.3643 -0.2215
  613MOL0     C80826   8.416   0.110   7.675  0.3312  0.2447 -0.3008
  613MOL0     C80827   8.559   0.080   7.613  0.0241 -0.1487  0.3475
  613MOL0    Cl80828   8.571   0.009   7.449  0.1013  0.1862  0.1115
  613MOL0     C80829   7.552  -0.114   8.101 -0.6639  0.3907  0.0397
  613MOL0     C80830   7.434  -0.110   8.178  1.2488  0.5060  0.1345
  613MOL0     O80831   7.234  -0.266   8.332  0.0902 -0.1647 -0.5668
  613MOL0     C80832   6.934  -0.071   8.290  0.9661 -0.1639 -0.1296
  613MOL0     C80833   6.815  -0.035   8.344  0.3266 -0.0310 -0.7361
  613MOL0     N80834   6.289   0.322   8.824 -0.3197 -0.2864  0.1244
  613MOL0     N80835   6.206   0.418   8.808  0.1306 -0.0780 -0.5653
  613MOL0     C80836   5.114   0.747   9.151  0.1817 -0.1872  0.3338
  613MOL0     C80837   5.017   0.801   9.231 -0.2970  0.1507 -0.6252
  613MOL0     C80838   4.695   0.886   9.538 -0.3330 -0.0932  0.2092
  613MOL0     C80839   4.700   0.971   9.650  0.0854  0.5053 -0.0927
  613MOL0     C80840   4.587   1.003   9.731  0.4185  0.0587  0.3081
  613MOL0     C80841   4.465   0.944   9.701  0.4066  0.0374 -0.3540
  613MOL0     O80842   4.342   0.966   9.759  0.0488  0.0257 -0.4292
  613MOL0     C80843   4.341   1.068   9.859  0.8244  0.2544 -0.1865
  613MOL0     C80844   4.222   1.063   9.952 -0.6106  1.2800 -0.8038
  613MOL0     C80845   4.233   1.174  10.051 -0.7742  0.5099  0.2037
  613MOL0     C80846   4.134   1.146  10.165 -0.6151  1.1313  0.3901
  613MOL0     C80847   3.998   1.190  10.138  0.8810  0.0493  0.5895
  613MOL0     C80848   3.880   1.224  10.133  0.4415  0.3877 -0.4074
  613MOL0     C80849   4.458   0.860   9.585 -1.0658  0.1885 -0.4254
  613MOL0     C80850   4.571   0.823   9.513  0.0057 -0.0360  0.6103
  613MOL0     H80851   4.821   0.535   9.299  0.5437  0.3782  1.8176
  613MOL0     H80852   4.985   0.415   9.147 -1.2804  0.2895 -3.8755
  613MOL0     H80853   5.211   0.344   9.051  1.5747 -0.0166 -0.0519
  613MOL0     H80854   5.310   0.429   9.169 -0.4287 -0.7280  0.1815
  613MOL0     H80855   5.448   0.522   8.987 -0.2634  0.6806  1.1979
  613MOL0     H80856   5.346   0.437   8.865 -1.1268  0.0662  0.1836
  613MOL0     H80857   5.418   0.230   8.933 -0.2079  0.4815 -3.4472
  613MOL0     H80858   5.521   0.296   9.069  2.2025 -0.4246 -0.5751
  613MOL0     H80859   5.555   0.317   8.763 -1.4254  3.1515 -0.5280
  613MOL0     H80860   5.627   0.428   8.890  0.8126 -0.4272  3.5817
  613MOL0     H80861   5.665   0.122   8.866  0.9057 -1.5298 -1.0123
  613MOL0     H80862   5.752   0.223   8.977 -0.0835  3.7593  0.4328
  613MOL0     H80863   5.773   0.223   8.669  3.2136  0.0825 -1.1322
  613MOL0     H80864   5.894   0.187   8.795 -1.2505 -2.3008  0.8173
  613MOL0     H80865   5.776   0.451   8.716 -0.3369 -0.3981  1.0379
  613MOL0     H80866   5.851   0.435   8.866 -2.3572  0.1301 -0.0201
  613MOL0     H80867   6.000   0.545   8.706  1.0037 -0.1584  0.0999
  613MOL0     H80868   5.989   0.413   8.582  6.8252 -0.6955 -1.1373
  613MOL0     H80869   6.074   0.180   8.621 -2.5667  0.1923  2.3400
  613MOL0     H80870   6.251  -0.011   8.742  3.1581 -1.8277 -1.3362
  613MOL0     H80871   6.340   0.056   8.880 -1.5241 -2.1034  0.5566
  613MOL0     H80872   6.515   0.005   8.750 -3.2913 -1.8172  1.3389
  613MOL0     H80873   6.489   0.166   8.684 -1.9305  1.6488 -0.9611
  613MOL0     H80874   6.372  -0.070   8.544  1.3345 -0.8749 -1.4114
  613MOL0     H80875   6.367   0.095   8.498 -0.4670  1.4743  1.4434
  613MOL0     H80876   6.612   0.119   8.482  2.6664 -1.8107 -0.5854
  613MOL0     H80877   6.540   0.013   8.366 -3.6257  2.5138  0.0194
  613MOL0     H80878   6.819  -0.245   8.612  0.3778  0.4595  0.5890
  613MOL0     H80879   7.046  -0.272   8.548 -0.1888  1.0564  0.6261
  613MOL0     H80880   7.211  -0.072   7.914  1.6745 -0.9936 -2.7947
  613MOL0     H80881   7.397  -0.078   7.797 -0.7250  0.2650  0.7336
  613MOL0     H80882   7.704   0.070   7.783  3.3789 -0.6639 -0.3711
  613MOL0     H80883   7.594  -0.037   7.698  0.4175  0.1560 -1.0697
  613MOL0     H80884   7.810  -0.089   7.601  0.9143 -1.2810  0.3099
  613MOL0     H80885   7.822  -0.202   7.738  1.4862  1.0291  0.6077
  613MOL0     H80886   7.932  -0.006   7.877 -0.5406 -0.0326  0.0098
  613MOL0     H80887   7.925   0.075   7.720  2.0875 -0.6651 -1.1701
  613MOL0     H80888   8.098  -0.174   7.770  1.6960  1.5106  0.4390
  613MOL0     H80889   8.078  -0.085   7.610 -2.3418  1.8258 -0.3808
  613MOL0     H80890   8.207   0.015   7.867 -1.7763  1.5157 -0.5652
  613MOL0     H80891   8.155   0.122   7.743  0.7452  0.3875  2.0403
  613MOL0     H80892   8.282  -0.023   7.572  1.2653 -1.0844 -1.0325
  613MOL0     H80893   8.375  -0.097   7.710  1.0306  0.1331 -2.3826
  613MOL0     H80894   8.372   0.178   7.601  0.3679 -0.5430 -1.0598
  613MOL0     H80895   8.418   0.145   7.779  0.7442  0.1809 -0.2886
  613MOL0     H80896   8.606   0.006   7.678 -3.7825 -2.9587  0.2111
  613MOL0     H80897   8.619   0.172   7.613 -0.7495  0.3749 -0.5403
  613MOL0     H80898   7.649  -0.118   8.149 -1.0125 -0.5744  0.6903
  613MOL0     H80899   7.433  -0.101   8.286  0.1642  1.4808  0.0669
  613MOL0     H80900   6.952  -0.033   8.191 -1.0377  0.4508 -0.2872
  613MOL0     H80901   6.761   0.041   8.289 -2.1117 -1.5827 -0.6354
  613MOL0     H80902   5.182   0.826   9.119  2.7130 -3.0090 -1.7883
  613MOL0     H80903   5.025   0.909   9.242  1.3109 -0.1396  1.9065
  613MOL0     H80904   4.799   1.010   9.671  0.9368 -0.6233 -1.7813
  613MOL0     H80905   4.595   1.083   9.805 -1.2626  0.4090  0.1683
  613MOL0     H80906   4.349   1.170   9.820 -0.3520  0.0631 -1.0151
  613MOL0     H80907   4.426   1.053   9.925  0.5766 -0.8360 -0.0955
  613MOL0     H80908   4.135   1.069   9.887 -0.6606  0.3620 -0.8275
  613MOL0     H80909   4.245   0.970  10.005  2.2509  1.1322 -2.0984
  613MOL0     H80910   4.219   1.267   9.995 -0.8082  0.4257  0.0701
  613MOL0     H80911   4.332   1.172  10.096 -1.3036 -3.7118  1.6512
  613MOL0     H80912   4.143   1.038  10.182 -0.7927  1.1705  0.7426
  613MOL0     H80913   4.180   1.189  10.255  0.4984  0.6370  0.0666
  613MOL0     H80914   3.778   1.255  10.131  0.1841 -0.1471  2.0103
  613MOL0     H80915   4.366   0.808   9.560 -1.8909  2.0594 -1.4510
  613MOL0     H80916   4.561   0.759   9.426 -1.2953  0.9397  0.0182
  614MOL0     O80917   7.326  10.262   7.411 -0.8790  0.0771 -0.2909
  614MOL0     C80918   7.387  10.331   7.491 -0.2395  0.6173  0.6604
  614MOL0     O80919   7.339  10.386   7.595  0.8319  0.0289 -0.9137
  614MOL0     C80920   7.201  10.388   7.616 -0.2739 -0.5000  0.3417
  614MOL0     C80921   7.127  10.503   7.591 -0.6389 -0.8550  0.1201
  614MOL0     C80922   6.989  10.500   7.605  0.3262 -0.9236  0.1900
  614MOL0     C80923   6.928  10.379   7.651  0.4480  0.3871  0.0549
  614MOL0     O80924   6.799  10.368   7.661  0.7542 -0.3242 -0.1119
  614MOL0     C80925   6.731  10.273   7.740 -0.2344  0.9211 -0.8108
  614MOL0     C80926   6.577  10.303   7.732 -0.8753 -0.4856 -0.2515
  614MOL0     C80927   6.477  10.190   7.759  0.3273 -0.0296  0.4485
  614MOL0     C80928   6.337  10.244   7.729  1.0497  0.1543 -0.1697
  614MOL0     C80929   6.238  10.131   7.692 -0.1216 -0.0416 -0.2642
  614MOL0     C80930   6.095  10.179   7.688  0.6481 -0.0282 -0.2158
  614MOL0     C80931   6.039  10.224   7.817 -0.5768  0.2681 -0.0294
  614MOL0     C80932   5.977  10.364   7.821  0.3907 -0.2416  0.2700
  614MOL0     N80933   5.856  10.380   7.740  0.5941 -0.4085 -0.4361
  614MOL0     C80934   5.771  10.277   7.695  0.4467  0.2847  0.4200
  614MOL0     C80935   5.686  10.345   7.614  0.5716 -0.3778 -0.0860
  614MOL0     C80936   5.586  10.294   7.522  0.4878  0.4138 -0.4157
  614MOL0     C80937   5.634  10.300   7.379 -0.0519 -0.3116 -0.7099
  614MOL0     C80938   5.513  10.323   7.289 -0.6196 -0.5480  0.4156
  614MOL0     C80939   5.556  10.307   7.139 -0.7221  0.2920 -0.7591
  614MOL0     O80940   5.586  10.164   7.110  0.8163 -0.0159 -0.4562
  614MOL0     C80941   5.474  10.084   7.106  0.2296  0.3308 -0.0509
  614MOL0     C80942   5.435   9.989   7.211 -0.0608  0.5148  0.4764
  614MOL0     C80943   5.312   9.919   7.200  0.6809  1.3861 -0.2209
  614MOL0     C80944   5.218   9.946   7.098  0.0233 -0.5199 -0.6351
  614MOL0     C80945   5.084   9.874   7.093 -0.2877  0.3728  0.3793
  614MOL0     O80946   4.994   9.903   6.992  0.1069 -1.0370  0.0316
  614MOL0     C80947   4.876   9.843   7.000 -0.3985  0.9186  0.1799
  614MOL0     C80948   4.868   9.712   6.957  0.1141  0.3333 -0.8401
  614MOL0     C80949   4.754   9.639   6.978  0.0847 -0.1439 -0.0113
  614MOL0     C80950   4.642   9.692   7.037  0.0525 -0.0398  0.1883
  614MOL0     O80951   4.524   9.616   7.038 -0.1627 -0.2426 -0.3024
  614MOL0     C80952   4.496   9.577   7.172  0.7575  0.0257  0.5678
  614MOL0     C80953   4.344   9.533   7.152 -0.5278  1.2054 -0.2599
  614MOL0     C80954   4.333   9.406   7.071  0.3657  0.6505  0.2135
  614MOL0     C80955   4.197   9.381   7.014  1.3254 -0.7925  0.5204
  614MOL0     C80956   4.183   9.234   6.976 -0.0208 -0.1197 -0.3379
  614MOL0     C80957   4.038   9.191   6.916 -0.5437 -0.7560  0.6250
  614MOL0     C80958   4.034   9.055   6.845  0.0052 -0.5630 -0.4659
  614MOL0     C80959   3.891   8.996   6.836  0.1620 -0.1606  0.1508
  614MOL0    Cl80960   3.768   9.118   6.796  0.4680  0.3734 -0.1991
  614MOL0     C80961   4.641   9.829   7.068 -0.2205  0.0679  0.5970
  614MOL0     C80962   4.761   9.898   7.050 -0.2775  0.5282  0.2271
  614MOL0     O80963   5.070   9.793   7.189 -0.2273  0.2420 -0.2592
  614MOL0     C80964   5.252  10.033   6.991 -0.4432  0.0883  0.0566
  614MOL0     C80965   5.381  10.099   6.997 -0.5772  0.1164  0.3186
  614MOL0     N80966   5.716  10.480   7.622  0.0739 -0.5701 -0.4521
  614MOL0     N80967   5.813  10.504   7.705  0.7212 -1.3156  0.1151
  614MOL0     C80968   7.004  10.270   7.690 -1.0557 -0.4506 -0.7941
  614MOL0     C80969   7.145  10.271   7.662  0.3450 -0.3199  0.2833
  614MOL0     C80970   7.536  10.338   7.488 -0.5367  0.0649 -0.2714
  614MOL0     C80971   7.598  10.234   7.420  0.0640 -0.5121  0.1402
  614MOL0     C80972   7.735  10.253   7.394 -0.6392  0.4740  0.1779
  614MOL0     C80973   7.803  10.376   7.436  0.8896  0.2159 -0.1696
  614MOL0     O80974   7.940  10.395   7.399  0.2018 -0.8354 -0.5709
  614MOL0     C80975   7.962  10.518   7.324 -0.0363  0.5597  0.0891
  614MOL0     C80976   8.028  10.488   7.187 -0.0846 -0.1021  0.3353
  614MOL0     C80977   8.169  10.412   7.207 -0.0385 -0.4726  0.2758
  614MOL0     C80978   8.245  10.399   7.073 -0.1923  0.5131  0.4606
  614MOL0     C80979   8.319  10.516   7.064  0.0592  0.3122  0.1502
  614MOL0     C80980   8.390  10.615   7.035  0.6706 -0.0778 -0.0187
  614MOL0     C80981   7.734  10.466   7.517 -0.2410 -0.0391  0.3937
  614MOL0     C80982   7.597  10.455   7.531 -0.1902  0.7081 -0.3298
  614MOL0     H80983   7.174  10.597   7.563  1.3952 -1.3485  1.6006
  614MOL0     H80984   6.920  10.584   7.598  0.0067 -1.0126  1.7662
  614MOL0     H80985   6.773  10.274   7.840  0.7437 -1.8906 -1.1293
  614MOL0     H80986   6.750  10.176   7.694  0.2930  0.2821  0.7338
  614MOL0     H80987   6.568  10.347   7.632  3.0864  2.1176  0.2590
  614MOL0     H80988   6.558  10.382   7.806 -0.9987 -2.4605  1.9133
  614MOL0     H80989   6.496  10.137   7.853 -0.3289  0.8189  1.0748
  614MOL0     H80990   6.501  10.124   7.675  1.4899  2.6719 -1.4982
  614MOL0     H80991   6.301  10.292   7.821  0.0233  0.7175 -0.8496
  614MOL0     H80992   6.349  10.320   7.651  1.5285  2.3991  1.9625
  614MOL0     H80993   6.264  10.048   7.759  2.6499 -0.5465 -1.8200
  614MOL0     H80994   6.263  10.084   7.596 -0.3174 -0.8578  0.0778
  614MOL0     H80995   6.033  10.092   7.667  1.5510 -1.5341  2.7716
  614MOL0     H80996   6.098  10.255   7.609  3.2735 -1.1307 -1.2938
  614MOL0     H80997   5.970  10.143   7.841  2.4614 -3.0461 -1.5993
  614MOL0     H80998   6.109  10.229   7.901 -0.9381 -1.4208  0.3957
  614MOL0     H80999   6.049  10.433   7.776 -1.1371  2.4765  1.7214
  614MOL0     H81000   5.954  10.388   7.925 -1.1444  0.4908 -0.2015
  614MOL0     H81001   5.774  10.171   7.719  0.9450  0.2539  0.2232
  614MOL0     H81002   5.496  10.355   7.531 -0.1240 -0.8210  3.3657
  614MOL0     H81003   5.565  10.189   7.543 -2.6903  0.9184 -0.6238
  614MOL0     H81004   5.694  10.212   7.359 -1.4206 -0.9228 -2.4440
  614MOL0     H81005   5.702  10.382   7.357  1.6329 -1.6061 -0.4646
  614MOL0     H81006   5.424  10.260   7.300 -2.3631  1.7338  0.1268
  614MOL0     H81007   5.488  10.429   7.303 -1.6446 -1.0506  2.9009
  614MOL0     H81008   5.650  10.360   7.119 -1.4413  1.6091 -0.7624
  614MOL0     H81009   5.474  10.341   7.075 -1.6736 -1.6167 -0.6304
  614MOL0     H81010   5.498   9.956   7.293  0.4484  2.2257  0.8274
  614MOL0     H81011   5.291   9.844   7.276  1.3220  0.6121 -0.8007
  614MOL0     H81012   4.954   9.666   6.909  0.7381  0.4380  0.1449
  614MOL0     H81013   4.760   9.542   6.930 -0.1437  1.0741 -2.7118
  614MOL0     H81014   4.510   9.652   7.250 -0.2629 -0.7876  1.5677
  614MOL0     H81015   4.546   9.483   7.198  1.4249  0.0528 -0.5378
  614MOL0     H81016   4.289   9.618   7.111 -0.2265  2.0500  1.0293
  614MOL0     H81017   4.299   9.512   7.250 -0.7963 -1.0741 -0.8180
  614MOL0     H81018   4.357   9.326   7.141 -1.4997 -2.1089 -2.0639
  614MOL0     H81019   4.401   9.408   6.985  0.1325  2.8715  0.0175
  614MOL0     H81020   4.114   9.406   7.081 -0.7260 -0.3827 -1.9718
  614MOL0     H81021   4.212   9.454   6.933  2.1558  0.5558  1.8285
  614MOL0     H81022   4.210   9.174   7.063 -1.0225  0.8066  0.6513
  614MOL0     H81023   4.262   9.210   6.904  0.9623  0.1448  0.6313
  614MOL0     H81024   4.005   9.263   6.841  1.2004 -1.7459 -1.1968
  614MOL0     H81025   3.955   9.201   6.986  0.2578 -1.3760  1.6957
  614MOL0     H81026   4.081   9.061   6.747  0.9911  0.7508  0.0608
  614MOL0     H81027   4.090   8.982   6.903 -1.8853 -0.8807  1.0597
  614MOL0     H81028   3.864   8.960   6.936  1.9652  0.5245  0.9272
  614MOL0     H81029   3.894   8.914   6.764 -2.9662  1.6143 -2.2492
  614MOL0     H81030   4.547   9.875   7.096 -0.6399 -0.1801 -0.3639
  614MOL0     H81031   4.768  10.005   7.064  0.4203  0.6955 -1.2402
  614MOL0     H81032   5.185  10.058   6.909  1.4430  2.9371 -0.7705
  614MOL0     H81033   5.393  10.171   6.917 -0.3381 -0.9442 -0.6221
  614MOL0     H81034   6.963  10.179   7.732 -1.4831 -0.4806 -1.2608
  614MOL0     H81035   7.221  10.194   7.671  1.6778  0.9128 -0.0121
  614MOL0     H81036   7.544  10.142   7.401 -0.3274 -0.1989 -0.2800
  614MOL0     H81037   7.795  10.175   7.348 -0.9629 -0.2280  0.8983
  614MOL0     H81038   8.030  10.582   7.380  0.2509 -1.2318  1.9387
  614MOL0     H81039   7.878  10.586   7.313  1.2651  2.2521  0.3117
  614MOL0     H81040   7.953  10.432   7.131  0.8076  0.5829 -1.6412
  614MOL0     H81041   8.041  10.586   7.140 -2.0913 -0.3767 -0.8991
  614MOL0     H81042   8.152  10.310   7.242  0.4624 -0.7542 -0.2993
  614MOL0     H81043   8.226  10.466   7.284 -0.5580  2.9840 -1.5566
  614MOL0     H81044   8.313  10.314   7.086 -1.4554 -0.4408  1.0310
  614MOL0     H81045   8.188  10.392   6.980  1.1345  2.1018 -0.5273
  614MOL0     H81046   8.459  10.697   7.038 -1.4799  1.9079 -1.2836
  614MOL0     H81047   7.792  10.541   7.570 -1.6585  0.2944  1.5640
  614MOL0     H81048   7.542  10.522   7.596 -0.0120 -0.5915  1.2401
  615MOL0     O81049   4.111   1.608   3.489 -0.1907  0.3319  0.8006
  615MOL0     C81050   4.075   1.532   3.574  0.1066 -0.6595  0.8497
  615MOL0     O81051   3.943   1.494   3.595 -0.4575  0.4570 -0.3607
  615MOL0     C81052   3.844   1.521   3.503  0.3035  0.2015 -0.2777
  615MOL0     C81053   3.836   1.627   3.411 -0.6311 -0.6237 -0.0218
  615MOL0     C81054   3.721   1.646   3.334 -0.3867 -0.1866  0.1501
  615MOL0     C81055   3.610   1.552   3.342 -0.1831  0.3525  0.0829
  615MOL0     O81056   3.509   1.575   3.251  0.2899 -0.3018  0.3072
  615MOL0     C81057   3.375   1.516   3.278 -0.1254  0.3679 -0.3229
  615MOL0     C81058   3.284   1.538   3.159 -0.4785 -0.1767 -0.6621
  615MOL0     C81059   3.154   1.458   3.156  0.1017  1.0304  0.3744
  615MOL0     C81060   3.050   1.511   3.061 -0.4537 -0.7471  0.4654
  615MOL0     C81061   2.919   1.427   3.069 -1.1940 -0.0352 -0.1346
  615MOL0     C81062   2.802   1.505   3.010 -0.0067  0.4774  0.2149
  615MOL0     C81063   2.781   1.436   2.876 -0.5512  0.2358 -0.6221
  615MOL0     C81064   2.679   1.488   2.780  0.8418  0.2260 -0.2434
  615MOL0     N81065   2.658   1.403   2.661  0.4593  1.1472 -0.3571
  615MOL0     C81066   2.677   1.456   2.530  1.4259  0.9081  0.5206
  615MOL0     C81067   2.681   1.341   2.451 -0.2183  0.3513 -0.5735
  615MOL0     C81068   2.727   1.327   2.311  0.1955 -0.0341 -0.3523
  615MOL0     C81069   2.616   1.252   2.228  0.7272  0.0714  0.5844
  615MOL0     C81070   2.646   1.248   2.081 -0.4769  0.0449 -0.0549
  615MOL0     C81071   2.569   1.152   1.994  0.0355 -1.2927  0.0352
  615MOL0     O81072   2.510   1.050   2.066  0.4610 -0.1159 -0.2581
  615MOL0     C81073   2.418   0.972   2.002  0.7891  0.0213 -0.7661
  615MOL0     C81074   2.394   0.956   1.869  0.0337 -0.5900  0.2533
  615MOL0     C81075   2.310   0.856   1.824 -0.3520 -0.3089  0.3192
  615MOL0     C81076   2.222   0.793   1.911  0.5587 -0.9117 -0.3152
  615MOL0     C81077   2.127   0.691   1.866 -0.7229 -0.5499  1.0496
  615MOL0     O81078   2.032   0.734   1.778  0.0055  0.3315  0.6718
  615MOL0     C81079   1.931   0.657   1.729 -0.0722 -0.1031 -0.5591
  615MOL0     C81080   1.911   0.519   1.750  0.4776  0.1158 -0.6936
  615MOL0     C81081   1.799   0.459   1.692 -0.7745  0.4736 -0.8177
  615MOL0     C81082   1.707   0.527   1.618  0.3099  0.1202 -0.2627
  615MOL0     O81083   1.606   0.455   1.562 -0.0728 -0.0179 -0.0192
  615MOL0     C81084   1.479   0.506   1.567  0.4745 -0.3997 -0.8258
  615MOL0     C81085   1.424   0.551   1.432  0.2538  0.0562  0.6738
  615MOL0     C81086   1.436   0.451   1.320  0.2486 -0.4024  0.1690
  615MOL0     C81087   1.344   0.490   1.204  0.7642 -0.6197  0.3204
  615MOL0     C81088   1.367   0.407   1.080  1.0796 -0.5919 -0.6014
  615MOL0     C81089   1.266   0.435   0.965 -0.1543 -0.0217  0.3416
  615MOL0     C81090   1.294   0.323   0.852  0.3565 -0.1662 -0.2978
  615MOL0     C81091   1.195   0.207   0.871 -0.5513 -0.0235 -0.3063
  615MOL0    Cl81092   1.242   0.080   0.777  0.6241  0.1423  0.2229
  615MOL0     C81093   1.739   0.657   1.586  0.4321  0.7916  0.4093
  615MOL0     C81094   1.846   0.719   1.637  0.0603  0.0473 -0.2217
  615MOL0     O81095   2.122   0.583   1.920 -0.4694  0.6335 -0.3000
  615MOL0     C81096   2.240   0.816   2.051 -1.4075 -0.0456  0.2175
  615MOL0     C81097   2.342   0.904   2.097  0.2826  0.4815 -0.3660
  615MOL0     N81098   2.648   1.231   2.534  0.1190 -0.0839  0.1344
  615MOL0     N81099   2.635   1.270   2.653  1.2578 -0.1288 -0.2725
  615MOL0     C81100   3.619   1.447   3.440  0.7644 -0.1899  1.2585
  615MOL0     C81101   3.733   1.434   3.517 -0.0511  0.2476 -0.3808
  615MOL0     C81102   4.179   1.506   3.679 -0.9749  0.7655 -0.1828
  615MOL0     C81103   4.130   1.497   3.813  0.0938  0.7686 -0.3508
  615MOL0     C81104   4.222   1.474   3.911  0.9299  0.0774  0.0625
  615MOL0     C81105   4.357   1.488   3.889 -0.3895 -0.7728  0.9946
  615MOL0     O81106   4.442   1.468   3.991 -0.1078 -0.2148 -0.9088
  615MOL0     C81107   4.582   1.470   3.970 -0.6731 -1.2316 -0.7465
  615MOL0     C81108   4.637   1.449   4.115  0.3360  0.0164  0.2440
  615MOL0     C81109   4.599   1.549   4.223  0.3238 -0.4351 -1.8894
  615MOL0     C81110   4.651   1.504   4.360 -0.1632 -1.1739  0.7156
  615MOL0     C81111   4.796   1.511   4.368  0.6093 -1.2304  0.4182
  615MOL0     C81112   4.914   1.502   4.348 -0.0497 -0.6306  0.6745
  615MOL0     C81113   4.404   1.507   3.758 -0.3408  0.0537 -0.1046
  615MOL0     C81114   4.316   1.507   3.645 -0.7352  0.4058  0.3765
  615MOL0     H81115   3.920   1.695   3.406 -2.0275  1.2462  0.6698
  615MOL0     H81116   3.713   1.714   3.249  0.2223 -1.0609 -0.6263
  615MOL0     H81117   3.329   1.547   3.372  0.8467 -3.4482  1.6022
  615MOL0     H81118   3.390   1.408   3.283  0.3121  0.3055 -2.0851
  615MOL0     H81119   3.346   1.527   3.070  1.2149  2.0571  0.1504
  615MOL0     H81120   3.249   1.641   3.174 -1.0713 -0.5143  0.4468
  615MOL0     H81121   3.108   1.474   3.254 -0.3592  1.1582  0.1411
  615MOL0     H81122   3.166   1.350   3.141 -0.8394  0.8752  0.6302
  615MOL0     H81123   3.038   1.617   3.085  0.6570 -0.2761 -0.8849
  615MOL0     H81124   3.089   1.523   2.959 -1.3566  0.9286  0.2821
  615MOL0     H81125   2.906   1.411   3.176  1.5661 -2.0453  0.0225
  615MOL0     H81126   2.938   1.332   3.018 -2.0815  0.3353 -1.2051
  615MOL0     H81127   2.816   1.613   3.004  1.4283  0.2495 -3.2828
  615MOL0     H81128   2.707   1.486   3.060 -0.8858  0.3599 -1.4350
  615MOL0     H81129   2.880   1.438   2.829 -0.1344 -2.3492  0.0211
  615MOL0     H81130   2.750   1.334   2.898 -1.4084  0.6220  0.0011
  615MOL0     H81131   2.697   1.590   2.745  2.0145  0.4657  0.9700
  615MOL0     H81132   2.587   1.490   2.839  1.2599  1.1686  0.4013
  615MOL0     H81133   2.707   1.557   2.506 -0.6011  0.9221 -2.5384
  615MOL0     H81134   2.824   1.277   2.302 -0.6245 -2.3368  2.3140
  615MOL0     H81135   2.722   1.427   2.265 -2.2958 -1.1153 -2.7007
  615MOL0     H81136   2.514   1.294   2.227  1.6249  2.3804  0.1221
  615MOL0     H81137   2.612   1.150   2.266 -0.0354  0.3793  1.3869
  615MOL0     H81138   2.636   1.350   2.042 -0.3329  0.3089  0.5910
  615MOL0     H81139   2.751   1.217   2.082  0.3822  2.6820  0.9114
  615MOL0     H81140   2.637   1.123   1.913  3.2635  4.5488  0.1429
  615MOL0     H81141   2.480   1.203   1.956 -1.0654 -2.2780  1.1901
  615MOL0     H81142   2.460   1.012   1.804 -0.3880 -0.5096 -0.1080
  615MOL0     H81143   2.298   0.855   1.716 -3.3688  2.4299  0.4494
  615MOL0     H81144   1.975   0.449   1.802 -1.1742 -0.7034  0.2998
  615MOL0     H81145   1.783   0.352   1.707 -1.1492  0.5202 -0.8725
  615MOL0     H81146   1.475   0.585   1.643 -0.7766 -1.5969  0.3948
  615MOL0     H81147   1.419   0.426   1.609  0.3088  0.0796 -0.1334
  615MOL0     H81148   1.473   0.642   1.397 -0.5353 -0.1607 -1.0585
  615MOL0     H81149   1.321   0.585   1.446 -0.6187 -1.2798 -1.8759
  615MOL0     H81150   1.438   0.347   1.353  0.2163 -0.8830 -1.2797
  615MOL0     H81151   1.537   0.458   1.276 -0.1632 -0.5336 -0.8401
  615MOL0     H81152   1.246   0.464   1.244  1.3938 -0.0954  2.2854
  615MOL0     H81153   1.349   0.596   1.179  0.6339 -1.1112 -2.0486
  615MOL0     H81154   1.350   0.303   1.112 -0.9012  0.0164  0.4914
  615MOL0     H81155   1.473   0.424   1.055  0.8106  1.8706 -0.2754
  615MOL0     H81156   1.273   0.536   0.923  0.6141 -0.5961 -0.9852
  615MOL0     H81157   1.160   0.429   0.992  0.0579 -0.2307  1.1490
  615MOL0     H81158   1.299   0.376   0.756  0.6333  0.7802  0.2262
  615MOL0     H81159   1.393   0.284   0.874 -0.1952 -1.8234 -0.6254
  615MOL0     H81160   1.095   0.238   0.838 -0.3347  0.1870 -0.7807
  615MOL0     H81161   1.196   0.175   0.975 -3.4627 -4.2117 -1.2764
  615MOL0     H81162   1.683   0.704   1.506  0.9961 -0.5552 -0.8307
  615MOL0     H81163   1.865   0.825   1.625 -2.4248  0.4436 -1.3423
  615MOL0     H81164   2.184   0.784   2.138 -2.6832  0.7372 -0.2864
  615MOL0     H81165   2.349   0.937   2.201 -1.3350 -2.9716  0.9871
  615MOL0     H81166   3.538   1.377   3.459 -0.6503  1.9533  3.8723
  615MOL0     H81167   3.746   1.364   3.599  2.0995  2.5258  1.3806
  615MOL0     H81168   4.024   1.478   3.828 -0.0691  1.3210 -0.7540
  615MOL0     H81169   4.188   1.429   4.003  1.2748 -1.1791 -0.4031
  615MOL0     H81170   4.616   1.554   3.910 -1.6959  1.2672  1.9236
  615MOL0     H81171   4.605   1.381   3.911  2.2928 -1.5951  0.7473
  615MOL0     H81172   4.598   1.351   4.144  0.7075 -0.2932 -0.2856
  615MOL0     H81173   4.745   1.441   4.101 -0.0552 -0.6655 -2.9803
  615MOL0     H81174   4.491   1.545   4.236  0.1666 -1.4907 -3.2958
  615MOL0     H81175   4.623   1.655   4.208 -1.5396  0.4719  0.7708
  615MOL0     H81176   4.612   1.582   4.427  0.2683 -0.6853  0.4059
  615MOL0     H81177   4.607   1.405   4.378 -1.4426 -0.9534 -0.9275
  615MOL0     H81178   5.017   1.532   4.349  0.3687 -1.9635 -0.4216
  615MOL0     H81179   4.509   1.520   3.735 -0.4562  2.7567  0.5107
  615MOL0     H81180   4.361   1.523   3.547 -1.0449  0.5931  0.2648
  616MOL0     O81181   4.490   9.920   0.406 -0.6496 -0.1331 -0.6912
  616MOL0     C81182   4.581   9.876   0.481  0.4165 -0.0996  0.3345
  616MOL0     O81183   4.572   9.772   0.573 -0.7334 -0.1201  0.5043
  616MOL0     C81184   4.483   9.675   0.549 -0.2798 -0.0452  1.4681
  616MOL0     C81185   4.437   9.633   0.416  0.5759 -0.6837 -0.2713
  616MOL0     C81186   4.357   9.524   0.402  0.3160 -0.0121 -0.4474
  616MOL0     C81187   4.304   9.457   0.511  0.0366 -0.7115 -0.1583
  616MOL0     O81188   4.219   9.346   0.506 -0.0544 -0.1900  0.6555
  616MOL0     C81189   4.112   9.362   0.412  0.8132 -0.3612 -0.0760
  616MOL0     C81190   4.046   9.223   0.395  0.5864  0.1432  0.9868
  616MOL0     C81191   3.902   9.244   0.328  0.7072  0.1260  0.2717
  616MOL0     C81192   3.918   9.288   0.180 -0.3028 -0.2624 -0.3879
  616MOL0     C81193   3.802   9.253   0.087  0.0779 -1.0057  0.2613
  616MOL0     C81194   3.717   9.379   0.083 -0.7659 -1.0022  0.8558
  616MOL0     C81195   3.583   9.375  -0.008  0.0067  0.4476  0.4166
  616MOL0     C81196   3.599   9.299  -0.142 -0.1089 -0.3573  0.2843
  616MOL0     N81197   3.469   9.304  -0.215 -0.9996  0.5832 -0.1334
  616MOL0     C81198   3.377   9.212  -0.202 -0.4764  0.4505 -0.3148
  616MOL0     C81199   3.257   9.262  -0.224  0.5523 -0.0883 -0.5691
  616MOL0     C81200   3.122   9.185  -0.219 -0.0554  0.3839  0.8397
  616MOL0     C81201   3.052   9.182  -0.085  0.9784 -0.1213 -0.0312
  616MOL0     C81202   2.909   9.145  -0.109 -0.0862  0.5380  0.1042
  616MOL0     C81203   2.822   9.240  -0.188 -0.2273  0.3063 -0.1249
  616MOL0     O81204   2.818   9.369  -0.130 -0.0092 -0.2410 -0.3237
  616MOL0     C81205   2.722   9.464  -0.162 -0.1853  0.4164  0.5708
  616MOL0     C81206   2.675   9.470  -0.297 -0.9713 -0.7737 -0.2246
  616MOL0     C81207   2.564   9.551  -0.323  0.4891 -0.2421  0.1764
  616MOL0     C81208   2.501   9.627  -0.227  0.7918  0.1551 -0.3682
  616MOL0     C81209   2.382   9.718  -0.250  0.0137  0.0453 -0.2824
  616MOL0     O81210   2.320   9.777  -0.154 -0.6391 -0.6755  0.3287
  616MOL0     C81211   2.218   9.871  -0.168  0.2613  0.6318 -0.9234
  616MOL0     C81212   2.204   9.974  -0.263  0.1411 -0.2524  0.4961
  616MOL0     C81213   2.086  10.032  -0.279  0.2473 -0.3337  0.4778
  616MOL0     C81214   1.975   9.999  -0.205  0.1183 -0.1504 -0.2300
  616MOL0     O81215   1.854  10.061  -0.213 -0.0272 -0.4051 -0.7675
  616MOL0     C81216   1.772   9.995  -0.302  0.2948  0.8407 -0.8084
  616MOL0     C81217   1.627  10.038  -0.304 -0.2008  1.5490  0.3194
  616MOL0     C81218   1.639  10.176  -0.372  0.2205 -0.3136  0.3866
  616MOL0     C81219   1.501  10.227  -0.423 -0.1352 -0.6328 -0.3172
  616MOL0     C81220   1.525  10.368  -0.496  0.3380  0.0123 -0.1362
  616MOL0     C81221   1.387  10.428  -0.502  0.4761 -0.1031  0.7350
  616MOL0     C81222   1.387  10.571  -0.541  0.0806 -0.0608  0.3842
  616MOL0     C81223   1.403  10.590  -0.694 -0.0231  0.4604 -0.5407
  616MOL0    Cl81224   1.375  10.755  -0.749  0.1396 -0.4427  0.1060
  616MOL0     C81225   1.992   9.901  -0.109  0.4566  0.7164  0.5433
  616MOL0     C81226   2.108   9.832  -0.093 -0.2074  0.3131  0.1669
  616MOL0     O81227   2.350   9.725  -0.366 -0.2690  0.2802  0.1619
  616MOL0     C81228   2.557   9.622  -0.098  1.2115 -0.8413 -0.2956
  616MOL0     C81229   2.666   9.541  -0.064  0.1162  0.2061 -0.3647
  616MOL0     N81230   3.278   9.395  -0.253 -1.1935 -0.0423 -0.5019
  616MOL0     N81231   3.403   9.421  -0.249 -0.4399 -0.3861 -0.6522
  616MOL0     C81232   4.347   9.489   0.642 -0.3950 -0.8880  0.3733
  616MOL0     C81233   4.436   9.593   0.654  0.1124 -0.1798 -0.9369
  616MOL0     C81234   4.707   9.945   0.479 -0.7080 -0.2022 -0.2620
  616MOL0     C81235   4.727  10.072   0.420 -0.7325  0.0715 -1.1164
  616MOL0     C81236   4.851  10.134   0.427 -0.2265  0.1556  0.1630
  616MOL0     C81237   4.963  10.071   0.485  0.2289 -0.5930  0.3209
  616MOL0     O81238   5.078  10.155   0.487  1.1221 -0.4688  0.3969
  616MOL0     C81239   5.200  10.103   0.537  0.4384  0.3752 -0.0520
  616MOL0     C81240   5.288  10.221   0.573 -0.1159 -0.1096 -0.2006
  616MOL0     C81241   5.302  10.312   0.454 -0.2295 -0.9896  0.4364
  616MOL0     C81242   5.385  10.442   0.496 -0.7674 -0.3802 -0.4054
  616MOL0     C81243   5.509  10.466   0.416 -0.6456 -0.7665 -0.1706
  616MOL0     C81244   5.617  10.460   0.364 -0.6016 -0.2237  0.2141
  616MOL0     C81245   4.944   9.942   0.544  0.7720 -0.4196 -0.0832
  616MOL0     C81246   4.820   9.884   0.545  0.5843 -0.0871  0.4308
  616MOL0     H81247   4.456   9.689   0.325  2.5229 -0.7925  0.0357
  616MOL0     H81248   4.316   9.495   0.306 -0.2012  1.5494 -0.7238
  616MOL0     H81249   4.151   9.387   0.313  2.4337 -1.3053  0.2793
  616MOL0     H81250   4.038   9.434   0.449  1.1105 -1.4773  2.9699
  616MOL0     H81251   4.030   9.172   0.491  1.9091 -0.2141  1.0455
  616MOL0     H81252   4.102   9.159   0.327 -1.6690 -0.0042 -0.8225
  616MOL0     H81253   3.857   9.329   0.379  2.4242  1.8728 -0.9906
  616MOL0     H81254   3.849   9.150   0.346 -2.4243  1.3990 -1.4337
  616MOL0     H81255   3.950   9.392   0.183  1.0719 -0.4406 -3.7031
  616MOL0     H81256   4.006   9.235   0.141 -1.4091 -0.0391 -3.4365
  616MOL0     H81257   3.740   9.169   0.121 -1.3549 -0.0215  0.1984
  616MOL0     H81258   3.838   9.223  -0.011 -0.7671 -1.6532  0.1352
  616MOL0     H81259   3.780   9.464   0.057  1.4651 -2.3425  1.6290
  616MOL0     H81260   3.681   9.388   0.186 -3.3923 -1.6692  0.0922
  616MOL0     H81261   3.503   9.349   0.062  0.3222  0.0712  0.6440
  616MOL0     H81262   3.556   9.476  -0.039  0.1116  0.7668  1.3249
  616MOL0     H81263   3.630   9.195  -0.133  0.1141 -0.2757  0.4708
  616MOL0     H81264   3.668   9.350  -0.209 -2.4589 -1.8463 -3.5803
  616MOL0     H81265   3.396   9.111  -0.165 -0.4431  0.6813  0.2924
  616MOL0     H81266   3.151   9.082  -0.239  0.3135  0.3404  1.5641
  616MOL0     H81267   3.062   9.224  -0.302  0.9066  0.4497  0.1604
  616MOL0     H81268   3.064   9.274  -0.027 -0.8639 -0.8742  1.6638
  616MOL0     H81269   3.096   9.108  -0.018  2.8329  0.1107 -0.9516
  616MOL0     H81270   2.899   9.049  -0.159  0.6687  0.8572 -0.6885
  616MOL0     H81271   2.865   9.134  -0.010  1.2811 -0.2107  0.6526
  616MOL0     H81272   2.721   9.198  -0.185 -0.9556  1.9902  0.8982
  616MOL0     H81273   2.852   9.258  -0.291 -2.1246  0.0524 -0.7529
  616MOL0     H81274   2.725   9.413  -0.375  5.2706  1.7539  1.3563
  616MOL0     H81275   2.534   9.564  -0.426  0.1264  2.6385  0.5493
  616MOL0     H81276   2.282   9.999  -0.334 -1.1732 -1.2272 -1.3599
  616MOL0     H81277   2.070  10.114  -0.347 -1.8430  0.3429  1.6892
  616MOL0     H81278   1.781   9.887  -0.282 -0.8901  0.8859  0.0381
  616MOL0     H81279   1.810  10.002  -0.404  0.4227 -2.6320 -1.1343
  616MOL0     H81280   1.589  10.059  -0.203  1.6581  2.8325  0.7990
  616MOL0     H81281   1.556   9.975  -0.358  1.1458  1.9692 -2.0515
  616MOL0     H81282   1.697  10.178  -0.464 -1.6810  0.2037 -0.8531
  616MOL0     H81283   1.680  10.249  -0.301 -2.9605 -0.7157  2.8765
  616MOL0     H81284   1.466  10.155  -0.497  1.0576 -1.6160  0.0461
  616MOL0     H81285   1.421  10.245  -0.351 -1.1007  0.1816 -1.5385
  616MOL0     H81286   1.573  10.365  -0.594  2.3456  1.0708  0.7465
  616MOL0     H81287   1.604  10.415  -0.436  2.5369 -1.0779 -2.0096
  616MOL0     H81288   1.338  10.424  -0.404 -1.7619  0.4490 -0.3149
  616MOL0     H81289   1.326  10.373  -0.573 -0.0774  1.8519 -0.3856
  616MOL0     H81290   1.290  10.616  -0.518  0.6673  2.0288 -0.9251
  616MOL0     H81291   1.464  10.629  -0.488  0.1599 -0.9551  1.2641
  616MOL0     H81292   1.339  10.513  -0.738  0.8160 -0.6401  0.0862
  616MOL0     H81293   1.505  10.572  -0.729  0.3173  1.0044  0.1576
  616MOL0     H81294   1.900   9.870  -0.061  0.3787  0.8568  0.4864
  616MOL0     H81295   2.095   9.757  -0.015  1.2048  2.1683  2.2821
  616MOL0     H81296   2.508   9.682  -0.022 -0.4705  3.7362 -4.4034
  616MOL0     H81297   2.700   9.549   0.038 -4.8906  0.5110  1.5491
  616MOL0     H81298   4.320   9.441   0.736  0.2279 -0.7915  0.6115
  616MOL0     H81299   4.457   9.610   0.759 -4.1327  0.9788 -0.0642
  616MOL0     H81300   4.641  10.120   0.373 -2.8086  2.0815  4.0209
  616MOL0     H81301   4.869  10.229   0.378 -1.2599 -0.2643 -1.0818
  616MOL0     H81302   5.243  10.028   0.470  1.2482  1.8983 -1.2964
  616MOL0     H81303   5.177  10.048   0.629 -3.5278  1.0718 -0.4600
  616MOL0     H81304   5.245  10.271   0.660  3.4843 -0.9787  2.3248
  616MOL0     H81305   5.382  10.179   0.608 -0.3298 -0.3681  0.0593
  616MOL0     H81306   5.206  10.345   0.416  0.9085 -1.7792 -3.5425
  616MOL0     H81307   5.346  10.263   0.367  1.2233  1.1144 -0.0711
  616MOL0     H81308   5.328  10.533   0.473 -0.0429  0.2723  0.2961
  616MOL0     H81309   5.412  10.452   0.602  0.9179 -0.0504 -0.8347
  616MOL0     H81310   5.718  10.458   0.327  0.1819 -1.8576  2.2630
  616MOL0     H81311   5.023   9.909   0.611 -0.3202 -5.3067 -0.8422
  616MOL0     H81312   4.818   9.788   0.596  0.1388 -0.3992 -0.1667
  617MOL0     O81313   2.048   4.768   0.710  0.1473  0.3074  0.2662
  617MOL0     C81314   2.066   4.893   0.709 -0.2061  0.4161 -0.3209
  617MOL0     O81315   1.997   4.979   0.631 -0.5704 -0.1995 -0.1564
  617MOL0     C81316   1.900   4.927   0.557 -0.0904 -0.8422  0.2094
  617MOL0     C81317   1.800   4.843   0.607 -0.0504 -0.5243 -0.8887
  617MOL0     C81318   1.705   4.797   0.520 -0.2580  0.2208  0.0970
  617MOL0     C81319   1.695   4.814   0.382 -0.4579 -0.8582 -0.8752
  617MOL0     O81320   1.588   4.750   0.316 -0.0531 -0.3409 -0.2147
  617MOL0     C81321   1.578   4.793   0.176  0.2400 -0.0229 -0.0199
  617MOL0     C81322   1.510   4.928   0.151 -0.8033  0.1002 -0.6934
  617MOL0     C81323   1.367   4.914   0.193 -0.2431 -0.2669  0.7258
  617MOL0     C81324   1.271   5.031   0.183 -0.0219  0.1036  0.7858
  617MOL0     C81325   1.127   4.995   0.239  0.3631  0.5041  0.0708
  617MOL0     C81326   1.047   5.117   0.286 -0.0040  0.0909 -0.2113
  617MOL0     C81327   0.918   5.077   0.366  0.0143 -0.9839  0.0167
  617MOL0     C81328   0.823   4.983   0.281 -0.1719  0.6236  0.0618
  617MOL0     N81329   0.731   4.917   0.368 -0.4872 -0.0496 -0.3393
  617MOL0     C81330   0.593   4.915   0.368 -0.8067 -0.4045  0.6185
  617MOL0     C81331   0.560   4.822   0.455 -0.1688  0.2085 -0.4500
  617MOL0     C81332   0.424   4.809   0.514  0.6797  0.6655  0.6600
  617MOL0     C81333   0.326   4.767   0.405 -0.6722 -0.1433  0.8312
  617MOL0     C81334   0.189   4.712   0.439  0.2637 -0.0537  0.1638
  617MOL0     C81335   0.108   4.820   0.522 -0.4381  0.0786 -0.2074
  617MOL0     O81336  -0.016   4.756   0.542  0.3763 -0.3447 -0.6779
  617MOL0     C81337  -0.124   4.770   0.453 -0.6221  0.2385 -0.0052
  617MOL0     C81338  -0.230   4.687   0.505 -0.3309 -0.0773 -0.0273
  617MOL0     C81339  -0.347   4.690   0.436 -0.6670 -0.0523  0.0283
  617MOL0     C81340  -0.364   4.762   0.315  0.4302  0.5978  1.0807
  617MOL0     C81341  -0.501   4.752   0.246 -0.3469 -0.8734  0.3702
  617MOL0     O81342  -0.521   4.827   0.132  0.0622  0.2366  0.4865
  617MOL0     C81343  -0.647   4.821   0.067  0.4950  0.0614 -0.2130
  617MOL0     C81344  -0.726   4.938   0.063 -0.7241  0.4577  1.5639
  617MOL0     C81345  -0.834   4.948  -0.024  0.0904  0.8176 -0.5607
  617MOL0     C81346  -0.868   4.843  -0.113 -0.4213 -0.6501 -0.1430
  617MOL0     O81347  -0.985   4.859  -0.190 -0.2856 -0.0863  0.2429
  617MOL0     C81348  -1.059   4.744  -0.218  0.3064  0.8265 -0.1177
  617MOL0     C81349  -1.135   4.687  -0.101  0.0223  0.4834  0.4594
  617MOL0     C81350  -1.236   4.588  -0.136 -0.7093 -0.5282  0.3444
  617MOL0     C81351  -1.313   4.568  -0.006  0.2456  1.4640 -0.2133
  617MOL0     C81352  -1.462   4.515  -0.031 -0.7886 -0.2362 -0.7082
  617MOL0     C81353  -1.548   4.604  -0.118  0.1589 -0.5961  0.1014
  617MOL0     C81354  -1.700   4.610  -0.082 -0.3129 -0.4045 -0.0986
  617MOL0     C81355  -1.774   4.713  -0.172 -0.0855  1.0554  0.2067
  617MOL0    Cl81356  -1.808   4.649  -0.333 -0.3001 -0.1368 -0.4739
  617MOL0     C81357  -0.787   4.727  -0.109 -0.8391  0.5571  0.0606
  617MOL0     C81358  -0.683   4.718  -0.023  0.3397 -0.3263  0.2733
  617MOL0     O81359  -0.578   4.673   0.294  0.6251  0.1355 -0.2599
  617MOL0     C81360  -0.251   4.826   0.256  0.7810 -0.4289 -0.9671
  617MOL0     C81361  -0.143   4.855   0.340  0.4043  0.0024 -0.3177
  617MOL0     N81362   0.670   4.749   0.494 -0.0860  0.0586  0.5648
  617MOL0     N81363   0.766   4.808   0.438 -0.1024  0.2381  0.2389
  617MOL0     C81364   1.797   4.910   0.337 -0.1467  0.1527 -0.9248
  617MOL0     C81365   1.892   4.966   0.427 -0.0728  0.3589 -0.2521
  617MOL0     C81366   2.184   4.941   0.765  0.7975 -0.0619  0.0479
  617MOL0     C81367   2.218   5.076   0.743  0.0997  0.5024  0.6602
  617MOL0     C81368   2.341   5.125   0.795 -0.5230 -1.3117 -0.2880
  617MOL0     C81369   2.424   5.061   0.879 -0.0851  0.5970 -0.5018
  617MOL0     O81370   2.541   5.127   0.916  0.6068  0.3506  0.1901
  617MOL0     C81371   2.655   5.041   0.939  0.4672 -0.0324  0.4927
  617MOL0     C81372   2.779   5.132   0.939 -0.6130 -0.0542  0.0640
  617MOL0     C81373   2.823   5.164   0.802  1.0295  0.0435 -0.4791
  617MOL0     C81374   2.904   5.299   0.801 -0.3792  0.2077  1.1182
  617MOL0     C81375   3.023   5.289   0.884 -0.8686  0.5029 -0.1145
  617MOL0     C81376   3.123   5.289   0.956  0.0633  0.6016 -0.1009
  617MOL0     C81377   2.380   4.929   0.917  0.4455  0.6368  0.1300
  617MOL0     C81378   2.268   4.861   0.853  0.4149 -0.5026  0.3089
  617MOL0     H81379   1.792   4.832   0.715  0.1701  0.4683 -0.7604
  617MOL0     H81380   1.627   4.736   0.563  0.5810 -0.7907  0.2165
  617MOL0     H81381   1.524   4.718   0.117  1.8922 -1.8057  0.6249
  617MOL0     H81382   1.676   4.803   0.129 -0.4310  1.9553 -1.1116
  617MOL0     H81383   1.520   4.947   0.044  0.6676  1.7207 -0.3093
  617MOL0     H81384   1.555   5.010   0.207 -0.7625 -2.0751  2.7709
  617MOL0     H81385   1.371   4.902   0.301 -0.6085 -1.9622  0.5676
  617MOL0     H81386   1.318   4.835   0.135 -0.0537 -0.4220  0.7772
  617MOL0     H81387   1.313   5.119   0.233 -1.6325  2.2046 -1.3133
  617MOL0     H81388   1.249   5.060   0.080 -1.7991 -1.3532  0.6989
  617MOL0     H81389   1.147   4.921   0.317 -1.4186 -1.8807 -1.5981
  617MOL0     H81390   1.069   4.946   0.160  2.1626 -0.3507 -0.7828
  617MOL0     H81391   1.027   5.176   0.197  1.2047 -2.0688 -2.0180
  617MOL0     H81392   1.104   5.171   0.362 -1.6570 -3.7792  4.2662
  617MOL0     H81393   0.953   5.017   0.450 -2.2999 -1.7329  0.5110
  617MOL0     H81394   0.866   5.159   0.415  0.0036  0.8610 -2.8344
  617MOL0     H81395   0.870   4.898   0.232 -0.9237 -1.0621  2.0912
  617MOL0     H81396   0.768   5.035   0.202  1.2001  0.7759 -0.8201
  617MOL0     H81397   0.531   4.998   0.335  0.2039  0.0207 -0.2747
  617MOL0     H81398   0.384   4.904   0.551  0.0289  0.5353  0.3079
  617MOL0     H81399   0.418   4.743   0.601  1.9811  0.3051  0.4839
  617MOL0     H81400   0.383   4.688   0.354 -2.0392 -0.4703 -0.2796
  617MOL0     H81401   0.311   4.850   0.334 -0.0155 -1.8189 -1.3904
  617MOL0     H81402   0.126   4.677   0.357 -0.6208 -1.4055  1.3716
  617MOL0     H81403   0.199   4.625   0.504  1.1476 -0.5472 -0.6139
  617MOL0     H81404   0.095   4.913   0.466 -1.3651  0.1452  0.0994
  617MOL0     H81405   0.161   4.827   0.617 -0.6671 -0.5101 -0.0278
  617MOL0     H81406  -0.208   4.645   0.602 -0.5433  0.1588  0.1248
  617MOL0     H81407  -0.432   4.636   0.476  0.3151  0.0743  2.4527
  617MOL0     H81408  -0.709   5.018   0.134  0.3068  0.4887  1.2890
  617MOL0     H81409  -0.897   5.035  -0.013 -0.4663  1.0297 -4.3072
  617MOL0     H81410  -1.004   4.662  -0.264  1.8590  2.5875 -1.5824
  617MOL0     H81411  -1.137   4.768  -0.291 -0.0634  0.8780  0.2945
  617MOL0     H81412  -1.191   4.769  -0.054  2.1715  0.9820  2.3079
  617MOL0     H81413  -1.056   4.651  -0.035  2.6723 -2.0000 -3.6534
  617MOL0     H81414  -1.180   4.499  -0.169  0.5369  0.3336  0.0474
  617MOL0     H81415  -1.295   4.626  -0.220 -1.3613  0.5992  1.2944
  617MOL0     H81416  -1.260   4.492   0.052 -1.3211  1.0619  0.7614
  617MOL0     H81417  -1.317   4.652   0.064  3.9125  1.4395  0.2018
  617MOL0     H81418  -1.498   4.506   0.072 -0.9159  0.6841 -0.6678
  617MOL0     H81419  -1.466   4.418  -0.083 -2.4798  1.0848 -3.2600
  617MOL0     H81420  -1.550   4.558  -0.217  0.1166  2.3292 -1.3666
  617MOL0     H81421  -1.504   4.704  -0.122  1.0577 -0.9805  0.0978
  617MOL0     H81422  -1.734   4.507  -0.093  0.7594 -0.7377 -0.4428
  617MOL0     H81423  -1.727   4.624   0.023 -0.0381 -0.8329  0.0308
  617MOL0     H81424  -1.723   4.808  -0.188 -0.7486  0.9914 -3.0710
  617MOL0     H81425  -1.864   4.762  -0.134  0.3661  2.8224 -0.9270
  617MOL0     H81426  -0.786   4.639  -0.172  0.9369  2.4486 -2.7920
  617MOL0     H81427  -0.624   4.627  -0.027 -0.8454 -1.1223  0.5324
  617MOL0     H81428  -0.266   4.871   0.158  0.5468 -1.7720 -1.5792
  617MOL0     H81429  -0.055   4.916   0.321  0.5714  0.0926  0.6984
  617MOL0     H81430   1.798   4.936   0.232 -2.0013  0.9440 -0.7909
  617MOL0     H81431   1.957   5.040   0.380  0.2989  0.0169 -0.2837
  617MOL0     H81432   2.168   5.140   0.671  1.7685 -0.4414 -1.4448
  617MOL0     H81433   2.368   5.228   0.775 -0.7950 -0.6815  2.2221
  617MOL0     H81434   2.673   4.959   0.869 -1.1892 -0.5982  0.6988
  617MOL0     H81435   2.654   4.985   1.033 -0.2995 -1.3979 -0.3072
  617MOL0     H81436   2.748   5.221   0.995 -2.3933 -0.1507 -0.6885
  617MOL0     H81437   2.870   5.088   0.981  1.5153  4.8301  1.2848
  617MOL0     H81438   2.728   5.177   0.749  0.6072  0.7808  0.4249
  617MOL0     H81439   2.882   5.084   0.756 -0.6585 -1.2985 -0.4246
  617MOL0     H81440   2.946   5.330   0.705 -3.1742  2.8696  0.5860
  617MOL0     H81441   2.840   5.378   0.843 -0.2074 -0.5950  2.9689
  617MOL0     H81442   3.209   5.281   1.020 -0.4877 -3.6378  0.4301
  617MOL0     H81443   2.442   4.865   0.977 -2.1235 -1.3169  0.8818
  617MOL0     H81444   2.234   4.762   0.882  3.4152 -1.7982 -0.1524
  618MOL0     O81445   9.424   0.451   6.406  0.6907 -0.4295 -0.2293
  618MOL0     C81446   9.500   0.391   6.477 -0.1973 -0.2915 -0.2711
  618MOL0     O81447   9.618   0.323   6.438 -0.3716 -0.0132  0.1995
  618MOL0     C81448   9.678   0.361   6.323 -0.7182 -0.0083 -0.3568
  618MOL0     C81449   9.728   0.249   6.245  0.7282 -0.0157 -0.2255
  618MOL0     C81450   9.789   0.271   6.125 -0.0795  0.8502  0.1435
  618MOL0     C81451   9.810   0.398   6.072 -0.1992 -0.3910 -0.4107
  618MOL0     O81452   9.859   0.413   5.946  0.1633  0.4164 -0.0294
  618MOL0     C81453   9.922   0.526   5.890 -0.5706  0.6502  0.0044
  618MOL0     C81454   9.935   0.490   5.743  0.4328 -0.0340 -0.0613
  618MOL0     C81455  10.010   0.605   5.676 -0.6328 -0.2645 -0.0069
  618MOL0     C81456  10.005   0.576   5.524  0.2098  0.4382  0.0074
  618MOL0     C81457   9.876   0.634   5.464  0.1875 -0.4356 -0.4656
  618MOL0     C81458   9.869   0.790   5.448 -0.0653 -0.0268  0.4322
  618MOL0     C81459   9.964   0.849   5.335  0.5483 -1.0231  0.4627
  618MOL0     C81460   9.948   0.786   5.202  1.1034  0.8515  0.1491
  618MOL0     N81461   9.819   0.795   5.142 -0.5814 -0.6088  0.0852
  618MOL0     C81462   9.755   0.680   5.088 -0.8307 -0.7403 -0.5038
  618MOL0     C81463   9.636   0.727   5.057  0.3253  0.1084 -0.1150
  618MOL0     C81464   9.535   0.645   4.993  1.1542  0.2943  0.1799
  618MOL0     C81465   9.466   0.564   5.096  0.0951  0.1931  0.7286
  618MOL0     C81466   9.366   0.470   5.025  0.0919  0.1088  0.7863
  618MOL0     C81467   9.303   0.372   5.117 -0.5150 -0.5731 -0.1083
  618MOL0     O81468   9.281   0.429   5.238  0.2769  0.3083 -0.0099
  618MOL0     C81469   9.167   0.383   5.299 -0.3324  1.2160 -0.4933
  618MOL0     C81470   9.091   0.478   5.369 -0.0877 -0.5331 -0.3339
  618MOL0     C81471   8.989   0.433   5.453 -0.1206  0.6002  0.0712
  618MOL0     C81472   8.965   0.295   5.468  0.3262  0.2394  0.7593
  618MOL0     C81473   8.870   0.241   5.573  0.1260 -0.3372  0.6581
  618MOL0     O81474   8.841   0.113   5.570 -0.3640 -0.0918 -0.0513
  618MOL0     C81475   8.752   0.073   5.662 -0.1653 -0.6208 -0.2113
  618MOL0     C81476   8.790   0.031   5.788  0.4544  0.4160 -0.3868
  618MOL0     C81477   8.694  -0.007   5.888 -0.4856 -0.9240  0.7980
  618MOL0     C81478   8.558  -0.004   5.857 -0.1478 -1.5254 -0.8045
  618MOL0     O81479   8.450  -0.018   5.944 -0.8807  0.0825  0.4685
  618MOL0     C81480   8.469  -0.046   6.078 -0.5925 -0.3857 -0.7733
  618MOL0     C81481   8.337  -0.078   6.145 -0.0082  0.2414 -0.1866
  618MOL0     C81482   8.243   0.044   6.163  0.2868  0.0938  0.5804
  618MOL0     C81483   8.110   0.012   6.236  0.2891 -0.7915 -0.0671
  618MOL0     C81484   8.020   0.131   6.267  0.1336 -0.1092  0.9550
  618MOL0     C81485   7.982   0.217   6.141 -1.4530  0.4966 -0.1304
  618MOL0     C81486   7.896   0.121   6.049 -0.4101  0.8279 -0.1203
  618MOL0     C81487   7.839   0.205   5.939  0.3880 -0.4958 -0.6305
  618MOL0    Cl81488   7.775   0.090   5.821 -0.2107  0.4388  0.0069
  618MOL0     C81489   8.526   0.019   5.723  0.3180 -0.2504 -0.2023
  618MOL0     C81490   8.621   0.057   5.628  1.3573  0.0364  0.0645
  618MOL0     O81491   8.842   0.319   5.670 -0.6342  0.5957  0.4955
  618MOL0     C81492   9.045   0.208   5.402 -0.5154  0.4844  0.1631
  618MOL0     C81493   9.145   0.249   5.315  0.5597 -0.2253  0.7606
  618MOL0     N81494   9.627   0.855   5.099 -0.1211 -0.0652 -0.0634
  618MOL0     N81495   9.743   0.899   5.140  0.4501 -0.1577 -0.5856
  618MOL0     C81496   9.769   0.513   6.152  0.6638 -0.7248 -0.2509
  618MOL0     C81497   9.696   0.494   6.274 -0.5563  0.8875 -0.0615
  618MOL0     C81498   9.458   0.354   6.620 -0.2773  0.3444  0.2568
  618MOL0     C81499   9.514   0.254   6.693 -0.7397 -0.2209  0.2135
  618MOL0     C81500   9.482   0.237   6.825  0.0308 -0.3552 -0.6696
  618MOL0     C81501   9.388   0.316   6.884  0.3149 -0.2304  0.1260
  618MOL0     O81502   9.343   0.290   7.016  0.7083 -0.6256  0.7434
  618MOL0     C81503   9.362   0.162   7.080 -0.2120 -0.0201  0.3094
  618MOL0     C81504   9.273   0.162   7.203  0.0927 -0.0437  0.4811
  618MOL0     C81505   9.124   0.164   7.169  0.0130  0.5859 -0.6784
  618MOL0     C81506   9.032   0.163   7.292  0.1339 -0.0517 -0.6875
  618MOL0     C81507   8.927   0.066   7.274  0.0877 -0.2647 -0.5370
  618MOL0     C81508   8.844  -0.020   7.261 -0.6830 -0.7595 -0.2369
  618MOL0     C81509   9.322   0.420   6.811  0.1532  0.0177 -0.1988
  618MOL0     C81510   9.347   0.428   6.680  0.4306 -0.3339 -0.1223
  618MOL0     H81511   9.720   0.147   6.282 -3.0511  0.3688  0.4168
  618MOL0     H81512   9.825   0.181   6.076  0.7760 -0.0805  2.3561
  618MOL0     H81513  10.019   0.544   5.937 -1.3695  4.1862  0.5967
  618MOL0     H81514   9.864   0.618   5.899  2.1071  2.3414  1.1998
  618MOL0     H81515   9.834   0.484   5.701 -0.1468  1.5209  0.9918
  618MOL0     H81516   9.984   0.397   5.713  0.8460  0.2259 -0.1975
  618MOL0     H81517  10.116   0.589   5.696  0.1914  0.5216 -3.1823
  618MOL0     H81518   9.982   0.707   5.703 -2.4297  0.2032 -3.0777
  618MOL0     H81519  10.090   0.622   5.472 -0.2120  1.1976 -0.0337
  618MOL0     H81520   9.995   0.470   5.502 -0.9206  0.6061 -0.3616
  618MOL0     H81521   9.789   0.606   5.524  0.0000 -1.4058 -1.1663
  618MOL0     H81522   9.868   0.577   5.371 -0.1658  0.1401 -0.7899
  618MOL0     H81523   9.908   0.846   5.533  0.4750  1.5419 -0.8054
  618MOL0     H81524   9.766   0.823   5.436 -0.5018 -0.4921  2.5430
  618MOL0     H81525   9.944   0.956   5.335 -1.8404 -1.4058  1.2273
  618MOL0     H81526  10.067   0.856   5.370  1.1953  3.0656 -1.6262
  618MOL0     H81527   9.971   0.679   5.211 -0.4161  0.6270  2.0592
  618MOL0     H81528  10.022   0.827   5.132  1.4851 -1.0588 -0.6241
  618MOL0     H81529   9.794   0.579   5.083 -4.1274 -2.2275  1.1965
  618MOL0     H81530   9.583   0.576   4.924  1.5594  1.7259 -1.0282
  618MOL0     H81531   9.466   0.713   4.941 -0.4771 -0.5610  1.1239
  618MOL0     H81532   9.404   0.624   5.163  1.1631  0.1862  1.7394
  618MOL0     H81533   9.535   0.504   5.155 -2.8991 -1.6903  2.5599
  618MOL0     H81534   9.286   0.532   4.985 -0.8211 -0.5069  1.6226
  618MOL0     H81535   9.422   0.426   4.941 -0.3263 -0.2210  0.6804
  618MOL0     H81536   9.369   0.286   5.129 -0.6821 -0.7637 -0.5203
  618MOL0     H81537   9.210   0.341   5.068  0.2004  0.2941 -2.1435
  618MOL0     H81538   9.120   0.582   5.357 -4.6010  1.1893  1.3399
  618MOL0     H81539   8.916   0.496   5.504  2.1571  3.2370  0.2967
  618MOL0     H81540   8.897   0.021   5.803  0.4240 -3.3629 -1.6391
  618MOL0     H81541   8.717  -0.037   5.990  2.3874  1.5900  1.0293
  618MOL0     H81542   8.500   0.045   6.130 -1.9074 -0.9134  1.0197
  618MOL0     H81543   8.537  -0.131   6.086 -0.3624 -0.1479 -0.1418
  618MOL0     H81544   8.366  -0.107   6.246 -3.2770 -1.1332  0.4737
  618MOL0     H81545   8.288  -0.161   6.095  2.4396 -1.9187  0.7782
  618MOL0     H81546   8.232   0.093   6.066  1.8384  0.5921  0.6269
  618MOL0     H81547   8.298   0.119   6.220 -1.2686  0.8901  1.0653
  618MOL0     H81548   8.066  -0.061   6.168  2.9198 -1.7544 -0.8545
  618MOL0     H81549   8.143  -0.020   6.335  2.0018  0.2430 -0.2709
  618MOL0     H81550   8.060   0.185   6.353 -1.4686  1.0331  1.0310
  618MOL0     H81551   7.926   0.084   6.298  0.5996 -2.9206 -1.3887
  618MOL0     H81552   8.073   0.260   6.099 -1.2470  0.7209  0.5247
  618MOL0     H81553   7.923   0.303   6.174 -0.7222  2.5931 -3.7298
  618MOL0     H81554   7.961   0.046   6.004  0.4473  2.1808 -1.2466
  618MOL0     H81555   7.820   0.069   6.108  2.0482 -1.0729  1.5513
  618MOL0     H81556   7.914   0.281   5.915  0.6298 -0.8127 -0.8830
  618MOL0     H81557   7.757   0.265   5.980  0.7528  1.0774 -2.0747
  618MOL0     H81558   8.421   0.005   5.702  0.4184  2.0422 -2.7252
  618MOL0     H81559   8.579   0.072   5.530 -1.4034 -0.3462  1.0946
  618MOL0     H81560   9.025   0.101   5.413 -1.6722  0.5112 -1.3663
  618MOL0     H81561   9.208   0.172   5.271 -0.5689  0.8366 -3.1016
  618MOL0     H81562   9.788   0.610   6.108  1.3612 -1.6329 -2.0687
  618MOL0     H81563   9.653   0.580   6.324 -1.3232 -1.0291  2.7960
  618MOL0     H81564   9.587   0.193   6.639 -1.1316  0.4006 -1.0683
  618MOL0     H81565   9.516   0.150   6.880 -3.3982 -2.6608 -1.8736
  618MOL0     H81566   9.468   0.168   7.105 -0.3172  1.2931  0.5241
  618MOL0     H81567   9.330   0.074   7.024 -1.6861 -1.1587  2.7628
  618MOL0     H81568   9.280   0.069   7.260  3.2629  1.1575  2.3628
  618MOL0     H81569   9.305   0.244   7.269  0.0227 -1.9866  3.0774
  618MOL0     H81570   9.109   0.081   7.099 -1.0887  1.3351 -1.3573
  618MOL0     H81571   9.112   0.256   7.111 -0.3740  0.4851 -0.7598
  618MOL0     H81572   9.082   0.114   7.377  1.0180 -4.7339 -3.5532
  618MOL0     H81573   8.999   0.267   7.304  0.6960  0.1513 -0.8614
  618MOL0     H81574   8.767  -0.093   7.249  1.1380 -2.4346 -2.6563
  618MOL0     H81575   9.245   0.477   6.862 -1.3070 -0.7256 -1.4857
  618MOL0     H81576   9.289   0.500   6.623 -0.2975 -2.3617 -2.1165
  619MOL0     O81577   0.403   4.782   4.252  0.1126  0.2348 -0.5036
  619MOL0     C81578   0.282   4.745   4.254  0.1965 -0.4338 -0.0902
  619MOL0     O81579   0.225   4.642   4.184  0.4889 -0.2718 -0.2418
  619MOL0     C81580   0.307   4.550   4.126 -0.3104  0.7901 -0.8921
  619MOL0     C81581   0.421   4.488   4.189  0.1640 -0.3518  0.3541
  619MOL0     C81582   0.490   4.393   4.122 -0.6804  0.7737  0.0328
  619MOL0     C81583   0.451   4.336   4.002  1.1929 -0.8136 -0.3219
  619MOL0     O81584   0.517   4.230   3.951 -0.1114 -0.1534  0.3938
  619MOL0     C81585   0.564   4.126   4.037 -0.4701 -0.7250  0.0606
  619MOL0     C81586   0.568   4.009   3.937 -1.8168 -0.7032 -0.4795
  619MOL0     C81587   0.448   3.912   3.944 -0.1483 -0.7338 -1.0525
  619MOL0     C81588   0.330   3.949   3.856 -0.1530 -0.2625 -0.1061
  619MOL0     C81589   0.284   3.832   3.757 -0.9849 -0.1108 -1.6609
  619MOL0     C81590   0.161   3.860   3.664  0.0497  0.8680  0.6763
  619MOL0     C81591   0.204   3.957   3.542  0.3825  0.4809  0.0899
  619MOL0     C81592   0.084   4.012   3.459 -0.3215  1.4027  0.8048
  619MOL0     N81593   0.022   3.909   3.366  0.2314 -0.5792 -0.1759
  619MOL0     C81594  -0.087   3.828   3.395  0.7765 -0.2067  0.0158
  619MOL0     C81595  -0.112   3.753   3.284 -0.0810 -0.3791  0.2662
  619MOL0     C81596  -0.203   3.638   3.288 -0.8312  0.2290  0.0659
  619MOL0     C81597  -0.346   3.674   3.287 -0.4016  0.1736 -0.7999
  619MOL0     C81598  -0.418   3.544   3.262  0.8682 -0.0981 -0.0165
  619MOL0     C81599  -0.578   3.570   3.262 -0.5262  0.4157  0.0535
  619MOL0     O81600  -0.630   3.451   3.196 -0.4521 -0.3560  0.3370
  619MOL0     C81601  -0.760   3.445   3.165  0.2633 -0.2808  0.5163
  619MOL0     C81602  -0.860   3.528   3.221 -0.5409 -0.9946  0.5257
  619MOL0     C81603  -0.997   3.514   3.191 -1.1605 -0.3677  0.0169
  619MOL0     C81604  -1.038   3.426   3.095 -0.4951  0.2170  0.5476
  619MOL0     C81605  -1.186   3.414   3.071  0.6492  0.3387 -0.2231
  619MOL0     O81606  -1.234   3.285   3.051  0.4550 -0.6377 -0.5717
  619MOL0     C81607  -1.366   3.262   3.054  0.2916  0.1631  0.4721
  619MOL0     C81608  -1.470   3.351   3.003 -0.8319  0.7399  0.1125
  619MOL0     C81609  -1.606   3.308   2.997 -0.4395  0.8198  0.4173
  619MOL0     C81610  -1.639   3.173   3.037 -0.2893 -0.2114 -0.1873
  619MOL0     O81611  -1.767   3.121   3.031 -0.1658  1.0191 -0.1813
  619MOL0     C81612  -1.849   3.156   2.919  0.3087  0.2644  0.6133
  619MOL0     C81613  -1.990   3.105   2.941 -0.1436 -0.3582  0.0201
  619MOL0     C81614  -2.080   3.136   2.815 -0.7516 -0.7510 -0.2952
  619MOL0     C81615  -2.213   3.051   2.818 -0.0551  0.0792 -0.1036
  619MOL0     C81616  -2.292   3.074   2.691 -0.8292 -1.0795  0.3674
  619MOL0     C81617  -2.425   3.009   2.676  0.0378 -0.1489 -0.3351
  619MOL0     C81618  -2.474   2.997   2.523  0.4638 -0.0948  0.3951
  619MOL0     C81619  -2.626   2.960   2.510  0.5397 -0.1615 -0.0078
  619MOL0    Cl81620  -2.643   2.787   2.532  0.4421 -0.4012  0.2085
  619MOL0     C81621  -1.546   3.092   3.089 -0.4000 -0.0471 -0.1607
  619MOL0     C81622  -1.412   3.129   3.092 -1.0702 -0.1075  0.2612
  619MOL0     O81623  -1.252   3.515   3.081  0.0232 -0.5737 -0.1237
  619MOL0     C81624  -0.942   3.328   3.042 -0.0961 -0.4111 -0.3929
  619MOL0     C81625  -0.801   3.344   3.074 -0.6729 -0.3057  0.5052
  619MOL0     N81626  -0.007   3.782   3.200 -0.6748  0.1494  0.3284
  619MOL0     N81627   0.075   3.869   3.245  0.2200 -0.0885  0.2525
  619MOL0     C81628   0.344   4.396   3.942  0.5412 -0.4681  0.2482
  619MOL0     C81629   0.268   4.501   4.004 -0.9173 -0.4172 -0.2467
  619MOL0     C81630   0.191   4.829   4.340  0.1213  0.0635 -0.1353
  619MOL0     C81631   0.067   4.781   4.389 -1.1641 -0.0947 -0.4719
  619MOL0     C81632   0.004   4.860   4.494  1.1042  0.0817 -0.1520
  619MOL0     C81633   0.056   4.979   4.545  0.2851  0.1147 -0.5377
  619MOL0     O81634  -0.017   5.022   4.654  0.6135 -0.0914  0.0327
  619MOL0     C81635   0.058   5.064   4.770 -0.0943  0.2884  0.8704
  619MOL0     C81636  -0.032   5.114   4.875 -0.0212  0.9905 -0.1452
  619MOL0     C81637   0.005   5.068   5.019 -0.1309 -0.7579  0.0349
  619MOL0     C81638   0.142   5.102   5.056  0.1818 -0.2345 -0.3787
  619MOL0     C81639   0.163   5.251   5.067  0.0309 -0.4548  0.2653
  619MOL0     C81640   0.179   5.377   5.079  0.1371 -1.3689  0.2609
  619MOL0     C81641   0.184   5.015   4.496 -0.2078  0.4626  0.1783
  619MOL0     C81642   0.242   4.943   4.397 -0.0011 -0.2062  0.0948
  619MOL0     H81643   0.454   4.529   4.284 -2.8071  3.4173  0.0357
  619MOL0     H81644   0.580   4.352   4.166 -0.6271  0.8517 -0.0050
  619MOL0     H81645   0.491   4.104   4.115 -0.2138  1.0269  0.8492
  619MOL0     H81646   0.659   4.140   4.090 -0.7999 -2.4158  1.1756
  619MOL0     H81647   0.649   3.940   3.960  0.1313  0.2958 -3.7351
  619MOL0     H81648   0.594   4.033   3.834 -4.1948  2.0417 -0.5722
  619MOL0     H81649   0.416   3.901   4.048  1.3656  0.0238 -0.4740
  619MOL0     H81650   0.481   3.812   3.915  1.1535 -0.5785 -0.1588
  619MOL0     H81651   0.248   3.970   3.925 -0.0504  1.4110 -0.4439
  619MOL0     H81652   0.351   4.041   3.801 -1.2738 -0.3829 -0.7641
  619MOL0     H81653   0.263   3.753   3.830  0.2367  1.5320  0.5427
  619MOL0     H81654   0.372   3.801   3.700  0.7369 -0.8719  1.1967
  619MOL0     H81655   0.071   3.899   3.713  0.0145  1.5884  0.0528
  619MOL0     H81656   0.133   3.766   3.617 -1.6266  1.0632  1.1883
  619MOL0     H81657   0.256   4.044   3.583  1.2676  0.1399 -0.2826
  619MOL0     H81658   0.274   3.912   3.470 -0.3627 -1.0092  0.2595
  619MOL0     H81659   0.111   4.098   3.397  0.9507 -1.2951 -2.7348
  619MOL0     H81660   0.004   4.056   3.520 -1.5473  3.9164 -2.3418
  619MOL0     H81661  -0.132   3.823   3.493  0.7838  1.0480  0.0915
  619MOL0     H81662  -0.170   3.576   3.372 -0.0574 -1.5546 -1.4750
  619MOL0     H81663  -0.177   3.585   3.196  1.7907  0.0831  0.8092
  619MOL0     H81664  -0.362   3.748   3.208 -1.4644  1.4338  0.5501
  619MOL0     H81665  -0.376   3.729   3.376 -0.9311 -1.5423  0.1147
  619MOL0     H81666  -0.389   3.496   3.169  3.3116 -2.1531  1.6649
  619MOL0     H81667  -0.398   3.477   3.347  1.1219  0.2798  0.2249
  619MOL0     H81668  -0.590   3.657   3.198 -0.2493  0.4676  0.0723
  619MOL0     H81669  -0.624   3.591   3.359 -0.2710  4.2067 -0.5166
  619MOL0     H81670  -0.835   3.617   3.279 -1.6101 -0.1137 -0.3069
  619MOL0     H81671  -1.075   3.582   3.225 -2.3879 -1.3523 -0.7213
  619MOL0     H81672  -1.443   3.446   2.958 -1.1462 -0.2822 -2.3707
  619MOL0     H81673  -1.683   3.376   2.961 -1.5372 -1.1423 -1.0968
  619MOL0     H81674  -1.800   3.123   2.826  1.2239 -0.0939  1.2037
  619MOL0     H81675  -1.847   3.265   2.908  0.7145  0.3839  1.7331
  619MOL0     H81676  -2.035   3.146   3.032 -0.4920 -1.0261  0.1518
  619MOL0     H81677  -1.982   2.997   2.951  5.3120 -0.2649 -0.3487
  619MOL0     H81678  -2.033   3.105   2.722 -2.6421  0.2205 -1.6263
  619MOL0     H81679  -2.097   3.244   2.815 -1.1458 -0.6933 -4.0876
  619MOL0     H81680  -2.183   2.946   2.816  1.5521  0.5081 -0.6336
  619MOL0     H81681  -2.272   3.065   2.908  0.3424 -1.5110  0.4306
  619MOL0     H81682  -2.226   3.048   2.608 -2.1149  1.2965 -1.5145
  619MOL0     H81683  -2.312   3.181   2.686 -1.5187 -1.1435  1.3615
  619MOL0     H81684  -2.497   3.072   2.729 -0.7772 -0.7352 -0.7246
  619MOL0     H81685  -2.433   2.907   2.716 -0.4367 -1.4667 -3.4769
  619MOL0     H81686  -2.467   3.084   2.455 -1.5814 -0.0579  0.1851
  619MOL0     H81687  -2.412   2.917   2.481  2.0953 -0.7529  3.7715
  619MOL0     H81688  -2.662   2.996   2.413 -0.3704  4.4316  1.7689
  619MOL0     H81689  -2.691   3.014   2.580 -1.6465 -1.1930 -1.1382
  619MOL0     H81690  -1.580   2.990   3.109 -1.0512  0.3433  0.8221
  619MOL0     H81691  -1.346   3.051   3.130  1.2176  0.1637 -2.7842
  619MOL0     H81692  -0.970   3.249   2.973 -1.1529 -1.4057  1.1238
  619MOL0     H81693  -0.719   3.282   3.038  0.3331 -0.6893  3.2184
  619MOL0     H81694   0.310   4.340   3.855 -0.3243  3.1432 -1.9672
  619MOL0     H81695   0.177   4.531   3.953 -1.2492 -2.1193 -0.7348
  619MOL0     H81696   0.024   4.686   4.358  1.9838 -1.3214 -1.3721
  619MOL0     H81697  -0.088   4.813   4.528  2.3156 -0.3055  2.8943
  619MOL0     H81698   0.135   5.134   4.736  1.4174 -1.5456  0.2607
  619MOL0     H81699   0.117   4.983   4.814  1.4701  0.5529 -0.5914
  619MOL0     H81700  -0.038   5.223   4.872  0.9525  1.1051  1.3638
  619MOL0     H81701  -0.132   5.070   4.865 -0.0751  0.2003  2.9716
  619MOL0     H81702   0.004   4.959   5.024  1.8523 -0.8680 -1.1612
  619MOL0     H81703  -0.071   5.098   5.093 -0.6812  0.4580 -0.9935
  619MOL0     H81704   0.168   5.067   5.157 -0.5260  0.1927 -0.0459
  619MOL0     H81705   0.216   5.048   4.996  0.4923 -0.2677  0.0255
  619MOL0     H81706   0.208   5.475   5.110  0.0960 -0.6173 -1.9651
  619MOL0     H81707   0.240   5.100   4.534 -1.2839  0.9798  0.6189
  619MOL0     H81708   0.332   4.986   4.353 -1.4354  1.4501 -1.3286
  620MOL0     O81709   0.810   3.588   1.712 -0.4602 -0.2906 -0.6866
  620MOL0     C81710   0.889   3.609   1.619  0.4824  0.8798  0.4423
  620MOL0     O81711   0.868   3.562   1.485  0.3245 -0.6492  0.4415
  620MOL0     C81712   0.745   3.501   1.462 -0.1848 -0.0977 -0.2757
  620MOL0     C81713   0.621   3.557   1.495  0.4725  0.9392 -0.1262
  620MOL0     C81714   0.502   3.494   1.461 -0.6913  0.3960  0.0654
  620MOL0     C81715   0.499   3.371   1.396  0.4196  0.2683 -0.0955
  620MOL0     O81716   0.389   3.299   1.363  0.8133  0.3755 -0.7106
  620MOL0     C81717   0.261   3.362   1.372 -0.5891 -0.1103 -0.0198
  620MOL0     C81718   0.163   3.261   1.322  0.2886 -0.4908 -0.1686
  620MOL0     C81719   0.017   3.327   1.328  0.3435  0.5859 -0.2443
  620MOL0     C81720  -0.090   3.243   1.242  0.0322 -0.2520 -0.2151
  620MOL0     C81721  -0.241   3.292   1.243 -0.5240  0.3291  0.3033
  620MOL0     C81722  -0.302   3.250   1.382 -0.7668 -0.2472  0.0884
  620MOL0     C81723  -0.447   3.292   1.406 -0.4930 -0.0561 -0.4806
  620MOL0     C81724  -0.548   3.199   1.344 -0.2728  0.0441 -0.0707
  620MOL0     N81725  -0.631   3.111   1.436 -0.0497 -0.8771 -0.1293
  620MOL0     C81726  -0.772   3.108   1.444  0.2659 -0.9692  0.2875
  620MOL0     C81727  -0.804   2.992   1.496 -0.5607  0.4853 -0.4849
  620MOL0     C81728  -0.954   2.951   1.516  0.2406  0.1972 -0.2013
  620MOL0     C81729  -0.984   2.966   1.667 -0.1803  0.6321  0.2318
  620MOL0     C81730  -1.093   2.864   1.695 -1.0113 -0.0978 -0.1872
  620MOL0     C81731  -1.230   2.902   1.651 -0.1054  0.3755  0.4346
  620MOL0     O81732  -1.257   3.034   1.692  0.4633 -0.2520 -0.1897
  620MOL0     C81733  -1.383   3.087   1.671 -0.3565 -0.0990  0.7211
  620MOL0     C81734  -1.389   3.222   1.675 -0.0781  0.0921 -0.8977
  620MOL0     C81735  -1.503   3.296   1.654  0.4071  0.1883  0.9598
  620MOL0     C81736  -1.617   3.234   1.587 -0.5312  0.6492 -1.0353
  620MOL0     C81737  -1.745   3.310   1.567 -0.3664 -0.3960  0.3703
  620MOL0     O81738  -1.773   3.407   1.660 -0.0134  0.2069  0.7677
  620MOL0     C81739  -1.900   3.460   1.662  0.4194 -0.8573 -0.7248
  620MOL0     C81740  -1.917   3.599   1.657  0.5078  0.1519 -0.1898
  620MOL0     C81741  -2.049   3.649   1.681 -0.0086 -0.1333 -0.1208
  620MOL0     C81742  -2.161   3.572   1.711  0.4475  1.0610  0.2420
  620MOL0     O81743  -2.291   3.608   1.732 -0.7952 -0.3249 -0.0704
  620MOL0     C81744  -2.318   3.743   1.755 -0.4742 -0.0899 -0.3159
  620MOL0     C81745  -2.469   3.770   1.771  0.6580  0.8417  0.3347
  620MOL0     C81746  -2.498   3.921   1.801  0.3121 -0.1685  0.1828
  620MOL0     C81747  -2.655   3.939   1.840  0.1255 -0.5849  0.4364
  620MOL0     C81748  -2.676   4.073   1.910  0.1976 -0.0161  0.4805
  620MOL0     C81749  -2.826   4.125   1.902 -0.4041 -0.2775  0.6229
  620MOL0     C81750  -2.923   4.023   1.951  0.8272  0.1053  0.2078
  620MOL0     C81751  -3.055   4.049   1.884  0.0595 -0.4350  0.0154
  620MOL0    Cl81752  -3.123   4.199   1.950  0.0905 -0.5151  0.1589
  620MOL0     C81753  -2.146   3.433   1.707 -0.3350  1.1282 -1.0464
  620MOL0     C81754  -2.015   3.378   1.690  0.0917  0.0518  0.5594
  620MOL0     O81755  -1.822   3.266   1.478  0.3223 -0.4852  0.9869
  620MOL0     C81756  -1.613   3.099   1.571  0.5438 -0.8801  0.5259
  620MOL0     C81757  -1.497   3.026   1.612 -0.3399  0.9682 -0.5338
  620MOL0     N81758  -0.685   2.925   1.531 -1.1662  0.3369 -0.1758
  620MOL0     N81759  -0.588   3.007   1.505 -0.5006 -0.2734  0.4564
  620MOL0     C81760   0.623   3.317   1.357  0.7925  0.1285  0.6519
  620MOL0     C81761   0.744   3.377   1.393  0.4490  0.1569  0.9703
  620MOL0     C81762   1.016   3.674   1.642  0.7574 -0.3464  0.4231
  620MOL0     C81763   1.043   3.743   1.767  0.8254  0.6208  0.3537
  620MOL0     C81764   1.160   3.812   1.782 -0.2128 -0.0015  0.3274
  620MOL0     C81765   1.259   3.817   1.675 -0.5765 -0.7261 -0.3787
  620MOL0     O81766   1.386   3.873   1.681 -0.0015 -0.0098  0.0875
  620MOL0     C81767   1.448   3.900   1.810  0.1746 -0.0236  0.4074
  620MOL0     C81768   1.488   4.051   1.808 -0.1145 -0.2315  0.5550
  620MOL0     C81769   1.591   4.101   1.908 -1.0245 -0.0720  0.1999
  620MOL0     C81770   1.539   4.163   2.039  0.4053 -0.1636  0.1293
  620MOL0     C81771   1.654   4.193   2.118 -0.1065 -0.6044  1.2079
  620MOL0     C81772   1.760   4.224   2.176 -0.2916  0.4574 -0.4880
  620MOL0     C81773   1.242   3.740   1.561 -0.6015  0.6957 -0.1346
  620MOL0     C81774   1.117   3.675   1.538  0.3627 -0.2234  1.1448
  620MOL0     H81775   0.619   3.645   1.559 -2.3811  0.9686 -0.1196
  620MOL0     H81776   0.412   3.546   1.492  2.8320  5.2656  3.6526
  620MOL0     H81777   0.266   3.456   1.317  1.2861  1.9667  3.3584
  620MOL0     H81778   0.243   3.380   1.478  0.7905  5.6163 -0.4536
  620MOL0     H81779   0.158   3.162   1.367  1.3447 -1.7606 -2.6710
  620MOL0     H81780   0.173   3.233   1.217 -1.3950 -4.2361  0.5387
  620MOL0     H81781   0.030   3.424   1.279  0.5207  2.2766  2.8923
  620MOL0     H81782  -0.020   3.329   1.430 -0.1446 -1.5725 -0.3301
  620MOL0     H81783  -0.046   3.262   1.144  0.3361  0.9895  0.1407
  620MOL0     H81784  -0.081   3.135   1.255  0.5792 -0.4566 -2.0213
  620MOL0     H81785  -0.302   3.249   1.162 -2.4063  2.4772  0.4975
  620MOL0     H81786  -0.232   3.399   1.225  0.0685  0.0026 -1.5838
  620MOL0     H81787  -0.247   3.308   1.456  2.2989  0.0451 -2.1706
  620MOL0     H81788  -0.273   3.146   1.403 -1.7794 -0.9284 -1.6263
  620MOL0     H81789  -0.456   3.289   1.515  2.0458  1.4881 -0.1506
  620MOL0     H81790  -0.469   3.392   1.367  0.2871  0.6411  0.7952
  620MOL0     H81791  -0.508   3.123   1.276  0.1815  0.6586 -0.5015
  620MOL0     H81792  -0.622   3.256   1.286 -0.1589 -0.0029 -0.2632
  620MOL0     H81793  -0.847   3.182   1.416  0.6425 -0.4788  0.5502
  620MOL0     H81794  -0.970   2.852   1.471  0.1079  0.1624 -0.0787
  620MOL0     H81795  -1.011   3.030   1.467 -0.3932  1.2031  2.0486
  620MOL0     H81796  -1.018   3.069   1.686 -1.1634  0.3392  0.1105
  620MOL0     H81797  -0.891   2.946   1.722  2.1887 -0.0304 -3.6107
  620MOL0     H81798  -1.065   2.771   1.645  1.0918 -0.3558  1.3206
  620MOL0     H81799  -1.085   2.853   1.804  1.0513  2.8422  0.0934
  620MOL0     H81800  -1.297   2.841   1.713  1.9917 -1.1219  1.3523
  620MOL0     H81801  -1.244   2.886   1.544  1.6013  0.4789  0.1654
  620MOL0     H81802  -1.298   3.279   1.696 -1.3421  1.8190  0.1630
  620MOL0     H81803  -1.504   3.403   1.673  0.4775  0.3697 -0.0279
  620MOL0     H81804  -1.841   3.668   1.623  0.4188  0.5344  0.3824
  620MOL0     H81805  -2.054   3.757   1.672  3.1346 -0.0176 -2.0800
  620MOL0     H81806  -2.293   3.798   1.664 -1.9547  1.8787  0.3788
  620MOL0     H81807  -2.267   3.788   1.841  0.2673  0.5029 -1.0452
  620MOL0     H81808  -2.516   3.705   1.846 -2.4313 -0.8298 -2.7837
  620MOL0     H81809  -2.516   3.754   1.674  1.6453 -0.5806  0.0495
  620MOL0     H81810  -2.471   3.984   1.715 -2.9191 -1.3610 -1.8763
  620MOL0     H81811  -2.445   3.955   1.890 -1.1952  0.7724  0.7584
  620MOL0     H81812  -2.723   3.926   1.755 -2.1301  2.6631  1.5495
  620MOL0     H81813  -2.684   3.858   1.908 -0.0068 -0.9235 -0.0174
  620MOL0     H81814  -2.608   4.149   1.870 -0.2038 -0.9315 -2.1679
  620MOL0     H81815  -2.650   4.068   2.016  1.2901  3.3635  0.4885
  620MOL0     H81816  -2.843   4.156   1.798 -0.4411  0.2890  0.7900
  620MOL0     H81817  -2.839   4.219   1.957 -0.5612  0.3574 -0.4637
  620MOL0     H81818  -2.895   3.922   1.921  0.5207 -0.3596  1.4230
  620MOL0     H81819  -2.940   4.014   2.059  0.0859 -0.9709  0.0257
  620MOL0     H81820  -3.122   3.962   1.884  1.6089 -1.7250  1.9252
  620MOL0     H81821  -3.042   4.059   1.776 -4.9383 -0.7639 -0.8296
  620MOL0     H81822  -2.226   3.365   1.733  0.4482  0.7978  0.6551
  620MOL0     H81823  -1.995   3.273   1.706  3.8708  0.8771  2.2190
  620MOL0     H81824  -1.699   3.050   1.528  1.5827 -2.6109  0.3493
  620MOL0     H81825  -1.499   2.920   1.589 -1.5158  1.1170 -1.2177
  620MOL0     H81826   0.617   3.219   1.311 -3.1553  0.8328 -0.7701
  620MOL0     H81827   0.834   3.318   1.373 -0.7575 -1.1811 -0.8227
  620MOL0     H81828   0.971   3.760   1.846  1.9343 -0.7701  1.7385
  620MOL0     H81829   1.174   3.869   1.873 -3.1314  0.8732  0.3392
  620MOL0     H81830   1.544   3.849   1.810  1.1158  1.6741  0.5389
  620MOL0     H81831   1.391   3.874   1.900  0.4715  0.2239  0.6694
  620MOL0     H81832   1.534   4.079   1.713 -0.6436  0.2728  0.4449
  620MOL0     H81833   1.403   4.120   1.812  0.0109  0.1866 -1.9841
  620MOL0     H81834   1.648   4.184   1.866 -1.1489 -0.1032 -0.0296
  620MOL0     H81835   1.646   4.010   1.932 -0.6226 -0.1809 -1.0646
  620MOL0     H81836   1.482   4.255   2.024 -0.4940 -0.8198 -0.5274
  620MOL0     H81837   1.482   4.084   2.088  0.1268  0.3615  0.6705
  620MOL0     H81838   1.854   4.260   2.211 -0.6758  0.7390  0.2855
  620MOL0     H81839   1.327   3.732   1.494 -0.7273 -0.4521 -0.1725
  620MOL0     H81840   1.106   3.631   1.440  2.3470  1.3755  0.1225
  621MOL0     O81841   8.004   1.363   9.374  0.2554 -0.5747 -0.8914
  621MOL0     C81842   8.018   1.410   9.491  0.6446 -0.8490 -0.6022
  621MOL0     O81843   7.923   1.449   9.590 -0.0761  0.6539 -0.4300
  621MOL0     C81844   7.792   1.465   9.542 -0.3225  0.0314  0.1289
  621MOL0     C81845   7.722   1.363   9.473  0.1459  0.1419 -0.7342
  621MOL0     C81846   7.581   1.383   9.431  0.3778  0.2203  0.5129
  621MOL0     C81847   7.516   1.513   9.452 -0.7688  0.1492  0.9651
  621MOL0     O81848   7.387   1.556   9.417  0.1030  0.3897  0.2275
  621MOL0     C81849   7.290   1.445   9.419 -0.2231 -1.2225 -0.4871
  621MOL0     C81850   7.164   1.477   9.492  0.5815  0.5253 -0.7016
  621MOL0     C81851   7.043   1.387   9.473 -0.4441  0.3846  0.7568
  621MOL0     C81852   6.948   1.378   9.595  0.4285 -0.6824 -0.7892
  621MOL0     C81853   6.802   1.346   9.548 -0.1626  1.2080  0.0801
  621MOL0     C81854   6.708   1.310   9.670  0.7355 -0.2697  0.3026
  621MOL0     C81855   6.576   1.271   9.606 -0.8134 -0.2909 -0.2970
  621MOL0     C81856   6.468   1.247   9.717  0.4761  0.2606 -0.0460
  621MOL0     N81857   6.335   1.200   9.662 -0.2321 -0.4749  0.1658
  621MOL0     C81858   6.290   1.069   9.653  0.4727  0.0734 -0.3125
  621MOL0     C81859   6.151   1.084   9.654  0.6181  0.5754 -0.5530
  621MOL0     C81860   6.059   0.975   9.648  0.7976  0.4570  0.7363
  621MOL0     C81861   5.914   1.006   9.705 -0.2393  0.2146 -0.1194
  621MOL0     C81862   5.828   0.879   9.709 -0.1180  0.2304  0.3531
  621MOL0     C81863   5.687   0.915   9.729  0.0531 -0.5018 -0.5761
  621MOL0     O81864   5.684   0.988   9.856  1.1527 -0.3280 -0.3035
  621MOL0     C81865   5.560   1.027   9.896  0.8237 -0.8359  0.4780
  621MOL0     C81866   5.550   1.103  10.019 -0.7344  0.4495  0.3535
  621MOL0     C81867   5.430   1.148  10.069  0.4513 -0.4124 -0.5444
  621MOL0     C81868   5.313   1.127  10.002  0.3244 -0.1411 -0.5765
  621MOL0     C81869   5.183   1.185  10.055  0.6455 -0.2139 -0.3173
  621MOL0     O81870   5.070   1.172   9.969 -0.6311  0.4599 -0.4668
  621MOL0     C81871   4.955   1.236   9.998  0.0678 -0.5062 -0.0859
  621MOL0     C81872   4.947   1.376  10.033  0.0380  0.0013 -0.2518
  621MOL0     C81873   4.832   1.443  10.064  0.6283  0.0645 -0.1865
  621MOL0     C81874   4.712   1.370  10.056  0.0309 -0.1155 -0.8087
  621MOL0     O81875   4.586   1.427  10.086 -0.0561  0.4579  0.3938
  621MOL0     C81876   4.570   1.575  10.080  0.3842 -0.1339 -0.1322
  621MOL0     C81877   4.426   1.603  10.116  0.2560  0.2504 -0.3776
  621MOL0     C81878   4.335   1.620   9.994  0.0587  0.2875 -0.3268
  621MOL0     C81879   4.197   1.683  10.020  0.3457 -0.1396  0.7553
  621MOL0     C81880   4.104   1.692   9.905 -0.0281 -0.5536 -1.1306
  621MOL0     C81881   4.041   1.553   9.866  0.6784 -0.0764  0.2279
  621MOL0     C81882   3.920   1.565   9.776  0.2993  0.3858  0.3668
  621MOL0     C81883   3.800   1.634   9.843 -0.1327 -0.2525 -0.0236
  621MOL0    Cl81884   3.738   1.537   9.976  0.2145 -0.1180  0.3058
  621MOL0     C81885   4.716   1.236  10.028  0.5691  1.0328 -0.6082
  621MOL0     C81886   4.841   1.164  10.011  0.0159  0.6932 -0.5368
  621MOL0     O81887   5.198   1.268  10.150  0.4715  0.3128  0.0447
  621MOL0     C81888   5.323   1.060   9.873 -0.0786  0.2783  0.3422
  621MOL0     C81889   5.444   1.006   9.820  0.0663 -0.1248  0.1222
  621MOL0     N81890   6.123   1.215   9.639 -0.3100  0.5271 -0.2041
  621MOL0     N81891   6.228   1.288   9.647 -0.2871 -0.1740  0.2225
  621MOL0     C81892   7.597   1.610   9.519  0.8362  0.2446 -0.2675
  621MOL0     C81893   7.731   1.592   9.553  0.2412  0.2479  0.0440
  621MOL0     C81894   8.154   1.427   9.535 -0.9601 -1.2618  0.3491
  621MOL0     C81895   8.190   1.439   9.668 -0.4015 -0.1393 -0.3873
  621MOL0     C81896   8.321   1.444   9.709  0.2510 -0.2655 -0.0701
  621MOL0     C81897   8.430   1.435   9.617 -0.7929 -1.1102 -0.0962
  621MOL0     O81898   8.559   1.435   9.654  0.7381  0.2704  0.1057
  621MOL0     C81899   8.614   1.493   9.780  0.4619  0.9922  1.3312
  621MOL0     C81900   8.625   1.645   9.770 -0.2782 -0.4093  0.0393
  621MOL0     C81901   8.699   1.709   9.885  0.4109  0.4131  0.5326
  621MOL0     C81902   8.603   1.764   9.988 -1.0436  0.6355  0.8875
  621MOL0     C81903   8.502   1.664  10.025  0.4851 -0.3712 -0.6227
  621MOL0     C81904   8.428   1.584  10.078 -0.0490 -0.2139  1.0176
  621MOL0     C81905   8.394   1.426   9.483  0.0810  0.6612  0.2879
  621MOL0     C81906   8.260   1.425   9.441  0.3081 -1.0725  1.1981
  621MOL0     H81907   7.766   1.267   9.448  1.1140  0.6635 -1.0811
  621MOL0     H81908   7.535   1.308   9.368 -2.7402  1.2384  1.3912
  621MOL0     H81909   7.331   1.351   9.458  1.0634  0.2380  1.8558
  621MOL0     H81910   7.256   1.436   9.315  0.5400 -1.4390 -0.7245
  621MOL0     H81911   7.124   1.576   9.469 -0.4428 -0.2611 -2.5003
  621MOL0     H81912   7.203   1.477   9.594  0.3587 -0.3011 -0.6020
  621MOL0     H81913   7.078   1.288   9.440  1.1076  1.2873 -0.4596
  621MOL0     H81914   6.990   1.420   9.384 -1.4607 -2.9696 -0.0275
  621MOL0     H81915   6.992   1.312   9.670  3.5702  1.0490 -0.9474
  621MOL0     H81916   6.929   1.479   9.635 -0.7413 -0.0987 -2.6660
  621MOL0     H81917   6.802   1.256   9.485  1.2703  1.2347  0.0079
  621MOL0     H81918   6.760   1.432   9.497  0.3564 -0.0361 -2.6029
  621MOL0     H81919   6.710   1.402   9.728  4.7512 -1.3185  2.2193
  621MOL0     H81920   6.744   1.234   9.740  0.5238 -0.0288  0.6759
  621MOL0     H81921   6.543   1.352   9.540  0.9393  1.5914  1.0091
  621MOL0     H81922   6.583   1.176   9.552 -0.4047 -1.7510  2.1624
  621MOL0     H81923   6.448   1.337   9.777 -1.0190 -0.9756  1.4142
  621MOL0     H81924   6.509   1.179   9.793  1.6325  0.5944 -0.3532
  621MOL0     H81925   6.348   0.977   9.663  1.6100  0.8211  0.1818
  621MOL0     H81926   6.094   0.886   9.702 -0.9139 -0.7494 -0.0358
  621MOL0     H81927   6.037   0.941   9.547 -4.7386  0.8018  1.4835
  621MOL0     H81928   5.866   1.072   9.633  1.4232 -1.7495 -3.3002
  621MOL0     H81929   5.928   1.045   9.806  0.9675 -0.2885 -0.0707
  621MOL0     H81930   5.841   0.829   9.612 -3.2327  0.1192 -0.1199
  621MOL0     H81931   5.861   0.819   9.794 -1.7255 -0.3617  0.5915
  621MOL0     H81932   5.634   0.820   9.735 -0.0365 -0.3696  1.9081
  621MOL0     H81933   5.654   0.977   9.644  0.8825  2.4298  1.0874
  621MOL0     H81934   5.639   1.104  10.082  0.4336  1.4341 -1.2334
  621MOL0     H81935   5.428   1.196  10.167 -1.5198  2.2394 -1.7621
  621MOL0     H81936   5.035   1.440  10.030  0.3316 -0.4188 -1.5249
  621MOL0     H81937   4.830   1.549  10.085  0.5598 -0.0449  0.3646
  621MOL0     H81938   4.587   1.610   9.978 -2.2431 -0.2732 -0.6736
  621MOL0     H81939   4.631   1.637  10.147 -3.4078  0.8280  2.7467
  621MOL0     H81940   4.431   1.692  10.179 -0.9786 -0.1663  0.3607
  621MOL0     H81941   4.396   1.526  10.187  0.8709  0.0718 -0.3082
  621MOL0     H81942   4.330   1.525   9.940 -0.0281 -1.2711  2.2419
  621MOL0     H81943   4.389   1.687   9.927 -1.7031  0.9716 -1.1193
  621MOL0     H81944   4.142   1.617  10.089 -0.7647  0.0977  0.1126
  621MOL0     H81945   4.215   1.778  10.071 -1.0734  2.2036 -2.7525
  621MOL0     H81946   4.152   1.742   9.820  0.9291  1.7202  0.6532
  621MOL0     H81947   4.026   1.757   9.946  0.3398  0.7305 -2.3834
  621MOL0     H81948   4.018   1.493   9.954 -2.3391 -0.2585 -0.5807
  621MOL0     H81949   4.120   1.496   9.817  1.3368  1.8122 -1.0365
  621MOL0     H81950   3.946   1.618   9.684 -0.7757 -2.1612 -1.5204
  621MOL0     H81951   3.875   1.474   9.734 -0.0008  1.2497 -1.2361
  621MOL0     H81952   3.719   1.644   9.770  1.1274  0.1463 -1.4012
  621MOL0     H81953   3.832   1.728   9.889  0.2151 -0.1297 -0.5162
  621MOL0     H81954   4.622   1.184  10.040 -0.0462  2.1077 -0.6938
  621MOL0     H81955   4.826   1.062   9.976  1.2669 -0.3909  1.7953
  621MOL0     H81956   5.223   1.053   9.830 -0.2208 -1.4208  0.8746
  621MOL0     H81957   5.446   0.949   9.728  1.4929 -1.5523  0.9762
  621MOL0     H81958   7.553   1.710   9.520  0.4948  0.1132 -1.0787
  621MOL0     H81959   7.782   1.666   9.613 -0.8273 -2.6646  5.0872
  621MOL0     H81960   8.115   1.446   9.747 -1.2758  0.4872 -1.2439
  621MOL0     H81961   8.327   1.459   9.816 -0.9412  0.6125 -0.1089
  621MOL0     H81962   8.715   1.452   9.787 -0.9644 -3.3010 -0.0756
  621MOL0     H81963   8.560   1.456   9.868 -0.2439 -1.8048 -0.1510
  621MOL0     H81964   8.679   1.672   9.679 -0.8188 -0.5869 -0.3365
  621MOL0     H81965   8.530   1.690   9.741 -1.0257 -0.4048  2.3395
  621MOL0     H81966   8.746   1.796   9.838 -0.7628  1.1522  0.6939
  621MOL0     H81967   8.783   1.644   9.910  0.5423 -0.1802 -1.3463
  621MOL0     H81968   8.665   1.786  10.075  1.7586 -0.7863 -0.5723
  621MOL0     H81969   8.552   1.851   9.946  0.6961  2.3788  2.2010
  621MOL0     H81970   8.373   1.515  10.139  2.4646 -1.2465  2.2561
  621MOL0     H81971   8.475   1.421   9.412 -0.7094 -0.8486 -0.5549
  621MOL0     H81972   8.235   1.418   9.335 -1.2606  1.1127  1.3595
  622MOL0     O81973   6.603   1.026   6.494 -0.8058 -0.7343 -0.0906
  622MOL0     C81974   6.626   1.095   6.389  0.8756  0.8873 -1.0908
  622MOL0     O81975   6.536   1.183   6.337  0.3674  0.1341  0.4864
  622MOL0     C81976   6.408   1.186   6.385  0.1192 -0.3591  0.2870
  622MOL0     C81977   6.342   1.313   6.387  0.3976 -0.3851  1.6379
  622MOL0     C81978   6.208   1.322   6.416 -0.6686  0.2440 -0.4341
  622MOL0     C81979   6.130   1.205   6.439 -0.4773  0.9410 -0.2481
  622MOL0     O81980   5.997   1.200   6.486 -0.2456 -0.4122 -0.4082
  622MOL0     C81981   5.960   1.305   6.579  0.0047  0.1310  0.2046
  622MOL0     C81982   5.818   1.300   6.632 -0.3763  0.3647  0.2320
  622MOL0     C81983   5.736   1.283   6.507  0.1543 -0.2980  0.2843
  622MOL0     C81984   5.591   1.326   6.519 -0.1664 -0.5228  0.4032
  622MOL0     C81985   5.523   1.339   6.377  0.3570  0.4840  0.5572
  622MOL0     C81986   5.374   1.347   6.406 -0.0088  0.1424 -0.0281
  622MOL0     C81987   5.279   1.309   6.282  0.1776  0.1651 -0.0914
  622MOL0     C81988   5.130   1.289   6.315  0.3027  0.4344 -0.6743
  622MOL0     N81989   5.046   1.255   6.205 -0.1268  0.0206  1.5775
  622MOL0     C81990   4.992   1.341   6.110  0.0538 -1.0785  0.7464
  622MOL0     C81991   4.881   1.280   6.066 -0.4152 -0.0335  0.1116
  622MOL0     C81992   4.788   1.336   5.961 -0.2210  0.0363 -0.2462
  622MOL0     C81993   4.644   1.332   5.998  0.4914 -0.0620 -0.5685
  622MOL0     C81994   4.558   1.364   5.880  0.0930 -0.4698  0.0744
  622MOL0     C81995   4.411   1.336   5.909  0.1684  0.3273 -0.1804
  622MOL0     O81996   4.352   1.391   5.785 -0.4640  0.1734 -0.2941
  622MOL0     C81997   4.215   1.418   5.774  0.3130 -0.2399  0.0744
  622MOL0     C81998   4.125   1.378   5.870  0.4832  0.4386  0.3459
  622MOL0     C81999   3.983   1.383   5.839  0.1342 -0.2028 -1.0354
  622MOL0     C82000   3.944   1.444   5.720  0.0362 -0.6939  0.1545
  622MOL0     C82001   3.801   1.469   5.688  0.4746  0.7307 -0.2591
  622MOL0     O82002   3.697   1.463   5.789  0.1448  0.4489  0.4725
  622MOL0     C82003   3.570   1.477   5.749  0.1957 -0.4539  0.7920
  622MOL0     C82004   3.534   1.594   5.676  0.4272  0.5081  0.3079
  622MOL0     C82005   3.396   1.630   5.653 -1.0694  0.2392  0.1542
  622MOL0     C82006   3.301   1.541   5.691  0.0531 -0.5003  0.2074
  622MOL0     O82007   3.166   1.563   5.681  0.3214 -0.1616 -0.2415
  622MOL0     C82008   3.125   1.691   5.630 -0.0018  0.1243  0.1322
  622MOL0     C82009   2.975   1.697   5.641  0.1770  0.6403 -0.2475
  622MOL0     C82010   2.905   1.598   5.533 -0.4878  0.0093  0.1617
  622MOL0     C82011   2.750   1.603   5.537 -0.5140  0.0766  0.0166
  622MOL0     C82012   2.699   1.730   5.465  0.8590 -0.1181 -0.0413
  622MOL0     C82013   2.541   1.739   5.479  0.9036  0.1965 -0.3185
  622MOL0     C82014   2.474   1.813   5.371 -0.4141 -0.3941 -0.1032
  622MOL0     C82015   2.318   1.803   5.396 -0.3620 -0.0452  0.2888
  622MOL0    Cl82016   2.246   1.650   5.363  0.2237  0.1133 -0.3297
  622MOL0     C82017   3.338   1.413   5.743 -0.5296  0.4803 -0.2522
  622MOL0     C82018   3.471   1.387   5.780  0.4326  0.3926 -0.6854
  622MOL0     O82019   3.780   1.497   5.568 -0.0092 -0.7766  0.1495
  622MOL0     C82020   4.039   1.488   5.631 -0.4425  0.6805  0.5417
  622MOL0     C82021   4.172   1.476   5.656 -0.2784  0.1319 -0.1777
  622MOL0     N82022   4.868   1.163   6.138  0.6480 -0.5189  0.0152
  622MOL0     N82023   4.965   1.146   6.215 -0.6904 -0.0695  0.4470
  622MOL0     C82024   6.199   1.080   6.447  0.1826 -0.4344  0.5053
  622MOL0     C82025   6.332   1.067   6.413 -0.6947 -0.1985 -0.3730
  622MOL0     C82026   6.766   1.108   6.341  0.2748 -0.8931  0.1010
  622MOL0     C82027   6.787   1.168   6.221 -0.0459 -0.7772  0.7817
  622MOL0     C82028   6.924   1.182   6.187  0.8586 -0.5698 -0.2272
  622MOL0     C82029   7.026   1.117   6.259  0.4286  0.6847  0.2429
  622MOL0     O82030   7.153   1.127   6.223 -0.3873  0.0125  0.3784
  622MOL0     C82031   7.194   1.020   6.130 -0.0484 -0.3632  0.4633
  622MOL0     C82032   7.225   1.080   5.994  0.3151 -0.7142  1.0210
  622MOL0     C82033   7.351   1.180   5.984 -0.7414 -0.2015 -0.3135
  622MOL0     C82034   7.461   1.133   5.888 -0.4398 -0.0382  0.2498
  622MOL0     C82035   7.545   1.035   5.948 -0.7038 -0.1577  0.0837
  622MOL0     C82036   7.632   0.958   5.985 -0.1083  0.9561  0.0546
  622MOL0     C82037   6.999   1.057   6.382  0.4738  0.3510 -1.0618
  622MOL0     C82038   6.863   1.052   6.417 -0.9165 -0.3443 -0.1460
  622MOL0     H82039   6.386   1.409   6.361  0.2694 -0.3299  1.6270
  622MOL0     H82040   6.166   1.422   6.420 -1.3109 -0.0619  1.3071
  622MOL0     H82041   5.988   1.400   6.532 -4.3080  0.7333 -1.5228
  622MOL0     H82042   6.022   1.286   6.667  1.9896  1.6928 -0.7660
  622MOL0     H82043   5.800   1.389   6.693 -0.4182 -0.1755  1.0385
  622MOL0     H82044   5.810   1.209   6.693 -1.0441 -2.8266 -4.1672
  622MOL0     H82045   5.745   1.180   6.471  0.2327 -0.8129  1.7098
  622MOL0     H82046   5.782   1.360   6.444 -3.1745  2.4157  0.8450
  622MOL0     H82047   5.536   1.251   6.577 -0.5668 -1.1060 -0.6817
  622MOL0     H82048   5.576   1.412   6.584  0.4766  1.3274 -1.7566
  622MOL0     H82049   5.555   1.252   6.319 -0.0763  1.3858 -1.1073
  622MOL0     H82050   5.557   1.435   6.336  3.2825 -0.2144  1.1191
  622MOL0     H82051   5.348   1.441   6.456  0.7632 -0.0031  0.6686
  622MOL0     H82052   5.357   1.273   6.485  0.9347 -0.6234 -0.5299
  622MOL0     H82053   5.293   1.392   6.213  0.2126 -2.2035 -3.1507
  622MOL0     H82054   5.314   1.217   6.233 -1.6957 -0.1389 -0.9388
  622MOL0     H82055   5.084   1.381   6.351 -0.1341 -0.3647  0.9344
  622MOL0     H82056   5.135   1.219   6.399  2.6182 -0.2426 -1.3162
  622MOL0     H82057   5.037   1.437   6.086  1.1755 -2.0668 -1.3353
  622MOL0     H82058   4.806   1.281   5.868  1.9741  0.5824 -0.2007
  622MOL0     H82059   4.824   1.438   5.943 -0.5161 -0.0591 -1.4874
  622MOL0     H82060   4.629   1.399   6.082  2.3864 -0.4191  0.0949
  622MOL0     H82061   4.626   1.227   6.022 -0.9908  0.6236  1.6315
  622MOL0     H82062   4.563   1.473   5.869 -0.4970 -0.2223  1.9496
  622MOL0     H82063   4.592   1.309   5.792  3.2666  0.0339  0.8422
  622MOL0     H82064   4.370   1.393   5.994  1.1738  1.2574 -0.2895
  622MOL0     H82065   4.401   1.228   5.921  2.4255  0.1444  0.6108
  622MOL0     H82066   4.154   1.339   5.967 -2.0142  1.1243  1.4404
  622MOL0     H82067   3.917   1.343   5.915 -1.4887 -1.2646 -2.9102
  622MOL0     H82068   3.610   1.667   5.650  0.8130  0.1551  0.4308
  622MOL0     H82069   3.370   1.723   5.604 -0.8104  1.2504  1.8527
  622MOL0     H82070   3.152   1.710   5.526 -2.2578  0.4005 -0.4615
  622MOL0     H82071   3.170   1.769   5.691 -2.2322  0.0407  2.0091
  622MOL0     H82072   2.947   1.800   5.620 -0.4956 -0.0581 -3.2752
  622MOL0     H82073   2.941   1.674   5.742 -1.2914 -0.7337 -1.0026
  622MOL0     H82074   2.931   1.494   5.554  1.0787  0.1759 -0.7961
  622MOL0     H82075   2.939   1.613   5.430 -1.9509 -2.9728 -0.8856
  622MOL0     H82076   2.714   1.525   5.470 -0.5763  0.7764 -0.7852
  622MOL0     H82077   2.713   1.595   5.640  1.1112  0.0854  0.6263
  622MOL0     H82078   2.712   1.731   5.357 -3.8723  3.3895 -0.9020
  622MOL0     H82079   2.753   1.820   5.498 -0.0846  1.5080 -2.6522
  622MOL0     H82080   2.507   1.769   5.578  0.4860  1.6643 -0.8820
  622MOL0     H82081   2.503   1.638   5.462  3.0350 -0.5517 -0.9996
  622MOL0     H82082   2.503   1.919   5.372  0.1558 -0.5242 -1.2421
  622MOL0     H82083   2.505   1.770   5.275 -2.4937  1.5183 -1.7321
  622MOL0     H82084   2.274   1.864   5.317 -2.0485  0.3472  1.4548
  622MOL0     H82085   2.275   1.819   5.496 -1.1432 -1.8381  0.2867
  622MOL0     H82086   3.260   1.343   5.772  0.2573  0.3499  1.7233
  622MOL0     H82087   3.497   1.299   5.837  2.1600  0.1907 -1.6951
  622MOL0     H82088   4.011   1.531   5.535  0.9341 -2.4249 -1.3936
  622MOL0     H82089   4.240   1.511   5.579 -1.0748  1.1168 -0.4535
  622MOL0     H82090   6.144   0.989   6.465 -2.9570  1.2279 -0.0726
  622MOL0     H82091   6.378   0.969   6.417  0.2563  0.2215 -0.7517
  622MOL0     H82092   6.709   1.205   6.156  0.5754  0.6575  0.8169
  622MOL0     H82093   6.967   1.223   6.096  0.6338 -0.8227 -0.4525
  622MOL0     H82094   7.118   0.942   6.116  0.4795 -0.4559 -2.4261
  622MOL0     H82095   7.283   0.966   6.164  1.0039  0.8478 -0.2886
  622MOL0     H82096   7.238   1.003   5.919  3.2006  0.3398  0.2824
  622MOL0     H82097   7.142   1.145   5.965  0.5802 -0.0874  1.6094
  622MOL0     H82098   7.387   1.196   6.086  0.5499 -2.1498 -0.4148
  622MOL0     H82099   7.321   1.280   5.951 -0.9418  0.8369  2.6697
  622MOL0     H82100   7.418   1.093   5.797  0.5101 -1.4268  0.3895
  622MOL0     H82101   7.520   1.222   5.863 -1.4078  1.4627  2.8170
  622MOL0     H82102   7.705   0.896   6.034 -1.2209  0.0648  0.6276
  622MOL0     H82103   7.079   1.006   6.434 -1.1600 -2.2861 -0.9384
  622MOL0     H82104   6.832   0.991   6.502  0.7541 -0.6769  0.2484
  623MOL0     O82105   7.172   3.639   1.597 -0.1617 -0.1659 -0.3708
  623MOL0     C82106   7.152   3.725   1.518 -0.3541 -0.3303  0.1611
  623MOL0     O82107   7.027   3.766   1.464  0.0372 -0.0536 -0.3818
  623MOL0     C82108   6.901   3.712   1.500 -0.3053  0.0725  0.2158
  623MOL0     C82109   6.796   3.790   1.470  0.4157  0.1878  0.5406
  623MOL0     C82110   6.666   3.763   1.489 -0.2854  0.6685 -0.4990
  623MOL0     C82111   6.623   3.635   1.531  0.0491  0.9509 -0.4096
  623MOL0     O82112   6.499   3.606   1.558 -0.4761  0.0233 -0.8533
  623MOL0     C82113   6.402   3.706   1.573  0.5743 -0.3253  0.7603
  623MOL0     C82114   6.273   3.629   1.612  0.4160 -0.9765 -0.0763
  623MOL0     C82115   6.177   3.723   1.692  0.1607  0.9078 -0.2249
  623MOL0     C82116   6.125   3.841   1.606 -0.0268  0.1635  1.0227
  623MOL0     C82117   6.022   3.916   1.687 -1.0633 -0.6322  0.9798
  623MOL0     C82118   6.007   4.056   1.637 -0.2322  0.6867  0.6437
  623MOL0     C82119   5.939   4.071   1.496  0.2103  0.2614 -0.4525
  623MOL0     C82120   5.804   4.005   1.493  0.1913 -0.3274  0.5348
  623MOL0     N82121   5.758   4.018   1.352 -0.0791 -1.1655  0.2155
  623MOL0     C82122   5.690   4.128   1.290 -0.4904 -0.4428 -0.3513
  623MOL0     C82123   5.674   4.089   1.161 -0.1649 -0.1960 -0.2052
  623MOL0     C82124   5.615   4.173   1.049 -0.5425 -0.2272 -0.7430
  623MOL0     C82125   5.468   4.195   1.086  0.6950  0.2892  0.9730
  623MOL0     C82126   5.381   4.247   0.974  0.7073 -0.3952  0.3248
  623MOL0     C82127   5.270   4.329   1.029 -0.1152  0.5624 -0.2431
  623MOL0     O82128   5.175   4.241   1.078 -0.6253 -0.1227  0.1625
  623MOL0     C82129   5.046   4.290   1.083  0.5091  0.4623 -1.8563
  623MOL0     C82130   4.948   4.202   1.095  0.0710  0.0009 -0.6551
  623MOL0     C82131   4.815   4.237   1.123  0.5638  0.4107 -0.2511
  623MOL0     C82132   4.774   4.366   1.133  0.7617  0.5160  0.1771
  623MOL0     C82133   4.635   4.401   1.162  0.2271  0.2176  0.6975
  623MOL0     O82134   4.534   4.318   1.144  0.1592 -0.5366  0.5416
  623MOL0     C82135   4.405   4.365   1.158  0.6262 -0.3324 -0.2953
  623MOL0     C82136   4.322   4.325   1.269 -1.2736 -0.8032 -0.0854
  623MOL0     C82137   4.186   4.370   1.284 -0.0632 -0.1962 -0.2026
  623MOL0     C82138   4.134   4.427   1.172  1.4099  0.4791 -0.3082
  623MOL0     O82139   4.003   4.469   1.187  0.3517 -0.0361  0.0819
  623MOL0     C82140   3.930   4.509   1.067 -0.0884  0.4736  0.3476
  623MOL0     C82141   3.777   4.524   1.092 -1.3592  0.0607  0.1532
  623MOL0     C82142   3.718   4.617   0.987 -0.1540  0.6068  0.6535
  623MOL0     C82143   3.577   4.644   1.012  0.0329 -0.2481 -0.5899
  623MOL0     C82144   3.516   4.752   0.913 -0.6658  0.2412 -0.7712
  623MOL0     C82145   3.545   4.887   0.969 -0.1093 -0.3058  0.3499
  623MOL0     C82146   3.458   4.999   0.911  0.1512  0.3758 -0.2096
  623MOL0     C82147   3.496   5.121   0.985  0.4985 -0.1043  0.5984
  623MOL0    Cl82148   3.430   5.130   1.150  0.1750  0.1834 -0.2789
  623MOL0     C82149   4.218   4.472   1.071 -0.0361 -0.5400 -0.1975
  623MOL0     C82150   4.351   4.446   1.058 -0.6032 -0.4189  0.2091
  623MOL0     O82151   4.619   4.512   1.209 -0.2658 -0.1734 -0.1645
  623MOL0     C82152   4.871   4.461   1.128 -0.2014 -0.3917  0.5948
  623MOL0     C82153   5.003   4.426   1.097  0.6080  0.1121 -0.4153
  623MOL0     N82154   5.707   3.956   1.147 -0.0129  0.1874  0.1586
  623MOL0     N82155   5.767   3.919   1.248  0.3727 -0.1718  0.0106
  623MOL0     C82156   6.734   3.540   1.561  0.5905  0.6105 -0.7966
  623MOL0     C82157   6.869   3.584   1.550 -0.2853  0.3613  0.4712
  623MOL0     C82158   7.284   3.776   1.464  0.3682 -0.8078  0.8673
  623MOL0     C82159   7.271   3.864   1.354 -0.1008 -0.6245 -0.1161
  623MOL0     C82160   7.380   3.928   1.303  0.0201 -0.5437  0.0662
  623MOL0     C82161   7.507   3.890   1.342 -0.9992 -0.0338  0.4191
  623MOL0     O82162   7.612   3.957   1.284 -0.0319  0.1953 -0.3968
  623MOL0     C82163   7.752   3.932   1.327 -0.5081 -1.3766 -0.8109
  623MOL0     C82164   7.813   3.798   1.282  0.4364 -0.3286  0.7687
  623MOL0     C82165   7.956   3.800   1.339 -0.6327  0.4037  0.5668
  623MOL0     C82166   7.961   3.740   1.477 -0.6284 -0.7360 -1.2141
  623MOL0     C82167   8.095   3.726   1.527 -0.0414 -0.6936 -0.1101
  623MOL0     C82168   8.202   3.697   1.568 -0.8891  0.0182  0.5260
  623MOL0     C82169   7.522   3.802   1.444  0.4102  1.3834 -1.0087
  623MOL0     C82170   7.412   3.750   1.517 -0.4391  1.0694 -0.5036
  623MOL0     H82171   6.814   3.891   1.435  5.4920 -0.7797 -0.4286
  623MOL0     H82172   6.586   3.836   1.482 -3.2042 -2.2932 -0.9609
  623MOL0     H82173   6.384   3.764   1.482 -0.2313 -0.5113  0.7863
  623MOL0     H82174   6.434   3.778   1.649 -0.3425 -0.8302  1.6464
  623MOL0     H82175   6.286   3.531   1.659 -3.9328 -0.9569  1.6523
  623MOL0     H82176   6.231   3.619   1.511 -1.1905  2.1348  0.1560
  623MOL0     H82177   6.226   3.753   1.785  1.8394  0.1124 -0.8135
  623MOL0     H82178   6.090   3.662   1.718  2.0974 -0.8560  2.6336
  623MOL0     H82179   6.211   3.903   1.580  0.4988  0.7092  3.7544
  623MOL0     H82180   6.073   3.813   1.514 -2.6395  0.9030  2.1963
  623MOL0     H82181   6.048   3.926   1.792 -2.3488  4.0113  1.0524
  623MOL0     H82182   5.930   3.857   1.692 -2.6356  1.6306  0.2053
  623MOL0     H82183   6.109   4.095   1.636  1.3628 -2.9943  0.4853
  623MOL0     H82184   5.957   4.124   1.706  3.0065  2.7539  1.1791
  623MOL0     H82185   5.927   4.180   1.488 -0.2692  0.1684 -1.0792
  623MOL0     H82186   6.001   4.039   1.412  0.6846  0.6608 -0.2572
  623MOL0     H82187   5.739   4.040   1.574 -0.0127  2.6107 -0.7640
  623MOL0     H82188   5.811   3.900   1.523 -1.6918  0.4533  4.2806
  623MOL0     H82189   5.676   4.224   1.339  1.2992  0.2534 -1.1384
  623MOL0     H82190   5.634   4.119   0.956 -0.8533 -1.8745  0.1124
  623MOL0     H82191   5.673   4.265   1.036 -1.8110  0.1733 -4.8939
  623MOL0     H82192   5.463   4.264   1.171 -0.7474 -0.9058  1.9105
  623MOL0     H82193   5.410   4.107   1.115  1.6686 -1.8434 -2.8728
  623MOL0     H82194   5.444   4.311   0.912 -0.5662  0.7976  0.2124
  623MOL0     H82195   5.332   4.172   0.911 -1.1194  1.5532 -0.6952
  623MOL0     H82196   5.233   4.392   0.948  1.0341  0.1621 -1.1014
  623MOL0     H82197   5.313   4.390   1.109  1.9139 -2.4323  1.1250
  623MOL0     H82198   4.961   4.095   1.082 -3.0009 -0.3141 -2.2603
  623MOL0     H82199   4.736   4.164   1.115  0.8196  0.1759 -0.6758
  623MOL0     H82200   4.369   4.255   1.336  1.4475 -0.5144 -1.5593
  623MOL0     H82201   4.130   4.340   1.372 -2.6490 -0.0514 -1.7099
  623MOL0     H82202   3.947   4.436   0.988 -2.0976 -1.9694  2.0212
  623MOL0     H82203   3.975   4.604   1.038  2.3268 -0.5213  0.5733
  623MOL0     H82204   3.756   4.571   1.189 -0.1655 -0.3931  0.6475
  623MOL0     H82205   3.729   4.426   1.095  0.6130 -0.9447  0.6485
  623MOL0     H82206   3.727   4.564   0.892 -2.3676  0.7000  0.3346
  623MOL0     H82207   3.779   4.708   0.986  1.9989 -0.7876  0.6289
  623MOL0     H82208   3.521   4.551   0.995  2.5509 -1.9597 -0.1730
  623MOL0     H82209   3.564   4.671   1.117  1.4224  2.4367 -1.0312
  623MOL0     H82210   3.408   4.738   0.901 -0.5623 -0.7923 -0.6215
  623MOL0     H82211   3.553   4.751   0.811  0.6873  2.3610 -0.3667
  623MOL0     H82212   3.645   4.915   0.935 -0.9149  0.5488 -1.5030
  623MOL0     H82213   3.540   4.883   1.078  4.5992  1.9636  0.8924
  623MOL0     H82214   3.483   5.012   0.805 -1.2705  2.1228 -0.3841
  623MOL0     H82215   3.353   4.973   0.926  0.2337  1.1771  2.0631
  623MOL0     H82216   3.462   5.208   0.928 -1.9556 -1.1267  0.3897
  623MOL0     H82217   3.605   5.133   0.986  0.8337 -1.9172 -2.3381
  623MOL0     H82218   4.181   4.534   0.989 -1.1045 -1.6602 -0.5934
  623MOL0     H82219   4.414   4.479   0.976 -0.0966  0.1215  0.7976
  623MOL0     H82220   4.847   4.566   1.141  0.8188  0.1013 -1.1394
  623MOL0     H82221   5.058   4.517   1.075  1.2890  0.1917  1.3847
  623MOL0     H82222   6.708   3.446   1.610 -1.3680  1.1950 -0.6476
  623MOL0     H82223   6.952   3.522   1.580  2.1585  3.2450  0.1876
  623MOL0     H82224   7.176   3.899   1.314  0.8371 -0.1266 -2.0186
  623MOL0     H82225   7.377   4.018   1.241 -1.5813  1.1789  2.4704
  623MOL0     H82226   7.758   3.956   1.434  2.0717  1.3775 -1.4289
  623MOL0     H82227   7.812   4.015   1.288 -2.7806  0.9344  0.3123
  623MOL0     H82228   7.757   3.717   1.330 -2.2419  1.5428  1.0928
  623MOL0     H82229   7.806   3.781   1.174 -0.9713 -0.7841  0.9075
  623MOL0     H82230   8.007   3.897   1.349 -0.3673  0.1006  2.7921
  623MOL0     H82231   8.018   3.738   1.274 -2.1437  0.2824 -0.8056
  623MOL0     H82232   7.902   3.809   1.538 -0.9324 -0.1409 -2.1484
  623MOL0     H82233   7.912   3.642   1.469 -3.8669  0.7389 -1.3156
  623MOL0     H82234   8.303   3.679   1.599 -1.2671 -0.9332  1.2532
  623MOL0     H82235   7.624   3.787   1.477 -0.0615  1.7557  0.7136
  623MOL0     H82236   7.422   3.686   1.604 -0.3175  0.8415 -0.6829
  624MOL0     O82237   0.449   3.610   9.722 -0.5520  0.2468  0.7657
  624MOL0     C82238   0.509   3.628   9.833  0.1344  0.3666  0.4888
  624MOL0     O82239   0.449   3.599   9.954  0.4863 -0.3764 -0.0939
  624MOL0     C82240   0.312   3.582   9.948  0.2371 -0.1035  1.3413
  624MOL0     C82241   0.224   3.678   9.905 -0.2572 -1.3335 -0.8687
  624MOL0     C82242   0.086   3.652   9.912 -0.5368  0.1392  0.1329
  624MOL0     C82243   0.041   3.526   9.929 -0.3366  0.2332 -0.2218
  624MOL0     O82244  -0.088   3.484   9.933  0.8049  0.7426 -0.2476
  624MOL0     C82245  -0.189   3.554   9.853 -0.0247 -0.7217  0.1437
  624MOL0     C82246  -0.317   3.487   9.847 -0.5005  0.0330 -0.8523
  624MOL0     C82247  -0.389   3.492   9.982 -0.5273 -0.3719  0.3914
  624MOL0     C82248  -0.523   3.416   9.966 -0.8106 -0.1089 -0.5736
  624MOL0     C82249  -0.644   3.506   9.931  0.1364 -0.0620  0.2262
  624MOL0     C82250  -0.769   3.416   9.906  0.2140 -0.5317 -0.8692
  624MOL0     C82251  -0.886   3.473   9.815 -0.7083 -0.1583 -0.2550
  624MOL0     C82252  -0.914   3.621   9.844 -1.1201  0.8900 -0.1433
  624MOL0     N82253  -1.050   3.662   9.819 -0.3866 -0.5282  0.0378
  624MOL0     C82254  -1.104   3.676   9.694 -0.2786  0.1217  0.3232
  624MOL0     C82255  -1.233   3.686   9.720 -0.0837  0.4228 -0.8262
  624MOL0     C82256  -1.342   3.720   9.624 -0.2608  0.0201 -0.4242
  624MOL0     C82257  -1.472   3.761   9.702  0.1086 -0.0755  0.8583
  624MOL0     C82258  -1.588   3.744   9.617 -0.0699  1.2764  0.1487
  624MOL0     C82259  -1.725   3.770   9.683 -0.5200  0.1025  0.2591
  624MOL0     O82260  -1.821   3.812   9.588 -0.3333 -0.2666 -0.0300
  624MOL0     C82261  -1.902   3.723   9.523  0.2116  0.9105  0.1086
  624MOL0     C82262  -1.931   3.594   9.564  0.3596  0.1588 -0.4184
  624MOL0     C82263  -2.011   3.513   9.484 -0.4509  0.1480 -0.6939
  624MOL0     C82264  -2.046   3.555   9.358  0.0806  0.0335 -0.1870
  624MOL0     C82265  -2.116   3.456   9.260 -0.8018 -0.9395 -0.5344
  624MOL0     O82266  -2.195   3.525   9.165  0.7154  0.2254 -0.5352
  624MOL0     C82267  -2.309   3.457   9.128 -0.2471 -0.7390  1.0308
  624MOL0     C82268  -2.390   3.385   9.209 -0.3788 -0.4285  0.6117
  624MOL0     C82269  -2.514   3.328   9.170 -0.4234 -0.2235 -0.0399
  624MOL0     C82270  -2.551   3.341   9.036 -0.9814 -0.4807  0.4454
  624MOL0     O82271  -2.661   3.279   9.004 -0.3511 -0.0576 -0.2170
  624MOL0     C82272  -2.668   3.236   8.863 -0.7424  0.4030 -0.2175
  624MOL0     C82273  -2.798   3.152   8.834 -0.3694 -0.5496 -0.6459
  624MOL0     C82274  -2.834   3.182   8.681  0.5502  0.0720 -0.1261
  624MOL0     C82275  -2.954   3.099   8.637 -0.3550  0.5817 -0.3188
  624MOL0     C82276  -3.012   3.139   8.502  0.0502 -0.5778  0.6816
  624MOL0     C82277  -3.114   3.037   8.464  0.3707 -0.0400 -0.4594
  624MOL0     C82278  -3.122   3.016   8.313  0.2119  0.8029 -0.0459
  624MOL0     C82279  -3.243   2.921   8.276 -0.3086  0.1952  0.5837
  624MOL0    Cl82280  -3.400   2.988   8.305  0.3205  0.8407 -0.3061
  624MOL0     C82281  -2.457   3.401   8.947  0.2641  0.4766  1.1097
  624MOL0     C82282  -2.346   3.464   8.995 -0.0060  0.0550  0.1322
  624MOL0     O82283  -2.098   3.344   9.266  0.1983  0.5434  1.4836
  624MOL0     C82284  -2.018   3.686   9.311 -0.2494  0.4964  0.7932
  624MOL0     C82285  -1.942   3.763   9.396 -0.1954 -0.9813  0.4168
  624MOL0     N82286  -1.256   3.680   9.857  0.5836  0.3220  0.4018
  624MOL0     N82287  -1.145   3.684   9.920  0.3928  0.6074  0.5762
  624MOL0     C82288   0.135   3.417   9.940  0.2245 -0.8980 -0.2228
  624MOL0     C82289   0.266   3.447   9.961 -0.4890  0.0384 -0.4356
  624MOL0     C82290   0.650   3.678   9.847 -0.1858 -0.3646 -0.8943
  624MOL0     C82291   0.706   3.737   9.728 -0.1350  0.7770 -0.1114
  624MOL0     C82292   0.835   3.788   9.738 -0.5892  0.8432 -0.3767
  624MOL0     C82293   0.920   3.789   9.853  0.6125  0.8606  0.8799
  624MOL0     O82294   1.051   3.831   9.836 -0.4717 -0.1980  0.1330
  624MOL0     C82295   1.125   3.880   9.945  1.0118 -0.4691 -0.5805
  624MOL0     C82296   1.262   3.921   9.911 -0.4641 -0.1634 -0.1465
  624MOL0     C82297   1.350   3.940  10.028  0.0957 -0.1684  0.1077
  624MOL0     C82298   1.488   3.993   9.992 -0.5695 -0.6283  0.4501
  624MOL0     C82299   1.572   4.027  10.110 -0.3981 -0.2643  1.0052
  624MOL0     C82300   1.647   4.039  10.202  0.1073  0.4209 -0.2406
  624MOL0     C82301   0.859   3.740   9.974  0.5866  0.4909 -0.5814
  624MOL0     C82302   0.730   3.675   9.970 -0.1305  0.4421  1.2222
  624MOL0     H82303   0.261   3.779   9.890 -1.0810 -1.1364 -1.7025
  624MOL0     H82304   0.017   3.735   9.902 -0.2764  0.1625 -1.7639
  624MOL0     H82305  -0.148   3.577   9.755 -0.7414  0.8087  0.1745
  624MOL0     H82306  -0.200   3.652   9.900  0.0431 -1.0168  0.7834
  624MOL0     H82307  -0.294   3.385   9.817  0.7001  0.5186 -1.6458
  624MOL0     H82308  -0.378   3.525   9.765 -0.0821 -2.7316 -2.5610
  624MOL0     H82309  -0.408   3.593  10.019  4.5293  0.6303  1.0184
  624MOL0     H82310  -0.339   3.432  10.059 -0.1412 -0.7152 -0.1171
  624MOL0     H82311  -0.522   3.328   9.901  0.3815 -1.9862  1.8476
  624MOL0     H82312  -0.542   3.375  10.065  3.2941 -1.1614 -0.0228
  624MOL0     H82313  -0.635   3.565   9.840  0.0920  0.4331  0.5323
  624MOL0     H82314  -0.668   3.567  10.020  0.3367 -1.6535  1.4074
  624MOL0     H82315  -0.821   3.394  10.000 -2.9846  0.7033 -2.1806
  624MOL0     H82316  -0.739   3.325   9.854 -0.9891 -0.0202 -2.5597
  624MOL0     H82317  -0.862   3.462   9.709  1.9547  5.5638 -0.6171
  624MOL0     H82318  -0.978   3.418   9.840 -1.9009  0.8182 -2.2434
  624MOL0     H82319  -0.848   3.692   9.794  3.0793 -1.4367  1.5045
  624MOL0     H82320  -0.887   3.650   9.946 -0.5429  3.3399 -0.9205
  624MOL0     H82321  -1.052   3.698   9.602 -0.8245  1.1221  0.2399
  624MOL0     H82322  -1.344   3.646   9.543  0.5837  2.5311 -2.8871
  624MOL0     H82323  -1.304   3.806   9.568  1.2826 -1.4539 -1.7648
  624MOL0     H82324  -1.456   3.865   9.731 -0.2104 -0.3592  2.0938
  624MOL0     H82325  -1.488   3.705   9.794 -0.3924  0.2225  0.9537
  624MOL0     H82326  -1.582   3.806   9.527 -1.1630  1.8822  0.4670
  624MOL0     H82327  -1.586   3.639   9.584 -3.0641  1.5586 -1.2609
  624MOL0     H82328  -1.711   3.849   9.758  1.0070 -0.0331  0.1453
  624MOL0     H82329  -1.753   3.688   9.749  1.8749  1.2323  2.8739
  624MOL0     H82330  -1.908   3.558   9.664 -1.2483  0.3303  0.0421
  624MOL0     H82331  -2.039   3.414   9.518  2.7892  0.1758  2.6440
  624MOL0     H82332  -2.356   3.372   9.312 -1.8633 -2.6848  0.8965
  624MOL0     H82333  -2.580   3.279   9.241 -0.2572 -1.8743 -0.9589
  624MOL0     H82334  -2.587   3.169   8.834 -0.9271 -0.6379  1.5249
  624MOL0     H82335  -2.676   3.327   8.803 -0.0265 -0.1570 -1.1934
  624MOL0     H82336  -2.873   3.193   8.904  1.0619 -0.1938  0.7412
  624MOL0     H82337  -2.781   3.047   8.857  3.5282  0.0739 -0.0538
  624MOL0     H82338  -2.753   3.142   8.620  0.5559 -1.2859  0.7295
  624MOL0     H82339  -2.845   3.290   8.664 -0.7716 -0.0310 -0.0431
  624MOL0     H82340  -2.929   2.992   8.637 -0.6621  0.4954 -1.4247
  624MOL0     H82341  -3.025   3.114   8.720  0.8834 -3.5316  1.7892
  624MOL0     H82342  -2.919   3.143   8.445  0.4447  4.0138  1.2873
  624MOL0     H82343  -3.051   3.240   8.487 -0.7337 -1.1387 -1.4655
  624MOL0     H82344  -3.214   3.065   8.497  0.3144  0.3504 -0.9465
  624MOL0     H82345  -3.087   2.942   8.510  1.7696  0.7256  0.3427
  624MOL0     H82346  -3.147   3.116   8.274  0.2499  0.2210 -1.6403
  624MOL0     H82347  -3.026   2.971   8.287 -1.1060 -0.8747 -2.3112
  624MOL0     H82348  -3.237   2.826   8.329 -0.2942  0.5277  1.1914
  624MOL0     H82349  -3.237   2.909   8.168  2.4715  2.5770  0.3579
  624MOL0     H82350  -2.472   3.406   8.839  0.6132 -0.1463  1.0288
  624MOL0     H82351  -2.277   3.516   8.929  0.7822  1.8163  2.1879
  624MOL0     H82352  -2.036   3.725   9.211  2.7184 -1.3822 -0.6325
  624MOL0     H82353  -1.901   3.856   9.360  4.2006 -3.1762 -0.9890
  624MOL0     H82354   0.103   3.314   9.957  0.4995 -1.4342 -2.6302
  624MOL0     H82355   0.350   3.381   9.981  0.6072  1.8927  1.4905
  624MOL0     H82356   0.659   3.736   9.630  1.9292 -0.6144 -1.1504
  624MOL0     H82357   0.880   3.838   9.654 -1.0612  0.2028 -1.0225
  624MOL0     H82358   1.117   3.820  10.036  2.3082 -1.6192 -1.1643
  624MOL0     H82359   1.068   3.968   9.975  1.1383 -0.9114  1.0667
  624MOL0     H82360   1.301   3.845   9.843  3.1545  0.7237  0.7036
  624MOL0     H82361   1.245   4.013   9.854 -1.1047  2.1388  3.4599
  624MOL0     H82362   1.357   3.847  10.086 -0.5641 -0.1279  0.2672
  624MOL0     H82363   1.297   4.019  10.081 -0.2516 -1.4365  1.7330
  624MOL0     H82364   1.552   3.919   9.943  2.4307  1.7675  0.4202
  624MOL0     H82365   1.485   4.076   9.921  0.4620 -1.8283 -1.0704
  624MOL0     H82366   1.703   4.064  10.290 -1.3477  4.9383 -0.3340
  624MOL0     H82367   0.912   3.728  10.068 -3.0708  0.5416  1.6761
  624MOL0     H82368   0.688   3.627  10.058  0.8746 -2.6615  0.1264
  625MOL0     O82369   8.107   6.354   6.121 -0.5567 -0.4667  0.5932
  625MOL0     C82370   8.114   6.390   6.236  0.6106  0.1252  0.9563
  625MOL0     O82371   8.008   6.417   6.314 -0.3612 -0.3573 -0.3240
  625MOL0     C82372   7.869   6.392   6.301 -0.5495 -0.0281  0.3444
  625MOL0     C82373   7.782   6.445   6.396  0.1851  0.8632 -0.0776
  625MOL0     C82374   7.639   6.429   6.379 -0.5723 -1.1891  0.7722
  625MOL0     C82375   7.584   6.367   6.266 -0.7309 -1.0622 -0.0411
  625MOL0     O82376   7.452   6.389   6.248  0.6688  0.3375  0.0404
  625MOL0     C82377   7.402   6.426   6.115  0.2350 -0.1344 -0.2922
  625MOL0     C82378   7.271   6.503   6.122 -0.6274 -0.5236  0.8777
  625MOL0     C82379   7.226   6.574   5.993 -0.4627  0.2925 -0.0560
  625MOL0     C82380   7.092   6.632   6.007  0.2287 -0.3302  0.4197
  625MOL0     C82381   7.054   6.751   5.909 -0.3038  0.0043  1.0695
  625MOL0     C82382   6.955   6.854   5.962 -0.4273  0.0204  0.6669
  625MOL0     C82383   6.936   6.968   5.860 -0.0971  0.5689 -0.1728
  625MOL0     C82384   6.816   7.058   5.882 -0.1405  0.6083 -0.6390
  625MOL0     N82385   6.724   7.053   5.763  0.3060 -0.6334  0.2475
  625MOL0     C82386   6.646   6.948   5.729  0.8131  0.0418  0.3823
  625MOL0     C82387   6.575   6.985   5.621  0.3350  0.2260 -0.8911
  625MOL0     C82388   6.480   6.898   5.551  0.2218 -0.6234 -0.1201
  625MOL0     C82389   6.347   6.867   5.631 -0.2132 -0.6161 -0.1205
  625MOL0     C82390   6.305   6.721   5.621  0.0189  0.9462  0.4274
  625MOL0     C82391   6.384   6.631   5.714 -0.1993 -0.0745  0.2137
  625MOL0     O82392   6.527   6.631   5.709  0.3980  0.2490 -0.1627
  625MOL0     C82393   6.583   6.544   5.793  0.2869  0.9428 -0.3454
  625MOL0     C82394   6.525   6.462   5.887 -0.0320  0.9022 -0.5627
  625MOL0     C82395   6.601   6.365   5.965  0.1405 -0.4228 -0.2409
  625MOL0     C82396   6.737   6.354   5.946  0.2182  0.1323  0.2764
  625MOL0     C82397   6.822   6.260   6.031 -0.1482  0.6021 -0.0026
  625MOL0     O82398   6.950   6.256   5.996 -0.0330  0.4364 -0.0312
  625MOL0     C82399   7.034   6.200   6.090 -0.3183 -0.2088 -0.5537
  625MOL0     C82400   7.129   6.108   6.039  0.0475 -0.2490  0.2030
  625MOL0     C82401   7.229   6.050   6.126  0.4930 -0.5156  0.2527
  625MOL0     C82402   7.232   6.074   6.262  0.3984  0.4408 -0.3082
  625MOL0     O82403   7.331   6.016   6.345 -0.2834  0.4320 -0.6007
  625MOL0     C82404   7.459   5.999   6.291 -0.4944  0.7508  0.0118
  625MOL0     C82405   7.562   5.986   6.412 -1.1601  0.0742  0.1870
  625MOL0     C82406   7.710   5.985   6.357 -0.1592  0.7007  0.2429
  625MOL0     C82407   7.813   5.920   6.442 -0.5079 -0.8689 -0.0602
  625MOL0     C82408   7.963   5.942   6.396 -0.4859 -0.3112 -0.3386
  625MOL0     C82409   8.045   5.998   6.511  0.1414 -0.0489  0.2998
  625MOL0     C82410   8.188   6.005   6.459  0.0930  0.8746 -0.2912
  625MOL0     C82411   8.281   6.064   6.557  0.5513  0.6212 -0.4981
  625MOL0    Cl82412   8.448   6.067   6.501 -0.0123 -0.0278  0.1171
  625MOL0     C82413   7.138   6.165   6.316  0.3393  0.7584 -0.3476
  625MOL0     C82414   7.041   6.228   6.231  0.4337 -0.2128  0.1893
  625MOL0     O82415   6.771   6.198   6.117 -0.2643 -0.0092 -0.2495
  625MOL0     C82416   6.798   6.438   5.846 -0.1585  0.1134 -0.8902
  625MOL0     C82417   6.722   6.532   5.768  0.3504 -0.1118 -1.3171
  625MOL0     N82418   6.619   7.115   5.599  0.0116  0.2986 -0.5531
  625MOL0     N82419   6.712   7.159   5.678 -0.2628 -0.9826 -0.5110
  625MOL0     C82420   7.678   6.317   6.175  0.2174 -1.0497  0.3865
  625MOL0     C82421   7.815   6.333   6.191  0.6548 -0.6084 -0.7263
  625MOL0     C82422   8.251   6.420   6.286 -0.3986  0.2544  0.5959
  625MOL0     C82423   8.271   6.430   6.424  0.1935 -0.3431 -0.4420
  625MOL0     C82424   8.402   6.444   6.480  0.8733  0.1694 -0.2222
  625MOL0     C82425   8.517   6.458   6.394  1.1359  0.2357  0.5488
  625MOL0     O82426   8.639   6.468   6.444  0.0066  0.5128  0.1013
  625MOL0     C82427   8.758   6.463   6.362 -0.5175  0.5139 -0.1315
  625MOL0     C82428   8.800   6.606   6.341 -0.5287  0.2034  0.7420
  625MOL0     C82429   8.874   6.610   6.214  0.0277 -0.4256  0.3746
  625MOL0     C82430   8.915   6.755   6.182 -0.1251  0.4745  0.2328
  625MOL0     C82431   8.799   6.840   6.171  0.2261  0.4267 -0.2705
  625MOL0     C82432   8.699   6.911   6.158 -0.3011 -0.2934 -0.0720
  625MOL0     C82433   8.486   6.451   6.255  0.3488  0.2572 -1.6836
  625MOL0     C82434   8.358   6.435   6.203 -0.4341  0.8147 -0.0853
  625MOL0     H82435   7.837   6.480   6.483  1.8875  1.3217 -1.2893
  625MOL0     H82436   7.578   6.480   6.453  0.9969  0.3348  1.0848
  625MOL0     H82437   7.388   6.350   6.038  1.1925 -0.5527 -0.0749
  625MOL0     H82438   7.480   6.496   6.083  1.6771 -0.9297  1.3293
  625MOL0     H82439   7.276   6.574   6.205  3.5394  0.0634  0.3473
  625MOL0     H82440   7.205   6.421   6.151 -1.3812  1.1424  4.4040
  625MOL0     H82441   7.233   6.515   5.900 -0.6797  4.7734 -3.2174
  625MOL0     H82442   7.288   6.662   5.979  0.2488 -0.5499 -2.9374
  625MOL0     H82443   7.019   6.550   6.003  1.5548 -1.5278 -0.3078
  625MOL0     H82444   7.076   6.667   6.109  2.0649  0.1924  0.5535
  625MOL0     H82445   7.010   6.710   5.818  1.2408 -1.5887  1.0006
  625MOL0     H82446   7.148   6.797   5.879 -0.3292 -0.8829 -0.4328
  625MOL0     H82447   6.997   6.909   6.047 -0.3813 -1.2001  1.4531
  625MOL0     H82448   6.867   6.795   5.990 -1.3561  1.0187 -0.0800
  625MOL0     H82449   7.033   7.019   5.858 -0.6179  1.6552  0.8856
  625MOL0     H82450   6.921   6.923   5.762 -3.0941 -0.3342  0.5839
  625MOL0     H82451   6.837   7.162   5.908 -1.2538  0.3462  1.5917
  625MOL0     H82452   6.750   7.028   5.964  1.1119 -3.4489 -0.8619
  625MOL0     H82453   6.655   6.847   5.767 -1.7345 -1.5142 -2.6460
  625MOL0     H82454   6.532   6.804   5.528  0.6002 -0.6055  0.6014
  625MOL0     H82455   6.459   6.946   5.456  2.3167  0.9513  0.1362
  625MOL0     H82456   6.264   6.921   5.584 -0.7765  0.0587  1.5516
  625MOL0     H82457   6.366   6.910   5.730 -0.3141  3.3558 -1.6413
  625MOL0     H82458   6.201   6.707   5.651  0.0371  0.3208  0.2062
  625MOL0     H82459   6.309   6.691   5.516  0.7234 -0.7207  0.8968
  625MOL0     H82460   6.356   6.527   5.695 -0.4091  0.0336 -0.0816
  625MOL0     H82461   6.352   6.648   5.817  0.2311  1.3914  0.1230
  625MOL0     H82462   6.421   6.460   5.916  0.3619  0.0041  0.9387
  625MOL0     H82463   6.548   6.305   6.038 -1.5494 -0.0600 -1.1322
  625MOL0     H82464   7.136   6.094   5.932 -2.8693 -0.4289 -0.0483
  625MOL0     H82465   7.304   5.987   6.079  0.0303 -0.5281 -0.4865
  625MOL0     H82466   7.492   6.077   6.222  0.5516 -0.5944 -1.0818
  625MOL0     H82467   7.463   5.906   6.234 -0.8261 -0.7004  2.2107
  625MOL0     H82468   7.538   5.887   6.451 -0.7591 -0.4678 -0.8927
  625MOL0     H82469   7.549   6.062   6.490 -1.2627 -0.6130  0.8482
  625MOL0     H82470   7.732   6.090   6.336 -1.9119  0.8046 -1.3104
  625MOL0     H82471   7.708   5.942   6.256 -2.8647 -0.0168  0.5254
  625MOL0     H82472   7.794   5.972   6.536 -0.0901  1.3999 -1.1462
  625MOL0     H82473   7.798   5.812   6.453 -0.0237 -0.8335  1.0749
  625MOL0     H82474   7.964   6.015   6.314  1.1832 -1.1885 -1.1513
  625MOL0     H82475   8.006   5.853   6.348 -0.1761  0.6255 -1.8787
  625MOL0     H82476   8.035   5.934   6.599  0.8532  0.6624  0.9124
  625MOL0     H82477   8.011   6.099   6.536  1.4452  0.3139  0.6984
  625MOL0     H82478   8.219   5.900   6.452  0.3269  0.9402 -0.2574
  625MOL0     H82479   8.198   6.057   6.363  0.2290 -1.8837 -1.9086
  625MOL0     H82480   8.274   6.008   6.651 -0.3637  0.0527 -0.8888
  625MOL0     H82481   8.249   6.166   6.582  0.7188  0.5890 -0.1497
  625MOL0     H82482   7.149   6.179   6.423  1.7480  0.9517 -0.4974
  625MOL0     H82483   6.961   6.284   6.280 -1.8689  0.2376 -3.6793
  625MOL0     H82484   6.906   6.434   5.844 -0.1773 -0.3696 -1.1415
  625MOL0     H82485   6.780   6.590   5.697  1.6845 -2.1888 -2.0406
  625MOL0     H82486   7.652   6.265   6.084  0.8725 -3.0610  1.3049
  625MOL0     H82487   7.878   6.287   6.116  0.7220  1.2074 -1.8306
  625MOL0     H82488   8.187   6.423   6.493 -1.1085 -2.0364 -2.0786
  625MOL0     H82489   8.416   6.464   6.586 -0.0329 -1.0493  0.1410
  625MOL0     H82490   8.742   6.421   6.262  5.0755 -4.2717  0.4734
  625MOL0     H82491   8.846   6.408   6.396  0.2315  0.2847 -2.2847
  625MOL0     H82492   8.714   6.674   6.335 -0.9880 -0.0138  3.6343
  625MOL0     H82493   8.851   6.647   6.428 -1.1368 -0.9344  1.6586
  625MOL0     H82494   8.826   6.579   6.122  0.6947  1.4755 -0.6804
  625MOL0     H82495   8.966   6.551   6.223  0.0966 -0.2207  1.1184
  625MOL0     H82496   8.979   6.796   6.259 -1.8138  1.8285  0.9836
  625MOL0     H82497   8.970   6.759   6.088 -0.6995  1.2453 -0.0814
  625MOL0     H82498   8.635   6.996   6.160 -1.2114 -0.9530  2.4191
  625MOL0     H82499   8.563   6.447   6.178  1.2526  1.1095 -0.8591
  625MOL0     H82500   8.352   6.429   6.095  1.4600  2.4352 -0.3421
  626MOL0     O82501   7.386   6.258   0.783 -0.0368  0.2173  0.2184
  626MOL0     C82502   7.479   6.249   0.860 -0.8170  0.0408 -0.3210
  626MOL0     O82503   7.479   6.186   0.977 -0.9479 -0.3155 -0.0530
  626MOL0     C82504   7.348   6.142   1.015  0.8651  0.1275  0.2735
  626MOL0     C82505   7.322   6.006   1.033 -0.4048 -0.3396 -0.3541
  626MOL0     C82506   7.203   5.949   1.072  0.3756  0.9103 -0.1232
  626MOL0     C82507   7.088   6.029   1.089 -0.2958 -0.3143 -0.2516
  626MOL0     O82508   6.966   5.971   1.131 -0.2162 -0.2657  0.1376
  626MOL0     C82509   6.885   6.045   1.222 -0.2066  0.3305 -0.3007
  626MOL0     C82510   6.775   5.949   1.287 -0.2380  0.9721 -0.7206
  626MOL0     C82511   6.657   6.016   1.350  0.4856 -0.3289  0.4419
  626MOL0     C82512   6.562   5.913   1.396 -0.3260  0.2754 -0.1244
  626MOL0     C82513   6.438   5.965   1.473 -0.3458 -0.1062 -0.5678
  626MOL0     C82514   6.332   5.852   1.479 -0.3202 -0.3152 -0.2596
  626MOL0     C82515   6.217   5.913   1.554 -0.1853  0.3343  0.0375
  626MOL0     C82516   6.137   6.025   1.478 -0.3133  0.9543 -0.1530
  626MOL0     N82517   6.014   6.055   1.559  0.2880 -0.2076  0.6070
  626MOL0     C82518   5.989   6.030   1.688  0.1208  1.2211  0.0819
  626MOL0     C82519   5.875   6.089   1.711 -0.3006  0.1204 -0.1408
  626MOL0     C82520   5.818   6.103   1.851 -0.0061  0.2518 -0.1483
  626MOL0     C82521   5.702   6.203   1.882  0.0103  0.4295  0.2376
  626MOL0     C82522   5.568   6.180   1.829  0.0614  0.1147  0.1856
  626MOL0     C82523   5.501   6.058   1.882 -0.8269  0.0039  0.2357
  626MOL0     O82524   5.450   6.082   2.018  0.5273  0.0726  0.4149
  626MOL0     C82525   5.320   6.079   2.052 -0.0853  0.3716  0.3245
  626MOL0     C82526   5.231   5.976   2.012 -0.0545 -1.1764  0.9976
  626MOL0     C82527   5.099   5.993   2.044 -0.3418  0.1780  0.3739
  626MOL0     C82528   5.058   6.095   2.134 -0.0278  0.5238 -0.4236
  626MOL0     C82529   4.913   6.106   2.171  0.5425 -0.5570  0.5764
  626MOL0     O82530   4.812   6.043   2.091 -1.0618 -0.3049  0.2918
  626MOL0     C82531   4.688   6.054   2.143 -0.2509  0.7217 -0.5613
  626MOL0     C82532   4.622   5.929   2.161 -0.2725 -0.2755  0.0762
  626MOL0     C82533   4.489   5.913   2.203  0.1474 -1.2669 -0.4205
  626MOL0     C82534   4.417   6.036   2.226 -0.7238  0.7962 -0.9227
  626MOL0     O82535   4.282   6.045   2.257  0.2801  0.2306  0.0654
  626MOL0     C82536   4.218   5.934   2.328  0.9488  0.6019 -0.3192
  626MOL0     C82537   4.079   5.960   2.395 -0.2263 -1.0129  0.2132
  626MOL0     C82538   3.994   6.044   2.298 -0.7415  0.6496  0.4997
  626MOL0     C82539   3.851   6.058   2.339 -0.2496  0.1948 -0.0509
  626MOL0     C82540   3.758   6.160   2.270 -1.6446 -0.4996 -0.4077
  626MOL0     C82541   3.611   6.155   2.313 -0.1228 -0.1534  0.4260
  626MOL0     C82542   3.524   6.219   2.203 -0.4489  0.7110 -0.7024
  626MOL0     C82543   3.384   6.226   2.240  0.0635 -0.9455 -0.2256
  626MOL0    Cl82544   3.328   6.385   2.233 -0.0386  0.0420  0.1549
  626MOL0     C82545   4.483   6.163   2.214  0.2287 -0.3814 -0.1918
  626MOL0     C82546   4.610   6.169   2.169 -0.5026  0.0414 -0.4662
  626MOL0     O82547   4.893   6.175   2.270 -0.4077  0.1810 -0.1352
  626MOL0     C82548   5.152   6.191   2.189 -0.0380  0.4958  0.4326
  626MOL0     C82549   5.284   6.173   2.156 -0.5158 -0.3392 -0.0315
  626MOL0     N82550   5.825   6.147   1.594  0.3158  0.0828 -0.0093
  626MOL0     N82551   5.913   6.130   1.503 -0.6242  0.2413  0.4910
  626MOL0     C82552   7.110   6.169   1.069  0.3013  0.4411 -0.0367
  626MOL0     C82553   7.234   6.222   1.050 -0.7534 -0.8261 -0.5400
  626MOL0     C82554   7.603   6.316   0.830  0.3910  0.3261 -0.3358
  626MOL0     C82555   7.724   6.255   0.877  0.0288  0.1177  0.8962
  626MOL0     C82556   7.844   6.314   0.838  0.4625  0.0354  0.3395
  626MOL0     C82557   7.860   6.436   0.779 -0.3611 -0.2187  1.0729
  626MOL0     O82558   7.987   6.475   0.744  0.0799 -0.1940 -0.0755
  626MOL0     C82559   8.009   6.615   0.732  0.5296 -0.3243  0.4456
  626MOL0     C82560   8.151   6.627   0.720 -0.3101  0.2386 -0.4923
  626MOL0     C82561   8.225   6.587   0.850  0.5940  0.1010 -0.3975
  626MOL0     C82562   8.372   6.558   0.818 -0.9599 -0.5161 -0.2048
  626MOL0     C82563   8.448   6.673   0.768  0.2693 -0.6251  0.5116
  626MOL0     C82564   8.503   6.764   0.712 -0.0707 -0.8596  0.5277
  626MOL0     C82565   7.740   6.505   0.749 -0.7098  0.0617 -0.0153
  626MOL0     C82566   7.615   6.438   0.757  0.5922  0.2669 -1.1448
  626MOL0     H82567   7.415   5.951   1.026 -0.2963 -0.3501  0.9516
  626MOL0     H82568   7.189   5.841   1.068  0.4484  0.8855  0.2083
  626MOL0     H82569   6.833   6.121   1.163 -0.0537  0.8635  0.2490
  626MOL0     H82570   6.942   6.086   1.305 -0.5838 -0.2825  0.2752
  626MOL0     H82571   6.820   5.886   1.364  0.8820  0.4161 -1.7888
  626MOL0     H82572   6.732   5.877   1.217  1.4442  0.8287 -1.6681
  626MOL0     H82573   6.606   6.078   1.276  1.0789  1.0057  1.1114
  626MOL0     H82574   6.695   6.075   1.434  1.0565  1.0411 -0.7186
  626MOL0     H82575   6.526   5.854   1.311 -0.4872  2.9186 -2.0335
  626MOL0     H82576   6.617   5.855   1.470 -0.8388  0.3203  0.2916
  626MOL0     H82577   6.407   6.053   1.416  1.8786  0.5806 -0.8167
  626MOL0     H82578   6.461   5.998   1.575  1.7031 -2.3181 -0.2191
  626MOL0     H82579   6.365   5.761   1.529  0.2509 -0.7529 -1.3997
  626MOL0     H82580   6.296   5.812   1.383  1.6932 -2.6376 -0.1248
  626MOL0     H82581   6.145   5.834   1.581 -0.8651  0.7809 -0.4225
  626MOL0     H82582   6.248   5.960   1.648  1.1045 -3.4089  1.7109
  626MOL0     H82583   6.099   5.994   1.380  1.1517  0.1418 -0.4947
  626MOL0     H82584   6.202   6.110   1.455  1.6274 -0.6806 -1.0299
  626MOL0     H82585   6.044   5.974   1.764  0.7881 -0.6650 -1.6733
  626MOL0     H82586   5.899   6.147   1.910  1.8451 -0.7427 -1.8240
  626MOL0     H82587   5.807   5.999   1.883 -2.8072 -0.4465 -2.8552
  626MOL0     H82588   5.733   6.303   1.851  1.1875 -0.4306 -1.5778
  626MOL0     H82589   5.686   6.198   1.990 -1.2303 -3.9496  0.0598
  626MOL0     H82590   5.512   6.266   1.868  3.4829  2.1492  1.0183
  626MOL0     H82591   5.559   6.171   1.720 -0.1484  0.1773  0.1964
  626MOL0     H82592   5.575   5.977   1.889 -0.1138  0.7255  1.4326
  626MOL0     H82593   5.424   6.024   1.811 -0.7540  2.3370 -1.0458
  626MOL0     H82594   5.265   5.902   1.940  2.7230  3.7288 -3.5153
  626MOL0     H82595   5.020   5.924   2.016 -1.1108  0.8690  0.7965
  626MOL0     H82596   4.678   5.837   2.150 -2.8523 -1.8690 -0.7242
  626MOL0     H82597   4.440   5.817   2.213  0.0287 -1.5317 -2.9084
  626MOL0     H82598   4.278   5.896   2.412  1.5865  3.2679  0.5438
  626MOL0     H82599   4.201   5.864   2.247 -0.2635  2.1568 -1.4865
  626MOL0     H82600   4.095   6.012   2.490 -2.8435 -0.5531  0.4711
  626MOL0     H82601   4.033   5.863   2.410 -2.4416  0.1592  1.4312
  626MOL0     H82602   3.995   5.994   2.201 -1.2058  0.9578  0.3319
  626MOL0     H82603   4.029   6.146   2.283 -0.1748  0.2009 -1.4579
  626MOL0     H82604   3.802   5.963   2.318 -3.4337  1.9923 -1.4359
  626MOL0     H82605   3.835   6.076   2.446 -2.9473  0.8224 -0.4888
  626MOL0     H82606   3.760   6.157   2.161 -3.9622  1.0804 -0.5573
  626MOL0     H82607   3.810   6.254   2.294 -1.0877 -0.7308 -0.6788
  626MOL0     H82608   3.588   6.219   2.399 -1.1377  1.6462 -1.1080
  626MOL0     H82609   3.565   6.057   2.332  2.6296 -1.6468 -0.1464
  626MOL0     H82610   3.569   6.317   2.181  2.2534 -0.0414  1.0256
  626MOL0     H82611   3.539   6.180   2.102 -1.7185  0.1577 -0.6970
  626MOL0     H82612   3.373   6.175   2.336 -0.3487 -3.7681 -1.6550
  626MOL0     H82613   3.329   6.163   2.169  0.6645 -1.7082 -0.0318
  626MOL0     H82614   4.430   6.253   2.244 -2.3198 -2.4406  2.0584
  626MOL0     H82615   4.658   6.267   2.161  0.8940 -0.5253  0.4583
  626MOL0     H82616   5.125   6.250   2.276  0.3640 -0.4504  1.2148
  626MOL0     H82617   5.355   6.250   2.185 -3.5117  1.9559  1.7845
  626MOL0     H82618   7.026   6.238   1.072 -2.3021 -2.4051 -1.5203
  626MOL0     H82619   7.240   6.331   1.055 -2.2560 -0.7922  1.2261
  626MOL0     H82620   7.723   6.158   0.927 -1.8322 -0.3977 -0.0415
  626MOL0     H82621   7.932   6.257   0.865 -0.7547 -1.1045  2.1615
  626MOL0     H82622   7.962   6.674   0.811  0.8946 -1.1754  1.3289
  626MOL0     H82623   7.963   6.644   0.637 -2.4084 -3.6699  0.6115
  626MOL0     H82624   8.185   6.570   0.634  1.4958 -0.2867  0.5148
  626MOL0     H82625   8.170   6.731   0.691  0.9615 -0.2406 -1.4739
  626MOL0     H82626   8.191   6.495   0.897  1.0482 -0.1897 -0.6316
  626MOL0     H82627   8.220   6.663   0.929 -0.2101  1.2589 -1.5029
  626MOL0     H82628   8.420   6.514   0.906 -0.8902  2.0023  1.0987
  626MOL0     H82629   8.380   6.475   0.747 -3.4256  0.0584 -1.2632
  626MOL0     H82630   8.546   6.833   0.642 -2.0378 -0.9449 -0.8848
  626MOL0     H82631   7.746   6.603   0.704 -1.4122 -1.1194 -2.8829
  626MOL0     H82632   7.521   6.478   0.720  1.1387  1.2286 -1.5168
  627MOL0     O82633  10.542   0.083   3.954 -0.1447  1.0217 -0.5013
  627MOL0     C82634  10.566  -0.020   3.895  0.0392  0.5178  0.5737
  627MOL0     O82635  10.472  -0.104   3.855  0.7195  0.0665 -0.6530
  627MOL0     C82636  10.338  -0.111   3.895  0.2794  0.2472  0.2131
  627MOL0     C82637  10.265  -0.216   3.838  1.0210 -0.4728 -0.1817
  627MOL0     C82638  10.128  -0.235   3.878  0.9477  0.5715 -0.3871
  627MOL0     C82639  10.061  -0.150   3.971  0.5829 -0.6678 -0.3807
  627MOL0     O82640   9.923  -0.161   3.980  0.2960  0.7488 -0.0820
  627MOL0     C82641   9.851  -0.075   4.073  0.5433  0.4673  0.3735
  627MOL0     C82642   9.714  -0.160   4.075 -0.2502  0.3138 -0.0488
  627MOL0     C82643   9.716  -0.280   4.168 -1.0332  0.1817 -0.9140
  627MOL0     C82644   9.578  -0.350   4.182 -0.3370  0.8981 -0.1424
  627MOL0     C82645   9.490  -0.247   4.256  0.1571  0.0456  0.2605
  627MOL0     C82646   9.349  -0.292   4.234 -0.1252 -0.9583  0.1283
  627MOL0     C82647   9.246  -0.186   4.301 -0.2545  0.8441  0.2296
  627MOL0     C82648   9.112  -0.273   4.330 -1.1466 -1.0525  0.6819
  627MOL0     N82649   9.020  -0.207   4.417  0.8002 -0.6157 -0.1540
  627MOL0     C82650   9.010  -0.203   4.557  0.3992 -0.1680 -0.6024
  627MOL0     C82651   8.885  -0.158   4.584  0.3183 -0.2971 -0.3182
  627MOL0     C82652   8.845  -0.132   4.726  0.0706  0.7278 -0.5030
  627MOL0     C82653   8.698  -0.107   4.724  0.0530 -0.6983 -1.0772
  627MOL0     C82654   8.630  -0.076   4.863 -0.2740 -0.3339 -0.6619
  627MOL0     C82655   8.481  -0.073   4.845  0.2333  0.2805 -0.8778
  627MOL0     O82656   8.429  -0.076   4.982 -0.1634  0.2558 -1.0379
  627MOL0     C82657   8.297  -0.072   5.004  0.2603  0.3537 -0.6646
  627MOL0     C82658   8.203  -0.132   4.914 -0.2981 -0.5269 -0.0478
  627MOL0     C82659   8.075  -0.106   4.934 -0.0807 -1.0665  0.7541
  627MOL0     C82660   8.026  -0.034   5.038 -0.5367 -0.6213 -0.1344
  627MOL0     C82661   7.879  -0.024   5.066 -0.9222 -0.0083  0.3350
  627MOL0     O82662   7.838   0.084   5.136  0.2378  0.9032  0.3790
  627MOL0     C82663   7.702   0.099   5.152 -0.4255  0.0861 -0.4454
  627MOL0     C82664   7.615   0.018   5.223 -0.1364 -0.0137  0.0581
  627MOL0     C82665   7.479   0.031   5.219 -0.0033 -0.2671 -0.4343
  627MOL0     C82666   7.428   0.134   5.142  0.2882  1.2886  0.0946
  627MOL0     O82667   7.297   0.129   5.136 -0.1590  0.9715  0.5127
  627MOL0     C82668   7.238   0.211   5.034  0.1885 -0.0233  1.0229
  627MOL0     C82669   7.095   0.168   5.013 -0.0103  0.3607  0.6500
  627MOL0     C82670   7.101   0.044   4.929  0.2381  0.2779  0.3357
  627MOL0     C82671   6.965  -0.020   4.907 -0.2051 -0.0216  0.2593
  627MOL0     C82672   6.960  -0.156   4.822  0.2939  0.1353 -0.5205
  627MOL0     C82673   6.846  -0.142   4.723  0.1108 -0.0872  0.5060
  627MOL0     C82674   6.722  -0.158   4.798 -0.0369  0.4643 -0.0728
  627MOL0     C82675   6.599  -0.114   4.723 -0.9474  0.1096 -0.7464
  627MOL0    Cl82676   6.568  -0.198   4.564 -0.1758  0.5425  0.3681
  627MOL0     C82677   7.506   0.235   5.089 -0.2441  0.1367 -0.0038
  627MOL0     C82678   7.648   0.213   5.098  0.2572  0.0284  0.8116
  627MOL0     O82679   7.802  -0.111   5.031  1.3752  0.4516 -0.1858
  627MOL0     C82680   8.112   0.019   5.138  0.1956  0.1427 -0.3717
  627MOL0     C82681   8.247  -0.003   5.116  0.0459 -0.2464  0.2923
  627MOL0     N82682   8.832  -0.117   4.460 -0.1467  0.6202  0.2713
  627MOL0     N82683   8.908  -0.148   4.363  0.1424 -1.1369  0.5076
  627MOL0     C82684  10.136  -0.047   4.024  0.0105 -0.0487 -0.2777
  627MOL0     C82685  10.273  -0.023   3.987 -0.0298 -0.4078  0.2980
  627MOL0     C82686  10.708  -0.053   3.864 -0.8656 -0.8393 -0.3270
  627MOL0     C82687  10.811   0.029   3.926 -0.1530  0.2401  0.3914
  627MOL0     C82688  10.942  -0.003   3.884  0.8950  0.4074 -0.9809
  627MOL0     C82689  10.966  -0.106   3.794 -1.2462  0.0182 -0.3247
  627MOL0     O82690  11.094  -0.142   3.747  0.5046 -0.2438  0.0759
  627MOL0     C82691  11.215  -0.084   3.802  0.0599  1.4092  0.1900
  627MOL0     C82692  11.252   0.061   3.761  0.5717  0.0473 -1.0305
  627MOL0     C82693  11.221   0.100   3.613 -0.1239  0.5780 -1.1725
  627MOL0     C82694  11.085   0.173   3.609 -0.5209  0.5106  0.1654
  627MOL0     C82695  11.080   0.275   3.503 -0.5810 -0.9819  0.1453
  627MOL0     C82696  11.068   0.365   3.419  0.7962  1.0906  0.1425
  627MOL0     C82697  10.866  -0.179   3.738  0.2226 -0.8834  0.6194
  627MOL0     C82698  10.734  -0.158   3.772 -0.8597 -0.5435  0.2263
  627MOL0     H82699  10.297  -0.284   3.760  2.3696 -1.8025  1.4515
  627MOL0     H82700  10.076  -0.320   3.835  1.6147  0.2713 -0.6050
  627MOL0     H82701   9.833   0.028   4.043 -2.5589  0.2683  1.2489
  627MOL0     H82702   9.900  -0.067   4.170  0.6931  0.9061  0.2641
  627MOL0     H82703   9.683  -0.193   3.975  0.1881  0.2091 -0.1514
  627MOL0     H82704   9.646  -0.089   4.123 -0.6960 -1.3647  1.9579
  627MOL0     H82705   9.751  -0.250   4.267  2.0107 -2.9290 -0.8255
  627MOL0     H82706   9.778  -0.360   4.126 -4.3195 -3.2022  0.1373
  627MOL0     H82707   9.533  -0.371   4.084  0.3899 -0.5111 -0.2016
  627MOL0     H82708   9.595  -0.435   4.249  2.4513  0.6283 -1.0536
  627MOL0     H82709   9.490  -0.143   4.222  0.8725 -0.1212 -0.2665
  627MOL0     H82710   9.511  -0.246   4.363  1.3510 -1.5078  0.0803
  627MOL0     H82711   9.331  -0.386   4.288  0.8538 -0.2380  1.8081
  627MOL0     H82712   9.322  -0.318   4.132  0.8892  0.4445 -0.5272
  627MOL0     H82713   9.291  -0.148   4.393 -1.2597 -1.7270  1.8739
  627MOL0     H82714   9.224  -0.106   4.229  0.0198  0.0615 -0.7401
  627MOL0     H82715   9.134  -0.371   4.373 -0.8310  0.5492  4.5504
  627MOL0     H82716   9.079  -0.295   4.228  1.3453 -2.7142  0.1451
  627MOL0     H82717   9.087  -0.241   4.624 -0.5205  1.2024  1.3384
  627MOL0     H82718   8.899  -0.048   4.771  2.2584  0.1648 -1.9276
  627MOL0     H82719   8.874  -0.220   4.783 -0.2572 -0.3156 -1.8941
  627MOL0     H82720   8.652  -0.196   4.679  1.4990 -1.6231 -0.8094
  627MOL0     H82721   8.691  -0.022   4.656  2.8639  0.6001  0.1027
  627MOL0     H82722   8.656  -0.151   4.939 -3.7529 -0.7471  0.2852
  627MOL0     H82723   8.645   0.028   4.894  0.4920 -0.6706  0.1276
  627MOL0     H82724   8.455  -0.159   4.782 -0.1489 -0.5279  0.3386
  627MOL0     H82725   8.442   0.013   4.791  1.5765  1.6645  0.2722
  627MOL0     H82726   8.234  -0.198   4.834 -0.6690 -1.3540  0.4818
  627MOL0     H82727   8.003  -0.153   4.868  1.4407 -1.8350 -0.4187
  627MOL0     H82728   7.653  -0.073   5.269  1.1765  1.2461  1.5799
  627MOL0     H82729   7.413  -0.048   5.254  3.6574 -2.3443  2.5843
  627MOL0     H82730   7.287   0.215   4.936  2.6502  1.9390  2.2127
  627MOL0     H82731   7.233   0.314   5.070  2.3913  0.3758  0.3519
  627MOL0     H82732   7.035   0.249   4.971 -0.8459  1.0913  3.1041
  627MOL0     H82733   7.059   0.150   5.115 -0.0656  0.9281  0.7306
  627MOL0     H82734   7.173  -0.027   4.971 -0.8515 -0.1706  1.4650
  627MOL0     H82735   7.143   0.060   4.829  0.5779 -3.8209 -0.3515
  627MOL0     H82736   6.923  -0.047   5.004  0.4019 -3.7129 -0.3678
  627MOL0     H82737   6.915   0.058   4.849  0.0268 -1.6318 -2.2324
  627MOL0     H82738   6.947  -0.247   4.881 -2.0788  0.2435 -0.7955
  627MOL0     H82739   7.050  -0.170   4.763  0.7893  1.1957 -0.0569
  627MOL0     H82740   6.852  -0.210   4.638  3.0979  1.5779 -0.7753
  627MOL0     H82741   6.845  -0.044   4.675  0.8292  0.2127  1.0642
  627MOL0     H82742   6.711  -0.264   4.821  2.6070  0.6251  2.5437
  627MOL0     H82743   6.725  -0.105   4.894  0.5732 -1.0543  0.7750
  627MOL0     H82744   6.603  -0.007   4.697  4.0867  0.5042  0.4627
  627MOL0     H82745   6.516  -0.137   4.790 -0.8809  0.3865 -0.5670
  627MOL0     H82746   7.451   0.321   5.054 -1.6813 -1.2919 -1.4147
  627MOL0     H82747   7.712   0.288   5.053 -0.5467  0.1924 -0.0900
  627MOL0     H82748   8.084   0.058   5.235 -0.3768 -1.9408  0.3477
  627MOL0     H82749   8.316   0.039   5.188 -0.1951  0.6751 -0.0025
  627MOL0     H82750  10.075   0.021   4.082  1.5305 -0.7839  2.3255
  627MOL0     H82751  10.328   0.057   4.036  0.1379 -0.2056 -0.2111
  627MOL0     H82752  10.787   0.114   3.988 -1.2526  1.3857 -1.4831
  627MOL0     H82753  11.029   0.047   3.927 -0.0258 -0.1128  1.6249
  627MOL0     H82754  11.304  -0.146   3.789 -1.0880 -0.3872  0.6076
  627MOL0     H82755  11.202  -0.089   3.910  1.9889  0.9150  0.4375
  627MOL0     H82756  11.200   0.129   3.830  1.1188 -1.7493  1.2826
  627MOL0     H82757  11.359   0.074   3.780  0.4467 -1.3335  0.9333
  627MOL0     H82758  11.210   0.015   3.544  0.0482 -0.5821  0.1677
  627MOL0     H82759  11.306   0.164   3.587  1.3295 -0.1914  1.2580
  627MOL0     H82760  11.005   0.099   3.595  0.3897 -0.3684 -0.4864
  627MOL0     H82761  11.066   0.229   3.702  1.9792  1.4113  0.1944
  627MOL0     H82762  11.061   0.427   3.332  0.5048 -0.8203 -1.2633
  627MOL0     H82763  10.895  -0.252   3.664 -0.5661  0.7865 -1.4440
  627MOL0     H82764  10.660  -0.213   3.715 -1.5469  1.6896 -1.1579
  628MOL0     O82765   8.127   8.912   4.270  0.3442  0.3837 -0.2753
  628MOL0     C82766   8.158   9.030   4.263  0.1628  0.0036 -0.0287
  628MOL0     O82767   8.277   9.075   4.305  0.0549  0.0714 -0.4219
  628MOL0     C82768   8.379   8.987   4.332 -1.2175  0.7493  0.5535
  628MOL0     C82769   8.475   9.019   4.431  0.3555  0.0585  0.1203
  628MOL0     C82770   8.584   8.946   4.457 -0.8470 -0.1687  0.4819
  628MOL0     C82771   8.606   8.818   4.401  0.5796  0.1559 -0.0353
  628MOL0     O82772   8.716   8.745   4.439 -0.7168 -0.6473 -0.0227
  628MOL0     C82773   8.775   8.658   4.337  0.9474 -0.3776 -0.8967
  628MOL0     C82774   8.915   8.625   4.366  0.0314  0.2270 -0.2015
  628MOL0     C82775   8.991   8.527   4.255  0.6648 -0.2923 -0.9714
  628MOL0     C82776   9.144   8.526   4.283  0.8259 -0.2430 -0.3364
  628MOL0     C82777   9.219   8.476   4.166 -0.1114 -0.2272 -1.3273
  628MOL0     C82778   9.378   8.483   4.183  0.4994  0.8081  0.2613
  628MOL0     C82779   9.422   8.391   4.303  0.1724  0.2556  1.0863
  628MOL0     C82780   9.578   8.401   4.325 -0.4988  0.4388  0.5860
  628MOL0     N82781   9.625   8.337   4.447 -0.4889  0.0793 -0.3282
  628MOL0     C82782   9.655   8.386   4.570  0.4275  0.6112 -0.9253
  628MOL0     C82783   9.669   8.280   4.643  0.1611 -0.3733 -0.0226
  628MOL0     C82784   9.685   8.269   4.794 -0.3321 -0.0652 -0.0302
  628MOL0     C82785   9.546   8.276   4.852 -0.0099 -0.1747  0.0480
  628MOL0     C82786   9.563   8.355   4.984 -0.6921 -0.7272 -0.4831
  628MOL0     C82787   9.431   8.408   5.036  0.1863 -0.2687 -0.5628
  628MOL0     O82788   9.387   8.524   4.965  0.3085 -0.1828 -0.6288
  628MOL0     C82789   9.292   8.595   5.037 -0.8751 -0.5350  0.7707
  628MOL0     C82790   9.282   8.735   5.010 -0.4829  0.8908 -0.3183
  628MOL0     C82791   9.190   8.820   5.077 -0.2050 -0.2697  0.5473
  628MOL0     C82792   9.104   8.772   5.177  0.2126 -0.2041  0.0931
  628MOL0     C82793   9.008   8.868   5.247  0.2930 -1.0694  0.5495
  628MOL0     O82794   9.051   8.997   5.266 -0.3245 -0.2376 -0.3804
  628MOL0     C82795   8.966   9.071   5.342 -0.4866 -0.4132 -0.7354
  628MOL0     C82796   8.996   9.095   5.484  1.4282  0.1963 -0.4622
  628MOL0     C82797   8.916   9.190   5.546 -0.4254 -0.6918 -0.2518
  628MOL0     C82798   8.811   9.259   5.487  0.3834  0.0500  0.1021
  628MOL0     O82799   8.746   9.363   5.551  0.2409  0.1127 -0.3498
  628MOL0     C82800   8.639   9.318   5.638 -0.5309 -0.0843 -0.7742
  628MOL0     C82801   8.574   9.420   5.727 -0.2924  0.1742 -0.2266
  628MOL0     C82802   8.498   9.527   5.647 -0.2678  0.0261 -0.3313
  628MOL0     C82803   8.430   9.620   5.739 -0.0083  0.4837 -0.5451
  628MOL0     C82804   8.357   9.746   5.686  0.3805 -0.2323  0.1216
  628MOL0     C82805   8.382   9.771   5.538 -0.3183  0.3066  0.3378
  628MOL0     C82806   8.310   9.905   5.500 -0.3210 -0.0435  0.3055
  628MOL0     C82807   8.367   9.965   5.371  0.3263  0.2511  1.0118
  628MOL0    Cl82808   8.336   9.844   5.226  0.3842 -0.0725  0.4189
  628MOL0     C82809   8.779   9.229   5.350 -0.4509 -0.0519  0.8039
  628MOL0     C82810   8.861   9.143   5.279  0.0509  0.4418 -0.4116
  628MOL0     O82811   8.890   8.831   5.270  0.3227  0.4437 -0.6242
  628MOL0     C82812   9.102   8.632   5.187 -0.4295  0.1712  0.0220
  628MOL0     C82813   9.196   8.543   5.127 -0.0850 -1.4726 -0.4994
  628MOL0     N82814   9.644   8.161   4.575 -0.3176 -0.9322  0.1412
  628MOL0     N82815   9.615   8.202   4.449 -0.1467 -0.2669 -0.0534
  628MOL0     C82816   8.505   8.781   4.310  0.2289 -0.2982  0.8082
  628MOL0     C82817   8.399   8.867   4.267 -0.1064 -0.4185  0.1462
  628MOL0     C82818   8.071   9.114   4.200  0.3499 -1.2429  0.5352
  628MOL0     C82819   7.945   9.070   4.144  0.3742  0.9795  0.2221
  628MOL0     C82820   7.850   9.161   4.105  0.2253 -0.2865 -0.4279
  628MOL0     C82821   7.869   9.300   4.126  0.3814  0.6685 -0.1439
  628MOL0     O82822   7.767   9.384   4.070  0.8240 -0.5796  0.7778
  628MOL0     C82823   7.779   9.532   4.078  0.6781  0.2647 -0.3749
  628MOL0     C82824   7.713   9.585   4.209  0.7703  0.7061  0.2635
  628MOL0     C82825   7.575   9.509   4.241  0.6310 -0.1330 -0.1888
  628MOL0     C82826   7.513   9.567   4.363  0.0259  0.0332  0.2910
  628MOL0     C82827   7.391   9.490   4.398  0.1234  0.1264 -1.3743
  628MOL0     C82828   7.274   9.455   4.412  0.9702 -0.3989  0.3841
  628MOL0     C82829   7.984   9.339   4.191 -0.1531 -0.4907 -0.2912
  628MOL0     C82830   8.078   9.250   4.230  0.1229 -0.3163 -0.1228
  628MOL0     H82831   8.459   9.112   4.484  0.0731  0.1457 -0.1133
  628MOL0     H82832   8.666   8.982   4.520  0.6933 -0.9731 -0.9902
  628MOL0     H82833   8.775   8.702   4.237  2.4811 -0.3733 -0.9132
  628MOL0     H82834   8.725   8.561   4.339  0.5898 -0.2261 -2.0136
  628MOL0     H82835   8.930   8.575   4.462  1.2364  1.9202  0.5499
  628MOL0     H82836   8.967   8.721   4.370 -0.4325  0.5279 -1.1567
  628MOL0     H82837   8.964   8.561   4.155 -2.4644 -1.1006 -0.5157
  628MOL0     H82838   8.953   8.425   4.271  0.8853 -0.6825 -2.7617
  628MOL0     H82839   9.177   8.629   4.301  0.0067  0.6789 -3.4574
  628MOL0     H82840   9.160   8.455   4.364 -3.1298 -1.3230 -0.2983
  628MOL0     H82841   9.208   8.548   4.085  0.5082 -0.7544 -1.8981
  628MOL0     H82842   9.182   8.378   4.133 -0.7976  0.1519 -1.6896
  628MOL0     H82843   9.409   8.586   4.203  0.1313  1.0899 -0.5903
  628MOL0     H82844   9.422   8.444   4.091  0.0248 -1.6117  0.9801
  628MOL0     H82845   9.372   8.411   4.398  1.3631 -2.1443  2.3259
  628MOL0     H82846   9.398   8.286   4.286 -0.0547  0.4686  0.0075
  628MOL0     H82847   9.607   8.507   4.316 -0.6745  0.4400  0.0201
  628MOL0     H82848   9.630   8.344   4.248  1.5103 -2.3352  3.6967
  628MOL0     H82849   9.658   8.491   4.599 -1.2235  0.8812 -1.6346
  628MOL0     H82850   9.744   8.359   4.812 -0.4662 -0.2683  1.6367
  628MOL0     H82851   9.733   8.181   4.838  0.7191 -0.2066 -1.3903
  628MOL0     H82852   9.493   8.191   4.896 -2.7826  2.0856  1.4182
  628MOL0     H82853   9.476   8.321   4.781  0.1727 -0.7713 -0.5223
  628MOL0     H82854   9.624   8.290   5.047  1.2274 -0.7553 -2.2684
  628MOL0     H82855   9.604   8.455   4.967 -1.5482 -0.3278 -0.2704
  628MOL0     H82856   9.454   8.433   5.140  1.7338 -0.8155 -0.7334
  628MOL0     H82857   9.360   8.324   5.039 -3.2557  2.4660  1.1781
  628MOL0     H82858   9.340   8.786   4.934  0.4652 -0.1112 -0.2911
  628MOL0     H82859   9.172   8.924   5.055  1.0828 -0.1017  0.1606
  628MOL0     H82860   9.082   9.050   5.533  2.0406 -0.5388 -2.0992
  628MOL0     H82861   8.950   9.223   5.644 -2.7287  0.9275  0.0749
  628MOL0     H82862   8.654   9.234   5.707  0.8963  0.5670 -0.2719
  628MOL0     H82863   8.568   9.273   5.568 -0.1051  1.0235 -1.9422
  628MOL0     H82864   8.656   9.465   5.784 -0.2584  0.4021 -0.4531
  628MOL0     H82865   8.511   9.374   5.803 -0.1594  0.2671 -0.0608
  628MOL0     H82866   8.423   9.492   5.576  2.8672 -3.4631 -2.2730
  628MOL0     H82867   8.579   9.574   5.590  0.4877  0.6735  1.1916
  628MOL0     H82868   8.354   9.572   5.802  1.1283  0.6872  1.0493
  628MOL0     H82869   8.503   9.656   5.813  1.6638  1.9922 -2.8156
  628MOL0     H82870   8.392   9.831   5.745  1.0560 -0.1938 -0.3266
  628MOL0     H82871   8.249   9.747   5.701  0.6917 -2.7651  3.7923
  628MOL0     H82872   8.352   9.688   5.473 -0.9512  0.2338  0.7117
  628MOL0     H82873   8.489   9.792   5.531  0.1144 -0.8376  2.6052
  628MOL0     H82874   8.204   9.883   5.481 -0.3398 -2.4923  2.5726
  628MOL0     H82875   8.318   9.980   5.578 -2.3010  0.2908  0.2381
  628MOL0     H82876   8.473   9.989   5.386  0.5285  0.4567 -0.6269
  628MOL0     H82877   8.317  10.056   5.337 -1.3476 -1.6539 -2.0747
  628MOL0     H82878   8.691   9.280   5.312  1.1401  3.3094  1.2641
  628MOL0     H82879   8.841   9.123   5.175  3.0900 -0.2153 -0.9858
  628MOL0     H82880   9.028   8.582   5.249 -0.6194 -1.4379 -1.4002
  628MOL0     H82881   9.184   8.436   5.136 -0.3006 -1.4116  0.0101
  628MOL0     H82882   8.517   8.694   4.245  0.4052 -1.0027  1.7643
  628MOL0     H82883   8.349   8.864   4.170 -0.8931  1.1764  0.4661
  628MOL0     H82884   7.922   8.964   4.135  3.8565  0.2709 -2.4088
  628MOL0     H82885   7.751   9.121   4.084 -0.3520  0.7341  0.2397
  628MOL0     H82886   7.721   9.571   3.993  0.6601  0.5583 -0.2307
  628MOL0     H82887   7.878   9.577   4.069  1.4692 -1.6963 -2.7409
  628MOL0     H82888   7.782   9.586   4.294  1.7884 -2.2780 -0.4174
  628MOL0     H82889   7.685   9.688   4.183  1.3198  0.4489 -1.4745
  628MOL0     H82890   7.593   9.406   4.273 -0.8805 -0.1608  0.6475
  628MOL0     H82891   7.513   9.505   4.151  0.5413 -3.4264 -0.1030
  628MOL0     H82892   7.571   9.572   4.455  2.7760  0.1363 -1.3242
  628MOL0     H82893   7.479   9.670   4.347 -0.5336 -0.2864 -0.6923
  628MOL0     H82894   7.173   9.431   4.437  0.1786  1.2233 -1.1185
  628MOL0     H82895   8.011   9.443   4.206 -1.8700 -0.0459  0.0154
  628MOL0     H82896   8.160   9.301   4.280 -0.8981  2.2514 -0.8943
  629MOL0     O82897   2.977  11.258   4.002  0.5835  0.5613 -0.2083
  629MOL0     C82898   3.002  11.363   3.947 -0.5442 -0.2536  1.1235
  629MOL0     O82899   2.925  11.418   3.844 -0.0813 -0.5854 -0.6432
  629MOL0     C82900   2.822  11.361   3.777 -0.1476 -0.4470 -0.3339
  629MOL0     C82901   2.724  11.440   3.716 -0.4892 -0.1037 -0.7365
  629MOL0     C82902   2.629  11.384   3.630  0.5605 -0.7648  0.1461
  629MOL0     C82903   2.610  11.245   3.622 -0.1141 -0.3040  0.5067
  629MOL0     O82904   2.510  11.183   3.545 -0.3318  0.3764 -0.9019
  629MOL0     C82905   2.378  11.254   3.529  0.2779  1.1243  0.2961
  629MOL0     C82906   2.280  11.159   3.464 -0.0768  0.0592 -0.0976
  629MOL0     C82907   2.287  11.142   3.313  0.3941 -0.4353  0.0483
  629MOL0     C82908   2.284  11.265   3.222 -0.7764 -0.8103 -0.5960
  629MOL0     C82909   2.263  11.236   3.076  0.4338  0.0647  1.4904
  629MOL0     C82910   2.342  11.337   2.986  0.6089  0.8243 -0.4850
  629MOL0     C82911   2.300  11.315   2.839  0.3978  0.8999 -0.1506
  629MOL0     C82912   2.357  11.435   2.760  0.3207  0.3687 -0.5300
  629MOL0     N82913   2.328  11.401   2.620 -0.4097  0.0067 -0.0261
  629MOL0     C82914   2.213  11.427   2.559 -0.3003  0.7225  0.3364
  629MOL0     C82915   2.236  11.383   2.429 -0.1890 -0.3444 -0.0482
  629MOL0     C82916   2.135  11.367   2.321 -0.2071  0.6222 -0.4456
  629MOL0     C82917   2.091  11.499   2.270  0.5163  0.2873  0.2666
  629MOL0     C82918   2.026  11.479   2.131 -0.1819  0.5735 -0.8361
  629MOL0     C82919   2.001  11.609   2.059 -0.0405  1.0416  0.1484
  629MOL0     O82920   1.886  11.664   2.127 -0.0837  0.4010  0.1908
  629MOL0     C82921   1.770  11.641   2.066  0.6956  1.0031  1.9009
  629MOL0     C82922   1.736  11.528   1.990 -0.3164 -0.5560 -0.5699
  629MOL0     C82923   1.605  11.508   1.939 -0.3586  0.0287  0.4784
  629MOL0     C82924   1.511  11.603   1.962 -0.2457 -0.9580  0.0789
  629MOL0     C82925   1.382  11.584   1.901 -0.5944 -0.0412  0.0145
  629MOL0     O82926   1.272  11.623   1.975 -0.2162 -0.5443  0.1561
  629MOL0     C82927   1.148  11.629   1.912 -0.3650 -0.1504 -0.2029
  629MOL0     C82928   1.076  11.524   1.871  1.1270  0.5338 -0.0262
  629MOL0     C82929   0.943  11.537   1.830  0.6698 -0.3421  0.5251
  629MOL0     C82930   0.881  11.660   1.835 -0.1814 -0.1028 -0.7226
  629MOL0     O82931   0.746  11.667   1.812 -0.1259 -0.1479 -0.1493
  629MOL0     C82932   0.690  11.794   1.785 -0.0045 -0.7528  0.2818
  629MOL0     C82933   0.544  11.761   1.753 -0.1451 -0.8489 -0.2714
  629MOL0     C82934   0.450  11.881   1.763  0.3764  0.8696  0.0910
  629MOL0     C82935   0.482  11.993   1.676 -0.5278 -0.5987  1.0867
  629MOL0     C82936   0.385  12.100   1.714 -0.5018 -0.4464  0.8563
  629MOL0     C82937   0.392  12.201   1.596  0.6794  0.3898  0.6886
  629MOL0     C82938   0.518  12.283   1.596 -0.4757  0.4064  0.1831
  629MOL0     C82939   0.527  12.379   1.478 -0.1421 -0.8049  0.7124
  629MOL0    Cl82940   0.430  12.532   1.489  0.3706 -0.2676 -0.3931
  629MOL0     C82941   0.957  11.773   1.877 -0.5003 -0.4882 -0.2677
  629MOL0     C82942   1.090  11.754   1.910  0.7040  0.2252 -0.2806
  629MOL0     O82943   1.386  11.543   1.786  0.0815 -0.0785  0.9790
  629MOL0     C82944   1.535  11.713   2.047  0.1665  0.2414  0.2142
  629MOL0     C82945   1.665  11.724   2.097 -0.1605 -0.6548  0.1706
  629MOL0     N82946   2.371  11.336   2.421 -0.1576 -0.4025 -0.3722
  629MOL0     N82947   2.420  11.331   2.540  0.4157 -0.4722 -0.9630
  629MOL0     C82948   2.709  11.164   3.686  0.6597  0.8361 -1.3821
  629MOL0     C82949   2.809  11.222   3.759 -1.0112  1.4546 -1.2339
  629MOL0     C82950   3.111  11.442   3.998  0.3573  0.4901 -0.6495
  629MOL0     C82951   3.154  11.556   3.929 -0.4522 -0.1658  1.0685
  629MOL0     C82952   3.274  11.622   3.968 -0.2448  0.4237  1.0735
  629MOL0     C82953   3.341  11.586   4.093 -0.1737 -0.3967  0.5606
  629MOL0     O82954   3.459  11.653   4.124  1.4001 -0.2937  0.3367
  629MOL0     C82955   3.503  11.627   4.259  0.5618  0.2875  0.4169
  629MOL0     C82956   3.631  11.708   4.286  0.1202 -0.0871 -0.4872
  629MOL0     C82957   3.756  11.641   4.220  0.6557  0.1692 -0.4009
  629MOL0     C82958   3.863  11.742   4.174 -0.6953  0.0265 -0.0615
  629MOL0     C82959   3.946  11.806   4.273 -0.2893  0.2938 -1.1802
  629MOL0     C82960   4.022  11.858   4.358 -0.5259 -0.2698  0.0472
  629MOL0     C82961   3.276  11.494   4.178 -0.0239 -0.5428 -0.3441
  629MOL0     C82962   3.170  11.421   4.123 -0.2289  0.6017 -0.5814
  629MOL0     H82963   2.746  11.546   3.716  1.8149 -0.5191 -1.3504
  629MOL0     H82964   2.568  11.460   3.582  0.1737 -1.3077 -0.2325
  629MOL0     H82965   2.380  11.340   3.462 -3.4459  0.5942 -0.7154
  629MOL0     H82966   2.332  11.290   3.621 -3.5125  1.7322 -1.6701
  629MOL0     H82967   2.177  11.191   3.483  0.1702  0.8168  0.0245
  629MOL0     H82968   2.303  11.060   3.502  3.5838  0.9075  0.2748
  629MOL0     H82969   2.210  11.077   3.272  0.1721 -1.8581  2.5592
  629MOL0     H82970   2.383  11.091   3.296  3.7523  4.0189  3.0167
  629MOL0     H82971   2.215  11.344   3.253  1.4883  0.9761  0.2055
  629MOL0     H82972   2.373  11.328   3.234 -0.5354 -1.3376  0.5037
  629MOL0     H82973   2.156  11.242   3.054  0.4262 -0.6874  1.2985
  629MOL0     H82974   2.293  11.134   3.053  1.1306  0.0224  2.5408
  629MOL0     H82975   2.450  11.331   3.001  0.6028 -0.1005 -0.7368
  629MOL0     H82976   2.316  11.434   3.030 -0.2629  0.5423 -0.3588
  629MOL0     H82977   2.341  11.221   2.803 -1.5090  0.1139 -0.3794
  629MOL0     H82978   2.191  11.307   2.835  0.3681  1.0686  0.2204
  629MOL0     H82979   2.463  11.450   2.782  0.9960 -2.7420 -1.2128
  629MOL0     H82980   2.290  11.520   2.775  0.5773  0.2670  1.3443
  629MOL0     H82981   2.119  11.462   2.599 -1.9347  0.5717 -2.9794
  629MOL0     H82982   2.053  11.313   2.370  0.9649 -0.0541  0.8230
  629MOL0     H82983   2.177  11.297   2.248 -1.0568 -0.9697  0.5427
  629MOL0     H82984   2.174  11.569   2.262  2.1467 -1.6521 -0.6102
  629MOL0     H82985   2.017  11.548   2.334  0.2100 -1.1751  1.0813
  629MOL0     H82986   2.082  11.415   2.062  1.0726  1.2411 -0.4594
  629MOL0     H82987   1.933  11.427   2.156  0.4174 -0.8930 -1.5187
  629MOL0     H82988   1.982  11.597   1.952  0.3447 -2.7580  0.3895
  629MOL0     H82989   2.086  11.676   2.074  0.5076  0.2612  0.5866
  629MOL0     H82990   1.803  11.443   1.976 -1.5020 -1.4413 -0.9852
  629MOL0     H82991   1.597  11.428   1.867  1.0694  1.2603 -1.1228
  629MOL0     H82992   1.129  11.429   1.882 -1.9288 -1.5540 -1.7736
  629MOL0     H82993   0.890  11.447   1.801 -2.9300  0.3313  4.1173
  629MOL0     H82994   0.742  11.858   1.714 -2.2213  2.4415  1.3033
  629MOL0     H82995   0.690  11.850   1.879  0.3082 -1.2573  0.5855
  629MOL0     H82996   0.515  11.682   1.823 -1.7793 -1.9127 -2.0581
  629MOL0     H82997   0.534  11.718   1.653 -0.8317 -3.4316  0.8323
  629MOL0     H82998   0.442  11.910   1.869 -0.7973 -0.7017  0.4725
  629MOL0     H82999   0.350  11.858   1.726  1.7771 -1.3696 -2.7521
  629MOL0     H83000   0.588  12.015   1.688 -0.7420 -0.7260  3.8493
  629MOL0     H83001   0.470  11.962   1.571  2.0578 -1.5613  0.9843
  629MOL0     H83002   0.416  12.158   1.801 -2.4383  1.6120  0.2616
  629MOL0     H83003   0.282  12.064   1.717 -0.7253  0.2246  1.7801
  629MOL0     H83004   0.303  12.263   1.611  0.9815  1.0967 -0.3354
  629MOL0     H83005   0.393  12.163   1.494  0.1650  3.7397 -0.6865
  629MOL0     H83006   0.528  12.343   1.687 -0.3929  1.9435 -0.7948
  629MOL0     H83007   0.603  12.214   1.595  0.8784  1.9939 -0.0254
  629MOL0     H83008   0.522  12.332   1.379 -1.3900 -0.4287  0.5709
  629MOL0     H83009   0.631  12.412   1.473  1.3068 -4.9809 -0.2392
  629MOL0     H83010   0.903  11.864   1.900  1.1905  0.4396  0.1258
  629MOL0     H83011   1.152  11.832   1.953 -1.8324  2.1799  0.0967
  629MOL0     H83012   1.458  11.787   2.064 -2.3769 -2.6173  2.2587
  629MOL0     H83013   1.700  11.803   2.164 -2.3563  0.3789  0.1857
  629MOL0     H83014   2.713  11.056   3.685 -0.4607  0.7410  0.0827
  629MOL0     H83015   2.872  11.154   3.815  0.6746  2.4103 -1.8793
  629MOL0     H83016   3.110  11.594   3.838  0.6495 -0.1105  0.5439
  629MOL0     H83017   3.313  11.707   3.912 -0.2336 -1.2518 -1.6201
  629MOL0     H83018   3.506  11.518   4.271 -2.6824 -0.1854 -1.8409
  629MOL0     H83019   3.426  11.667   4.326  1.1720 -0.8247  1.8292
  629MOL0     H83020   3.614  11.815   4.267 -1.1872  0.4760  3.0420
  629MOL0     H83021   3.645  11.708   4.395  1.3748  2.0894 -0.5748
  629MOL0     H83022   3.712  11.578   4.141 -0.3451 -1.5743  1.4469
  629MOL0     H83023   3.796  11.567   4.291  1.4164  0.4014 -0.5849
  629MOL0     H83024   3.925  11.676   4.112  0.4797  3.0972 -2.3909
  629MOL0     H83025   3.824  11.818   4.107  0.0649 -0.2495 -0.8347
  629MOL0     H83026   4.096  11.905   4.419 -1.2963  0.2388  0.5970
  629MOL0     H83027   3.313  11.473   4.278  1.7047  0.4560 -0.7350
  629MOL0     H83028   3.120  11.343   4.179  0.6868 -0.2330 -0.8935
  630MOL0     O83029   8.081   8.514   1.345  0.1280 -1.2866 -0.4611
  630MOL0     C83030   8.011   8.618   1.326  0.5180 -0.2955  0.6637
  630MOL0     O83031   8.057   8.734   1.265  0.1892 -0.6567 -0.3858
  630MOL0     C83032   8.194   8.748   1.231 -0.3329 -1.0361 -0.2372
  630MOL0     C83033   8.256   8.875   1.258  0.0988 -0.0873  0.3794
  630MOL0     C83034   8.398   8.885   1.233  0.2214 -0.5269  0.1965
  630MOL0     C83035   8.467   8.790   1.156  0.0273  0.1096 -0.3739
  630MOL0     O83036   8.602   8.793   1.116 -0.6590 -0.2456 -0.8918
  630MOL0     C83037   8.676   8.908   1.141 -0.0427  0.4886  0.5406
  630MOL0     C83038   8.822   8.889   1.082 -0.3174 -0.4417 -0.2636
  630MOL0     C83039   8.915   8.935   1.187 -0.1291 -0.5960  0.4230
  630MOL0     C83040   9.056   8.950   1.135 -0.0811 -0.7790 -0.1893
  630MOL0     C83041   9.165   9.002   1.234 -0.3976  0.1957 -0.5219
  630MOL0     C83042   9.301   9.016   1.149 -0.1549  0.5201  0.2107
  630MOL0     C83043   9.410   9.082   1.236 -0.1194  0.2383 -0.6195
  630MOL0     C83044   9.550   9.082   1.174 -1.2656  0.2465  0.0112
  630MOL0     N83045   9.653   9.163   1.255  0.0540 -0.8863 -0.2368
  630MOL0     C83046   9.766   9.100   1.317  0.0579 -0.5257  0.4282
  630MOL0     C83047   9.847   9.207   1.351 -0.6570 -0.3548  0.1720
  630MOL0     C83048   9.988   9.214   1.405 -0.3175  0.3807  0.2925
  630MOL0     C83049   9.991   9.143   1.534 -0.6308  0.1605  0.3590
  630MOL0     C83050   9.890   9.202   1.625  0.2058 -0.4508 -0.3704
  630MOL0     C83051   9.907   9.133   1.762 -0.6809  0.0111  0.3881
  630MOL0     O83052   9.879   8.992   1.757 -0.2294  0.6533 -0.3595
  630MOL0     C83053   9.749   8.945   1.783  0.4371 -0.9510  0.0558
  630MOL0     C83054   9.742   8.812   1.793 -0.5355 -0.7905 -0.2952
  630MOL0     C83055   9.624   8.757   1.838  0.0023  0.3846  0.2405
  630MOL0     C83056   9.502   8.835   1.850 -0.6430  0.5725  0.6234
  630MOL0     C83057   9.370   8.780   1.869 -0.2557  0.9324  0.7642
  630MOL0     O83058   9.354   8.644   1.881 -0.4597 -1.3304  0.4135
  630MOL0     C83059   9.226   8.591   1.877  0.8543  0.1235 -0.6503
  630MOL0     C83060   9.206   8.458   1.827 -0.3659  0.1505  0.6048
  630MOL0     C83061   9.087   8.387   1.823  0.8350  0.4023 -0.3216
  630MOL0     C83062   8.976   8.447   1.888 -0.0274 -0.6467  0.3151
  630MOL0     O83063   8.859   8.379   1.914  0.4125 -0.1795  0.0386
  630MOL0     C83064   8.794   8.318   1.801  0.7397  0.0224 -0.2571
  630MOL0     C83065   8.651   8.262   1.849 -0.5485  0.7946 -0.1002
  630MOL0     C83066   8.546   8.296   1.751  0.2767 -0.5554  0.3151
  630MOL0     C83067   8.406   8.242   1.796  0.0549 -0.2037  0.0716
  630MOL0     C83068   8.294   8.259   1.685  0.7596 -0.8896  0.2612
  630MOL0     C83069   8.161   8.236   1.758 -0.3098  0.2845  0.0862
  630MOL0     C83070   8.044   8.242   1.674  0.1023 -0.3908  0.3323
  630MOL0     C83071   7.939   8.151   1.735  0.7209 -0.3375 -0.4861
  630MOL0    Cl83072   7.781   8.213   1.665  0.0754  0.1823  0.0262
  630MOL0     C83073   8.993   8.576   1.949 -0.3520  0.4683 -0.2868
  630MOL0     C83074   9.117   8.643   1.936  0.4033 -0.1274 -0.1271
  630MOL0     O83075   9.276   8.851   1.842  0.3324  0.2681  0.4067
  630MOL0     C83076   9.515   8.973   1.830 -0.2427 -1.2684  0.0300
  630MOL0     C83077   9.637   9.033   1.800 -0.3428 -0.4663  0.4172
  630MOL0     N83078   9.779   9.319   1.323  0.5034  0.0327  0.0165
  630MOL0     N83079   9.664   9.298   1.259 -0.2282  0.8884  0.8835
  630MOL0     C83080   8.402   8.673   1.112  1.7403  0.0018 -0.2805
  630MOL0     C83081   8.270   8.655   1.150  0.3380 -0.0081 -0.3078
  630MOL0     C83082   7.864   8.610   1.357  0.0572  0.0204  0.9577
  630MOL0     C83083   7.811   8.491   1.409 -0.7825 -0.6811  0.1356
  630MOL0     C83084   7.672   8.479   1.445  0.6085 -0.2970  0.5743
  630MOL0     C83085   7.582   8.585   1.418  0.0804 -0.4397  0.4206
  630MOL0     O83086   7.451   8.581   1.449  0.1514  0.0359  0.1303
  630MOL0     C83087   7.396   8.448   1.449 -0.3913 -1.2569  1.4671
  630MOL0     C83088   7.246   8.443   1.425 -0.1795 -1.1701  0.1014
  630MOL0     C83089   7.217   8.298   1.370  0.4004 -0.2168  0.5943
  630MOL0     C83090   7.072   8.278   1.318 -0.1916 -0.1352  0.3248
  630MOL0     C83091   7.041   8.149   1.254  0.9586 -0.5154  0.0897
  630MOL0     C83092   7.033   8.047   1.190  0.9048  0.2399 -1.3201
  630MOL0     C83093   7.637   8.705   1.372  0.5215  0.3425 -0.2203
  630MOL0     C83094   7.774   8.718   1.341  0.3009 -0.5518  0.2063
  630MOL0     H83095   8.201   8.952   1.311 -0.8488 -0.1731 -0.4338
  630MOL0     H83096   8.441   8.975   1.276  1.9055 -0.7981 -0.8247
  630MOL0     H83097   8.681   8.931   1.247 -0.4103 -0.2904  0.7368
  630MOL0     H83098   8.634   8.991   1.084 -0.3417 -0.4408 -0.6465
  630MOL0     H83099   8.825   8.954   0.994  2.4681 -2.2316 -1.6296
  630MOL0     H83100   8.848   8.793   1.037 -2.2841 -1.4719  0.6624
  630MOL0     H83101   8.911   8.869   1.275 -1.2723  0.5346  1.2616
  630MOL0     H83102   8.885   9.030   1.233  0.2060 -0.8046  1.0903
  630MOL0     H83103   9.084   8.846   1.114 -0.1895 -0.5582 -1.5343
  630MOL0     H83104   9.064   9.005   1.041 -0.0156 -2.3043 -1.1199
  630MOL0     H83105   9.196   8.923   1.304  1.3439  1.0958 -0.2079
  630MOL0     H83106   9.135   9.091   1.290 -0.2590 -0.7628  1.1485
  630MOL0     H83107   9.281   9.071   1.057  0.4895  1.3860  0.5715
  630MOL0     H83108   9.333   8.920   1.107 -4.3557 -1.1438  0.3261
  630MOL0     H83109   9.398   9.190   1.240 -1.1782  0.1550 -1.0086
  630MOL0     H83110   9.426   9.037   1.334  1.6893  2.5765  0.2519
  630MOL0     H83111   9.546   9.124   1.073  1.5978  1.5185  0.3316
  630MOL0     H83112   9.580   8.977   1.168  2.4475  1.0013  2.1564
  630MOL0     H83113   9.803   8.998   1.326 -1.0235 -1.2932 -2.6587
  630MOL0     H83114  10.013   9.319   1.420  3.5915 -0.5837  2.0110
  630MOL0     H83115  10.075   9.192   1.342  0.5882  2.8896  0.5406
  630MOL0     H83116  10.086   9.162   1.584 -1.7350  0.2407  2.5457
  630MOL0     H83117   9.970   9.037   1.515 -1.8669  0.7933 -2.1542
  630MOL0     H83118   9.904   9.309   1.642 -2.3798 -0.2882  1.3096
  630MOL0     H83119   9.787   9.189   1.590  0.0758  1.5403 -0.8362
  630MOL0     H83120   9.853   9.170   1.849 -1.4195 -2.1663  0.9164
  630MOL0     H83121  10.009   9.149   1.799 -1.0068 -0.0004  1.3137
  630MOL0     H83122   9.831   8.752   1.775 -0.3475 -0.8064  0.6313
  630MOL0     H83123   9.625   8.648   1.843  0.4765  0.3602 -0.3196
  630MOL0     H83124   9.282   8.409   1.768 -0.1100  1.1187  0.1198
  630MOL0     H83125   9.087   8.288   1.777  0.1766  1.5910 -3.1100
  630MOL0     H83126   8.857   8.233   1.774 -2.6417 -2.3840 -1.3838
  630MOL0     H83127   8.788   8.387   1.716  0.4465 -0.9915 -1.0832
  630MOL0     H83128   8.626   8.303   1.948  2.0288 -0.1145  0.9979
  630MOL0     H83129   8.652   8.153   1.862  4.7104  0.8419  2.2988
  630MOL0     H83130   8.562   8.242   1.657 -4.2188  1.2731 -1.7869
  630MOL0     H83131   8.546   8.402   1.723  4.3456 -0.7700 -1.2112
  630MOL0     H83132   8.402   8.135   1.818 -1.6056 -0.9570 -3.2669
  630MOL0     H83133   8.386   8.305   1.883  0.3934  1.6047 -1.1130
  630MOL0     H83134   8.302   8.174   1.617  1.0024  0.4784 -1.5235
  630MOL0     H83135   8.308   8.352   1.628  1.3123  0.1697  2.0544
  630MOL0     H83136   8.148   8.309   1.838  1.3172 -0.6964  1.2910
  630MOL0     H83137   8.162   8.138   1.807 -5.3644 -1.9519 -3.3135
  630MOL0     H83138   8.016   8.346   1.657  3.5221  0.5577 -0.2641
  630MOL0     H83139   8.071   8.200   1.577 -0.9412 -1.6384  0.5427
  630MOL0     H83140   7.932   8.162   1.843 -0.9540 -0.3632 -0.5735
  630MOL0     H83141   7.963   8.047   1.710  2.1179 -0.0110 -0.6017
  630MOL0     H83142   8.910   8.630   1.993 -0.7777 -0.1239 -0.3541
  630MOL0     H83143   9.124   8.734   1.996  1.2421 -0.1354 -0.2021
  630MOL0     H83144   9.424   9.029   1.849 -2.5205 -4.3577 -1.0130
  630MOL0     H83145   9.638   9.140   1.785  1.3986 -0.7466 -2.1962
  630MOL0     H83146   8.436   8.589   1.053  1.1412 -0.3918 -0.0771
  630MOL0     H83147   8.219   8.565   1.117  0.4788  0.4459 -1.8730
  630MOL0     H83148   7.875   8.407   1.433 -0.5593 -0.6403 -0.3050
  630MOL0     H83149   7.638   8.385   1.487 -0.0503 -1.1555 -1.6966
  630MOL0     H83150   7.418   8.392   1.540 -0.6871 -2.2890  0.9264
  630MOL0     H83151   7.444   8.392   1.367 -0.6678  2.4509 -1.4823
  630MOL0     H83152   7.188   8.465   1.515 -0.4925 -1.5070 -0.0204
  630MOL0     H83153   7.227   8.513   1.343 -0.7121 -0.1839  1.0331
  630MOL0     H83154   7.226   8.222   1.449  0.0725  0.9988  1.8331
  630MOL0     H83155   7.281   8.274   1.285 -0.2728 -0.9616  0.2822
  630MOL0     H83156   7.004   8.290   1.402  0.0292 -1.0862  0.6494
  630MOL0     H83157   7.046   8.356   1.246  0.2189 -0.5739 -0.3045
  630MOL0     H83158   7.045   7.948   1.151  0.3640 -1.5621  2.6064
  630MOL0     H83159   7.577   8.791   1.344 -0.0519  0.3178  0.8957
  630MOL0     H83160   7.813   8.811   1.301  3.3638 -2.5998 -2.0940
  631MOL0     O83161   0.637   1.528  11.258 -0.5704 -0.0953 -0.1919
  631MOL0     C83162   0.604   1.408  11.276 -0.6887 -0.9936  0.8787
  631MOL0     O83163   0.480   1.364  11.283 -0.3900  0.6400 -0.3578
  631MOL0     C83164   0.374   1.451  11.280  0.5572 -0.4897 -0.0301
  631MOL0     C83165   0.263   1.403  11.214 -0.2823  0.2438 -0.6050
  631MOL0     C83166   0.154   1.488  11.186  0.1179  0.0886 -0.0809
  631MOL0     C83167   0.159   1.620  11.239 -0.5128  0.6235 -0.2962
  631MOL0     O83168   0.068   1.715  11.204 -1.1091  0.3665  0.4447
  631MOL0     C83169  -0.057   1.675  11.167 -0.1217 -0.0757 -0.1647
  631MOL0     C83170  -0.148   1.801  11.150  0.5816  0.2218  0.5099
  631MOL0     C83171  -0.109   1.903  11.037  0.5807  0.5096  0.4854
  631MOL0     C83172  -0.138   1.842  10.897  0.5738 -0.7714 -0.3544
  631MOL0     C83173  -0.095   1.935  10.779  0.0931  0.6155  0.9740
  631MOL0     C83174  -0.172   2.068  10.775  0.8700 -0.7158  0.0958
  631MOL0     C83175  -0.146   2.140  10.636  0.2937  0.0804  1.4328
  631MOL0     C83176  -0.015   2.212  10.626 -1.0244 -0.0144 -0.1632
  631MOL0     N83177   0.022   2.246  10.495 -0.4547 -0.4066  0.5663
  631MOL0     C83178   0.154   2.234  10.454  0.0544  0.1982 -0.2902
  631MOL0     C83179   0.152   2.276  10.324  0.2367  0.0617  0.0015
  631MOL0     C83180   0.267   2.297  10.233 -0.2241 -0.4504  0.2655
  631MOL0     C83181   0.364   2.183  10.193  0.1249 -0.5288 -0.0755
  631MOL0     C83182   0.440   2.123  10.313 -0.2318 -0.4515  1.1054
  631MOL0     C83183   0.585   2.086  10.262 -0.5482  0.3067  0.1253
  631MOL0     O83184   0.643   2.001  10.360  0.2475  0.2381  0.1807
  631MOL0     C83185   0.770   1.948  10.333  0.2787  0.3178  0.2880
  631MOL0     C83186   0.844   1.980  10.218  0.8982 -0.5844  0.2395
  631MOL0     C83187   0.976   1.949  10.197  0.6994 -0.1668 -0.0366
  631MOL0     C83188   1.044   1.881  10.300 -0.1535 -0.3824 -0.2622
  631MOL0     C83189   1.178   1.843  10.291  0.2013 -0.2631  0.0843
  631MOL0     O83190   1.247   1.803  10.400 -0.9407 -0.2155 -0.4741
  631MOL0     C83191   1.379   1.782  10.381  0.4997  0.4469 -0.0625
  631MOL0     C83192   1.423   1.653  10.349 -0.7488 -0.4697 -0.6950
  631MOL0     C83193   1.558   1.619  10.324 -0.5230  0.1041 -0.1525
  631MOL0     C83194   1.659   1.723  10.328  0.4358 -0.0978  0.3955
  631MOL0     O83195   1.782   1.690  10.285 -0.2610  0.3086  0.6580
  631MOL0     C83196   1.886   1.771  10.338 -0.1950 -0.4557 -1.0798
  631MOL0     C83197   2.014   1.683  10.310 -0.1542 -0.3899 -0.5946
  631MOL0     C83198   2.140   1.723  10.391  0.8544  0.7846 -0.2584
  631MOL0     C83199   2.275   1.644  10.363  0.1028  0.2442 -0.3256
  631MOL0     C83200   2.326   1.689  10.231  0.3173  0.1575 -0.1215
  631MOL0     C83201   2.447   1.603  10.191  0.4041  0.4831 -0.4282
  631MOL0     C83202   2.409   1.478  10.116  0.5697 -0.8417  0.3940
  631MOL0     C83203   2.540   1.417  10.057  0.0278 -0.6503 -1.0664
  631MOL0    Cl83204   2.519   1.297   9.934 -0.3514 -0.1340  0.5837
  631MOL0     C83205   1.612   1.856  10.342 -0.3172  0.1111  0.0326
  631MOL0     C83206   1.475   1.882  10.374 -0.4573  0.4940 -0.0454
  631MOL0     O83207   1.231   1.862  10.179 -0.1402  0.6338 -0.0135
  631MOL0     C83208   0.980   1.860  10.420  0.8320  0.5099 -0.9393
  631MOL0     C83209   0.840   1.890  10.439  0.4783 -0.8230 -0.6572
  631MOL0     N83210   0.024   2.325  10.301 -0.7479  0.0802  0.9083
  631MOL0     N83211  -0.049   2.312  10.403  0.5549 -0.0929 -0.4316
  631MOL0     C83212   0.255   1.663  11.333 -0.2723 -0.2668 -0.7080
  631MOL0     C83213   0.371   1.581  11.340  0.0725 -0.0185 -0.7964
  631MOL0     C83214   0.711   1.312  11.266 -0.9500  0.3647  0.0448
  631MOL0     C83215   0.847   1.349  11.277 -0.4917  0.1253 -0.6856
  631MOL0     C83216   0.950   1.254  11.295 -0.4343 -0.0301 -0.1529
  631MOL0     C83217   0.918   1.115  11.275  0.5865  0.0001  0.0819
  631MOL0     O83218   1.025   1.029  11.270 -0.2676 -0.4770  0.0002
  631MOL0     C83219   1.010   0.893  11.328 -0.2941 -0.5622  0.1171
  631MOL0     C83220   1.065   0.879  11.473 -0.1911 -0.2834  0.5380
  631MOL0     C83221   1.173   0.774  11.496 -0.6734 -0.1021 -0.3563
  631MOL0     C83222   1.309   0.827  11.439  0.2729  0.3625 -0.0035
  631MOL0     C83223   1.427   0.740  11.451 -0.1676  0.4747  0.2862
  631MOL0     C83224   1.538   0.687  11.458 -1.1744 -0.1739 -1.4072
  631MOL0     C83225   0.785   1.075  11.252  0.1588  0.2193  0.3112
  631MOL0     C83226   0.688   1.173  11.247 -0.1256 -1.1950 -0.0556
  631MOL0     H83227   0.268   1.301  11.177  0.9737 -0.5931  1.6903
  631MOL0     H83228   0.068   1.446  11.134 -2.7814  0.6216  3.8194
  631MOL0     H83229  -0.088   1.613  11.252  0.5673  0.5659  0.5781
  631MOL0     H83230  -0.051   1.627  11.070 -4.4493  2.6054 -2.0692
  631MOL0     H83231  -0.157   1.847  11.248 -0.3579 -0.5536  0.8023
  631MOL0     H83232  -0.243   1.751  11.131  0.6856  0.0198  0.5174
  631MOL0     H83233  -0.005   1.925  11.062  0.6635 -2.7309  3.8860
  631MOL0     H83234  -0.159   2.000  11.044  0.1145  0.7798 -3.6673
  631MOL0     H83235  -0.080   1.749  10.893  2.6868  0.4110  0.6601
  631MOL0     H83236  -0.241   1.809  10.880  0.4824 -1.6155  1.6496
  631MOL0     H83237  -0.114   1.881  10.687  0.2778  2.9216 -0.5006
  631MOL0     H83238   0.008   1.946  10.813  0.2591  0.7300  0.4302
  631MOL0     H83239  -0.155   2.129  10.864  0.7095  1.1523 -1.0944
  631MOL0     H83240  -0.276   2.037  10.778  1.0346 -1.4895 -1.2970
  631MOL0     H83241  -0.159   2.074  10.550  2.7994  0.6376  0.5254
  631MOL0     H83242  -0.217   2.223  10.630 -0.9710 -1.0235  0.5822
  631MOL0     H83243   0.067   2.153  10.671 -0.1738  2.3017  1.5079
  631MOL0     H83244  -0.021   2.308  10.678  1.9066 -0.5939  1.4897
  631MOL0     H83245   0.242   2.215  10.513 -0.8627  1.2051  1.4957
  631MOL0     H83246   0.335   2.373  10.274 -2.4626  1.7575  0.1432
  631MOL0     H83247   0.225   2.341  10.142 -2.6478 -0.9825  1.0551
  631MOL0     H83248   0.436   2.237  10.131 -0.5119 -0.4080 -0.7265
  631MOL0     H83249   0.314   2.110  10.129  2.2650 -2.4051  0.2737
  631MOL0     H83250   0.442   2.172  10.411  2.8186 -4.0616  3.1092
  631MOL0     H83251   0.383   2.030  10.324 -3.1427  0.9536 -0.9902
  631MOL0     H83252   0.645   2.174  10.237  1.0254 -1.3603 -2.4336
  631MOL0     H83253   0.567   2.029  10.170 -1.8091 -1.7189  1.5350
  631MOL0     H83254   0.800   2.029  10.132  0.5787 -0.6964  0.3396
  631MOL0     H83255   1.015   1.981  10.100 -3.7241 -0.2710 -2.0641
  631MOL0     H83256   1.349   1.574  10.354  0.2584 -1.3787  3.2883
  631MOL0     H83257   1.581   1.515  10.303 -2.6270 -0.3314 -0.5673
  631MOL0     H83258   1.868   1.786  10.445 -1.8635 -0.4303 -1.3330
  631MOL0     H83259   1.898   1.866  10.285  0.3558 -0.3828 -0.8332
  631MOL0     H83260   2.045   1.708  10.208  0.3215  1.1730 -0.0889
  631MOL0     H83261   1.982   1.579  10.320 -1.7991  0.2060  0.8222
  631MOL0     H83262   2.107   1.700  10.492  0.0046 -1.3982 -0.9852
  631MOL0     H83263   2.161   1.830  10.377 -0.3492  0.8605 -1.7831
  631MOL0     H83264   2.350   1.677  10.436  1.0482 -0.6150 -0.8789
  631MOL0     H83265   2.271   1.536  10.376  1.5620  0.4276  2.3544
  631MOL0     H83266   2.350   1.796  10.235  0.7285  0.0849 -0.5537
  631MOL0     H83267   2.254   1.676  10.150 -1.7657 -2.7948  2.0044
  631MOL0     H83268   2.518   1.580  10.270 -1.0915 -0.5401  0.6787
  631MOL0     H83269   2.495   1.670  10.119 -2.9999  2.0524 -1.5035
  631MOL0     H83270   2.364   1.408  10.187 -1.1982  0.9764  1.1700
  631MOL0     H83271   2.339   1.495  10.033  0.8465  0.0451  0.3258
  631MOL0     H83272   2.597   1.375  10.140  2.0788  0.0520 -2.0455
  631MOL0     H83273   2.610   1.488  10.012  1.8115 -0.2255  2.0918
  631MOL0     H83274   1.691   1.930  10.330  0.1066  0.7067  4.7798
  631MOL0     H83275   1.455   1.989  10.383  1.9776  0.9972 -0.1446
  631MOL0     H83276   1.033   1.825  10.507  0.8751 -1.0475 -1.5480
  631MOL0     H83277   0.799   1.870  10.538  1.2498  0.4297 -0.0674
  631MOL0     H83278   0.252   1.755  11.389 -0.9796 -1.1524  0.7648
  631MOL0     H83279   0.452   1.611  11.404  1.0206 -0.3077 -1.8318
  631MOL0     H83280   0.875   1.452  11.296  2.6501 -1.0960  2.4486
  631MOL0     H83281   1.046   1.290  11.330 -1.6774  0.6487  2.8777
  631MOL0     H83282   1.063   0.831  11.255 -2.2835 -0.7371 -1.2797
  631MOL0     H83283   0.916   0.841  11.307 -0.3311  0.3027 -2.2547
  631MOL0     H83284   1.094   0.980  11.502  2.1181 -0.1510 -1.8150
  631MOL0     H83285   0.980   0.846  11.532 -0.1807 -0.7469  0.3026
  631MOL0     H83286   1.147   0.677  11.452  1.5800 -0.9267 -0.0205
  631MOL0     H83287   1.181   0.762  11.605  0.1565  0.1621 -0.3815
  631MOL0     H83288   1.300   0.840  11.331  0.2125  1.3977  0.1246
  631MOL0     H83289   1.334   0.923  11.486  1.0378  0.1926 -0.0407
  631MOL0     H83290   1.642   0.660  11.468 -1.1566  0.1066 -0.7695
  631MOL0     H83291   0.760   0.971  11.230  1.6183 -0.3038  0.9573
  631MOL0     H83292   0.592   1.126  11.228 -0.7154  0.6255 -2.0969
  632MOL0     O83293  10.834   9.777   2.022  0.1982  0.4719  0.2482
  632MOL0     C83294  10.779   9.748   1.919  0.3206 -0.3720 -0.1858
  632MOL0     O83295  10.650   9.769   1.893  0.0303  0.5929  0.4566
  632MOL0     C83296  10.567   9.814   1.986  0.2893 -0.6842 -0.4385
  632MOL0     C83297  10.478   9.728   2.041 -0.2252  0.2227  0.1647
  632MOL0     C83298  10.376   9.779   2.121 -0.0149 -0.1775 -0.1785
  632MOL0     C83299  10.372   9.916   2.156  0.5791 -0.6235  0.0807
  632MOL0     O83300  10.287   9.967   2.253  0.6271  0.6578 -0.4079
  632MOL0     C83301  10.153   9.923   2.252 -0.2619  0.1330 -0.0011
  632MOL0     C83302  10.081   9.960   2.120  0.8314 -0.1098  0.1062
  632MOL0     C83303   9.934   9.917   2.145 -0.7012 -0.9126  0.3940
  632MOL0     C83304   9.841   9.983   2.051 -0.0014  0.6112  0.4001
  632MOL0     C83305   9.698   9.928   2.059  0.2958 -0.1175 -0.4936
  632MOL0     C83306   9.605  10.027   1.976  0.2665 -1.7750  0.3738
  632MOL0     C83307   9.456   9.991   2.000 -0.3407 -0.5277  0.7814
  632MOL0     C83308   9.372  10.091   1.919  0.5375 -0.6361  0.9038
  632MOL0     N83309   9.227  10.046   1.918 -0.6180 -0.7860 -0.9512
  632MOL0     C83310   9.133  10.077   2.015 -0.7535 -0.0522 -0.2231
  632MOL0     C83311   9.016  10.028   1.967  0.1778  0.1762  0.8202
  632MOL0     C83312   8.881  10.033   2.025 -0.2511  0.9147  0.3041
  632MOL0     C83313   8.778  10.038   1.912  0.6874  0.9233 -1.0070
  632MOL0     C83314   8.636  10.042   1.967 -0.3621  0.2294  0.1898
  632MOL0     C83315   8.535  10.078   1.861  0.2108  0.4531 -0.2412
  632MOL0     O83316   8.410  10.022   1.910 -0.5271  0.5673 -0.9560
  632MOL0     C83317   8.292  10.046   1.846 -0.3579 -0.4155 -0.0074
  632MOL0     C83318   8.279  10.125   1.732  0.1231  0.1320  0.5524
  632MOL0     C83319   8.145  10.136   1.681  0.8635 -0.4068 -0.5411
  632MOL0     C83320   8.027  10.090   1.745  0.0257 -0.5207 -0.0107
  632MOL0     C83321   7.895  10.107   1.686  1.3035  0.7369  0.4008
  632MOL0     O83322   7.796  10.018   1.726  0.4324 -0.3419  0.5391
  632MOL0     C83323   7.673  10.047   1.686  0.0068  0.1130 -0.2466
  632MOL0     C83324   7.574  10.086   1.774  0.9158  0.1472 -0.3216
  632MOL0     C83325   7.440  10.083   1.734 -0.0814  1.3077  1.2160
  632MOL0     C83326   7.402  10.068   1.598  0.4939  0.1678 -0.2849
  632MOL0     O83327   7.270  10.094   1.558 -0.0186  0.1545 -0.1233
  632MOL0     C83328   7.188   9.972   1.565  0.0574  0.1030  1.1706
  632MOL0     C83329   7.083   9.975   1.455 -0.3954 -0.3714  0.2403
  632MOL0     C83330   7.028   9.828   1.442 -0.0323  0.3058 -0.6875
  632MOL0     C83331   6.918   9.806   1.339 -0.6667 -0.7196 -0.0500
  632MOL0     C83332   6.876   9.652   1.330  0.0829 -0.2475  0.6252
  632MOL0     C83333   6.833   9.609   1.189  0.4819 -0.0752  1.0334
  632MOL0     C83334   6.750   9.707   1.109  0.5450 -0.0932  0.6268
  632MOL0     C83335   6.694   9.636   0.980  0.0250  0.2516 -0.6630
  632MOL0    Cl83336   6.577   9.519   1.042 -0.1765  0.0812  0.3200
  632MOL0     C83337   7.500  10.019   1.511 -0.2881  0.6385  0.2337
  632MOL0     C83338   7.634  10.007   1.553  0.5715 -0.0963 -0.0900
  632MOL0     O83339   7.873  10.203   1.613 -0.1344 -0.4531 -0.3477
  632MOL0     C83340   8.046  10.032   1.863 -0.9305  0.6030 -0.2719
  632MOL0     C83341   8.178   9.998   1.904  0.5354  0.1701 -0.6912
  632MOL0     N83342   9.035   9.987   1.835  0.5356  0.4349 -0.2136
  632MOL0     N83343   9.157  10.001   1.807 -0.1305  0.4615 -0.4285
  632MOL0     C83344  10.465  10.000   2.088 -0.4185 -0.1542 -0.4904
  632MOL0     C83345  10.565   9.952   2.003 -0.4378 -0.3821  0.3381
  632MOL0     C83346  10.851   9.672   1.824 -1.3684  0.2992 -0.7879
  632MOL0     C83347  10.779   9.591   1.739  1.1837 -0.0691 -0.0024
  632MOL0     C83348  10.850   9.513   1.648 -0.5744 -0.3356 -0.2115
  632MOL0     C83349  10.994   9.516   1.644 -0.5041  0.6358 -0.9494
  632MOL0     O83350  11.079   9.457   1.552 -0.6506 -0.2877 -0.0805
  632MOL0     C83351  11.029   9.376   1.448  0.0176  0.4832  0.5226
  632MOL0     C83352  10.939   9.435   1.343 -1.0912 -0.3740  0.4847
  632MOL0     C83353  10.982   9.377   1.204 -0.0580  0.6080 -0.2084
  632MOL0     C83354  11.011   9.222   1.192 -0.6768  1.1850  0.2983
  632MOL0     C83355  10.976   9.166   1.061 -0.4822 -0.7594 -0.2168
  632MOL0     C83356  10.940   9.133   0.947 -0.3644  0.0992  0.1287
  632MOL0     C83357  11.056   9.590   1.737 -0.0940  0.5723  0.2878
  632MOL0     C83358  10.991   9.679   1.817  0.1815  0.2111  0.2598
  632MOL0     H83359  10.488   9.621   2.026  2.0497  0.3737  0.2354
  632MOL0     H83360  10.324   9.715   2.191 -0.7111  0.9999  0.4179
  632MOL0     H83361  10.103   9.979   2.331  0.9155 -1.5560  2.0296
  632MOL0     H83362  10.137   9.820   2.284  0.6902  0.0269  0.1600
  632MOL0     H83363  10.135   9.909   2.040 -0.1070 -0.9275 -0.0163
  632MOL0     H83364  10.089  10.062   2.080 -0.9508 -0.2721 -0.7405
  632MOL0     H83365   9.891   9.950   2.240 -2.5998  0.5286 -0.8666
  632MOL0     H83366   9.921   9.808   2.149 -1.6587 -0.8320 -0.0434
  632MOL0     H83367   9.828  10.091   2.058 -3.3484  0.5543 -2.3625
  632MOL0     H83368   9.883   9.948   1.956 -0.1373 -1.4671  1.0546
  632MOL0     H83369   9.660   9.927   2.161  0.4662 -0.3818 -0.4307
  632MOL0     H83370   9.698   9.835   2.001 -0.3102  0.0504 -0.7746
  632MOL0     H83371   9.628  10.018   1.870 -0.3662 -2.7808  0.3075
  632MOL0     H83372   9.620  10.129   2.013  0.8092 -1.8831  0.4630
  632MOL0     H83373   9.428   9.898   1.948  2.6834  0.3815 -2.9159
  632MOL0     H83374   9.437   9.990   2.108  0.0466  1.9094  0.9221
  632MOL0     H83375   9.399  10.102   1.814 -1.4831  0.4011  0.4352
  632MOL0     H83376   9.379  10.191   1.963 -0.0148 -1.3714  2.7386
  632MOL0     H83377   9.152  10.122   2.112 -2.8841 -2.7427  1.5943
  632MOL0     H83378   8.876  10.126   2.082  0.1077  1.1681 -0.0709
  632MOL0     H83379   8.879   9.947   2.092  1.6158  0.3913 -0.2497
  632MOL0     H83380   8.797   9.949   1.851  0.1307 -1.7364  2.4110
  632MOL0     H83381   8.783  10.132   1.857  1.3353  1.2505 -0.4035
  632MOL0     H83382   8.619   9.943   2.011  3.7074 -0.8142 -0.2101
  632MOL0     H83383   8.638  10.109   2.054  0.1011 -0.9137  1.0980
  632MOL0     H83384   8.555  10.017   1.773 -1.0454 -2.9671  1.6653
  632MOL0     H83385   8.526  10.186   1.842  0.1656  0.2428 -1.4642
  632MOL0     H83386   8.366  10.154   1.675 -1.5052 -0.8654 -2.7123
  632MOL0     H83387   8.128  10.189   1.588 -4.1711 -0.2270  0.1533
  632MOL0     H83388   7.595  10.118   1.876 -2.4147  2.2815 -0.1608
  632MOL0     H83389   7.366  10.116   1.805 -1.1569  1.6191 -0.0065
  632MOL0     H83390   7.137   9.977   1.662 -3.1256  0.7526 -0.4110
  632MOL0     H83391   7.259   9.889   1.556  1.1653  1.2019 -0.9912
  632MOL0     H83392   7.122  10.003   1.357 -4.1186 -1.7721 -1.8670
  632MOL0     H83393   6.991  10.029   1.480 -1.4959 -2.0316 -0.0199
  632MOL0     H83394   7.001   9.790   1.541  2.1036 -1.0471 -0.5582
  632MOL0     H83395   7.113   9.770   1.406 -1.2103 -1.9290 -0.0578
  632MOL0     H83396   6.827   9.866   1.350 -1.9875 -2.5068 -0.6785
  632MOL0     H83397   6.954   9.852   1.247  0.6876  0.6163  1.0954
  632MOL0     H83398   6.792   9.632   1.397 -0.7936  1.4315  0.0830
  632MOL0     H83399   6.963   9.595   1.364 -0.1972 -0.5633  0.8318
  632MOL0     H83400   6.777   9.515   1.197 -3.3060  1.9114  0.2606
  632MOL0     H83401   6.915   9.591   1.119  1.5895  1.3148  1.9328
  632MOL0     H83402   6.672   9.758   1.166  0.6515 -0.6725  1.3091
  632MOL0     H83403   6.825   9.781   1.078  2.4331 -0.5311  3.6452
  632MOL0     H83404   6.766   9.572   0.928 -0.5241 -1.6403  0.8055
  632MOL0     H83405   6.644   9.710   0.917  0.7009  1.2636 -0.0296
  632MOL0     H83406   7.473   9.978   1.414  1.0804 -0.5249  0.3042
  632MOL0     H83407   7.711   9.963   1.490  3.0501  0.8708  2.0625
  632MOL0     H83408   7.967   9.993   1.926 -1.5756  4.2672  1.4409
  632MOL0     H83409   8.195   9.938   1.993  1.4401  0.6132 -0.5591
  632MOL0     H83410  10.451  10.107   2.102 -0.3632 -0.4160  1.9997
  632MOL0     H83411  10.640  10.021   1.967  0.5884 -1.7066 -0.1908
  632MOL0     H83412  10.673   9.580   1.757  1.7012 -1.0036  3.0473
  632MOL0     H83413  10.792   9.437   1.597 -0.6152  0.2570 -1.0703
  632MOL0     H83414  10.976   9.290   1.490  1.0675 -0.0150  0.8738
  632MOL0     H83415  11.117   9.335   1.399 -1.9043 -2.3772 -0.7645
  632MOL0     H83416  10.837   9.402   1.364 -1.8578  1.9024  0.5853
  632MOL0     H83417  10.946   9.544   1.335  1.6495 -0.4902  0.2748
  632MOL0     H83418  11.072   9.432   1.175  0.0489  1.4940  1.6730
  632MOL0     H83419  10.908   9.410   1.130 -0.8668 -0.0859  0.2650
  632MOL0     H83420  11.117   9.203   1.214 -0.8688  0.1822  0.3749
  632MOL0     H83421  10.946   9.168   1.261  0.6613 -5.1947 -2.6737
  632MOL0     H83422  10.927   9.094   0.848 -0.9203  0.8224 -0.0978
  632MOL0     H83423  11.164   9.587   1.754 -0.6980  0.4081  5.9466
  632MOL0     H83424  11.049   9.745   1.881  0.0795 -0.5274  1.1363
  633MOL0     O83425   7.950   6.116   7.547  0.6643 -0.1886  0.8235
  633MOL0     C83426   7.980   6.181   7.447  0.0406 -0.3189  0.8708
  633MOL0     O83427   7.896   6.198   7.335 -0.4669 -0.0141  0.0438
  633MOL0     C83428   7.766   6.141   7.339 -0.7158 -0.0286  0.8153
  633MOL0     C83429   7.662   6.161   7.428 -0.1902 -0.4176 -0.3297
  633MOL0     C83430   7.532   6.101   7.416  0.4044  0.3838 -0.2842
  633MOL0     C83431   7.506   6.017   7.303 -0.0987  0.4997 -0.2046
  633MOL0     O83432   7.385   5.943   7.292  0.3475  0.0164  0.2525
  633MOL0     C83433   7.330   5.908   7.161 -0.6032 -0.0235  0.8519
  633MOL0     C83434   7.232   6.008   7.110 -0.0255  0.0941 -0.4218
  633MOL0     C83435   7.115   5.946   7.044  0.1989  0.0852 -0.4937
  633MOL0     C83436   7.009   6.057   7.011  0.9808  0.4781  0.3418
  633MOL0     C83437   6.937   6.038   6.877 -0.0878 -0.6075  0.0977
  633MOL0     C83438   6.847   6.165   6.846 -0.7274  0.2754  0.3123
  633MOL0     C83439   6.768   6.161   6.707  0.0391  0.1721 -0.4893
  633MOL0     C83440   6.660   6.274   6.707 -0.6499 -0.2673 -0.6077
  633MOL0     N83441   6.536   6.209   6.730  0.4378 -0.5954 -0.8091
  633MOL0     C83442   6.437   6.202   6.632 -0.0390 -1.0286 -0.1866
  633MOL0     C83443   6.325   6.150   6.691 -0.3360  0.5573 -0.5375
  633MOL0     C83444   6.193   6.121   6.620  0.5882  0.7371 -0.3456
  633MOL0     C83445   6.100   6.239   6.633  0.9564  0.2964 -0.2149
  633MOL0     C83446   5.983   6.216   6.538 -0.0878 -0.0820  0.0820
  633MOL0     C83447   5.853   6.287   6.589  0.0395 -0.1089  0.3237
  633MOL0     O83448   5.792   6.204   6.680 -0.2750 -0.2217  0.7154
  633MOL0     C83449   5.654   6.197   6.663  0.7867  0.3451 -0.7821
  633MOL0     C83450   5.568   6.304   6.640  0.2102  0.1748 -0.5288
  633MOL0     C83451   5.426   6.287   6.636 -0.1469  0.0115  0.0592
  633MOL0     C83452   5.371   6.162   6.645  0.0637 -0.8080 -0.9990
  633MOL0     C83453   5.228   6.147   6.619  0.5055  0.0996  0.4607
  633MOL0     O83454   5.156   6.243   6.558 -0.6922  0.0111 -0.6503
  633MOL0     C83455   5.023   6.249   6.544 -1.0526 -0.4329  0.0979
  633MOL0     C83456   4.970   6.301   6.426 -1.0323  0.5871  0.5957
  633MOL0     C83457   4.834   6.292   6.407  0.3183  0.1698  0.2238
  633MOL0     C83458   4.747   6.249   6.502  0.2355  0.3941 -0.8433
  633MOL0     O83459   4.615   6.251   6.473 -0.0905  0.1573 -0.0455
  633MOL0     C83460   4.522   6.154   6.534  0.8068  0.8394 -0.0543
  633MOL0     C83461   4.446   6.236   6.643 -0.7535  0.0774  0.1681
  633MOL0     C83462   4.303   6.192   6.672  0.3879 -0.5470  0.0880
  633MOL0     C83463   4.201   6.220   6.561  0.3911 -0.7090  0.4286
  633MOL0     C83464   4.050   6.203   6.615 -0.0202  0.5713  0.5216
  633MOL0     C83465   3.960   6.169   6.487  0.5019  1.3048  0.1655
  633MOL0     C83466   3.820   6.110   6.541  1.0165  1.1106 -0.4664
  633MOL0     C83467   3.748   6.211   6.622 -0.1861  0.1146 -0.1661
  633MOL0    Cl83468   3.745   6.358   6.524  0.4106 -0.1501 -0.1334
  633MOL0     C83469   4.803   6.205   6.625  1.2530  0.2655 -0.0189
  633MOL0     C83470   4.938   6.210   6.646 -0.0343 -1.1831  0.1676
  633MOL0     O83471   5.178   6.038   6.656 -0.4465  0.0626  0.3413
  633MOL0     C83472   5.451   6.046   6.688 -0.5574 -0.3888  0.7183
  633MOL0     C83473   5.591   6.075   6.687  0.1236 -0.4166 -0.3119
  633MOL0     N83474   6.352   6.142   6.831 -0.1090  0.6283  0.1937
  633MOL0     N83475   6.488   6.163   6.846 -0.6003  0.0825  0.3890
  633MOL0     C83476   7.617   5.997   7.216  0.1010  0.3301 -0.3946
  633MOL0     C83477   7.740   6.064   7.224  0.1207 -0.3168  0.7213
  633MOL0     C83478   8.109   6.243   7.438  0.1328  0.1551  0.1545
  633MOL0     C83479   8.131   6.345   7.348 -0.3778  1.0084 -0.1251
  633MOL0     C83480   8.270   6.381   7.311  0.0916  1.3889  0.8014
  633MOL0     C83481   8.376   6.343   7.401  0.2066  0.0586 -0.2366
  633MOL0     O83482   8.493   6.402   7.383 -0.4131  0.6154 -0.1716
  633MOL0     C83483   8.607   6.356   7.451 -0.3953  0.1474  0.2774
  633MOL0     C83484   8.698   6.257   7.379 -0.4790  0.1909  0.4058
  633MOL0     C83485   8.845   6.247   7.425  0.0411 -0.0985 -0.6782
  633MOL0     C83486   8.933   6.180   7.311 -0.6733 -0.0068 -0.6515
  633MOL0     C83487   8.946   6.268   7.187 -0.4615  0.3523 -0.4197
  633MOL0     C83488   8.936   6.326   7.088 -0.7465 -0.4353 -1.0675
  633MOL0     C83489   8.339   6.263   7.518  0.1414 -0.4933  0.0158
  633MOL0     C83490   8.211   6.195   7.520  0.6273 -0.3907  0.1993
  633MOL0     H83491   7.690   6.202   7.525 -2.7676 -1.5617  0.9908
  633MOL0     H83492   7.466   6.102   7.503  0.2390  1.8650 -0.4068
  633MOL0     H83493   7.273   5.815   7.167 -2.6027  1.0978 -0.1741
  633MOL0     H83494   7.400   5.899   7.078 -0.0956  2.9527  0.8455
  633MOL0     H83495   7.276   6.086   7.046  1.8096  0.7737  1.5655
  633MOL0     H83496   7.198   6.061   7.200  1.8712 -0.4234  0.6444
  633MOL0     H83497   7.057   5.883   7.111 -0.2923  1.2324  0.1984
  633MOL0     H83498   7.154   5.888   6.960 -0.5851  0.9479 -1.4800
  633MOL0     H83499   6.935   6.069   7.091  2.5981  2.7634  1.6030
  633MOL0     H83500   7.062   6.150   6.991 -0.2323  1.1278  0.0902
  633MOL0     H83501   6.892   5.938   6.879 -1.9427  0.1826  1.2409
  633MOL0     H83502   7.008   6.043   6.794  1.9653  2.0431  1.8790
  633MOL0     H83503   6.915   6.250   6.832  3.2063 -2.5871  0.2155
  633MOL0     H83504   6.787   6.168   6.937  1.3198 -1.3321  1.8345
  633MOL0     H83505   6.828   6.176   6.617 -2.4139  0.9431 -2.1032
  633MOL0     H83506   6.715   6.067   6.692  2.4672 -0.8169 -3.9510
  633MOL0     H83507   6.673   6.303   6.602 -2.1966  0.5856 -0.5944
  633MOL0     H83508   6.689   6.355   6.774 -0.4206 -0.5816 -0.3282
  633MOL0     H83509   6.457   6.235   6.530  2.4506 -1.1346  0.2075
  633MOL0     H83510   6.143   6.041   6.675 -3.0945  3.0935  0.1077
  633MOL0     H83511   6.207   6.081   6.519  3.1742  1.8112 -0.4788
  633MOL0     H83512   6.153   6.333   6.616 -2.1688  2.1772 -0.3684
  633MOL0     H83513   6.065   6.233   6.737 -0.3873 -2.5260 -0.7184
  633MOL0     H83514   6.018   6.253   6.441  1.9282 -0.0625  0.7734
  633MOL0     H83515   5.966   6.109   6.527  1.9830 -0.4190 -0.2449
  633MOL0     H83516   5.782   6.294   6.506 -1.4465 -0.1812  1.5401
  633MOL0     H83517   5.874   6.384   6.633  0.0598 -1.5812  3.8595
  633MOL0     H83518   5.618   6.399   6.626  2.1863 -0.2577  2.7000
  633MOL0     H83519   5.362   6.373   6.622 -0.0010  0.1035 -0.0303
  633MOL0     H83520   5.030   6.344   6.346 -1.3027 -0.0588  0.0376
  633MOL0     H83521   4.786   6.326   6.315 -2.9419 -0.4999  1.5446
  633MOL0     H83522   4.565   6.065   6.582 -2.7942 -0.5367  0.9065
  633MOL0     H83523   4.453   6.119   6.458  0.9261  1.1440 -0.3073
  633MOL0     H83524   4.447   6.341   6.610 -0.2701  0.7859  2.2658
  633MOL0     H83525   4.503   6.240   6.736  0.4641  0.1764 -0.5642
  633MOL0     H83526   4.269   6.240   6.764  1.7814 -0.8416  0.7827
  633MOL0     H83527   4.300   6.085   6.694 -0.0681 -0.1965  1.9217
  633MOL0     H83528   4.219   6.320   6.520 -1.2651 -0.0007  1.3029
  633MOL0     H83529   4.226   6.155   6.477  0.7454 -0.1101  0.0602
  633MOL0     H83530   4.018   6.293   6.669 -4.2819 -0.5754  0.3184
  633MOL0     H83531   4.052   6.118   6.683 -2.6950 -1.1213 -1.3242
  633MOL0     H83532   3.996   6.086   6.425 -1.7396 -0.7556  1.4544
  633MOL0     H83533   3.943   6.259   6.426 -2.2425  0.8865  0.2077
  633MOL0     H83534   3.750   6.087   6.460 -1.5227  1.2474  1.5543
  633MOL0     H83535   3.838   6.018   6.598  0.8837  0.4247 -1.4933
  633MOL0     H83536   3.796   6.243   6.715  1.5590  0.9881 -1.3210
  633MOL0     H83537   3.644   6.176   6.629 -1.0998  2.8594  1.5217
  633MOL0     H83538   4.735   6.172   6.703 -4.5664  3.7875 -2.8524
  633MOL0     H83539   4.974   6.167   6.739 -0.5405 -3.7034 -0.7393
  633MOL0     H83540   5.404   5.949   6.695 -0.3532 -0.4542  1.2315
  633MOL0     H83541   5.643   5.983   6.711 -3.3597 -2.6072 -0.4683
  633MOL0     H83542   7.594   5.924   7.139 -1.3572  0.8150 -0.4606
  633MOL0     H83543   7.826   6.061   7.159  0.5981  1.7542  1.1738
  633MOL0     H83544   8.042   6.397   7.313 -0.3956  2.5023  1.9558
  633MOL0     H83545   8.287   6.448   7.228  0.1074 -3.0142 -3.1704
  633MOL0     H83546   8.581   6.316   7.549  0.2063  0.2295  0.4755
  633MOL0     H83547   8.663   6.450   7.465  2.3782 -0.9569 -2.2353
  633MOL0     H83548   8.655   6.157   7.369 -1.5197  0.5920  0.7216
  633MOL0     H83549   8.711   6.299   7.278  1.6970  1.6662  1.2342
  633MOL0     H83550   8.844   6.187   7.517  0.5020 -0.5124 -0.9430
  633MOL0     H83551   8.889   6.343   7.456  0.3965 -0.2442 -0.7348
  633MOL0     H83552   9.034   6.171   7.352 -1.1063  1.3733  0.8324
  633MOL0     H83553   8.883   6.086   7.284 -0.2515 -0.9915  1.7802
  633MOL0     H83554   8.923   6.383   6.998  0.9635  1.7903  0.0071
  633MOL0     H83555   8.407   6.245   7.601 -0.2522 -1.1309  0.2100
  633MOL0     H83556   8.194   6.111   7.586  1.1372  0.2559  1.1842
  634MOL0     O83557   9.197   9.351   1.511 -0.2264  0.4613 -0.0999
  634MOL0     C83558   9.201   9.245   1.576  0.2368  0.5936  0.4275
  634MOL0     O83559   9.313   9.198   1.646 -0.7267  0.7154  0.5829
  634MOL0     C83560   9.415   9.283   1.667 -1.0481 -0.1740 -0.3029
  634MOL0     C83561   9.416   9.358   1.790  0.4005  0.0245 -0.9554
  634MOL0     C83562   9.524   9.433   1.827 -0.0208  0.9793 -0.0144
  634MOL0     C83563   9.626   9.457   1.733  0.2765  0.6934 -0.2795
  634MOL0     O83564   9.728   9.540   1.771  0.7039 -0.2284  0.3400
  634MOL0     C83565   9.794   9.624   1.670 -0.3425 -0.3815  0.6954
  634MOL0     C83566   9.728   9.755   1.626 -0.5233  0.5978  0.9386
  634MOL0     C83567   9.581   9.758   1.584  0.5686 -0.4973  0.3613
  634MOL0     C83568   9.535   9.901   1.547  0.3830 -0.1843  0.5632
  634MOL0     C83569   9.375   9.896   1.549 -0.0599 -1.1683  0.1080
  634MOL0     C83570   9.302   9.793   1.466  0.1931  1.1315  0.7591
  634MOL0     C83571   9.157   9.836   1.439  0.0185 -0.3247 -0.6340
  634MOL0     C83572   9.087   9.720   1.364 -0.2693 -0.9498  0.7638
  634MOL0     N83573   8.953   9.757   1.330 -0.3294 -0.1100  0.8085
  634MOL0     C83574   8.858   9.802   1.417  0.5514 -0.2265  0.6254
  634MOL0     C83575   8.753   9.848   1.341 -0.6981  0.1684  0.2129
  634MOL0     C83576   8.616   9.878   1.405 -0.4441 -0.1650 -0.2189
  634MOL0     C83577   8.515   9.943   1.312  0.0874  0.4081 -1.1498
  634MOL0     C83578   8.387   9.967   1.398 -0.0068 -0.7286  0.0291
  634MOL0     C83579   8.287   9.864   1.374  0.2754 -0.2325 -0.0374
  634MOL0     O83580   8.227   9.904   1.252  0.0158  0.0921  0.0782
  634MOL0     C83581   8.091   9.872   1.233  0.0043 -0.7950  0.7564
  634MOL0     C83582   8.028   9.909   1.119  0.1003  0.1240  0.1413
  634MOL0     C83583   7.894   9.901   1.098 -0.5389 -0.7066 -0.2131
  634MOL0     C83584   7.810   9.833   1.193  0.0214  0.0311  0.6503
  634MOL0     C83585   7.670   9.813   1.171 -0.2992  0.9834  0.5214
  634MOL0     O83586   7.610   9.870   1.066 -0.5819 -0.1359 -0.0808
  634MOL0     C83587   7.482   9.852   1.041 -0.2124 -0.4600  0.4452
  634MOL0     C83588   7.370   9.857   1.125 -0.9463  0.2411  0.3389
  634MOL0     C83589   7.240   9.840   1.078 -0.3338 -0.2842 -0.2373
  634MOL0     C83590   7.217   9.808   0.946  0.6793 -0.3076  0.7671
  634MOL0     O83591   7.090   9.791   0.901 -0.3039 -0.2265  0.0260
  634MOL0     C83592   7.048   9.846   0.772  0.0779 -0.3242 -0.5663
  634MOL0     C83593   6.902   9.878   0.783  0.6567  0.2195 -0.4484
  634MOL0     C83594   6.867   9.971   0.902 -0.1158  0.4507 -0.8658
  634MOL0     C83595   6.719  10.016   0.922 -0.4695  0.3730 -0.6028
  634MOL0     C83596   6.684  10.079   1.056 -0.7552 -0.3590  0.3660
  634MOL0     C83597   6.557  10.160   1.057 -1.0323  0.0308 -0.3320
  634MOL0     C83598   6.560  10.277   1.159 -0.3060 -0.0564 -1.2836
  634MOL0     C83599   6.420  10.323   1.150 -0.1067 -0.1399 -0.1233
  634MOL0    Cl83600   6.379  10.427   1.295 -0.0853 -0.4486  0.9734
  634MOL0     C83601   7.326   9.811   0.858 -0.0741  0.6196  0.5654
  634MOL0     C83602   7.454   9.827   0.910  0.3854  0.7203  0.5717
  634MOL0     O83603   7.613   9.742   1.259  0.1980 -0.1612  0.0688
  634MOL0     C83604   7.875   9.776   1.301 -0.6469 -0.1347  0.2932
  634MOL0     C83605   8.018   9.791   1.316 -0.0444 -0.1930 -0.0278
  634MOL0     N83606   8.785   9.830   1.206 -0.3383 -0.3226  0.0593
  634MOL0     N83607   8.911   9.788   1.203 -0.8411 -0.5255  0.2287
  634MOL0     C83608   9.611   9.402   1.604 -0.8685 -1.6234 -0.0301
  634MOL0     C83609   9.505   9.314   1.567 -0.9359 -0.4805 -0.0667
  634MOL0     C83610   9.082   9.151   1.562  0.3949 -0.2562  0.2543
  634MOL0     C83611   9.094   9.021   1.611  0.0186 -0.5070 -0.0338
  634MOL0     C83612   8.981   8.935   1.604 -0.2756 -0.5813 -0.2624
  634MOL0     C83613   8.859   8.972   1.545  0.3836 -1.1146  1.0717
  634MOL0     O83614   8.746   8.896   1.515  0.6008 -0.4210  0.2473
  634MOL0     C83615   8.766   8.754   1.516 -0.4961  0.0181  0.5461
  634MOL0     C83616   8.632   8.676   1.496  0.5221 -0.0104  0.0605
  634MOL0     C83617   8.525   8.710   1.599 -0.2112 -1.0231  0.0363
  634MOL0     C83618   8.396   8.658   1.546 -0.2023  0.4182 -0.2865
  634MOL0     C83619   8.293   8.630   1.650 -0.3959  0.1272  0.0324
  634MOL0     C83620   8.229   8.610   1.753  0.2870 -0.6177  0.2084
  634MOL0     C83621   8.860   9.102   1.492  0.9741  0.3128 -0.1683
  634MOL0     C83622   8.967   9.189   1.500 -0.8379  0.6686  0.1354
  634MOL0     H83623   9.331   9.346   1.857  0.1587  1.5523 -0.9631
  634MOL0     H83624   9.520   9.491   1.919 -5.8732  0.4401  0.4116
  634MOL0     H83625   9.815   9.559   1.584  0.9324 -3.0274  2.8297
  634MOL0     H83626   9.889   9.647   1.720 -1.0965  0.0086  1.9841
  634MOL0     H83627   9.788   9.787   1.541 -0.0532 -0.2021  0.9621
  634MOL0     H83628   9.744   9.829   1.705  0.6647  0.3797  0.9142
  634MOL0     H83629   9.521   9.724   1.670 -0.3362  0.7346  0.2505
  634MOL0     H83630   9.565   9.686   1.504  0.7962 -0.9528  0.7223
  634MOL0     H83631   9.567   9.979   1.616  0.0597 -1.6435  2.4442
  634MOL0     H83632   9.574   9.933   1.450  0.8589 -2.7004 -0.1595
  634MOL0     H83633   9.357   9.989   1.494  1.6353 -1.2454 -0.6218
  634MOL0     H83634   9.337   9.909   1.651  1.2542  2.1534  0.3037
  634MOL0     H83635   9.290   9.702   1.527  1.2208  0.6285  0.2279
  634MOL0     H83636   9.367   9.765   1.383 -0.1578  2.2790  0.0816
  634MOL0     H83637   9.118   9.858   1.538  1.1836  1.6810 -0.5732
  634MOL0     H83638   9.157   9.927   1.378  2.3144 -0.3165 -0.7126
  634MOL0     H83639   9.084   9.627   1.422 -1.4564 -1.7425 -0.5177
  634MOL0     H83640   9.145   9.698   1.273 -0.1998 -1.1630  0.8584
  634MOL0     H83641   8.862   9.804   1.526 -1.9845 -0.6685  0.7940
  634MOL0     H83642   8.626   9.946   1.490 -1.7538 -1.1318  0.7448
  634MOL0     H83643   8.578   9.782   1.440 -0.8140 -0.7037 -1.9717
  634MOL0     H83644   8.497   9.881   1.224  1.4380  3.7814 -4.0483
  634MOL0     H83645   8.551  10.039   1.276 -1.0752  0.9340 -0.9489
  634MOL0     H83646   8.417   9.971   1.503 -0.6455  0.2750  0.1847
  634MOL0     H83647   8.340  10.064   1.382  2.9537  1.0777  1.3849
  634MOL0     H83648   8.223   9.872   1.463  1.9556 -0.6327  1.2697
  634MOL0     H83649   8.314   9.759   1.361 -0.9046 -0.5866  0.2270
  634MOL0     H83650   8.089   9.964   1.048  1.3116 -1.3392  0.0004
  634MOL0     H83651   7.863   9.937   1.001 -0.8213  0.7173  0.3760
  634MOL0     H83652   7.398   9.884   1.227  0.5647  1.8049 -0.4399
  634MOL0     H83653   7.148   9.834   1.136 -0.4020 -1.8663 -0.4771
  634MOL0     H83654   7.064   9.778   0.688  1.3217  1.7184 -2.1117
  634MOL0     H83655   7.099   9.940   0.745 -1.0792  0.3146 -0.6165
  634MOL0     H83656   6.845   9.787   0.804  1.2668  0.2158  1.3721
  634MOL0     H83657   6.866   9.914   0.687 -1.9154  0.4474  0.5273
  634MOL0     H83658   6.917  10.063   0.872 -0.3715  0.4302 -1.3659
  634MOL0     H83659   6.910   9.942   0.998 -1.7386  0.8144  0.0084
  634MOL0     H83660   6.690  10.091   0.848  1.3930 -0.0697 -1.8644
  634MOL0     H83661   6.653   9.929   0.914 -0.2666  0.1448  0.0639
  634MOL0     H83662   6.764  10.145   1.090  0.7055 -1.6219 -0.4432
  634MOL0     H83663   6.667   9.996   1.125 -1.2152  0.7562  1.6247
  634MOL0     H83664   6.467  10.099   1.071 -1.2539  0.7121  1.4584
  634MOL0     H83665   6.547  10.208   0.959  0.1021 -1.2728 -1.1306
  634MOL0     H83666   6.579  10.233   1.257 -3.6092  0.5587 -0.2325
  634MOL0     H83667   6.642  10.345   1.138  2.6748 -2.8198  0.4469
  634MOL0     H83668   6.354  10.236   1.150 -0.5382  0.1782  0.4821
  634MOL0     H83669   6.416  10.379   1.056  3.6679  0.5229 -0.0701
  634MOL0     H83670   7.307   9.768   0.761 -0.4328 -0.5662  1.1348
  634MOL0     H83671   7.527   9.825   0.830 -2.4274  1.4874 -2.2229
  634MOL0     H83672   7.821   9.718   1.374 -0.5550 -1.7924 -0.8955
  634MOL0     H83673   8.081   9.736   1.384  1.3700  1.2195 -0.1254
  634MOL0     H83674   9.675   9.432   1.521  0.6395 -0.4192  1.4975
  634MOL0     H83675   9.491   9.259   1.474 -1.1799 -2.7225  1.2302
  634MOL0     H83676   9.188   8.982   1.650 -0.1295 -3.2847 -2.1629
  634MOL0     H83677   8.993   8.839   1.654 -0.2493  0.7751  2.5351
  634MOL0     H83678   8.804   8.737   1.617 -1.8002  2.5681  1.5291
  634MOL0     H83679   8.838   8.723   1.439 -1.7281 -1.0711 -0.2130
  634MOL0     H83680   8.592   8.688   1.395 -1.6974 -0.9736  0.7730
  634MOL0     H83681   8.660   8.571   1.508  0.2766 -0.1507 -0.6159
  634MOL0     H83682   8.522   8.817   1.619 -2.3408 -1.1060  0.3618
  634MOL0     H83683   8.551   8.662   1.693 -0.4682  2.7763  2.2258
  634MOL0     H83684   8.365   8.724   1.466 -0.5152  0.0605 -0.4651
  634MOL0     H83685   8.409   8.557   1.505  1.3062  0.1005  0.8764
  634MOL0     H83686   8.164   8.610   1.838 -3.1781 -0.8527 -2.2041
  634MOL0     H83687   8.766   9.131   1.446  1.3014 -0.6932 -1.5589
  634MOL0     H83688   8.963   9.296   1.483  0.8249  0.5439 -1.4108
  635MOL0     O83689  10.375   2.080   0.871 -0.0355  0.9153 -0.4140
  635MOL0     C83690  10.381   2.119   0.992 -0.3739  0.2812 -0.4754
  635MOL0     O83691  10.494   2.112   1.077 -0.7514  0.6699  0.3404
  635MOL0     C83692  10.597   2.036   1.032  0.2473 -0.3435  0.0113
  635MOL0     C83693  10.731   2.070   1.062 -0.2814  0.6355 -1.0841
  635MOL0     C83694  10.832   1.983   1.038 -0.1491 -0.0986 -0.8142
  635MOL0     C83695  10.808   1.857   0.984 -0.0502 -0.4227  1.1057
  635MOL0     O83696  10.915   1.783   0.946 -1.1776  0.4606  0.5625
  635MOL0     C83697  10.992   1.729   1.053  0.7551 -0.0908  0.4141
  635MOL0     C83698  11.028   1.584   1.040 -0.3805  0.1796  0.0505
  635MOL0     C83699  10.905   1.493   1.087 -0.1915 -0.3816  0.7519
  635MOL0     C83700  10.939   1.350   1.125 -0.1592 -0.8374 -0.4680
  635MOL0     C83701  11.038   1.338   1.238  0.0017  1.1250  0.5010
  635MOL0     C83702  11.024   1.189   1.287 -0.0889 -0.6179 -0.2653
  635MOL0     C83703  11.087   1.173   1.429 -0.9374 -0.1052  0.3734
  635MOL0     C83704  11.234   1.176   1.412 -0.8407 -0.2646 -0.2637
  635MOL0     N83705  11.302   1.173   1.547 -0.2754 -0.1151  1.1564
  635MOL0     C83706  11.351   1.286   1.611 -1.2996  0.5460 -0.4738
  635MOL0     C83707  11.409   1.237   1.718 -0.6773  0.3872 -0.4701
  635MOL0     C83708  11.467   1.325   1.823 -0.2660 -0.2056 -0.6429
  635MOL0     C83709  11.552   1.248   1.933  0.1180 -0.8313 -0.6124
  635MOL0     C83710  11.658   1.147   1.892  0.4345  0.1364  0.0771
  635MOL0     C83711  11.715   1.072   2.015  1.0003 -0.7345  0.2451
  635MOL0     O83712  11.818   0.985   1.977  0.4879 -0.0158  0.7767
  635MOL0     C83713  11.949   1.021   1.977 -0.9654  0.4559 -0.4187
  635MOL0     C83714  12.049   0.936   1.922 -0.5515 -0.3788 -0.1185
  635MOL0     C83715  12.189   0.972   1.927 -0.2687 -0.2648  0.4141
  635MOL0     C83716  12.240   1.097   1.970 -0.0166 -0.7629  0.2268
  635MOL0     C83717  12.382   1.139   1.967 -0.5730  0.0366  0.4073
  635MOL0     O83718  12.420   1.260   2.018 -0.9109 -0.5189  0.2561
  635MOL0     C83719  12.549   1.279   2.042  0.9383  0.3497 -0.5475
  635MOL0     C83720  12.587   1.314   2.167 -0.1582 -0.4655  0.2512
  635MOL0     C83721  12.720   1.344   2.204  0.1667  0.7233  0.5013
  635MOL0     C83722  12.815   1.350   2.096  0.5725  0.2708  0.0269
  635MOL0     O83723  12.953   1.377   2.114 -0.0057  0.1790 -0.8770
  635MOL0     C83724  13.021   1.297   2.215 -1.1967  0.3263  0.7129
  635MOL0     C83725  13.143   1.389   2.262  0.6287  0.0687 -0.5981
  635MOL0     C83726  13.215   1.444   2.138 -0.3566 -0.8480 -0.2034
  635MOL0     C83727  13.348   1.499   2.176 -0.0639 -0.7872  0.1504
  635MOL0     C83728  13.426   1.529   2.048 -0.0710  0.5669  0.5853
  635MOL0     C83729  13.572   1.566   2.081 -0.3544 -0.5115  0.0417
  635MOL0     C83730  13.582   1.705   2.154  0.6041 -0.0311  0.2965
  635MOL0     C83731  13.721   1.765   2.131 -0.5493 -0.5562  0.0048
  635MOL0    Cl83732  13.822   1.667   2.236  0.1550  0.2810 -0.5173
  635MOL0     C83733  12.774   1.329   1.969  0.2637  0.1562 -0.1477
  635MOL0     C83734  12.635   1.294   1.936  0.2025  0.0210 -0.2921
  635MOL0     O83735  12.458   1.051   1.925  1.0730 -0.7545 -0.2098
  635MOL0     C83736  12.139   1.178   2.028  0.6672 -0.1934 -0.7779
  635MOL0     C83737  12.004   1.144   2.033  0.8243  0.4497 -0.4885
  635MOL0     N83738  11.395   1.099   1.723 -0.8432 -0.0960  0.8587
  635MOL0     N83739  11.341   1.067   1.614  0.2745  0.2761 -0.0567
  635MOL0     C83740  10.680   1.821   0.959 -0.4016 -0.0118 -1.0269
  635MOL0     C83741  10.569   1.909   0.977 -0.4741 -0.1953 -0.0052
  635MOL0     C83742  10.256   2.152   1.061  0.8500 -0.0192 -1.0506
  635MOL0     C83743  10.133   2.164   0.996 -0.6290 -0.8373  0.1408
  635MOL0     C83744  10.014   2.180   1.066 -0.0051  0.6839 -0.7584
  635MOL0     C83745  10.020   2.195   1.208 -0.1263  0.7505  0.5336
  635MOL0     O83746   9.908   2.235   1.266  0.1096  0.1677 -0.2331
  635MOL0     C83747   9.907   2.260   1.401  0.5767  0.7484 -0.7495
  635MOL0     C83748   9.772   2.324   1.448 -0.9141 -0.8443 -0.2858
  635MOL0     C83749   9.647   2.276   1.375 -0.1847 -0.2242  0.8126
  635MOL0     C83750   9.524   2.328   1.443  0.2193 -0.0327  0.7180
  635MOL0     C83751   9.434   2.275   1.345  1.0415  0.9351 -0.5884
  635MOL0     C83752   9.355   2.227   1.271 -0.4169  0.0931 -0.1474
  635MOL0     C83753  10.145   2.196   1.271 -0.3502  0.1962 -0.9089
  635MOL0     C83754  10.259   2.164   1.203  0.6825 -0.3866 -0.5752
  635MOL0     H83755  10.767   2.161   1.107  1.7097 -1.8098  2.8258
  635MOL0     H83756  10.935   2.005   1.065 -0.4142  0.0368  0.1267
  635MOL0     H83757  10.939   1.744   1.147 -0.9551 -2.1896 -0.1406
  635MOL0     H83758  11.080   1.792   1.065 -0.8368  2.3842 -0.0551
  635MOL0     H83759  11.108   1.563   1.111 -1.2613 -0.4706  0.8790
  635MOL0     H83760  11.059   1.555   0.939  0.8939 -0.9314  0.7257
  635MOL0     H83761  10.827   1.504   1.012  0.4034  1.6704  0.3755
  635MOL0     H83762  10.855   1.529   1.177  0.0373  0.3139  0.6013
  635MOL0     H83763  10.844   1.304   1.152 -2.3459  4.1990  1.6168
  635MOL0     H83764  10.988   1.298   1.042 -0.0089  0.4416 -1.2159
  635MOL0     H83765  11.018   1.400   1.326 -1.5046  1.3412  0.0491
  635MOL0     H83766  11.141   1.360   1.210 -0.0300  1.1858  0.4296
  635MOL0     H83767  11.082   1.126   1.218 -0.7461 -2.8050  1.0781
  635MOL0     H83768  10.920   1.155   1.291  0.6574 -3.1466  3.1721
  635MOL0     H83769  11.047   1.258   1.484 -0.1343  0.9972 -0.6787
  635MOL0     H83770  11.059   1.080   1.479  0.5597  0.4205  2.3213
  635MOL0     H83771  11.276   1.250   1.343  1.4320  0.0663  1.3706
  635MOL0     H83772  11.253   1.080   1.363 -3.6424 -0.2882 -1.4820
  635MOL0     H83773  11.337   1.393   1.597 -0.8631  1.3218  3.7791
  635MOL0     H83774  11.384   1.373   1.875  0.8927  1.5226 -0.3048
  635MOL0     H83775  11.539   1.394   1.779  1.5574  0.1973  2.5848
  635MOL0     H83776  11.477   1.188   1.984  1.2217 -2.5563 -0.9161
  635MOL0     H83777  11.597   1.332   1.987 -1.9588  0.0311 -0.1593
  635MOL0     H83778  11.628   1.074   1.817 -0.6663 -1.2240  1.7587
  635MOL0     H83779  11.735   1.200   1.836 -1.2221 -0.3295 -2.8732
  635MOL0     H83780  11.635   1.006   2.048  0.3030 -0.2900 -0.5053
  635MOL0     H83781  11.746   1.142   2.093 -0.3938  1.1235 -0.7859
  635MOL0     H83782  12.022   0.839   1.882 -0.7082 -1.3669  2.2074
  635MOL0     H83783  12.258   0.907   1.874  0.3001  0.5464  0.1450
  635MOL0     H83784  12.513   1.306   2.246 -0.4881  1.6429  0.2061
  635MOL0     H83785  12.752   1.375   2.303 -1.2055 -3.2004  2.3447
  635MOL0     H83786  13.061   1.206   2.169  0.2334  1.0272  0.5045
  635MOL0     H83787  12.954   1.268   2.296 -2.6236 -1.3583 -0.9472
  635MOL0     H83788  13.225   1.341   2.317 -0.0864 -2.7441 -1.8004
  635MOL0     H83789  13.101   1.465   2.329  0.3635 -0.6875  0.1112
  635MOL0     H83790  13.159   1.521   2.085  1.1660  0.9011  0.6187
  635MOL0     H83791  13.238   1.360   2.072  0.2678 -1.5088  0.8203
  635MOL0     H83792  13.332   1.589   2.236  1.0656 -1.3806  1.3759
  635MOL0     H83793  13.399   1.427   2.240  0.5868 -0.0124  0.5219
  635MOL0     H83794  13.382   1.612   1.992 -0.3203 -0.5899 -0.9858
  635MOL0     H83795  13.432   1.436   1.992  0.6973  0.8485  0.1898
  635MOL0     H83796  13.640   1.571   1.995 -1.3542 -2.2632 -0.9186
  635MOL0     H83797  13.607   1.489   2.150 -0.5421 -0.3933  0.2700
  635MOL0     H83798  13.498   1.764   2.116 -1.3221  0.0363  4.1098
  635MOL0     H83799  13.557   1.699   2.261  2.3158 -0.7765  0.6779
  635MOL0     H83800  13.702   1.866   2.169 -0.1672 -1.0136  1.4737
  635MOL0     H83801  13.751   1.779   2.027  0.6535 -0.0472  0.4095
  635MOL0     H83802  12.847   1.343   1.890 -1.2872 -0.2040 -1.7245
  635MOL0     H83803  12.613   1.277   1.831  3.2575  0.3969 -1.0808
  635MOL0     H83804  12.169   1.275   2.067 -0.3732  0.3356 -1.2276
  635MOL0     H83805  11.931   1.221   2.055  0.4262  0.9340 -3.1504
  635MOL0     H83806  10.657   1.722   0.919 -1.8084 -0.1485  0.0526
  635MOL0     H83807  10.475   1.858   0.961 -0.1694 -0.9062  0.4170
  635MOL0     H83808  10.120   2.153   0.888 -1.8593  2.2155 -0.0977
  635MOL0     H83809   9.914   2.198   1.028 -1.5356 -1.4898  1.8775
  635MOL0     H83810   9.985   2.331   1.431  1.1162 -1.1423  3.0193
  635MOL0     H83811   9.921   2.165   1.454 -1.3125 -0.1689 -1.7987
  635MOL0     H83812   9.759   2.313   1.556  3.0776 -0.1037  0.4056
  635MOL0     H83813   9.782   2.429   1.422  2.3253 -0.8574  0.6020
  635MOL0     H83814   9.640   2.167   1.381  2.2695 -0.3776  3.0880
  635MOL0     H83815   9.655   2.293   1.267 -0.4038 -5.5140 -0.3355
  635MOL0     H83816   9.516   2.301   1.549 -1.8127 -0.0339  0.6169
  635MOL0     H83817   9.522   2.438   1.438 -2.1398  0.0018  1.1207
  635MOL0     H83818   9.296   2.164   1.208 -0.5108 -0.0820  0.1102
  635MOL0     H83819  10.160   2.225   1.375 -0.3113  0.8538 -1.0928
  635MOL0     H83820  10.349   2.173   1.262  0.2192 -0.8380  0.2112
  636MOL0     O83821   7.719   8.726   4.032  0.2112  0.3201  0.3652
  636MOL0     C83822   7.789   8.700   3.933  0.3212  0.8308  0.0811
  636MOL0     O83823   7.744   8.705   3.802 -0.1951 -0.2404  0.0015
  636MOL0     C83824   7.620   8.753   3.756  0.0671  0.4799  0.7581
  636MOL0     C83825   7.602   8.838   3.650 -0.1227 -0.1203  0.0820
  636MOL0     C83826   7.478   8.859   3.587  0.6186 -0.2957  0.8963
  636MOL0     C83827   7.360   8.800   3.641 -0.3460  0.3056 -0.2446
  636MOL0     O83828   7.232   8.833   3.610  0.0733 -0.0856  0.0373
  636MOL0     C83829   7.209   8.868   3.480  0.4451 -0.2671  0.0706
  636MOL0     C83830   7.050   8.861   3.464  0.6620  0.4271  0.5904
  636MOL0     C83831   6.999   8.714   3.433  0.8075 -0.9379 -0.8363
  636MOL0     C83832   7.016   8.660   3.295 -0.0105 -0.3113 -0.7188
  636MOL0     C83833   6.966   8.521   3.274  0.4805  0.3840 -0.2522
  636MOL0     C83834   7.057   8.409   3.325 -0.5825  0.4660  0.0194
  636MOL0     C83835   7.140   8.358   3.210 -0.4918  0.2622  0.4397
  636MOL0     C83836   7.061   8.273   3.109  0.0490 -0.8174  0.4286
  636MOL0     N83837   7.035   8.142   3.161  0.2430 -0.3010 -0.6246
  636MOL0     C83838   7.122   8.034   3.147  0.7963  0.2705  0.4614
  636MOL0     C83839   7.043   7.924   3.165 -0.8460 -1.1502 -0.2030
  636MOL0     C83840   7.108   7.792   3.180  1.0234  0.0710  0.0881
  636MOL0     C83841   7.230   7.781   3.262 -0.8061  0.5483  0.1050
  636MOL0     C83842   7.230   7.828   3.401  0.3038 -1.1003 -0.8296
  636MOL0     C83843   7.346   7.796   3.488 -0.0025 -0.4218  0.3587
  636MOL0     O83844   7.411   7.669   3.457  0.3091 -0.0660  1.2994
  636MOL0     C83845   7.538   7.652   3.511 -0.1901  0.5136 -0.4458
  636MOL0     C83846   7.611   7.750   3.582  0.5248 -0.0390 -0.6153
  636MOL0     C83847   7.747   7.736   3.614 -0.0910  0.6052  1.1324
  636MOL0     C83848   7.817   7.625   3.566  0.0218  0.1728  0.2774
  636MOL0     C83849   7.962   7.615   3.594 -0.0833 -0.2605  0.1905
  636MOL0     O83850   8.024   7.506   3.552  0.2185 -0.4746  0.5808
  636MOL0     C83851   8.161   7.505   3.563  0.0933  0.0668  0.1087
  636MOL0     C83852   8.235   7.550   3.452  0.6429  0.5946 -0.3960
  636MOL0     C83853   8.373   7.552   3.463  0.3759 -0.2121 -0.4721
  636MOL0     C83854   8.434   7.508   3.584 -0.6807 -0.4480 -0.4453
  636MOL0     O83855   8.574   7.519   3.589  0.4256  0.1142 -0.4713
  636MOL0     C83856   8.647   7.441   3.688 -0.3603 -0.5672  0.1750
  636MOL0     C83857   8.686   7.519   3.810  0.2139  0.0036 -0.1177
  636MOL0     C83858   8.810   7.455   3.882  1.4558 -0.1339  0.8659
  636MOL0     C83859   8.943   7.443   3.799 -0.3508  0.1204 -0.0004
  636MOL0     C83860   8.969   7.301   3.749  0.0920  0.0222  0.0749
  636MOL0     C83861   9.110   7.293   3.684  0.4326  0.6929  0.1283
  636MOL0     C83862   9.100   7.344   3.541 -0.7033 -0.4646  0.0364
  636MOL0     C83863   9.088   7.228   3.443 -0.0822 -0.7215  0.2574
  636MOL0    Cl83864   9.068   7.286   3.275  0.1385 -0.2760 -0.1728
  636MOL0     C83865   8.361   7.464   3.699 -0.4314  0.5200  0.0531
  636MOL0     C83866   8.221   7.457   3.677 -0.0935 -0.1312 -0.1125
  636MOL0     O83867   8.018   7.711   3.650 -0.4217  0.4971  0.3724
  636MOL0     C83868   7.741   7.527   3.503  0.0664  0.3670  0.3652
  636MOL0     C83869   7.607   7.540   3.479 -0.5163 -0.7025 -0.3930
  636MOL0     N83870   6.909   7.958   3.166  0.3813  0.0632 -0.4498
  636MOL0     N83871   6.908   8.086   3.168 -0.3992  0.0191  0.0690
  636MOL0     C83872   7.376   8.710   3.745 -0.4503  0.3232 -0.4427
  636MOL0     C83873   7.507   8.687   3.802 -1.2859 -0.2712  0.1068
  636MOL0     C83874   7.913   8.623   3.968  0.2538  0.4555  0.0467
  636MOL0     C83875   7.926   8.499   3.903  0.1548 -0.2952 -0.1116
  636MOL0     C83876   8.055   8.448   3.910  0.3598  0.4311 -0.0290
  636MOL0     C83877   8.156   8.495   3.991  0.7315 -0.0137 -0.8981
  636MOL0     O83878   8.272   8.424   4.006 -0.1025  0.3058  0.8998
  636MOL0     C83879   8.286   8.295   3.942 -0.2683  0.1424 -0.8847
  636MOL0     C83880   8.416   8.234   4.004 -0.8084  0.2567 -0.1733
  636MOL0     C83881   8.429   8.224   4.152  1.1632 -0.3740 -0.3923
  636MOL0     C83882   8.563   8.154   4.198 -0.9032  0.9092  0.4384
  636MOL0     C83883   8.691   8.210   4.147  0.9520  0.0166 -0.9872
  636MOL0     C83884   8.777   8.264   4.089 -0.0597 -0.4963  0.2630
  636MOL0     C83885   8.131   8.610   4.072 -0.5187 -0.0250  0.1211
  636MOL0     C83886   8.015   8.674   4.048  0.2195 -0.1899  0.3495
  636MOL0     H83887   7.688   8.877   3.598 -0.6929 -0.1036 -0.8672
  636MOL0     H83888   7.470   8.934   3.509  1.4133 -3.8371 -2.9837
  636MOL0     H83889   7.254   8.804   3.403 -0.8985  0.9910 -1.8644
  636MOL0     H83890   7.239   8.970   3.456 -3.8063  0.6047 -2.5921
  636MOL0     H83891   7.030   8.922   3.375  0.0311 -1.2695 -0.4815
  636MOL0     H83892   6.998   8.897   3.553 -0.7728 -0.6647  0.2355
  636MOL0     H83893   6.890   8.719   3.449  0.9254  1.7938 -0.5465
  636MOL0     H83894   7.044   8.648   3.508 -0.6750 -1.6124 -0.4814
  636MOL0     H83895   6.954   8.724   3.232  0.6560 -1.6838 -2.8951
  636MOL0     H83896   7.123   8.658   3.273  0.5539  2.0773  1.4763
  636MOL0     H83897   6.941   8.508   3.168  0.7718 -2.6071 -0.0521
  636MOL0     H83898   6.870   8.505   3.324 -1.2528 -0.4072 -3.5228
  636MOL0     H83899   6.989   8.339   3.374 -2.9510  4.1998  2.5922
  636MOL0     H83900   7.119   8.439   3.409  1.5138 -0.0775 -1.2453
  636MOL0     H83901   7.191   8.438   3.157 -0.2032 -0.5163 -0.4888
  636MOL0     H83902   7.220   8.295   3.252 -1.1580 -0.6952  0.2998
  636MOL0     H83903   7.129   8.264   3.024 -1.2826 -2.4560 -0.5064
  636MOL0     H83904   6.963   8.310   3.078 -1.0095 -0.4171  3.8500
  636MOL0     H83905   7.230   8.039   3.134  0.5768  0.9342 -1.5628
  636MOL0     H83906   7.131   7.751   3.081  1.1529 -0.3860  0.3060
  636MOL0     H83907   7.023   7.732   3.215  1.3897  0.0498  0.9595
  636MOL0     H83908   7.308   7.835   3.207 -0.2600 -1.4743 -1.1976
  636MOL0     H83909   7.251   7.674   3.264 -0.9041  0.5139 -0.4851
  636MOL0     H83910   7.206   7.935   3.404 -1.6831 -1.5204  0.9645
  636MOL0     H83911   7.140   7.780   3.443  1.8308 -3.0667  0.3673
  636MOL0     H83912   7.317   7.801   3.594  0.8821 -1.3767  0.6635
  636MOL0     H83913   7.420   7.871   3.458 -1.8984  0.0988 -3.7230
  636MOL0     H83914   7.552   7.820   3.639  0.6488 -0.5263  0.1254
  636MOL0     H83915   7.788   7.820   3.669  1.5842  0.9956 -0.5956
  636MOL0     H83916   8.183   7.580   3.362 -0.1416 -3.8811 -1.7002
  636MOL0     H83917   8.431   7.590   3.380 -0.1522  0.4106 -0.5608
  636MOL0     H83918   8.739   7.406   3.640  0.7245  0.6098  1.3396
  636MOL0     H83919   8.588   7.353   3.718 -1.0614  0.6372  2.6261
  636MOL0     H83920   8.606   7.507   3.884  0.0998  1.3121 -0.0031
  636MOL0     H83921   8.717   7.621   3.784 -0.5002 -0.0569 -1.2670
  636MOL0     H83922   8.774   7.360   3.922 -0.2299 -0.2368 -0.7773
  636MOL0     H83923   8.844   7.520   3.963 -1.9317  1.4200  1.2538
  636MOL0     H83924   8.940   7.515   3.717 -2.1541  0.3455  0.2386
  636MOL0     H83925   9.024   7.472   3.867  0.3236 -0.2101 -0.6527
  636MOL0     H83926   8.902   7.259   3.674  2.6155 -4.1338 -0.1552
  636MOL0     H83927   8.959   7.236   3.837 -0.8153 -0.7521 -0.5842
  636MOL0     H83928   9.132   7.186   3.685  2.1385  1.0060 -0.3616
  636MOL0     H83929   9.184   7.343   3.747 -1.0771  1.3888  1.4063
  636MOL0     H83930   9.012   7.405   3.524 -0.4470 -0.2742 -0.6530
  636MOL0     H83931   9.189   7.400   3.510 -0.8496  0.8563  1.8840
  636MOL0     H83932   8.990   7.191   3.476 -0.2935  1.7818  2.7830
  636MOL0     H83933   9.165   7.151   3.453 -1.5668 -2.2343  0.4934
  636MOL0     H83934   8.405   7.427   3.791  0.2498 -0.4531 -0.6381
  636MOL0     H83935   8.167   7.420   3.763  1.2356 -0.2628  0.6991
  636MOL0     H83936   7.789   7.436   3.470 -0.4738  1.3788 -3.7222
  636MOL0     H83937   7.557   7.466   3.419 -1.1750  0.5012 -1.3787
  636MOL0     H83938   7.293   8.649   3.780 -1.6297  1.1473 -1.6852
  636MOL0     H83939   7.511   8.607   3.876  2.0319 -1.6540 -1.3742
  636MOL0     H83940   7.852   8.462   3.833 -0.6045  0.7987  0.0830
  636MOL0     H83941   8.070   8.366   3.840  1.3896  1.6681 -1.3130
  636MOL0     H83942   8.308   8.319   3.838 -1.8204  3.3352 -0.6150
  636MOL0     H83943   8.202   8.225   3.948 -0.2645  0.2203  0.3725
  636MOL0     H83944   8.421   8.140   3.948  0.4141  0.2733 -0.1210
  636MOL0     H83945   8.498   8.286   3.952 -1.9796 -1.0370 -3.5890
  636MOL0     H83946   8.351   8.155   4.185  0.9462 -1.4049 -2.8426
  636MOL0     H83947   8.424   8.317   4.210 -1.1441 -1.4195  1.2392
  636MOL0     H83948   8.567   8.154   4.307  2.3354  1.2969  0.3976
  636MOL0     H83949   8.550   8.048   4.174  5.2437 -0.1834  0.2778
  636MOL0     H83950   8.848   8.318   4.029 -2.1675  2.5592  0.2612
  636MOL0     H83951   8.203   8.646   4.145  0.4930  0.3577 -1.0193
  636MOL0     H83952   8.006   8.777   4.082 -1.6257 -0.5482  1.0551
  637MOL0     O83953   4.179   7.875   3.224 -0.5160 -0.4382  0.8755
  637MOL0     C83954   4.178   7.813   3.325  0.1181  1.0913 -0.7682
  637MOL0     O83955   4.079   7.809   3.415  0.1051 -0.4436 -0.2601
  637MOL0     C83956   3.959   7.880   3.408 -0.5666 -0.4905 -0.3816
  637MOL0     C83957   3.957   8.016   3.367  0.6697  0.5303  0.2639
  637MOL0     C83958   3.833   8.082   3.364  0.5188  0.1617  0.2780
  637MOL0     C83959   3.715   8.013   3.407 -0.5721  0.4978 -0.0822
  637MOL0     O83960   3.585   8.076   3.417  0.9784 -0.4879 -0.0999
  637MOL0     C83961   3.489   8.006   3.336 -0.7557 -0.1235  1.3562
  637MOL0     C83962   3.351   8.020   3.380 -1.0238 -0.1554 -0.6068
  637MOL0     C83963   3.324   7.965   3.530 -0.6189  0.1534  1.2396
  637MOL0     C83964   3.169   7.951   3.540 -0.1904  0.5607 -0.0716
  637MOL0     C83965   3.113   7.916   3.679  1.0092 -1.0247 -0.7322
  637MOL0     C83966   2.963   7.940   3.680 -0.2322  0.1188  0.1276
  637MOL0     C83967   2.909   7.911   3.820 -0.6092  0.3515 -0.0729
  637MOL0     C83968   2.757   7.926   3.836  0.2397 -0.6430  1.3191
  637MOL0     N83969   2.711   8.062   3.792  0.2542  1.4439 -0.4372
  637MOL0     C83970   2.662   8.106   3.670 -0.0790  0.2048  0.0818
  637MOL0     C83971   2.587   8.216   3.700  0.2495 -0.1616 -0.4374
  637MOL0     C83972   2.537   8.310   3.592 -0.7630  0.0728  0.2630
  637MOL0     C83973   2.424   8.262   3.499  0.2425 -0.0650  0.4489
  637MOL0     C83974   2.289   8.254   3.584  0.4453 -0.3316 -0.3405
  637MOL0     C83975   2.202   8.163   3.509 -0.7077  0.3611 -0.0898
  637MOL0     O83976   2.084   8.148   3.591 -0.6597  0.4188  0.1425
  637MOL0     C83977   1.978   8.074   3.542 -0.4963 -0.5343 -0.6685
  637MOL0     C83978   1.995   7.968   3.451 -0.1871 -0.0245  0.3663
  637MOL0     C83979   1.883   7.891   3.411 -1.3265 -0.2024  0.6639
  637MOL0     C83980   1.755   7.910   3.468  0.1479 -0.3878 -0.0719
  637MOL0     C83981   1.650   7.837   3.420  0.3524  1.3995  0.2333
  637MOL0     O83982   1.527   7.881   3.442  1.0773 -1.0047 -0.6684
  637MOL0     C83983   1.432   7.786   3.421  0.5135  1.1372 -0.4562
  637MOL0     C83984   1.392   7.753   3.291  0.1094 -0.7295  0.1686
  637MOL0     C83985   1.282   7.672   3.269  1.1369  0.6844 -0.1977
  637MOL0     C83986   1.211   7.617   3.382  0.5738 -0.3465  0.1277
  637MOL0     O83987   1.103   7.531   3.362  0.0406  0.9510 -0.0362
  637MOL0     C83988   0.985   7.559   3.430  0.1266  0.0245 -0.8086
  637MOL0     C83989   0.864   7.502   3.351 -1.3079  0.5921 -0.3014
  637MOL0     C83990   0.736   7.497   3.440 -1.0211  0.0749 -0.4715
  637MOL0     C83991   0.614   7.468   3.358  0.0124  0.2910  0.3961
  637MOL0     C83992   0.499   7.387   3.434  0.4214  0.2813 -0.2875
  637MOL0     C83993   0.529   7.234   3.444  0.0374 -0.1155  0.8124
  637MOL0     C83994   0.415   7.127   3.432 -0.0617 -0.4697  0.0405
  637MOL0     C83995   0.456   6.985   3.436  0.2310  0.0969 -0.9604
  637MOL0    Cl83996   0.300   6.896   3.423 -0.7056 -0.1917 -0.0484
  637MOL0     C83997   1.266   7.636   3.510 -0.3823  0.3825 -0.0858
  637MOL0     C83998   1.372   7.720   3.528 -0.8411  0.7454  1.1307
  637MOL0     O83999   1.679   7.733   3.355 -0.3127  0.1367  0.6194
  637MOL0     C84000   1.744   8.016   3.559 -0.6297 -0.1147  0.5827
  637MOL0     C84001   1.854   8.101   3.593  1.3746  0.3304  0.6235
  637MOL0     N84002   2.591   8.241   3.833  0.5681  0.0602 -0.0878
  637MOL0     N84003   2.669   8.153   3.886 -0.2186  0.2681  0.5633
  637MOL0     C84004   3.732   7.887   3.467  0.2240  0.1126  0.1633
  637MOL0     C84005   3.851   7.817   3.460  0.1769  0.3553  0.5185
  637MOL0     C84006   4.295   7.728   3.360 -0.3896  0.0619 -0.3848
  637MOL0     C84007   4.414   7.738   3.286 -0.4231  0.1486 -0.6301
  637MOL0     C84008   4.541   7.682   3.326 -0.1951 -0.0047  0.3621
  637MOL0     C84009   4.551   7.599   3.440  0.7660  0.1167  0.8383
  637MOL0     O84010   4.677   7.558   3.492  0.4036  0.0036 -0.2683
  637MOL0     C84011   4.691   7.489   3.619  0.0835 -0.5741 -1.0103
  637MOL0     C84012   4.693   7.340   3.612 -0.5415  0.0335 -1.0641
  637MOL0     C84013   4.709   7.270   3.748 -0.7928 -0.3842  0.6431
  637MOL0     C84014   4.665   7.125   3.741 -0.6501  0.3625  0.1114
  637MOL0     C84015   4.519   7.111   3.719 -0.9724 -0.2358  1.0265
  637MOL0     C84016   4.400   7.104   3.697 -0.0835  0.1261 -0.3197
  637MOL0     C84017   4.424   7.570   3.503 -0.3521  0.3403 -0.3021
  637MOL0     C84018   4.303   7.639   3.464 -0.1212  0.3794  0.3021
  637MOL0     H84019   4.053   8.064   3.348  1.0831  0.1955  1.3937
  637MOL0     H84020   3.830   8.185   3.330  3.3471 -0.8347 -3.7768
  637MOL0     H84021   3.504   7.898   3.335 -1.5652 -0.2730 -0.9211
  637MOL0     H84022   3.492   8.043   3.233  1.0576 -2.8209  0.3390
  637MOL0     H84023   3.274   7.973   3.318 -0.7637  1.2776 -2.0708
  637MOL0     H84024   3.325   8.126   3.376 -0.3006  0.0005 -1.3015
  637MOL0     H84025   3.365   8.025   3.612 -0.6545  2.7077 -0.4903
  637MOL0     H84026   3.360   7.863   3.547 -1.4566 -0.2922  0.4433
  637MOL0     H84027   3.131   8.047   3.501 -0.2970  0.8595  0.7465
  637MOL0     H84028   3.128   7.879   3.468  1.2861 -0.9603  0.5503
  637MOL0     H84029   3.149   7.997   3.744  1.1029 -1.4768 -0.2160
  637MOL0     H84030   3.150   7.816   3.703  1.0315 -1.2608 -1.7042
  637MOL0     H84031   2.927   7.870   3.604 -0.5009 -0.0294  0.3917
  637MOL0     H84032   2.943   8.046   3.664  0.1536  0.3172  0.9122
  637MOL0     H84033   2.919   7.806   3.847 -2.2040  1.0644  3.9019
  637MOL0     H84034   2.953   7.982   3.891 -1.0800 -0.8408  1.4598
  637MOL0     H84035   2.729   7.900   3.939  1.4922 -0.6653  1.6706
  637MOL0     H84036   2.710   7.855   3.767  1.2025 -0.2515  0.2254
  637MOL0     H84037   2.684   8.068   3.571  0.3512  1.0766 -0.1656
  637MOL0     H84038   2.624   8.316   3.526  0.2067  1.9568  1.6252
  637MOL0     H84039   2.510   8.407   3.635  0.3985  0.1161  0.9492
  637MOL0     H84040   2.454   8.162   3.468  1.0084  0.0010  0.9491
  637MOL0     H84041   2.406   8.321   3.409  1.5247  1.6927  1.2723
  637MOL0     H84042   2.300   8.210   3.684  0.2620  2.2117  0.8797
  637MOL0     H84043   2.248   8.355   3.596  2.2803  0.7441 -2.4537
  637MOL0     H84044   2.254   8.071   3.479 -0.5450  0.9399 -1.6887
  637MOL0     H84045   2.174   8.204   3.412  0.1807  2.6906  0.5903
  637MOL0     H84046   2.097   7.963   3.415 -0.8779 -0.9701 -1.6228
  637MOL0     H84047   1.902   7.815   3.336 -2.3744 -0.2827  0.4584
  637MOL0     H84048   1.438   7.818   3.218 -2.0592  3.8511  2.4411
  637MOL0     H84049   1.256   7.655   3.165  0.1458 -0.4153  0.2079
  637MOL0     H84050   0.982   7.664   3.460  5.2318 -0.3268  2.0121
  637MOL0     H84051   0.987   7.512   3.529 -0.7411  0.9201 -0.3538
  637MOL0     H84052   0.887   7.398   3.323 -0.5458  1.0096 -1.3286
  637MOL0     H84053   0.856   7.562   3.259  3.3305  0.9762 -0.7283
  637MOL0     H84054   0.720   7.596   3.484  1.9836 -0.4485  2.1328
  637MOL0     H84055   0.757   7.426   3.521  1.8276 -0.2618 -1.3907
  637MOL0     H84056   0.563   7.563   3.343  2.7353  1.7667 -0.1800
  637MOL0     H84057   0.642   7.430   3.259  0.7328 -0.6489  0.9335
  637MOL0     H84058   0.402   7.405   3.387  0.0841 -0.3462  0.1651
  637MOL0     H84059   0.488   7.417   3.538 -0.9574 -1.8812  0.2494
  637MOL0     H84060   0.575   7.225   3.543  1.1691 -0.6811  0.2515
  637MOL0     H84061   0.605   7.215   3.367 -3.2528  0.0631 -2.7726
  637MOL0     H84062   0.354   7.128   3.523 -1.1349 -4.7690 -0.4339
  637MOL0     H84063   0.349   7.146   3.347  1.7765 -1.2033 -1.6226
  637MOL0     H84064   0.510   6.959   3.528  0.9582 -0.0497 -1.4185
  637MOL0     H84065   0.521   6.961   3.351  1.6998  1.5360 -0.2890
  637MOL0     H84066   1.216   7.601   3.599 -1.2449  2.0989  0.1463
  637MOL0     H84067   1.417   7.750   3.622  1.7637  1.2975 -0.1883
  637MOL0     H84068   1.644   8.046   3.587 -0.8967 -3.2331  3.6371
  637MOL0     H84069   1.847   8.182   3.665  1.1240  0.2457  0.6985
  637MOL0     H84070   3.636   7.844   3.492  0.9238 -2.4749 -1.2814
  637MOL0     H84071   3.867   7.713   3.488 -0.9590  0.0789  0.2315
  637MOL0     H84072   4.404   7.800   3.198 -1.2850  0.2086 -0.4995
  637MOL0     H84073   4.634   7.712   3.278  0.3522 -1.3047  0.5582
  637MOL0     H84074   4.606   7.520   3.681 -1.0506 -1.1550 -2.2079
  637MOL0     H84075   4.776   7.526   3.677 -1.8110 -0.3426  1.8081
  637MOL0     H84076   4.601   7.301   3.567 -0.7662  0.7184 -1.2142
  637MOL0     H84077   4.774   7.303   3.548 -1.8248 -4.4996 -0.4336
  637MOL0     H84078   4.645   7.317   3.824 -0.2224 -0.2858  1.0696
  637MOL0     H84079   4.808   7.291   3.791  0.6143  0.4410 -2.6619
  637MOL0     H84080   4.719   7.070   3.663  0.1345 -0.7400  1.3817
  637MOL0     H84081   4.695   7.077   3.835  0.4380  1.8934  0.5923
  637MOL0     H84082   4.294   7.088   3.684  0.6558 -6.7864 -1.6663
  637MOL0     H84083   4.414   7.510   3.592  0.5962 -2.7329 -2.1062
  637MOL0     H84084   4.215   7.609   3.519 -0.9103 -1.0311 -1.6122
  638MOL0     O84085   6.795   3.719   3.557  0.3632  0.1927 -0.0017
  638MOL0     C84086   6.776   3.834   3.515 -0.7761  0.3506  0.4190
  638MOL0     O84087   6.874   3.917   3.457 -1.0344 -0.3034  0.1268
  638MOL0     C84088   7.008   3.880   3.434 -1.0050 -0.8110 -0.6060
  638MOL0     C84089   7.078   3.795   3.525  1.0603 -0.8542  0.2602
  638MOL0     C84090   7.202   3.752   3.498 -0.7022 -0.0155 -0.9238
  638MOL0     C84091   7.273   3.795   3.384 -0.5275 -0.3975  0.2942
  638MOL0     O84092   7.395   3.738   3.346 -0.0869 -0.8385 -0.4436
  638MOL0     C84093   7.406   3.670   3.218 -0.1248 -0.5526  0.1763
  638MOL0     C84094   7.465   3.527   3.223 -0.3791 -0.1515 -0.2965
  638MOL0     C84095   7.586   3.506   3.317 -0.7330 -0.9685  0.4363
  638MOL0     C84096   7.627   3.361   3.312  0.0825 -0.4832  0.0388
  638MOL0     C84097   7.676   3.289   3.441 -0.9198 -0.0685  0.7521
  638MOL0     C84098   7.784   3.361   3.514 -0.0922 -0.0273 -0.5285
  638MOL0     C84099   7.847   3.275   3.623 -0.0446  0.5473 -0.2837
  638MOL0     C84100   7.939   3.368   3.705  0.5094 -0.9467  0.9558
  638MOL0     N84101   8.060   3.411   3.639 -0.1619  0.5816  0.1251
  638MOL0     C84102   8.083   3.512   3.553 -0.7425  0.2808  0.4773
  638MOL0     C84103   8.205   3.487   3.506 -0.5650  0.4958 -0.3896
  638MOL0     C84104   8.279   3.582   3.409 -0.6219  0.2451  1.3480
  638MOL0     C84105   8.302   3.718   3.482  0.0745 -0.6531 -0.1175
  638MOL0     C84106   8.424   3.796   3.435  0.0414  0.1020 -0.4106
  638MOL0     C84107   8.415   3.934   3.498  0.0483  0.0114  1.0202
  638MOL0     O84108   8.316   4.017   3.439  0.3535  0.4678 -0.3103
  638MOL0     C84109   8.298   4.152   3.473 -0.8174  0.2001  0.7026
  638MOL0     C84110   8.382   4.218   3.563 -0.1273  0.3805 -0.5432
  638MOL0     C84111   8.361   4.346   3.598 -0.4987  0.1041 -0.6856
  638MOL0     C84112   8.252   4.418   3.547  0.1592 -0.0048 -0.2976
  638MOL0     C84113   8.231   4.557   3.583 -0.1318 -0.1153  0.0492
  638MOL0     O84114   8.104   4.607   3.550  0.3384 -0.0167  0.3311
  638MOL0     C84115   8.074   4.737   3.563 -0.4823 -0.3549 -0.2483
  638MOL0     C84116   8.152   4.835   3.501 -0.6432 -0.5856  0.0848
  638MOL0     C84117   8.109   4.966   3.496 -0.1742 -0.2221  0.9190
  638MOL0     C84118   7.989   5.002   3.551  0.6608 -0.3951 -0.3971
  638MOL0     O84119   7.960   5.136   3.536  0.2025 -0.0170  0.9810
  638MOL0     C84120   7.832   5.188   3.564 -0.2079 -1.0830  0.0083
  638MOL0     C84121   7.809   5.330   3.509  0.8600 -0.2379  0.0809
  638MOL0     C84122   7.854   5.442   3.609 -0.4924 -0.0316  0.1173
  638MOL0     C84123   7.875   5.580   3.533  1.2720 -0.5075  0.8076
  638MOL0     C84124   7.904   5.690   3.637  0.1939 -0.0176  0.0862
  638MOL0     C84125   8.049   5.673   3.697  0.4609 -0.2102  1.0387
  638MOL0     C84126   8.100   5.793   3.768  0.0841  0.0152 -0.9092
  638MOL0     C84127   8.244   5.774   3.802  0.0599 -0.3889 -0.1124
  638MOL0    Cl84128   8.295   5.885   3.931 -0.4349 -0.0996 -0.0688
  638MOL0     C84129   7.908   4.910   3.613 -0.3105 -0.4768  0.2904
  638MOL0     C84130   7.945   4.774   3.616 -0.0581  0.5164  0.1454
  638MOL0     O84131   8.312   4.613   3.651  0.2197 -0.5631  0.4649
  638MOL0     C84132   8.165   4.359   3.461 -0.2466  0.6097  0.2132
  638MOL0     C84133   8.191   4.222   3.418  0.8738 -0.4542  0.2813
  638MOL0     N84134   8.257   3.378   3.566 -0.5441  0.5240 -0.2124
  638MOL0     N84135   8.169   3.328   3.644 -0.0590 -0.1847 -0.7846
  638MOL0     C84136   7.212   3.891   3.303 -0.6615  0.1872  0.4185
  638MOL0     C84137   7.079   3.931   3.326  0.0015 -0.5895  0.9872
  638MOL0     C84138   6.650   3.906   3.541 -0.4961 -0.1282  0.0726
  638MOL0     C84139   6.633   4.038   3.505 -0.4410  0.2963 -0.5979
  638MOL0     C84140   6.505   4.103   3.525  0.2264 -0.0958  0.0837
  638MOL0     C84141   6.395   4.032   3.571 -0.4658  0.0019 -0.1952
  638MOL0     O84142   6.282   4.105   3.604  1.0185 -0.2022  0.1060
  638MOL0     C84143   6.181   4.045   3.675 -0.2494  0.2565 -0.1024
  638MOL0     C84144   6.089   4.147   3.751 -0.2268 -0.4252  0.0091
  638MOL0     C84145   6.006   4.233   3.649  0.3278  0.9559 -0.1067
  638MOL0     C84146   5.886   4.298   3.722 -0.7171 -0.2498  1.0660
  638MOL0     C84147   5.791   4.345   3.617 -0.8989 -0.5198  0.0576
  638MOL0     C84148   5.726   4.387   3.522  0.0958  0.4784  0.6354
  638MOL0     C84149   6.410   3.893   3.607  0.7818  0.6195  0.0589
  638MOL0     C84150   6.538   3.833   3.583 -0.0070 -1.1025 -0.0272
  638MOL0     H84151   7.029   3.739   3.604 -1.4021  0.6062 -0.1297
  638MOL0     H84152   7.250   3.689   3.572 -1.3395 -0.5009 -0.9181
  638MOL0     H84153   7.465   3.735   3.153 -0.6262 -0.1444  0.1191
  638MOL0     H84154   7.306   3.668   3.174 -0.5335 -0.8534  1.1030
  638MOL0     H84155   7.502   3.504   3.122  2.7168  0.0496  0.6801
  638MOL0     H84156   7.376   3.465   3.237 -0.4397  0.3006  1.5225
  638MOL0     H84157   7.571   3.539   3.421  1.9754  2.9628 -0.2331
  638MOL0     H84158   7.667   3.571   3.284 -2.9408  0.7227 -2.0824
  638MOL0     H84159   7.535   3.312   3.278  0.7101 -1.3652 -0.3952
  638MOL0     H84160   7.699   3.356   3.230  0.0574  0.2210 -0.0324
  638MOL0     H84161   7.717   3.190   3.422  0.6475  0.4676  1.2260
  638MOL0     H84162   7.595   3.275   3.513 -1.6958 -0.3541 -0.1643
  638MOL0     H84163   7.754   3.459   3.554  0.9973 -0.4319  1.3853
  638MOL0     H84164   7.866   3.371   3.443  0.8032 -0.8677  0.3602
  638MOL0     H84165   7.766   3.236   3.686  0.7391 -0.4412  0.1367
  638MOL0     H84166   7.904   3.186   3.594 -2.0591 -1.2986  1.0165
  638MOL0     H84167   7.978   3.312   3.790  1.4667 -1.0986  0.4303
  638MOL0     H84168   7.882   3.454   3.740  1.6412 -0.3613  1.3903
  638MOL0     H84169   8.018   3.595   3.529  2.1038  1.7681 -2.8455
  638MOL0     H84170   8.204   3.607   3.333  1.4874  0.7467 -0.6831
  638MOL0     H84171   8.369   3.532   3.372 -2.4984 -1.3714 -1.3780
  638MOL0     H84172   8.323   3.697   3.587  1.5845 -2.2549 -0.6840
  638MOL0     H84173   8.210   3.776   3.488 -1.0947 -2.5362  0.8866
  638MOL0     H84174   8.515   3.744   3.467 -0.5335 -1.2814 -0.9410
  638MOL0     H84175   8.429   3.799   3.326 -1.5687 -1.4874 -0.5739
  638MOL0     H84176   8.514   3.977   3.481  1.8439 -3.5158  1.5396
  638MOL0     H84177   8.414   3.932   3.607 -2.1433 -1.9287  1.0453
  638MOL0     H84178   8.460   4.165   3.616 -1.3902 -1.2650 -0.2462
  638MOL0     H84179   8.424   4.409   3.661 -1.7140  3.0133 -2.2099
  638MOL0     H84180   8.250   4.805   3.464  0.1821 -3.1891  3.8597
  638MOL0     H84181   8.175   5.043   3.458  0.1787 -0.5326  0.8913
  638MOL0     H84182   7.817   5.187   3.672  0.6349  0.6896  0.1695
  638MOL0     H84183   7.755   5.125   3.517 -1.1457 -1.9958  2.5463
  638MOL0     H84184   7.705   5.343   3.478  0.2856 -0.3018  1.8511
  638MOL0     H84185   7.866   5.334   3.416 -0.2538 -0.2620 -0.6283
  638MOL0     H84186   7.947   5.414   3.659 -1.1381  1.0891  2.0299
  638MOL0     H84187   7.784   5.448   3.693  0.5180  5.4861  0.8908
  638MOL0     H84188   7.964   5.574   3.470 -1.0251 -2.0609 -2.5508
  638MOL0     H84189   7.797   5.611   3.463  3.4408 -0.1634 -1.6368
  638MOL0     H84190   7.833   5.677   3.719  0.9160  0.2373  0.7626
  638MOL0     H84191   7.890   5.791   3.600  0.6704 -0.6792 -2.0907
  638MOL0     H84192   8.114   5.650   3.611 -1.5107  1.1887 -0.9346
  638MOL0     H84193   8.055   5.584   3.760  0.4835  0.1840  1.5954
  638MOL0     H84194   8.088   5.885   3.711  2.6772  1.1845  0.2500
  638MOL0     H84195   8.042   5.804   3.860 -0.7428  2.7285 -1.6597
  638MOL0     H84196   8.300   5.816   3.718  3.2017  2.3531  3.0321
  638MOL0     H84197   8.268   5.672   3.831  4.3924  0.2961 -0.6370
  638MOL0     H84198   7.813   4.946   3.650 -2.0117 -2.3107 -1.9638
  638MOL0     H84199   7.879   4.704   3.666  1.2052 -1.6266 -1.0743
  638MOL0     H84200   8.081   4.409   3.415 -1.1162  0.1120  1.2234
  638MOL0     H84201   8.110   4.176   3.362 -1.0178  2.7193  0.1541
  638MOL0     H84202   7.248   3.926   3.206  0.2430 -1.6085  0.0829
  638MOL0     H84203   7.038   3.998   3.251 -0.5469 -1.1171  0.8030
  638MOL0     H84204   6.712   4.098   3.461 -0.8075  1.6343  0.5215
  638MOL0     H84205   6.480   4.205   3.497 -1.8146 -0.5124  0.2069
  638MOL0     H84206   6.222   3.979   3.752 -0.6406 -0.0357 -0.1370
  638MOL0     H84207   6.132   3.981   3.600  0.4647  0.8065 -1.0487
  638MOL0     H84208   6.016   4.097   3.816 -2.0081  0.6536 -1.0823
  638MOL0     H84209   6.154   4.202   3.820 -0.6536  1.3937 -0.9686
  638MOL0     H84210   5.975   4.163   3.570 -1.8011 -1.4562  2.6643
  638MOL0     H84211   6.072   4.310   3.608  0.0569  2.9312  2.9056
  638MOL0     H84212   5.828   4.230   3.785  2.1986 -2.1175  1.9082
  638MOL0     H84213   5.918   4.380   3.787 -1.1938  0.4724  0.4167
  638MOL0     H84214   5.661   4.404   3.439  0.0230  0.0785  0.6056
  638MOL0     H84215   6.338   3.832   3.661 -0.0807  0.6799 -0.9892
  638MOL0     H84216   6.550   3.728   3.608 -0.7026 -1.9827 -2.9214
  639MOL0     O84217   2.980   3.942   0.455 -0.2759 -0.3362  0.1325
  639MOL0     C84218   3.021   3.904   0.342 -0.1134 -0.3328  0.2725
  639MOL0     O84219   2.943   3.863   0.245  0.0157  0.3196  0.1543
  639MOL0     C84220   2.814   3.829   0.260  0.0693  0.0842 -0.4907
  639MOL0     C84221   2.713   3.927   0.287  0.3619 -0.1294 -0.2452
  639MOL0     C84222   2.583   3.892   0.323  0.2309  0.1887  1.0304
  639MOL0     C84223   2.552   3.760   0.329 -0.4991 -0.0236 -0.9779
  639MOL0     O84224   2.437   3.691   0.364  0.4148 -0.2070  0.7644
  639MOL0     C84225   2.315   3.764   0.382  0.7792  0.1705  0.0235
  639MOL0     C84226   2.191   3.675   0.391 -0.2598 -0.0045  0.0822
  639MOL0     C84227   2.159   3.598   0.266 -0.7209  0.5002  1.0799
  639MOL0     C84228   2.052   3.490   0.280 -0.2501  0.5465  0.4006
  639MOL0     C84229   1.922   3.538   0.346 -0.3316  0.4544  0.0562
  639MOL0     C84230   1.805   3.439   0.324 -0.1593  0.1125  0.1559
  639MOL0     C84231   1.696   3.453   0.435 -0.2504  0.2006  0.0781
  639MOL0     C84232   1.553   3.445   0.393  0.2482 -0.0231 -0.4578
  639MOL0     N84233   1.445   3.450   0.505 -0.4192 -0.2585  0.1122
  639MOL0     C84234   1.457   3.397   0.635 -0.6104 -0.4151  0.2573
  639MOL0     C84235   1.336   3.428   0.689 -0.1580  0.3415 -0.0127
  639MOL0     C84236   1.296   3.389   0.827 -0.1549  0.6752 -0.4420
  639MOL0     C84237   1.402   3.402   0.948  0.0712 -0.4227  0.4725
  639MOL0     C84238   1.424   3.544   1.012  0.4196 -0.4350  0.8449
  639MOL0     C84239   1.549   3.592   0.939 -0.0995  0.6329  0.8897
  639MOL0     O84240   1.569   3.732   0.961  0.4641 -0.0738  0.0842
  639MOL0     C84241   1.688   3.790   0.926 -0.4401 -0.1299 -0.5810
  639MOL0     C84242   1.703   3.927   0.967 -0.6476  0.4062 -0.6855
  639MOL0     C84243   1.829   3.991   0.957 -0.0459  0.2952  0.3050
  639MOL0     C84244   1.936   3.935   0.898  0.6293  0.5793 -0.5693
  639MOL0     C84245   2.063   4.002   0.882 -0.3390 -0.4010  0.3607
  639MOL0     O84246   2.149   3.947   0.796  0.1786  0.0438  0.2673
  639MOL0     C84247   2.268   4.019   0.765 -0.0262 -0.5206  0.7978
  639MOL0     C84248   2.288   4.155   0.765 -0.9371  0.5470  0.1288
  639MOL0     C84249   2.412   4.214   0.731  0.0597 -0.3172 -0.1095
  639MOL0     C84250   2.521   4.146   0.690 -0.5585  0.1434  0.1695
  639MOL0     O84251   2.640   4.211   0.666  0.0296 -0.0762  0.3212
  639MOL0     C84252   2.711   4.150   0.558 -0.5123  0.3142 -0.0941
  639MOL0     C84253   2.839   4.235   0.559 -0.7932  0.4535 -0.0066
  639MOL0     C84254   2.938   4.209   0.673 -0.0781 -0.5695 -0.4026
  639MOL0     C84255   3.061   4.313   0.668  0.1502  0.8469  0.4706
  639MOL0     C84256   3.151   4.317   0.785  0.2271  0.3174 -0.7724
  639MOL0     C84257   3.272   4.398   0.752  0.0408 -0.0009  0.6125
  639MOL0     C84258   3.376   4.331   0.662 -0.0255 -0.0297 -1.3439
  639MOL0     C84259   3.511   4.409   0.674  0.7058  0.4035  1.5908
  639MOL0    Cl84260   3.531   4.538   0.554 -0.2531  0.0517  0.4221
  639MOL0     C84261   2.498   4.004   0.673 -0.5761 -0.4218  0.6497
  639MOL0     C84262   2.374   3.949   0.717 -0.0865  0.3212 -0.4219
  639MOL0     O84263   2.090   4.092   0.960 -0.1460  0.4065  0.9225
  639MOL0     C84264   1.915   3.794   0.861 -0.0766 -0.4270 -0.5605
  639MOL0     C84265   1.788   3.727   0.867 -0.9036  0.5596 -0.5620
  639MOL0     N84266   1.256   3.495   0.598 -0.1229  0.7188  0.9289
  639MOL0     N84267   1.325   3.515   0.490  0.1323  0.0384 -0.2852
  639MOL0     C84268   2.653   3.664   0.307 -0.1496  0.0969  0.8001
  639MOL0     C84269   2.780   3.699   0.261 -0.1774  1.2386  0.1847
  639MOL0     C84270   3.160   3.924   0.301  0.3096  0.2335  0.6906
  639MOL0     C84271   3.252   3.972   0.394  0.4525 -0.3439 -0.4599
  639MOL0     C84272   3.382   4.003   0.362 -0.5866  0.3100 -0.3868
  639MOL0     C84273   3.432   3.967   0.240  0.1111 -0.0070  0.3994
  639MOL0     O84274   3.554   3.991   0.203 -0.0719  0.0949  0.0764
  639MOL0     C84275   3.635   3.881   0.191 -0.3449 -0.3562 -0.1877
  639MOL0     C84276   3.763   3.902   0.268  0.5878  0.0425  0.0305
  639MOL0     C84277   3.732   3.923   0.424 -0.4895 -0.3261  0.8068
  639MOL0     C84278   3.752   4.067   0.456 -0.9508 -0.9012 -0.7691
  639MOL0     C84279   3.713   4.082   0.594  0.4390 -0.4087 -0.4134
  639MOL0     C84280   3.678   4.101   0.708  0.3668  0.3487 -0.0867
  639MOL0     C84281   3.345   3.904   0.151  0.4561  0.3823 -0.0422
  639MOL0     C84282   3.207   3.889   0.178 -0.1547  1.0564  0.6391
  639MOL0     H84283   2.750   4.029   0.290  3.0248 -0.9645  4.4270
  639MOL0     H84284   2.521   3.976   0.351  1.5093  0.6114  2.8040
  639MOL0     H84285   2.311   3.829   0.295 -0.3304 -1.2933 -1.0647
  639MOL0     H84286   2.315   3.826   0.473  0.1327 -0.3816  0.4056
  639MOL0     H84287   2.099   3.734   0.401  0.2893  0.6350  1.6574
  639MOL0     H84288   2.202   3.608   0.477 -0.7993  1.3112  1.2096
  639MOL0     H84289   2.243   3.534   0.238 -1.9281 -0.4783 -0.4657
  639MOL0     H84290   2.149   3.679   0.193 -1.1469  0.6139  1.2678
  639MOL0     H84291   2.027   3.449   0.182  0.0630 -3.6300  1.8728
  639MOL0     H84292   2.086   3.404   0.339 -2.2615  0.0389  0.8863
  639MOL0     H84293   1.891   3.631   0.298 -3.6373 -0.5419 -0.0138
  639MOL0     H84294   1.946   3.552   0.452  1.3115  1.3937 -0.4051
  639MOL0     H84295   1.834   3.334   0.327 -0.9511 -0.0930  1.0534
  639MOL0     H84296   1.758   3.465   0.228 -0.2345  4.3243  1.1460
  639MOL0     H84297   1.711   3.374   0.510 -1.4610 -1.1753 -1.0662
  639MOL0     H84298   1.716   3.552   0.478  0.1385  1.5671 -2.9985
  639MOL0     H84299   1.543   3.339   0.368 -3.7127 -0.9009  3.5499
  639MOL0     H84300   1.533   3.512   0.309  3.5998  0.6978 -0.8581
  639MOL0     H84301   1.540   3.348   0.685 -0.7620  0.8928  1.8605
  639MOL0     H84302   1.271   3.283   0.817  0.1789  0.6130 -0.6359
  639MOL0     H84303   1.203   3.443   0.848 -0.1948  1.9691 -3.4863
  639MOL0     H84304   1.500   3.356   0.936 -0.1751 -0.9005  0.2916
  639MOL0     H84305   1.348   3.344   1.024  0.4595  2.6296  3.3191
  639MOL0     H84306   1.342   3.616   1.003 -0.2586 -1.4255 -4.2104
  639MOL0     H84307   1.450   3.540   1.118 -1.8107  0.6938  1.5057
  639MOL0     H84308   1.544   3.576   0.831 -0.9557 -0.3897  1.0680
  639MOL0     H84309   1.635   3.537   0.978 -0.5543  0.2981  1.4293
  639MOL0     H84310   1.619   3.974   1.016  0.2972  0.2799  1.1429
  639MOL0     H84311   1.840   4.096   0.984 -1.7597  0.8518 -0.9462
  639MOL0     H84312   2.209   4.220   0.802  0.2903  1.7645  0.7288
  639MOL0     H84313   2.427   4.321   0.739  0.7551 -0.2090 -2.2214
  639MOL0     H84314   2.662   4.152   0.460  3.5413  0.1701 -2.3257
  639MOL0     H84315   2.737   4.046   0.578 -1.2017  0.4658  1.8032
  639MOL0     H84316   2.814   4.342   0.550  3.6585  1.7754  0.8509
  639MOL0     H84317   2.891   4.221   0.464 -0.9182  2.0886 -0.3558
  639MOL0     H84318   2.969   4.104   0.664 -1.3848 -1.0670  0.5391
  639MOL0     H84319   2.877   4.219   0.763 -0.3867 -1.0987 -0.5472
  639MOL0     H84320   3.122   4.280   0.584 -1.7038  2.4174 -1.6031
  639MOL0     H84321   3.020   4.413   0.651  1.9333  1.9408  2.2276
  639MOL0     H84322   3.197   4.224   0.820 -0.0436  0.8558  1.1169
  639MOL0     H84323   3.107   4.358   0.877  1.2905 -2.3394  1.0614
  639MOL0     H84324   3.319   4.426   0.846 -0.5273  0.0093  0.8982
  639MOL0     H84325   3.247   4.494   0.705 -1.2796 -0.5591  0.1250
  639MOL0     H84326   3.375   4.223   0.682 -1.4374  0.0543 -0.8911
  639MOL0     H84327   3.338   4.339   0.560  0.2102  0.6219 -1.3848
  639MOL0     H84328   3.593   4.338   0.661  0.4873  0.4580 -0.4795
  639MOL0     H84329   3.519   4.460   0.770 -0.2778  2.0167  0.8668
  639MOL0     H84330   2.580   3.935   0.656 -0.8513 -0.8943  1.1901
  639MOL0     H84331   2.354   3.846   0.746  0.8593  0.2967  0.1855
  639MOL0     H84332   1.993   3.732   0.819 -0.3692 -2.2581  1.4241
  639MOL0     H84333   1.778   3.630   0.819  0.4460  0.8416 -1.4785
  639MOL0     H84334   2.632   3.559   0.323  1.6946 -1.2259 -3.7783
  639MOL0     H84335   2.858   3.628   0.237 -2.0037 -0.7493 -0.1508
  639MOL0     H84336   3.223   3.997   0.495  2.5657 -0.1673  0.1446
  639MOL0     H84337   3.445   4.048   0.438 -0.2054  0.4663 -0.7965
  639MOL0     H84338   3.656   3.870   0.084 -0.0390  1.9305 -0.3973
  639MOL0     H84339   3.596   3.789   0.235  0.6829 -0.0682  1.4196
  639MOL0     H84340   3.814   3.806   0.253  0.2202  0.0960 -1.7646
  639MOL0     H84341   3.818   3.989   0.231 -3.3628  2.3767 -0.9316
  639MOL0     H84342   3.808   3.868   0.481 -0.3080 -0.7303  0.1892
  639MOL0     H84343   3.631   3.889   0.451 -0.7696  1.2291  1.8130
  639MOL0     H84344   3.858   4.094   0.460 -1.5988  1.9370 -0.0333
  639MOL0     H84345   3.692   4.136   0.396  0.1412  0.9503  0.1765
  639MOL0     H84346   3.636   4.120   0.805 -0.5781 -0.3357 -0.3380
  639MOL0     H84347   3.374   3.862   0.056 -1.0346 -0.9149  0.0540
  639MOL0     H84348   3.150   3.860   0.091 -0.9185 -1.6258  1.9341
  640MOL0     O84349   3.767   5.797   3.333 -0.5239 -0.1883 -0.2032
  640MOL0     C84350   3.787   5.818   3.455  0.3350  0.7613  0.5111
  640MOL0     O84351   3.708   5.880   3.539 -0.1582  0.1951  0.1737
  640MOL0     C84352   3.591   5.926   3.487 -0.0799 -0.2558  0.5683
  640MOL0     C84353   3.586   6.027   3.395 -0.2278 -0.8233 -0.0539
  640MOL0     C84354   3.467   6.077   3.347  0.0189 -0.2058  0.0913
  640MOL0     C84355   3.348   6.014   3.377  0.2973  0.5902  0.7890
  640MOL0     O84356   3.226   6.056   3.322 -0.1428 -0.2074  0.6041
  640MOL0     C84357   3.159   5.959   3.240 -0.2816  0.0928  0.0126
  640MOL0     C84358   3.034   6.015   3.167 -0.3798 -0.0760  0.2755
  640MOL0     C84359   2.923   6.046   3.265 -0.0473  0.3068 -0.2729
  640MOL0     C84360   2.820   6.144   3.200 -0.0556 -0.3836 -0.0333
  640MOL0     C84361   2.701   6.069   3.149  0.3703 -0.3167  0.5622
  640MOL0     C84362   2.586   6.158   3.096 -0.6299 -0.1647  0.6447
  640MOL0     C84363   2.464   6.072   3.073 -0.4669  0.1625  0.4390
  640MOL0     C84364   2.357   6.163   3.030  0.2090 -0.3927  0.2952
  640MOL0     N84365   2.236   6.091   3.002 -0.0075 -0.5793  0.3961
  640MOL0     C84366   2.225   5.999   2.899  0.3987 -1.0496  0.0652
  640MOL0     C84367   2.095   5.960   2.891  0.5851 -0.3128 -1.0079
  640MOL0     C84368   2.045   5.867   2.787  0.4825 -0.2366  0.6105
  640MOL0     C84369   2.081   5.914   2.646  0.0784 -0.4493  0.8870
  640MOL0     C84370   2.016   5.810   2.554 -0.6687  0.0024 -0.1080
  640MOL0     C84371   1.877   5.833   2.524  0.9263  0.0908 -0.0771
  640MOL0     O84372   1.809   5.709   2.483  0.5207 -0.4537  0.2595
  640MOL0     C84373   1.681   5.717   2.440 -0.7970  0.4551  0.2763
  640MOL0     C84374   1.645   5.640   2.328  0.4686 -0.3103  0.2925
  640MOL0     C84375   1.518   5.637   2.286  1.3282  0.0071  0.4906
  640MOL0     C84376   1.418   5.716   2.352 -0.1750  0.0864  0.6888
  640MOL0     C84377   1.270   5.702   2.323 -0.0230 -1.1142 -0.1052
  640MOL0     O84378   1.189   5.787   2.380  0.5858  0.5369  0.4543
  640MOL0     C84379   1.051   5.767   2.372  0.5730  0.0125  0.1678
  640MOL0     C84380   0.982   5.803   2.260  0.0740 -0.1385 -0.1719
  640MOL0     C84381   0.846   5.780   2.241  0.0667 -0.2244 -0.0200
  640MOL0     C84382   0.769   5.728   2.346 -0.5781 -1.1609 -0.3343
  640MOL0     O84383   0.636   5.704   2.332 -0.1604  0.2093  0.4179
  640MOL0     C84384   0.561   5.642   2.440 -0.1813  0.0974 -0.2980
  640MOL0     C84385   0.403   5.629   2.401 -0.4459  0.2091 -0.0509
  640MOL0     C84386   0.374   5.562   2.270 -0.5436 -0.1773 -0.0318
  640MOL0     C84387   0.231   5.533   2.235  0.9467  0.4940  0.5346
  640MOL0     C84388   0.162   5.420   2.330  0.2182 -0.4498  0.2826
  640MOL0     C84389   0.085   5.324   2.251 -0.2475  0.5538 -0.5065
  640MOL0     C84390  -0.043   5.389   2.195 -0.3995 -0.1231 -0.3443
  640MOL0     C84391  -0.118   5.287   2.121  0.3488  0.6526  0.4835
  640MOL0    Cl84392  -0.038   5.262   1.968 -0.3345 -0.4524 -0.0157
  640MOL0     C84393   0.842   5.703   2.472 -0.3175 -0.5380  1.0274
  640MOL0     C84394   0.979   5.714   2.483 -0.2479  0.5507  0.0743
  640MOL0     O84395   1.239   5.611   2.246  0.3830  0.0033 -1.0955
  640MOL0     C84396   1.461   5.805   2.460  0.3734 -0.2575  0.2011
  640MOL0     C84397   1.593   5.797   2.504  0.4033 -0.8894  0.9058
  640MOL0     N84398   2.030   6.019   3.004  0.6987 -0.4681  0.4833
  640MOL0     N84399   2.118   6.091   3.072 -0.4586 -0.1368 -0.5279
  640MOL0     C84400   3.345   5.909   3.467 -0.6488  0.8584  0.0729
  640MOL0     C84401   3.469   5.871   3.529  0.7927  0.5037 -0.1900
  640MOL0     C84402   3.911   5.757   3.503 -0.1596 -0.4408  0.1355
  640MOL0     C84403   3.956   5.795   3.630 -0.6200  0.5911  1.0193
  640MOL0     C84404   4.084   5.757   3.677 -0.1684 -0.5842 -0.0968
  640MOL0     C84405   4.153   5.665   3.588  0.6582 -0.2705 -0.1267
  640MOL0     O84406   4.276   5.611   3.610 -0.3809  0.0547 -0.2865
  640MOL0     C84407   4.332   5.616   3.743  0.1603 -0.0318 -0.1338
  640MOL0     C84408   4.432   5.728   3.768  0.5371  0.1423 -0.6353
  640MOL0     C84409   4.549   5.732   3.677  0.3993  0.1289 -0.4255
  640MOL0     C84410   4.646   5.608   3.702  0.2112  0.0979  0.5720
  640MOL0     C84411   4.753   5.617   3.800  0.1867 -0.0709 -0.1477
  640MOL0     C84412   4.832   5.628   3.891  0.2572  0.9246  0.5520
  640MOL0     C84413   4.104   5.617   3.467 -0.1140  0.4069 -0.1252
  640MOL0     C84414   3.988   5.674   3.423  0.7032  0.0693  0.3671
  640MOL0     H84415   3.678   6.072   3.356  1.1887 -2.3067  1.4190
  640MOL0     H84416   3.463   6.176   3.302  1.8239 -1.0341 -2.0415
  640MOL0     H84417   3.133   5.870   3.299  2.5535 -1.4372 -0.8562
  640MOL0     H84418   3.228   5.932   3.159  0.3363 -1.7056  1.0999
  640MOL0     H84419   2.996   5.939   3.098  0.3551 -0.6898  0.5337
  640MOL0     H84420   3.055   6.103   3.106 -1.1325  0.8307  1.2928
  640MOL0     H84421   2.968   6.103   3.347  1.2984  2.5230 -2.3904
  640MOL0     H84422   2.875   5.955   3.302 -2.6689  1.6058 -0.2795
  640MOL0     H84423   2.800   6.220   3.276 -0.1971 -1.4875  1.0582
  640MOL0     H84424   2.869   6.184   3.111 -1.0216 -0.4931 -0.6281
  640MOL0     H84425   2.659   6.009   3.230  0.9383  0.0874  1.1684
  640MOL0     H84426   2.738   6.005   3.068  3.2138  1.7477  0.0885
  640MOL0     H84427   2.609   6.188   2.994 -2.9741 -2.5988 -0.7146
  640MOL0     H84428   2.575   6.240   3.168  3.0742 -1.1566  2.6206
  640MOL0     H84429   2.497   6.013   2.987 -0.1196 -0.8416  1.2390
  640MOL0     H84430   2.437   6.013   3.161 -0.3084 -2.4744 -1.1600
  640MOL0     H84431   2.391   6.226   2.947  0.3476  0.5210  1.0250
  640MOL0     H84432   2.338   6.220   3.121  0.2222 -2.0576  1.3974
  640MOL0     H84433   2.308   5.970   2.835  0.7146 -1.7964  0.7973
  640MOL0     H84434   1.938   5.861   2.807  0.5687 -3.0938  0.6581
  640MOL0     H84435   2.081   5.766   2.810  1.6171  0.1515  0.5936
  640MOL0     H84436   2.187   5.904   2.621  0.0441 -0.8025  0.8783
  640MOL0     H84437   2.057   6.017   2.619  0.3921 -0.6526 -0.1835
  640MOL0     H84438   2.068   5.823   2.459  1.5926 -3.3260  0.4844
  640MOL0     H84439   2.044   5.706   2.577  0.8241  0.5806  0.8784
  640MOL0     H84440   1.856   5.912   2.451 -0.9982  0.0909  0.4044
  640MOL0     H84441   1.843   5.883   2.615  3.2758 -0.4713  1.1800
  640MOL0     H84442   1.725   5.580   2.287  0.7696 -0.9479  1.7519
  640MOL0     H84443   1.501   5.566   2.205 -0.7622 -0.2025  1.0523
  640MOL0     H84444   1.038   5.833   2.171 -1.5138  0.7140 -0.9342
  640MOL0     H84445   0.792   5.810   2.152  2.0533 -1.9454 -1.9514
  640MOL0     H84446   0.560   5.698   2.534  0.7775  2.0047 -1.3610
  640MOL0     H84447   0.597   5.540   2.451  1.0576  0.5647  0.1016
  640MOL0     H84448   0.369   5.733   2.394 -2.5421 -0.3788  0.4893
  640MOL0     H84449   0.361   5.575   2.487  0.1712  2.4501  1.7722
  640MOL0     H84450   0.420   5.463   2.275 -4.2969 -2.0451  0.7537
  640MOL0     H84451   0.426   5.612   2.187 -0.1681 -0.5691 -0.0364
  640MOL0     H84452   0.181   5.630   2.249 -1.3798 -0.7325  1.3075
  640MOL0     H84453   0.226   5.508   2.129 -0.6019  0.6881  0.5283
  640MOL0     H84454   0.105   5.475   2.406 -0.7703 -0.0276 -0.7194
  640MOL0     H84455   0.244   5.371   2.383 -0.9702 -0.2585  2.4456
  640MOL0     H84456   0.062   5.230   2.303 -0.5316  1.2049  0.5886
  640MOL0     H84457   0.157   5.295   2.174  3.6127  2.3024  2.1129
  640MOL0     H84458  -0.102   5.431   2.277  1.3715  1.5703  0.1261
  640MOL0     H84459  -0.025   5.478   2.133  1.8393  0.5447  1.1377
  640MOL0     H84460  -0.219   5.320   2.092  0.7490 -0.1933 -2.2453
  640MOL0     H84461  -0.121   5.191   2.174  0.8866  0.1555 -0.3628
  640MOL0     H84462   0.793   5.660   2.559 -0.9169 -0.9658  0.4937
  640MOL0     H84463   1.030   5.691   2.576 -1.8642  0.3708  0.9498
  640MOL0     H84464   1.388   5.854   2.523  2.6212  1.1010  1.9170
  640MOL0     H84465   1.632   5.857   2.586  2.0882  0.6969 -0.9297
  640MOL0     H84466   3.258   5.848   3.488  2.1370 -4.0384 -0.8950
  640MOL0     H84467   3.470   5.791   3.602 -0.3655 -1.1231 -1.8775
  640MOL0     H84468   3.895   5.851   3.700 -0.9461  1.3581  0.1513
  640MOL0     H84469   4.121   5.802   3.768 -0.4170  1.5122 -0.9585
  640MOL0     H84470   4.387   5.523   3.754 -0.7527 -0.5499  0.1110
  640MOL0     H84471   4.250   5.618   3.815 -0.7473 -1.0512 -1.1230
  640MOL0     H84472   4.369   5.817   3.764  2.0369  1.2854  0.2843
  640MOL0     H84473   4.458   5.720   3.874 -2.3176  0.8784  0.2357
  640MOL0     H84474   4.600   5.827   3.690 -1.4662  1.1226 -0.0266
  640MOL0     H84475   4.523   5.741   3.571 -0.0836  0.2178 -0.3018
  640MOL0     H84476   4.594   5.521   3.744 -4.1403  1.6518 -1.0016
  640MOL0     H84477   4.682   5.581   3.602  1.3584  1.7247  0.5170
  640MOL0     H84478   4.913   5.638   3.962 -0.2812  3.2482  0.9301
  640MOL0     H84479   4.150   5.542   3.403  0.5140  0.2376  0.5128
  640MOL0     H84480   3.941   5.644   3.329 -2.2423  0.8217  1.4992
  641MOL0     O84481   4.152  10.193  10.100  0.1599  0.1657 -0.4022
  641MOL0     C84482   4.129  10.201  10.223 -0.0428  0.2451  0.0276
  641MOL0     O84483   4.012  10.223  10.285  0.0256 -0.2534 -0.3622
  641MOL0     C84484   3.897  10.183  10.216  0.9052 -0.8725  0.0653
  641MOL0     C84485   3.778  10.239  10.241  0.3439 -0.1642 -0.9203
  641MOL0     C84486   3.648  10.206  10.190  0.7161  0.5589 -0.2015
  641MOL0     C84487   3.643  10.100  10.094 -0.5245 -0.2563  0.4367
  641MOL0     O84488   3.541  10.057  10.025 -0.5183 -0.8188  0.3824
  641MOL0     C84489   3.410  10.048  10.082  0.5020 -0.4588  1.0099
  641MOL0     C84490   3.309  10.106   9.977  0.3477  0.0153  0.9046
  641MOL0     C84491   3.311  10.260   9.962  0.1877  0.1011 -0.6831
  641MOL0     C84492   3.242  10.329   9.843  0.1218 -0.2532  0.7689
  641MOL0     C84493   3.089  10.340   9.856  0.6806  0.2904  0.1067
  641MOL0     C84494   3.048  10.418   9.980 -0.4516  0.6341 -0.5060
  641MOL0     C84495   2.901  10.469   9.956 -0.2244 -0.5767  0.0547
  641MOL0     C84496   2.900  10.601   9.868  0.4251 -0.9810  0.2980
  641MOL0     N84497   2.769  10.665   9.885 -0.3538 -0.1831  0.4701
  641MOL0     C84498   2.733  10.722  10.000  0.1714  0.1232 -0.9074
  641MOL0     C84499   2.611  10.772   9.970  0.2085  0.3979 -0.0735
  641MOL0     C84500   2.527  10.855  10.047  0.1621 -1.2134 -0.6912
  641MOL0     C84501   2.411  10.906   9.978 -0.1708  0.7861  0.2046
  641MOL0     C84502   2.357  11.037  10.038  0.5290  0.4846 -0.3405
  641MOL0     C84503   2.229  11.086   9.965  0.3011 -0.2147 -0.3085
  641MOL0     O84504   2.138  11.166  10.041 -0.2022 -0.0828  0.0634
  641MOL0     C84505   2.034  11.241   9.980  0.0740  0.1160  0.1445
  641MOL0     C84506   2.006  11.244   9.844 -0.0899  0.0674 -0.0514
  641MOL0     C84507   1.910  11.327   9.786 -0.6029 -0.7052 -0.7278
  641MOL0     C84508   1.835  11.418   9.868  0.2984  0.0513 -0.2983
  641MOL0     C84509   1.731  11.513   9.821 -1.0976  0.0310  0.5413
  641MOL0     O84510   1.718  11.632   9.887  0.4728  0.0473  0.1987
  641MOL0     C84511   1.645  11.733   9.834 -0.8309 -0.1863  0.8045
  641MOL0     C84512   1.552  11.799   9.918  0.1233 -0.3692  0.3942
  641MOL0     C84513   1.474  11.906   9.860  0.4977  0.0828  0.2481
  641MOL0     C84514   1.494  11.949   9.734  0.0025  0.8732  0.1960
  641MOL0     O84515   1.452  12.071   9.683  0.5655 -0.2543 -0.4118
  641MOL0     C84516   1.311  12.112   9.704 -0.2331  1.3379  0.5516
  641MOL0     C84517   1.299  12.230   9.803 -0.0633  0.5523 -0.1000
  641MOL0     C84518   1.397  12.343   9.754  0.4133  0.1294  1.4345
  641MOL0     C84519   1.418  12.454   9.851  0.3773 -0.3209  0.5876
  641MOL0     C84520   1.280  12.511   9.902 -0.5976  1.1940 -0.0169
  641MOL0     C84521   1.299  12.627   9.996 -0.1649  1.3676 -0.1835
  641MOL0     C84522   1.187  12.726   9.978  0.1972 -0.1825 -0.1108
  641MOL0     C84523   1.184  12.820  10.095  0.5846 -0.0045  0.1827
  641MOL0    Cl84524   1.018  12.908  10.128  0.0577 -0.0716 -0.0302
  641MOL0     C84525   1.589  11.882   9.652  0.2671  0.2498  0.5188
  641MOL0     C84526   1.659  11.773   9.698  0.6856  0.5380  0.2289
  641MOL0     O84527   1.666  11.479   9.722  0.4218  0.0355  0.1842
  641MOL0     C84528   1.875  11.421  10.002  0.3637 -0.2839 -0.5669
  641MOL0     C84529   1.967  11.335  10.057 -0.6178  0.0703 -0.3319
  641MOL0     N84530   2.574  10.738   9.843  0.4185  0.1925  0.0706
  641MOL0     N84531   2.674  10.676   9.791 -0.3217 -0.9083 -0.2573
  641MOL0     C84532   3.769  10.043  10.059 -0.3338  0.1076 -0.6140
  641MOL0     C84533   3.888  10.073  10.130 -0.2300 -0.2630 -0.6408
  641MOL0     C84534   4.245  10.189  10.303  0.5079  0.0422  1.2182
  641MOL0     C84535   4.374  10.180  10.249  0.1492  0.1879  0.0480
  641MOL0     C84536   4.482  10.162  10.335  0.3023 -0.1367 -0.7388
  641MOL0     C84537   4.468  10.183  10.470 -0.8881  0.0140 -0.4486
  641MOL0     O84538   4.568  10.176  10.568 -0.1314 -0.7795  0.8301
  641MOL0     C84539   4.705  10.153  10.527  0.2061  0.1499 -0.6417
  641MOL0     C84540   4.720  10.002  10.505 -0.0471 -0.4621 -0.2083
  641MOL0     C84541   4.867   9.980  10.457  0.1981 -0.2109  0.0303
  641MOL0     C84542   4.929   9.877  10.552  0.2244  0.2008 -0.2230
  641MOL0     C84543   5.075   9.882  10.538  0.5187  0.3963 -0.3342
  641MOL0     C84544   5.189   9.892  10.509 -0.0126  0.0628  0.7894
  641MOL0     C84545   4.348  10.203  10.528  0.0610  0.0708  0.5178
  641MOL0     C84546   4.233  10.214  10.441 -0.6555 -0.0095 -1.3688
  641MOL0     H84547   3.783  10.317  10.316 -1.7204 -1.5311  0.7729
  641MOL0     H84548   3.552  10.248  10.220 -1.2679 -2.7408 -1.3891
  641MOL0     H84549   3.399  10.094  10.181  0.6960  0.6099  0.5497
  641MOL0     H84550   3.389   9.941  10.083  2.8627 -0.9841 -0.5787
  641MOL0     H84551   3.210  10.073  10.009  0.0692  1.4647  1.6032
  641MOL0     H84552   3.328  10.054   9.882 -1.3301  0.3594  0.3438
  641MOL0     H84553   3.416  10.287   9.971  0.5427 -1.0226 -1.3061
  641MOL0     H84554   3.272  10.295  10.059 -0.0485 -0.2833 -0.6402
  641MOL0     H84555   3.285  10.429   9.835  1.3658 -0.8547 -0.7870
  641MOL0     H84556   3.269  10.280   9.749 -1.0395  0.8091 -0.1648
  641MOL0     H84557   3.055  10.236   9.859 -2.3936  1.1881 -0.1093
  641MOL0     H84558   3.039  10.379   9.767 -1.3063 -0.1100  0.9863
  641MOL0     H84559   3.122  10.495  10.002  0.9288 -0.0394 -2.5664
  641MOL0     H84560   3.048  10.345  10.062 -0.9461  0.2551 -0.8401
  641MOL0     H84561   2.834  10.390   9.921 -1.6497  1.2316 -1.5721
  641MOL0     H84562   2.863  10.498  10.054 -1.4563  1.7503 -1.0295
  641MOL0     H84563   2.931  10.575   9.767  2.8047  0.6646  0.5173
  641MOL0     H84564   2.975  10.670   9.907  1.6194 -1.6577 -0.7361
  641MOL0     H84565   2.791  10.750  10.087  1.3467  1.2375 -1.9958
  641MOL0     H84566   2.595  10.938  10.065  1.6388 -2.1009 -1.8932
  641MOL0     H84567   2.512  10.806  10.143 -0.4201  0.4997  0.1178
  641MOL0     H84568   2.329  10.833   9.973  0.4619  0.0950 -0.2273
  641MOL0     H84569   2.431  10.936   9.874 -0.0059  2.0592  0.5807
  641MOL0     H84570   2.322  11.021  10.140  2.2700 -1.2697  0.0434
  641MOL0     H84571   2.440  11.107  10.051  2.2649 -1.6951  1.0815
  641MOL0     H84572   2.173  10.995   9.942 -1.5090  1.0043 -0.8811
  641MOL0     H84573   2.258  11.126   9.867 -2.3291  0.1043 -1.0248
  641MOL0     H84574   2.058  11.166   9.788 -3.2725 -2.8219  0.6613
  641MOL0     H84575   1.871  11.306   9.686  1.6809  1.1881 -2.0952
  641MOL0     H84576   1.541  11.770  10.022  1.9314 -1.2646  0.3776
  641MOL0     H84577   1.404  11.959   9.923  0.2180  0.2751 -0.2218
  641MOL0     H84578   1.253  12.027   9.741  1.0615  0.1484 -0.0351
  641MOL0     H84579   1.266  12.133   9.607 -1.8165 -0.6076  0.8058
  641MOL0     H84580   1.345  12.195   9.896  2.2550 -1.4407 -1.8675
  641MOL0     H84581   1.195  12.263   9.809  0.2791  2.2112 -2.1224
  641MOL0     H84582   1.343  12.387   9.670 -0.7237 -2.5557  0.6467
  641MOL0     H84583   1.490  12.301   9.715 -1.3567 -1.4277 -1.3888
  641MOL0     H84584   1.475  12.413   9.934 -2.4419  0.0212  2.8414
  641MOL0     H84585   1.476  12.526   9.793 -0.9606  0.5291  0.2549
  641MOL0     H84586   1.222  12.434   9.953 -1.5202  0.5432 -1.9297
  641MOL0     H84587   1.213  12.538   9.819 -0.3690 -0.6425 -0.8436
  641MOL0     H84588   1.398  12.672   9.982  0.7949 -1.0184 -1.6839
  641MOL0     H84589   1.306  12.579  10.094 -0.5427  0.5507 -0.5464
  641MOL0     H84590   1.200  12.783   9.886 -0.4020 -0.4089 -0.3368
  641MOL0     H84591   1.096  12.666   9.976  0.6610 -0.9382  0.5253
  641MOL0     H84592   1.253  12.903  10.083 -0.2826  1.1688  2.6529
  641MOL0     H84593   1.205  12.764  10.187 -1.7768  1.3254  1.6391
  641MOL0     H84594   1.611  11.924   9.554 -3.2830 -1.0056 -0.9800
  641MOL0     H84595   1.732  11.728   9.631  1.2624  0.3435  0.9786
  641MOL0     H84596   1.832  11.486  10.078 -2.7574 -1.8282 -0.8054
  641MOL0     H84597   1.997  11.360  10.158  2.6670 -0.3886 -1.0992
  641MOL0     H84598   3.764   9.955   9.996 -3.1489  0.9087 -1.6296
  641MOL0     H84599   3.979  10.015  10.119 -0.1486  0.0817 -1.8815
  641MOL0     H84600   4.395  10.166  10.143  0.7736 -1.2770  0.3376
  641MOL0     H84601   4.582  10.135  10.303  0.6326  0.3166 -0.1032
  641MOL0     H84602   4.776  10.180  10.606  0.7431 -4.0723  0.5854
  641MOL0     H84603   4.726  10.210  10.436  1.1845  0.4743 -0.2295
  641MOL0     H84604   4.698   9.956  10.601 -2.8248  0.0367 -0.5085
  641MOL0     H84605   4.657   9.960  10.425 -1.9232  0.3064  0.8067
  641MOL0     H84606   4.925  10.072  10.472  0.1272 -0.4111  1.6904
  641MOL0     H84607   4.866   9.952  10.351 -1.8061  0.9484 -0.3066
  641MOL0     H84608   4.908   9.905  10.655  0.2649  1.3645 -0.5160
  641MOL0     H84609   4.901   9.775  10.525  0.8544  0.8746 -3.9361
  641MOL0     H84610   5.292   9.912  10.489  0.9360 -1.7775  3.2556
  641MOL0     H84611   4.340  10.229  10.633  0.0761  2.4915 -0.0048
  641MOL0     H84612   4.134  10.223  10.485 -0.2604 -2.1000  0.1006
  642MOL0     O84613   3.927   5.266   6.528 -0.2531  0.1266 -0.3469
  642MOL0     C84614   3.993   5.170   6.569 -0.4626 -0.5573 -0.0711
  642MOL0     O84615   3.946   5.044   6.583  0.5177 -0.3307 -0.0187
  642MOL0     C84616   3.811   5.015   6.554 -0.5273  0.2473  0.5194
  642MOL0     C84617   3.719   5.093   6.594  0.2833 -0.0975 -0.6189
  642MOL0     C84618   3.583   5.069   6.568 -0.1146  0.2586 -0.9723
  642MOL0     C84619   3.545   4.952   6.507 -0.0930 -0.8016  0.2386
  642MOL0     O84620   3.402   4.930   6.515  0.1220  0.1158 -0.0530
  642MOL0     C84621   3.353   4.807   6.466 -0.3187 -0.4172 -0.6573
  642MOL0     C84622   3.201   4.821   6.453  0.2265 -0.7378 -0.0042
  642MOL0     C84623   3.173   4.904   6.329  0.5828 -0.7132  1.3341
  642MOL0     C84624   3.024   4.952   6.330  0.1675  0.2671 -0.5037
  642MOL0     C84625   2.989   5.021   6.202 -0.2933 -0.1398  0.8101
  642MOL0     C84626   2.847   5.046   6.198  0.0689  0.0938  0.4880
  642MOL0     C84627   2.807   5.125   6.078 -0.3656  0.3381  0.6573
  642MOL0     C84628   2.655   5.139   6.050 -0.0199  1.2668 -0.1577
  642MOL0     N84629   2.605   5.006   6.004 -1.1060  1.1127  0.1380
  642MOL0     C84630   2.620   4.947   5.879 -0.0552  0.5854  0.4578
  642MOL0     C84631   2.562   4.825   5.880 -0.2348  0.0642 -0.5643
  642MOL0     C84632   2.557   4.719   5.777 -0.1639  0.7245  0.2475
  642MOL0     C84633   2.509   4.580   5.830  0.6767 -0.8174 -0.1058
  642MOL0     C84634   2.505   4.462   5.719  0.3658  0.3681 -0.3902
  642MOL0     C84635   2.390   4.479   5.615 -0.2563 -0.1731  0.8301
  642MOL0     O84636   2.257   4.482   5.665 -0.2689  0.2036 -0.7627
  642MOL0     C84637   2.150   4.428   5.603  0.0707  0.9306  0.9231
  642MOL0     C84638   2.150   4.405   5.457 -0.0862  0.1468  0.2616
  642MOL0     C84639   2.037   4.361   5.396  0.3959 -0.1652  0.1889
  642MOL0     C84640   1.919   4.337   5.463 -0.0978 -0.3125 -0.3896
  642MOL0     C84641   1.807   4.288   5.380  0.8997 -0.2623 -0.4517
  642MOL0     O84642   1.698   4.249   5.447  0.5492 -0.4424  0.4847
  642MOL0     C84643   1.597   4.193   5.374  0.5649  0.6821 -1.4461
  642MOL0     C84644   1.565   4.060   5.408  0.2061  0.1699 -0.1456
  642MOL0     C84645   1.465   3.993   5.337  0.1589  0.2863  0.1045
  642MOL0     C84646   1.378   4.064   5.245  0.3408  1.0072 -0.4181
  642MOL0     O84647   1.279   3.991   5.195  0.0895 -0.1756  0.1507
  642MOL0     C84648   1.165   4.053   5.159  1.2316  0.4792  0.1739
  642MOL0     C84649   1.045   3.953   5.143 -0.7148  0.4148 -0.1995
  642MOL0     C84650   1.051   3.875   5.008  0.2391 -0.0412 -0.1759
  642MOL0     C84651   0.922   3.873   4.922  0.3058  0.1248  0.0538
  642MOL0     C84652   0.892   4.005   4.842 -0.6357 -0.9369 -0.7254
  642MOL0     C84653   0.773   3.985   4.749  0.4193 -0.3899 -0.5466
  642MOL0     C84654   0.650   3.935   4.826  0.7512 -0.2159  0.4083
  642MOL0     C84655   0.621   3.782   4.812  0.2495  0.6524  0.3868
  642MOL0    Cl84656   0.545   3.762   4.652 -0.0403 -0.2741  0.6325
  642MOL0     C84657   1.410   4.190   5.212 -0.1864  0.3824  0.3867
  642MOL0     C84658   1.514   4.262   5.277  0.1497 -0.5271  0.2725
  642MOL0     O84659   1.824   4.280   5.260 -0.6389 -0.0161  0.2058
  642MOL0     C84660   1.919   4.342   5.601  0.2722 -0.5079  0.5806
  642MOL0     C84661   2.032   4.392   5.666  0.0505 -0.2719  0.3103
  642MOL0     N84662   2.510   4.810   6.005 -0.1436 -0.1552  0.7630
  642MOL0     N84663   2.527   4.919   6.076 -0.3557 -0.5101 -1.1211
  642MOL0     C84664   3.643   4.864   6.474 -0.3953  0.4824 -0.1728
  642MOL0     C84665   3.781   4.894   6.488  0.0404 -0.2016 -0.1677
  642MOL0     C84666   4.133   5.185   6.601 -0.0142  0.4450  0.3123
  642MOL0     C84667   4.192   5.312   6.630 -0.1248  0.0593 -0.3240
  642MOL0     C84668   4.332   5.318   6.658  0.4866 -0.2925 -0.2328
  642MOL0     C84669   4.416   5.203   6.675 -0.5355 -0.8811  0.3238
  642MOL0     O84670   4.554   5.230   6.710  0.7763 -0.6348  0.5264
  642MOL0     C84671   4.618   5.150   6.807 -0.1158 -0.5895  0.9872
  642MOL0     C84672   4.754   5.087   6.774 -0.3897  0.2121 -0.0110
  642MOL0     C84673   4.862   5.184   6.735  0.7723 -0.9216  1.2310
  642MOL0     C84674   4.895   5.283   6.842 -0.9364 -1.1357  1.0126
  642MOL0     C84675   4.963   5.215   6.947  0.0210 -0.6238 -0.0869
  642MOL0     C84676   5.004   5.129   7.024  0.7053  0.2492 -0.5607
  642MOL0     C84677   4.351   5.079   6.667 -0.6104  0.2768 -0.5947
  642MOL0     C84678   4.214   5.066   6.632 -0.9384  0.3908 -0.8142
  642MOL0     H84679   3.734   5.189   6.643 -3.6840  0.6978 -0.6124
  642MOL0     H84680   3.512   5.131   6.621 -0.2563 -1.9606  1.6657
  642MOL0     H84681   3.383   4.727   6.534 -2.8526  1.9192  3.6146
  642MOL0     H84682   3.397   4.790   6.367 -2.3425 -0.5662 -1.5857
  642MOL0     H84683   3.166   4.861   6.548  4.3995  2.4798  0.4856
  642MOL0     H84684   3.161   4.722   6.430 -2.2467  0.5868 -1.8641
  642MOL0     H84685   3.187   4.835   6.246 -1.5305  0.7323 -0.3212
  642MOL0     H84686   3.235   4.994   6.318 -0.5142 -0.2273 -1.8988
  642MOL0     H84687   2.939   4.885   6.343 -2.4103  3.4076  0.1814
  642MOL0     H84688   3.006   5.013   6.419 -1.9691 -3.1802  1.6471
  642MOL0     H84689   3.003   4.957   6.114 -1.9902 -1.1089  1.1886
  642MOL0     H84690   3.040   5.117   6.200  0.9305 -0.5787  4.2562
  642MOL0     H84691   2.812   5.103   6.285 -0.3217 -0.6387  0.8230
  642MOL0     H84692   2.786   4.956   6.205 -1.7841  1.3835  3.5104
  642MOL0     H84693   2.842   5.228   6.095 -2.0638  0.5095  3.9604
  642MOL0     H84694   2.857   5.074   5.996  1.1487 -2.3672  3.0794
  642MOL0     H84695   2.631   5.218   5.979  0.9293  0.8851 -0.9232
  642MOL0     H84696   2.603   5.151   6.146  0.4147 -0.4021  0.3287
  642MOL0     H84697   2.673   4.984   5.791 -0.2301 -1.4043 -0.5384
  642MOL0     H84698   2.663   4.701   5.753  0.5631  2.6788  1.7406
  642MOL0     H84699   2.500   4.748   5.689  0.9918  1.5141 -0.2620
  642MOL0     H84700   2.407   4.598   5.866  0.7973  1.2996 -0.6783
  642MOL0     H84701   2.563   4.549   5.920 -0.5063  1.5211  1.5180
  642MOL0     H84702   2.601   4.467   5.667 -0.9606  0.5778 -2.9883
  642MOL0     H84703   2.493   4.366   5.769  0.6328  1.2936  1.5574
  642MOL0     H84704   2.392   4.388   5.555  0.0825  1.1440 -1.2496
  642MOL0     H84705   2.402   4.565   5.548 -0.5510  0.9439  2.1593
  642MOL0     H84706   2.240   4.416   5.398  0.4418  2.5814  1.3752
  642MOL0     H84707   2.047   4.320   5.296  2.3604 -3.0129  1.4386
  642MOL0     H84708   1.614   4.012   5.492  1.1815  1.2351 -0.0760
  642MOL0     H84709   1.442   3.892   5.368  0.1346  0.1889 -0.2262
  642MOL0     H84710   1.186   4.107   5.066 -2.4361  0.8946 -0.5663
  642MOL0     H84711   1.135   4.134   5.226  3.2151  1.5522 -0.1428
  642MOL0     H84712   0.949   4.002   5.161 -0.3128  1.3139 -0.4545
  642MOL0     H84713   1.057   3.881   5.224  0.0943  2.5385  1.6647
  642MOL0     H84714   1.086   3.774   5.031 -3.5497 -2.5312 -3.9126
  642MOL0     H84715   1.128   3.924   4.948  0.6946 -0.8801 -0.2950
  642MOL0     H84716   0.938   3.802   4.840  0.3835  0.2393 -0.0294
  642MOL0     H84717   0.844   3.833   4.987  0.9414 -1.7492 -0.2840
  642MOL0     H84718   0.983   4.030   4.787 -0.4904  1.4389  0.4853
  642MOL0     H84719   0.873   4.089   4.909 -3.2332 -1.7139 -0.3708
  642MOL0     H84720   0.792   3.918   4.664 -1.0955 -0.1839 -1.0865
  642MOL0     H84721   0.752   4.088   4.720  1.2867  0.4380  1.5796
  642MOL0     H84722   0.657   3.954   4.933 -2.0101 -0.2123  0.6532
  642MOL0     H84723   0.570   3.990   4.775 -0.1295 -2.2184 -0.5023
  642MOL0     H84724   0.538   3.762   4.880 -3.0819  3.0429 -2.5992
  642MOL0     H84725   0.701   3.709   4.829 -0.9362 -1.1157 -1.1270
  642MOL0     H84726   1.345   4.247   5.147 -0.1420  0.3909  0.3494
  642MOL0     H84727   1.526   4.365   5.243  1.7600 -1.0067 -0.7136
  642MOL0     H84728   1.829   4.317   5.656 -0.8950 -0.5665 -1.2499
  642MOL0     H84729   2.025   4.408   5.774 -0.8446 -3.6208  0.8565
  642MOL0     H84730   3.634   4.765   6.430  0.6208 -1.4644  3.5503
  642MOL0     H84731   3.848   4.814   6.458  0.4560  0.2415 -0.4381
  642MOL0     H84732   4.137   5.406   6.622 -1.1865 -0.6495 -1.7767
  642MOL0     H84733   4.392   5.408   6.653  0.1720 -0.0465  0.3665
  642MOL0     H84734   4.560   5.062   6.835  0.3621 -0.7209  1.5705
  642MOL0     H84735   4.638   5.209   6.897  2.1429 -0.9058  0.7613
  642MOL0     H84736   4.788   5.029   6.860  0.3517 -0.5561 -0.7933
  642MOL0     H84737   4.739   5.019   6.690 -0.8846 -3.8207  3.0476
  642MOL0     H84738   4.822   5.237   6.648 -0.6311 -1.7484  1.3515
  642MOL0     H84739   4.948   5.122   6.709 -1.0378 -2.1827 -2.3606
  642MOL0     H84740   4.969   5.359   6.815  0.8255 -3.1674 -0.1149
  642MOL0     H84741   4.803   5.333   6.875 -1.7473 -1.7933 -0.2006
  642MOL0     H84742   5.021   5.041   7.082  2.5852  0.8792 -0.0903
  642MOL0     H84743   4.407   4.995   6.707  2.4889  2.0968 -0.8582
  642MOL0     H84744   4.174   4.967   6.613 -2.2514  0.8727 -0.6980
  643MOL0     O84745   2.424   5.827   2.640  1.3254 -0.5674  0.0618
  643MOL0     C84746   2.514   5.780   2.705  0.1523 -0.2503 -0.0080
  643MOL0     O84747   2.530   5.652   2.738  0.5699  0.5219 -0.1126
  643MOL0     C84748   2.432   5.558   2.712 -0.2382  0.3969  1.2748
  643MOL0     C84749   2.476   5.433   2.670  0.0223  0.2983  0.3820
  643MOL0     C84750   2.390   5.329   2.658  0.9919  0.7464  0.1316
  643MOL0     C84751   2.254   5.340   2.679 -0.9000 -0.1729 -0.2404
  643MOL0     O84752   2.192   5.222   2.672 -0.5816  0.1724  0.9005
  643MOL0     C84753   2.066   5.209   2.734 -0.0445  0.2546 -0.3817
  643MOL0     C84754   2.027   5.065   2.714 -0.0009 -0.6998 -0.2955
  643MOL0     C84755   1.886   5.047   2.772 -0.6161  1.0681  0.9225
  643MOL0     C84756   1.845   4.905   2.743 -0.0152 -0.1820  0.4571
  643MOL0     C84757   1.787   4.889   2.602 -0.7123  0.6705 -0.3102
  643MOL0     C84758   1.737   4.739   2.578 -1.2669  0.8394 -0.3521
  643MOL0     C84759   1.806   4.659   2.464  0.6549 -0.3427  0.0437
  643MOL0     C84760   1.947   4.603   2.493  0.1838  0.2123  0.0430
  643MOL0     N84761   2.063   4.681   2.485 -0.2545  0.1653  1.2753
  643MOL0     C84762   2.095   4.772   2.387 -0.7365 -1.1843  0.4835
  643MOL0     C84763   2.208   4.835   2.427  0.1028 -0.5298 -0.5215
  643MOL0     C84764   2.286   4.942   2.359 -0.1910  0.0997 -0.2351
  643MOL0     C84765   2.408   4.892   2.272  0.3645 -0.8789 -0.5381
  643MOL0     C84766   2.519   4.849   2.368 -1.6745 -0.8314  1.3165
  643MOL0     C84767   2.653   4.828   2.288 -0.2049  1.3301 -0.2409
  643MOL0     O84768   2.717   4.956   2.245  0.9178  0.3349  0.4418
  643MOL0     C84769   2.843   4.956   2.198  0.7125 -0.4293  0.2986
  643MOL0     C84770   2.915   5.074   2.197 -0.1817  0.5288 -0.7646
  643MOL0     C84771   3.049   5.075   2.165  0.0032  0.6713  0.0930
  643MOL0     C84772   3.106   4.953   2.123  1.0019  0.2892  0.2518
  643MOL0     C84773   3.242   4.950   2.087  1.6922  0.6765 -0.0046
  643MOL0     O84774   3.304   4.830   2.085  0.7825  0.5150  0.3334
  643MOL0     C84775   3.438   4.830   2.047 -1.1925  0.0229 -0.2157
  643MOL0     C84776   3.488   4.892   1.930 -0.2791  0.1445  0.1814
  643MOL0     C84777   3.628   4.856   1.892 -1.2610 -0.1116 -0.2234
  643MOL0     C84778   3.713   4.784   1.978  0.2897  0.0506 -0.0388
  643MOL0     O84779   3.850   4.803   1.972 -0.0692 -0.8216 -0.3436
  643MOL0     C84780   3.945   4.746   2.065 -0.2233  0.9561  0.3979
  643MOL0     C84781   4.080   4.802   2.024 -0.9474  0.1984  0.3618
  643MOL0     C84782   4.179   4.805   2.137 -0.1547 -0.1920  0.2440
  643MOL0     C84783   4.252   4.676   2.157 -0.5473  0.2643  0.0937
  643MOL0     C84784   4.372   4.702   2.248  0.3355  0.2103 -0.8372
  643MOL0     C84785   4.457   4.572   2.258  0.4370  0.0515 -0.2850
  643MOL0     C84786   4.579   4.572   2.364  0.6638 -0.5814  0.2785
  643MOL0     C84787   4.669   4.458   2.337 -0.6479 -0.1222  0.6033
  643MOL0    Cl84788   4.603   4.300   2.354  0.0870  0.1577 -0.0207
  643MOL0     C84789   3.653   4.722   2.092  0.4843 -0.3646  0.0022
  643MOL0     C84790   3.524   4.747   2.132  1.1769 -0.3150  0.5795
  643MOL0     O84791   3.297   5.057   2.069  0.6966  0.3184 -0.3569
  643MOL0     C84792   3.032   4.831   2.124  0.7555 -0.6919 -0.3941
  643MOL0     C84793   2.901   4.842   2.161 -0.2989  1.0485 -0.9253
  643MOL0     N84794   2.241   4.786   2.547 -0.1530 -0.0481 -0.3105
  643MOL0     N84795   2.155   4.697   2.581  0.0993 -0.2002 -0.5147
  643MOL0     C84796   2.209   5.470   2.723 -0.1436 -0.2318  0.6562
  643MOL0     C84797   2.295   5.570   2.740 -0.9200 -0.1056  0.0666
  643MOL0     C84798   2.624   5.879   2.743 -0.7295  0.2941 -0.2099
  643MOL0     C84799   2.619   6.012   2.690 -0.2805 -0.5683  0.5258
  643MOL0     C84800   2.727   6.106   2.701 -0.2583  1.3934  0.2639
  643MOL0     C84801   2.843   6.058   2.768  0.7864  0.4809  1.0520
  643MOL0     O84802   2.929   6.162   2.791 -0.1292  0.6018  0.2875
  643MOL0     C84803   3.012   6.179   2.681 -0.7181 -0.1865  0.1278
  643MOL0     C84804   3.137   6.254   2.733 -0.6387  0.6865  0.5490
  643MOL0     C84805   3.185   6.351   2.630 -0.1060  0.4341 -0.5586
  643MOL0     C84806   3.309   6.422   2.684 -0.0741  0.0727 -0.1328
  643MOL0     C84807   3.421   6.334   2.711 -0.6721 -0.1827 -0.2084
  643MOL0     C84808   3.516   6.251   2.716  1.0424  0.7649  0.8226
  643MOL0     C84809   2.849   5.929   2.817  0.7891 -0.0589 -0.3174
  643MOL0     C84810   2.746   5.835   2.808 -0.2498 -0.7775  0.2856
  643MOL0     H84811   2.584   5.435   2.656 -0.2039  0.7654 -1.6552
  643MOL0     H84812   2.430   5.232   2.629  1.4270  0.2605  2.1526
  643MOL0     H84813   1.996   5.274   2.680 -0.8626 -1.8516 -2.0027
  643MOL0     H84814   2.083   5.231   2.840 -0.0944  0.0427 -0.3285
  643MOL0     H84815   2.096   4.995   2.761 -0.3976 -1.6912 -1.1463
  643MOL0     H84816   2.021   5.048   2.606 -2.2907  1.5428 -0.6360
  643MOL0     H84817   1.815   5.115   2.723 -3.7123 -0.7535  2.5366
  643MOL0     H84818   1.885   5.074   2.878 -0.2578  2.1512  0.6618
  643MOL0     H84819   1.922   4.832   2.767 -0.1738 -1.9898 -3.8116
  643MOL0     H84820   1.760   4.886   2.810 -0.1686  0.6664  0.5226
  643MOL0     H84821   1.860   4.919   2.526  0.6436 -1.5819  0.0156
  643MOL0     H84822   1.696   4.948   2.586 -1.5965 -0.7471 -0.6673
  643MOL0     H84823   1.629   4.740   2.559 -1.6275  3.7049  1.3039
  643MOL0     H84824   1.764   4.683   2.668  0.4555  0.7651 -0.8841
  643MOL0     H84825   1.747   4.569   2.447  1.3567 -0.5055 -1.6695
  643MOL0     H84826   1.813   4.718   2.372  2.9597 -2.1302 -1.0145
  643MOL0     H84827   1.963   4.518   2.425  1.2475  0.6772 -0.3029
  643MOL0     H84828   1.940   4.558   2.592  2.2106  0.1016  0.1651
  643MOL0     H84829   2.042   4.802   2.297  0.7525 -2.8216 -1.0093
  643MOL0     H84830   2.312   5.014   2.436 -0.7808  1.8122 -1.5647
  643MOL0     H84831   2.223   4.996   2.288 -0.7168  1.3702  1.1474
  643MOL0     H84832   2.449   4.974   2.213 -1.5782 -1.3776 -2.7542
  643MOL0     H84833   2.379   4.807   2.208 -4.4989  2.1699 -3.0078
  643MOL0     H84834   2.539   4.936   2.431 -0.0516  0.4244 -0.7906
  643MOL0     H84835   2.485   4.762   2.425 -0.7192 -0.5003  2.4237
  643MOL0     H84836   2.642   4.761   2.202  1.9570 -1.4960  1.4969
  643MOL0     H84837   2.719   4.779   2.361 -0.4804  1.3882  0.0490
  643MOL0     H84838   2.870   5.167   2.230  1.8849  0.8147  1.5997
  643MOL0     H84839   3.112   5.163   2.155  0.8840 -0.0484 -1.0284
  643MOL0     H84840   3.428   4.960   1.871  2.3652  1.0678 -1.6447
  643MOL0     H84841   3.667   4.905   1.804 -1.5216  3.5460  1.5048
  643MOL0     H84842   3.956   4.637   2.055 -1.4887  0.6515  1.8061
  643MOL0     H84843   3.910   4.775   2.165 -1.3840 -0.5313  0.4627
  643MOL0     H84844   4.064   4.903   1.985  1.2880  1.1275  1.6402
  643MOL0     H84845   4.119   4.748   1.937  1.2044  0.9675  0.7812
  643MOL0     H84846   4.122   4.820   2.229  1.0198  0.8699  0.8262
  643MOL0     H84847   4.247   4.889   2.118 -1.6715  1.1171  0.3793
  643MOL0     H84848   4.189   4.594   2.193  1.1268 -0.6704  0.9979
  643MOL0     H84849   4.287   4.638   2.061 -2.1975 -3.0534  0.6454
  643MOL0     H84850   4.349   4.724   2.353  1.4775 -0.1668 -0.4928
  643MOL0     H84851   4.423   4.792   2.212  2.5105 -0.6291 -0.0185
  643MOL0     H84852   4.498   4.545   2.161  0.9511 -1.1666  0.2522
  643MOL0     H84853   4.382   4.493   2.269  0.1341  0.3574 -0.1272
  643MOL0     H84854   4.632   4.664   2.339  0.2353 -0.6162 -0.7973
  643MOL0     H84855   4.552   4.574   2.470 -0.3357 -3.0286  0.1370
  643MOL0     H84856   4.763   4.464   2.392 -0.2762  0.0364 -0.0335
  643MOL0     H84857   4.716   4.478   2.240  2.4700  8.0290  2.9963
  643MOL0     H84858   3.702   4.671   2.174 -3.2264 -2.2239  1.2783
  643MOL0     H84859   3.471   4.714   2.221 -1.8027  0.8434 -0.6381
  643MOL0     H84860   3.078   4.734   2.109  2.6099  0.2482 -1.1428
  643MOL0     H84861   2.845   4.749   2.160  4.1428 -2.0672  1.4349
  643MOL0     H84862   2.104   5.484   2.746 -0.5317 -0.7840 -0.6728
  643MOL0     H84863   2.254   5.667   2.767  0.7797  0.8695 -0.6682
  643MOL0     H84864   2.535   6.062   2.644  1.2217  2.3271  0.6753
  643MOL0     H84865   2.714   6.204   2.656 -0.9500  0.1586 -2.4369
  643MOL0     H84866   2.969   6.242   2.603 -0.5998  0.4642  0.5686
  643MOL0     H84867   3.039   6.081   2.642 -1.4614 -0.0367 -0.7780
  643MOL0     H84868   3.119   6.304   2.829 -1.4225 -0.9447  1.2857
  643MOL0     H84869   3.212   6.175   2.742  1.0781  2.2577  0.4939
  643MOL0     H84870   3.099   6.418   2.618  0.6829  1.8718  1.2644
  643MOL0     H84871   3.201   6.291   2.540 -0.7035  1.2140 -1.2083
  643MOL0     H84872   3.340   6.493   2.607  0.7774 -0.4566 -0.2914
  643MOL0     H84873   3.276   6.464   2.779 -0.2244  2.1407 -1.0536
  643MOL0     H84874   3.581   6.181   2.763 -1.8670 -2.0091  1.0661
  643MOL0     H84875   2.936   5.892   2.870 -1.1289 -3.0720  0.9840
  643MOL0     H84876   2.756   5.730   2.834 -3.1394 -1.4503 -0.9623
  644MOL0     O84877   9.164   7.143   6.929  0.2242  0.1147 -0.1621
  644MOL0     C84878   9.263   7.086   6.876 -0.5289 -0.4803 -0.7841
  644MOL0     O84879   9.251   6.992   6.781  0.0331 -0.5285 -0.0770
  644MOL0     C84880   9.126   6.949   6.734 -0.3104 -0.0799 -0.3787
  644MOL0     C84881   9.100   6.968   6.596 -0.4197  0.7610 -0.5499
  644MOL0     C84882   8.978   6.926   6.551 -0.3970 -0.0726 -0.9765
  644MOL0     C84883   8.880   6.871   6.636 -0.4186  0.9487 -0.3534
  644MOL0     O84884   8.756   6.845   6.580  0.1622 -0.1644  0.0195
  644MOL0     C84885   8.641   6.864   6.661 -0.1828 -0.7545  0.3523
  644MOL0     C84886   8.526   6.817   6.581 -0.4479  0.0862 -0.0270
  644MOL0     C84887   8.393   6.815   6.661 -0.3874  0.4233 -0.2897
  644MOL0     C84888   8.285   6.790   6.556 -0.5229  0.1659 -0.4810
  644MOL0     C84889   8.150   6.802   6.631 -1.3006 -0.7331 -0.5724
  644MOL0     C84890   8.037   6.768   6.541  0.2115 -0.0891 -0.1355
  644MOL0     C84891   7.897   6.797   6.599  0.2366  0.4328 -0.4468
  644MOL0     C84892   7.845   6.704   6.710 -0.2190  0.1739 -0.1102
  644MOL0     N84893   7.705   6.742   6.745 -0.3360 -0.0436  0.3665
  644MOL0     C84894   7.671   6.852   6.826 -0.7144 -0.3704  0.5740
  644MOL0     C84895   7.537   6.863   6.822  0.6848 -0.6492  0.7055
  644MOL0     C84896   7.447   6.969   6.886 -0.5652  0.4352 -0.0237
  644MOL0     C84897   7.415   6.940   7.031 -0.2034 -0.4072 -0.0055
  644MOL0     C84898   7.322   7.043   7.097 -0.2219 -0.3832  0.1946
  644MOL0     C84899   7.171   7.029   7.072 -0.1728 -0.5780  0.5765
  644MOL0     O84900   7.119   6.941   7.170  0.3050 -0.2132  0.1577
  644MOL0     C84901   6.982   6.924   7.175 -0.9152  0.0231  0.0359
  644MOL0     C84902   6.895   6.962   7.070 -0.0052  0.2823  0.4665
  644MOL0     C84903   6.757   6.936   7.082 -0.6107 -0.5451  0.3210
  644MOL0     C84904   6.707   6.877   7.194  0.2387 -0.2120 -0.7042
  644MOL0     C84905   6.556   6.872   7.212 -0.1938 -0.6322 -0.6576
  644MOL0     O84906   6.479   6.948   7.131  0.1653 -0.0537  0.1376
  644MOL0     C84907   6.350   6.963   7.163  0.2488 -0.0448  0.0879
  644MOL0     C84908   6.317   7.045   7.266 -0.0414  0.1322  0.3014
  644MOL0     C84909   6.183   7.076   7.289 -0.6447 -0.3551 -0.4582
  644MOL0     C84910   6.079   7.036   7.202  0.0235  0.7804 -0.2599
  644MOL0     O84911   5.944   7.059   7.224 -0.7288  0.3024  0.5205
  644MOL0     C84912   5.888   7.032   7.355  0.2431 -0.1663 -0.3801
  644MOL0     C84913   5.893   6.881   7.379 -0.6423  0.2123 -0.3001
  644MOL0     C84914   5.779   6.802   7.310 -0.0055 -0.0771  0.4285
  644MOL0     C84915   5.730   6.845   7.169 -0.5517  0.0094 -0.0967
  644MOL0     C84916   5.615   6.767   7.119  1.1300 -0.5246  0.5129
  644MOL0     C84917   5.509   6.857   7.044  0.7402  0.1757  0.5543
  644MOL0     C84918   5.416   6.769   6.963  0.9300  0.1911  1.0167
  644MOL0     C84919   5.479   6.721   6.831 -0.2381  0.0975 -0.2863
  644MOL0    Cl84920   5.535   6.550   6.845 -0.3053  0.4378  0.3406
  644MOL0     C84921   6.113   6.956   7.098 -0.7958  0.8922  0.0929
  644MOL0     C84922   6.248   6.911   7.081  0.2451 -0.2493 -0.2146
  644MOL0     O84923   6.508   6.796   7.300  0.1812  0.5611 -0.2675
  644MOL0     C84924   6.795   6.837   7.293 -0.0346  0.4917  0.4245
  644MOL0     C84925   6.927   6.863   7.285 -1.0329  0.0706 -0.6671
  644MOL0     N84926   7.485   6.772   6.728 -1.3265  0.1015 -0.5556
  644MOL0     N84927   7.590   6.710   6.677  0.2215  0.7133 -0.2387
  644MOL0     C84928   8.910   6.848   6.775 -0.1977  0.7020 -0.0851
  644MOL0     C84929   9.032   6.886   6.825  0.8284 -0.0980  0.0976
  644MOL0     C84930   9.392   7.126   6.924 -0.4286 -0.1878 -1.0493
  644MOL0     C84931   9.419   7.235   7.007  0.4458  0.3916 -0.2897
  644MOL0     C84932   9.550   7.268   7.054  0.4480 -0.2755 -0.3829
  644MOL0     C84933   9.657   7.184   7.030  0.6820  0.6680  0.2039
  644MOL0     O84934   9.775   7.207   7.093 -0.5480  0.2740 -0.6128
  644MOL0     C84935   9.884   7.162   7.013  0.1870  0.8628  0.4455
  644MOL0     C84936  10.011   7.208   7.077 -0.3304 -0.5005 -0.4639
  644MOL0     C84937  10.134   7.144   7.001 -0.3431 -0.5592 -0.3573
  644MOL0     C84938  10.263   7.161   7.087  0.0223  0.1030 -0.7113
  644MOL0     C84939  10.290   7.305   7.095 -0.4269  0.5622  0.0657
  644MOL0     C84940  10.332   7.420   7.107  0.4604  0.1969 -0.1708
  644MOL0     C84941   9.633   7.068   6.948 -0.5362 -0.2717 -0.8017
  644MOL0     C84942   9.504   7.037   6.903 -0.3621 -0.1022  0.0621
  644MOL0     H84943   9.166   7.016   6.525 -1.7254  3.1440 -0.2504
  644MOL0     H84944   8.963   6.941   6.445 -0.1927 -1.2141 -1.1860
  644MOL0     H84945   8.632   6.972   6.673 -3.2741 -0.9360  0.5247
  644MOL0     H84946   8.640   6.824   6.763  0.6814 -0.3359  0.5378
  644MOL0     H84947   8.545   6.712   6.558  1.0170 -0.1205  1.8297
  644MOL0     H84948   8.512   6.878   6.492 -4.3034 -0.4954  0.0206
  644MOL0     H84949   8.377   6.910   6.712 -2.8512 -0.3280  0.4774
  644MOL0     H84950   8.393   6.741   6.741 -0.5293  1.4321  0.6776
  644MOL0     H84951   8.299   6.872   6.485  0.7187  0.3778 -0.0224
  644MOL0     H84952   8.289   6.691   6.511  1.4415  0.8726 -2.0161
  644MOL0     H84953   8.148   6.905   6.668 -0.4520 -2.0322  3.5021
  644MOL0     H84954   8.145   6.745   6.724 -1.0856 -0.0562 -0.1385
  644MOL0     H84955   8.040   6.661   6.520 -1.2298  0.0560 -1.2041
  644MOL0     H84956   8.049   6.827   6.450 -0.1846 -1.7428 -1.3083
  644MOL0     H84957   7.893   6.888   6.658 -2.6996  0.1007  0.0288
  644MOL0     H84958   7.825   6.808   6.517  1.4128 -0.4531 -1.6515
  644MOL0     H84959   7.902   6.733   6.799  0.5240 -2.3027  0.2967
  644MOL0     H84960   7.878   6.604   6.681 -0.2438  0.9546 -3.1655
  644MOL0     H84961   7.727   6.911   6.898 -0.9456 -0.4935  0.8586
  644MOL0     H84962   7.350   6.979   6.835 -1.2083 -1.1032  0.8499
  644MOL0     H84963   7.503   7.063   6.885 -0.4683  0.3897 -1.7753
  644MOL0     H84964   7.505   6.933   7.093  0.5914 -1.8879 -1.2571
  644MOL0     H84965   7.372   6.841   7.048  0.6171 -0.7707 -0.0003
  644MOL0     H84966   7.351   7.053   7.202  2.3654  1.7371 -0.5940
  644MOL0     H84967   7.348   7.139   7.050  0.0757 -0.6176 -0.1293
  644MOL0     H84968   7.155   7.006   6.966 -0.4265  2.0285 -0.0132
  644MOL0     H84969   7.141   7.133   7.089 -2.3446 -1.0422 -0.1593
  644MOL0     H84970   6.933   7.010   6.981 -1.9729 -2.1746 -1.8394
  644MOL0     H84971   6.698   6.967   6.996 -0.2283  0.6555  0.4809
  644MOL0     H84972   6.395   7.059   7.339 -2.0935 -0.5360  2.7785
  644MOL0     H84973   6.154   7.131   7.378 -0.5452  0.3381 -0.8512
  644MOL0     H84974   5.782   7.058   7.368  0.1716 -0.9009  0.5868
  644MOL0     H84975   5.953   7.084   7.425  0.7286  0.1678 -1.0705
  644MOL0     H84976   5.868   6.877   7.486  2.3820 -0.1103  0.4727
  644MOL0     H84977   5.994   6.845   7.358 -1.2696 -1.2113 -1.0096
  644MOL0     H84978   5.694   6.802   7.379  0.4145  1.0014  0.9614
  644MOL0     H84979   5.793   6.693   7.308 -1.7476 -0.3951  2.1675
  644MOL0     H84980   5.695   6.948   7.182  0.2300  0.2856 -0.1481
  644MOL0     H84981   5.810   6.842   7.094  0.2665 -1.2191  0.7846
  644MOL0     H84982   5.556   6.726   7.201 -0.9551  0.3916 -0.4581
  644MOL0     H84983   5.649   6.676   7.067 -1.0808 -0.4277 -1.2263
  644MOL0     H84984   5.563   6.928   6.981 -0.2752  0.6378  0.1749
  644MOL0     H84985   5.443   6.914   7.110 -0.5828 -1.0611  0.3314
  644MOL0     H84986   5.386   6.679   7.017 -0.6554  0.9320  1.4397
  644MOL0     H84987   5.321   6.820   6.941  0.6299 -1.2028 -1.2468
  644MOL0     H84988   5.566   6.781   6.803  0.5843 -2.1160 -2.8538
  644MOL0     H84989   5.417   6.733   6.742  0.5459  0.9165 -0.7427
  644MOL0     H84990   6.043   6.918   7.025 -1.6455 -0.4876  1.5787
  644MOL0     H84991   6.277   6.857   6.991 -1.9821 -2.8910  0.5301
  644MOL0     H84992   6.762   6.785   7.383  1.5265 -1.6312 -0.1523
  644MOL0     H84993   6.984   6.833   7.372 -3.0717  0.3199  0.8316
  644MOL0     H84994   8.830   6.809   6.836 -1.2436  0.8683 -1.3201
  644MOL0     H84995   9.050   6.881   6.932  0.1458 -0.4589  0.2019
  644MOL0     H84996   9.334   7.299   7.027  0.7973  0.8042 -0.0872
  644MOL0     H84997   9.575   7.359   7.109  3.4509  0.0422 -2.0791
  644MOL0     H84998   9.877   7.204   6.912  0.0145 -0.3325 -0.0515
  644MOL0     H84999   9.886   7.053   7.017  0.2416  0.8997  1.7974
  644MOL0     H85000  10.030   7.316   7.082  2.4457 -0.9144  0.0373
  644MOL0     H85001  10.012   7.170   7.179  1.3341  0.4945 -0.0610
  644MOL0     H85002  10.141   7.181   6.898 -0.5186  0.2914 -0.0726
  644MOL0     H85003  10.112   7.037   6.992 -0.3394 -0.3948 -3.2391
  644MOL0     H85004  10.268   7.110   7.184  0.9664  0.8895 -0.3304
  644MOL0     H85005  10.345   7.113   7.033  0.5073 -1.2097  1.1097
  644MOL0     H85006  10.375   7.518   7.108 -1.2287  0.9851 -0.3696
  644MOL0     H85007   9.714   6.999   6.925  0.6557  0.8167  0.0346
  644MOL0     H85008   9.494   6.949   6.840 -2.4658 -0.2240  0.5087
  645MOL0     O85009   0.340   2.324   2.310 -0.3241  0.3351 -0.5386
  645MOL0     C85010   0.277   2.361   2.409  0.0674 -0.4253 -0.1248
  645MOL0     O85011   0.329   2.419   2.519  0.3991 -0.1718  1.0029
  645MOL0     C85012   0.463   2.430   2.532  0.2514 -0.2251  0.8654
  645MOL0     C85013   0.548   2.329   2.500 -0.0481 -0.5402 -0.0897
  645MOL0     C85014   0.682   2.331   2.538  0.3411 -0.5343  0.1099
  645MOL0     C85015   0.733   2.441   2.608 -0.0476  0.6612 -0.0538
  645MOL0     O85016   0.867   2.425   2.628 -0.3192  0.2833 -0.0581
  645MOL0     C85017   0.936   2.530   2.690  0.3473  0.8282  0.3830
  645MOL0     C85018   1.083   2.502   2.720 -0.6447  0.4728 -0.6674
  645MOL0     C85019   1.106   2.454   2.859  0.6128  0.2671  0.3085
  645MOL0     C85020   1.251   2.407   2.885 -0.2616  0.6575 -0.0982
  645MOL0     C85021   1.252   2.341   3.024  0.1697 -0.4605 -0.0852
  645MOL0     C85022   1.243   2.446   3.137 -1.1189  0.6393  1.2639
  645MOL0     C85023   1.215   2.396   3.280  0.7661  0.5832  0.1414
  645MOL0     C85024   1.073   2.325   3.303 -0.0988  0.6749 -0.7676
  645MOL0     N85025   1.063   2.190   3.231 -0.0106 -0.3884  0.2348
  645MOL0     C85026   1.156   2.089   3.219  0.4000 -0.1421  0.8116
  645MOL0     C85027   1.087   1.986   3.164 -0.3499 -0.3445 -0.0638
  645MOL0     C85028   1.161   1.863   3.117  0.1010  0.2133  1.0397
  645MOL0     C85029   1.213   1.773   3.227  0.0659 -0.1003  0.1837
  645MOL0     C85030   1.239   1.631   3.165  0.7478 -0.4073  0.0688
  645MOL0     C85031   1.111   1.558   3.131 -0.0914 -0.2318  1.0030
  645MOL0     O85032   1.020   1.553   3.241 -0.1298  0.3539  0.2549
  645MOL0     C85033   0.892   1.498   3.219  0.5476  0.3174  1.3854
  645MOL0     C85034   0.856   1.426   3.103  0.2904  0.3722  0.5302
  645MOL0     C85035   0.720   1.397   3.083  0.3552  0.0141  0.2274
  645MOL0     C85036   0.624   1.423   3.188 -0.4030  0.3686 -0.5700
  645MOL0     C85037   0.489   1.367   3.189 -0.2318 -0.8014  0.2632
  645MOL0     O85038   0.433   1.348   3.305  0.0751 -0.4222 -0.8527
  645MOL0     C85039   0.309   1.291   3.307 -1.0322  0.0402 -0.2032
  645MOL0     C85040   0.192   1.368   3.292  0.0889 -0.1154 -0.7977
  645MOL0     C85041   0.078   1.308   3.318  0.0840  0.6514 -0.1215
  645MOL0     C85042   0.072   1.172   3.343  0.5870 -0.5531  0.8698
  645MOL0     O85043  -0.048   1.124   3.384  0.3543 -0.1635 -0.8271
  645MOL0     C85044  -0.058   0.999   3.453  0.1380  1.8302 -0.9466
  645MOL0     C85045  -0.162   1.010   3.567  0.0386  0.2030  0.2524
  645MOL0     C85046  -0.301   1.051   3.517  0.4062  0.2897 -0.2413
  645MOL0     C85047  -0.407   1.053   3.630 -0.6292  0.7191 -0.0271
  645MOL0     C85048  -0.553   1.029   3.576 -0.6195 -0.1891 -0.2887
  645MOL0     C85049  -0.655   0.980   3.678  0.0409 -0.3803  0.6801
  645MOL0     C85050  -0.800   1.005   3.629  0.3619 -0.6700 -0.6422
  645MOL0     C85051  -0.829   0.989   3.477 -0.0324  0.5178 -0.5435
  645MOL0    Cl85052  -1.011   0.972   3.441  0.3540 -0.0982 -0.1811
  645MOL0     C85053   0.188   1.094   3.338 -0.5330  0.5393  0.0143
  645MOL0     C85054   0.309   1.156   3.325  0.0640 -1.1745 -0.3638
  645MOL0     O85055   0.452   1.317   3.081  0.6811  0.1845  0.5778
  645MOL0     C85056   0.663   1.491   3.304 -0.0424  0.0797  0.7661
  645MOL0     C85057   0.798   1.528   3.314  0.4653 -0.2193  0.7526
  645MOL0     N85058   0.954   2.017   3.155  0.3610 -0.4249 -0.1612
  645MOL0     N85059   0.941   2.134   3.197 -0.2780 -0.2019  0.1016
  645MOL0     C85060   0.640   2.536   2.641 -0.3473  0.3408 -0.8615
  645MOL0     C85061   0.504   2.537   2.602  0.6043 -0.1019  0.1845
  645MOL0     C85062   0.135   2.315   2.429 -0.1515 -0.5088 -0.6392
  645MOL0     C85063   0.077   2.223   2.346  0.3264  0.0235  0.3623
  645MOL0     C85064  -0.057   2.188   2.364 -0.3581  0.4023  0.6484
  645MOL0     C85065  -0.135   2.251   2.455  0.7601  0.2542 -0.2372
  645MOL0     O85066  -0.263   2.209   2.470  0.8414  0.0557 -1.0130
  645MOL0     C85067  -0.358   2.279   2.403  0.6173 -1.1570 -0.0053
  645MOL0     C85068  -0.453   2.338   2.505  0.0457 -0.1198 -0.2235
  645MOL0     C85069  -0.526   2.250   2.596  1.4166  0.2968  0.6457
  645MOL0     C85070  -0.574   2.109   2.545 -0.3213  0.2357 -0.2814
  645MOL0     C85071  -0.655   2.115   2.428  0.2710 -0.2488  0.7263
  645MOL0     C85072  -0.728   2.116   2.335  0.4537  0.1482  0.4415
  645MOL0     C85073  -0.078   2.352   2.536  0.1612 -1.0170 -0.7017
  645MOL0     C85074   0.056   2.379   2.531  0.0619  0.3153 -0.1492
  645MOL0     H85075   0.511   2.234   2.461 -1.5449 -0.3911  0.8746
  645MOL0     H85076   0.758   2.257   2.514  0.2648 -1.0853  1.5028
  645MOL0     H85077   0.885   2.557   2.782 -0.9237  4.3227 -1.1893
  645MOL0     H85078   0.924   2.617   2.625  0.0899 -0.1651 -0.9546
  645MOL0     H85079   1.138   2.595   2.704 -0.9556  0.2233 -3.8278
  645MOL0     H85080   1.119   2.426   2.651  4.4793  1.4820  0.4653
  645MOL0     H85081   1.035   2.378   2.890 -0.6754  1.5154  0.4962
  645MOL0     H85082   1.092   2.544   2.920  2.3913  0.8369 -0.0329
  645MOL0     H85083   1.285   2.334   2.811 -0.4788  1.4082 -0.9679
  645MOL0     H85084   1.328   2.484   2.872  0.6004 -0.1333  0.2091
  645MOL0     H85085   1.338   2.276   3.046  1.3937  1.5136  1.4141
  645MOL0     H85086   1.168   2.272   3.016  0.5673 -0.7819 -2.1569
  645MOL0     H85087   1.160   2.513   3.115 -0.0764  1.1792 -1.4306
  645MOL0     H85088   1.336   2.504   3.139 -1.6775  2.1315 -3.7298
  645MOL0     H85089   1.303   2.339   3.313 -0.8894 -1.6089  1.1066
  645MOL0     H85090   1.220   2.481   3.349  0.6615 -0.1301  1.0568
  645MOL0     H85091   0.987   2.391   3.292  0.3007  1.5654  1.0717
  645MOL0     H85092   1.076   2.304   3.410 -0.1415 -0.0424 -0.8990
  645MOL0     H85093   1.261   2.097   3.246  0.8406  0.6793 -0.9729
  645MOL0     H85094   1.248   1.904   3.065  0.9182 -0.1635  2.0558
  645MOL0     H85095   1.096   1.812   3.045  1.6806  1.3972 -1.3500
  645MOL0     H85096   1.148   1.760   3.314 -1.1084 -2.7158 -0.9545
  645MOL0     H85097   1.306   1.805   3.274  0.3346 -1.6453  0.7554
  645MOL0     H85098   1.296   1.654   3.075 -0.5007 -0.8029 -0.8554
  645MOL0     H85099   1.282   1.563   3.239 -4.2799 -2.1082  1.9209
  645MOL0     H85100   1.135   1.456   3.098  2.9196  0.7009 -0.0134
  645MOL0     H85101   1.060   1.591   3.040  2.8465 -0.4396 -0.8343
  645MOL0     H85102   0.924   1.405   3.020 -0.4852 -0.4083  0.0886
  645MOL0     H85103   0.701   1.344   2.990  0.1475 -3.5587  2.1323
  645MOL0     H85104   0.203   1.476   3.284  0.5680 -0.0926  0.0614
  645MOL0     H85105  -0.014   1.361   3.338 -0.2133  0.0049  0.2564
  645MOL0     H85106   0.041   0.961   3.481 -1.1328  0.1779  1.7636
  645MOL0     H85107  -0.100   0.925   3.384  1.1566  0.3420 -0.0370
  645MOL0     H85108  -0.136   1.087   3.640 -0.7600  2.3303 -1.5946
  645MOL0     H85109  -0.168   0.909   3.609 -0.0889  0.1257  0.0483
  645MOL0     H85110  -0.333   0.977   3.443  0.4057 -2.3993  2.2609
  645MOL0     H85111  -0.289   1.151   3.473 -2.1017  0.2801 -1.1187
  645MOL0     H85112  -0.389   0.973   3.702  0.6252  1.3660  0.4040
  645MOL0     H85113  -0.406   1.149   3.681  1.6587  1.6375 -1.6544
  645MOL0     H85114  -0.548   0.958   3.494  0.5168 -0.8710  0.3424
  645MOL0     H85115  -0.585   1.127   3.539  0.0856  0.5793  1.0329
  645MOL0     H85116  -0.633   1.029   3.773  1.8900 -0.5547  0.3777
  645MOL0     H85117  -0.649   0.872   3.692 -2.1336 -0.2244  3.6268
  645MOL0     H85118  -0.858   0.923   3.674 -1.6005  0.8929 -0.1795
  645MOL0     H85119  -0.839   1.102   3.661  2.9914  0.8152 -1.6670
  645MOL0     H85120  -0.770   0.905   3.439  1.2255  1.6874 -1.2339
  645MOL0     H85121  -0.793   1.075   3.420  1.7962  1.0550  1.3110
  645MOL0     H85122   0.174   0.986   3.345  0.6787  0.2921 -1.0720
  645MOL0     H85123   0.401   1.098   3.316  1.7661  1.1120  1.2454
  645MOL0     H85124   0.591   1.517   3.380 -0.7386 -2.4442  1.0574
  645MOL0     H85125   0.811   1.597   3.397 -0.7905  0.9677 -0.0071
  645MOL0     H85126   0.678   2.613   2.707 -1.7504  0.5976 -0.3187
  645MOL0     H85127   0.435   2.618   2.626  1.2108  0.5829 -0.3244
  645MOL0     H85128   0.147   2.171   2.282  3.9844  0.0454  3.8978
  645MOL0     H85129  -0.086   2.097   2.313  2.2768 -0.3869  0.4071
  645MOL0     H85130  -0.412   2.217   2.331 -0.2289 -1.8973  1.2226
  645MOL0     H85131  -0.324   2.370   2.354 -3.2679 -0.8898 -2.5865
  645MOL0     H85132  -0.397   2.403   2.574 -0.9214 -1.0398  1.4797
  645MOL0     H85133  -0.519   2.396   2.441  1.4690  0.7476 -0.9727
  645MOL0     H85134  -0.620   2.303   2.614  2.4722  1.6383  2.5687
  645MOL0     H85135  -0.476   2.257   2.693 -1.0092  0.6237  1.9491
  645MOL0     H85136  -0.486   2.046   2.538  1.0624  1.7220  2.2561
  645MOL0     H85137  -0.634   2.056   2.620  0.9916 -0.5603  0.2308
  645MOL0     H85138  -0.797   2.125   2.254 -1.1267  1.5318  1.8806
  645MOL0     H85139  -0.137   2.402   2.612  1.2202 -1.0218  0.1485
  645MOL0     H85140   0.085   2.432   2.622 -1.4050  1.1282 -0.1269
  646MOL0     O85141   0.327   2.728   0.483 -0.7298 -0.0461  0.3668
  646MOL0     C85142   0.391   2.722   0.371 -0.2826 -0.4022 -0.1454
  646MOL0     O85143   0.344   2.727   0.238  1.0299 -0.2377 -0.4997
  646MOL0     C85144   0.206   2.758   0.234 -0.4427  0.1505  0.0419
  646MOL0     C85145   0.183   2.894   0.243  0.4847 -0.1615  1.0746
  646MOL0     C85146   0.046   2.942   0.244 -0.8927  0.3987  0.4945
  646MOL0     C85147  -0.060   2.860   0.225  0.4049  0.8559 -0.0288
  646MOL0     O85148  -0.187   2.925   0.230  0.2337 -0.7649 -0.0402
  646MOL0     C85149  -0.296   2.844   0.198  0.5855  0.2209  0.7242
  646MOL0     C85150  -0.430   2.917   0.216 -0.0693 -0.7285 -0.0006
  646MOL0     C85151  -0.547   2.820   0.192 -0.2996  0.5000 -1.0171
  646MOL0     C85152  -0.678   2.891   0.198 -0.6969 -0.1221 -0.9145
  646MOL0     C85153  -0.793   2.792   0.165  1.4949  0.4737  0.3874
  646MOL0     C85154  -0.935   2.867   0.177 -0.1816 -0.5571  0.1227
  646MOL0     C85155  -1.045   2.791   0.108  0.3274 -0.4011  0.1941
  646MOL0     C85156  -1.046   2.641   0.146 -0.4897  0.2425 -0.0275
  646MOL0     N85157  -1.141   2.565   0.065 -0.2665  0.2785 -0.1858
  646MOL0     C85158  -1.280   2.574   0.091  0.0679  0.3183 -0.2173
  646MOL0     C85159  -1.336   2.475   0.024 -0.2071 -0.4140 -0.0506
  646MOL0     C85160  -1.476   2.445   0.023  0.0708 -0.2504  0.2745
  646MOL0     C85161  -1.567   2.510  -0.094  0.4710 -0.9283 -0.2882
  646MOL0     C85162  -1.643   2.646  -0.057 -0.6054  0.4985  0.9075
  646MOL0     C85163  -1.727   2.650   0.062  0.3967 -0.1879 -0.6779
  646MOL0     O85164  -1.850   2.579   0.044  0.1623 -0.0074 -0.5998
  646MOL0     C85165  -1.942   2.571   0.143 -0.9618 -0.1531 -0.3894
  646MOL0     C85166  -2.058   2.509   0.107  0.2296  0.4042  0.2479
  646MOL0     C85167  -2.174   2.517   0.177 -0.1599  0.2916 -0.1484
  646MOL0     C85168  -2.174   2.564   0.312  0.9725  0.3889 -0.1044
  646MOL0     C85169  -2.299   2.562   0.392 -0.3196 -0.5148 -0.9086
  646MOL0     O85170  -2.404   2.536   0.323  0.7547  0.0887 -0.3861
  646MOL0     C85171  -2.520   2.577   0.379 -0.4348 -0.3606 -0.0178
  646MOL0     C85172  -2.586   2.490   0.459  0.0288  0.7524 -0.2738
  646MOL0     C85173  -2.709   2.525   0.519 -0.1696 -0.3057 -0.2819
  646MOL0     C85174  -2.775   2.641   0.490 -0.2444  0.2562 -0.1161
  646MOL0     O85175  -2.888   2.670   0.556 -0.6397  0.0033  0.6960
  646MOL0     C85176  -3.008   2.662   0.477  0.3818 -0.1439 -0.0604
  646MOL0     C85177  -3.105   2.783   0.513 -0.0626  0.0066 -0.2252
  646MOL0     C85178  -3.061   2.920   0.443  0.2477  0.6938 -0.0175
  646MOL0     C85179  -3.154   3.036   0.486  0.1030  0.7722  1.2608
  646MOL0     C85180  -3.304   3.005   0.466 -0.0556 -1.2696 -0.5935
  646MOL0     C85181  -3.385   3.137   0.479  0.2683  0.1733  1.0020
  646MOL0     C85182  -3.523   3.103   0.516  1.0360  0.9499  0.0701
  646MOL0     C85183  -3.594   3.218   0.593  0.3185 -0.4622  0.1859
  646MOL0    Cl85184  -3.768   3.182   0.632  0.3418  0.2601  0.2540
  646MOL0     C85185  -2.711   2.726   0.394  0.0760  0.4387 -0.6904
  646MOL0     C85186  -2.584   2.700   0.344 -0.0006  0.5745 -0.1112
  646MOL0     O85187  -2.291   2.599   0.512 -0.6029  0.5692 -0.7510
  646MOL0     C85188  -2.053   2.613   0.361  0.0923  0.2677  0.3260
  646MOL0     C85189  -1.940   2.618   0.280 -0.0906  0.3247  0.6403
  646MOL0     N85190  -1.237   2.398  -0.039 -0.1876 -0.0560  0.0921
  646MOL0     N85191  -1.122   2.457  -0.004 -0.3596  0.1850  0.2954
  646MOL0     C85192  -0.030   2.717   0.215  0.1528  0.1571  0.1027
  646MOL0     C85193   0.098   2.671   0.221 -0.2431  0.2243  0.1356
  646MOL0     C85194   0.538   2.691   0.371  0.0307 -0.0626  0.6344
  646MOL0     C85195   0.605   2.651   0.252  1.0635  0.6125  0.0932
  646MOL0     C85196   0.741   2.620   0.249  0.1996  0.0279  0.3374
  646MOL0     C85197   0.809   2.622   0.368  0.2385 -0.4912  0.0780
  646MOL0     O85198   0.943   2.588   0.381 -0.3906  0.3929  0.0197
  646MOL0     C85199   1.020   2.546   0.271  0.6376  0.1279  0.3647
  646MOL0     C85200   1.168   2.551   0.298  0.9807 -0.8462  0.2208
  646MOL0     C85201   1.253   2.535   0.166  0.8081 -0.1408  1.1744
  646MOL0     C85202   1.391   2.582   0.214  0.9698 -0.5033  0.0536
  646MOL0     C85203   1.476   2.594   0.100  0.3400  0.3833  0.0741
  646MOL0     C85204   1.545   2.588   0.002  0.7934  0.8653  0.8666
  646MOL0     C85205   0.746   2.669   0.481 -0.8071  0.2830  0.5486
  646MOL0     C85206   0.613   2.700   0.494 -0.0513  0.5795 -0.6801
  646MOL0     H85207   0.275   2.950   0.234 -1.4732  2.8847 -2.6928
  646MOL0     H85208   0.031   3.048   0.259  0.5831  0.3978  2.2605
  646MOL0     H85209  -0.297   2.757   0.264 -1.2807 -1.0221 -0.8222
  646MOL0     H85210  -0.294   2.810   0.094 -2.3316  2.2906 -0.1382
  646MOL0     H85211  -0.436   2.999   0.144 -1.5159  1.1604  2.1791
  646MOL0     H85212  -0.430   2.955   0.318  0.3585  0.8947 -0.5638
  646MOL0     H85213  -0.537   2.748   0.275  0.1487  2.1733  0.4418
  646MOL0     H85214  -0.535   2.773   0.094  0.9525 -3.4709  0.8031
  646MOL0     H85215  -0.690   2.922   0.302 -1.3577 -0.6167 -0.8324
  646MOL0     H85216  -0.681   2.979   0.134  3.3302 -1.1578 -2.8298
  646MOL0     H85217  -0.782   2.700   0.223 -0.8079  0.3640  0.7170
  646MOL0     H85218  -0.792   2.763   0.059 -3.2018  1.6578 -0.1843
  646MOL0     H85219  -0.938   2.971   0.145 -3.2086  0.0015  1.8803
  646MOL0     H85220  -0.961   2.864   0.283  0.2388 -1.8953  0.2045
  646MOL0     H85221  -1.140   2.841   0.128 -0.8744 -2.0247 -1.1479
  646MOL0     H85222  -1.031   2.801   0.000  1.9928 -2.7078  0.1206
  646MOL0     H85223  -1.074   2.634   0.251 -0.2377 -0.8760 -0.0291
  646MOL0     H85224  -0.949   2.590   0.143 -0.9473 -0.9074  2.2944
  646MOL0     H85225  -1.330   2.646   0.155  1.1868 -0.2272  1.3243
  646MOL0     H85226  -1.516   2.467   0.122 -0.8533  0.6460 -0.2865
  646MOL0     H85227  -1.493   2.337   0.011 -1.7187 -0.1615  1.6473
  646MOL0     H85228  -1.639   2.435  -0.125  1.1553 -1.1835 -1.2937
  646MOL0     H85229  -1.504   2.535  -0.179  2.0638 -1.1686  0.7638
  646MOL0     H85230  -1.573   2.729  -0.048 -0.3988  0.4213  0.1223
  646MOL0     H85231  -1.711   2.674  -0.139 -4.1301 -0.7083  3.1989
  646MOL0     H85232  -1.750   2.756   0.078 -0.8401 -0.2672 -1.7272
  646MOL0     H85233  -1.666   2.617   0.147  0.8863  2.7817  0.2187
  646MOL0     H85234  -2.043   2.468   0.008 -0.3031 -0.8691  0.6846
  646MOL0     H85235  -2.263   2.481   0.128 -1.6034  2.4409  0.7304
  646MOL0     H85236  -2.557   2.386   0.470 -0.2132  0.8334  1.3352
  646MOL0     H85237  -2.756   2.453   0.585 -1.2553 -2.4659 -3.1856
  646MOL0     H85238  -3.053   2.566   0.503 -0.8957  0.2608 -0.7194
  646MOL0     H85239  -2.986   2.653   0.370 -3.8114 -0.2329 -1.0881
  646MOL0     H85240  -3.112   2.808   0.619 -1.9223 -1.7443  0.1208
  646MOL0     H85241  -3.206   2.749   0.488 -0.4875  0.8973  0.2377
  646MOL0     H85242  -3.062   2.909   0.334  0.0510  4.0888 -0.4741
  646MOL0     H85243  -2.960   2.950   0.472  0.2170  1.9208 -1.0774
  646MOL0     H85244  -3.140   3.065   0.591 -1.6705  2.6581  1.0491
  646MOL0     H85245  -3.125   3.122   0.425  1.5285 -1.1929 -1.0220
  646MOL0     H85246  -3.337   2.940   0.548 -1.8420 -1.6397 -1.5543
  646MOL0     H85247  -3.327   2.966   0.367  1.7176  1.6267 -2.2959
  646MOL0     H85248  -3.389   3.198   0.388 -3.2312 -0.5305  0.5789
  646MOL0     H85249  -3.343   3.200   0.558  2.8644  0.3742 -0.4123
  646MOL0     H85250  -3.583   3.075   0.429  2.0913 -1.0454 -0.0803
  646MOL0     H85251  -3.526   3.016   0.582 -0.2670 -0.7080 -2.0226
  646MOL0     H85252  -3.579   3.300   0.522  1.7890 -2.5547 -2.0712
  646MOL0     H85253  -3.541   3.240   0.686 -0.6318  0.0329  0.6259
  646MOL0     H85254  -2.754   2.825   0.380  1.4662  2.2549  5.0611
  646MOL0     H85255  -2.530   2.770   0.282 -1.2471 -0.4137 -2.4699
  646MOL0     H85256  -2.048   2.665   0.456 -0.2270 -0.2338  0.6265
  646MOL0     H85257  -1.847   2.656   0.321  0.1756  1.7537 -1.1720
  646MOL0     H85258  -0.100   2.636   0.193  1.4728 -0.4127 -2.3317
  646MOL0     H85259   0.117   2.566   0.198 -2.7421 -0.3197  0.3350
  646MOL0     H85260   0.566   2.651   0.151  0.0867 -0.3414  0.4430
  646MOL0     H85261   0.785   2.580   0.158 -0.0118 -3.0673  1.4583
  646MOL0     H85262   1.007   2.613   0.185  0.1136 -0.6752 -0.1920
  646MOL0     H85263   0.973   2.454   0.234  0.6093  1.3606 -3.0730
  646MOL0     H85264   1.183   2.643   0.355 -0.0461 -0.4899 -0.0624
  646MOL0     H85265   1.187   2.463   0.360  0.3177 -0.1508  1.4491
  646MOL0     H85266   1.199   2.582   0.083 -0.2040  0.9698  2.4316
  646MOL0     H85267   1.257   2.427   0.150 -1.6561 -0.5377  2.7510
  646MOL0     H85268   1.385   2.684   0.251  1.9097  0.1559 -1.5315
  646MOL0     H85269   1.439   2.512   0.283  2.1440  1.1445  0.9511
  646MOL0     H85270   1.603   2.581  -0.088 -0.5153 -0.7686  0.0864
  646MOL0     H85271   0.807   2.683   0.570  0.4892 -1.4750  0.0134
  646MOL0     H85272   0.571   2.734   0.588 -2.7087 -3.4474 -0.1666
  647MOL0     O85273   5.814   2.067   7.530 -0.0444  0.2585 -0.2473
  647MOL0     C85274   5.896   1.998   7.471  0.6877  0.2429  0.1798
  647MOL0     O85275   5.905   1.864   7.475  1.4221 -0.3944  0.6127
  647MOL0     C85276   5.811   1.784   7.528  0.2088 -0.5003 -0.0572
  647MOL0     C85277   5.675   1.813   7.552 -0.2993 -1.1614  0.2180
  647MOL0     C85278   5.590   1.715   7.598  0.2094 -0.3628  0.0181
  647MOL0     C85279   5.634   1.592   7.628 -0.2194  0.2148  0.5341
  647MOL0     O85280   5.544   1.505   7.683 -0.1000 -0.1076 -0.0694
  647MOL0     C85281   5.558   1.372   7.645  0.1573  0.4918  0.2084
  647MOL0     C85282   5.539   1.352   7.492  0.6212  0.1315 -0.2578
  647MOL0     C85283   5.409   1.410   7.429  0.1974 -0.3260  0.6592
  647MOL0     C85284   5.427   1.369   7.281 -0.3171 -0.8150 -0.5258
  647MOL0     C85285   5.301   1.391   7.196 -0.3694 -0.2450 -0.1522
  647MOL0     C85286   5.204   1.276   7.222 -0.2359  0.7436  0.8419
  647MOL0     C85287   5.097   1.240   7.114  0.1401 -0.1444 -0.0979
  647MOL0     C85288   5.055   1.095   7.122 -0.9499 -0.0750  0.6945
  647MOL0     N85289   4.995   1.060   7.254 -0.4315 -0.4003  0.9482
  647MOL0     C85290   4.863   1.078   7.304  0.4514 -0.2988 -0.4097
  647MOL0     C85291   4.860   1.006   7.417 -0.2728  0.7472 -0.0194
  647MOL0     C85292   4.751   0.992   7.518 -1.1056 -0.2654  0.4703
  647MOL0     C85293   4.720   0.841   7.550 -0.3572 -0.3684  0.0082
  647MOL0     C85294   4.679   0.748   7.432  0.1239 -0.1174  0.1986
  647MOL0     C85295   4.630   0.611   7.474 -0.1563  0.1356 -0.2568
  647MOL0     O85296   4.518   0.567   7.394 -0.7128  0.1956  0.4451
  647MOL0     C85297   4.393   0.624   7.418 -0.7321  0.8639 -0.5251
  647MOL0     C85298   4.288   0.579   7.334  0.4158  0.3773 -0.1242
  647MOL0     C85299   4.168   0.643   7.341  0.2049  1.2414 -0.1502
  647MOL0     C85300   4.135   0.733   7.443  0.3388  1.1039  0.7258
  647MOL0     C85301   3.995   0.785   7.451  0.1988 -0.5397 -0.5561
  647MOL0     O85302   3.979   0.879   7.551  0.1801  0.2825  0.0979
  647MOL0     C85303   3.858   0.945   7.557 -0.2940 -0.1582  0.3146
  647MOL0     C85304   3.867   1.088   7.553  0.1730  0.2129 -0.3624
  647MOL0     C85305   3.749   1.163   7.573 -0.6886 -0.1871  0.5271
  647MOL0     C85306   3.620   1.099   7.581 -0.7541  0.5953  0.7762
  647MOL0     O85307   3.498   1.172   7.584  0.0666 -0.7647 -0.1980
  647MOL0     C85308   3.492   1.306   7.637 -0.2971 -0.1427  0.6114
  647MOL0     C85309   3.450   1.318   7.786  1.3744 -1.1287  1.1348
  647MOL0     C85310   3.321   1.234   7.806 -0.2161 -0.2907  0.7403
  647MOL0     C85311   3.263   1.250   7.948  0.8118 -0.2558 -0.0741
  647MOL0     C85312   3.123   1.171   7.963  0.2878 -0.0042  0.4347
  647MOL0     C85313   3.006   1.241   7.887 -0.5007 -0.5038 -0.5298
  647MOL0     C85314   2.875   1.173   7.917  0.0235 -0.2277  0.7019
  647MOL0     C85315   2.789   1.177   7.793 -0.2044 -0.1477 -1.1505
  647MOL0    Cl85316   2.667   1.035   7.805 -0.3640 -0.2661 -0.2746
  647MOL0     C85317   3.610   0.964   7.557  0.2346  0.1959 -1.3595
  647MOL0     C85318   3.729   0.888   7.553  0.2799  0.4667  0.2974
  647MOL0     O85319   3.902   0.739   7.379  0.2757 -0.7491 -0.2388
  647MOL0     C85320   4.236   0.775   7.520  0.0357  0.4705  0.0745
  647MOL0     C85321   4.369   0.725   7.512  0.8952 -0.2060  1.1597
  647MOL0     N85322   4.979   0.936   7.438 -0.2479 -1.1307 -0.4475
  647MOL0     N85323   5.053   0.969   7.338 -0.6209 -0.3192 -0.3146
  647MOL0     C85324   5.775   1.560   7.598  0.4362 -0.0735  0.0329
  647MOL0     C85325   5.859   1.659   7.550 -0.2757 -0.9067  0.1415
  647MOL0     C85326   6.011   2.055   7.392 -0.3872  0.4880 -0.5394
  647MOL0     C85327   6.122   1.980   7.344 -0.0106  0.5810  0.1692
  647MOL0     C85328   6.222   2.034   7.262 -0.2594  0.1336 -0.0062
  647MOL0     C85329   6.219   2.172   7.238  0.8375 -0.5467  0.7479
  647MOL0     O85330   6.314   2.235   7.167 -0.7499 -0.2905 -0.2127
  647MOL0     C85331   6.415   2.156   7.104 -0.0615 -0.6045 -0.9537
  647MOL0     C85332   6.495   2.241   7.013  0.4434  0.4363  0.3942
  647MOL0     C85333   6.585   2.335   7.092 -0.6939  0.1357  0.9891
  647MOL0     C85334   6.658   2.435   7.002  0.3682  0.2997  0.1427
  647MOL0     C85335   6.737   2.536   7.081  1.2733 -0.3780  0.2517
  647MOL0     C85336   6.802   2.614   7.137  0.9527 -0.1232 -0.5487
  647MOL0     C85337   6.121   2.246   7.300 -0.1959 -1.2194  0.3405
  647MOL0     C85338   6.016   2.186   7.378  0.1286 -0.2321  0.0888
  647MOL0     H85339   5.643   1.914   7.528  0.4950 -0.9006  0.2420
  647MOL0     H85340   5.483   1.726   7.603  0.3108  1.5773 -1.0825
  647MOL0     H85341   5.475   1.314   7.686 -0.5259  1.5973  0.4272
  647MOL0     H85342   5.652   1.327   7.676  0.4038  0.9521  0.1356
  647MOL0     H85343   5.539   1.244   7.472  0.3002  0.1013 -0.1032
  647MOL0     H85344   5.619   1.403   7.439  0.3872  0.5446 -0.2152
  647MOL0     H85345   5.400   1.518   7.445  1.1149 -0.3355  1.2895
  647MOL0     H85346   5.317   1.364   7.466 -0.4218 -1.2572 -1.7842
  647MOL0     H85347   5.511   1.425   7.237 -0.8873  1.8072  1.4907
  647MOL0     H85348   5.452   1.264   7.262 -0.5514 -0.6024 -2.1652
  647MOL0     H85349   5.336   1.402   7.093  1.3196  1.6768  0.5354
  647MOL0     H85350   5.239   1.476   7.228 -2.0048 -2.6298  3.7078
  647MOL0     H85351   5.170   1.282   7.326  2.6742 -2.3855  2.1559
  647MOL0     H85352   5.264   1.185   7.215 -3.4891 -1.5220  0.2544
  647MOL0     H85353   5.004   1.293   7.132  0.6875  0.9891 -0.4867
  647MOL0     H85354   5.137   1.261   7.014 -0.9987  0.2871 -0.4795
  647MOL0     H85355   5.135   1.024   7.096  0.5587  0.9620  2.3009
  647MOL0     H85356   4.979   1.076   7.046 -0.4323 -0.3888  0.2428
  647MOL0     H85357   4.781   1.142   7.273  0.2828  0.5219  1.5872
  647MOL0     H85358   4.657   1.032   7.482 -0.5273  2.1970  1.4469
  647MOL0     H85359   4.769   1.042   7.614  2.2576  0.3200 -0.3109
  647MOL0     H85360   4.636   0.830   7.619 -0.4080 -2.1689 -0.2923
  647MOL0     H85361   4.803   0.805   7.611 -0.8812 -0.2511  0.8034
  647MOL0     H85362   4.608   0.806   7.373 -0.9391  0.0626  1.6147
  647MOL0     H85363   4.769   0.716   7.378 -0.3696 -3.8651  1.2659
  647MOL0     H85364   4.607   0.598   7.580  1.3725 -1.4373 -0.0744
  647MOL0     H85365   4.715   0.543   7.464  0.3982  0.5705  1.2051
  647MOL0     H85366   4.312   0.509   7.254  2.1838 -2.4645  2.6198
  647MOL0     H85367   4.101   0.604   7.265  1.3132 -2.2397  0.4696
  647MOL0     H85368   3.967   1.130   7.559  0.0756  0.4041 -0.0461
  647MOL0     H85369   3.769   1.269   7.574 -3.2901  0.3622  0.0394
  647MOL0     H85370   3.424   1.377   7.590  0.3307 -0.1293 -0.3060
  647MOL0     H85371   3.591   1.352   7.633 -0.5698  0.4083  0.0657
  647MOL0     H85372   3.428   1.424   7.804 -0.4503 -1.5063  1.3534
  647MOL0     H85373   3.527   1.276   7.851  2.3134 -0.0727  0.7478
  647MOL0     H85374   3.340   1.129   7.785  1.3783  0.8219 -5.3367
  647MOL0     H85375   3.244   1.267   7.735 -0.8937  0.4700  1.7809
  647MOL0     H85376   3.334   1.211   8.020  0.2256  0.3297  0.8389
  647MOL0     H85377   3.246   1.356   7.970 -4.8576 -1.4231  3.3355
  647MOL0     H85378   3.090   1.148   8.064  2.4602 -2.8777  0.6301
  647MOL0     H85379   3.145   1.069   7.927  3.6899  1.1256 -1.0956
  647MOL0     H85380   3.031   1.236   7.781  0.1623  1.0771 -0.4674
  647MOL0     H85381   2.997   1.343   7.924  1.1157  0.0152 -1.5010
  647MOL0     H85382   2.907   1.069   7.924 -0.2446 -0.3707 -0.1500
  647MOL0     H85383   2.818   1.218   7.999 -2.1546  2.5046 -2.0687
  647MOL0     H85384   2.842   1.156   7.700  0.3898 -2.2017 -0.4046
  647MOL0     H85385   2.742   1.275   7.788 -0.3904 -0.1739 -0.2339
  647MOL0     H85386   3.512   0.923   7.537 -0.1426  0.4776 -0.1573
  647MOL0     H85387   3.726   0.781   7.535  3.6675  0.4665 -1.0081
  647MOL0     H85388   4.218   0.857   7.590  0.6264  1.1510 -0.5460
  647MOL0     H85389   4.444   0.765   7.579  2.1519 -2.0153  0.8790
  647MOL0     H85390   5.809   1.458   7.619  1.0525  0.0454 -0.3537
  647MOL0     H85391   5.965   1.640   7.535  0.8057  2.4799  2.1293
  647MOL0     H85392   6.121   1.879   7.383  0.5932  1.2821  2.0976
  647MOL0     H85393   6.293   1.974   7.204  0.8527  2.4257 -1.1324
  647MOL0     H85394   6.366   2.079   7.043  0.0127 -1.2948 -0.1624
  647MOL0     H85395   6.487   2.123   7.179  0.0270 -1.4549 -1.3908
  647MOL0     H85396   6.552   2.176   6.946 -2.7159 -2.1554 -0.0564
  647MOL0     H85397   6.428   2.289   6.941 -2.0175 -4.1716 -0.7797
  647MOL0     H85398   6.669   2.285   7.143 -1.1232 -0.6880  0.8983
  647MOL0     H85399   6.521   2.377   7.170 -0.2537  3.7380 -0.4201
  647MOL0     H85400   6.730   2.372   6.948 -2.2239 -0.3456 -2.8559
  647MOL0     H85401   6.597   2.484   6.925  0.8111 -1.9619 -1.7442
  647MOL0     H85402   6.857   2.687   7.193  2.0076 -2.0329  0.9895
  647MOL0     H85403   6.129   2.354   7.291  3.2512 -1.3080  0.8494
  647MOL0     H85404   5.942   2.256   7.416  0.6018 -1.6081  3.9641
  648MOL0     O85405   8.073   0.874   7.202  0.3990 -0.1395 -0.0900
  648MOL0     C85406   8.114   0.986   7.250  0.3714  0.0359  0.1192
  648MOL0     O85407   8.049   1.067   7.337  0.0339 -0.4179 -0.1354
  648MOL0     C85408   7.928   1.051   7.396  0.3078  0.8282  0.2870
  648MOL0     C85409   7.835   0.951   7.351 -0.5280 -0.0515 -0.5734
  648MOL0     C85410   7.714   0.940   7.424 -0.3774 -0.0268  0.1193
  648MOL0     C85411   7.676   1.022   7.527 -0.4394  0.2534  1.0735
  648MOL0     O85412   7.549   0.999   7.585 -0.3639 -0.7131 -0.2341
  648MOL0     C85413   7.502   1.114   7.657 -0.4977 -0.0991  0.0408
  648MOL0     C85414   7.362   1.090   7.705 -0.3800  0.3564  0.8164
  648MOL0     C85415   7.246   1.100   7.602  0.6626 -0.2946 -0.5764
  648MOL0     C85416   7.112   1.111   7.683 -0.0280  0.1141  0.6200
  648MOL0     C85417   6.987   1.067   7.596 -0.3322 -0.0384  0.1979
  648MOL0     C85418   6.886   0.997   7.680  0.0944  0.0369  0.4868
  648MOL0     C85419   6.806   0.906   7.588 -0.7494  1.0312  0.2893
  648MOL0     C85420   6.682   0.963   7.508 -0.1623 -0.0960  0.4254
  648MOL0     N85421   6.575   0.990   7.593 -0.8381 -0.1209  0.4235
  648MOL0     C85422   6.535   1.114   7.630  0.2885 -0.4725 -0.9532
  648MOL0     C85423   6.411   1.102   7.692  0.5147  0.3493 -0.2079
  648MOL0     C85424   6.325   1.218   7.726 -0.0040 -0.3877 -0.2704
  648MOL0     C85425   6.177   1.186   7.727 -0.4621 -0.3777 -0.3584
  648MOL0     C85426   6.100   1.290   7.806 -0.5899 -0.0514  0.2820
  648MOL0     C85427   5.945   1.265   7.824 -0.6778 -0.2244 -0.4620
  648MOL0     O85428   5.888   1.224   7.697  1.1469 -0.1917 -0.2542
  648MOL0     C85429   5.801   1.124   7.712  0.1479 -0.4901  0.4449
  648MOL0     C85430   5.722   1.102   7.828  0.5644 -0.4010 -0.0105
  648MOL0     C85431   5.644   0.989   7.843 -0.1938  0.2523 -0.9942
  648MOL0     C85432   5.630   0.892   7.732 -0.1343 -0.6183  1.4348
  648MOL0     C85433   5.536   0.779   7.751  0.1402 -0.6419  1.1569
  648MOL0     O85434   5.444   0.760   7.648 -0.2734 -0.5403 -0.4482
  648MOL0     C85435   5.335   0.676   7.655 -0.3134 -0.7060 -0.3637
  648MOL0     C85436   5.322   0.547   7.726  0.0335  0.4403 -0.0039
  648MOL0     C85437   5.201   0.482   7.729 -0.2215  0.2798  0.0879
  648MOL0     C85438   5.086   0.532   7.664  0.1680 -0.1316  0.1847
  648MOL0     O85439   4.958   0.482   7.656 -0.7826 -0.1574  0.1534
  648MOL0     C85440   4.936   0.367   7.731  0.1496  0.3364  0.1487
  648MOL0     C85441   4.780   0.351   7.741 -0.1906 -0.4331 -0.7402
  648MOL0     C85442   4.746   0.276   7.871  0.7302  0.5971  0.6496
  648MOL0     C85443   4.589   0.248   7.881 -0.0716  0.0567 -0.8691
  648MOL0     C85444   4.520   0.287   8.009  0.9102 -0.0049 -0.1522
  648MOL0     C85445   4.367   0.307   7.976  0.4219  0.3103  0.4605
  648MOL0     C85446   4.286   0.184   7.913 -0.0741  0.0639  0.1659
  648MOL0     C85447   4.137   0.189   7.951 -0.5239 -0.1373  0.3136
  648MOL0    Cl85448   4.051   0.062   7.871  0.4587  0.0047  0.0788
  648MOL0     C85449   5.102   0.651   7.598  0.1602 -0.2241  0.5586
  648MOL0     C85450   5.219   0.720   7.600  0.8597 -0.0454  0.3026
  648MOL0     O85451   5.529   0.716   7.854  0.5420 -0.8286 -0.3406
  648MOL0     C85452   5.709   0.919   7.613 -0.4141  0.0669 -0.3029
  648MOL0     C85453   5.799   1.028   7.614 -0.1056 -0.6062 -0.2276
  648MOL0     N85454   6.380   0.960   7.687  1.4060 -0.8118 -0.2282
  648MOL0     N85455   6.477   0.901   7.619 -0.4134 -0.6207  0.4416
  648MOL0     C85456   7.768   1.120   7.560 -0.4623  0.5602 -0.1464
  648MOL0     C85457   7.894   1.140   7.497 -0.0344  0.0266  0.0102
  648MOL0     C85458   8.238   1.055   7.184 -0.8139 -0.2097 -0.1760
  648MOL0     C85459   8.345   0.974   7.169 -0.0432 -0.3325 -0.6927
  648MOL0     C85460   8.465   1.028   7.112  0.4152  0.3307  0.5162
  648MOL0     C85461   8.467   1.163   7.068 -0.1044  0.7227 -0.0760
  648MOL0     O85462   8.585   1.203   7.007 -0.3633 -0.2849 -0.0795
  648MOL0     C85463   8.679   1.288   7.078  0.2223 -0.4444  0.6348
  648MOL0     C85464   8.651   1.439   7.065 -0.1462  0.0957 -0.4026
  648MOL0     C85465   8.661   1.496   6.919 -0.3439  0.5667  0.0602
  648MOL0     C85466   8.802   1.459   6.855 -0.0963 -0.3685  0.5718
  648MOL0     C85467   8.916   1.500   6.947 -0.4927 -0.0870  0.5893
  648MOL0     C85468   9.018   1.511   7.012 -0.5298  0.0869 -0.3111
  648MOL0     C85469   8.347   1.244   7.082 -0.3374  0.9277 -0.2463
  648MOL0     C85470   8.238   1.183   7.137  0.2250  0.3062 -0.5785
  648MOL0     H85471   7.845   0.873   7.276 -0.9074  0.5917 -1.3021
  648MOL0     H85472   7.660   0.850   7.398  3.0530 -2.4560  0.7197
  648MOL0     H85473   7.504   1.204   7.595 -0.8192  0.3080  0.6142
  648MOL0     H85474   7.564   1.136   7.744 -2.4200  1.1164  1.1660
  648MOL0     H85475   7.345   1.170   7.778  2.3700  0.7455  1.1439
  648MOL0     H85476   7.368   0.994   7.758 -0.6768  0.6354  1.3641
  648MOL0     H85477   7.247   1.018   7.529  3.1002 -1.8968  1.0952
  648MOL0     H85478   7.268   1.191   7.545 -1.0461 -0.2233 -1.1958
  648MOL0     H85479   7.113   1.041   7.767 -1.6355 -3.2134 -1.9116
  648MOL0     H85480   7.079   1.212   7.710 -1.3078 -0.2075  0.3342
  648MOL0     H85481   7.028   0.991   7.529 -0.6328 -1.6553  1.7943
  648MOL0     H85482   6.950   1.143   7.526 -0.4780 -0.5147 -0.2463
  648MOL0     H85483   6.811   1.063   7.726 -1.1102  0.7473 -2.2763
  648MOL0     H85484   6.939   0.933   7.751  1.9183 -0.2210 -1.0256
  648MOL0     H85485   6.880   0.862   7.520  2.6688  3.5375  2.1008
  648MOL0     H85486   6.769   0.819   7.644 -3.2503  0.4865 -1.9722
  648MOL0     H85487   6.668   0.882   7.436  2.3106  0.0717 -0.3207
  648MOL0     H85488   6.702   1.048   7.443 -1.5984  0.7229  1.0110
  648MOL0     H85489   6.596   1.203   7.620 -0.8383  0.2411 -1.6147
  648MOL0     H85490   6.333   1.300   7.654 -4.2921 -0.8655 -1.6063
  648MOL0     H85491   6.354   1.252   7.826 -1.6111 -0.7425  0.3560
  648MOL0     H85492   6.161   1.091   7.778 -2.2434  1.0494  1.9236
  648MOL0     H85493   6.138   1.164   7.627 -2.2181  1.3688 -0.1219
  648MOL0     H85494   6.148   1.301   7.904  0.5117  0.2164 -0.2720
  648MOL0     H85495   6.115   1.385   7.755 -0.5129  0.8618  1.9359
  648MOL0     H85496   5.909   1.365   7.851  0.3766  0.5074 -1.6356
  648MOL0     H85497   5.925   1.192   7.903 -1.5279  0.7253  0.2322
  648MOL0     H85498   5.729   1.167   7.914  2.0408  3.0151 -2.4831
  648MOL0     H85499   5.591   0.961   7.934 -1.5723  1.8885 -1.2444
  648MOL0     H85500   5.414   0.521   7.779  0.7632  0.7624 -1.0727
  648MOL0     H85501   5.202   0.392   7.791 -1.7038  2.4824  3.6634
  648MOL0     H85502   4.975   0.374   7.833  0.3443 -0.3068  0.1212
  648MOL0     H85503   4.972   0.282   7.673  0.1304  0.9319 -0.7592
  648MOL0     H85504   4.743   0.282   7.666 -0.6305 -1.0237  0.0098
  648MOL0     H85505   4.727   0.447   7.740  1.3587  0.4846  0.0157
  648MOL0     H85506   4.785   0.317   7.965  1.9587  1.0431 -0.0250
  648MOL0     H85507   4.779   0.172   7.872  1.3411  0.7801  0.5440
  648MOL0     H85508   4.546   0.306   7.799 -1.5229  1.1183  0.5835
  648MOL0     H85509   4.562   0.144   7.860 -0.4249  0.2305 -1.2743
  648MOL0     H85510   4.558   0.381   8.050 -2.2021  0.7335  1.3166
  648MOL0     H85511   4.540   0.206   8.080  1.3420  0.1516 -0.0907
  648MOL0     H85512   4.352   0.397   7.915  1.0901  1.1712  1.5293
  648MOL0     H85513   4.303   0.341   8.057 -2.3905 -1.2413 -0.9730
  648MOL0     H85514   4.289   0.186   7.804 -0.7040  1.7500  0.1477
  648MOL0     H85515   4.337   0.092   7.944  1.3888  0.9260  0.4426
  648MOL0     H85516   4.083   0.280   7.927 -1.6568 -0.4143  1.7030
  648MOL0     H85517   4.127   0.184   8.059  0.0620  3.9673  0.6905
  648MOL0     H85518   5.016   0.683   7.539 -0.3504 -3.2462 -0.5064
  648MOL0     H85519   5.208   0.818   7.554  0.1217  0.3782  1.3306
  648MOL0     H85520   5.697   0.843   7.537  0.5029 -0.5931  0.1831
  648MOL0     H85521   5.864   1.049   7.530 -2.0354  1.7930 -1.2588
  648MOL0     H85522   7.744   1.186   7.642  1.2481  0.7232  0.2534
  648MOL0     H85523   7.956   1.218   7.540 -0.6143  0.0716  0.7886
  648MOL0     H85524   8.341   0.870   7.198 -0.9259  0.2821  1.6980
  648MOL0     H85525   8.557   0.971   7.115 -0.3816 -0.9928  1.0674
  648MOL0     H85526   8.781   1.266   7.044  0.3113  3.1752 -2.0540
  648MOL0     H85527   8.674   1.252   7.181  0.0960 -1.2195  0.3615
  648MOL0     H85528   8.548   1.469   7.089 -0.7761 -1.7618 -0.6862
  648MOL0     H85529   8.720   1.478   7.140  0.0917 -0.6069 -0.2521
  648MOL0     H85530   8.647   1.605   6.918 -1.6152  0.4409  0.9503
  648MOL0     H85531   8.597   1.441   6.850  1.8158 -0.9587 -0.8134
  648MOL0     H85532   8.801   1.352   6.836  0.5968 -0.7100  2.2155
  648MOL0     H85533   8.816   1.516   6.763  2.2864  2.6902  2.5689
  648MOL0     H85534   9.106   1.520   7.073 -0.7333 -0.0969  0.0105
  648MOL0     H85535   8.342   1.344   7.041  2.3328  0.6790 -1.4222
  648MOL0     H85536   8.141   1.231   7.144  1.2642  2.5018 -0.2368
  649MOL0     O85537   6.040  11.245   1.906 -0.1313  0.5474 -0.6611
  649MOL0     C85538   6.060  11.367   1.886 -0.7122  0.4038 -0.5337
  649MOL0     O85539   6.170  11.437   1.922 -0.0400  0.3573  0.8869
  649MOL0     C85540   6.267  11.370   1.991  0.5986 -0.8922  0.0349
  649MOL0     C85541   6.338  11.261   1.932 -0.1804  0.7568  0.0644
  649MOL0     C85542   6.436  11.207   2.007 -0.7707  0.2551  0.4740
  649MOL0     C85543   6.471  11.245   2.137 -0.5296 -1.0497  0.3747
  649MOL0     O85544   6.580  11.190   2.199 -0.8222  0.2271  0.4962
  649MOL0     C85545   6.671  11.267   2.284 -0.1932  0.3080  0.0458
  649MOL0     C85546   6.765  11.350   2.197 -0.0421  0.6971  0.0372
  649MOL0     C85547   6.819  11.460   2.283 -0.5568  0.2889 -0.5032
  649MOL0     C85548   6.721  11.579   2.289  0.0538 -0.7762 -0.1268
  649MOL0     C85549   6.775  11.716   2.331 -1.2422  0.4649 -0.4831
  649MOL0     C85550   6.836  11.718   2.467 -0.4738  0.1365 -0.2644
  649MOL0     C85551   6.896  11.854   2.506  0.6031  0.0840  0.0904
  649MOL0     C85552   6.896  11.881   2.654 -0.4302  0.0855 -0.7554
  649MOL0     N85553   6.974  11.790   2.742 -0.2845 -0.0481  0.7018
  649MOL0     C85554   6.930  11.682   2.807  0.9484  0.5449 -1.5863
  649MOL0     C85555   7.037  11.635   2.881  0.1859 -0.6569 -0.1537
  649MOL0     C85556   7.047  11.543   3.000  0.7539  0.7125  1.0053
  649MOL0     C85557   7.162  11.441   2.985 -0.4138  0.0786 -0.0100
  649MOL0     C85558   7.155  11.343   2.864 -0.0660 -0.0585 -0.0565
  649MOL0     C85559   7.026  11.268   2.835 -0.2578  0.0946 -0.3161
  649MOL0     O85560   6.933  11.348   2.761  0.3067  0.4217  0.0393
  649MOL0     C85561   6.820  11.300   2.712 -0.2163  0.1696 -0.2648
  649MOL0     C85562   6.777  11.168   2.721  0.1162 -0.5612  0.4369
  649MOL0     C85563   6.654  11.125   2.669 -0.8008 -0.4188  0.4750
  649MOL0     C85564   6.570  11.217   2.606  0.0918 -0.5111 -0.0157
  649MOL0     C85565   6.445  11.176   2.548 -0.9260  1.0078 -0.1975
  649MOL0     O85566   6.358  11.266   2.492 -0.5107 -0.0987 -1.1350
  649MOL0     C85567   6.232  11.224   2.505  0.4585  0.6494  0.0308
  649MOL0     C85568   6.159  11.173   2.390 -0.8856  0.3251 -0.7888
  649MOL0     C85569   6.032  11.121   2.406  0.6402 -0.2973 -0.0245
  649MOL0     C85570   5.968  11.126   2.531 -1.3292 -0.2306  0.2669
  649MOL0     O85571   5.837  11.083   2.545  0.3901 -0.3677 -0.0678
  649MOL0     C85572   5.726  11.177   2.546  0.3729 -1.1525  0.2654
  649MOL0     C85573   5.665  11.201   2.686  0.2781  0.2614 -0.7082
  649MOL0     C85574   5.609  11.070   2.743  0.5657  0.4893 -0.1991
  649MOL0     C85575   5.574  11.079   2.897  0.1198  0.2138  0.4594
  649MOL0     C85576   5.493  10.952   2.942 -0.4168 -0.0484  0.7812
  649MOL0     C85577   5.591  10.851   2.994 -0.8900 -0.0911  0.4203
  649MOL0     C85578   5.509  10.751   3.081 -0.3855  1.0754 -0.4668
  649MOL0     C85579   5.575  10.611   3.098  0.7573 -0.5385  0.5749
  649MOL0    Cl85580   5.742  10.642   3.160 -0.2202  0.3475 -0.1630
  649MOL0     C85581   6.039  11.181   2.640 -0.0619  0.4087  0.5397
  649MOL0     C85582   6.172  11.222   2.633 -0.0630  0.1689 -0.5675
  649MOL0     O85583   6.421  11.056   2.556 -0.4247 -0.6299 -0.9362
  649MOL0     C85584   6.611  11.358   2.596 -0.2919  0.6538  0.0782
  649MOL0     C85585   6.734  11.392   2.652 -0.6289 -0.3925 -0.6242
  649MOL0     N85586   7.150  11.715   2.846 -0.0895  0.6168 -0.2609
  649MOL0     N85587   7.108  11.798   2.758  0.2853  0.2507 -0.1559
  649MOL0     C85588   6.393  11.351   2.193 -0.1630  0.7711 -0.0939
  649MOL0     C85589   6.302  11.411   2.116 -0.3189 -1.0816 -0.7722
  649MOL0     C85590   5.965  11.436   1.812  0.2290  0.4428  0.8754
  649MOL0     C85591   5.840  11.374   1.772 -0.1161 -0.3556 -0.2572
  649MOL0     C85592   5.748  11.447   1.698  0.2398  0.3831  1.3584
  649MOL0     C85593   5.773  11.569   1.642  0.2432  0.0554  0.0140
  649MOL0     O85594   5.691  11.637   1.556 -0.6391  0.1033 -0.5370
  649MOL0     C85595   5.553  11.622   1.585  0.0552  0.2350 -0.8510
  649MOL0     C85596   5.473  11.749   1.539 -0.4581  0.8717 -0.0802
  649MOL0     C85597   5.499  11.869   1.622  0.0341 -0.6196 -0.7890
  649MOL0     C85598   5.408  11.867   1.763 -0.1932 -1.6694  1.3594
  649MOL0     C85599   5.440  11.972   1.859 -0.4991  0.2696 -0.1236
  649MOL0     C85600   5.478  12.044   1.946 -0.0720 -0.1691 -0.2079
  649MOL0     C85601   5.895  11.629   1.679  0.0763  0.8717 -0.0045
  649MOL0     C85602   5.983  11.572   1.775  0.7503 -0.1073 -0.5184
  649MOL0     H85603   6.318  11.239   1.827  0.2195  1.3403 -0.1360
  649MOL0     H85604   6.504  11.138   1.958  1.4955  2.0662  0.8817
  649MOL0     H85605   6.740  11.208   2.345  1.2031  0.7015 -1.1010
  649MOL0     H85606   6.619  11.341   2.346  0.0140  1.4513 -1.1013
  649MOL0     H85607   6.711  11.385   2.108 -1.4360  0.2970  0.7062
  649MOL0     H85608   6.841  11.280   2.160 -0.3035 -1.1811  2.7549
  649MOL0     H85609   6.909  11.496   2.232 -0.3061 -2.3972 -2.1539
  649MOL0     H85610   6.864  11.425   2.377 -1.1905  2.1854  0.5580
  649MOL0     H85611   6.682  11.591   2.188  0.7582  2.1849 -0.1328
  649MOL0     H85612   6.640  11.562   2.360  0.3098 -1.7978 -0.0539
  649MOL0     H85613   6.690  11.785   2.326 -0.8638  1.0378  0.6198
  649MOL0     H85614   6.848  11.753   2.258  0.0896 -1.7687 -0.3589
  649MOL0     H85615   6.924  11.653   2.469 -1.5781 -1.4201  0.2387
  649MOL0     H85616   6.760  11.670   2.530  0.2546 -3.0953 -1.6420
  649MOL0     H85617   7.003  11.853   2.484 -0.0429 -1.7642 -3.6121
  649MOL0     H85618   6.852  11.939   2.453 -2.0613 -0.9979  0.4288
  649MOL0     H85619   6.794  11.887   2.694 -1.0715  1.8508 -2.5184
  649MOL0     H85620   6.931  11.984   2.664  2.9527 -1.1839  2.9156
  649MOL0     H85621   6.831  11.637   2.807  1.5088 -0.7208 -0.8259
  649MOL0     H85622   6.949  11.494   2.997  0.4409  1.3863 -1.3130
  649MOL0     H85623   7.072  11.606   3.086  1.0205 -0.4056  1.7710
  649MOL0     H85624   7.159  11.378   3.075 -1.1665 -0.8479 -0.6608
  649MOL0     H85625   7.254  11.499   2.992 -1.5720  1.8103  2.2772
  649MOL0     H85626   7.173  11.400   2.773  0.4920 -0.2725 -0.0842
  649MOL0     H85627   7.235  11.268   2.868 -1.0023 -1.2526 -2.1029
  649MOL0     H85628   6.984  11.237   2.931  0.4359 -0.8010 -0.2950
  649MOL0     H85629   7.052  11.180   2.776  1.0209  0.1052  0.1991
  649MOL0     H85630   6.838  11.089   2.764  2.5406  0.9425 -0.0508
  649MOL0     H85631   6.635  11.020   2.688 -2.2982  0.1378  2.4679
  649MOL0     H85632   6.200  11.164   2.291  2.0776 -1.6015  0.4716
  649MOL0     H85633   5.978  11.083   2.320 -0.0959 -0.5791  0.5428
  649MOL0     H85634   5.641  11.135   2.492  0.4470  0.5268 -1.2272
  649MOL0     H85635   5.755  11.270   2.497  0.2836  0.7717  3.5550
  649MOL0     H85636   5.580  11.270   2.680  0.6396  0.8950  1.1100
  649MOL0     H85637   5.744  11.242   2.749  1.0358  1.3869 -2.3241
  649MOL0     H85638   5.678  10.988   2.724 -1.4209 -1.0518 -1.1024
  649MOL0     H85639   5.515  11.044   2.695  0.0823 -2.0889  1.9225
  649MOL0     H85640   5.663  11.093   2.960 -1.3280 -1.7161  3.1209
  649MOL0     H85641   5.510  11.166   2.907 -3.0422 -1.2187 -4.0746
  649MOL0     H85642   5.430  10.918   2.859  1.8583 -3.3220  0.2221
  649MOL0     H85643   5.437  10.995   3.025 -2.5513  1.7382 -1.4451
  649MOL0     H85644   5.670  10.904   3.049  0.2386  0.7576 -1.9149
  649MOL0     H85645   5.641  10.809   2.907 -1.8296  1.5944 -0.9867
  649MOL0     H85646   5.493  10.792   3.181 -2.5820 -1.0360  0.1405
  649MOL0     H85647   5.410  10.739   3.036 -1.1781 -0.4115  1.5471
  649MOL0     H85648   5.579  10.553   3.006 -0.1004  3.3519 -2.1424
  649MOL0     H85649   5.522  10.555   3.176  2.5494 -1.0550  1.4777
  649MOL0     H85650   5.985  11.178   2.735  2.1072  0.7801  1.8472
  649MOL0     H85651   6.213  11.256   2.728 -1.7530 -4.7693  2.3213
  649MOL0     H85652   6.541  11.431   2.558 -2.0040 -0.3282  1.2200
  649MOL0     H85653   6.772  11.493   2.636 -2.5723  0.7713  1.5300
  649MOL0     H85654   6.409  11.390   2.293 -2.0947 -2.2693  1.5148
  649MOL0     H85655   6.239  11.479   2.172  0.2517  0.4226 -1.8619
  649MOL0     H85656   5.821  11.270   1.797 -1.1405 -0.1597 -0.1820
  649MOL0     H85657   5.658  11.392   1.673  1.0698  0.4541 -2.4063
  649MOL0     H85658   5.539  11.605   1.692 -1.3301 -0.9364 -1.1944
  649MOL0     H85659   5.517  11.531   1.536  1.3306 -0.0906 -1.2371
  649MOL0     H85660   5.504  11.777   1.438 -1.3587 -1.0434 -0.9536
  649MOL0     H85661   5.366  11.726   1.540 -0.1411 -0.8525 -0.8265
  649MOL0     H85662   5.464  11.957   1.567 -1.3243 -0.1428  0.7337
  649MOL0     H85663   5.607  11.879   1.638 -0.2665  0.9154  0.6926
  649MOL0     H85664   5.305  11.885   1.730  0.4036 -1.3839 -0.4856
  649MOL0     H85665   5.418  11.771   1.815  1.5549 -1.4656  1.4595
  649MOL0     H85666   5.506  12.113   2.023  3.5770 -0.9749 -0.6476
  649MOL0     H85667   5.921  11.726   1.637  0.0236  1.1125  0.5152
  649MOL0     H85668   6.076  11.624   1.797 -0.5884  1.0818  2.8767
  650MOL0     O85669   0.167   3.590   5.379 -0.8487 -0.6896 -1.0387
  650MOL0     C85670   0.082   3.654   5.441  0.8942 -0.0124  0.3367
  650MOL0     O85671  -0.052   3.652   5.420  0.8905  0.2767  0.6363
  650MOL0     C85672  -0.103   3.605   5.307  1.5808 -0.0459  0.3584
  650MOL0     C85673  -0.068   3.674   5.194 -0.3921 -0.6336  0.5459
  650MOL0     C85674  -0.135   3.635   5.073 -0.4332  0.2175  0.0544
  650MOL0     C85675  -0.239   3.538   5.074  0.2694  0.2497  0.6832
  650MOL0     O85676  -0.314   3.496   4.961 -0.5395  0.3555 -0.2106
  650MOL0     C85677  -0.273   3.535   4.825  0.0092 -0.0204 -0.4036
  650MOL0     C85678  -0.353   3.655   4.779  0.6242  0.2847  0.2704
  650MOL0     C85679  -0.312   3.705   4.643 -0.8275 -0.7936  0.1888
  650MOL0     C85680  -0.387   3.826   4.574  0.1729  0.3746 -0.9828
  650MOL0     C85681  -0.354   3.835   4.421 -0.1924  0.6314 -0.2348
  650MOL0     C85682  -0.458   3.918   4.339 -0.0050  0.2373  0.3172
  650MOL0     C85683  -0.493   4.056   4.402  0.3862 -0.3264  0.8129
  650MOL0     C85684  -0.621   4.119   4.333 -0.4533  1.1489  1.4803
  650MOL0     N85685  -0.595   4.176   4.199  0.8625  0.0630  0.2793
  650MOL0     C85686  -0.573   4.308   4.189 -0.3478 -1.1176 -0.0447
  650MOL0     C85687  -0.565   4.327   4.048 -0.3889 -0.4716 -0.6427
  650MOL0     C85688  -0.517   4.449   3.977  0.2650  0.1612 -0.5707
  650MOL0     C85689  -0.643   4.526   3.925  0.5853 -0.0127  0.6035
  650MOL0     C85690  -0.616   4.592   3.792 -0.6063  0.0366 -0.2873
  650MOL0     C85691  -0.734   4.681   3.748  0.2713  0.0294  0.0498
  650MOL0     O85692  -0.865   4.631   3.727 -0.0457  1.1331 -0.3477
  650MOL0     C85693  -0.971   4.698   3.775  0.0351 -0.5554  0.4458
  650MOL0     C85694  -0.981   4.838   3.760  0.7201  0.2637  0.2397
  650MOL0     C85695  -1.099   4.896   3.793 -0.0250  0.2320 -0.0736
  650MOL0     C85696  -1.209   4.823   3.844 -0.0414  0.0230  0.3167
  650MOL0     C85697  -1.336   4.890   3.874  0.2220  0.0021 -0.4635
  650MOL0     O85698  -1.369   4.996   3.802  0.0139 -0.6566 -0.5135
  650MOL0     C85699  -1.491   5.057   3.827 -0.1692 -0.2811 -0.4681
  650MOL0     C85700  -1.516   5.147   3.931 -0.2908  0.4240  0.0309
  650MOL0     C85701  -1.643   5.203   3.939  0.0489  0.5820 -0.2318
  650MOL0     C85702  -1.743   5.181   3.840 -0.4703  0.7314 -0.1629
  650MOL0     O85703  -1.874   5.215   3.846 -0.1358 -0.4026 -0.2285
  650MOL0     C85704  -1.915   5.301   3.953 -0.7261  0.3608  0.3224
  650MOL0     C85705  -2.062   5.344   3.922 -0.7518  0.7301 -0.2575
  650MOL0     C85706  -2.116   5.434   4.030  1.1632 -0.5997 -0.5883
  650MOL0     C85707  -2.262   5.442   4.010  0.2596 -0.0806 -0.0619
  650MOL0     C85708  -2.340   5.495   4.128  0.4310 -0.0914  0.2913
  650MOL0     C85709  -2.309   5.441   4.265 -0.3165 -0.0676  0.5957
  650MOL0     C85710  -2.398   5.469   4.385 -0.0585 -0.9311  0.6579
  650MOL0     C85711  -2.514   5.379   4.397  0.6941  1.0868  1.0511
  650MOL0    Cl85712  -2.630   5.421   4.522 -0.2588 -0.3261 -0.2757
  650MOL0     C85713  -1.709   5.103   3.732  0.6921 -0.2708 -0.2012
  650MOL0     C85714  -1.588   5.043   3.725 -0.1026  0.6644  0.5160
  650MOL0     O85715  -1.405   4.846   3.968  0.7596  0.2876 -0.1319
  650MOL0     C85716  -1.198   4.686   3.854 -0.6267  0.2255  0.6891
  650MOL0     C85717  -1.082   4.630   3.812 -0.3582  1.7105 -0.3706
  650MOL0     N85718  -0.590   4.206   3.986  0.0407  0.4321  0.7653
  650MOL0     N85719  -0.605   4.113   4.073  0.3520 -0.6106  0.5325
  650MOL0     C85720  -0.261   3.467   5.189  1.1683  0.2245 -0.2255
  650MOL0     C85721  -0.196   3.506   5.307  0.2480  1.0487 -0.2029
  650MOL0     C85722   0.131   3.723   5.566  0.0959 -0.0045  0.3725
  650MOL0     C85723   0.054   3.825   5.627  0.9523  0.2191 -0.5163
  650MOL0     C85724   0.109   3.884   5.747 -0.3515 -0.0718  0.5164
  650MOL0     C85725   0.240   3.849   5.788  0.4508  0.2106 -0.4037
  650MOL0     O85726   0.282   3.888   5.917 -0.0528 -0.2192 -0.4485
  650MOL0     C85727   0.195   3.936   6.019 -0.7780  0.4383  0.1406
  650MOL0     C85728   0.258   3.926   6.165 -0.2956  0.2435 -0.6327
  650MOL0     C85729   0.272   3.791   6.225  0.6102  0.1829  0.5056
  650MOL0     C85730   0.380   3.700   6.152  0.3776 -0.4765  0.9409
  650MOL0     C85731   0.332   3.584   6.081  0.0636  0.4218 -0.3266
  650MOL0     C85732   0.294   3.504   5.989 -0.4846  0.7717 -0.3996
  650MOL0     C85733   0.319   3.752   5.726 -0.2594 -0.5807  0.1351
  650MOL0     C85734   0.262   3.693   5.621  0.0281 -0.6913  0.0623
  650MOL0     H85735   0.003   3.756   5.202 -3.5057  2.1367  2.4108
  650MOL0     H85736  -0.106   3.690   4.985  1.1989 -0.8893 -0.1484
  650MOL0     H85737  -0.297   3.461   4.749 -1.5072  0.0141  0.0032
  650MOL0     H85738  -0.165   3.557   4.828  0.1665 -0.8781  1.5892
  650MOL0     H85739  -0.342   3.738   4.849  0.7592 -0.7799  1.5528
  650MOL0     H85740  -0.461   3.635   4.773  0.6126  0.5767 -0.5590
  650MOL0     H85741  -0.317   3.621   4.573  1.8528 -0.5761 -0.3745
  650MOL0     H85742  -0.210   3.744   4.646 -1.2777  1.4354 -4.3705
  650MOL0     H85743  -0.496   3.817   4.566  0.1605  0.6616 -1.1437
  650MOL0     H85744  -0.361   3.918   4.627 -0.4148 -0.5651  1.0505
  650MOL0     H85745  -0.364   3.739   4.369 -1.9941  1.4472 -1.4932
  650MOL0     H85746  -0.251   3.871   4.428 -0.6903  1.6910  4.0010
  650MOL0     H85747  -0.548   3.855   4.331  0.6198 -0.8824  1.6509
  650MOL0     H85748  -0.425   3.921   4.235  0.1564 -2.4588  0.2152
  650MOL0     H85749  -0.532   4.045   4.504 -0.1566 -0.2937  0.6103
  650MOL0     H85750  -0.400   4.114   4.408  0.8714 -1.0961  0.7910
  650MOL0     H85751  -0.659   4.197   4.399 -1.4532  1.2320  0.8400
  650MOL0     H85752  -0.696   4.041   4.320 -0.3674  1.5543 -3.3035
  650MOL0     H85753  -0.570   4.382   4.269 -1.6480  2.0488 -2.7146
  650MOL0     H85754  -0.443   4.432   3.899  2.1326  1.4129  0.8121
  650MOL0     H85755  -0.469   4.523   4.042 -0.2779  2.4090 -2.6076
  650MOL0     H85756  -0.685   4.606   3.986  2.2208 -0.4675  2.3879
  650MOL0     H85757  -0.730   4.459   3.916 -0.0781  0.6604  1.6930
  650MOL0     H85758  -0.533   4.663   3.799 -0.8314  0.3260 -0.5242
  650MOL0     H85759  -0.597   4.524   3.708 -0.1835 -1.2906  0.8489
  650MOL0     H85760  -0.705   4.724   3.651  0.5601  0.1596  0.1918
  650MOL0     H85761  -0.739   4.767   3.816  0.8168 -0.4918  0.7603
  650MOL0     H85762  -0.907   4.898   3.707  2.4442 -0.8434  1.3043
  650MOL0     H85763  -1.114   5.002   3.774  2.8410  0.4392 -1.8976
  650MOL0     H85764  -1.445   5.167   4.010  1.2034  0.9952 -1.3977
  650MOL0     H85765  -1.666   5.258   4.030  5.1644  2.5545  0.1765
  650MOL0     H85766  -1.851   5.389   3.963  1.7034 -1.3955  1.4880
  650MOL0     H85767  -1.914   5.252   4.051  0.3564 -0.8347 -0.2511
  650MOL0     H85768  -2.123   5.254   3.910  0.9146 -0.3461 -0.9998
  650MOL0     H85769  -2.073   5.399   3.828 -4.8405  0.5237 -0.0742
  650MOL0     H85770  -2.068   5.532   4.043  0.4914 -0.1490 -1.4058
  650MOL0     H85771  -2.092   5.380   4.122 -1.0274 -1.5601 -0.5352
  650MOL0     H85772  -2.274   5.507   3.923  1.3215 -0.1910 -0.3047
  650MOL0     H85773  -2.294   5.340   3.986  0.0341 -0.2937  1.0770
  650MOL0     H85774  -2.447   5.480   4.111 -0.1412  3.4267  0.1245
  650MOL0     H85775  -2.327   5.603   4.136 -2.9042  0.3722  0.7843
  650MOL0     H85776  -2.213   5.479   4.301 -0.1006 -0.0436 -0.0047
  650MOL0     H85777  -2.304   5.332   4.263 -1.8242 -0.1424 -0.6073
  650MOL0     H85778  -2.331   5.454   4.470  2.8209 -1.3714 -1.5338
  650MOL0     H85779  -2.432   5.573   4.373  1.6535 -0.6021 -2.3637
  650MOL0     H85780  -2.489   5.273   4.406  0.0206  1.0362  2.7074
  650MOL0     H85781  -2.567   5.391   4.302 -2.4346 -0.4092  2.4376
  650MOL0     H85782  -1.785   5.088   3.657  1.9033 -1.9902 -1.1360
  650MOL0     H85783  -1.559   4.980   3.642 -0.7436  0.9068  0.1010
  650MOL0     H85784  -1.281   4.625   3.889 -1.9622  1.1989 -0.6347
  650MOL0     H85785  -1.074   4.522   3.823  1.0928  1.4748 -2.9660
  650MOL0     H85786  -0.330   3.383   5.184  1.9142 -0.3381 -3.4481
  650MOL0     H85787  -0.199   3.451   5.401  2.0783  1.6465  0.2582
  650MOL0     H85788  -0.038   3.859   5.581  1.7523  2.6174 -0.5306
  650MOL0     H85789   0.044   3.951   5.802 -1.7087 -1.1579  0.2988
  650MOL0     H85790   0.103   3.877   6.017  1.6636 -4.2925  4.4076
  650MOL0     H85791   0.167   4.041   6.005  2.5023  1.2379 -1.2229
  650MOL0     H85792   0.359   3.968   6.160 -0.7500  1.2503 -2.1849
  650MOL0     H85793   0.201   3.999   6.224 -1.6285  0.4448 -2.0841
  650MOL0     H85794   0.171   3.748   6.218  1.3053 -1.2868 -1.5459
  650MOL0     H85795   0.294   3.799   6.331 -4.5542 -1.4699  2.0104
  650MOL0     H85796   0.437   3.757   6.078 -1.0188 -1.1595 -0.7402
  650MOL0     H85797   0.450   3.669   6.230  1.8345  0.5189  0.0768
  650MOL0     H85798   0.273   3.432   5.913  1.6018  1.4034 -1.6628
  650MOL0     H85799   0.416   3.735   5.772 -0.7246  0.4728  1.5801
  650MOL0     H85800   0.313   3.612   5.570  0.8878 -2.2280  3.0941
  651MOL0     O85801   5.310   9.429   3.364  0.3179 -0.1435  0.3038
  651MOL0     C85802   5.364   9.530   3.317  0.8460 -0.6147  0.5045
  651MOL0     O85803   5.304   9.621   3.232 -0.5953 -0.1414 -0.3198
  651MOL0     C85804   5.173   9.617   3.219 -0.0466  1.0394  0.3947
  651MOL0     C85805   5.119   9.634   3.094  0.1589 -0.2215 -0.0579
  651MOL0     C85806   4.986   9.633   3.064  0.7078  0.0088 -0.1800
  651MOL0     C85807   4.896   9.629   3.172 -0.2551  0.3098  0.1485
  651MOL0     O85808   4.768   9.653   3.140  0.9980  0.2026  0.4325
  651MOL0     C85809   4.674   9.684   3.244  0.5557  0.1633 -0.5049
  651MOL0     C85810   4.531   9.691   3.170  1.0396 -0.2580 -0.2040
  651MOL0     C85811   4.476   9.547   3.117 -0.7715 -0.0036 -0.3755
  651MOL0     C85812   4.346   9.560   3.030 -0.3936 -0.9520  0.1416
  651MOL0     C85813   4.275   9.421   3.008  0.3251 -0.2662 -0.6863
  651MOL0     C85814   4.369   9.345   2.907  0.9054  0.1890 -0.3366
  651MOL0     C85815   4.309   9.208   2.881  0.5319  0.6913  0.7841
  651MOL0     C85816   4.359   9.153   2.737 -0.2780  0.6211  0.5303
  651MOL0     N85817   4.338   9.235   2.618 -0.1845  0.1786  0.5624
  651MOL0     C85818   4.226   9.298   2.564  0.5430  0.6494 -1.2203
  651MOL0     C85819   4.275   9.362   2.459 -0.0502 -0.6654  0.7755
  651MOL0     C85820   4.205   9.457   2.366  0.3242  0.1150 -0.4223
  651MOL0     C85821   4.202   9.592   2.435 -0.5760  0.6839  0.7448
  651MOL0     C85822   4.089   9.616   2.541  0.3612 -0.0231  0.5268
  651MOL0     C85823   3.960   9.602   2.479  0.0040 -0.1132  0.5763
  651MOL0     O85824   3.944   9.709   2.382  0.1949 -0.1982 -0.1437
  651MOL0     C85825   3.817   9.745   2.341 -0.9166 -0.0284  0.1178
  651MOL0     C85826   3.706   9.660   2.357 -0.2044 -0.2286 -0.2370
  651MOL0     C85827   3.579   9.711   2.333  0.2065  0.4157  0.5740
  651MOL0     C85828   3.558   9.847   2.309  0.1096 -0.3184 -0.5248
  651MOL0     C85829   3.426   9.901   2.313  1.6912 -0.1225  0.4535
  651MOL0     O85830   3.324   9.814   2.304  0.4100  0.2337 -0.3919
  651MOL0     C85831   3.190   9.851   2.296  0.1937  0.7608 -0.0705
  651MOL0     C85832   3.113   9.764   2.226 -0.1082 -0.2275 -0.3693
  651MOL0     C85833   2.976   9.783   2.224  0.2387  0.1870  0.4789
  651MOL0     C85834   2.915   9.896   2.290 -0.7327  0.1815  0.6102
  651MOL0     O85835   2.781   9.922   2.275  0.2880 -0.3444  1.6673
  651MOL0     C85836   2.704  10.016   2.352  0.0930 -0.1717 -1.2126
  651MOL0     C85837   2.561  10.012   2.293 -0.3895 -0.0486  0.1051
  651MOL0     C85838   2.451  10.083   2.381  0.3274  0.5451  0.5570
  651MOL0     C85839   2.312  10.087   2.310  0.0994  0.8322 -1.0160
  651MOL0     C85840   2.208  10.149   2.401 -0.9934  0.1329  0.4429
  651MOL0     C85841   2.079  10.095   2.348  1.1059  0.7183  0.3771
  651MOL0     C85842   1.956  10.160   2.416 -0.1882 -0.2034  0.4588
  651MOL0     C85843   1.826  10.115   2.341 -0.5444  0.5025 -0.1820
  651MOL0    Cl85844   1.733   9.984   2.421 -0.2839 -0.4607  0.1587
  651MOL0     C85845   2.995   9.968   2.366 -0.6948  0.0830 -0.0982
  651MOL0     C85846   3.133   9.956   2.360 -1.0117  0.0629  0.3487
  651MOL0     O85847   3.414  10.020   2.319 -0.7839 -0.0438  0.4367
  651MOL0     C85848   3.670   9.925   2.288 -0.0722 -0.2118  0.9486
  651MOL0     C85849   3.799   9.885   2.305 -0.3253 -0.1926 -0.0683
  651MOL0     N85850   4.412   9.351   2.456  0.0802 -0.4016 -0.0475
  651MOL0     N85851   4.449   9.283   2.557 -0.6541 -0.1669 -0.4888
  651MOL0     C85852   4.951   9.614   3.303  0.8572  0.3895 -0.2498
  651MOL0     C85853   5.086   9.596   3.327  0.3734  0.4609 -0.1625
  651MOL0     C85854   5.510   9.535   3.319 -0.1914 -0.1732  0.5298
  651MOL0     C85855   5.581   9.649   3.271 -0.4150  0.5898 -0.0537
  651MOL0     C85856   5.721   9.664   3.275 -0.0296  0.7353  1.2719
  651MOL0     C85857   5.802   9.562   3.322 -0.3179  0.4005 -0.3444
  651MOL0     O85858   5.929   9.588   3.322 -0.0130 -0.1746  0.0777
  651MOL0     C85859   6.003   9.553   3.445  0.9934  0.3039  1.4124
  651MOL0     C85860   6.110   9.655   3.482 -0.1092 -0.7568  0.2069
  651MOL0     C85861   6.186   9.690   3.355 -0.3774  0.2964 -0.1809
  651MOL0     C85862   6.327   9.743   3.366 -0.1128 -0.0160  0.3829
  651MOL0     C85863   6.351   9.864   3.443  0.5543 -0.3710  0.9295
  651MOL0     C85864   6.367   9.966   3.506  0.2309 -0.9192  0.5604
  651MOL0     C85865   5.742   9.446   3.377  0.6632  0.3158 -0.7937
  651MOL0     C85866   5.599   9.432   3.383  0.1199 -0.2222 -1.0930
  651MOL0     H85867   5.182   9.629   3.006  1.9035 -0.4493  1.1531
  651MOL0     H85868   4.950   9.667   2.968  2.6019  2.3158 -0.1509
  651MOL0     H85869   4.705   9.772   3.301 -0.7126 -0.0794  0.6178
  651MOL0     H85870   4.680   9.603   3.318 -1.8492 -0.7522 -1.2163
  651MOL0     H85871   4.520   9.747   3.076 -2.1810  0.1388  0.3095
  651MOL0     H85872   4.463   9.743   3.238 -0.1393 -1.5791 -0.3211
  651MOL0     H85873   4.449   9.485   3.204 -2.3414  2.4559  1.0045
  651MOL0     H85874   4.557   9.501   3.060  0.8415  1.0150  1.0052
  651MOL0     H85875   4.272   9.629   3.071 -1.7117 -1.6194 -1.0595
  651MOL0     H85876   4.381   9.607   2.938  0.4536  0.8462  1.3020
  651MOL0     H85877   4.177   9.439   2.964  0.1474 -0.6465 -0.4461
  651MOL0     H85878   4.262   9.361   3.098 -3.4096  2.5919  0.9225
  651MOL0     H85879   4.466   9.324   2.951 -0.0654 -2.4530  0.7171
  651MOL0     H85880   4.365   9.402   2.813  1.5034 -1.8419 -1.6485
  651MOL0     H85881   4.346   9.148   2.965  1.5990  1.7523  1.0901
  651MOL0     H85882   4.201   9.213   2.894  0.3459 -1.1986  0.3108
  651MOL0     H85883   4.306   9.063   2.706  3.0001 -0.9453 -1.0870
  651MOL0     H85884   4.464   9.122   2.748 -0.9553 -3.2491 -1.9005
  651MOL0     H85885   4.123   9.288   2.598  1.2755 -0.3070  0.8786
  651MOL0     H85886   4.106   9.418   2.342  0.5496 -2.1995  1.9506
  651MOL0     H85887   4.249   9.474   2.268 -5.4137  2.9115 -2.9540
  651MOL0     H85888   4.191   9.661   2.350  1.0806  1.4143  1.0856
  651MOL0     H85889   4.299   9.609   2.482  2.0013 -1.8328 -3.0695
  651MOL0     H85890   4.106   9.562   2.634  0.9701  0.9159  0.9666
  651MOL0     H85891   4.099   9.723   2.561  2.9866  0.0300 -0.6232
  651MOL0     H85892   3.880   9.614   2.553  1.0675  0.4500  1.6685
  651MOL0     H85893   3.944   9.499   2.446  1.4924  0.0629 -0.8238
  651MOL0     H85894   3.723   9.557   2.385  0.9592  0.8384  3.6227
  651MOL0     H85895   3.500   9.636   2.338 -0.6894  1.4163  2.5504
  651MOL0     H85896   3.158   9.688   2.163  0.6235 -0.5906  0.5685
  651MOL0     H85897   2.914   9.704   2.182 -0.1497 -2.1745  4.8111
  651MOL0     H85898   2.732  10.122   2.359 -1.8836  0.2876  1.6622
  651MOL0     H85899   2.695   9.982   2.456  2.5818  0.3874 -0.7376
  651MOL0     H85900   2.542   9.905   2.292 -0.2896 -0.0695  0.3165
  651MOL0     H85901   2.562  10.048   2.190 -4.8271 -2.9912 -1.2130
  651MOL0     H85902   2.484  10.187   2.394  0.2927  0.6625 -0.2537
  651MOL0     H85903   2.436  10.024   2.472 -1.2554 -0.2840 -0.1870
  651MOL0     H85904   2.326  10.144   2.217  3.1169 -0.9774 -1.7996
  651MOL0     H85905   2.280   9.986   2.282 -0.1804  0.7473 -0.3895
  651MOL0     H85906   2.213  10.258   2.408 -1.4715  0.0841  2.0412
  651MOL0     H85907   2.229  10.107   2.500 -0.1398  1.4971  0.8728
  651MOL0     H85908   2.060   9.990   2.375 -0.1892  0.9535  0.4327
  651MOL0     H85909   2.064  10.112   2.241 -1.7071 -0.3780  0.5099
  651MOL0     H85910   1.938  10.128   2.519 -3.8921  0.4689  0.1682
  651MOL0     H85911   1.969  10.269   2.424  0.5198 -0.3353  1.2931
  651MOL0     H85912   1.853  10.087   2.239  0.5796 -2.3352  0.7926
  651MOL0     H85913   1.752  10.196   2.344  1.7109  2.6535  0.6287
  651MOL0     H85914   2.945  10.048   2.420 -3.3758 -0.5960 -1.4059
  651MOL0     H85915   3.189  10.037   2.406  2.3874 -1.0695 -1.4988
  651MOL0     H85916   3.651  10.029   2.266 -1.8320 -0.6792  0.0773
  651MOL0     H85917   3.882   9.950   2.278 -0.9742  0.1005 -1.4642
  651MOL0     H85918   4.891   9.619   3.393  1.8586 -1.7905  0.6015
  651MOL0     H85919   5.123   9.582   3.428  2.7897 -0.0558 -1.0533
  651MOL0     H85920   5.523   9.733   3.235  0.3046  0.5997 -1.2353
  651MOL0     H85921   5.768   9.756   3.241 -2.3184  1.4215 -0.3230
  651MOL0     H85922   6.053   9.457   3.430  3.7046  1.6361  1.1850
  651MOL0     H85923   5.930   9.540   3.525 -3.1744  2.5382 -1.6155
  651MOL0     H85924   6.070   9.747   3.526  0.5286  0.6056 -1.9346
  651MOL0     H85925   6.171   9.604   3.558  0.1788 -1.3924 -0.4431
  651MOL0     H85926   6.116   9.757   3.303  0.2233  0.8659 -0.2628
  651MOL0     H85927   6.196   9.597   3.297  1.5092 -0.9955  2.0691
  651MOL0     H85928   6.388   9.668   3.419 -0.3820  0.4985  1.4495
  651MOL0     H85929   6.372   9.758   3.268 -1.5592  0.4212 -0.2375
  651MOL0     H85930   6.383  10.045   3.577 -1.2760  1.1772 -1.3170
  651MOL0     H85931   5.801   9.375   3.435 -0.4053 -0.5195 -0.7084
  651MOL0     H85932   5.543   9.348   3.422 -4.2892  1.9501 -2.1576
  652MOL0     O85933   2.144   7.871   7.029  0.3798 -0.4915 -0.1185
  652MOL0     C85934   2.153   7.791   7.123  0.9721  0.6074 -0.9080
  652MOL0     O85935   2.274   7.726   7.173  0.0928 -0.2387 -0.0459
  652MOL0     C85936   2.399   7.741   7.109 -0.3252  0.5610 -0.2872
  652MOL0     C85937   2.444   7.848   7.028 -0.0250  0.4168  0.2696
  652MOL0     C85938   2.570   7.848   6.967  0.4813 -0.1305 -0.3013
  652MOL0     C85939   2.664   7.749   6.992 -0.0026 -0.2944 -0.7922
  652MOL0     O85940   2.786   7.755   6.937 -0.4855 -0.4963  0.1547
  652MOL0     C85941   2.887   7.692   7.012  0.2271 -0.3815  0.6981
  652MOL0     C85942   3.022   7.719   6.950 -0.2109  0.2692 -0.4745
  652MOL0     C85943   3.139   7.716   7.043  0.7467  0.9712  0.4696
  652MOL0     C85944   3.272   7.727   6.975 -0.1409 -0.5809 -0.9353
  652MOL0     C85945   3.392   7.693   7.061  1.0743 -0.7188  0.1247
  652MOL0     C85946   3.405   7.770   7.190  0.8108  0.6370 -0.6420
  652MOL0     C85947   3.417   7.925   7.156  0.6607  0.5913  0.1065
  652MOL0     C85948   3.431   8.016   7.285  0.5574 -0.4945  0.6748
  652MOL0     N85949   3.297   8.029   7.353 -0.0049  0.1301 -0.2282
  652MOL0     C85950   3.283   8.012   7.487  0.6819  1.1209 -0.5435
  652MOL0     C85951   3.156   8.064   7.516 -0.7878  0.1557 -0.4170
  652MOL0     C85952   3.095   8.060   7.656 -0.9556 -0.0342 -1.2359
  652MOL0     C85953   3.026   7.924   7.695 -0.2012  0.5959 -0.2022
  652MOL0     C85954   2.943   7.873   7.576 -1.2358  0.5723  0.2270
  652MOL0     C85955   2.855   7.750   7.612  0.8324 -0.5336  1.6586
  652MOL0     O85956   2.787   7.775   7.737 -0.0540 -0.1097  0.7419
  652MOL0     C85957   2.706   7.672   7.758  0.1285 -0.3275  0.4281
  652MOL0     C85958   2.599   7.646   7.668 -0.1482  0.4954 -0.2955
  652MOL0     C85959   2.498   7.564   7.719  0.0169 -0.6905  0.8262
  652MOL0     C85960   2.514   7.488   7.837  0.3616  0.0806 -0.4512
  652MOL0     C85961   2.404   7.409   7.895  0.1086  0.0852 -0.5673
  652MOL0     O85962   2.302   7.383   7.804 -0.3373  0.5479  0.3719
  652MOL0     C85963   2.198   7.317   7.859 -0.6397 -0.6912 -0.2244
  652MOL0     C85964   2.212   7.179   7.890  0.3519  0.5398 -0.3141
  652MOL0     C85965   2.113   7.114   7.953  0.9653 -0.1771 -0.5233
  652MOL0     C85966   1.989   7.191   7.986  0.5338  1.1897  0.0308
  652MOL0     O85967   1.898   7.120   8.061  0.0022  0.2519 -0.0771
  652MOL0     C85968   1.793   7.179   8.132  0.0698 -0.0966 -1.1884
  652MOL0     C85969   1.741   7.071   8.227  0.7632 -0.6115  0.0018
  652MOL0     C85970   1.623   7.121   8.309  0.6179 -0.1507  0.6109
  652MOL0     C85971   1.546   7.017   8.378  0.0125  0.7125  0.0110
  652MOL0     C85972   1.497   6.911   8.285  0.2427  0.2952  0.8382
  652MOL0     C85973   1.409   6.814   8.363 -0.5831  0.5345  0.4317
  652MOL0     C85974   1.341   6.714   8.271 -0.4623 -0.2346  0.9203
  652MOL0     C85975   1.421   6.578   8.278  0.6126 -0.0059  0.2356
  652MOL0    Cl85976   1.568   6.584   8.185  0.1925 -0.0869  0.0621
  652MOL0     C85977   1.976   7.321   7.941 -0.6777  0.4528 -0.2733
  652MOL0     C85978   2.080   7.388   7.874 -0.1677  0.6271 -0.0740
  652MOL0     O85979   2.409   7.360   8.010 -0.1720  0.1544  0.5587
  652MOL0     C85980   2.623   7.503   7.911  0.5265 -0.3020 -0.5102
  652MOL0     C85981   2.720   7.599   7.875  0.3880  0.8282  0.4118
  652MOL0     N85982   3.090   8.092   7.399  0.9725  0.3072 -0.6397
  652MOL0     N85983   3.178   8.082   7.302 -0.1358  0.8869  0.0343
  652MOL0     C85984   2.616   7.644   7.078  0.4574 -0.8720  0.2690
  652MOL0     C85985   2.488   7.643   7.129 -0.4527 -0.3567  0.1965
  652MOL0     C85986   2.025   7.748   7.181 -0.2526  0.3961  0.4780
  652MOL0     C85987   1.901   7.771   7.119 -1.3885 -0.0302 -0.4778
  652MOL0     C85988   1.780   7.711   7.170 -0.5234 -0.0839 -0.6275
  652MOL0     C85989   1.777   7.643   7.296 -0.2289 -0.7727  0.0678
  652MOL0     O85990   1.650   7.609   7.337  0.1020  0.3286  0.3931
  652MOL0     C85991   1.641   7.520   7.442 -0.2084 -0.1923  1.0466
  652MOL0     C85992   1.493   7.527   7.485 -0.6470 -0.1141 -0.3106
  652MOL0     C85993   1.460   7.654   7.564 -1.0678  0.2910 -0.0100
  652MOL0     C85994   1.316   7.664   7.595 -0.0868  0.3755 -0.3324
  652MOL0     C85995   1.296   7.786   7.670  0.4833 -0.3406  0.0116
  652MOL0     C85996   1.291   7.896   7.720  0.5383  0.0911 -0.5406
  652MOL0     C85997   1.900   7.617   7.356  0.4660 -0.4423  0.1976
  652MOL0     C85998   2.020   7.665   7.292 -0.0912  0.4077 -0.7625
  652MOL0     H85999   2.375   7.925   6.995 -2.6929  0.8308  5.8024
  652MOL0     H86000   2.597   7.932   6.904  2.1325 -1.1048 -0.9647
  652MOL0     H86001   2.872   7.583   7.011  0.0502 -0.3735 -0.9934
  652MOL0     H86002   2.889   7.728   7.115  1.9269  1.9040 -0.0499
  652MOL0     H86003   3.028   7.813   6.894  6.0752  0.8105  0.3888
  652MOL0     H86004   3.039   7.637   6.880  2.3797  0.0911  0.2501
  652MOL0     H86005   3.135   7.620   7.096  3.6527 -0.1390 -1.1056
  652MOL0     H86006   3.124   7.790   7.123  0.9196 -0.3546  1.7750
  652MOL0     H86007   3.271   7.669   6.883 -0.8810 -4.4055  1.2757
  652MOL0     H86008   3.283   7.829   6.938  2.1306 -0.8422 -1.0829
  652MOL0     H86009   3.479   7.715   6.999  1.4755  1.3631  1.3468
  652MOL0     H86010   3.391   7.585   7.080 -3.8880 -0.9583 -0.1588
  652MOL0     H86011   3.501   7.739   7.233  0.5920  1.6515  0.6616
  652MOL0     H86012   3.328   7.747   7.264  0.5484 -1.6378 -1.5528
  652MOL0     H86013   3.501   7.938   7.086  2.0785  2.2898  2.0100
  652MOL0     H86014   3.326   7.961   7.108  0.4285  2.0737  1.5828
  652MOL0     H86015   3.460   8.117   7.254 -0.9905  0.8863  3.3883
  652MOL0     H86016   3.504   7.979   7.357 -2.1381 -5.0123  1.4898
  652MOL0     H86017   3.358   7.982   7.560  0.7819 -0.3784 -1.2332
  652MOL0     H86018   3.017   8.137   7.657 -3.5320 -2.4468 -2.3031
  652MOL0     H86019   3.179   8.081   7.723 -1.2742 -1.6553 -0.2815
  652MOL0     H86020   2.956   7.931   7.779  0.4374  1.7632  0.2569
  652MOL0     H86021   3.106   7.852   7.710  0.9124  0.9965 -3.3494
  652MOL0     H86022   2.871   7.951   7.550 -1.6745  0.2210  0.3564
  652MOL0     H86023   3.019   7.849   7.502 -0.7201  0.5844  0.7440
  652MOL0     H86024   2.921   7.664   7.623  1.5417 -0.0308  1.4210
  652MOL0     H86025   2.780   7.735   7.533  1.6994  1.8256  0.2807
  652MOL0     H86026   2.584   7.699   7.575 -2.7494  1.8026  0.7757
  652MOL0     H86027   2.403   7.555   7.667  0.8630  0.1393 -0.9546
  652MOL0     H86028   2.303   7.122   7.877 -0.0226 -0.0215 -0.4826
  652MOL0     H86029   2.125   7.010   7.984 -3.1546 -0.0350  2.3987
  652MOL0     H86030   1.712   7.218   8.070 -1.1374 -0.0667  0.3304
  652MOL0     H86031   1.831   7.265   8.188 -0.4292  0.0938 -1.1384
  652MOL0     H86032   1.817   7.036   8.298  0.2890 -0.8285  0.4160
  652MOL0     H86033   1.700   6.988   8.168  1.0664 -1.5642  1.0862
  652MOL0     H86034   1.554   7.164   8.236 -1.3049  0.0343  2.4296
  652MOL0     H86035   1.645   7.198   8.384 -1.5418  1.0534  0.0984
  652MOL0     H86036   1.616   6.974   8.450 -0.8700 -3.5867 -1.4462
  652MOL0     H86037   1.465   7.063   8.437 -0.5367 -0.3947  0.1433
  652MOL0     H86038   1.580   6.855   8.241 -1.5242  0.0373 -2.4540
  652MOL0     H86039   1.452   6.962   8.200  0.7947  0.9058  0.9034
  652MOL0     H86040   1.330   6.870   8.414 -0.7068  0.8200 -0.0619
  652MOL0     H86041   1.471   6.761   8.436 -1.9880  0.2951  1.4878
  652MOL0     H86042   1.239   6.705   8.308 -1.0451  2.2505  0.1039
  652MOL0     H86043   1.336   6.755   8.170  3.6199  2.5466  1.6040
  652MOL0     H86044   1.358   6.499   8.236  1.0156  0.3989 -1.1752
  652MOL0     H86045   1.431   6.546   8.382  3.3654 -1.9822 -0.5257
  652MOL0     H86046   1.886   7.376   7.968 -1.5738  0.8008 -3.5247
  652MOL0     H86047   2.096   7.494   7.861  2.1169  0.3307 -0.1306
  652MOL0     H86048   2.627   7.470   8.014  1.5485  0.9829 -0.1142
  652MOL0     H86049   2.804   7.618   7.942 -0.2872  2.5282  0.8480
  652MOL0     H86050   2.675   7.554   7.093  0.6848 -0.7984 -0.1606
  652MOL0     H86051   2.445   7.552   7.168 -2.2438 -0.7741 -2.4629
  652MOL0     H86052   1.903   7.846   7.040 -1.1640  0.6071  0.1150
  652MOL0     H86053   1.690   7.742   7.119 -0.3963  1.6545  0.1079
  652MOL0     H86054   1.713   7.547   7.519 -0.7313  1.3300  1.0334
  652MOL0     H86055   1.658   7.419   7.404 -3.0535 -1.5370  2.9856
  652MOL0     H86056   1.432   7.511   7.395  0.6769  1.3769 -1.5457
  652MOL0     H86057   1.488   7.440   7.552 -0.3131  1.3755  1.7273
  652MOL0     H86058   1.483   7.744   7.506 -2.3315  2.3120  2.4230
  652MOL0     H86059   1.521   7.656   7.655  0.8382  0.7381 -1.2311
  652MOL0     H86060   1.260   7.662   7.501  0.7419 -0.9428 -0.8276
  652MOL0     H86061   1.282   7.578   7.654 -1.1476  0.6163 -0.5771
  652MOL0     H86062   1.300   7.989   7.772  3.1960  0.8689 -2.1725
  652MOL0     H86063   1.900   7.563   7.450 -2.7244 -0.1336  0.5000
  652MOL0     H86064   2.109   7.638   7.347 -1.8089 -1.7623  1.1253
  653MOL0     O86065   2.606   6.944   9.205 -0.1621  0.5161  0.3549
  653MOL0     C86066   2.673   7.039   9.244  0.2761  0.1693 -0.4703
  653MOL0     O86067   2.642   7.118   9.360  0.2759  0.9025  0.7797
  653MOL0     C86068   2.541   7.078   9.445 -0.6016 -0.5576  0.4930
  653MOL0     C86069   2.580   7.042   9.575  0.1474 -0.6776  0.2159
  653MOL0     C86070   2.482   6.994   9.664  0.3901  0.1743  0.8711
  653MOL0     C86071   2.351   6.979   9.628 -0.7188 -0.0166 -0.3852
  653MOL0     O86072   2.277   6.905   9.719  0.5277 -0.1848 -0.2757
  653MOL0     C86073   2.156   6.840   9.669 -0.8785  0.0019  0.5282
  653MOL0     C86074   2.059   6.952   9.676  0.2049  1.2541 -0.6471
  653MOL0     C86075   1.957   6.914   9.563 -0.2357 -0.4316  0.3992
  653MOL0     C86076   1.861   6.796   9.595 -0.1938 -0.5077 -0.1440
  653MOL0     C86077   1.733   6.862   9.661  0.5098  0.4060 -0.1778
  653MOL0     C86078   1.608   6.867   9.580 -0.1513  0.1676  0.5192
  653MOL0     C86079   1.483   6.931   9.651 -0.1383  0.0028 -0.3005
  653MOL0     C86080   1.377   6.835   9.708  1.1195 -0.0393  0.4709
  653MOL0     N86081   1.256   6.908   9.763  0.2716  0.0349  0.1000
  653MOL0     C86082   1.122   6.894   9.724 -0.5252 -0.5585  0.4844
  653MOL0     C86083   1.055   6.961   9.820 -0.6809 -0.0481  0.8470
  653MOL0     C86084   0.907   6.963   9.814  0.5609  0.1987 -0.2349
  653MOL0     C86085   0.834   7.068   9.901  0.3049 -0.8158  0.3566
  653MOL0     C86086   0.680   7.074   9.876  0.6058  0.5568 -0.3605
  653MOL0     C86087   0.617   6.941   9.922 -0.0974  0.0670  0.6110
  653MOL0     O86088   0.478   6.962   9.947  0.0791  0.2025 -0.6833
  653MOL0     C86089   0.386   6.925   9.849  0.1876 -0.1173 -0.3131
  653MOL0     C86090   0.401   6.972   9.715 -1.2338  0.4900  1.1621
  653MOL0     C86091   0.303   6.953   9.617 -0.4455 -0.3927  0.1699
  653MOL0     C86092   0.199   6.858   9.642 -1.2886 -0.0429 -0.6257
  653MOL0     C86093   0.118   6.810   9.530  0.1454  0.0802  0.2634
  653MOL0     O86094   0.100   6.881   9.419 -0.1579 -0.5023 -0.1917
  653MOL0     C86095   0.018   6.838   9.326  0.1101 -0.0357 -0.2514
  653MOL0     C86096   0.056   6.737   9.232 -0.0313  0.2831  0.1626
  653MOL0     C86097  -0.044   6.682   9.141  0.1682 -0.1553 -0.0454
  653MOL0     C86098  -0.178   6.703   9.159  0.2633 -0.3694  1.1372
  653MOL0     O86099  -0.279   6.652   9.082  0.4885  0.5000  0.1341
  653MOL0     C86100  -0.350   6.536   9.126  0.8214  0.4846 -0.6839
  653MOL0     C86101  -0.493   6.580   9.192  0.1068  0.1946 -0.5779
  653MOL0     C86102  -0.562   6.693   9.113 -0.3278  0.1831 -0.3853
  653MOL0     C86103  -0.700   6.746   9.170  0.4305  1.0365 -0.0524
  653MOL0     C86104  -0.761   6.847   9.074 -0.2316 -0.7800  0.3640
  653MOL0     C86105  -0.893   6.908   9.113 -0.8950  0.9188 -0.4626
  653MOL0     C86106  -0.959   6.970   8.986 -0.2553  0.3392  0.4038
  653MOL0     C86107  -1.105   7.015   8.984 -0.0182  0.3119  0.5109
  653MOL0    Cl86108  -1.195   6.864   9.027  0.1959  0.0740 -0.3799
  653MOL0     C86109  -0.217   6.805   9.250  0.0025 -0.4087  0.5447
  653MOL0     C86110  -0.120   6.877   9.330 -0.1819  0.0609  0.3553
  653MOL0     O86111   0.078   6.697   9.550  0.3623 -0.2883 -1.1338
  653MOL0     C86112   0.190   6.800   9.770 -0.2170  0.0332  0.1162
  653MOL0     C86113   0.271   6.846   9.870 -0.1488  0.8718 -0.2788
  653MOL0     N86114   1.141   7.004   9.915  0.3082 -0.3354 -0.1616
  653MOL0     N86115   1.265   6.973   9.884  0.0663 -0.0641 -0.7987
  653MOL0     C86116   2.315   7.013   9.500 -0.5288 -0.1737 -0.5205
  653MOL0     C86117   2.408   7.072   9.411  0.1483 -0.5205  0.1676
  653MOL0     C86118   2.804   7.062   9.188  0.0452  0.4801 -0.2485
  653MOL0     C86119   2.847   7.014   9.065 -0.1476  1.1583 -0.6132
  653MOL0     C86120   2.983   7.016   9.029  0.4701  0.5648  0.5628
  653MOL0     C86121   3.074   7.067   9.113  0.7781 -0.1865 -0.4680
  653MOL0     O86122   3.204   7.052   9.066  0.5689  0.4654  0.2089
  653MOL0     C86123   3.310   7.061   9.157 -0.1330  1.3056  0.4249
  653MOL0     C86124   3.362   7.206   9.155  0.3316 -0.2683  0.0170
  653MOL0     C86125   3.512   7.221   9.171 -0.5805 -0.1700  0.1761
  653MOL0     C86126   3.607   7.175   9.050 -0.1351 -1.4404 -0.8220
  653MOL0     C86127   3.619   7.277   8.942 -0.3807 -0.4308  1.0406
  653MOL0     C86128   3.607   7.381   8.880  0.3311 -1.1374 -0.2025
  653MOL0     C86129   3.036   7.117   9.240  0.3342  0.2631 -0.4345
  653MOL0     C86130   2.896   7.121   9.272 -0.1172 -0.4866 -0.2452
  653MOL0     H86131   2.682   7.063   9.606  0.4581  1.7608 -2.0570
  653MOL0     H86132   2.517   6.957   9.760 -0.3846 -0.0484  1.0773
  653MOL0     H86133   2.121   6.764   9.739 -2.1121  1.6032  1.7220
  653MOL0     H86134   2.156   6.802   9.567  0.1219 -1.7125  1.1324
  653MOL0     H86135   2.101   7.051   9.656  1.4079  0.8233 -0.2966
  653MOL0     H86136   2.011   6.954   9.774  0.8621 -0.9274 -0.2155
  653MOL0     H86137   2.008   6.893   9.469  2.7201  0.2225  1.7622
  653MOL0     H86138   1.891   6.999   9.543 -2.1402 -2.4189 -2.8359
  653MOL0     H86139   1.844   6.730   9.509  0.0622 -1.0989  0.2510
  653MOL0     H86140   1.905   6.734   9.674  1.0808  1.5761  0.8587
  653MOL0     H86141   1.758   6.962   9.697  0.7075  0.6254 -0.8913
  653MOL0     H86142   1.716   6.805   9.752 -2.5899  2.5848  0.7745
  653MOL0     H86143   1.590   6.768   9.537 -1.1354  0.9366 -0.8893
  653MOL0     H86144   1.634   6.929   9.494 -0.7342 -2.1411 -1.4415
  653MOL0     H86145   1.511   7.006   9.726 -3.8823  1.5668 -0.2380
  653MOL0     H86146   1.436   6.984   9.567 -0.4973  1.2110  0.6393
  653MOL0     H86147   1.419   6.770   9.784  1.1359  0.4843  0.9129
  653MOL0     H86148   1.333   6.766   9.634  1.9752 -2.6808  2.2865
  653MOL0     H86149   1.078   6.835   9.645 -0.3583 -0.5103  0.3557
  653MOL0     H86150   0.874   6.862   9.839  1.0535 -0.1347 -0.8926
  653MOL0     H86151   0.865   6.985   9.715 -2.5041 -3.8400 -0.1012
  653MOL0     H86152   0.873   7.169   9.885  1.4838 -1.2707  0.2721
  653MOL0     H86153   0.867   7.046  10.003  2.1432 -4.6172 -0.8682
  653MOL0     H86154   0.633   7.147   9.942  0.4332  0.5293 -0.4493
  653MOL0     H86155   0.665   7.100   9.770  1.2346 -0.2141 -0.6468
  653MOL0     H86156   0.654   6.916  10.022 -0.3206 -0.1222  0.6471
  653MOL0     H86157   0.624   6.853   9.857 -2.9079 -0.5024  0.9427
  653MOL0     H86158   0.495   7.017   9.686  0.0559 -2.1257  0.9596
  653MOL0     H86159   0.308   6.987   9.514 -0.1390 -0.7858  0.0506
  653MOL0     H86160   0.157   6.698   9.218 -1.2697 -3.4723  0.5267
  653MOL0     H86161  -0.026   6.601   9.072 -0.3759 -0.6933  0.4362
  653MOL0     H86162  -0.293   6.481   9.202  1.6068  0.0415 -1.5671
  653MOL0     H86163  -0.370   6.464   9.046 -0.7995  0.9265 -0.7062
  653MOL0     H86164  -0.467   6.618   9.291  2.3723 -2.5142 -0.0075
  653MOL0     H86165  -0.557   6.492   9.204 -0.2622  0.7294  1.9206
  653MOL0     H86166  -0.554   6.654   9.011  0.2464 -0.2497 -0.1810
  653MOL0     H86167  -0.492   6.777   9.117  0.7927 -0.7735  1.4345
  653MOL0     H86168  -0.770   6.664   9.190  1.1514  1.1731  3.7792
  653MOL0     H86169  -0.671   6.793   9.264  1.3081  1.0975 -0.3439
  653MOL0     H86170  -0.781   6.799   8.978 -1.6953 -1.4565  0.9835
  653MOL0     H86171  -0.682   6.922   9.063 -1.2288  0.0935 -1.3551
  653MOL0     H86172  -0.885   6.975   9.199 -0.6507 -0.9965  1.0851
  653MOL0     H86173  -0.955   6.826   9.151 -0.6597  1.4246  1.0763
  653MOL0     H86174  -0.887   7.041   8.943 -0.0364 -0.9158 -1.4185
  653MOL0     H86175  -0.964   6.888   8.914 -0.6047  0.5469  0.1854
  653MOL0     H86176  -1.130   7.057   8.886 -3.6621 -2.7410 -0.1014
  653MOL0     H86177  -1.128   7.092   9.058 -3.1021 -1.1515  1.2394
  653MOL0     H86178  -0.319   6.842   9.255 -0.5875 -2.1393  2.6208
  653MOL0     H86179  -0.161   6.961   9.386 -0.6239 -1.2624  2.1191
  653MOL0     H86180   0.119   6.721   9.794  1.8851 -2.3493 -0.9671
  653MOL0     H86181   0.263   6.798   9.967  2.5032  0.8906  0.0259
  653MOL0     H86182   2.215   6.993   9.464 -1.0536 -0.6958  1.1865
  653MOL0     H86183   2.374   7.103   9.313 -0.2752  0.0955  0.5015
  653MOL0     H86184   2.776   6.968   8.997  0.9617 -1.4699 -0.1053
  653MOL0     H86185   3.010   6.975   8.932 -3.3985  0.0734 -0.4696
  653MOL0     H86186   3.378   6.985   9.116 -2.6948  0.1328 -1.9301
  653MOL0     H86187   3.274   7.029   9.255  0.6209  0.7009  0.5248
  653MOL0     H86188   3.346   7.247   9.055  2.0373  1.8261  0.5178
  653MOL0     H86189   3.311   7.272   9.226  0.5188 -1.3910  1.2213
  653MOL0     H86190   3.533   7.178   9.269  1.8305  2.4239  0.9125
  653MOL0     H86191   3.530   7.327   9.191 -2.0359 -0.1350  1.5082
  653MOL0     H86192   3.703   7.151   9.097 -0.2039 -3.5863 -1.6257
  653MOL0     H86193   3.559   7.087   9.006 -3.9843 -0.8642  1.7538
  653MOL0     H86194   3.601   7.478   8.835 -1.3951 -0.1029  2.0859
  653MOL0     H86195   3.100   7.173   9.308  0.0797 -0.3616  0.3312
  653MOL0     H86196   2.869   7.152   9.372  1.2413 -2.6776  0.8861
  654MOL0     O86197   7.463   4.165   9.305  0.4944 -0.1579 -0.8444
  654MOL0     C86198   7.462   4.051   9.358  0.0160  0.1359 -0.6570
  654MOL0     O86199   7.356   3.960   9.355 -0.4525 -0.9705 -0.3729
  654MOL0     C86200   7.253   3.962   9.256 -1.1614 -0.5383 -0.1756
  654MOL0     C86201   7.144   4.044   9.276 -0.2074 -0.6040 -0.1846
  654MOL0     C86202   7.028   4.034   9.193  0.5204  0.3468 -0.2264
  654MOL0     C86203   7.035   3.939   9.081  0.4740  0.6649 -0.4696
  654MOL0     O86204   6.940   3.910   8.994 -0.8052 -0.3323 -0.1730
  654MOL0     C86205   6.832   3.998   9.000 -1.3024 -0.8354 -1.1252
  654MOL0     C86206   6.717   3.934   8.927 -0.5406 -0.9918 -0.7904
  654MOL0     C86207   6.674   3.800   8.987 -0.2259 -0.6777  0.0675
  654MOL0     C86208   6.530   3.766   8.944  0.1328 -0.4693 -0.2775
  654MOL0     C86209   6.518   3.612   8.947 -0.8960  0.7378 -0.1661
  654MOL0     C86210   6.373   3.570   8.905  0.6141  0.4511 -0.3102
  654MOL0     C86211   6.350   3.417   8.898  0.2447 -0.9726 -0.9614
  654MOL0     C86212   6.226   3.369   8.842 -0.3637 -0.0807  0.4146
  654MOL0     N86213   6.110   3.413   8.921 -1.0089 -0.0929  0.6405
  654MOL0     C86214   6.096   3.406   9.056 -0.5471 -0.5106 -0.1682
  654MOL0     C86215   5.968   3.437   9.085  1.3330 -0.3471 -0.3743
  654MOL0     C86216   5.902   3.425   9.217 -0.3655  0.0161  0.5258
  654MOL0     C86217   5.760   3.355   9.220  0.5678  0.9214 -0.7208
  654MOL0     C86218   5.733   3.280   9.354 -0.5066  0.0438 -0.2930
  654MOL0     C86219   5.701   3.377   9.473  0.8310 -0.3932 -0.3807
  654MOL0     O86220   5.593   3.473   9.437 -0.0089 -0.3643  0.2128
  654MOL0     C86221   5.457   3.444   9.416 -0.3854 -0.0100  0.4665
  654MOL0     C86222   5.406   3.314   9.419  0.3727  0.0716 -1.1790
  654MOL0     C86223   5.280   3.305   9.391  0.6295  0.2461 -0.0614
  654MOL0     C86224   5.189   3.406   9.379  0.7119  0.9080  0.4262
  654MOL0     C86225   5.044   3.385   9.361 -0.0634 -0.1564 -0.4053
  654MOL0     O86226   4.961   3.486   9.337  0.4058 -0.3816  0.6251
  654MOL0     C86227   4.829   3.465   9.298 -0.3551 -0.2742  0.5751
  654MOL0     C86228   4.742   3.354   9.317  0.0954  0.2417  0.1385
  654MOL0     C86229   4.621   3.354   9.241 -0.4259  0.2754 -1.3169
  654MOL0     C86230   4.584   3.461   9.161 -0.1373  0.3027  0.0516
  654MOL0     O86231   4.470   3.472   9.093  0.2337  0.7619 -1.2579
  654MOL0     C86232   4.371   3.366   9.110 -0.5063  0.0711 -0.2878
  654MOL0     C86233   4.289   3.376   9.244  0.4898 -0.6211 -0.2301
  654MOL0     C86234   4.225   3.522   9.267 -0.4318  0.7799  0.9939
  654MOL0     C86235   4.208   3.554   9.413  0.5178  0.2336  0.8593
  654MOL0     C86236   4.107   3.461   9.475  0.3501  0.9879  0.2536
  654MOL0     C86237   4.090   3.492   9.623 -0.7880 -0.1697  0.2158
  654MOL0     C86238   4.205   3.434   9.712  0.8321 -0.0165  0.3664
  654MOL0     C86239   4.144   3.388   9.848 -0.5984  0.8324 -0.0195
  654MOL0    Cl86240   4.268   3.371   9.972  0.0825  0.0956 -0.1595
  654MOL0     C86241   4.661   3.576   9.156 -0.5765  0.3410  0.1852
  654MOL0     C86242   4.787   3.573   9.221 -0.4856  0.5048 -0.0793
  654MOL0     O86243   5.018   3.268   9.343 -0.0314 -0.1361  0.1103
  654MOL0     C86244   5.236   3.542   9.382 -0.7151  0.3721 -0.6912
  654MOL0     C86245   5.373   3.554   9.386  0.0768 -0.6238 -0.5486
  654MOL0     N86246   5.905   3.480   8.970 -0.5249  0.0214  0.0118
  654MOL0     N86247   5.989   3.450   8.874  0.6724  0.3632 -0.4653
  654MOL0     C86248   7.160   3.864   9.055  0.4348  0.3589  0.3348
  654MOL0     C86249   7.271   3.868   9.146 -1.0397  0.0671 -0.6374
  654MOL0     C86250   7.576   4.001   9.429  0.5017 -0.2478 -0.2131
  654MOL0     C86251   7.577   3.874   9.498  0.5282 -0.2369 -0.0608
  654MOL0     C86252   7.684   3.841   9.577 -0.1661 -0.0854  0.0716
  654MOL0     C86253   7.795   3.916   9.583  0.6395 -1.2078 -0.0755
  654MOL0     O86254   7.891   3.876   9.671 -0.3207 -0.0892 -0.0633
  654MOL0     C86255   7.945   3.969   9.758  0.0960 -0.5936 -0.1664
  654MOL0     C86256   7.973   3.919   9.902 -0.4202 -1.1600  1.0556
  654MOL0     C86257   7.836   3.894   9.978 -1.1348  0.0470 -0.3216
  654MOL0     C86258   7.867   3.867  10.131 -0.7519  0.2202  0.1364
  654MOL0     C86259   7.931   3.736  10.150 -0.0794  0.7233 -0.0139
  654MOL0     C86260   7.965   3.618  10.155 -0.0948 -0.1454 -0.2135
  654MOL0     C86261   7.807   4.034   9.504  0.2899 -0.2126 -0.2424
  654MOL0     C86262   7.695   4.069   9.424 -0.5913 -0.0126  0.1809
  654MOL0     H86263   7.138   4.121   9.352 -0.3170  0.5286 -1.3007
  654MOL0     H86264   6.941   4.096   9.212 -0.6583 -0.0758 -3.4552
  654MOL0     H86265   6.863   4.088   8.945  0.3632 -0.6354  0.0770
  654MOL0     H86266   6.794   4.032   9.097 -0.0397 -0.2110 -0.8282
  654MOL0     H86267   6.739   3.913   8.822 -1.7177 -2.1811 -0.8215
  654MOL0     H86268   6.639   4.011   8.935  1.4464  1.0054  0.6179
  654MOL0     H86269   6.675   3.808   9.097 -2.5495 -0.8335  0.1538
  654MOL0     H86270   6.749   3.723   8.965 -0.2478 -1.0377  1.1612
  654MOL0     H86271   6.458   3.803   9.017 -1.6333  0.1101 -2.2374
  654MOL0     H86272   6.503   3.807   8.846 -1.3023  2.2122  1.1137
  654MOL0     H86273   6.550   3.567   9.042  2.1432  0.9553 -1.0057
  654MOL0     H86274   6.599   3.581   8.881 -1.7297 -0.9611 -0.4557
  654MOL0     H86275   6.349   3.614   8.808 -2.0707 -2.4391 -1.1096
  654MOL0     H86276   6.307   3.614   8.981  1.7588 -1.0284  1.6579
  654MOL0     H86277   6.429   3.370   8.837  0.8646 -1.0561 -0.1140
  654MOL0     H86278   6.347   3.382   9.002  0.8279 -0.4442 -0.7599
  654MOL0     H86279   6.245   3.262   8.843  1.4293  0.2078  0.6516
  654MOL0     H86280   6.206   3.398   8.738 -3.0107 -1.4745  0.4613
  654MOL0     H86281   6.165   3.359   9.125  0.7517 -1.9827 -2.3188
  654MOL0     H86282   5.907   3.517   9.277  0.1818 -1.3136  2.6132
  654MOL0     H86283   5.953   3.343   9.267  0.5583 -2.1467 -3.5569
  654MOL0     H86284   5.758   3.280   9.140  1.8547  0.7704 -0.6306
  654MOL0     H86285   5.688   3.435   9.201 -0.9363 -0.3509 -0.5560
  654MOL0     H86286   5.639   3.231   9.328 -1.6565  2.6417 -1.3604
  654MOL0     H86287   5.814   3.210   9.375 -0.1343  0.4350 -0.4077
  654MOL0     H86288   5.789   3.429   9.509 -0.5068  0.2596  2.1648
  654MOL0     H86289   5.671   3.316   9.558  0.9123  1.1713  0.8064
  654MOL0     H86290   5.459   3.220   9.429 -0.3519 -0.1827  0.6089
  654MOL0     H86291   5.242   3.205   9.408  0.2528  0.5840  1.2552
  654MOL0     H86292   4.760   3.276   9.391  3.2221  1.1978  0.4988
  654MOL0     H86293   4.551   3.276   9.267 -0.8175  1.8281  3.2283
  654MOL0     H86294   4.407   3.264   9.093 -1.5337 -0.8626  2.5877
  654MOL0     H86295   4.296   3.386   9.033 -1.0250 -0.6327  0.0222
  654MOL0     H86296   4.360   3.348   9.323  1.9544  0.5757 -1.0717
  654MOL0     H86297   4.208   3.304   9.249 -2.2617  1.9715 -3.0357
  654MOL0     H86298   4.133   3.547   9.213  0.4995  2.7774  0.2503
  654MOL0     H86299   4.297   3.598   9.236 -0.0919 -0.0145 -0.2188
  654MOL0     H86300   4.297   3.542   9.476  0.2648 -2.6077  0.7834
  654MOL0     H86301   4.180   3.660   9.418 -0.6550 -0.0603  0.8263
  654MOL0     H86302   4.137   3.356   9.467 -0.2603  0.8654 -0.5872
  654MOL0     H86303   4.004   3.464   9.440  0.0725 -2.0973  0.5203
  654MOL0     H86304   3.998   3.439   9.648 -1.5657  1.9227  2.1287
  654MOL0     H86305   4.096   3.599   9.640  2.8383  0.1991 -2.3230
  654MOL0     H86306   4.263   3.361   9.656  1.3780  2.8876 -3.2503
  654MOL0     H86307   4.274   3.517   9.728  2.2235 -0.8517 -1.0175
  654MOL0     H86308   4.081   3.302   9.823 -1.1010  1.8078 -2.3302
  654MOL0     H86309   4.072   3.466   9.876 -1.5462 -0.3677  1.0390
  654MOL0     H86310   4.613   3.667   9.121 -0.4149  0.5712  0.5534
  654MOL0     H86311   4.848   3.663   9.227  0.2634  0.3891 -3.7979
  654MOL0     H86312   5.180   3.633   9.361 -0.0540  0.8881 -0.2595
  654MOL0     H86313   5.418   3.653   9.380 -1.7789  0.3161  0.0579
  654MOL0     H86314   7.160   3.804   8.964 -1.9114 -0.5435  0.8569
  654MOL0     H86315   7.364   3.812   9.138 -1.4908 -1.4593  3.0615
  654MOL0     H86316   7.484   3.819   9.510 -0.3589  0.7110 -2.0678
  654MOL0     H86317   7.672   3.760   9.648 -0.7886 -1.1746 -1.2387
  654MOL0     H86318   7.872   4.050   9.757 -1.1495 -1.6857 -0.9368
  654MOL0     H86319   8.036   4.015   9.718  0.3062 -1.7553 -1.0721
  654MOL0     H86320   8.034   3.829   9.889  1.0045 -0.0175 -0.5292
  654MOL0     H86321   8.037   3.994   9.949 -0.7708  1.1411 -1.8420
  654MOL0     H86322   7.780   3.806   9.943  0.0199 -2.4588  3.3799
  654MOL0     H86323   7.767   3.975   9.956 -2.1892 -1.2638 -2.1220
  654MOL0     H86324   7.930   3.948  10.168 -2.0081 -0.0433  3.1213
  654MOL0     H86325   7.773   3.873  10.186  0.0396 -1.6989  1.8781
  654MOL0     H86326   7.983   3.513  10.149 -0.2247 -0.1325 -0.9033
  654MOL0     H86327   7.896   4.096   9.499  0.2581 -0.2417 -1.4487
  654MOL0     H86328   7.698   4.165   9.374 -1.0372 -0.3506 -0.5075
  655MOL0     O86329   6.729   7.726   0.904 -0.4865  0.5138  0.3578
  655MOL0     C86330   6.759   7.612   0.944 -0.0999  0.0101  0.0199
  655MOL0     O86331   6.668   7.512   0.968 -0.4976 -0.2062 -0.2543
  655MOL0     C86332   6.538   7.525   0.932  0.2414  1.2616 -0.5324
  655MOL0     C86333   6.497   7.573   0.808  0.1720  0.5260 -0.2719
  655MOL0     C86334   6.363   7.578   0.771  1.3345  0.0608  0.5430
  655MOL0     C86335   6.264   7.539   0.860  0.0605  0.4722 -0.0172
  655MOL0     O86336   6.128   7.549   0.842  0.2352  0.2851 -0.5293
  655MOL0     C86337   6.078   7.627   0.734 -0.7411  0.3702  0.0425
  655MOL0     C86338   5.943   7.676   0.771  0.0660 -0.6045  0.2016
  655MOL0     C86339   5.904   7.809   0.695 -0.2501 -0.6557 -0.3343
  655MOL0     C86340   5.750   7.839   0.695 -0.3895 -0.0274  0.7853
  655MOL0     C86341   5.707   7.967   0.635  0.4450  0.1769  0.2370
  655MOL0     C86342   5.754   7.981   0.486  0.4593  0.2199  0.2774
  655MOL0     C86343   5.688   8.101   0.414 -0.2671  0.7613  0.4857
  655MOL0     C86344   5.544   8.108   0.435  0.3722  0.2622 -1.0912
  655MOL0     N86345   5.498   8.197   0.550 -0.8375 -0.4757 -0.6042
  655MOL0     C86346   5.481   8.333   0.538  0.4846 -0.3008  0.2467
  655MOL0     C86347   5.406   8.369   0.643  0.7939 -0.3460 -0.2371
  655MOL0     C86348   5.375   8.513   0.669 -0.6266  0.1029 -0.3832
  655MOL0     C86349   5.248   8.557   0.588 -0.8894  0.2946 -0.9088
  655MOL0     C86350   5.204   8.699   0.631  0.2422  1.4510 -0.1316
  655MOL0     C86351   5.066   8.731   0.557 -0.0711  0.2545  0.9337
  655MOL0     O86352   4.951   8.701   0.634 -0.8041  0.1194 -0.2856
  655MOL0     C86353   4.831   8.744   0.586 -0.3381 -1.3335  0.1589
  655MOL0     C86354   4.730   8.720   0.669  0.9653  1.7336 -0.2163
  655MOL0     C86355   4.594   8.759   0.644 -0.3136  1.0487  0.3948
  655MOL0     C86356   4.562   8.826   0.522 -0.2353  0.8165  0.6174
  655MOL0     C86357   4.426   8.855   0.482  0.8020 -1.2489  0.3669
  655MOL0     O86358   4.331   8.796   0.562 -0.3976 -0.1441  0.4827
  655MOL0     C86359   4.204   8.815   0.524  0.8579  0.5469  0.9465
  655MOL0     C86360   4.137   8.800   0.395 -0.4190  0.0599 -0.4937
  655MOL0     C86361   4.003   8.831   0.392 -0.3359 -0.1626  0.3085
  655MOL0     C86362   3.925   8.877   0.494  0.5854  0.7622  0.2993
  655MOL0     O86363   3.793   8.925   0.461  0.6417  0.0621 -0.0140
  655MOL0     C86364   3.705   8.972   0.564 -0.0203 -0.6422  0.5425
  655MOL0     C86365   3.565   9.003   0.507 -0.1061 -0.3981 -0.3451
  655MOL0     C86366   3.451   8.961   0.596 -0.4783  0.2961  0.6055
  655MOL0     C86367   3.320   9.022   0.571  0.0369  0.5525  0.0403
  655MOL0     C86368   3.205   8.935   0.622  1.1498  0.1776  0.0175
  655MOL0     C86369   3.070   9.004   0.615 -0.9905  0.8677  0.3452
  655MOL0     C86370   2.954   8.906   0.644  0.6175 -0.0615  0.5391
  655MOL0     C86371   2.818   8.964   0.685  0.2349  0.4852  0.4039
  655MOL0    Cl86372   2.690   8.827   0.676 -0.5635  0.0181  0.4910
  655MOL0     C86373   3.981   8.870   0.619 -0.6710  0.0503 -0.6750
  655MOL0     C86374   4.120   8.856   0.637 -0.1174  0.9058  0.1845
  655MOL0     O86375   4.399   8.903   0.374  1.3087  0.3996 -0.1930
  655MOL0     C86376   4.674   8.855   0.436 -0.4232 -0.9687  0.0596
  655MOL0     C86377   4.807   8.816   0.466 -0.6384  0.5594  0.3999
  655MOL0     N86378   5.360   8.254   0.707  0.0262  1.5329  0.1350
  655MOL0     N86379   5.423   8.149   0.654 -0.5800 -0.0460 -0.0164
  655MOL0     C86380   6.305   7.484   0.989 -0.2955 -0.9148  0.2295
  655MOL0     C86381   6.444   7.485   1.028 -0.5556  0.6505 -0.0629
  655MOL0     C86382   6.900   7.583   0.960 -1.4259  0.4255  0.1045
  655MOL0     C86383   6.994   7.685   0.936 -0.3972  1.0615 -0.3987
  655MOL0     C86384   7.126   7.660   0.962  0.0804  0.0123 -0.5391
  655MOL0     C86385   7.179   7.539   1.000  0.5076  0.2064 -1.4623
  655MOL0     O86386   7.306   7.510   1.043  0.3964 -0.2352 -0.6939
  655MOL0     C86387   7.404   7.613   1.051 -0.0478 -0.2502 -0.6902
  655MOL0     C86388   7.375   7.694   1.180  0.0274 -0.3082 -0.5765
  655MOL0     C86389   7.504   7.785   1.212  0.2930  0.1589 -0.0199
  655MOL0     C86390   7.467   7.877   1.335  0.1650  0.6442  1.1161
  655MOL0     C86391   7.570   7.978   1.372  0.3638 -0.5910  0.5387
  655MOL0     C86392   7.659   8.054   1.396 -0.1358 -0.5769 -0.3212
  655MOL0     C86393   7.087   7.428   1.010  0.0123  0.2105 -0.2107
  655MOL0     C86394   6.948   7.454   0.995  0.6979  0.0236  0.2663
  655MOL0     H86395   6.563   7.603   0.727  0.5065  1.2205  0.2385
  655MOL0     H86396   6.326   7.615   0.676 -1.4947 -1.4003  0.9919
  655MOL0     H86397   6.093   7.566   0.644  1.4350 -0.4994  0.9158
  655MOL0     H86398   6.131   7.721   0.721 -2.2623  1.2047 -0.3591
  655MOL0     H86399   5.946   7.699   0.878 -1.0949 -0.6846  0.2640
  655MOL0     H86400   5.869   7.598   0.753  1.1810 -1.3974 -1.1710
  655MOL0     H86401   5.922   7.800   0.587  0.7137  2.0831 -0.4874
  655MOL0     H86402   5.961   7.893   0.735  1.0897 -1.9582  0.6327
  655MOL0     H86403   5.694   7.758   0.646  1.9259  0.6940 -3.5580
  655MOL0     H86404   5.718   7.849   0.799  1.2727 -1.8125  1.5216
  655MOL0     H86405   5.745   8.046   0.700 -0.0533 -0.2146  1.0161
  655MOL0     H86406   5.600   7.965   0.660  0.9024 -0.2706  2.2812
  655MOL0     H86407   5.738   7.883   0.439 -1.0790  0.4421  0.3000
  655MOL0     H86408   5.861   8.003   0.489  0.5774 -0.0256 -1.2917
  655MOL0     H86409   5.728   8.201   0.434  0.9031  0.0640  1.8680
  655MOL0     H86410   5.699   8.075   0.309  0.3862 -0.5972  0.8681
  655MOL0     H86411   5.508   8.005   0.439 -0.7202  0.6597  1.0639
  655MOL0     H86412   5.494   8.145   0.345 -0.9637 -2.1954 -1.4364
  655MOL0     H86413   5.523   8.410   0.474 -1.3091  0.5700  0.0580
  655MOL0     H86414   5.460   8.575   0.642 -1.5404  0.9456 -1.4253
  655MOL0     H86415   5.353   8.533   0.775 -2.3306  1.4027 -0.9287
  655MOL0     H86416   5.179   8.474   0.607  0.5652 -1.0360 -1.2341
  655MOL0     H86417   5.273   8.557   0.481  0.3606 -4.1003 -0.7988
  655MOL0     H86418   5.195   8.700   0.740 -3.3010 -0.3752 -0.2684
  655MOL0     H86419   5.277   8.767   0.588  3.1049 -1.2566  0.0532
  655MOL0     H86420   5.070   8.695   0.453  1.7379 -0.7854  1.3002
  655MOL0     H86421   5.065   8.839   0.543 -2.8274  0.0603 -1.4138
  655MOL0     H86422   4.756   8.659   0.755  0.5245 -0.4734 -1.5639
  655MOL0     H86423   4.512   8.719   0.704  1.2140 -0.0105  1.8681
  655MOL0     H86424   4.205   8.766   0.318  1.2934  0.5700  0.7365
  655MOL0     H86425   3.961   8.831   0.291 -1.9876  0.1798  0.9664
  655MOL0     H86426   3.756   9.062   0.600  0.2645 -0.3434 -0.5695
  655MOL0     H86427   3.691   8.889   0.634  2.6687 -2.0221 -0.4435
  655MOL0     H86428   3.548   8.961   0.407 -2.5235 -1.3168  0.4031
  655MOL0     H86429   3.562   9.111   0.487 -1.2284 -0.5077 -0.8082
  655MOL0     H86430   3.467   8.981   0.702 -0.3123 -3.1223  1.3469
  655MOL0     H86431   3.442   8.853   0.578 -2.7703 -0.2086  3.9779
  655MOL0     H86432   3.317   9.118   0.622 -1.1645 -0.9856  3.1021
  655MOL0     H86433   3.314   9.029   0.462 -0.8516 -0.4669  0.0042
  655MOL0     H86434   3.233   8.917   0.726  3.4283  2.0951 -0.1831
  655MOL0     H86435   3.205   8.844   0.562 -0.7432 -1.2469  1.9695
  655MOL0     H86436   3.062   9.049   0.515  3.0103  0.4295 -0.3307
  655MOL0     H86437   3.070   9.087   0.686 -1.0496 -1.8111  3.7152
  655MOL0     H86438   2.966   8.835   0.562  0.1150 -0.9968  1.2509
  655MOL0     H86439   2.975   8.845   0.732 -2.6008 -2.2484 -0.0340
  655MOL0     H86440   2.782   9.045   0.621  2.6377 -0.4930 -2.4082
  655MOL0     H86441   2.814   9.004   0.787 -3.9178  0.4471  0.4133
  655MOL0     H86442   3.920   8.905   0.702  0.5102  1.3790 -0.3471
  655MOL0     H86443   4.167   8.856   0.735 -0.6619  0.3167  0.4552
  655MOL0     H86444   4.664   8.898   0.337 -0.7066  0.7108  0.7777
  655MOL0     H86445   4.894   8.816   0.401 -1.0147 -2.0408 -0.2261
  655MOL0     H86446   6.227   7.452   1.058  0.0047 -1.3531  0.3729
  655MOL0     H86447   6.473   7.446   1.125 -0.6090 -1.9830 -1.0354
  655MOL0     H86448   6.962   7.789   0.941 -0.5621  0.9418  2.4245
  655MOL0     H86449   7.190   7.747   0.954 -2.3775  1.7907 -2.7884
  655MOL0     H86450   7.411   7.677   0.963 -0.6549  1.4012  0.4264
  655MOL0     H86451   7.504   7.569   1.050  0.0132 -0.1773 -3.1286
  655MOL0     H86452   7.293   7.766   1.191 -0.7881 -1.4583  1.5598
  655MOL0     H86453   7.368   7.618   1.258 -2.3170 -0.5010 -0.9060
  655MOL0     H86454   7.550   7.836   1.127  0.9689 -0.5043 -0.0599
  655MOL0     H86455   7.587   7.720   1.238  1.0075 -0.4696 -3.3381
  655MOL0     H86456   7.374   7.929   1.309 -0.7822 -0.4870  2.1550
  655MOL0     H86457   7.449   7.808   1.417  1.4786 -2.2698 -0.8501
  655MOL0     H86458   7.743   8.115   1.420 -0.4771  0.5490 -1.8809
  655MOL0     H86459   7.116   7.326   1.032 -2.3616 -1.5681 -4.1921
  655MOL0     H86460   6.869   7.381   1.001  0.2049  0.5263  0.0085
  656MOL0     O86461   7.997   1.467   5.335 -0.5639 -0.3057  0.1462
  656MOL0     C86462   7.965   1.425   5.444  0.1405  0.2645  0.3528
  656MOL0     O86463   8.045   1.429   5.557  0.1092  0.1952  0.0381
  656MOL0     C86464   8.179   1.419   5.540 -0.9115 -0.0208  0.1969
  656MOL0     C86465   8.240   1.315   5.614  0.5482  0.0163 -0.5548
  656MOL0     C86466   8.380   1.291   5.601  0.1149 -0.0321 -0.4004
  656MOL0     C86467   8.465   1.378   5.538 -0.1365  0.3872 -0.2725
  656MOL0     O86468   8.602   1.342   5.552  0.7856 -0.0880  0.2277
  656MOL0     C86469   8.690   1.426   5.477  1.3190  0.1560 -0.7236
  656MOL0     C86470   8.836   1.393   5.513  0.2670  0.2562 -0.4438
  656MOL0     C86471   8.881   1.277   5.438 -0.6180  0.6082  0.3478
  656MOL0     C86472   9.027   1.249   5.475 -0.6822  0.5128 -0.2590
  656MOL0     C86473   9.095   1.186   5.353  0.8483 -0.6204  1.1023
  656MOL0     C86474   9.239   1.143   5.386 -0.0303  0.7879 -0.8044
  656MOL0     C86475   9.302   1.074   5.264 -1.1761 -0.6806  0.3762
  656MOL0     C86476   9.273   0.929   5.252  0.4623 -0.2342 -0.2310
  656MOL0     N86477   9.271   0.847   5.376 -0.0038  0.2705 -0.0080
  656MOL0     C86478   9.367   0.761   5.425 -0.3995  0.9203 -0.7788
  656MOL0     C86479   9.317   0.718   5.538  0.4339  0.3499 -0.3612
  656MOL0     C86480   9.385   0.631   5.634 -0.0186  0.1870  0.3251
  656MOL0     C86481   9.487   0.722   5.703  1.0965 -0.0111  0.6906
  656MOL0     C86482   9.580   0.649   5.799  0.4205  0.1978  0.5880
  656MOL0     C86483   9.499   0.584   5.904  0.3488  0.2220  0.6073
  656MOL0     O86484   9.472   0.445   5.865  0.0323 -0.1298  0.3030
  656MOL0     C86485   9.367   0.398   5.943 -0.5941 -1.4801  0.2147
  656MOL0     C86486   9.253   0.356   5.879 -0.9093 -0.0853 -0.9155
  656MOL0     C86487   9.137   0.322   5.946 -0.5806  1.2014  0.3277
  656MOL0     C86488   9.124   0.326   6.087  0.1024  0.0642 -0.6188
  656MOL0     C86489   9.003   0.287   6.157  0.3294  0.2147  0.3491
  656MOL0     O86490   9.022   0.227   6.284  0.6253  0.1285 -0.0165
  656MOL0     C86491   8.913   0.165   6.326  0.2469  0.4266  0.0175
  656MOL0     C86492   8.855   0.204   6.451  0.2696  0.0680  0.1686
  656MOL0     C86493   8.731   0.142   6.493 -0.2905  0.6347  0.1976
  656MOL0     C86494   8.679   0.028   6.430 -0.0488 -0.2477 -0.3905
  656MOL0     O86495   8.568  -0.048   6.458  0.4187 -0.3650 -0.0532
  656MOL0     C86496   8.467   0.009   6.544 -0.1485 -0.9766  0.5832
  656MOL0     C86497   8.349  -0.092   6.546 -1.1376 -0.0145  0.2802
  656MOL0     C86498   8.242  -0.045   6.641  0.1351 -0.1532  0.0160
  656MOL0     C86499   8.128  -0.148   6.639  0.5071 -0.6389 -1.1391
  656MOL0     C86500   8.030  -0.128   6.758 -0.3696  0.3333 -0.9761
  656MOL0     C86501   7.937  -0.253   6.780 -0.1453  0.0456  0.6175
  656MOL0     C86502   7.803  -0.221   6.850 -0.1358 -0.5135  0.4421
  656MOL0     C86503   7.743  -0.363   6.865 -0.4164  0.2598  0.1995
  656MOL0    Cl86504   7.565  -0.368   6.894  0.0141  0.3946 -0.0596
  656MOL0     C86505   8.752  -0.021   6.316 -0.2311 -0.3929 -0.3919
  656MOL0     C86506   8.853   0.055   6.257 -0.0685  0.5037 -0.8804
  656MOL0     O86507   8.897   0.303   6.098 -0.5512 -0.8261  0.0895
  656MOL0     C86508   9.234   0.375   6.151  0.9047  0.6648 -0.4321
  656MOL0     C86509   9.349   0.416   6.082  0.4906 -0.0714  0.6799
  656MOL0     N86510   9.185   0.764   5.557  0.4350 -0.5413  1.1123
  656MOL0     N86511   9.166   0.856   5.465 -0.3049 -0.2649 -0.7712
  656MOL0     C86512   8.403   1.483   5.461  0.7701  0.1794 -0.5856
  656MOL0     C86513   8.260   1.490   5.451  1.3905  0.6461  0.9341
  656MOL0     C86514   7.832   1.366   5.462  0.3579 -0.3306 -0.3230
  656MOL0     C86515   7.733   1.395   5.370  0.2218 -0.5365 -0.1528
  656MOL0     C86516   7.606   1.349   5.388  0.0929  0.6238  0.9979
  656MOL0     C86517   7.572   1.273   5.498 -0.7167  0.1868 -0.9957
  656MOL0     O86518   7.445   1.237   5.521  0.4030 -0.0384  0.1642
  656MOL0     C86519   7.334   1.296   5.449  0.0983 -0.0897  1.0053
  656MOL0     C86520   7.204   1.263   5.521  0.3018 -0.4661 -0.4372
  656MOL0     C86521   7.093   1.344   5.457  0.2723 -0.4769 -0.1352
  656MOL0     C86522   6.953   1.324   5.519  0.2571  0.1850 -0.1646
  656MOL0     C86523   6.865   1.418   5.453  0.3302  0.8054  0.9995
  656MOL0     C86524   6.800   1.504   5.397 -0.1175 -0.8042  0.7535
  656MOL0     C86525   7.673   1.235   5.593 -0.1159  0.3963  0.0691
  656MOL0     C86526   7.803   1.284   5.574 -0.0124  0.5683 -0.3523
  656MOL0     H86527   8.172   1.267   5.685 -1.6388  1.5653 -1.4673
  656MOL0     H86528   8.420   1.203   5.650  0.2464 -1.7028 -3.2642
  656MOL0     H86529   8.677   1.532   5.503 -0.5563 -0.3426  0.5795
  656MOL0     H86530   8.682   1.428   5.368  2.1050  0.3230 -0.7841
  656MOL0     H86531   8.830   1.366   5.619  1.3161 -1.8496 -0.8801
  656MOL0     H86532   8.901   1.481   5.509  1.0583 -0.2015  1.2155
  656MOL0     H86533   8.869   1.295   5.330 -1.6777 -1.7471  0.0163
  656MOL0     H86534   8.815   1.191   5.455 -0.4327  0.4021  0.0541
  656MOL0     H86535   9.087   1.339   5.493 -2.1687  1.4961 -0.0066
  656MOL0     H86536   9.040   1.188   5.565  0.3270  1.3592  0.1848
  656MOL0     H86537   9.098   1.261   5.274 -1.6082 -0.2977  1.2369
  656MOL0     H86538   9.035   1.099   5.323 -0.2040  0.0223  1.2957
  656MOL0     H86539   9.242   1.079   5.475 -0.9869 -0.3852 -1.6043
  656MOL0     H86540   9.290   1.234   5.421  0.4547  0.1344  0.2641
  656MOL0     H86541   9.307   1.130   5.170  3.4857 -1.5750 -0.1618
  656MOL0     H86542   9.410   1.069   5.285 -0.2826  1.4378 -2.9937
  656MOL0     H86543   9.329   0.886   5.168 -0.2996  0.4902 -1.1351
  656MOL0     H86544   9.171   0.931   5.210  1.9724  0.2453 -4.3785
  656MOL0     H86545   9.466   0.738   5.387 -0.7200 -2.6350  0.0996
  656MOL0     H86546   9.420   0.541   5.583  1.0372  1.8019 -1.9488
  656MOL0     H86547   9.308   0.604   5.707 -2.1260  1.7724 -1.1982
  656MOL0     H86548   9.420   0.789   5.757 -1.5467 -0.9989 -1.1448
  656MOL0     H86549   9.557   0.767   5.632  0.3127 -1.0034 -0.7625
  656MOL0     H86550   9.636   0.572   5.745 -1.1547 -0.9549  0.5263
  656MOL0     H86551   9.655   0.716   5.841 -1.7566  2.7406  0.6995
  656MOL0     H86552   9.407   0.635   5.934  0.1545 -0.0277  0.4346
  656MOL0     H86553   9.567   0.575   5.990 -1.4404 -1.2664  1.9688
  656MOL0     H86554   9.259   0.346   5.771  0.1967  1.7515 -1.0780
  656MOL0     H86555   9.059   0.279   5.883  0.2678 -3.4025  2.0657
  656MOL0     H86556   8.904   0.277   6.514  0.7483  1.9303 -2.2298
  656MOL0     H86557   8.681   0.170   6.585  0.3224  0.1859  0.6708
  656MOL0     H86558   8.444   0.108   6.503  0.1795 -0.9819  0.3825
  656MOL0     H86559   8.496   0.016   6.649  0.6165  1.8599  0.2606
  656MOL0     H86560   8.389  -0.188   6.581  2.4117  0.9727 -0.7159
  656MOL0     H86561   8.299  -0.102   6.449  3.7911 -2.0278 -2.4416
  656MOL0     H86562   8.185   0.042   6.605 -1.7563 -1.1047  0.5898
  656MOL0     H86563   8.278  -0.021   6.742 -1.0320  1.8929  0.0021
  656MOL0     H86564   8.074  -0.138   6.545  0.2712  0.5678 -0.8951
  656MOL0     H86565   8.173  -0.248   6.645  0.7900 -0.4471  3.5909
  656MOL0     H86566   7.978  -0.036   6.728 -0.9157 -0.4566 -2.5515
  656MOL0     H86567   8.081  -0.106   6.853 -2.8954  1.1190  0.2919
  656MOL0     H86568   7.993  -0.334   6.828  2.3364 -0.3517 -2.5874
  656MOL0     H86569   7.912  -0.294   6.681 -0.3808  1.5656  0.0302
  656MOL0     H86570   7.825  -0.181   6.949  1.2422 -2.1160  0.8297
  656MOL0     H86571   7.757  -0.137   6.796 -0.4884  0.1251  1.7097
  656MOL0     H86572   7.807  -0.412   6.939  2.0663  1.7921 -0.7914
  656MOL0     H86573   7.738  -0.410   6.767 -6.4773  0.7233 -0.0767
  656MOL0     H86574   8.721  -0.104   6.254 -1.7008  0.7951 -1.3314
  656MOL0     H86575   8.896   0.034   6.160  0.7764  1.8334 -0.8155
  656MOL0     H86576   9.225   0.393   6.257 -0.0551 -0.2584 -0.3433
  656MOL0     H86577   9.431   0.472   6.127 -0.9320  1.5440  1.3971
  656MOL0     H86578   8.464   1.550   5.401 -2.1886  2.2850 -1.5086
  656MOL0     H86579   8.217   1.575   5.399 -0.1957 -0.7844 -0.2142
  656MOL0     H86580   7.754   1.455   5.281 -1.9584  1.0042  0.2993
  656MOL0     H86581   7.544   1.379   5.304  0.4554 -1.0885  0.0720
  656MOL0     H86582   7.346   1.265   5.344 -1.1330  2.0918  0.1396
  656MOL0     H86583   7.344   1.404   5.441 -0.6807  0.0553  1.8497
  656MOL0     H86584   7.183   1.155   5.523 -2.8252  0.0577  1.4252
  656MOL0     H86585   7.222   1.286   5.626  1.2398 -1.8107 -0.2785
  656MOL0     H86586   7.095   1.336   5.348 -1.8106 -3.7090 -0.0675
  656MOL0     H86587   7.129   1.445   5.481 -2.4256  0.4138  0.4845
  656MOL0     H86588   6.911   1.224   5.505  2.0674 -0.2414 -4.3128
  656MOL0     H86589   6.958   1.336   5.627 -4.0778  1.9781  0.0386
  656MOL0     H86590   6.722   1.561   5.350 -1.5440 -1.8647  1.7400
  656MOL0     H86591   7.643   1.170   5.674 -0.6963 -0.0149 -0.4667
  656MOL0     H86592   7.878   1.249   5.645 -1.3910  0.0557  0.9074
  657MOL0     O86593  10.785   8.930   2.589  0.4151 -0.4665 -0.8874
  657MOL0     C86594  10.813   9.040   2.641  0.7134  0.3319 -0.6344
  657MOL0     O86595  10.727   9.108   2.732 -0.2540 -0.4067  0.1512
  657MOL0     C86596  10.607   9.064   2.770  0.2180  0.4292 -0.3850
  657MOL0     C86597  10.575   9.065   2.904 -0.3580  0.1756  0.4298
  657MOL0     C86598  10.452   8.996   2.939 -0.7280  0.2525 -0.3368
  657MOL0     C86599  10.353   8.982   2.846  0.7102 -0.3674 -0.5866
  657MOL0     O86600  10.237   8.926   2.894  0.3155  0.1587  0.3643
  657MOL0     C86601  10.127   9.016   2.910  0.6916 -0.2613 -0.4486
  657MOL0     C86602   9.988   8.959   2.953  0.6758  0.8897 -0.0459
  657MOL0     C86603   9.933   8.860   2.848 -0.4200 -0.1655 -0.1515
  657MOL0     C86604   9.818   8.786   2.902 -0.8481 -1.0602 -0.2204
  657MOL0     C86605   9.766   8.691   2.799  0.7482 -0.3736 -0.1442
  657MOL0     C86606   9.638   8.621   2.854  0.4445 -0.1506  0.0248
  657MOL0     C86607   9.525   8.726   2.855 -0.2628 -0.4057  0.0711
  657MOL0     C86608   9.399   8.654   2.854 -0.2791  0.0368  0.1211
  657MOL0     N86609   9.281   8.746   2.869  0.1111 -0.5382 -0.2691
  657MOL0     C86610   9.247   8.798   2.990 -0.3409 -0.3032  0.5609
  657MOL0     C86611   9.153   8.890   2.948 -0.1677  0.5220 -0.1904
  657MOL0     C86612   9.073   8.978   3.044 -0.0062  0.1291  0.6820
  657MOL0     C86613   8.954   9.062   2.987  0.5752  0.5086 -0.1554
  657MOL0     C86614   8.849   8.960   2.950 -0.4540 -0.4055  0.7644
  657MOL0     C86615   8.709   9.016   2.931  0.2035  0.4202  0.1030
  657MOL0     O86616   8.647   9.088   3.041 -0.1119  0.6438  0.4594
  657MOL0     C86617   8.551   9.194   3.009  0.2113 -0.8623  1.2942
  657MOL0     C86618   8.505   9.225   2.874  0.4926  0.9123 -0.3845
  657MOL0     C86619   8.405   9.322   2.857  0.2293  0.3120  0.1281
  657MOL0     C86620   8.353   9.394   2.967  0.3903  0.6067  0.1812
  657MOL0     C86621   8.255   9.504   2.947  0.5194 -0.2620 -0.3349
  657MOL0     O86622   8.240   9.564   2.830  0.2071  0.1828  0.2180
  657MOL0     C86623   8.130   9.654   2.841 -0.2674 -0.9694 -0.2615
  657MOL0     C86624   8.003   9.616   2.817 -0.7769 -0.5417  0.0243
  657MOL0     C86625   7.891   9.702   2.837 -0.0825  0.6685 -0.7636
  657MOL0     C86626   7.914   9.835   2.865  1.1892 -0.4159  0.7105
  657MOL0     O86627   7.809   9.917   2.899 -0.4440  0.2687  0.1780
  657MOL0     C86628   7.768  10.022   2.801 -0.4048 -0.1093  0.3675
  657MOL0     C86629   7.665   9.982   2.692 -0.2772  0.1233 -0.3976
  657MOL0     C86630   7.545   9.930   2.758  0.5361  0.5872  0.0627
  657MOL0     C86631   7.456   9.874   2.649  0.3448  0.2093  0.1972
  657MOL0     C86632   7.337   9.782   2.697 -0.3129  0.2286  0.3162
  657MOL0     C86633   7.229   9.855   2.775 -0.6944 -0.2088 -0.0885
  657MOL0     C86634   7.124   9.751   2.815  0.0385  0.5926  0.7651
  657MOL0     C86635   7.011   9.816   2.879  0.2690 -0.8609 -0.3437
  657MOL0    Cl86636   6.931   9.945   2.785 -0.2786  0.2904  0.1759
  657MOL0     C86637   8.040   9.875   2.895 -0.2749 -0.3840  1.1405
  657MOL0     C86638   8.149   9.789   2.871 -0.6674  0.3775  0.6060
  657MOL0     O86639   8.220   9.541   3.054  0.1454 -0.2586 -0.3349
  657MOL0     C86640   8.403   9.359   3.096  0.2495  0.5336 -0.7506
  657MOL0     C86641   8.496   9.260   3.117  0.0274 -0.9730 -0.3541
  657MOL0     N86642   9.123   8.883   2.810 -0.5677 -0.9344 -0.5427
  657MOL0     N86643   9.207   8.795   2.766 -0.6858 -0.2183 -0.0590
  657MOL0     C86644  10.377   9.002   2.708 -0.2195  0.1695  0.5168
  657MOL0     C86645  10.514   9.030   2.671  0.5912  0.3242  0.4303
  657MOL0     C86646  10.932   9.102   2.594  0.0414 -0.6683  0.2449
  657MOL0     C86647  10.990   9.216   2.657 -0.3603  0.3787 -1.2028
  657MOL0     C86648  11.119   9.264   2.629  0.0600 -0.2110 -0.2761
  657MOL0     C86649  11.185   9.205   2.524  0.2700 -0.6390 -0.8600
  657MOL0     O86650  11.294   9.273   2.479  0.0256 -0.2822 -0.3535
  657MOL0     C86651  11.384   9.217   2.387 -0.3058 -0.9205  0.8606
  657MOL0     C86652  11.483   9.139   2.469  0.4658 -0.4587 -0.2151
  657MOL0     C86653  11.537   9.232   2.587  0.2676  0.2850  0.5161
  657MOL0     C86654  11.665   9.175   2.649 -0.5248 -0.4239  0.4685
  657MOL0     C86655  11.645   9.049   2.720 -0.5833  0.2347 -0.2294
  657MOL0     C86656  11.631   8.942   2.775 -0.4601 -0.8072 -0.1688
  657MOL0     C86657  11.137   9.086   2.463  0.0953 -0.1948  0.5900
  657MOL0     C86658  11.009   9.030   2.496 -0.7013  0.3043 -0.4767
  657MOL0     H86659  10.649   9.099   2.976  1.0660  0.1672 -0.9732
  657MOL0     H86660  10.428   8.983   3.044  0.5603 -0.2466 -0.0830
  657MOL0     H86661  10.106   9.063   2.813  0.3205 -0.2000 -0.3371
  657MOL0     H86662  10.159   9.096   2.978  0.1043 -0.6877  0.3429
  657MOL0     H86663   9.910   9.034   2.968 -1.3809 -0.3110 -3.6351
  657MOL0     H86664  10.000   8.899   3.044 -1.6668  1.1408  0.4981
  657MOL0     H86665  10.016   8.797   2.814 -1.6490 -1.3094 -1.1007
  657MOL0     H86666   9.900   8.922   2.764 -1.9106  1.1588  1.3531
  657MOL0     H86667   9.850   8.733   2.993 -1.0493 -0.6259  0.1109
  657MOL0     H86668   9.741   8.857   2.934  1.5224  0.5273  2.5004
  657MOL0     H86669   9.847   8.619   2.785 -0.6068 -2.1614  0.7716
  657MOL0     H86670   9.743   8.737   2.702  1.3437  0.0766 -0.0777
  657MOL0     H86671   9.658   8.583   2.955  1.7012 -1.7357 -0.7746
  657MOL0     H86672   9.617   8.539   2.786 -0.0874  0.1014 -0.1194
  657MOL0     H86673   9.533   8.789   2.943 -2.1562  0.3266 -0.2260
  657MOL0     H86674   9.545   8.776   2.760  0.5366 -5.1410 -2.5979
  657MOL0     H86675   9.390   8.588   2.941 -0.4187  1.9560  1.6352
  657MOL0     H86676   9.383   8.596   2.763 -1.0900  1.0841 -0.4138
  657MOL0     H86677   9.280   8.766   3.088 -0.7603  0.7032  1.0485
  657MOL0     H86678   9.139   9.057   3.081  1.3690  0.1732 -1.6510
  657MOL0     H86679   9.042   8.910   3.124  0.6515  1.3030  1.9841
  657MOL0     H86680   8.991   9.115   2.899 -1.3663 -0.4333 -1.6117
  657MOL0     H86681   8.917   9.134   3.061  0.2890 -0.1414  0.3503
  657MOL0     H86682   8.888   8.919   2.856  2.6823  1.5811  1.0564
  657MOL0     H86683   8.836   8.877   3.021 -0.4904 -0.8461  0.2506
  657MOL0     H86684   8.640   8.936   2.901  2.4692 -1.9109  0.6982
  657MOL0     H86685   8.729   9.090   2.853 -2.7583  0.7050 -0.5123
  657MOL0     H86686   8.532   9.152   2.798  1.5880 -1.6477  2.2424
  657MOL0     H86687   8.365   9.331   2.756  1.9420  1.2962 -0.4952
  657MOL0     H86688   7.981   9.515   2.783 -2.9905 -0.4631  1.0329
  657MOL0     H86689   7.797   9.650   2.823 -0.3656  1.1932 -0.8585
  657MOL0     H86690   7.854  10.051   2.741 -0.0317 -1.2904  0.3103
  657MOL0     H86691   7.744  10.114   2.856  0.4022  0.4907 -0.2698
  657MOL0     H86692   7.707   9.902   2.629 -0.2737 -1.8870  2.0109
  657MOL0     H86693   7.638  10.071   2.634  0.9838  1.3523  0.8070
  657MOL0     H86694   7.488  10.008   2.810  1.5465  1.9316 -0.7960
  657MOL0     H86695   7.566   9.838   2.814  1.4731 -1.4406 -3.3587
  657MOL0     H86696   7.417   9.954   2.586  2.6502  1.1677 -0.0893
  657MOL0     H86697   7.520   9.814   2.584  0.7232  2.4371 -1.6242
  657MOL0     H86698   7.378   9.696   2.751 -2.5405 -2.1971 -1.5724
  657MOL0     H86699   7.296   9.751   2.600 -1.2574  2.3845 -0.0383
  657MOL0     H86700   7.187   9.927   2.705 -0.7018  1.1152  1.2397
  657MOL0     H86701   7.272   9.907   2.861  1.2052 -1.8040 -0.0005
  657MOL0     H86702   7.087   9.708   2.722 -0.4666 -1.3869  1.8136
  657MOL0     H86703   7.155   9.665   2.875 -0.5571 -0.9703 -1.0440
  657MOL0     H86704   7.059   9.863   2.965 -1.7993  0.8170 -0.0011
  657MOL0     H86705   6.933   9.751   2.919  0.4279  0.7432  2.9066
  657MOL0     H86706   8.078   9.972   2.927 -0.1414 -0.1719  0.3732
  657MOL0     H86707   8.256   9.802   2.882  0.4733 -3.1441 -3.4255
  657MOL0     H86708   8.351   9.396   3.183 -2.7704 -1.3015 -1.6289
  657MOL0     H86709   8.526   9.229   3.217 -0.8677 -1.2604 -0.1697
  657MOL0     H86710  10.298   9.002   2.634  1.3886  4.0720 -1.5047
  657MOL0     H86711  10.525   9.048   2.565 -1.8681 -0.3601  0.0110
  657MOL0     H86712  10.931   9.264   2.734 -0.1445  0.2189 -0.9375
  657MOL0     H86713  11.172   9.344   2.679 -1.6370 -1.3765  3.8135
  657MOL0     H86714  11.441   9.294   2.335  0.7084  0.3485  3.6653
  657MOL0     H86715  11.330   9.158   2.312 -1.9399  1.4299  0.0565
  657MOL0     H86716  11.450   9.040   2.502  0.4686 -0.4394 -0.1557
  657MOL0     H86717  11.574   9.117   2.411  0.1086  1.5406 -1.6375
  657MOL0     H86718  11.463   9.239   2.667  1.5349  2.1063  1.6041
  657MOL0     H86719  11.562   9.331   2.548 -1.1768  0.7223  0.6333
  657MOL0     H86720  11.745   9.155   2.577 -0.6756 -3.3609  1.0199
  657MOL0     H86721  11.710   9.249   2.716  1.8278 -1.6728  0.3470
  657MOL0     H86722  11.614   8.842   2.808 -2.5981 -0.5999 -0.4966
  657MOL0     H86723  11.192   9.035   2.385  0.2435  0.6501  0.1229
  657MOL0     H86724  10.974   8.944   2.440 -2.7639  1.3909 -0.9495
  658MOL0     O86725  11.168   7.425   7.361  0.6701  0.1083  0.2246
  658MOL0     C86726  11.056   7.444   7.315  0.0554 -0.0830  0.8189
  658MOL0     O86727  11.010   7.566   7.278  0.1249 -0.2844  0.3532
  658MOL0     C86728  11.095   7.673   7.297 -1.2622  0.1383 -0.4652
  658MOL0     C86729  11.180   7.711   7.195 -0.3258 -0.3336  0.5146
  658MOL0     C86730  11.266   7.815   7.209 -0.8277  0.0195 -0.5154
  658MOL0     C86731  11.278   7.879   7.334  0.0387 -0.0772 -0.2272
  658MOL0     O86732  11.374   7.978   7.336  0.2966 -0.7888 -0.0567
  658MOL0     C86733  11.388   8.051   7.465  0.2306  0.2222  1.2240
  658MOL0     C86734  11.502   8.150   7.437 -0.6417  0.2393  0.1503
  658MOL0     C86735  11.449   8.287   7.391 -0.8248 -0.0429 -0.0206
  658MOL0     C86736  11.562   8.391   7.405 -0.2830 -0.7716 -0.1945
  658MOL0     C86737  11.512   8.528   7.365 -0.1622  0.2026 -0.3068
  658MOL0     C86738  11.567   8.636   7.452 -0.3065  0.4792  0.2768
  658MOL0     C86739  11.517   8.771   7.390 -0.1855 -0.2635 -1.2437
  658MOL0     C86740  11.593   8.883   7.470  0.6782  0.7197  0.1949
  658MOL0     N86741  11.546   9.019   7.427 -0.9881  0.3191 -0.3514
  658MOL0     C86742  11.599   9.082   7.315 -0.1458  0.6507 -0.6089
  658MOL0     C86743  11.524   9.191   7.311  1.4355 -0.7553 -0.5418
  658MOL0     C86744  11.554   9.310   7.226 -0.0828 -0.0751 -0.2309
  658MOL0     C86745  11.598   9.270   7.084  0.0021 -0.0694  1.3386
  658MOL0     C86746  11.490   9.200   7.008 -0.5002 -0.1948  0.1350
  658MOL0     C86747  11.349   9.250   7.040  0.0203  0.0013  0.0941
  658MOL0     O86748  11.255   9.180   6.958 -0.3446  1.0412  0.3737
  658MOL0     C86749  11.203   9.055   6.981  0.0908  0.8460  0.3160
  658MOL0     C86750  11.224   8.978   7.097 -0.2906 -0.9764 -0.3027
  658MOL0     C86751  11.144   8.868   7.117  0.6773  0.2864 -0.1660
  658MOL0     C86752  11.054   8.818   7.017  0.7984  0.0615 -0.3715
  658MOL0     C86753  10.963   8.704   7.040 -0.0210 -0.4918 -0.1764
  658MOL0     O86754  10.912   8.644   6.927 -0.0942 -0.4122 -0.1738
  658MOL0     C86755  10.819   8.544   6.929  0.4207  0.4980  0.5031
  658MOL0     C86756  10.784   8.454   7.039 -0.2737 -0.1782  0.1647
  658MOL0     C86757  10.692   8.352   7.017 -0.0670 -0.3528 -0.4792
  658MOL0     C86758  10.631   8.334   6.895  0.0773 -0.7292 -0.1660
  658MOL0     O86759  10.547   8.227   6.884 -0.1173  0.5466  0.3031
  658MOL0     C86760  10.411   8.258   6.833  0.1098 -0.3763 -0.5746
  658MOL0     C86761  10.308   8.224   6.932 -0.2820  0.1654  0.2497
  658MOL0     C86762  10.332   8.278   7.071  0.4120  0.5600  0.7045
  658MOL0     C86763  10.214   8.283   7.177  0.3745 -0.3260 -0.4363
  658MOL0     C86764  10.262   8.364   7.296 -0.5229  0.7411  0.2056
  658MOL0     C86765  10.150   8.411   7.377 -0.4076 -0.5166 -0.0137
  658MOL0     C86766  10.186   8.521   7.468 -0.6154 -0.7226  0.2569
  658MOL0     C86767  10.054   8.600   7.501 -0.6884 -0.3177 -0.2163
  658MOL0    Cl86768   9.946   8.491   7.605 -0.2737 -0.7989 -0.2124
  658MOL0     C86769  10.668   8.418   6.783  0.2323  0.1476  0.2820
  658MOL0     C86770  10.763   8.522   6.807  0.1900  0.1464  0.3623
  658MOL0     O86771  10.941   8.675   7.157 -0.2192  0.5946 -0.1039
  658MOL0     C86772  11.048   8.899   6.896 -0.1071  0.2119 -0.0835
  658MOL0     C86773  11.119   9.015   6.875  0.1777  0.1442 -0.1451
  658MOL0     N86774  11.432   9.194   7.416 -0.2573  0.4166  0.0456
  658MOL0     N86775  11.438   9.081   7.478  0.5563  0.4242  0.5274
  658MOL0     C86776  11.203   7.837   7.444 -0.2280  0.6539  0.5071
  658MOL0     C86777  11.106   7.728   7.425 -0.2444  0.3923  0.0866
  658MOL0     C86778  10.970   7.318   7.287  0.7361 -0.2990 -0.6618
  658MOL0     C86779  11.009   7.190   7.333 -0.5590  0.0034 -0.3752
  658MOL0     C86780  10.906   7.083   7.339 -0.1965 -0.7568  0.2435
  658MOL0     C86781  10.782   7.113   7.287  0.6401  0.1149  0.4156
  658MOL0     O86782  10.681   7.025   7.282 -0.2211 -0.5059 -0.3374
  658MOL0     C86783  10.709   6.884   7.290  0.8741 -0.4820  0.4082
  658MOL0     C86784  10.591   6.808   7.238 -0.3998  0.6516  0.1797
  658MOL0     C86785  10.457   6.842   7.299  0.2500  0.2441  0.7715
  658MOL0     C86786  10.346   6.761   7.218 -0.2986  0.2922  0.5682
  658MOL0     C86787  10.215   6.766   7.280 -1.1077 -0.5598  0.4760
  658MOL0     C86788  10.100   6.769   7.320 -0.1562 -0.2195 -0.3209
  658MOL0     C86789  10.748   7.239   7.248 -0.2532 -0.1879  0.1281
  658MOL0     C86790  10.841   7.339   7.235  0.1139 -0.0866  0.0461
  658MOL0     H86791  11.173   7.648   7.107  0.5675  3.5124 -2.5962
  658MOL0     H86792  11.324   7.851   7.124  3.6976 -0.0894  2.2086
  658MOL0     H86793  11.422   7.988   7.547  3.3473  0.5372  0.3045
  658MOL0     H86794  11.296   8.105   7.488 -0.0193 -0.1857  1.1890
  658MOL0     H86795  11.580   8.120   7.366 -0.0024  1.9779  0.0927
  658MOL0     H86796  11.552   8.163   7.533  0.8430 -0.7512 -0.4529
  658MOL0     H86797  11.370   8.316   7.461 -0.9163  0.6848 -0.4172
  658MOL0     H86798  11.420   8.290   7.285  2.4612 -1.0345 -1.0745
  658MOL0     H86799  11.591   8.390   7.510  0.2589 -2.3452 -0.3386
  658MOL0     H86800  11.650   8.366   7.346  1.1085  2.3716  0.3508
  658MOL0     H86801  11.403   8.518   7.370 -0.3672  2.1423  0.2123
  658MOL0     H86802  11.539   8.546   7.260 -0.2505 -0.9161 -0.5326
  658MOL0     H86803  11.675   8.622   7.442 -0.3533 -0.9901  1.5429
  658MOL0     H86804  11.531   8.621   7.554 -1.6070 -0.0381 -0.2373
  658MOL0     H86805  11.551   8.785   7.287  1.4592  0.6321 -0.6162
  658MOL0     H86806  11.408   8.762   7.385 -0.1417 -0.4231 -2.0481
  658MOL0     H86807  11.698   8.870   7.442  0.1474  1.3323 -2.2816
  658MOL0     H86808  11.577   8.868   7.577 -0.4372  1.1227  0.1017
  658MOL0     H86809  11.686   9.052   7.257 -0.8137 -3.1761  0.0960
  658MOL0     H86810  11.635   9.367   7.273 -1.7402  4.5975 -2.4688
  658MOL0     H86811  11.475   9.385   7.216 -2.1229 -2.3754 -2.9967
  658MOL0     H86812  11.682   9.201   7.093  1.1774  1.2320  0.6561
  658MOL0     H86813  11.643   9.352   7.026  0.8523 -1.6353 -0.2993
  658MOL0     H86814  11.507   9.207   6.900 -1.2212  0.3431  0.0479
  658MOL0     H86815  11.495   9.094   7.032 -0.0224  0.0893  1.3249
  658MOL0     H86816  11.340   9.355   7.012 -0.9444  0.0447  0.5358
  658MOL0     H86817  11.323   9.239   7.145  2.1421  1.3282  0.8143
  658MOL0     H86818  11.291   8.999   7.179  3.9895 -0.5563 -3.5839
  658MOL0     H86819  11.149   8.810   7.209 -1.6233 -0.5144 -0.4624
  658MOL0     H86820  10.822   8.456   7.141  1.8926  1.3214 -0.5965
  658MOL0     H86821  10.660   8.287   7.097 -2.9981 -2.4051 -3.0687
  658MOL0     H86822  10.401   8.196   6.744  2.7088 -1.8572  0.0811
  658MOL0     H86823  10.399   8.365   6.813  0.5087  0.1557  1.7325
  658MOL0     H86824  10.292   8.116   6.934  2.5438 -0.3642 -0.4554
  658MOL0     H86825  10.228   8.281   6.884  0.5208  0.9326 -0.2194
  658MOL0     H86826  10.374   8.378   7.053  0.9269 -0.1387 -2.6108
  658MOL0     H86827  10.403   8.209   7.117 -0.4193 -0.2396  0.8044
  658MOL0     H86828  10.127   8.322   7.122 -1.1485 -2.6286  0.1958
  658MOL0     H86829  10.192   8.180   7.205 -0.3462 -0.1696 -0.4044
  658MOL0     H86830  10.320   8.446   7.252  0.0883 -0.6801 -1.7955
  658MOL0     H86831  10.336   8.299   7.344  1.2586  0.4900 -2.6408
  658MOL0     H86832  10.119   8.322   7.433 -0.6946 -1.5557 -1.7349
  658MOL0     H86833  10.066   8.432   7.311  0.6891  1.1696 -0.9384
  658MOL0     H86834  10.227   8.469   7.555 -0.6690 -0.6169  0.3436
  658MOL0     H86835  10.253   8.600   7.433  1.6897 -0.9301  3.7872
  658MOL0     H86836  10.011   8.651   7.415  0.6768  1.6372  0.2030
  658MOL0     H86837  10.092   8.689   7.552  0.4143 -0.8920 -0.0009
  658MOL0     H86838  10.601   8.402   6.699 -0.1327 -1.2979  0.8231
  658MOL0     H86839  10.796   8.580   6.720  1.1692 -1.3251 -0.2782
  658MOL0     H86840  10.975   8.873   6.820  0.1741  0.6932 -0.5250
  658MOL0     H86841  11.096   9.079   6.791 -2.4757  0.6272  0.8648
  658MOL0     H86842  11.211   7.886   7.541  1.0548 -2.1906  1.9819
  658MOL0     H86843  11.046   7.696   7.509 -1.9644 -2.1686 -1.9805
  658MOL0     H86844  11.112   7.184   7.365  0.4734  0.9492 -3.1809
  658MOL0     H86845  10.932   6.990   7.388 -2.3353 -1.4088  0.2663
  658MOL0     H86846  10.726   6.840   7.389 -0.1235  1.7131  1.6343
  658MOL0     H86847  10.797   6.869   7.227  0.1884  3.2571 -1.7541
  658MOL0     H86848  10.577   6.812   7.129 -0.0762  0.9773  0.1474
  658MOL0     H86849  10.596   6.702   7.264 -0.9276  0.4804 -0.3989
  658MOL0     H86850  10.439   6.949   7.286 -0.4546 -0.1630 -2.8117
  658MOL0     H86851  10.443   6.820   7.405 -0.2400 -0.2980  0.6006
  658MOL0     H86852  10.332   6.802   7.117  1.6009 -1.3432 -0.4145
  658MOL0     H86853  10.382   6.659   7.206 -1.5451 -0.2637  1.3025
  658MOL0     H86854  10.003   6.783   7.363  0.8735  1.8365  1.4799
  658MOL0     H86855  10.644   7.257   7.224 -1.1695 -1.1954  2.9344
  658MOL0     H86856  10.808   7.431   7.189  0.5863  0.5001  0.8608
  659MOL0     O86857   5.512   2.682   4.092 -0.0800  0.6804  0.1788
  659MOL0     C86858   5.569   2.611   4.012  0.6514 -0.1187 -0.2567
  659MOL0     O86859   5.523   2.548   3.900 -0.2402 -0.0407  0.0508
  659MOL0     C86860   5.395   2.572   3.865 -0.2108 -0.3212 -0.3342
  659MOL0     C86861   5.356   2.633   3.750 -0.7674 -0.1848  0.9887
  659MOL0     C86862   5.222   2.648   3.716  0.1166  0.2358  0.4841
  659MOL0     C86863   5.129   2.594   3.797  0.0508 -0.0422 -0.1547
  659MOL0     O86864   4.999   2.578   3.761 -0.2519  0.0049  0.1321
  659MOL0     C86865   4.933   2.703   3.735 -0.0556  0.6980 -0.4264
  659MOL0     C86866   4.824   2.687   3.634 -0.6177  0.6791  0.4304
  659MOL0     C86867   4.713   2.588   3.675 -0.1279  0.2381 -0.2979
  659MOL0     C86868   4.607   2.578   3.565 -0.8089 -0.4732 -0.9173
  659MOL0     C86869   4.492   2.480   3.583  0.6367 -0.2204 -1.3977
  659MOL0     C86870   4.419   2.447   3.459 -0.0576 -0.2957  0.2450
  659MOL0     C86871   4.315   2.558   3.409 -0.0277 -0.1165 -0.4217
  659MOL0     C86872   4.360   2.583   3.263  0.3884 -0.1053 -0.5837
  659MOL0     N86873   4.300   2.696   3.195  0.5107  0.1264 -0.2441
  659MOL0     C86874   4.172   2.711   3.152 -0.3681 -0.0459  0.6998
  659MOL0     C86875   4.157   2.846   3.141 -0.3348  0.1131 -0.3094
  659MOL0     C86876   4.047   2.920   3.090  0.2372 -0.7186 -0.6109
  659MOL0     C86877   3.914   2.888   3.167 -0.3761  0.4963  0.5023
  659MOL0     C86878   3.922   2.897   3.322 -0.6036  0.1076 -0.2158
  659MOL0     C86879   3.787   2.869   3.376  0.1324 -0.4709 -0.7439
  659MOL0     O86880   3.708   2.979   3.349 -0.6130 -0.1083 -0.2871
  659MOL0     C86881   3.574   2.987   3.383 -0.3965 -0.0520  0.3661
  659MOL0     C86882   3.500   2.883   3.441  0.6233 -0.0501 -0.5686
  659MOL0     C86883   3.374   2.916   3.488  0.1228  1.2016 -0.0424
  659MOL0     C86884   3.309   3.035   3.459 -0.3735 -0.2017 -0.6001
  659MOL0     C86885   3.165   3.040   3.493 -0.8728 -0.3698  1.2958
  659MOL0     O86886   3.102   3.157   3.472 -0.1157 -0.9612 -0.5950
  659MOL0     C86887   2.967   3.163   3.509 -0.2397  0.2660  1.0717
  659MOL0     C86888   2.871   3.085   3.438  0.3585  0.6296 -0.0658
  659MOL0     C86889   2.738   3.078   3.492 -0.2285 -0.0072  1.4351
  659MOL0     C86890   2.692   3.152   3.603  0.0127 -0.1229 -0.5021
  659MOL0     O86891   2.569   3.165   3.659 -0.4129  0.5347 -0.3586
  659MOL0     C86892   2.463   3.112   3.579  0.4620 -0.2650 -0.0702
  659MOL0     C86893   2.345   3.081   3.673 -0.3879 -0.2973  0.7071
  659MOL0     C86894   2.289   3.196   3.750  0.4198 -0.5200 -0.7190
  659MOL0     C86895   2.230   3.129   3.881  0.5105 -0.9638 -0.1163
  659MOL0     C86896   2.171   3.241   3.973  0.0014  0.0838 -1.0142
  659MOL0     C86897   2.124   3.177   4.108  0.8518  0.1596 -0.2791
  659MOL0     C86898   2.057   3.269   4.208 -0.7619 -0.6505 -0.0627
  659MOL0     C86899   2.174   3.346   4.279 -0.1711  0.0260 -0.4630
  659MOL0    Cl86900   2.255   3.238   4.393 -0.0355 -0.1899 -0.2840
  659MOL0     C86901   2.791   3.234   3.661  0.1652  0.0511  0.0661
  659MOL0     C86902   2.922   3.240   3.618 -0.1757  0.7651  0.3776
  659MOL0     O86903   3.122   2.949   3.555 -0.1254 -0.0768  0.0420
  659MOL0     C86904   3.381   3.131   3.380  0.3023 -0.1401 -1.0225
  659MOL0     C86905   3.512   3.106   3.353  0.2666 -0.2529 -0.3099
  659MOL0     N86906   4.279   2.907   3.179 -0.0948  0.0610  0.2722
  659MOL0     N86907   4.358   2.814   3.216  0.5324 -0.2711 -0.4374
  659MOL0     C86908   5.166   2.532   3.915 -0.1424  0.3427  0.3112
  659MOL0     C86909   5.294   2.526   3.953  1.1183  0.9385  0.1925
  659MOL0     C86910   5.710   2.612   4.024 -1.5516  0.1986  0.8677
  659MOL0     C86911   5.798   2.613   3.910  0.6749  0.4487 -1.2134
  659MOL0     C86912   5.933   2.608   3.924 -0.6935 -0.0826 -1.3464
  659MOL0     C86913   5.992   2.602   4.057 -0.1951 -0.2628 -0.0859
  659MOL0     O86914   6.131   2.599   4.056 -0.3328  0.6500 -1.0743
  659MOL0     C86915   6.195   2.580   4.181  0.4094 -0.2183 -0.4982
  659MOL0     C86916   6.340   2.620   4.159 -0.8298  0.2597 -0.8955
  659MOL0     C86917   6.441   2.531   4.246  0.3266 -0.1443 -0.2632
  659MOL0     C86918   6.501   2.609   4.375 -0.0592 -0.0171 -0.5256
  659MOL0     C86919   6.620   2.529   4.421  0.6534 -0.5462  0.6766
  659MOL0     C86920   6.733   2.482   4.426  0.1710  0.1655  0.3401
  659MOL0     C86921   5.903   2.601   4.169 -0.5065 -0.1053 -0.8297
  659MOL0     C86922   5.768   2.601   4.158  0.0159 -0.2365 -0.0157
  659MOL0     H86923   5.437   2.667   3.685  0.7866 -0.4203  2.7244
  659MOL0     H86924   5.185   2.678   3.618  1.4625  0.4894  0.0317
  659MOL0     H86925   5.000   2.784   3.706  3.6744  0.0086  4.8077
  659MOL0     H86926   4.898   2.748   3.828  5.4512  5.3707 -0.1070
  659MOL0     H86927   4.880   2.652   3.547  0.7820  1.4305  1.0004
  659MOL0     H86928   4.777   2.782   3.607 -1.9527 -0.0754 -0.0303
  659MOL0     H86929   4.656   2.633   3.756  0.5677 -0.3073  0.5129
  659MOL0     H86930   4.765   2.495   3.702  0.7298  1.4942  2.8939
  659MOL0     H86931   4.566   2.679   3.562  1.3225  0.4517 -0.9298
  659MOL0     H86932   4.667   2.541   3.481 -2.1171  1.0549 -2.5861
  659MOL0     H86933   4.425   2.522   3.659  0.6808 -1.2199 -0.7902
  659MOL0     H86934   4.530   2.385   3.620  0.7985 -0.7767 -2.9448
  659MOL0     H86935   4.365   2.352   3.467 -1.8186  0.5868 -0.5496
  659MOL0     H86936   4.495   2.415   3.387  1.1483  0.3791  1.1799
  659MOL0     H86937   4.216   2.513   3.419 -0.1754  0.5187  1.2771
  659MOL0     H86938   4.314   2.657   3.457  0.4891 -0.3001 -0.0247
  659MOL0     H86939   4.344   2.494   3.201 -4.3940  0.2650 -0.2274
  659MOL0     H86940   4.468   2.599   3.265  0.3407  0.7621 -2.7425
  659MOL0     H86941   4.087   2.643   3.160 -1.9723  1.9445  1.5912
  659MOL0     H86942   4.035   2.911   2.981  1.0100  0.7726 -0.8475
  659MOL0     H86943   4.062   3.026   3.111  1.5256 -1.5826  3.6876
  659MOL0     H86944   3.878   2.791   3.131  0.1028  1.0618 -1.5995
  659MOL0     H86945   3.837   2.957   3.131  3.2054  4.2214 -0.8215
  659MOL0     H86946   3.996   2.825   3.356  0.4684  0.8209 -0.9885
  659MOL0     H86947   3.968   2.992   3.352  0.9107 -0.7434  0.2322
  659MOL0     H86948   3.788   2.850   3.484 -1.4253 -1.2780 -0.8555
  659MOL0     H86949   3.741   2.780   3.332 -1.6700 -0.9596  1.8934
  659MOL0     H86950   3.551   2.787   3.455 -1.5964 -1.2259 -0.1301
  659MOL0     H86951   3.331   2.844   3.557  0.2281  2.3609  1.2763
  659MOL0     H86952   2.890   3.020   3.353 -2.3924 -2.8183  1.6914
  659MOL0     H86953   2.679   3.002   3.442  1.7085 -0.8825  0.3656
  659MOL0     H86954   2.485   3.021   3.522  2.4759 -0.1299  0.4194
  659MOL0     H86955   2.429   3.193   3.514  0.1012 -0.6239 -0.3348
  659MOL0     H86956   2.390   3.008   3.740 -1.0682  0.4503  2.0248
  659MOL0     H86957   2.264   3.043   3.610 -1.8422 -0.8125  2.7612
  659MOL0     H86958   2.225   3.258   3.687 -1.6978 -2.9986 -1.1604
  659MOL0     H86959   2.379   3.258   3.765  2.1821 -1.6221 -5.2186
  659MOL0     H86960   2.142   3.066   3.861  0.3394 -1.1534  1.1174
  659MOL0     H86961   2.305   3.062   3.925 -0.9704 -3.2805 -0.9107
  659MOL0     H86962   2.088   3.292   3.923  0.1023  1.3013  0.0311
  659MOL0     H86963   2.240   3.323   3.994 -2.4577  2.0133  0.0901
  659MOL0     H86964   2.206   3.128   4.161 -0.1809 -1.8007 -0.3979
  659MOL0     H86965   2.051   3.099   4.083 -0.2419  1.3984 -1.1352
  659MOL0     H86966   2.003   3.347   4.154  3.6932  1.6758 -1.7546
  659MOL0     H86967   2.000   3.210   4.280  0.1385  1.7142  2.8370
  659MOL0     H86968   2.136   3.434   4.333  0.2475  0.6495 -1.1600
  659MOL0     H86969   2.244   3.396   4.211 -0.8461  1.3802 -0.2019
  659MOL0     H86970   2.765   3.310   3.734  1.7580  2.9437 -2.1592
  659MOL0     H86971   2.994   3.304   3.668  1.9996 -1.2663  0.0366
  659MOL0     H86972   3.331   3.224   3.353 -1.3356 -0.1338  1.6902
  659MOL0     H86973   3.581   3.172   3.301 -0.5988 -0.8018 -2.2785
  659MOL0     H86974   5.093   2.501   3.990 -0.1914 -0.5482 -0.0958
  659MOL0     H86975   5.327   2.484   4.048 -0.3662 -2.9143 -0.8170
  659MOL0     H86976   5.753   2.625   3.811 -1.8603  1.9080  0.0187
  659MOL0     H86977   5.993   2.612   3.833  3.0842  0.4815  0.9517
  659MOL0     H86978   6.188   2.477   4.217  2.9293 -0.1962  0.2601
  659MOL0     H86979   6.165   2.648   4.261 -0.5500  0.3188 -1.2951
  659MOL0     H86980   6.349   2.588   4.055 -2.0197  0.8502 -1.1976
  659MOL0     H86981   6.354   2.726   4.183 -0.6891 -0.2062  1.2932
  659MOL0     H86982   6.518   2.494   4.179 -1.2934 -0.5173 -2.0075
  659MOL0     H86983   6.409   2.438   4.293  3.6722 -1.7237 -0.8828
  659MOL0     H86984   6.517   2.716   4.362 -1.2233 -0.0597 -2.7788
  659MOL0     H86985   6.426   2.601   4.454  0.9763  4.3067  1.1350
  659MOL0     H86986   6.836   2.452   4.432  0.3850  1.1379  2.7638
  659MOL0     H86987   5.947   2.585   4.267 -2.2867  1.7840  0.3544
  659MOL0     H86988   5.712   2.598   4.251  0.5672  2.9725  0.5343
  660MOL0     O86989   9.423   5.428   8.569  0.0209 -0.3170 -0.1442
  660MOL0     C86990   9.440   5.547   8.609  0.4889 -0.0031  1.1528
  660MOL0     O86991   9.347   5.628   8.680 -0.1455 -0.0082 -0.3015
  660MOL0     C86992   9.228   5.569   8.710 -0.3272 -0.1832 -0.1296
  660MOL0     C86993   9.216   5.443   8.762  0.6410  0.4129  0.3686
  660MOL0     C86994   9.103   5.399   8.817 -0.2442 -0.7202 -0.1498
  660MOL0     C86995   8.986   5.476   8.815  1.0823 -0.7457 -0.2732
  660MOL0     O86996   8.876   5.401   8.863 -0.3658 -0.2836  0.3387
  660MOL0     C86997   8.750   5.471   8.848 -0.2144 -0.4383 -0.9849
  660MOL0     C86998   8.639   5.379   8.894 -0.1130 -0.2116 -0.1390
  660MOL0     C86999   8.492   5.430   8.866  0.6912 -0.5260 -0.5954
  660MOL0     C87000   8.393   5.387   8.973  0.0127 -0.0043 -0.6024
  660MOL0     C87001   8.247   5.428   8.960  0.0234 -0.0164  0.4355
  660MOL0     C87002   8.168   5.325   9.056  0.0796 -0.2804 -0.3477
  660MOL0     C87003   8.020   5.344   9.044 -0.1859  0.0516 -0.0131
  660MOL0     C87004   7.951   5.235   9.145 -0.0993  0.5842  0.6679
  660MOL0     N87005   7.811   5.223   9.104 -0.4742  0.1163 -0.2255
  660MOL0     C87006   7.702   5.275   9.165  0.3262 -0.1016 -0.3364
  660MOL0     C87007   7.594   5.218   9.107  0.1731  0.3804  1.0195
  660MOL0     C87008   7.467   5.215   9.168 -0.4143  0.4163 -0.1082
  660MOL0     C87009   7.399   5.342   9.133  0.1043 -0.6143  0.7319
  660MOL0     C87010   7.263   5.352   9.206  0.2367 -0.3996 -0.2744
  660MOL0     C87011   7.193   5.482   9.166  1.0051  0.2650  0.1839
  660MOL0     O87012   7.169   5.492   9.024 -0.7676  0.0540 -0.1619
  660MOL0     C87013   7.058   5.429   8.979  1.2200  0.0636  0.1279
  660MOL0     C87014   7.063   5.311   8.905 -0.5730  0.5158 -0.8258
  660MOL0     C87015   6.952   5.247   8.861 -0.5247  0.6072  0.3582
  660MOL0     C87016   6.828   5.304   8.888  1.2147  0.6751  0.3710
  660MOL0     C87017   6.698   5.231   8.852 -0.3405 -0.5423 -0.4766
  660MOL0     O87018   6.581   5.306   8.842  0.3402  0.4160 -0.0283
  660MOL0     C87019   6.474   5.251   8.782  0.0729  0.4019  0.9544
  660MOL0     C87020   6.493   5.223   8.652  0.3678  0.6183  0.5257
  660MOL0     C87021   6.394   5.151   8.584  0.4786 -0.1655 -0.4298
  660MOL0     C87022   6.264   5.130   8.644  0.4059  0.1669 -0.0250
  660MOL0     O87023   6.170   5.047   8.593  0.6474  0.3680  0.2152
  660MOL0     C87024   6.063   5.118   8.515  0.2996  0.3665  0.1073
  660MOL0     C87025   5.968   5.004   8.465 -0.2234 -0.3500  0.3483
  660MOL0     C87026   5.845   5.055   8.416 -0.4189  0.1887  0.2844
  660MOL0     C87027   5.759   4.956   8.346 -0.3614  0.8013 -0.2728
  660MOL0     C87028   5.627   5.013   8.293  0.0573 -0.0472 -0.6888
  660MOL0     C87029   5.543   4.907   8.221 -0.0215 -0.3323 -0.6907
  660MOL0     C87030   5.405   4.966   8.206  0.3875 -0.2165 -0.0517
  660MOL0     C87031   5.313   4.874   8.133  0.1360  0.3199  0.4341
  660MOL0    Cl87032   5.284   4.713   8.209  0.3325 -0.4157 -0.4463
  660MOL0     C87033   6.244   5.188   8.771  0.4161 -0.1157 -0.1897
  660MOL0     C87034   6.346   5.244   8.846 -0.0013 -0.1688  0.5799
  660MOL0     O87035   6.716   5.113   8.822  0.0147  0.5217 -0.1502
  660MOL0     C87036   6.825   5.423   8.967 -0.8701 -0.3630  0.6549
  660MOL0     C87037   6.936   5.492   9.005  0.8920  0.0160 -0.8667
  660MOL0     N87038   7.638   5.136   9.002  0.0497 -0.4887  0.5002
  660MOL0     N87039   7.769   5.148   8.998 -0.0393 -0.2337  0.0355
  660MOL0     C87040   8.996   5.610   8.775 -0.3147 -0.1794  0.5306
  660MOL0     C87041   9.117   5.651   8.711  0.4791 -0.6786  0.7300
  660MOL0     C87042   9.554   5.629   8.563 -0.4105  0.4029 -0.0488
  660MOL0     C87043   9.586   5.756   8.624  0.1660 -0.0949 -0.4237
  660MOL0     C87044   9.698   5.815   8.575  0.8118 -1.0542 -0.9353
  660MOL0     C87045   9.761   5.779   8.455 -0.2694 -0.9011  0.1243
  660MOL0     O87046   9.857   5.870   8.415 -0.5592  0.2136 -0.2483
  660MOL0     C87047   9.932   5.848   8.294  0.1450 -0.0430 -0.9590
  660MOL0     C87048  10.063   5.775   8.310  0.6861  0.0756 -0.1003
  660MOL0     C87049  10.162   5.853   8.400  0.9049 -0.6688  0.4690
  660MOL0     C87050  10.305   5.835   8.343 -0.1488 -0.1296 -0.0479
  660MOL0     C87051  10.343   5.693   8.354  0.6405 -0.3588  0.4801
  660MOL0     C87052  10.373   5.578   8.361  0.5394 -0.0173  0.1962
  660MOL0     C87053   9.721   5.657   8.383  0.0054 -0.4318  0.8493
  660MOL0     C87054   9.619   5.577   8.438 -0.5951  0.3466  0.1139
  660MOL0     H87055   9.310   5.387   8.766  0.3164 -0.3290 -1.2566
  660MOL0     H87056   9.096   5.299   8.859  2.3024 -0.8045  0.2138
  660MOL0     H87057   8.736   5.495   8.742  0.1817 -1.4843 -1.2893
  660MOL0     H87058   8.765   5.561   8.907  0.3686 -1.0620 -0.1594
  660MOL0     H87059   8.648   5.361   9.001 -0.2042  0.4203 -0.0215
  660MOL0     H87060   8.643   5.278   8.851 -0.0360  0.1091 -0.8972
  660MOL0     H87061   8.465   5.411   8.762 -1.5749  0.4089 -0.2318
  660MOL0     H87062   8.484   5.539   8.872 -1.7883 -0.6065 -1.2428
  660MOL0     H87063   8.385   5.278   8.975 -0.9152  0.0551 -0.8275
  660MOL0     H87064   8.426   5.428   9.069 -1.4339  1.1713 -0.5852
  660MOL0     H87065   8.231   5.403   8.855  1.9790 -1.1591  0.3508
  660MOL0     H87066   8.223   5.533   8.977  0.2517  0.0746  0.1969
  660MOL0     H87067   8.206   5.328   9.158  1.2625 -0.2578 -0.7703
  660MOL0     H87068   8.177   5.227   9.006 -0.0244 -0.3187 -0.2910
  660MOL0     H87069   7.992   5.439   9.089 -0.6354 -0.4706  0.8457
  660MOL0     H87070   7.988   5.356   8.940  0.7035  1.2641 -0.1576
  660MOL0     H87071   7.960   5.264   9.250  2.6477 -0.2265  0.7398
  660MOL0     H87072   7.996   5.136   9.137 -1.1509  0.2512 -1.8224
  660MOL0     H87073   7.707   5.338   9.253  1.1160 -0.8062  0.1369
  660MOL0     H87074   7.475   5.211   9.277 -3.7878  2.5755  0.3667
  660MOL0     H87075   7.408   5.128   9.137  0.0125  0.3534 -0.7641
  660MOL0     H87076   7.386   5.344   9.024  2.2934  0.4963  0.4350
  660MOL0     H87077   7.460   5.431   9.149 -2.6918  2.1090 -2.2862
  660MOL0     H87078   7.202   5.265   9.181 -0.2643  0.0382 -0.5999
  660MOL0     H87079   7.282   5.348   9.314 -2.6480 -0.8787  0.3094
  660MOL0     H87080   7.255   5.566   9.196  2.3505 -1.0319  1.2079
  660MOL0     H87081   7.110   5.508   9.233  3.7085  2.1695  3.0360
  660MOL0     H87082   7.164   5.277   8.884 -1.1960 -1.4049 -0.8998
  660MOL0     H87083   6.952   5.159   8.797 -1.0059 -0.4588  1.7504
  660MOL0     H87084   6.588   5.247   8.604 -1.7230  0.0482 -4.4728
  660MOL0     H87085   6.421   5.118   8.484  0.6630  0.4679 -0.5965
  660MOL0     H87086   6.101   5.185   8.437  2.9459 -1.3964 -0.2417
  660MOL0     H87087   6.007   5.179   8.586 -1.5568 -1.3116  0.1477
  660MOL0     H87088   5.952   4.920   8.534 -2.5557 -1.0516 -0.9266
  660MOL0     H87089   6.020   4.960   8.379 -2.7623 -2.4523 -0.2493
  660MOL0     H87090   5.866   5.133   8.342 -0.9450  1.9840  1.9400
  660MOL0     H87091   5.785   5.107   8.491 -2.0668  1.5618 -1.8432
  660MOL0     H87092   5.811   4.904   8.264 -0.1832  0.5720 -0.0191
  660MOL0     H87093   5.734   4.880   8.420  1.1318  0.7059  0.1617
  660MOL0     H87094   5.655   5.087   8.217  0.9742 -1.3961 -1.7066
  660MOL0     H87095   5.565   5.049   8.376  0.2858 -2.3774  0.5681
  660MOL0     H87096   5.525   4.822   8.287 -2.1008  0.8778  0.4030
  660MOL0     H87097   5.596   4.878   8.130  0.6282  1.8078 -1.0511
  660MOL0     H87098   5.358   4.988   8.302 -1.1601 -0.0731 -0.8124
  660MOL0     H87099   5.406   5.057   8.146 -1.3870 -1.0010 -1.3643
  660MOL0     H87100   5.346   4.872   8.029  1.7411  2.9379  0.7930
  660MOL0     H87101   5.217   4.926   8.130  1.5067  3.1490  1.9809
  660MOL0     H87102   6.154   5.159   8.823  0.8668 -2.3470 -0.5721
  660MOL0     H87103   6.337   5.277   8.949  0.1328 -0.0486  0.5533
  660MOL0     H87104   6.726   5.455   8.996 -1.9436 -2.0134 -0.9522
  660MOL0     H87105   6.922   5.585   9.059 -1.6573 -0.3460 -0.8172
  660MOL0     H87106   8.914   5.680   8.789  0.8520  1.2783  0.4509
  660MOL0     H87107   9.122   5.753   8.675 -1.5668 -0.3045  1.4090
  660MOL0     H87108   9.527   5.797   8.705 -0.1859 -0.2607 -0.5900
  660MOL0     H87109   9.736   5.903   8.624  2.4624 -2.0432 -0.3656
  660MOL0     H87110   9.949   5.947   8.251 -1.4049 -0.8842 -3.7397
  660MOL0     H87111   9.869   5.801   8.218  1.9788 -3.1607 -0.7091
  660MOL0     H87112  10.050   5.681   8.366  2.0620 -0.4532 -0.6217
  660MOL0     H87113  10.102   5.748   8.211  1.0795 -0.7505  0.2666
  660MOL0     H87114  10.165   5.811   8.501  1.6821 -1.0636  0.2883
  660MOL0     H87115  10.138   5.960   8.408 -2.4404 -1.1769 -1.0843
  660MOL0     H87116  10.315   5.852   8.235  0.3380 -1.7803 -0.3042
  660MOL0     H87117  10.377   5.886   8.407 -1.6161  0.0001  1.5766
  660MOL0     H87118  10.398   5.474   8.359  0.1629 -0.1036 -1.0928
  660MOL0     H87119   9.757   5.650   8.280 -0.7580  0.1195  0.5324
  660MOL0     H87120   9.589   5.489   8.381 -1.0357  2.0618 -2.4617
  661MOL0     O87121   4.040   6.504   5.193 -0.5514  0.0942 -0.9510
  661MOL0     C87122   4.111   6.546   5.285  0.0680  0.7123  0.3894
  661MOL0     O87123   4.082   6.659   5.358  0.0697  0.0223 -0.1770
  661MOL0     C87124   3.957   6.708   5.343  0.4608  0.0187  0.0395
  661MOL0     C87125   3.925   6.830   5.282  0.2234  0.2468  0.0618
  661MOL0     C87126   3.793   6.873   5.267  1.0069 -0.1467 -0.2055
  661MOL0     C87127   3.689   6.798   5.327  0.0942 -0.8484  0.4823
  661MOL0     O87128   3.566   6.853   5.306 -0.3715 -0.4310 -0.1738
  661MOL0     C87129   3.451   6.778   5.359 -0.4251 -1.0099  0.1023
  661MOL0     C87130   3.332   6.857   5.310 -0.7676 -0.4465 -0.3214
  661MOL0     C87131   3.188   6.802   5.323 -0.6305  0.7393  0.4762
  661MOL0     C87132   3.151   6.771   5.467  0.2465  0.8340  0.5652
  661MOL0     C87133   3.003   6.727   5.480  0.0545  0.2320 -0.0157
  661MOL0     C87134   2.953   6.738   5.620 -0.5677 -0.4575 -0.3737
  661MOL0     C87135   2.792   6.743   5.630 -0.0206  0.1484  0.2504
  661MOL0     C87136   2.726   6.618   5.582 -0.3427  0.7365  0.0783
  661MOL0     N87137   2.585   6.645   5.559 -0.0477 -0.3808 -1.0721
  661MOL0     C87138   2.525   6.664   5.444 -0.1747 -0.1237  0.9968
  661MOL0     C87139   2.392   6.673   5.460 -0.0649 -0.3755  0.6069
  661MOL0     C87140   2.280   6.710   5.354  0.3629 -0.6532  0.0549
  661MOL0     C87141   2.144   6.668   5.399 -0.6442  0.0905  0.7554
  661MOL0     C87142   2.051   6.721   5.281  0.9494 -0.1721 -0.0908
  661MOL0     C87143   1.915   6.668   5.295  0.8540  0.2728  0.0942
  661MOL0     O87144   1.865   6.652   5.429 -0.3612 -0.6898  0.4899
  661MOL0     C87145   1.760   6.572   5.443  0.0966 -0.1296  0.2029
  661MOL0     C87146   1.707   6.578   5.572 -0.0125  0.2876 -0.1614
  661MOL0     C87147   1.605   6.489   5.610 -0.2686  0.3345  0.6243
  661MOL0     C87148   1.549   6.396   5.521 -0.4499  0.3305 -0.0607
  661MOL0     C87149   1.463   6.285   5.571  0.2026 -0.4924  0.4595
  661MOL0     O87150   1.405   6.293   5.699  0.3429  0.5289 -0.0920
  661MOL0     C87151   1.318   6.199   5.742  0.1907  0.7712  0.0583
  661MOL0     C87152   1.209   6.149   5.666 -0.1164 -0.3497  0.5836
  661MOL0     C87153   1.121   6.064   5.720 -0.5347 -0.0204 -0.0915
  661MOL0     C87154   1.117   6.043   5.855  0.0609 -0.9329 -0.0639
  661MOL0     O87155   1.013   5.970   5.904  0.1891  0.0048  0.6454
  661MOL0     C87156   1.043   5.851   5.980  0.6310 -0.3985  0.7618
  661MOL0     C87157   0.917   5.778   6.022  0.3989 -0.0963  0.0991
  661MOL0     C87158   0.851   5.843   6.148 -0.1623  0.3562  0.1636
  661MOL0     C87159   0.735   5.754   6.196 -0.3533 -0.1835  0.3651
  661MOL0     C87160   0.629   5.839   6.268 -0.8971  0.4942 -0.0080
  661MOL0     C87161   0.524   5.755   6.337 -0.6931 -0.2826  0.6312
  661MOL0     C87162   0.427   5.689   6.246  0.2574  0.0097  0.3542
  661MOL0     C87163   0.306   5.635   6.332  0.2986 -0.3178  0.6433
  661MOL0    Cl87164   0.167   5.605   6.238 -0.1937  0.2782  0.4474
  661MOL0     C87165   1.213   6.104   5.939 -0.5556  0.5966 -0.8003
  661MOL0     C87166   1.321   6.170   5.876  0.9514 -0.9498  0.5334
  661MOL0     O87167   1.449   6.187   5.495  0.1982 -0.6081 -1.1853
  661MOL0     C87168   1.597   6.397   5.384 -0.3274 -0.5279  1.3970
  661MOL0     C87169   1.708   6.479   5.353  1.1343  0.0273  0.2077
  661MOL0     N87170   2.370   6.639   5.589  0.0187 -0.0964  0.0722
  661MOL0     N87171   2.480   6.626   5.655  0.2690  0.2159 -0.4962
  661MOL0     C87172   3.719   6.686   5.406  0.4869  0.4250  0.3629
  661MOL0     C87173   3.846   6.641   5.410 -0.5270  1.0061  1.1560
  661MOL0     C87174   4.251   6.487   5.307  0.1741 -0.5147  0.6141
  661MOL0     C87175   4.337   6.543   5.402 -0.1562 -0.4655 -0.0476
  661MOL0     C87176   4.470   6.511   5.409  0.3793 -0.5801  0.5815
  661MOL0     C87177   4.515   6.395   5.337 -0.4462  0.4905  0.0400
  661MOL0     O87178   4.640   6.345   5.370 -0.3224 -0.3320  0.4795
  661MOL0     C87179   4.678   6.216   5.312 -0.0965 -0.5332  0.4470
  661MOL0     C87180   4.802   6.171   5.383  0.0940 -0.2378  1.0721
  661MOL0     C87181   4.929   6.232   5.314 -0.0107  0.5898  0.3403
  661MOL0     C87182   5.060   6.224   5.395  0.2416 -0.5298  0.5661
  661MOL0     C87183   5.166   6.308   5.321 -0.4188  0.2465 -0.0902
  661MOL0     C87184   5.251   6.366   5.251  0.6826 -0.6430  0.5471
  661MOL0     C87185   4.428   6.347   5.240  0.3681  0.3056  0.1941
  661MOL0     C87186   4.295   6.380   5.232  0.4631 -0.0067  0.7488
  661MOL0     H87187   4.016   6.882   5.252  0.7075 -0.0224  1.0094
  661MOL0     H87188   3.753   6.963   5.221 -0.0695  0.2347  1.4018
  661MOL0     H87189   3.451   6.773   5.468  1.0450 -0.5796  0.1510
  661MOL0     H87190   3.447   6.674   5.325 -2.5079 -0.5555 -1.1967
  661MOL0     H87191   3.346   6.876   5.203 -0.6333 -1.9050 -0.5843
  661MOL0     H87192   3.341   6.947   5.371  1.5545 -1.1941  0.5754
  661MOL0     H87193   3.188   6.703   5.277 -2.4335  0.4850  0.9175
  661MOL0     H87194   3.108   6.863   5.279  0.6876  1.5634 -0.8662
  661MOL0     H87195   3.216   6.698   5.516  4.4980  1.1286 -3.8228
  661MOL0     H87196   3.170   6.861   5.527  3.0684  1.6999 -1.4167
  661MOL0     H87197   3.004   6.624   5.442  3.8352  0.4934 -1.0143
  661MOL0     H87198   2.940   6.777   5.406  1.1092  0.3514 -0.8582
  661MOL0     H87199   2.997   6.832   5.654 -1.9502  0.2567 -0.4906
  661MOL0     H87200   2.995   6.651   5.672 -0.1014 -0.8690 -1.4234
  661MOL0     H87201   2.756   6.763   5.731 -2.1459 -1.0564 -0.2186
  661MOL0     H87202   2.765   6.825   5.564 -1.7595 -0.7683 -0.2466
  661MOL0     H87203   2.740   6.539   5.657  0.1076  1.8185  1.1706
  661MOL0     H87204   2.774   6.578   5.492  0.8970 -0.5889  1.2714
  661MOL0     H87205   2.571   6.676   5.346 -0.6446 -1.9468  0.5049
  661MOL0     H87206   2.311   6.658   5.263 -0.1696 -0.7981 -0.0457
  661MOL0     H87207   2.272   6.818   5.341 -2.4070 -0.5463  1.7819
  661MOL0     H87208   2.116   6.729   5.485 -0.1795  1.3723  0.0233
  661MOL0     H87209   2.127   6.561   5.418 -0.9316 -0.0538 -0.2492
  661MOL0     H87210   2.034   6.829   5.278 -1.2506 -0.3721  2.0468
  661MOL0     H87211   2.092   6.683   5.187  0.2404  0.6532 -0.7443
  661MOL0     H87212   1.918   6.578   5.233  2.1327 -2.4551  3.8049
  661MOL0     H87213   1.853   6.742   5.243  2.3684  2.4292  1.1763
  661MOL0     H87214   1.742   6.643   5.652 -2.2606 -1.5299  2.5110
  661MOL0     H87215   1.554   6.481   5.705 -2.4149 -0.5390 -0.5395
  661MOL0     H87216   1.187   6.162   5.560 -2.0272 -0.2149  0.9557
  661MOL0     H87217   1.045   6.026   5.653  0.0853 -0.6047 -0.4662
  661MOL0     H87218   1.103   5.866   6.070 -1.8843 -3.9262  3.3213
  661MOL0     H87219   1.090   5.773   5.919 -0.8096 -1.2627  0.7146
  661MOL0     H87220   0.937   5.673   6.044 -0.5762  0.0667  1.9550
  661MOL0     H87221   0.845   5.780   5.939  0.6627 -0.3127 -0.1330
  661MOL0     H87222   0.808   5.934   6.105 -2.3907 -0.8390 -0.3425
  661MOL0     H87223   0.921   5.865   6.229  1.1796  0.2674 -0.9407
  661MOL0     H87224   0.682   5.719   6.107 -3.6877  3.2992  0.7372
  661MOL0     H87225   0.781   5.673   6.254 -0.0430  1.0225  1.8784
  661MOL0     H87226   0.578   5.896   6.190 -1.9376  0.6021  0.7428
  661MOL0     H87227   0.678   5.904   6.341 -0.0172 -0.3504  0.1763
  661MOL0     H87228   0.471   5.824   6.403 -0.5738  1.0971 -0.6577
  661MOL0     H87229   0.571   5.670   6.387 -0.5685 -1.1180 -0.8374
  661MOL0     H87230   0.387   5.759   6.172  0.6515 -0.0840  0.0460
  661MOL0     H87231   0.469   5.599   6.200 -0.1915  0.2799 -0.6069
  661MOL0     H87232   0.289   5.701   6.417 -1.1446  0.2685 -0.0741
  661MOL0     H87233   0.341   5.549   6.390  2.1254  0.4390  0.7306
  661MOL0     H87234   1.216   6.092   6.047  1.8277 -0.2509 -0.8958
  661MOL0     H87235   1.409   6.195   5.935  1.4039 -1.0991 -0.0594
  661MOL0     H87236   1.550   6.336   5.307 -1.0754  1.0458  0.5651
  661MOL0     H87237   1.738   6.483   5.249 -2.0426  3.0616 -0.7831
  661MOL0     H87238   3.648   6.635   5.470 -1.8522  1.6131 -1.1428
  661MOL0     H87239   3.856   6.551   5.470 -1.5702 -1.0917 -1.6091
  661MOL0     H87240   4.304   6.623   5.467 -1.1629 -0.8986 -0.0076
  661MOL0     H87241   4.542   6.553   5.479  0.6976 -2.1397  1.2326
  661MOL0     H87242   4.676   6.223   5.203 -2.1128  1.4474  0.5350
  661MOL0     H87243   4.601   6.144   5.341 -2.8539  1.2551 -1.8810
  661MOL0     H87244   4.796   6.209   5.485 -0.6559 -2.4232  1.8909
  661MOL0     H87245   4.799   6.062   5.370 -0.6953  0.1075 -3.3086
  661MOL0     H87246   4.902   6.330   5.274 -2.0932 -1.1605 -3.0679
  661MOL0     H87247   4.949   6.173   5.224 -1.2159 -1.8005  1.5291
  661MOL0     H87248   5.047   6.262   5.497  0.3662  0.1196  0.3454
  661MOL0     H87249   5.088   6.119   5.383  1.9879 -0.0057 -0.3258
  661MOL0     H87250   5.337   6.411   5.207  0.2326  0.3999  0.7032
  661MOL0     H87251   4.458   6.258   5.185  0.6249 -0.2526  1.2179
  661MOL0     H87252   4.227   6.336   5.159 -2.3917  1.7427  2.1695
  662MOL0     O87253  11.219   8.417  10.530  0.0892 -1.4258 -0.3366
  662MOL0     C87254  11.114   8.456  10.590  0.0835 -0.8471  0.5511
  662MOL0     O87255  11.007   8.383  10.606  0.1910  0.5259  0.2493
  662MOL0     C87256  11.016   8.254  10.557 -0.3629  0.5377 -0.3685
  662MOL0     C87257  10.955   8.221  10.433 -0.0637 -0.4989  0.4667
  662MOL0     C87258  10.951   8.091  10.377  0.7228 -0.6830 -0.0863
  662MOL0     C87259  11.004   7.980  10.452 -0.6091 -0.6723 -0.1606
  662MOL0     O87260  10.990   7.853  10.412 -0.1639 -0.0749 -0.4808
  662MOL0     C87261  10.986   7.744  10.505 -0.3530  0.2277 -1.0634
  662MOL0     C87262  11.010   7.611  10.430 -0.2002 -0.2549  0.0230
  662MOL0     C87263  11.011   7.497  10.529 -0.7201 -0.5145 -0.4878
  662MOL0     C87264  10.901   7.393  10.508 -0.3682 -0.3428 -1.0928
  662MOL0     C87265  10.942   7.254  10.557  0.7018  0.4285  0.0648
  662MOL0     C87266  10.830   7.137  10.546  0.0672  1.2596 -0.8336
  662MOL0     C87267  10.771   7.112  10.409 -0.7511 -0.2038  0.4339
  662MOL0     C87268  10.879   7.050  10.323 -0.5007 -0.0253  0.2471
  662MOL0     N87269  10.808   6.991  10.206  0.0487 -0.3062  0.5705
  662MOL0     C87270  10.812   6.852  10.183  0.7421 -0.3916 -0.7170
  662MOL0     C87271  10.729   6.846  10.081  0.8424  1.0479  0.5410
  662MOL0     C87272  10.672   6.714  10.031  1.0205 -0.7835  0.5622
  662MOL0     C87273  10.550   6.737   9.937 -0.1813  0.1753  0.8771
  662MOL0     C87274  10.418   6.747  10.021 -0.2268  0.9487  0.6453
  662MOL0     C87275  10.300   6.790   9.942 -0.1746  0.0509 -0.6867
  662MOL0     O87276  10.188   6.789  10.038  0.5981 -0.0951  0.4260
  662MOL0     C87277  10.066   6.772   9.986 -0.1436 -0.1158  0.0408
  662MOL0     C87278   9.982   6.687  10.050 -0.3887 -0.1414  0.3072
  662MOL0     C87279   9.844   6.675  10.020 -0.3944  0.3152  0.4069
  662MOL0     C87280   9.798   6.745   9.907 -0.7570 -0.6687 -0.9725
  662MOL0     C87281   9.650   6.751   9.884 -0.5967 -0.2475  0.9653
  662MOL0     O87282   9.573   6.700   9.977 -0.3336  0.4831 -0.6055
  662MOL0     C87283   9.445   6.659   9.951  0.3850 -0.4383  0.2748
  662MOL0     C87284   9.422   6.570   9.847  0.0689 -0.0186 -0.1727
  662MOL0     C87285   9.296   6.513   9.832  0.2990 -0.1123 -0.5459
  662MOL0     C87286   9.186   6.539   9.923  0.0952 -0.0299 -0.3098
  662MOL0     O87287   9.058   6.490   9.888 -0.5449  0.0588  0.7592
  662MOL0     C87288   8.948   6.504   9.976  0.4593  0.2385  0.9566
  662MOL0     C87289   8.819   6.459   9.903 -0.9044 -0.4296 -0.9252
  662MOL0     C87290   8.711   6.411   9.997 -0.3461 -0.7236  0.7049
  662MOL0     C87291   8.633   6.513  10.089 -0.2444  0.4775  1.0578
  662MOL0     C87292   8.510   6.441  10.161 -1.0015  0.8469 -0.0562
  662MOL0     C87293   8.377   6.446  10.094  0.2923  0.7955 -0.9517
  662MOL0     C87294   8.252   6.407  10.180 -0.6019 -1.0361  0.7857
  662MOL0     C87295   8.144   6.507  10.152 -0.4782 -0.1549 -0.1838
  662MOL0    Cl87296   8.063   6.489   9.995 -0.0819  0.6202  0.2366
  662MOL0     C87297   9.211   6.622  10.035 -0.5525 -0.0081 -0.7637
  662MOL0     C87298   9.345   6.683  10.048  0.3800  0.0132 -0.2069
  662MOL0     O87299   9.607   6.810   9.783 -0.3353  0.0392 -0.0473
  662MOL0     C87300   9.884   6.843   9.840 -0.5331 -0.1569  0.2877
  662MOL0     C87301  10.018   6.859   9.883  0.6896  0.0597  0.7342
  662MOL0     N87302  10.689   6.968  10.036 -0.1660 -0.1246  0.6764
  662MOL0     N87303  10.747   7.054  10.103 -0.4044 -0.0557  0.2288
  662MOL0     C87304  11.071   8.010  10.575  1.2994  0.3098 -0.0655
  662MOL0     C87305  11.077   8.147  10.628  0.0212  0.4064 -0.2665
  662MOL0     C87306  11.119   8.594  10.651 -0.1399 -0.2210 -0.5011
  662MOL0     C87307  11.017   8.639  10.733 -0.2629  0.1204 -0.7161
  662MOL0     C87308  11.028   8.778  10.784  0.0468  0.0732 -0.1726
  662MOL0     C87309  11.132   8.862  10.751 -0.6731 -0.4402 -0.0700
  662MOL0     O87310  11.138   8.981  10.814  0.5574 -0.4050 -0.0188
  662MOL0     C87311  11.269   9.037  10.835 -0.0946 -0.0900 -0.4028
  662MOL0     C87312  11.271   9.166  10.932 -0.3514  0.3656  0.8291
  662MOL0     C87313  11.406   9.174  11.001  0.0511  0.2087  0.2371
  662MOL0     C87314  11.425   9.061  11.118 -0.0435 -0.5772 -0.3127
  662MOL0     C87315  11.547   9.105  11.192 -0.1253 -0.1600  0.2518
  662MOL0     C87316  11.626   9.175  11.252 -0.0431  0.9942  0.8552
  662MOL0     C87317  11.234   8.810  10.674  0.2730 -0.5744  0.2956
  662MOL0     C87318  11.232   8.678  10.622 -0.2621  0.2530  0.0256
  662MOL0     H87319  10.903   8.307  10.392  0.9879  1.3837  2.8270
  662MOL0     H87320  10.900   8.070  10.284 -0.7636  0.2728  0.4789
  662MOL0     H87321  10.893   7.736  10.562  0.5468 -0.9504  0.2988
  662MOL0     H87322  11.065   7.749  10.580 -2.2743  0.1881  1.0694
  662MOL0     H87323  11.108   7.611  10.380  1.7672  0.1671  3.5568
  662MOL0     H87324  10.928   7.591  10.360 -0.6312 -0.1030  0.4811
  662MOL0     H87325  10.994   7.516  10.636 -1.8926  0.3139 -0.8024
  662MOL0     H87326  11.112   7.454  10.531 -1.3185 -1.9791  0.3713
  662MOL0     H87327  10.813   7.431  10.562  0.8269  0.7135  0.2026
  662MOL0     H87328  10.875   7.381  10.403 -1.2897  0.1379 -0.9351
  662MOL0     H87329  10.965   7.270  10.663 -0.9300 -1.1677  0.7021
  662MOL0     H87330  11.025   7.219  10.496  0.1774  0.4333 -0.6582
  662MOL0     H87331  10.747   7.160  10.613 -1.0670  0.5579 -1.9650
  662MOL0     H87332  10.875   7.048  10.592 -1.2920 -1.2924 -4.0500
  662MOL0     H87333  10.692   7.037  10.413 -1.0879  0.1104  4.9543
  662MOL0     H87334  10.740   7.200  10.352  3.1977  0.6180 -0.7770
  662MOL0     H87335  10.944   6.982  10.378 -0.4229 -0.7141 -0.6713
  662MOL0     H87336  10.943   7.127  10.277  0.2257 -1.1609 -0.6961
  662MOL0     H87337  10.858   6.775  10.243 -1.2919 -0.7384  0.4832
  662MOL0     H87338  10.624   6.664  10.116 -5.6044  1.9402 -0.9307
  662MOL0     H87339  10.753   6.657   9.986  1.8515  0.1546  0.8386
  662MOL0     H87340  10.551   6.654   9.865 -0.3784  0.7538  0.1927
  662MOL0     H87341  10.559   6.827   9.875 -1.7320 -0.2301 -0.0242
  662MOL0     H87342  10.387   6.647  10.051 -0.6973  0.4125 -1.4719
  662MOL0     H87343  10.441   6.812  10.106 -0.7472  1.2967  0.5227
  662MOL0     H87344  10.264   6.711   9.875 -0.0129  1.0061 -1.9203
  662MOL0     H87345  10.308   6.885   9.889  1.9754  0.5480  0.4314
  662MOL0     H87346  10.016   6.618  10.126 -1.2313 -0.0155  0.8093
  662MOL0     H87347   9.785   6.609  10.084  1.5190 -1.2615  0.6690
  662MOL0     H87348   9.507   6.546   9.785 -0.9543  1.5442 -2.2933
  662MOL0     H87349   9.272   6.464   9.737 -0.7889  0.1120 -0.4026
  662MOL0     H87350   8.932   6.606  10.013  1.3205  1.1222 -0.9907
  662MOL0     H87351   8.975   6.447  10.065  1.2456 -0.2425  0.4220
  662MOL0     H87352   8.854   6.378   9.839  1.0071 -0.3754 -0.0288
  662MOL0     H87353   8.776   6.532   9.835 -0.8203 -0.0888 -0.6193
  662MOL0     H87354   8.760   6.333  10.057  2.0356  0.7087  0.7691
  662MOL0     H87355   8.640   6.353   9.938 -1.8496 -0.4067  2.1200
  662MOL0     H87356   8.710   6.547  10.159  2.1965  0.5524 -1.4787
  662MOL0     H87357   8.592   6.601  10.040 -2.0771 -2.2699 -2.8788
  662MOL0     H87358   8.497   6.494  10.257 -1.7819 -1.2850  1.0833
  662MOL0     H87359   8.522   6.333  10.174 -0.4414  0.8539 -0.4697
  662MOL0     H87360   8.370   6.382  10.005 -3.6215  1.5029 -1.3363
  662MOL0     H87361   8.358   6.547  10.055 -0.4750  1.0340  0.0178
  662MOL0     H87362   8.221   6.304  10.159 -3.7482  0.0857 -0.7462
  662MOL0     H87363   8.266   6.421  10.287 -3.5585  0.9095  1.0363
  662MOL0     H87364   8.180   6.609  10.173  1.2744 -0.6585 -0.5418
  662MOL0     H87365   8.064   6.492  10.225  1.5389 -0.4249  2.1270
  662MOL0     H87366   9.133   6.645  10.107  0.2718 -0.5699  0.3422
  662MOL0     H87367   9.379   6.738  10.135  0.2196 -1.3729  0.7719
  662MOL0     H87368   9.834   6.914   9.774 -0.7754 -0.0136  0.6209
  662MOL0     H87369  10.083   6.939   9.851  1.3954 -1.3623 -1.6075
  662MOL0     H87370  11.108   7.932  10.641 -1.7067 -1.5833 -0.3991
  662MOL0     H87371  11.114   8.177  10.725  2.8401  1.2516 -1.5027
  662MOL0     H87372  10.932   8.587  10.777  1.5560 -1.3796  1.2821
  662MOL0     H87373  10.965   8.814  10.864  0.1847 -2.9389  1.4143
  662MOL0     H87374  11.298   9.081  10.739 -1.3623 -0.4986 -0.9920
  662MOL0     H87375  11.338   8.959  10.868 -1.1785 -1.7386 -1.8407
  662MOL0     H87376  11.251   9.260  10.879  2.8184 -0.3209 -1.9094
  662MOL0     H87377  11.194   9.151  11.008 -1.2331  1.2441  0.1388
  662MOL0     H87378  11.422   9.268  11.055  2.7265  0.4027 -0.7655
  662MOL0     H87379  11.480   9.163  10.922  1.6187  0.5639  1.5990
  662MOL0     H87380  11.346   9.066  11.194 -0.2934  2.3902 -0.6758
  662MOL0     H87381  11.424   8.958  11.082 -0.1640 -0.7165  0.0800
  662MOL0     H87382  11.686   9.247  11.302 -0.7234  2.4421 -0.3270
  662MOL0     H87383  11.321   8.870  10.648 -1.4582  1.6693 -0.6377
  662MOL0     H87384  11.310   8.628  10.564 -0.8450 -1.4803  0.6765
  663MOL0     O87385   5.625   5.657   1.144 -0.3301 -0.1704  0.5781
  663MOL0     C87386   5.690   5.748   1.084 -0.1560  0.7926 -0.3500
  663MOL0     O87387   5.646   5.865   1.056 -0.1714  0.6499  0.2413
  663MOL0     C87388   5.514   5.877   1.063  0.7707  0.3403 -0.2621
  663MOL0     C87389   5.429   5.839   0.954 -0.5835 -0.5407  0.4676
  663MOL0     C87390   5.291   5.854   0.967 -0.1018  0.6203  0.0886
  663MOL0     C87391   5.229   5.904   1.076 -0.6518 -0.1420 -0.4327
  663MOL0     O87392   5.095   5.923   1.068  0.0884  0.2279 -0.2996
  663MOL0     C87393   5.055   6.062   1.083 -0.0958 -0.0985 -0.4445
  663MOL0     C87394   4.905   6.076   1.056  0.2948  0.1755 -0.1840
  663MOL0     C87395   4.873   6.220   1.084  0.5933  0.2881 -0.3865
  663MOL0     C87396   4.718   6.253   1.068  0.0336 -0.9029  0.2629
  663MOL0     C87397   4.680   6.223   0.925  0.1188  0.6759  0.0789
  663MOL0     C87398   4.550   6.300   0.894  0.1558 -0.5745  0.9530
  663MOL0     C87399   4.502   6.266   0.746 -0.2099  0.4009  0.3425
  663MOL0     C87400   4.502   6.398   0.665 -0.7525  0.4758 -0.9115
  663MOL0     N87401   4.401   6.497   0.700 -0.5579 -0.2734  0.1133
  663MOL0     C87402   4.273   6.476   0.734  0.3806 -0.6547 -0.4549
  663MOL0     C87403   4.235   6.580   0.816  0.3868 -0.1468  0.1476
  663MOL0     C87404   4.102   6.606   0.874  0.2039  0.2956  0.0271
  663MOL0     C87405   3.996   6.604   0.770 -0.5029  0.6432  0.2620
  663MOL0     C87406   3.862   6.618   0.843 -0.0634  0.9472 -0.0549
  663MOL0     C87407   3.739   6.613   0.757 -0.4820 -1.4363 -0.5140
  663MOL0     O87408   3.634   6.653   0.844  0.0563 -0.2499 -0.9672
  663MOL0     C87409   3.507   6.674   0.811  0.7501  0.0061  0.2727
  663MOL0     C87410   3.417   6.728   0.902  0.6091  0.5557  0.3300
  663MOL0     C87411   3.293   6.767   0.877  1.4398 -0.5018  1.0433
  663MOL0     C87412   3.239   6.722   0.752  0.2965 -0.7022  0.6008
  663MOL0     C87413   3.096   6.744   0.724  0.1695  0.4848 -0.2546
  663MOL0     O87414   3.057   6.709   0.608  0.1326  0.3244  0.2001
  663MOL0     C87415   2.929   6.711   0.561 -0.5148 -0.1983 -0.3928
  663MOL0     C87416   2.830   6.629   0.602  1.4278 -0.5445 -0.6123
  663MOL0     C87417   2.703   6.631   0.543  0.5215 -0.7044  0.6306
  663MOL0     C87418   2.681   6.720   0.439  0.2328  0.0619  0.2305
  663MOL0     O87419   2.564   6.709   0.364  0.1344  0.2142 -0.0543
  663MOL0     C87420   2.495   6.822   0.304 -0.4844  0.0166 -0.4084
  663MOL0     C87421   2.348   6.813   0.331 -0.4773  0.4812  0.2367
  663MOL0     C87422   2.312   6.843   0.476  1.3847 -0.6101  0.1942
  663MOL0     C87423   2.162   6.825   0.484 -0.0788  0.7824  0.1442
  663MOL0     C87424   2.121   6.793   0.623  0.2608 -0.7927 -0.3384
  663MOL0     C87425   1.971   6.795   0.643 -0.0200  0.0666  0.1798
  663MOL0     C87426   1.920   6.670   0.578  0.1347  0.7977  0.4778
  663MOL0     C87427   1.800   6.693   0.478 -0.8996 -0.4711  0.1665
  663MOL0    Cl87428   1.643   6.725   0.555  0.0293 -0.5339  0.0904
  663MOL0     C87429   2.783   6.808   0.398 -0.2745 -0.2959 -0.0641
  663MOL0     C87430   2.903   6.803   0.464 -0.6900 -0.2623 -1.0157
  663MOL0     O87431   3.025   6.792   0.815 -0.6319 -0.5892  0.7126
  663MOL0     C87432   3.318   6.663   0.659 -0.7424 -1.3111  0.2901
  663MOL0     C87433   3.450   6.645   0.686 -0.2389 -0.3300 -0.2579
  663MOL0     N87434   4.339   6.663   0.830 -0.1121  0.1002  0.7031
  663MOL0     N87435   4.434   6.623   0.744  0.3469  0.5258 -0.8850
  663MOL0     C87436   5.309   5.948   1.186 -0.6883 -0.2959  0.0228
  663MOL0     C87437   5.454   5.938   1.177 -0.2460 -0.3255 -0.2020
  663MOL0     C87438   5.830   5.707   1.051 -0.2688  0.0056 -0.2869
  663MOL0     C87439   5.862   5.576   1.033 -0.5010  0.2716  0.3410
  663MOL0     C87440   6.000   5.541   1.018 -0.2570  0.3467 -0.7285
  663MOL0     C87441   6.104   5.633   1.041 -0.3404 -0.2351  0.3439
  663MOL0     O87442   6.227   5.579   1.038 -0.8954  0.0065 -0.3512
  663MOL0     C87443   6.343   5.659   1.054  0.0934  0.2178 -0.2595
  663MOL0     C87444   6.465   5.576   1.013  0.3104  0.1215 -0.5918
  663MOL0     C87445   6.592   5.662   1.006 -0.7821  0.1450 -0.9022
  663MOL0     C87446   6.728   5.595   0.987  0.8576 -0.9076 -0.1241
  663MOL0     C87447   6.733   5.545   0.847  0.1210 -0.0336  0.2226
  663MOL0     C87448   6.752   5.513   0.732  0.4989  0.1320 -1.0482
  663MOL0     C87449   6.070   5.757   1.060 -1.1023 -0.1977 -0.0361
  663MOL0     C87450   5.937   5.802   1.052 -0.2557 -0.0995 -0.4862
  663MOL0     H87451   5.478   5.822   0.859 -1.2606  2.1628 -0.4594
  663MOL0     H87452   5.228   5.827   0.882  1.1440  2.1981 -1.4253
  663MOL0     H87453   5.113   6.119   1.009 -1.4492 -0.6985 -2.0435
  663MOL0     H87454   5.078   6.100   1.183 -1.9220  1.5061 -0.5910
  663MOL0     H87455   4.848   6.009   1.121 -2.2553  1.9845 -0.3946
  663MOL0     H87456   4.895   6.052   0.949  1.0186 -0.3417 -0.1429
  663MOL0     H87457   4.923   6.279   1.006  2.6849 -1.9001 -0.8303
  663MOL0     H87458   4.913   6.249   1.181  1.5838  0.3454 -0.7957
  663MOL0     H87459   4.667   6.193   1.144 -0.9970 -1.6912 -1.0195
  663MOL0     H87460   4.689   6.356   1.091  1.2365 -0.2929 -0.8115
  663MOL0     H87461   4.665   6.115   0.926  2.9520  0.1440 -1.9572
  663MOL0     H87462   4.764   6.239   0.857  1.7289  0.2459  1.8756
  663MOL0     H87463   4.574   6.406   0.907  0.9134 -0.7695  1.1962
  663MOL0     H87464   4.469   6.282   0.964 -0.2982 -0.3291  0.4969
  663MOL0     H87465   4.571   6.202   0.690 -1.2711  2.2563 -3.3866
  663MOL0     H87466   4.395   6.243   0.754 -0.9843  3.4425 -0.0936
  663MOL0     H87467   4.506   6.377   0.558 -3.6044 -4.7941 -0.3220
  663MOL0     H87468   4.597   6.445   0.693  0.1938 -1.9223  0.2315
  663MOL0     H87469   4.208   6.396   0.701 -0.5999  0.8724 -2.4069
  663MOL0     H87470   4.099   6.691   0.943 -1.0725 -0.9718  1.6187
  663MOL0     H87471   4.091   6.517   0.936  2.8718  0.0792  0.3361
  663MOL0     H87472   3.996   6.510   0.715  0.4255  1.5833 -1.4304
  663MOL0     H87473   4.015   6.689   0.703  1.2551  1.9213  2.2652
  663MOL0     H87474   3.852   6.532   0.909  0.2489 -0.9007 -2.3037
  663MOL0     H87475   3.864   6.719   0.885 -1.2037  0.2733  1.7469
  663MOL0     H87476   3.712   6.511   0.727  1.2698 -1.7513 -1.1623
  663MOL0     H87477   3.747   6.679   0.670  1.5020  1.7535  1.8822
  663MOL0     H87478   3.464   6.746   0.998  0.7185 -0.2337  0.4309
  663MOL0     H87479   3.227   6.801   0.956  1.3719  1.2085  0.3008
  663MOL0     H87480   2.831   6.554   0.680 -1.6210 -2.2050 -1.9858
  663MOL0     H87481   2.633   6.558   0.581  2.1369 -1.6424  1.9572
  663MOL0     H87482   2.520   6.837   0.198  0.0722  0.1987 -0.2563
  663MOL0     H87483   2.526   6.906   0.368 -2.1763  2.0131 -2.0511
  663MOL0     H87484   2.317   6.713   0.300 -0.0206  0.1843  0.7134
  663MOL0     H87485   2.299   6.890   0.271 -1.8016 -0.2320  0.3706
  663MOL0     H87486   2.324   6.949   0.501 -1.2025  0.1378 -1.2885
  663MOL0     H87487   2.366   6.780   0.546 -0.5183 -1.6754  0.7857
  663MOL0     H87488   2.104   6.909   0.444  0.8421  1.4459  0.1485
  663MOL0     H87489   2.133   6.747   0.413 -2.1471 -0.2420  2.0003
  663MOL0     H87490   2.169   6.864   0.690  1.4245 -0.9162 -1.0214
  663MOL0     H87491   2.156   6.699   0.666 -3.5644 -2.1763  0.1110
  663MOL0     H87492   1.929   6.888   0.603  0.9703  1.2304  1.7253
  663MOL0     H87493   1.946   6.788   0.750 -0.4670 -0.5973  0.0388
  663MOL0     H87494   1.992   6.608   0.523  0.2800 -0.3676  1.9158
  663MOL0     H87495   1.882   6.609   0.660 -0.6589 -2.2590 -1.9734
  663MOL0     H87496   1.787   6.611   0.407 -0.1643 -0.1214 -0.3783
  663MOL0     H87497   1.838   6.784   0.431 -2.6593  1.5350  2.3627
  663MOL0     H87498   2.773   6.886   0.322  3.6874  0.3518 -0.1024
  663MOL0     H87499   2.980   6.877   0.442 -0.8855 -0.4598 -2.4601
  663MOL0     H87500   3.293   6.633   0.558  1.6017  0.0089 -0.7695
  663MOL0     H87501   3.513   6.605   0.606  0.6657 -0.8173  0.6669
  663MOL0     H87502   5.273   5.994   1.277  0.2280 -1.4277  0.9864
  663MOL0     H87503   5.527   5.987   1.240  2.0443 -0.3415 -2.6712
  663MOL0     H87504   5.789   5.496   1.036  0.5746 -0.7441  3.2904
  663MOL0     H87505   6.019   5.437   0.993 -0.2361  0.6781 -2.2075
  663MOL0     H87506   6.356   5.683   1.159 -0.9115  3.1584 -0.7002
  663MOL0     H87507   6.334   5.745   0.987 -0.0200 -1.4808 -2.5639
  663MOL0     H87508   6.493   5.501   1.087  2.4269  1.6630  0.2841
  663MOL0     H87509   6.442   5.524   0.920 -0.8487  1.0912 -0.8664
  663MOL0     H87510   6.605   5.705   1.106  1.0058 -1.5911 -0.3243
  663MOL0     H87511   6.579   5.751   0.943 -0.9774 -0.7343 -2.1589
  663MOL0     H87512   6.804   5.674   0.996  3.1138 -2.8692 -0.8364
  663MOL0     H87513   6.747   5.508   1.050  2.2095 -0.6873 -0.1812
  663MOL0     H87514   6.774   5.480   0.632  0.9663 -2.8783 -0.0613
  663MOL0     H87515   6.147   5.830   1.080 -0.8955 -0.2104 -0.7559
  663MOL0     H87516   5.908   5.900   1.089  0.5229  0.1348 -0.4914
  664MOL0     O87517   4.839   9.738  10.866 -0.6801 -0.2535  0.0185
  664MOL0     C87518   4.874   9.649  10.792 -0.5355  0.1261 -0.0636
  664MOL0     O87519   4.792   9.588  10.705 -0.3563  0.2670 -0.1828
  664MOL0     C87520   4.667   9.629  10.666 -0.7060 -0.6299  0.6543
  664MOL0     C87521   4.646   9.615  10.536 -0.5196 -0.1848  0.5548
  664MOL0     C87522   4.527   9.664  10.484  0.9163 -0.7297 -0.3743
  664MOL0     C87523   4.428   9.721  10.563  0.3605  0.5197 -0.8749
  664MOL0     O87524   4.310   9.739  10.503  0.0708 -0.7536 -0.0249
  664MOL0     C87525   4.238   9.867  10.529 -0.6404  0.9721  0.3192
  664MOL0     C87526   4.107   9.858  10.455  0.0243  0.1413 -0.7984
  664MOL0     C87527   4.009   9.740  10.494  0.0349  0.2482 -0.5810
  664MOL0     C87528   3.954   9.736  10.636  0.0621  0.6390  0.0377
  664MOL0     C87529   3.878   9.608  10.653  0.0151  0.4373 -0.3401
  664MOL0     C87530   3.843   9.574  10.797  0.2141  1.2042 -0.0045
  664MOL0     C87531   3.822   9.693  10.889 -0.0747 -0.1117 -0.7249
  664MOL0     C87532   3.698   9.775  10.839 -0.1074  0.0000 -0.2234
  664MOL0     N87533   3.651   9.867  10.948  0.4590 -0.3285 -0.2073
  664MOL0     C87534   3.583   9.829  11.053  0.0910  0.8645 -0.2866
  664MOL0     C87535   3.557   9.940  11.116  0.3371 -0.2333 -0.3776
  664MOL0     C87536   3.499   9.974  11.245  0.2457  0.5102 -0.6253
  664MOL0     C87537   3.585  10.039  11.360 -0.5065  0.7276  0.5089
  664MOL0     C87538   3.715   9.969  11.373  0.7278 -0.6763  0.9140
  664MOL0     C87539   3.800  10.036  11.480  0.7782 -0.2302 -0.2973
  664MOL0     O87540   3.853  10.150  11.407 -0.7274  0.2290  0.1655
  664MOL0     C87541   3.986  10.195  11.436 -0.1798  0.2772 -0.4841
  664MOL0     C87542   4.036  10.289  11.356  0.3360  0.2835 -0.0492
  664MOL0     C87543   4.176  10.324  11.350  1.0198 -0.3434  0.4084
  664MOL0     C87544   4.253  10.274  11.455 -0.6608 -0.3326  0.3877
  664MOL0     C87545   4.399  10.309  11.458  0.2282  0.9308 -0.3128
  664MOL0     O87546   4.453  10.341  11.336  0.4209  0.8180  0.2150
  664MOL0     C87547   4.581  10.386  11.320 -0.4041 -0.7068 -0.6626
  664MOL0     C87548   4.612  10.529  11.314  0.0465  0.4753 -0.4337
  664MOL0     C87549   4.740  10.581  11.326  1.1414  0.5307 -0.4955
  664MOL0     C87550   4.849  10.491  11.319  0.3734 -0.1591  0.6371
  664MOL0     O87551   4.974  10.550  11.332  0.5449  0.3613 -0.1367
  664MOL0     C87552   5.091  10.465  11.350 -0.2261  0.1614 -0.4449
  664MOL0     C87553   5.204  10.563  11.310 -0.3087  0.1229  0.1683
  664MOL0     C87554   5.334  10.485  11.283  0.0669 -0.8919  0.7593
  664MOL0     C87555   5.449  10.564  11.212  0.1724 -0.4304  0.9233
  664MOL0     C87556   5.498  10.696  11.280 -0.1946 -0.6989  0.7733
  664MOL0     C87557   5.559  10.669  11.415 -0.2319  1.2598  0.0777
  664MOL0     C87558   5.566  10.794  11.502  0.1238  1.1501  0.1278
  664MOL0     C87559   5.676  10.881  11.457 -0.0586 -0.3053 -0.6948
  664MOL0    Cl87560   5.681  11.030  11.564 -0.2646  0.2309 -0.1753
  664MOL0     C87561   4.824  10.355  11.299  0.4772 -0.0314  0.3751
  664MOL0     C87562   4.696  10.304  11.316  0.1048  0.1033 -0.4041
  664MOL0     O87563   4.464  10.301  11.561  0.7119  0.5793  0.2253
  664MOL0     C87564   4.200  10.189  11.557 -0.0845 -0.3025  0.5159
  664MOL0     C87565   4.065  10.142  11.537 -0.6109 -0.5432 -0.7269
  664MOL0     N87566   3.601  10.044  11.042 -0.3540 -0.0944  0.9329
  664MOL0     N87567   3.660  10.000  10.939  0.6573  0.3634 -0.3000
  664MOL0     C87568   4.459   9.739  10.695 -0.7464 -0.0331 -0.9151
  664MOL0     C87569   4.576   9.693  10.749 -0.0083  0.4277  0.0432
  664MOL0     C87570   5.019   9.597  10.809 -0.4619  0.4941 -0.7794
  664MOL0     C87571   5.111   9.656  10.897 -0.0897 -0.2073  0.8401
  664MOL0     C87572   5.246   9.611  10.917  0.3331 -0.9143  0.0703
  664MOL0     C87573   5.288   9.497  10.846  0.1495 -0.1689 -0.9165
  664MOL0     O87574   5.414   9.443  10.859 -0.6465 -0.6273  0.6239
  664MOL0     C87575   5.526   9.513  10.927  0.1243  0.4150  0.3880
  664MOL0     C87576   5.575   9.623  10.839  0.5604 -0.5229 -0.0218
  664MOL0     C87577   5.663   9.732  10.909 -0.1687 -0.2557 -1.0755
  664MOL0     C87578   5.588   9.806  11.029 -0.5800  0.5137  0.4569
  664MOL0     C87579   5.674   9.915  11.078 -0.2103  0.3136 -0.1511
  664MOL0     C87580   5.765  10.000  11.103  1.1952 -0.2813 -0.4781
  664MOL0     C87581   5.201   9.432  10.766  0.4827 -0.2809  1.2632
  664MOL0     C87582   5.070   9.480  10.746  0.3283  0.3027  0.0105
  664MOL0     H87583   4.723   9.566  10.477 -0.7211 -0.1662  0.2734
  664MOL0     H87584   4.522   9.650  10.377  1.3712 -4.1039 -0.0713
  664MOL0     H87585   4.296   9.957  10.503  0.7740 -0.0691 -0.2764
  664MOL0     H87586   4.219   9.877  10.637 -0.2647  2.0733  0.3023
  664MOL0     H87587   4.133   9.845  10.349 -3.7576 -2.8254 -1.5774
  664MOL0     H87588   4.050   9.951  10.464  1.4833  1.0313 -0.3359
  664MOL0     H87589   4.077   9.655  10.485 -1.1336 -0.8771  0.8983
  664MOL0     H87590   3.926   9.725  10.425 -1.3247  0.1105  1.0259
  664MOL0     H87591   4.041   9.740  10.703  0.5049  2.1316 -0.5879
  664MOL0     H87592   3.907   9.831  10.663  1.1232  1.2680 -0.2337
  664MOL0     H87593   3.933   9.523  10.612 -1.4490 -2.1891  2.6677
  664MOL0     H87594   3.783   9.629  10.602 -0.8422 -0.4472  0.8267
  664MOL0     H87595   3.936   9.528  10.833 -0.2263 -0.6104 -1.0615
  664MOL0     H87596   3.760   9.503  10.805  2.2844 -1.4981 -0.9976
  664MOL0     H87597   3.802   9.655  10.989 -2.3951  1.3422 -0.5659
  664MOL0     H87598   3.906   9.763  10.890  0.7506 -1.0521 -1.2511
  664MOL0     H87599   3.613   9.711  10.815 -1.3028  1.6867 -0.7237
  664MOL0     H87600   3.729   9.823  10.746  2.3479 -0.9700  0.0334
  664MOL0     H87601   3.556   9.730  11.086 -1.6527  1.5794  0.5623
  664MOL0     H87602   3.465   9.879  11.285  2.7763 -1.1827 -2.2401
  664MOL0     H87603   3.418  10.045  11.225  0.0028 -0.1625 -2.2110
  664MOL0     H87604   3.536  10.044  11.458 -1.6568  2.6368 -0.1044
  664MOL0     H87605   3.612  10.139  11.325  1.7932 -0.9150 -2.9859
  664MOL0     H87606   3.682   9.869  11.403 -1.2422 -1.0787 -2.1606
  664MOL0     H87607   3.764   9.965  11.275 -1.5485  2.2916 -0.5060
  664MOL0     H87608   3.877   9.966  11.515 -0.7480 -3.4152 -2.7691
  664MOL0     H87609   3.736  10.062  11.565  0.1545  1.0407 -1.1177
  664MOL0     H87610   3.968  10.330  11.282 -0.0010 -0.4558 -0.1531
  664MOL0     H87611   4.216  10.376  11.263  0.0434 -3.0525 -1.8307
  664MOL0     H87612   4.525  10.594  11.311 -1.2954 -1.2575 -1.3467
  664MOL0     H87613   4.765  10.685  11.341 -0.1488  0.8390 -0.3896
  664MOL0     H87614   5.086  10.378  11.283 -1.8896 -1.4695  1.6431
  664MOL0     H87615   5.102  10.423  11.450 -1.6858 -0.3250 -0.4533
  664MOL0     H87616   5.222  10.638  11.387  1.0527 -0.4628  0.4429
  664MOL0     H87617   5.171  10.612  11.218 -3.1708 -0.9329  0.5366
  664MOL0     H87618   5.313  10.409  11.206  0.2986  1.4317 -1.7464
  664MOL0     H87619   5.374  10.431  11.369 -1.8138 -0.6005  1.8665
  664MOL0     H87620   5.531  10.495  11.190  0.1838 -0.2389  0.3634
  664MOL0     H87621   5.410  10.592  11.114  1.0001  1.2070  1.0318
  664MOL0     H87622   5.415  10.767  11.288  1.7722  2.3489 -2.5886
  664MOL0     H87623   5.577  10.736  11.215 -2.1210  0.2572 -1.0982
  664MOL0     H87624   5.657  10.622  11.400 -1.3620 -1.6463  1.0032
  664MOL0     H87625   5.514  10.584  11.468  2.2303 -0.8534 -0.9509
  664MOL0     H87626   5.472  10.850  11.504  0.0141  0.9465  1.2439
  664MOL0     H87627   5.583  10.766  11.606  2.1372  0.6693 -0.2969
  664MOL0     H87628   5.662  10.906  11.352  1.9851  0.7244 -0.7794
  664MOL0     H87629   5.764  10.817  11.474 -1.8727 -3.0020 -0.7916
  664MOL0     H87630   4.906  10.287  11.283 -0.1489 -0.3382 -1.8901
  664MOL0     H87631   4.676  10.197  11.319 -0.0103  0.1443  0.5198
  664MOL0     H87632   4.255  10.155  11.644 -0.5602  0.1538  1.0055
  664MOL0     H87633   4.034  10.061  11.603 -0.6992 -1.3823 -1.7595
  664MOL0     H87634   4.387   9.779  10.766 -0.6744 -0.6207 -0.5085
  664MOL0     H87635   4.600   9.694  10.855 -1.3263  0.0151  0.3548
  664MOL0     H87636   5.083   9.748  10.947 -0.2516  2.5483 -3.6945
  664MOL0     H87637   5.298   9.659  11.000 -2.4914  0.7046  1.0300
  664MOL0     H87638   5.606   9.441  10.946  0.9379  0.8233 -1.3408
  664MOL0     H87639   5.474   9.544  11.018 -3.9475 -1.0470 -1.1960
  664MOL0     H87640   5.645   9.582  10.766  0.8601 -1.0827  0.5707
  664MOL0     H87641   5.498   9.675  10.782  0.5386  0.1114  0.5667
  664MOL0     H87642   5.695   9.807  10.835  0.8482 -0.3110 -0.7095
  664MOL0     H87643   5.761   9.695  10.940 -0.3033 -1.1646 -1.6914
  664MOL0     H87644   5.488   9.843  11.004  0.2919  3.4773  0.9313
  664MOL0     H87645   5.588   9.741  11.117 -1.7546  0.1140  0.1712
  664MOL0     H87646   5.845  10.071  11.115  1.7977 -1.3008  2.2117
  664MOL0     H87647   5.227   9.348  10.702  3.6095 -0.1076  2.1622
  664MOL0     H87648   5.013   9.427  10.671 -0.7097 -0.6235  1.3987
  665MOL0     O87649   5.197   2.435   8.526 -0.0968  0.0769  0.5794
  665MOL0     C87650   5.194   2.557   8.498 -0.3657  0.5070 -0.4080
  665MOL0     O87651   5.083   2.625   8.452  0.4012 -0.4005 -0.5944
  665MOL0     C87652   4.974   2.555   8.424 -0.1600  0.1103 -0.1994
  665MOL0     C87653   4.860   2.570   8.502 -0.6695 -0.0088  1.0358
  665MOL0     C87654   4.739   2.506   8.472  0.0782 -0.4914 -0.7082
  665MOL0     C87655   4.736   2.431   8.352  0.2278 -0.2249 -0.1927
  665MOL0     O87656   4.626   2.374   8.299 -0.3255  0.3752  0.8653
  665MOL0     C87657   4.537   2.315   8.397  0.3415  0.5297  0.5041
  665MOL0     C87658   4.424   2.233   8.326  0.8543 -0.3946 -0.2590
  665MOL0     C87659   4.335   2.167   8.437  0.0960  0.1397 -0.7225
  665MOL0     C87660   4.196   2.135   8.399  0.1930 -0.4820 -0.5982
  665MOL0     C87661   4.109   2.063   8.511  1.0516  0.5247 -0.2064
  665MOL0     C87662   3.958   2.041   8.479 -0.0351  0.0948 -0.7285
  665MOL0     C87663   3.936   1.925   8.392 -0.2770  0.4484  1.1092
  665MOL0     C87664   3.804   1.862   8.421  0.4182 -0.7564 -1.5460
  665MOL0     N87665   3.695   1.942   8.372 -0.5335  0.1927  1.0934
  665MOL0     C87666   3.666   1.955   8.236 -0.1406  0.1645  0.1402
  665MOL0     C87667   3.578   2.052   8.222 -0.2841 -0.5040 -0.4528
  665MOL0     C87668   3.508   2.087   8.102  0.0185  0.3287  0.0312
  665MOL0     C87669   3.366   2.152   8.113 -0.9956 -0.0153  0.0304
  665MOL0     C87670   3.258   2.053   8.166 -1.2969  0.1518  0.0463
  665MOL0     C87671   3.152   2.124   8.249 -0.1723  0.4434  0.1641
  665MOL0     O87672   3.073   2.215   8.176 -0.2331 -0.1014  0.5887
  665MOL0     C87673   2.949   2.176   8.129 -0.2207  0.5076  0.6312
  665MOL0     C87674   2.924   2.042   8.096 -0.2158 -0.0841  0.7151
  665MOL0     C87675   2.805   2.013   8.035  0.4659  0.2766 -0.3949
  665MOL0     C87676   2.695   2.105   8.016 -1.4506 -1.1216  0.1658
  665MOL0     C87677   2.561   2.064   7.968  0.4471 -0.5812  0.4313
  665MOL0     O87678   2.535   1.928   7.947  0.2138 -0.5138 -0.5918
  665MOL0     C87679   2.427   1.902   7.866 -0.2820  0.0677 -0.2543
  665MOL0     C87680   2.301   1.857   7.922 -1.6909 -0.7732 -0.1169
  665MOL0     C87681   2.188   1.842   7.839 -0.9231 -0.0848 -0.8448
  665MOL0     C87682   2.206   1.842   7.699  0.9013 -0.0604 -0.1484
  665MOL0     O87683   2.096   1.810   7.623  0.1886  0.2603  0.9286
  665MOL0     C87684   2.069   1.874   7.498  0.4121 -1.0182 -0.1757
  665MOL0     C87685   1.931   1.860   7.449  0.0508 -0.7061 -0.1640
  665MOL0     C87686   1.823   1.894   7.552 -0.2792 -0.1337 -0.3470
  665MOL0     C87687   1.687   1.881   7.493 -0.2034 -0.3163  0.4048
  665MOL0     C87688   1.573   1.918   7.585  0.7468 -0.8869 -0.5254
  665MOL0     C87689   1.576   2.067   7.639 -0.3775 -0.1514 -0.4813
  665MOL0     C87690   1.458   2.117   7.729  0.5311 -0.1452 -0.3124
  665MOL0     C87691   1.486   2.243   7.809  0.0502 -0.1798  0.4155
  665MOL0    Cl87692   1.501   2.391   7.707  0.7054  0.1114 -0.1043
  665MOL0     C87693   2.327   1.880   7.648 -0.6230 -0.1906 -0.6277
  665MOL0     C87694   2.435   1.913   7.731  0.3199 -0.8075 -0.1461
  665MOL0     O87695   2.484   2.153   7.928 -0.2826 -0.2375 -0.2732
  665MOL0     C87696   2.720   2.241   8.048  0.2869 -0.8817  1.0218
  665MOL0     C87697   2.849   2.275   8.087 -0.5790 -0.2119 -0.3831
  665MOL0     N87698   3.554   2.100   8.353 -0.6900 -0.0816  0.2253
  665MOL0     N87699   3.620   2.028   8.441 -0.6608  0.2525 -0.7932
  665MOL0     C87700   4.850   2.402   8.287  0.1195  0.2432  0.1550
  665MOL0     C87701   4.966   2.457   8.323 -0.2945 -0.5013  0.1621
  665MOL0     C87702   5.325   2.630   8.505  0.1422 -0.7872 -0.3271
  665MOL0     C87703   5.437   2.575   8.562 -0.0347 -0.5555 -1.1400
  665MOL0     C87704   5.558   2.648   8.579 -0.4517 -0.5956 -0.1242
  665MOL0     C87705   5.564   2.783   8.542  0.4492 -0.5156  0.0019
  665MOL0     O87706   5.680   2.841   8.564  0.3665 -0.1559 -0.1482
  665MOL0     C87707   5.674   2.938   8.658 -0.7808 -0.3715  0.0988
  665MOL0     C87708   5.801   2.941   8.736 -0.2447  0.1238  0.4274
  665MOL0     C87709   5.919   2.983   8.644  0.8260 -0.0997 -0.8249
  665MOL0     C87710   6.036   3.006   8.740 -0.7990  0.6005  0.1061
  665MOL0     C87711   6.154   3.046   8.660  1.0882  0.0106  0.4407
  665MOL0     C87712   6.245   3.073   8.586 -0.0748 -0.5933 -0.5864
  665MOL0     C87713   5.451   2.838   8.482 -0.1866  0.8594  0.0578
  665MOL0     C87714   5.331   2.764   8.460  0.0991  0.1039 -0.6465
  665MOL0     H87715   4.874   2.649   8.575 -0.8024 -0.0915  1.1510
  665MOL0     H87716   4.657   2.518   8.542  1.8318 -2.1142  1.8050
  665MOL0     H87717   4.469   2.378   8.455 -2.9589 -3.4135  1.3376
  665MOL0     H87718   4.596   2.253   8.465  1.5483 -0.3899 -1.3035
  665MOL0     H87719   4.475   2.161   8.261 -0.2762  0.2579 -1.9389
  665MOL0     H87720   4.364   2.300   8.264 -0.9449  0.2303  2.0234
  665MOL0     H87721   4.326   2.242   8.517 -1.1484 -1.8631  1.1177
  665MOL0     H87722   4.379   2.076   8.478 -3.0995 -0.5277  1.6180
  665MOL0     H87723   4.145   2.225   8.363 -1.5067 -0.4610  1.6469
  665MOL0     H87724   4.210   2.065   8.316 -2.1614 -1.1044 -0.5580
  665MOL0     H87725   4.122   2.114   8.607 -0.7058  0.6827 -0.0219
  665MOL0     H87726   4.159   1.968   8.532  2.1454  1.2319  0.5359
  665MOL0     H87727   3.907   2.126   8.432 -1.3063  0.1037  0.6156
  665MOL0     H87728   3.903   2.028   8.572  0.6661 -2.1198 -0.5635
  665MOL0     H87729   3.945   1.959   8.289 -0.0422 -0.2352  0.8966
  665MOL0     H87730   4.019   1.855   8.408 -0.0613  0.2102 -0.8133
  665MOL0     H87731   3.791   1.838   8.527 -0.4059 -1.3672 -1.7767
  665MOL0     H87732   3.799   1.766   8.368 -0.8355 -2.0566  0.7576
  665MOL0     H87733   3.702   1.897   8.151 -1.0004  1.3040 -1.0347
  665MOL0     H87734   3.498   1.993   8.047  2.8780 -0.6002  0.9211
  665MOL0     H87735   3.569   2.162   8.051  2.0043 -0.1104  1.6488
  665MOL0     H87736   3.329   2.182   8.014  3.4280  1.4713 -1.3898
  665MOL0     H87737   3.367   2.245   8.170  0.9887  1.9700 -2.9899
  665MOL0     H87738   3.223   2.012   8.070  1.1972 -1.3449 -0.3244
  665MOL0     H87739   3.305   1.975   8.226  0.5874  0.4758 -0.9199
  665MOL0     H87740   3.194   2.174   8.336  0.9238  0.6112 -0.4390
  665MOL0     H87741   3.095   2.043   8.295  1.3256 -1.6872 -1.4760
  665MOL0     H87742   2.991   1.958   8.104 -1.2618 -1.3313 -2.3976
  665MOL0     H87743   2.776   1.909   8.023 -0.0703  0.2167  1.2701
  665MOL0     H87744   2.301   1.840   8.029  0.1918 -1.3705 -0.1689
  665MOL0     H87745   2.092   1.815   7.881 -0.9636 -0.9539 -1.4758
  665MOL0     H87746   2.133   1.830   7.422 -0.2822 -1.5216 -0.4845
  665MOL0     H87747   2.098   1.979   7.503 -2.2005 -0.2321  0.1381
  665MOL0     H87748   1.905   1.760   7.413 -2.8642  0.5868 -1.9311
  665MOL0     H87749   1.916   1.917   7.357  1.6695  0.2649  0.1490
  665MOL0     H87750   1.836   2.002   7.568  0.8305 -0.3871  0.5417
  665MOL0     H87751   1.830   1.827   7.638 -1.3757  0.6612  0.3941
  665MOL0     H87752   1.684   1.943   7.403  0.5771 -0.6326  0.1541
  665MOL0     H87753   1.676   1.777   7.462  1.3154 -0.0821 -1.0601
  665MOL0     H87754   1.579   1.848   7.669 -0.1690 -0.1727  0.1678
  665MOL0     H87755   1.478   1.907   7.533  0.5028 -0.7636 -0.1176
  665MOL0     H87756   1.595   2.142   7.562  0.1214  1.4081  1.0687
  665MOL0     H87757   1.660   2.079   7.708 -0.2853  0.4317 -0.6882
  665MOL0     H87758   1.372   2.125   7.662 -0.4610  2.3958  1.1341
  665MOL0     H87759   1.459   2.034   7.800  1.5218 -0.0335 -0.1829
  665MOL0     H87760   1.580   2.239   7.866  0.3574 -0.7587 -0.1215
  665MOL0     H87761   1.400   2.247   7.877  0.8313  2.0355  1.3542
  665MOL0     H87762   2.342   1.886   7.540  3.1833  0.9445 -0.1646
  665MOL0     H87763   2.531   1.942   7.688 -1.1789  1.3586 -2.2578
  665MOL0     H87764   2.631   2.303   8.038  0.0411 -1.1014  1.7581
  665MOL0     H87765   2.875   2.380   8.099  2.1813 -0.7423 -0.9874
  665MOL0     H87766   4.849   2.323   8.212 -0.0891 -0.6367  1.0648
  665MOL0     H87767   5.053   2.426   8.267 -2.0047 -4.8069 -0.5474
  665MOL0     H87768   5.433   2.473   8.598  0.1675 -0.0037  0.5328
  665MOL0     H87769   5.645   2.592   8.608  1.7441  1.2456 -2.6136
  665MOL0     H87770   5.607   2.897   8.735  0.9453 -0.5803  1.5742
  665MOL0     H87771   5.644   3.030   8.607  0.9421  0.7297  0.9730
  665MOL0     H87772   5.780   3.006   8.822  1.3202 -0.8411  1.5942
  665MOL0     H87773   5.830   2.845   8.780  1.0425  0.3478  0.1062
  665MOL0     H87774   5.907   3.067   8.575  1.5839 -0.4119 -1.3464
  665MOL0     H87775   5.941   2.896   8.583  1.8751 -1.6465  1.5949
  665MOL0     H87776   6.016   3.075   8.823 -2.7674 -2.1280  2.0850
  665MOL0     H87777   6.061   2.914   8.794  0.0085  1.2828  0.9210
  665MOL0     H87778   6.330   3.086   8.522  0.1396  0.1834 -0.1545
  665MOL0     H87779   5.444   2.933   8.431 -3.2849 -0.0186 -1.3927
  665MOL0     H87780   5.241   2.814   8.427 -2.0581 -0.6706  3.3938
  666MOL0     O87781   9.381   6.161   0.802  0.5682  0.1460  0.2547
  666MOL0     C87782   9.445   6.262   0.826 -0.3095  0.8845  0.3153
  666MOL0     O87783   9.394   6.389   0.830 -0.4967  0.0104  0.2206
  666MOL0     C87784   9.263   6.408   0.799 -0.1816 -0.1963 -0.2835
  666MOL0     C87785   9.230   6.481   0.685  0.1204 -0.6851 -0.0084
  666MOL0     C87786   9.089   6.509   0.657 -0.1538  0.7971 -0.2231
  666MOL0     C87787   8.983   6.466   0.738 -0.8949 -0.1973  0.3456
  666MOL0     O87788   8.863   6.495   0.693  0.5413  0.8898 -0.5835
  666MOL0     C87789   8.758   6.397   0.726 -0.3600 -1.4325 -0.2688
  666MOL0     C87790   8.666   6.383   0.605 -0.0717 -0.2481  0.1195
  666MOL0     C87791   8.625   6.237   0.557 -0.3602  0.3221  0.5260
  666MOL0     C87792   8.591   6.141   0.673 -0.0123  0.4152  0.9958
  666MOL0     C87793   8.463   6.183   0.742 -0.2122  0.3257 -1.1373
  666MOL0     C87794   8.424   6.092   0.860 -0.5527  0.5270  0.5109
  666MOL0     C87795   8.308   6.141   0.939 -0.4216 -0.3736 -0.1525
  666MOL0     C87796   8.249   6.030   1.025  0.1167  0.0167 -1.9006
  666MOL0     N87797   8.133   6.093   1.087 -0.1123 -0.2259 -1.0926
  666MOL0     C87798   8.126   6.179   1.196 -0.0992 -0.5558  0.3294
  666MOL0     C87799   7.999   6.228   1.200 -1.1352 -0.5195 -0.3189
  666MOL0     C87800   7.961   6.318   1.312 -0.1335 -0.0592 -0.6617
  666MOL0     C87801   7.888   6.431   1.255 -0.5224 -0.0346 -0.4609
  666MOL0     C87802   7.823   6.505   1.377  0.0943 -0.8388 -1.0051
  666MOL0     C87803   7.750   6.633   1.337  0.5880  0.1075 -0.8512
  666MOL0     O87804   7.687   6.665   1.451  0.7366  0.0219  0.3646
  666MOL0     C87805   7.591   6.766   1.450 -1.0101  0.2148  0.0653
  666MOL0     C87806   7.576   6.868   1.352  0.2295  0.2592  0.3313
  666MOL0     C87807   7.470   6.959   1.347 -0.2292  0.8749  0.0151
  666MOL0     C87808   7.373   6.950   1.448 -0.4984 -0.5384 -0.3767
  666MOL0     C87809   7.265   7.047   1.447  0.0869 -0.7248 -0.5676
  666MOL0     O87810   7.275   7.145   1.349  0.6853 -0.3247 -0.1137
  666MOL0     C87811   7.171   7.229   1.337  0.0933 -0.2802  0.9679
  666MOL0     C87812   7.036   7.187   1.310  0.0375  0.1761 -0.4682
  666MOL0     C87813   6.931   7.284   1.308 -0.4423 -0.6237 -1.5675
  666MOL0     C87814   6.963   7.424   1.338  0.2060  0.0136 -0.9167
  666MOL0     O87815   6.870   7.524   1.326 -0.8032  0.5641 -0.9491
  666MOL0     C87816   6.757   7.497   1.415  0.0858 -0.2230  0.0333
  666MOL0     C87817   6.639   7.577   1.354 -0.9477  0.0756  0.2762
  666MOL0     C87818   6.511   7.514   1.398  0.1287  0.1717 -0.8522
  666MOL0     C87819   6.404   7.616   1.377  0.4079  0.1739  0.1309
  666MOL0     C87820   6.260   7.582   1.419 -0.4135 -0.0310  0.0809
  666MOL0     C87821   6.214   7.655   1.544  0.0142  0.5552 -0.1302
  666MOL0     C87822   6.080   7.606   1.606 -0.0078  0.8821 -0.3175
  666MOL0     C87823   6.075   7.452   1.644 -0.3756 -0.2753 -0.9802
  666MOL0    Cl87824   6.227   7.411   1.744 -0.1699 -0.1119 -0.2185
  666MOL0     C87825   7.099   7.453   1.346  0.1082 -0.8740 -0.2032
  666MOL0     C87826   7.197   7.360   1.342  0.3091 -0.0635  0.2487
  666MOL0     O87827   7.169   7.036   1.531 -0.1548 -0.8360 -0.7512
  666MOL0     C87828   7.396   6.868   1.556  0.7751  0.3172 -0.3523
  666MOL0     C87829   7.502   6.780   1.559 -0.4975 -0.4111 -1.0061
  666MOL0     N87830   7.920   6.156   1.112  0.0969 -0.4503 -0.1261
  666MOL0     N87831   7.999   6.076   1.048  0.1940  0.2562  0.4613
  666MOL0     C87832   9.017   6.382   0.849  0.7090 -0.2999  0.7116
  666MOL0     C87833   9.156   6.361   0.879  0.5716 -0.3064 -0.1556
  666MOL0     C87834   9.580   6.244   0.869 -0.0238  0.3994 -0.9193
  666MOL0     C87835   9.647   6.142   0.804 -0.5447  0.0196  0.4467
  666MOL0     C87836   9.766   6.090   0.852 -0.5095  0.0382  0.0099
  666MOL0     C87837   9.834   6.162   0.949  0.5278  0.3742 -0.5694
  666MOL0     O87838   9.960   6.128   0.975  0.5998  0.3303 -0.1631
  666MOL0     C87839   9.998   5.992   1.016 -0.3111  0.1954 -0.5808
  666MOL0     C87840   9.990   5.995   1.171  0.8981  0.1589  0.1156
  666MOL0     C87841  10.055   5.866   1.230 -0.2948 -0.5454  0.7983
  666MOL0     C87842  10.041   5.866   1.383 -0.1553 -0.2490 -0.0831
  666MOL0     C87843  10.100   5.980   1.460  0.8010 -0.0044  1.3230
  666MOL0     C87844  10.173   6.060   1.526  0.7000 -0.0167 -0.0250
  666MOL0     C87845   9.769   6.270   1.013 -0.0853  0.6954 -0.4322
  666MOL0     C87846   9.642   6.308   0.980  1.0074  0.7329  0.2166
  666MOL0     H87847   9.308   6.525   0.625 -0.0454 -1.4608 -0.8059
  666MOL0     H87848   9.065   6.571   0.572  1.5453 -0.4261 -1.6549
  666MOL0     H87849   8.693   6.427   0.808 -1.3967 -1.4189 -1.0691
  666MOL0     H87850   8.808   6.301   0.741  1.8409 -0.2049  0.8604
  666MOL0     H87851   8.717   6.434   0.522 -1.0617  1.6656  0.6117
  666MOL0     H87852   8.576   6.441   0.628  0.5202  0.4623  0.7181
  666MOL0     H87853   8.710   6.199   0.499 -0.0895 -0.3631  1.3519
  666MOL0     H87854   8.539   6.256   0.492 -2.4667  0.6847  3.2380
  666MOL0     H87855   8.579   6.033   0.660  2.4255  0.1255  0.6472
  666MOL0     H87856   8.684   6.143   0.732  1.5871  3.5926 -1.3372
  666MOL0     H87857   8.381   6.187   0.669 -1.8863  0.0240  0.6331
  666MOL0     H87858   8.473   6.277   0.797 -2.0687 -1.3403  2.3599
  666MOL0     H87859   8.520   6.080   0.911  2.2560 -1.7440 -4.5986
  666MOL0     H87860   8.394   5.995   0.820  1.4410  0.7269 -1.6465
  666MOL0     H87861   8.325   6.229   1.000  1.4651 -1.0813  0.4259
  666MOL0     H87862   8.230   6.167   0.867 -0.8988 -0.2066  0.4188
  666MOL0     H87863   8.320   5.985   1.095 -0.0481  2.8347  0.2792
  666MOL0     H87864   8.212   5.945   0.967 -4.2923  0.1172  0.3131
  666MOL0     H87865   8.212   6.202   1.257 -0.3092 -1.5622  1.0164
  666MOL0     H87866   8.051   6.338   1.371  1.5386 -2.1529 -2.3395
  666MOL0     H87867   7.896   6.258   1.375 -1.3193  1.3507 -0.4843
  666MOL0     H87868   7.810   6.403   1.182 -0.0059 -0.3668 -0.8938
  666MOL0     H87869   7.963   6.499   1.215 -1.9067  2.7412  1.3813
  666MOL0     H87870   7.759   6.429   1.423  0.2226 -0.2569  0.1672
  666MOL0     H87871   7.900   6.536   1.448 -2.5749  3.0575  0.5949
  666MOL0     H87872   7.683   6.624   1.251 -0.2813  0.1013 -0.1876
  666MOL0     H87873   7.819   6.716   1.323  0.1535  0.9347  1.5252
  666MOL0     H87874   7.640   6.877   1.264 -0.0564  1.7697  0.2525
  666MOL0     H87875   7.471   7.025   1.261  0.0975  0.6722 -0.1360
  666MOL0     H87876   7.021   7.084   1.276  3.5635 -0.1375 -1.4111
  666MOL0     H87877   6.831   7.246   1.290 -1.0919 -1.2665  2.4444
  666MOL0     H87878   6.781   7.537   1.513  0.1508 -1.7601  0.6716
  666MOL0     H87879   6.732   7.391   1.425  2.7103 -1.0932 -1.5758
  666MOL0     H87880   6.642   7.585   1.245 -2.9068  0.7644  0.2328
  666MOL0     H87881   6.642   7.683   1.381  1.6042  0.3223 -0.7011
  666MOL0     H87882   6.511   7.488   1.504  1.8960  1.2365 -0.5631
  666MOL0     H87883   6.496   7.422   1.340  2.3982 -1.8103  1.4844
  666MOL0     H87884   6.432   7.697   1.445  0.6352 -0.9508  1.4077
  666MOL0     H87885   6.403   7.648   1.272 -1.1153 -1.2627 -0.3439
  666MOL0     H87886   6.255   7.476   1.444 -0.2497  0.0797  0.5886
  666MOL0     H87887   6.198   7.591   1.330 -2.2843  0.4344  1.3802
  666MOL0     H87888   6.209   7.761   1.517 -1.8671  0.4471 -0.3323
  666MOL0     H87889   6.294   7.643   1.618  3.9130 -3.4811 -4.3641
  666MOL0     H87890   6.056   7.671   1.691  0.0473  2.0092 -1.1545
  666MOL0     H87891   5.989   7.618   1.547 -1.0368  0.1119  1.0493
  666MOL0     H87892   6.066   7.396   1.550 -1.8430 -0.9281 -0.4939
  666MOL0     H87893   5.988   7.428   1.706  0.8291 -1.7020  0.2367
  666MOL0     H87894   7.124   7.559   1.344 -0.3123 -0.7666 -1.8551
  666MOL0     H87895   7.299   7.397   1.338  0.1745  0.3764  0.7608
  666MOL0     H87896   7.332   6.871   1.643  3.2699  0.6239  1.5913
  666MOL0     H87897   7.522   6.729   1.653  1.5405  0.0089 -1.1578
  666MOL0     H87898   8.936   6.353   0.915  0.5531 -0.6600  0.3720
  666MOL0     H87899   9.183   6.319   0.975 -0.0374  2.9655  1.5595
  666MOL0     H87900   9.604   6.101   0.714  3.7370  0.1216 -1.9035
  666MOL0     H87901   9.814   6.008   0.799  3.1949  2.4529 -0.7225
  666MOL0     H87902  10.100   5.982   0.978  0.2758  1.5563  0.5430
  666MOL0     H87903   9.931   5.923   0.965 -0.2856  1.0235 -1.7889
  666MOL0     H87904  10.036   6.082   1.220 -0.2601  1.9057 -1.7494
  666MOL0     H87905   9.884   5.987   1.196  1.2238 -1.7731  1.1426
  666MOL0     H87906  10.159   5.870   1.196 -0.6945  0.9281 -0.3638
  666MOL0     H87907  10.008   5.774   1.194  4.1527 -2.5484 -0.5073
  666MOL0     H87908   9.939   5.834   1.405 -1.7234  1.4425 -3.9547
  666MOL0     H87909  10.101   5.781   1.415  0.2694  0.6246  1.5464
  666MOL0     H87910  10.243   6.134   1.559  1.8787 -2.2757  3.0637
  666MOL0     H87911   9.821   6.316   1.096  1.7868 -2.4777  0.3369
  666MOL0     H87912   9.582   6.383   1.031 -2.0753 -0.1276 -1.8762
  667MOL0     O87913   0.682   4.679   8.775 -0.6272  0.0040 -0.4363
  667MOL0     C87914   0.625   4.592   8.833 -0.9060  0.0717 -0.2915
  667MOL0     O87915   0.490   4.548   8.818 -0.0958 -0.2548 -0.3152
  667MOL0     C87916   0.416   4.607   8.716 -0.1441  0.3642  0.2630
  667MOL0     C87917   0.340   4.521   8.636 -0.5708 -0.8344 -0.0418
  667MOL0     C87918   0.259   4.573   8.532 -0.0789  0.1173  0.0406
  667MOL0     C87919   0.247   4.706   8.494 -0.1272  0.0896 -0.9734
  667MOL0     O87920   0.155   4.745   8.402 -0.0788  0.1858 -0.8639
  667MOL0     C87921   0.006   4.762   8.439 -0.4819  0.0800 -0.1529
  667MOL0     C87922  -0.068   4.779   8.306 -0.1558  0.4459  0.4450
  667MOL0     C87923  -0.059   4.923   8.250  0.1670 -0.7663 -0.0365
  667MOL0     C87924  -0.130   4.955   8.126  0.6765  0.8244 -0.1536
  667MOL0     C87925  -0.292   4.953   8.120 -0.0982 -0.4295  0.1072
  667MOL0     C87926  -0.335   5.001   7.982 -0.4225  0.4802  0.3128
  667MOL0     C87927  -0.489   5.016   7.970 -0.0674 -0.3031 -0.4424
  667MOL0     C87928  -0.525   5.154   8.021 -0.2151  0.8331 -0.5141
  667MOL0     N87929  -0.667   5.170   8.014  0.1470  0.2472  0.2094
  667MOL0     C87930  -0.758   5.128   8.111  0.6634 -0.4898 -1.1018
  667MOL0     C87931  -0.881   5.161   8.061 -0.2594  1.1498  0.0057
  667MOL0     C87932  -1.005   5.145   8.137 -0.2703 -0.8188  0.2169
  667MOL0     C87933  -1.096   5.039   8.077 -0.0442  0.8171  0.6336
  667MOL0     C87934  -1.040   4.893   8.081  0.2073  0.0645 -0.1240
  667MOL0     C87935  -1.121   4.798   8.007  0.3946 -0.3438 -0.1597
  667MOL0     O87936  -1.229   4.747   8.087  0.4484  0.1365 -0.2174
  667MOL0     C87937  -1.300   4.648   8.033  0.9025 -0.2314 -0.5493
  667MOL0     C87938  -1.329   4.632   7.897 -0.3886  0.1604  0.6237
  667MOL0     C87939  -1.418   4.523   7.857  0.0650 -0.3635 -0.3737
  667MOL0     C87940  -1.482   4.443   7.951 -0.7208  0.8099  0.3644
  667MOL0     C87941  -1.584   4.341   7.913  0.4025  0.4719  0.4547
  667MOL0     O87942  -1.666   4.297   8.014 -0.1213 -0.1683  0.8388
  667MOL0     C87943  -1.736   4.180   7.989 -0.5960 -0.8306  0.0867
  667MOL0     C87944  -1.871   4.171   8.011  0.2164  0.0107 -0.7233
  667MOL0     C87945  -1.941   4.052   8.005 -0.3379  0.7692  0.2798
  667MOL0     C87946  -1.872   3.936   7.958 -0.1876 -0.6771  0.5607
  667MOL0     O87947  -1.949   3.831   7.919  0.6170  0.3297  0.4548
  667MOL0     C87948  -1.896   3.739   7.825  0.9096 -0.0352 -0.7573
  667MOL0     C87949  -2.018   3.654   7.782  0.2128  0.2540 -0.0237
  667MOL0     C87950  -2.127   3.740   7.712 -0.4442  0.0679  0.4435
  667MOL0     C87951  -2.253   3.660   7.693  1.0321  0.4005  0.5113
  667MOL0     C87952  -2.385   3.729   7.728  0.4936  0.2885  0.8878
  667MOL0     C87953  -2.504   3.629   7.718  0.0949 -0.4671 -0.1638
  667MOL0     C87954  -2.628   3.702   7.752  0.3823  0.0009  0.7998
  667MOL0     C87955  -2.758   3.619   7.775  0.4888  0.1704 -0.5017
  667MOL0    Cl87956  -2.749   3.522   7.938 -0.2631 -0.5242  0.2661
  667MOL0     C87957  -1.732   3.940   7.950  0.5579  0.6030 -0.4141
  667MOL0     C87958  -1.667   4.060   7.964 -0.3274  0.6091 -0.3980
  667MOL0     O87959  -1.589   4.291   7.800  0.9094 -0.2839  0.7071
  667MOL0     C87960  -1.442   4.460   8.086  0.4714  0.0870 -0.0620
  667MOL0     C87961  -1.366   4.568   8.121  0.6389 -0.0583 -1.0503
  667MOL0     N87962  -0.859   5.209   7.932 -0.3329 -1.4626  0.0828
  667MOL0     N87963  -0.734   5.210   7.897  0.2021  0.2040  0.4186
  667MOL0     C87964   0.327   4.796   8.576  0.1083 -0.4470 -0.1873
  667MOL0     C87965   0.404   4.742   8.685 -0.7993 -0.2834  0.4308
  667MOL0     C87966   0.708   4.536   8.945 -0.4784  0.2393 -0.5149
  667MOL0     C87967   0.821   4.605   9.000 -0.4625  0.3469 -0.2428
  667MOL0     C87968   0.894   4.537   9.099 -0.2692 -0.7480 -0.2215
  667MOL0     C87969   0.863   4.407   9.150 -0.6478 -0.5931 -0.3637
  667MOL0     O87970   0.931   4.347   9.255  0.1504 -0.3168 -0.1472
  667MOL0     C87971   0.971   4.425   9.369  0.4568 -0.7357  0.7866
  667MOL0     C87972   0.888   4.386   9.483  0.8664 -0.4848  0.5040
  667MOL0     C87973   0.740   4.394   9.456  0.9213  0.3630 -0.0457
  667MOL0     C87974   0.659   4.322   9.569  0.0953 -0.4370  0.1541
  667MOL0     C87975   0.673   4.182   9.576  0.0192  0.9775 -0.2094
  667MOL0     C87976   0.698   4.069   9.548  0.3042 -0.3392  0.9215
  667MOL0     C87977   0.761   4.338   9.089 -0.2989 -0.2952 -0.3612
  667MOL0     C87978   0.698   4.401   8.984  0.2711 -0.3603 -0.0180
  667MOL0     H87979   0.344   4.414   8.655 -2.0055 -0.6476  1.4955
  667MOL0     H87980   0.188   4.506   8.486 -4.1304  3.4053  0.8547
  667MOL0     H87981  -0.012   4.852   8.498 -0.7672 -1.3738  2.0953
  667MOL0     H87982  -0.025   4.668   8.487  2.1852 -1.7784 -1.7971
  667MOL0     H87983  -0.172   4.752   8.327  0.0535 -1.7302 -1.0238
  667MOL0     H87984  -0.024   4.714   8.230 -0.0899  0.8997  0.0878
  667MOL0     H87985   0.048   4.926   8.227 -0.1858 -0.9229 -1.8157
  667MOL0     H87986  -0.081   4.996   8.328 -2.2978  0.0226 -1.3903
  667MOL0     H87987  -0.085   5.051   8.098  1.2264  1.3472  2.2919
  667MOL0     H87988  -0.094   4.885   8.050  2.1446  0.6474  0.6493
  667MOL0     H87989  -0.330   5.013   8.202 -2.3172 -0.4889 -0.8182
  667MOL0     H87990  -0.329   4.850   8.130  0.4232 -0.4502  2.3479
  667MOL0     H87991  -0.308   4.928   7.906  1.3270 -0.3530  1.6817
  667MOL0     H87992  -0.283   5.095   7.959 -0.1608 -0.1335 -1.7328
  667MOL0     H87993  -0.515   5.003   7.865  0.6188 -2.0429 -0.4434
  667MOL0     H87994  -0.543   4.944   8.033 -1.2972 -1.2116 -2.4248
  667MOL0     H87995  -0.483   5.233   7.958 -1.1794  0.4585 -1.6584
  667MOL0     H87996  -0.481   5.164   8.121  0.6879 -0.4972 -0.7580
  667MOL0     H87997  -0.740   5.078   8.205 -1.0323  0.9409  0.0522
  667MOL0     H87998  -1.052   5.244   8.139 -1.5878 -1.4155  1.7236
  667MOL0     H87999  -0.982   5.121   8.241  2.6013  0.2308 -0.0830
  667MOL0     H88000  -1.100   5.060   7.970  0.1249  2.4398  0.9130
  667MOL0     H88001  -1.192   5.056   8.127 -0.1152  2.2841  0.0730
  667MOL0     H88002  -0.937   4.897   8.045  0.4696 -3.2904 -0.1035
  667MOL0     H88003  -1.048   4.863   8.186 -0.2604  1.3709  0.2263
  667MOL0     H88004  -1.056   4.718   7.969  1.8702 -0.4760  2.4793
  667MOL0     H88005  -1.173   4.847   7.924  0.4376 -0.0731 -0.0281
  667MOL0     H88006  -1.285   4.696   7.822 -2.4373  1.0182  0.0897
  667MOL0     H88007  -1.441   4.505   7.752  0.4257 -0.5602 -0.4214
  667MOL0     H88008  -1.922   4.256   8.055  2.3159  1.4315 -0.8588
  667MOL0     H88009  -2.048   4.042   8.025  0.0020  0.3191  1.9789
  667MOL0     H88010  -1.816   3.684   7.875  0.6608  1.0875  0.9710
  667MOL0     H88011  -1.852   3.778   7.732  0.7667 -0.7156 -1.1183
  667MOL0     H88012  -2.053   3.602   7.872  3.3916  0.1771  1.3184
  667MOL0     H88013  -1.986   3.577   7.711 -0.2732  0.5127 -0.5336
  667MOL0     H88014  -2.091   3.785   7.620 -1.0378  1.4568  0.8730
  667MOL0     H88015  -2.154   3.831   7.766 -2.4240 -0.0233 -0.3341
  667MOL0     H88016  -2.268   3.629   7.589 -1.9707 -1.6609  1.4103
  667MOL0     H88017  -2.242   3.569   7.753  2.3716 -1.0281 -1.7784
  667MOL0     H88018  -2.398   3.821   7.671 -1.0010 -0.0736  0.6112
  667MOL0     H88019  -2.379   3.762   7.832  1.1165  0.3823  0.8239
  667MOL0     H88020  -2.493   3.552   7.795  2.2050  1.2414  1.3641
  667MOL0     H88021  -2.498   3.583   7.619 -1.1490 -1.0934  0.0357
  667MOL0     H88022  -2.613   3.761   7.843 -1.7287 -1.0134  1.8852
  667MOL0     H88023  -2.649   3.760   7.661  1.8032  1.0544  1.1034
  667MOL0     H88024  -2.762   3.548   7.691 -0.1751  0.6703 -0.8982
  667MOL0     H88025  -2.849   3.679   7.784 -0.0109 -0.8238  1.7484
  667MOL0     H88026  -1.678   3.856   7.908  2.2115  1.1094  0.6008
  667MOL0     H88027  -1.561   4.078   7.952 -0.2588  0.6219  0.1726
  667MOL0     H88028  -1.471   4.391   8.164  0.6222 -2.6588 -2.2852
  667MOL0     H88029  -1.349   4.581   8.228 -2.9160 -3.0997  0.1211
  667MOL0     H88030   0.305   4.901   8.559  0.1995 -0.1245  1.5218
  667MOL0     H88031   0.466   4.810   8.741 -0.2425  0.5768 -1.1650
  667MOL0     H88032   0.837   4.709   8.973  2.1669  1.2329  3.7994
  667MOL0     H88033   0.981   4.579   9.148  2.4961 -3.0782 -2.6960
  667MOL0     H88034   0.954   4.529   9.342 -1.2442 -1.6105 -1.8088
  667MOL0     H88035   1.074   4.396   9.393  0.1351 -1.4524  1.3630
  667MOL0     H88036   0.913   4.282   9.504  4.0978  0.3158  1.3458
  667MOL0     H88037   0.923   4.450   9.566 -0.6819  2.2588 -0.8180
  667MOL0     H88038   0.701   4.358   9.361  0.1482 -0.2074  0.4740
  667MOL0     H88039   0.712   4.500   9.454 -2.3254 -0.2661  2.7100
  667MOL0     H88040   0.696   4.368   9.661  2.2538 -3.0911  0.7528
  667MOL0     H88041   0.554   4.351   9.559 -0.9178 -3.3894  1.3977
  667MOL0     H88042   0.702   3.966   9.520  0.9983 -0.3133  0.9076
  667MOL0     H88043   0.742   4.232   9.105 -0.2462 -0.6347 -2.2956
  667MOL0     H88044   0.623   4.341   8.933 -0.3932  1.4810 -1.3096
  668MOL0     O88045   3.275   3.062   7.709  0.5187 -0.0925 -0.0527
  668MOL0     C88046   3.254   3.110   7.821  0.1001  0.2254  0.8465
  668MOL0     O88047   3.137   3.172   7.857  0.1815  0.0087 -0.3150
  668MOL0     C88048   3.017   3.144   7.784 -0.4415  0.9663  0.8051
  668MOL0     C88049   2.988   3.011   7.747  0.0806 -1.1380 -0.0975
  668MOL0     C88050   2.873   2.983   7.684  0.2087  0.0808 -0.6409
  668MOL0     C88051   2.779   3.078   7.657 -0.3220 -0.0072  0.3921
  668MOL0     O88052   2.664   3.047   7.591  0.4895  0.9087 -0.4662
  668MOL0     C88053   2.557   3.153   7.586 -0.1676 -0.2471 -0.1493
  668MOL0     C88054   2.420   3.103   7.525 -0.8686 -0.9319  0.2359
  668MOL0     C88055   2.355   2.990   7.611  0.3008 -0.8485  0.0656
  668MOL0     C88056   2.234   2.939   7.526 -1.2074  0.0513  0.1396
  668MOL0     C88057   2.165   2.838   7.621 -0.0321 -0.0087 -0.2664
  668MOL0     C88058   2.047   2.767   7.551 -1.3159  0.0331 -0.5369
  668MOL0     C88059   1.973   2.674   7.644  0.2520  0.0023 -0.3865
  668MOL0     C88060   1.864   2.599   7.567 -0.1958  0.7863 -0.0007
  668MOL0     N88061   1.762   2.702   7.551 -0.6939 -0.4734  0.3352
  668MOL0     C88062   1.650   2.691   7.626 -0.2815 -0.4683 -0.1674
  668MOL0     C88063   1.555   2.742   7.541 -0.2757 -0.1420 -0.5025
  668MOL0     C88064   1.405   2.750   7.570 -0.0355  1.0276  0.5617
  668MOL0     C88065   1.337   2.762   7.435 -0.6662  0.0400 -0.7811
  668MOL0     C88066   1.184   2.722   7.449  0.3591 -0.5812 -0.0393
  668MOL0     C88067   1.177   2.575   7.467  0.8809  1.4511  0.4733
  668MOL0     O88068   1.040   2.529   7.475  0.3366 -0.1614 -0.6652
  668MOL0     C88069   0.942   2.548   7.373 -0.3515 -0.4164  0.3919
  668MOL0     C88070   0.975   2.559   7.233  0.0386 -0.7798  0.1726
  668MOL0     C88071   0.874   2.586   7.139 -1.0380  0.0985 -0.3828
  668MOL0     C88072   0.740   2.594   7.182 -0.1567 -0.5727 -0.8560
  668MOL0     C88073   0.629   2.621   7.072 -0.3987  0.4437 -0.8323
  668MOL0     O88074   0.503   2.616   7.116 -0.0133 -0.0241 -0.0796
  668MOL0     C88075   0.398   2.632   7.031  0.7464  0.2996  0.6167
  668MOL0     C88076   0.279   2.667   7.091  0.5900  0.6526  0.3083
  668MOL0     C88077   0.155   2.645   7.026  0.5085 -0.2847 -0.1713
  668MOL0     C88078   0.141   2.601   6.889 -0.2761  0.1044  0.8208
  668MOL0     O88079   0.020   2.596   6.831  0.1273  0.2154  0.7796
  668MOL0     C88080   0.008   2.562   6.692 -1.2525  0.3529 -0.6501
  668MOL0     C88081  -0.132   2.613   6.654  0.3793  0.0144  0.5860
  668MOL0     C88082  -0.251   2.568   6.748  0.1685 -0.9333  0.4228
  668MOL0     C88083  -0.385   2.570   6.679 -0.0690 -0.0709 -0.7159
  668MOL0     C88084  -0.420   2.694   6.599  0.0883  0.0701  0.1350
  668MOL0     C88085  -0.560   2.679   6.552 -0.1973  0.1566 -0.1720
  668MOL0     C88086  -0.622   2.804   6.491 -0.6330 -0.1154  0.2839
  668MOL0     C88087  -0.757   2.787   6.432 -0.3275  0.6302 -0.4827
  668MOL0    Cl88088  -0.864   2.777   6.568  0.1240  0.1426  0.0619
  668MOL0     C88089   0.259   2.583   6.825 -0.4920 -0.1376  0.0675
  668MOL0     C88090   0.387   2.595   6.893 -0.9424  0.1350  0.0093
  668MOL0     O88091   0.666   2.637   6.960  0.3339  0.3165 -0.0606
  668MOL0     C88092   0.716   2.587   7.325  0.5381 -0.0307 -0.6989
  668MOL0     C88093   0.813   2.559   7.421  0.4274  0.4554  0.5597
  668MOL0     N88094   1.614   2.798   7.427 -0.4414  0.8188 -0.0222
  668MOL0     N88095   1.738   2.762   7.433  0.6545 -0.6288  0.6994
  668MOL0     C88096   2.798   3.209   7.694 -0.1632 -0.3662  0.0713
  668MOL0     C88097   2.917   3.232   7.771  0.0457 -0.0118 -0.2284
  668MOL0     C88098   3.371   3.100   7.909  0.8332 -0.8243 -0.1185
  668MOL0     C88099   3.490   3.027   7.881  0.0204 -1.1326  0.2722
  668MOL0     C88100   3.606   3.032   7.966 -0.2942 -0.1771 -0.1757
  668MOL0     C88101   3.598   3.090   8.094 -0.4360 -0.0597  0.5776
  668MOL0     O88102   3.697   3.069   8.196  0.5944 -0.0341  0.9119
  668MOL0     C88103   3.720   3.157   8.302  0.1055  1.6668 -0.1948
  668MOL0     C88104   3.856   3.136   8.369 -0.1925 -0.1127  0.3093
  668MOL0     C88105   3.865   2.991   8.422 -0.6291 -0.4691 -0.2262
  668MOL0     C88106   3.979   2.979   8.525  0.4246  0.9151  0.5010
  668MOL0     C88107   4.102   3.017   8.457 -0.3406  1.3636  0.3924
  668MOL0     C88108   4.202   3.053   8.401  0.7934 -0.4827 -0.7996
  668MOL0     C88109   3.475   3.148   8.126 -0.0023 -0.2411 -0.2209
  668MOL0     C88110   3.371   3.159   8.031 -0.0488 -0.0888  0.5308
  668MOL0     H88111   3.064   2.935   7.759 -0.4286 -1.8206 -1.0992
  668MOL0     H88112   2.841   2.880   7.673 -0.1235 -0.1226  1.6804
  668MOL0     H88113   2.583   3.233   7.515 -0.5255 -0.3740 -0.4303
  668MOL0     H88114   2.521   3.191   7.682 -1.6345 -0.3699 -0.6168
  668MOL0     H88115   2.458   3.065   7.430  1.4822 -0.4988  0.9168
  668MOL0     H88116   2.344   3.180   7.511 -1.0433 -1.2664 -0.6468
  668MOL0     H88117   2.308   3.023   7.704 -1.1871  2.0498 -1.5866
  668MOL0     H88118   2.427   2.910   7.633  0.7196 -0.1398  1.3691
  668MOL0     H88119   2.163   3.018   7.500 -3.8304 -2.1783  0.0350
  668MOL0     H88120   2.275   2.892   7.437 -3.6154  0.5413 -1.3349
  668MOL0     H88121   2.121   2.899   7.701  1.6398  2.9793 -1.4597
  668MOL0     H88122   2.235   2.763   7.657  2.0467  0.7885 -2.3735
  668MOL0     H88123   2.099   2.714   7.470 -1.2634 -0.0687 -0.4363
  668MOL0     H88124   1.977   2.841   7.511 -2.0253 -0.3185  0.0267
  668MOL0     H88125   2.042   2.608   7.697 -0.2601  0.5726  1.0517
  668MOL0     H88126   1.923   2.729   7.724 -1.0783 -2.1952  0.3817
  668MOL0     H88127   1.824   2.520   7.631 -2.9511  2.4098  0.4335
  668MOL0     H88128   1.892   2.554   7.472  0.8183  3.0721 -0.8546
  668MOL0     H88129   1.628   2.636   7.717 -1.6388 -2.0509 -1.3952
  668MOL0     H88130   1.398   2.836   7.637 -3.3508  0.9528  0.4497
  668MOL0     H88131   1.366   2.662   7.622 -0.7472  0.3064 -1.1045
  668MOL0     H88132   1.384   2.698   7.360 -0.9193 -1.8590  0.5935
  668MOL0     H88133   1.354   2.866   7.405  0.6411 -0.0868 -0.5230
  668MOL0     H88134   1.135   2.769   7.535 -0.2693 -2.5603  0.7459
  668MOL0     H88135   1.132   2.750   7.357  0.8570 -3.2502 -1.2119
  668MOL0     H88136   1.227   2.545   7.559  0.0255  0.3613  0.5880
  668MOL0     H88137   1.206   2.509   7.385 -1.5985 -0.0618  0.7363
  668MOL0     H88138   1.078   2.557   7.200  0.2565 -1.5715  0.8790
  668MOL0     H88139   0.896   2.613   7.036  0.3792  0.4104 -0.0178
  668MOL0     H88140   0.276   2.681   7.199 -1.7711 -1.9853  0.7072
  668MOL0     H88141   0.068   2.657   7.090  0.4773  1.1878 -0.4410
  668MOL0     H88142   0.035   2.457   6.679 -3.9924 -0.1783 -3.0915
  668MOL0     H88143   0.081   2.619   6.635  1.5190 -1.2325  1.0972
  668MOL0     H88144  -0.161   2.581   6.553  2.3779 -2.8553  0.8188
  668MOL0     H88145  -0.121   2.721   6.665  0.9686 -0.0909  1.1098
  668MOL0     H88146  -0.260   2.625   6.842  0.6225  1.2006 -0.7644
  668MOL0     H88147  -0.228   2.463   6.770  0.7503 -1.1695 -1.2343
  668MOL0     H88148  -0.394   2.480   6.616 -2.7349  0.4307 -1.1907
  668MOL0     H88149  -0.454   2.544   6.760 -2.0734  2.2885 -1.5559
  668MOL0     H88150  -0.354   2.713   6.514 -1.4866  3.5665 -0.4732
  668MOL0     H88151  -0.420   2.787   6.657 -0.3440  1.1015 -1.4687
  668MOL0     H88152  -0.627   2.639   6.629  1.6868 -5.8161 -1.0702
  668MOL0     H88153  -0.569   2.611   6.467 -3.0632  4.4410 -3.7109
  668MOL0     H88154  -0.629   2.880   6.569  1.9929  0.1145  0.3807
  668MOL0     H88155  -0.555   2.836   6.411  0.1201 -1.2480  0.4360
  668MOL0     H88156  -0.743   2.697   6.373  3.1420  0.7391 -0.0661
  668MOL0     H88157  -0.787   2.878   6.380 -1.3400  0.4248 -0.2693
  668MOL0     H88158   0.257   2.571   6.717 -2.6020 -0.9468  0.1457
  668MOL0     H88159   0.478   2.566   6.841 -0.4981  2.3617 -0.5708
  668MOL0     H88160   0.622   2.608   7.374  1.2216  0.3478  0.4802
  668MOL0     H88161   0.806   2.574   7.528 -1.2906  1.1422  0.3841
  668MOL0     H88162   2.726   3.290   7.688 -2.0031 -1.8074  1.3464
  668MOL0     H88163   2.942   3.322   7.826  4.1575 -1.1841  0.0995
  668MOL0     H88164   3.495   2.978   7.784 -2.8123  2.8120 -2.1372
  668MOL0     H88165   3.692   2.973   7.936 -0.0936  0.8639 -1.7629
  668MOL0     H88166   3.648   3.133   8.380  1.3686  0.6339  0.6897
  668MOL0     H88167   3.724   3.263   8.273  1.8293  2.1908  1.7254
  668MOL0     H88168   3.937   3.154   8.297 -1.6620 -0.5300 -1.5562
  668MOL0     H88169   3.851   3.206   8.453  1.0804  1.0079 -0.4995
  668MOL0     H88170   3.875   2.922   8.338  0.2486 -0.3280 -0.2555
  668MOL0     H88171   3.779   2.956   8.481 -0.1173 -0.4807  0.5411
  668MOL0     H88172   3.961   3.056   8.601 -0.6710  1.0116  0.1662
  668MOL0     H88173   3.997   2.880   8.569  0.3529  0.8759  0.4437
  668MOL0     H88174   4.300   3.063   8.360 -0.4606  2.5388 -3.4555
  668MOL0     H88175   3.477   3.197   8.223 -1.2337 -1.0329  0.2202
  668MOL0     H88176   3.282   3.221   8.040  1.6963  2.4963  1.4024
  669MOL0     O88177  10.999   7.901   5.747 -0.5663  0.2134  0.1204
  669MOL0     C88178  11.043   7.845   5.851  0.9794  0.3099  0.8612
  669MOL0     O88179  10.973   7.761   5.935  0.3788  0.2121 -0.1129
  669MOL0     C88180  10.851   7.706   5.890 -0.2028 -0.4147  0.3969
  669MOL0     C88181  10.737   7.695   5.982  0.2072  0.4594 -0.0287
  669MOL0     C88182  10.609   7.649   5.947 -0.2578  0.2644 -0.3028
  669MOL0     C88183  10.588   7.603   5.806  0.9518  0.1549 -0.3618
  669MOL0     O88184  10.460   7.558   5.795  0.0067 -0.6749  0.3442
  669MOL0     C88185  10.415   7.546   5.658  0.2394 -0.3066  0.4117
  669MOL0     C88186  10.274   7.488   5.676  0.4128 -0.1541 -0.6120
  669MOL0     C88187  10.207   7.467   5.548 -0.5814 -0.5757 -0.1794
  669MOL0     C88188  10.072   7.408   5.577 -0.6825  0.5085 -0.0690
  669MOL0     C88189   9.989   7.378   5.454  0.7990  0.0947 -0.4912
  669MOL0     C88190   9.867   7.282   5.482  0.0462  0.0607 -0.5030
  669MOL0     C88191   9.785   7.254   5.356  0.2353  0.4046 -0.2809
  669MOL0     C88192   9.643   7.195   5.394 -0.3214  0.0311  0.0622
  669MOL0     N88193   9.553   7.145   5.284 -0.7980  0.4336  0.4115
  669MOL0     C88194   9.486   7.026   5.283 -0.1684 -0.8072 -0.6524
  669MOL0     C88195   9.447   7.010   5.152  0.1024 -0.5946  0.0330
  669MOL0     C88196   9.380   6.887   5.098 -0.2936  0.3432  0.1453
  669MOL0     C88197   9.244   6.867   5.151  0.2556  0.1208  0.4289
  669MOL0     C88198   9.152   6.962   5.073  0.2471  0.1236  0.2173
  669MOL0     C88199   9.012   6.956   5.123  1.1682 -0.7724  0.7141
  669MOL0     O88200   8.935   7.047   5.054  0.2686 -0.5836 -0.4578
  669MOL0     C88201   8.798   7.026   5.054  0.1417  0.2356  0.3047
  669MOL0     C88202   8.720   6.944   5.134  1.1296  0.8404 -0.6204
  669MOL0     C88203   8.579   6.939   5.127  0.1419  0.5732 -0.8451
  669MOL0     C88204   8.513   7.006   5.031 -0.2963  0.7377  0.4744
  669MOL0     C88205   8.365   7.008   5.024  0.7662  0.4372 -0.0897
  669MOL0     O88206   8.293   6.940   5.109 -0.4010 -0.5562 -0.1949
  669MOL0     C88207   8.155   6.936   5.104 -0.1508  0.0875  0.3337
  669MOL0     C88208   8.107   6.808   5.126 -0.3708 -0.0464 -0.6339
  669MOL0     C88209   7.974   6.786   5.117  0.1899 -0.5903  0.9213
  669MOL0     C88210   7.877   6.882   5.094  0.4340 -0.2861  0.1955
  669MOL0     O88211   7.751   6.836   5.088 -0.5037 -0.0225  0.7512
  669MOL0     C88212   7.670   6.912   4.992 -0.7253  0.2637 -0.6353
  669MOL0     C88213   7.529   6.847   4.993 -0.6763  0.4955 -0.7618
  669MOL0     C88214   7.533   6.710   4.939 -0.1009 -0.1896  0.5376
  669MOL0     C88215   7.398   6.650   4.931 -0.0345 -0.2997  0.1083
  669MOL0     C88216   7.400   6.516   4.844  0.6215 -1.0364 -0.0173
  669MOL0     C88217   7.252   6.488   4.814  0.0951 -0.5973  0.0524
  669MOL0     C88218   7.230   6.350   4.759 -0.2898  0.4254  0.1246
  669MOL0     C88219   7.294   6.236   4.836 -0.2791 -0.1290 -0.9592
  669MOL0    Cl88220   7.219   6.097   4.774 -0.1799 -0.0119  0.2932
  669MOL0     C88221   7.924   7.018   5.074  0.3719  0.4751  0.3757
  669MOL0     C88222   8.059   7.043   5.079  0.6124 -0.2062  0.2381
  669MOL0     O88223   8.319   7.070   4.933 -0.7289 -0.0577 -0.5383
  669MOL0     C88224   8.592   7.072   4.929  0.6239  0.5639  1.0595
  669MOL0     C88225   8.731   7.085   4.945  0.2433  0.0729  0.2054
  669MOL0     N88226   9.484   7.127   5.083  0.7444  0.2743 -0.2877
  669MOL0     N88227   9.543   7.205   5.166  0.1999 -0.2861 -0.6206
  669MOL0     C88228  10.698   7.603   5.714  0.2234 -1.3022  0.0231
  669MOL0     C88229  10.825   7.656   5.757 -1.2343  0.7496  0.0664
  669MOL0     C88230  11.184   7.871   5.886 -0.7476 -0.4537  0.0295
  669MOL0     C88231  11.257   7.799   5.982 -0.2095  0.2378 -0.1426
  669MOL0     C88232  11.386   7.854   6.027  0.3620  1.1205 -0.7205
  669MOL0     C88233  11.439   7.966   5.974  0.0739 -0.1809  0.3344
  669MOL0     O88234  11.565   8.010   5.993  0.2432  0.0400  0.4123
  669MOL0     C88235  11.609   7.986   6.124 -0.8877 -0.4926  0.0234
  669MOL0     C88236  11.703   8.102   6.183  0.4195 -0.0519 -0.5649
  669MOL0     C88237  11.652   8.252   6.140  0.4377  0.3352  0.3827
  669MOL0     C88238  11.734   8.358   6.217  0.0943  0.7315 -0.0018
  669MOL0     C88239  11.670   8.490   6.200 -0.3936  0.2592 -0.2856
  669MOL0     C88240  11.610   8.592   6.191 -0.0248  0.6758 -0.0648
  669MOL0     C88241  11.360   8.037   5.881  0.6267 -0.1946 -0.3400
  669MOL0     C88242  11.241   7.983   5.836  0.9518  0.2402  0.7568
  669MOL0     H88243  10.769   7.726   6.081 -1.2628  0.0101  0.6113
  669MOL0     H88244  10.529   7.645   6.020 -1.2883  0.7558 -1.3790
  669MOL0     H88245  10.483   7.479   5.605  1.1332  1.2096 -0.4288
  669MOL0     H88246  10.405   7.638   5.599 -0.8253  0.0316  1.0832
  669MOL0     H88247  10.222   7.562   5.739 -0.0006  0.2001 -1.3614
  669MOL0     H88248  10.284   7.395   5.733  0.7018 -1.8079 -3.2292
  669MOL0     H88249  10.266   7.399   5.486  2.2774 -0.8887  2.6231
  669MOL0     H88250  10.187   7.567   5.508  0.6425 -0.1021  0.3472
  669MOL0     H88251  10.096   7.311   5.621 -1.4411 -0.0239 -0.7864
  669MOL0     H88252  10.018   7.462   5.655  0.6410  1.5262  0.1944
  669MOL0     H88253  10.053   7.335   5.376  0.9310  1.3446 -1.1055
  669MOL0     H88254   9.938   7.465   5.410 -1.0809  0.2029  1.7588
  669MOL0     H88255   9.808   7.322   5.564  0.6432 -2.6378  1.3737
  669MOL0     H88256   9.908   7.186   5.515  0.2749 -0.5714 -2.4682
  669MOL0     H88257   9.751   7.346   5.308 -1.9541  0.7028  1.6881
  669MOL0     H88258   9.838   7.188   5.287  0.9840  1.3118 -0.5873
  669MOL0     H88259   9.582   7.273   5.441  0.1727  1.5343 -1.6724
  669MOL0     H88260   9.661   7.113   5.465 -3.6394  0.7429  1.9327
  669MOL0     H88261   9.467   6.966   5.372  0.8323  1.2130  1.0163
  669MOL0     H88262   9.443   6.800   5.123  0.8542  1.0772 -0.1003
  669MOL0     H88263   9.379   6.901   4.989 -0.1013 -1.7704 -0.1687
  669MOL0     H88264   9.253   6.886   5.259 -0.4756  3.2334  0.0430
  669MOL0     H88265   9.206   6.765   5.137  2.3995 -0.6223 -0.4345
  669MOL0     H88266   9.189   7.065   5.081  1.3454 -0.2729  0.2936
  669MOL0     H88267   9.147   6.923   4.971  0.9340  1.1996 -0.2482
  669MOL0     H88268   9.013   6.993   5.225 -2.0106  1.6896  0.0048
  669MOL0     H88269   8.970   6.855   5.122 -0.2159 -0.2267  1.4505
  669MOL0     H88270   8.772   6.885   5.209 -1.9937 -2.5215 -0.7937
  669MOL0     H88271   8.523   6.894   5.208  0.0514  1.7457 -0.2371
  669MOL0     H88272   8.171   6.721   5.136 -2.3034 -1.3392  1.4944
  669MOL0     H88273   7.938   6.684   5.131 -0.8358 -0.2090  1.0850
  669MOL0     H88274   7.714   6.903   4.892  1.7527  0.1733  0.3994
  669MOL0     H88275   7.664   7.017   5.023  1.7745  1.1897 -2.8873
  669MOL0     H88276   7.462   6.907   4.932 -1.4325  1.5469  1.0199
  669MOL0     H88277   7.472   6.852   5.086 -2.5120 -0.0532 -1.8121
  669MOL0     H88278   7.607   6.657   5.001  0.0850  0.6454  1.0419
  669MOL0     H88279   7.564   6.715   4.835 -1.4499  0.5233  0.1542
  669MOL0     H88280   7.363   6.636   5.033  2.1469 -0.0155  0.9328
  669MOL0     H88281   7.322   6.717   4.888  1.2279  1.6618  0.8285
  669MOL0     H88282   7.462   6.445   4.899  1.1558  0.3804  1.2858
  669MOL0     H88283   7.454   6.523   4.750 -2.3394 -0.9698 -1.8408
  669MOL0     H88284   7.223   6.563   4.740  3.0187 -0.6847 -1.3336
  669MOL0     H88285   7.194   6.496   4.907 -0.7201 -2.3706 -0.2675
  669MOL0     H88286   7.125   6.331   4.737 -0.0457  1.3106 -2.1242
  669MOL0     H88287   7.278   6.345   4.661 -0.1258  0.2293  0.2148
  669MOL0     H88288   7.274   6.255   4.942  1.5706  0.7301 -0.7106
  669MOL0     H88289   7.403   6.245   4.826 -0.4656  0.5948 -2.7006
  669MOL0     H88290   7.860   7.103   5.050  1.4068  0.6966 -1.8961
  669MOL0     H88291   8.090   7.146   5.063 -1.1610  0.3675  0.2680
  669MOL0     H88292   8.543   7.115   4.842  5.6728 -0.8082 -2.9893
  669MOL0     H88293   8.796   7.134   4.874  3.2452 -2.1907  1.1397
  669MOL0     H88294  10.681   7.571   5.612 -0.7893 -0.6044 -0.0472
  669MOL0     H88295  10.898   7.658   5.677 -1.6627 -1.0171 -0.4051
  669MOL0     H88296  11.220   7.702   6.015  0.1931 -0.1401 -0.7653
  669MOL0     H88297  11.434   7.794   6.104 -2.0474 -0.7674 -0.5508
  669MOL0     H88298  11.657   7.888   6.134 -0.5726 -0.3414 -0.0002
  669MOL0     H88299  11.520   8.001   6.187 -0.1414  0.4286  0.8906
  669MOL0     H88300  11.705   8.088   6.292 -0.1101 -0.6277 -0.6236
  669MOL0     H88301  11.801   8.083   6.140 -0.1813  0.6993 -2.3900
  669MOL0     H88302  11.543   8.258   6.138  0.1032 -3.4836 -1.0047
  669MOL0     H88303  11.688   8.268   6.038  3.3378 -0.1089  1.2388
  669MOL0     H88304  11.737   8.334   6.323  1.2383  1.0616  0.0572
  669MOL0     H88305  11.841   8.364   6.191  0.7715 -1.6950  1.8632
  669MOL0     H88306  11.546   8.677   6.178  2.0018  2.0272 -1.8619
  669MOL0     H88307  11.419   8.110   5.826  0.4077 -1.0204 -1.6964
  669MOL0     H88308  11.195   8.042   5.758 -0.3068 -2.2515 -0.5330
  670MOL0     O88309   6.927   8.953   5.992 -0.0388 -0.0381  0.2456
  670MOL0     C88310   6.874   8.880   6.076  0.6392 -0.5868 -0.7116
  670MOL0     O88311   6.925   8.841   6.197  0.2080  0.1400 -0.4777
  670MOL0     C88312   7.062   8.868   6.215 -0.8094 -0.1633 -0.0988
  670MOL0     C88313   7.150   8.808   6.133 -0.1748 -0.2952  0.1913
  670MOL0     C88314   7.288   8.830   6.133  1.8194 -0.0610 -0.5653
  670MOL0     C88315   7.344   8.918   6.224  0.0243  0.5305  0.3396
  670MOL0     O88316   7.479   8.942   6.241 -0.0454 -0.7201 -0.3165
  670MOL0     C88317   7.577   8.866   6.173  0.5281  0.5823  0.7826
  670MOL0     C88318   7.716   8.913   6.201 -0.2639 -0.6499  0.4208
  670MOL0     C88319   7.803   8.793   6.185  0.9240  0.9091  0.9425
  670MOL0     C88320   7.950   8.827   6.214 -0.5360 -0.4790 -0.2024
  670MOL0     C88321   8.030   8.693   6.225  0.0598 -0.1137 -0.9457
  670MOL0     C88322   8.181   8.718   6.243  0.3637  0.2691  0.0260
  670MOL0     C88323   8.257   8.748   6.107 -0.4208  0.5550  0.1639
  670MOL0     C88324   8.409   8.765   6.127  0.0577  0.9511 -0.5015
  670MOL0     N88325   8.474   8.632   6.150  0.3243 -0.2175 -0.5349
  670MOL0     C88326   8.489   8.566   6.266 -0.2778 -0.5079 -0.2410
  670MOL0     C88327   8.561   8.461   6.235 -0.8906  0.1185  0.6049
  670MOL0     C88328   8.627   8.367   6.339  0.2828 -0.6979  0.9370
  670MOL0     C88329   8.520   8.302   6.426 -0.5582  0.4069  0.3056
  670MOL0     C88330   8.464   8.188   6.354  0.0118 -0.1624 -0.1936
  670MOL0     C88331   8.399   8.086   6.448 -0.7599  1.0486  0.5238
  670MOL0     O88332   8.290   8.150   6.514  0.2935 -0.4207 -0.5290
  670MOL0     C88333   8.162   8.093   6.520  0.0850  0.2420  0.3718
  670MOL0     C88334   8.129   7.961   6.514  0.3320  0.6894  0.2848
  670MOL0     C88335   7.990   7.922   6.522 -0.0264  1.2802  0.7343
  670MOL0     C88336   7.889   8.010   6.532 -0.0144 -0.1043  0.3704
  670MOL0     C88337   7.755   7.970   6.550  0.5646  0.5514 -0.0252
  670MOL0     O88338   7.732   7.838   6.525 -0.0601 -0.0178 -0.3290
  670MOL0     C88339   7.624   7.792   6.596  0.3904 -0.0569  0.5463
  670MOL0     C88340   7.493   7.806   6.549 -0.0174 -0.7318 -0.2793
  670MOL0     C88341   7.392   7.735   6.616  0.2118 -1.0737 -0.1302
  670MOL0     C88342   7.417   7.647   6.720 -0.5551 -0.0234  0.4422
  670MOL0     O88343   7.317   7.574   6.766  0.2309 -0.0237  0.6907
  670MOL0     C88344   7.333   7.467   6.856  0.6430 -0.6111 -0.6537
  670MOL0     C88345   7.195   7.412   6.846 -0.5282  0.2874 -0.5786
  670MOL0     C88346   7.094   7.496   6.934  0.3803 -0.3160  0.6416
  670MOL0     C88347   6.969   7.420   6.977 -0.1328  0.9819 -0.4131
  670MOL0     C88348   6.888   7.509   7.065 -0.6476  1.0644 -1.4590
  670MOL0     C88349   6.803   7.436   7.164  0.7641 -0.1483 -0.0814
  670MOL0     C88350   6.669   7.373   7.105  0.5586 -0.5855  0.1480
  670MOL0     C88351   6.574   7.329   7.218  0.1787 -0.2129  0.1162
  670MOL0    Cl88352   6.516   7.465   7.315 -0.4419 -0.0257 -0.3077
  670MOL0     C88353   7.544   7.643   6.770  0.2674 -0.0292 -0.4540
  670MOL0     C88354   7.650   7.695   6.694  0.0488 -0.3365 -1.1921
  670MOL0     O88355   7.670   8.049   6.587  0.0982 -0.1610 -0.0355
  670MOL0     C88356   7.926   8.143   6.536 -0.4473 -0.1205  0.3094
  670MOL0     C88357   8.056   8.175   6.527  0.2634  0.0282 -0.1819
  670MOL0     N88358   8.581   8.453   6.098 -0.4239 -0.0240  0.3958
  670MOL0     N88359   8.525   8.562   6.047 -0.2073  1.0232 -0.6395
  670MOL0     C88360   7.256   8.985   6.308 -0.7226 -0.0452  0.1126
  670MOL0     C88361   7.120   8.961   6.305  0.5424 -0.0475  0.8465
  670MOL0     C88362   6.729   8.843   6.052  0.1526  0.3315  0.5060
  670MOL0     C88363   6.652   8.769   6.146 -0.1884  0.1838 -0.2225
  670MOL0     C88364   6.528   8.715   6.115 -0.1542  0.6511 -0.0193
  670MOL0     C88365   6.476   8.724   5.990 -0.0535  0.4427 -1.3844
  670MOL0     O88366   6.356   8.660   5.970 -0.0824  0.4587  0.1060
  670MOL0     C88367   6.296   8.671   5.839 -0.5691  0.4437  0.4675
  670MOL0     C88368   6.179   8.580   5.834 -0.1056  0.3989 -0.3920
  670MOL0     C88369   6.221   8.441   5.827  0.2042 -0.9056  0.5914
  670MOL0     C88370   6.300   8.388   5.705 -0.8529 -0.9118  0.5585
  670MOL0     C88371   6.451   8.417   5.697 -0.3756  0.5432  0.7633
  670MOL0     C88372   6.569   8.438   5.675 -0.0894  0.0384  0.0511
  670MOL0     C88373   6.548   8.793   5.891  0.7330  0.5100  0.4646
  670MOL0     C88374   6.668   8.847   5.926 -0.1037 -0.6746  0.4618
  670MOL0     H88375   7.111   8.760   6.044  3.0004 -1.5069 -0.6813
  670MOL0     H88376   7.346   8.788   6.051 -0.4544 -5.3010  0.1140
  670MOL0     H88377   7.568   8.879   6.065  1.5549  1.3055  0.7705
  670MOL0     H88378   7.562   8.762   6.203  1.0671  0.2708 -0.0151
  670MOL0     H88379   7.717   8.933   6.309 -0.4586  0.5804  0.1998
  670MOL0     H88380   7.744   9.003   6.146 -0.6761 -2.0958 -2.3000
  670MOL0     H88381   7.802   8.754   6.082  0.8800 -0.4398  1.4342
  670MOL0     H88382   7.755   8.719   6.249  0.5746 -2.8829 -3.2201
  670MOL0     H88383   7.988   8.900   6.142 -1.3201  2.0166  1.7436
  670MOL0     H88384   7.958   8.872   6.313 -2.1270  0.0565 -0.2780
  670MOL0     H88385   8.013   8.634   6.135 -2.2762 -0.9717 -0.0290
  670MOL0     H88386   7.992   8.648   6.318  1.8317  1.8551  0.8307
  670MOL0     H88387   8.235   8.625   6.267  1.0111  0.1580 -1.7490
  670MOL0     H88388   8.204   8.797   6.315 -0.3782 -0.6653  1.3393
  670MOL0     H88389   8.238   8.664   6.039  3.5941 -0.6564  0.2971
  670MOL0     H88390   8.215   8.839   6.064 -1.7913  1.3059  2.8702
  670MOL0     H88391   8.422   8.826   6.217 -0.9192 -0.6169  0.7494
  670MOL0     H88392   8.448   8.817   6.039 -3.7725  2.4456 -1.5084
  670MOL0     H88393   8.460   8.590   6.368  1.9292 -1.8246  0.7690
  670MOL0     H88394   8.685   8.434   6.404  2.8793 -1.2636 -0.6493
  670MOL0     H88395   8.700   8.292   6.308 -0.8620 -1.9089  1.0961
  670MOL0     H88396   8.435   8.363   6.460 -0.3734 -0.0845  1.7068
  670MOL0     H88397   8.572   8.261   6.513  0.4892  2.5585  0.7608
  670MOL0     H88398   8.393   8.229   6.282  0.0892  2.3963  1.0570
  670MOL0     H88399   8.538   8.142   6.287  0.8919  0.7448  0.1196
  670MOL0     H88400   8.475   8.061   6.522  2.7555  0.2743 -3.0075
  670MOL0     H88401   8.370   7.996   6.392 -0.1606  0.3871  1.2500
  670MOL0     H88402   8.211   7.892   6.498  0.7817  0.5983  2.5351
  670MOL0     H88403   7.959   7.818   6.520  0.0515  1.2705 -0.4732
  670MOL0     H88404   7.474   7.887   6.480 -3.9808 -1.1097  0.1561
  670MOL0     H88405   7.295   7.762   6.577  0.4150  1.6130  1.0172
  670MOL0     H88406   7.355   7.493   6.960  0.1714  3.6522 -1.3994
  670MOL0     H88407   7.409   7.396   6.823  3.1786  2.1712 -1.2434
  670MOL0     H88408   7.201   7.312   6.891  2.9864  0.8979  0.5555
  670MOL0     H88409   7.173   7.404   6.739  1.7380  0.6714 -1.1303
  670MOL0     H88410   7.051   7.577   6.873 -3.1308 -2.7922 -0.5231
  670MOL0     H88411   7.145   7.547   7.016  3.9340 -2.6262  0.1053
  670MOL0     H88412   6.919   7.384   6.887 -0.1906  0.6282 -0.2401
  670MOL0     H88413   6.994   7.334   7.039  1.1805  2.3982  1.1239
  670MOL0     H88414   6.830   7.577   7.002 -3.3528 -1.1231 -1.5408
  670MOL0     H88415   6.951   7.570   7.131 -1.4457 -0.1779  0.5249
  670MOL0     H88416   6.782   7.508   7.244  1.2849  0.3445 -0.3807
  670MOL0     H88417   6.867   7.359   7.208  0.3104  0.2282  1.2870
  670MOL0     H88418   6.619   7.441   7.035 -2.4123 -1.8369  0.9097
  670MOL0     H88419   6.696   7.282   7.051 -0.2900 -0.0010 -1.3265
  670MOL0     H88420   6.612   7.260   7.294 -0.4578  1.1613  1.7465
  670MOL0     H88421   6.491   7.273   7.173  1.1359 -0.9609 -0.7710
  670MOL0     H88422   7.563   7.582   6.858  0.3486  2.5154  1.4181
  670MOL0     H88423   7.749   7.670   6.728  0.3231  0.4230 -1.4115
  670MOL0     H88424   7.847   8.216   6.545  1.7608  2.8922 -2.4623
  670MOL0     H88425   8.071   8.282   6.533 -2.7027  0.4736  1.1184
  670MOL0     H88426   7.301   9.049   6.384  0.5799 -0.9266  0.1229
  670MOL0     H88427   7.062   9.008   6.383 -0.9967 -0.1272 -0.2157
  670MOL0     H88428   6.709   8.759   6.238  1.5199  0.4848 -1.2004
  670MOL0     H88429   6.480   8.655   6.191  1.2865  1.1650  1.3463
  670MOL0     H88430   6.365   8.660   5.755 -0.8589  2.6810 -0.1260
  670MOL0     H88431   6.263   8.775   5.828 -0.9846  0.3373  0.6673
  670MOL0     H88432   6.111   8.596   5.918  1.2596 -0.3604  0.8845
  670MOL0     H88433   6.128   8.597   5.738  2.2012 -0.5907 -1.8933
  670MOL0     H88434   6.129   8.381   5.822 -2.7351  2.9597  3.1590
  670MOL0     H88435   6.283   8.415   5.914  1.0549  2.7691  1.2411
  670MOL0     H88436   6.296   8.279   5.704  1.5471 -1.0648 -0.9727
  670MOL0     H88437   6.256   8.429   5.613 -0.3083 -0.5629  0.4476
  670MOL0     H88438   6.672   8.463   5.665 -0.4102  1.4375  0.0516
  670MOL0     H88439   6.502   8.806   5.793  1.6454  1.4115  0.1455
  670MOL0     H88440   6.707   8.924   5.860 -0.5399  1.8698  2.9744
  671MOL0     O88441   7.812   0.304   6.474  0.3102  0.3705 -0.6862
  671MOL0     C88442   7.875   0.320   6.575 -0.6727  0.6100  0.1943
  671MOL0     O88443   7.853   0.261   6.697  0.5044  0.1004 -0.5773
  671MOL0     C88444   7.728   0.197   6.709  0.0167 -0.6310 -0.0681
  671MOL0     C88445   7.633   0.260   6.788  0.2573 -0.3792 -0.0019
  671MOL0     C88446   7.510   0.199   6.800  0.7675  0.2862  0.2500
  671MOL0     C88447   7.487   0.071   6.737 -1.1065  0.2580  0.3129
  671MOL0     O88448   7.379  -0.009   6.742 -0.2424 -0.2256 -0.4488
  671MOL0     C88449   7.262   0.071   6.717  0.4216  0.2490  0.5832
  671MOL0     C88450   7.183  -0.013   6.619  0.2902 -0.5773  0.7189
  671MOL0     C88451   7.034  -0.039   6.657 -0.0082 -0.2292 -0.0694
  671MOL0     C88452   6.964  -0.133   6.562  0.6799  0.4572  0.6016
  671MOL0     C88453   6.839  -0.204   6.617 -0.5037  0.0638 -0.8834
  671MOL0     C88454   6.780  -0.300   6.510 -0.4277  0.4865 -0.4238
  671MOL0     C88455   6.714  -0.222   6.393  0.3418 -0.5215  0.8614
  671MOL0     C88456   6.596  -0.285   6.315  0.3426  0.0627  0.0326
  671MOL0     N88457   6.641  -0.409   6.249 -0.2760  1.0478  0.1423
  671MOL0     C88458   6.656  -0.425   6.111 -0.0894 -1.0821  0.8155
  671MOL0     C88459   6.652  -0.559   6.076 -0.2220  0.6118 -0.5910
  671MOL0     C88460   6.658  -0.623   5.945 -0.2267 -0.1142 -0.0536
  671MOL0     C88461   6.519  -0.675   5.901 -0.0720 -0.6321 -0.6218
  671MOL0     C88462   6.543  -0.746   5.774  0.1078  1.4180  0.0289
  671MOL0     C88463   6.418  -0.732   5.685 -0.7450 -0.2673  0.2170
  671MOL0     O88464   6.406  -0.599   5.607 -0.3214 -0.8588 -0.5406
  671MOL0     C88465   6.281  -0.571   5.567  1.1533  0.0263  0.0996
  671MOL0     C88466   6.207  -0.500   5.655  0.2764 -0.3703  0.2283
  671MOL0     C88467   6.074  -0.472   5.623  0.8872  0.0528 -0.4700
  671MOL0     C88468   6.005  -0.522   5.509 -1.1688  0.5636  0.4369
  671MOL0     C88469   5.869  -0.493   5.474  1.0626 -0.6309  0.7860
  671MOL0     O88470   5.786  -0.479   5.578  0.3416  0.1970  0.0032
  671MOL0     C88471   5.646  -0.503   5.570 -0.1134  0.0619 -0.0695
  671MOL0     C88472   5.586  -0.593   5.484  0.0871 -0.0078  0.1555
  671MOL0     C88473   5.448  -0.594   5.457 -0.0578  0.2206 -0.8506
  671MOL0     C88474   5.366  -0.513   5.535 -0.9278 -0.5908  0.3266
  671MOL0     O88475   5.233  -0.525   5.511 -0.3691 -0.1836  0.0350
  671MOL0     C88476   5.146  -0.493   5.622  0.1080 -0.0152 -0.4327
  671MOL0     C88477   5.005  -0.515   5.582  0.3745  0.2755  0.8658
  671MOL0     C88478   4.947  -0.412   5.490  0.8784 -0.3983  0.5243
  671MOL0     C88479   4.802  -0.457   5.441  0.6192  0.6016 -0.2360
  671MOL0     C88480   4.736  -0.361   5.339 -0.2860  0.1371 -0.8179
  671MOL0     C88481   4.593  -0.401   5.310  0.8402 -0.6086  0.1367
  671MOL0     C88482   4.575  -0.536   5.228 -0.9941 -0.2384  0.5538
  671MOL0     C88483   4.524  -0.522   5.088 -0.3548 -0.6799 -0.5077
  671MOL0    Cl88484   4.650  -0.432   4.995  0.3887  0.0275 -0.1538
  671MOL0     C88485   5.424  -0.439   5.632 -0.0858 -0.5798 -0.1571
  671MOL0     C88486   5.558  -0.427   5.653  0.2263 -1.1000 -0.3566
  671MOL0     O88487   5.831  -0.486   5.358  0.1948 -0.2666  0.5539
  671MOL0     C88488   6.082  -0.614   5.432 -0.6075  0.4365  0.7053
  671MOL0     C88489   6.216  -0.635   5.455 -0.2141 -0.2871 -0.7225
  671MOL0     N88490   6.627  -0.625   6.195 -0.8169 -1.3930 -0.3828
  671MOL0     N88491   6.627  -0.538   6.290 -0.9147  0.6280 -0.6226
  671MOL0     C88492   7.587   0.007   6.658 -0.1176 -0.4234  0.1842
  671MOL0     C88493   7.708   0.079   6.647  0.9920  0.3917  0.5702
  671MOL0     C88494   8.002   0.388   6.556  0.1497 -0.0036 -0.3106
  671MOL0     C88495   8.108   0.360   6.644 -0.9745 -0.3974  0.2156
  671MOL0     C88496   8.234   0.427   6.634 -0.7861 -0.7986  0.0282
  671MOL0     C88497   8.259   0.522   6.528  1.0058  0.8385 -0.3579
  671MOL0     O88498   8.375   0.574   6.486 -0.4976 -0.0327 -0.4940
  671MOL0     C88499   8.505   0.563   6.542  0.2537  0.1187  0.1088
  671MOL0     C88500   8.587   0.444   6.478 -0.3710  0.2956 -0.4322
  671MOL0     C88501   8.589   0.448   6.320 -1.0993  0.3440  0.2080
  671MOL0     C88502   8.483   0.354   6.270  0.4672  0.4760 -0.8068
  671MOL0     C88503   8.478   0.353   6.126  0.6752  0.5644 -0.5204
  671MOL0     C88504   8.493   0.330   6.002  1.5212 -0.7023 -0.0672
  671MOL0     C88505   8.152   0.553   6.439 -0.2419  0.3932 -0.0899
  671MOL0     C88506   8.023   0.488   6.455  0.7831 -0.4226  0.5872
  671MOL0     H88507   7.654   0.355   6.837  0.4566 -0.7744  0.6844
  671MOL0     H88508   7.437   0.247   6.865  1.3485  1.9452 -0.2846
  671MOL0     H88509   7.276   0.165   6.664  1.3890 -0.8488 -1.2046
  671MOL0     H88510   7.208   0.090   6.810 -0.3006 -0.3415  0.2989
  671MOL0     H88511   7.226  -0.113   6.605  2.7750  0.0691  2.7930
  671MOL0     H88512   7.193   0.021   6.516  2.4689 -3.8418 -0.2905
  671MOL0     H88513   6.978   0.055   6.662 -2.0787 -1.2876 -1.6383
  671MOL0     H88514   7.035  -0.085   6.756  0.7694 -1.9044 -0.8115
  671MOL0     H88515   6.938  -0.080   6.470 -0.1742 -0.6672  0.1670
  671MOL0     H88516   7.029  -0.212   6.523  0.8928 -0.1413  2.0692
  671MOL0     H88517   6.756  -0.137   6.643 -0.8767 -1.3665  2.0662
  671MOL0     H88518   6.862  -0.254   6.712  0.4758 -1.1002 -1.7069
  671MOL0     H88519   6.698  -0.363   6.544 -1.3433  1.6560 -0.3765
  671MOL0     H88520   6.867  -0.357   6.477  1.0747  1.9578  0.7975
  671MOL0     H88521   6.688  -0.123   6.431  1.8276  0.3429 -0.2606
  671MOL0     H88522   6.790  -0.192   6.319  0.2385  1.0961  1.3659
  671MOL0     H88523   6.552  -0.219   6.239  0.5118 -0.2202 -0.3159
  671MOL0     H88524   6.514  -0.310   6.383  0.6138  0.1951  0.4134
  671MOL0     H88525   6.659  -0.345   6.039  2.1478 -3.6894 -2.3043
  671MOL0     H88526   6.720  -0.712   5.956  1.5282  0.7854 -2.0483
  671MOL0     H88527   6.709  -0.560   5.872  0.7302 -0.7529  0.0442
  671MOL0     H88528   6.446  -0.597   5.880  2.4720  1.4957 -2.2329
  671MOL0     H88529   6.472  -0.742   5.973  2.9138 -3.6582 -1.2275
  671MOL0     H88530   6.629  -0.706   5.719  1.0877 -0.1741  0.3044
  671MOL0     H88531   6.564  -0.850   5.802 -1.9729  1.4222  1.8890
  671MOL0     H88532   6.328  -0.751   5.743 -1.6631  1.1148 -0.6902
  671MOL0     H88533   6.421  -0.808   5.606  3.0903  0.6845 -0.7500
  671MOL0     H88534   6.259  -0.473   5.746  0.3197 -1.2381  0.4736
  671MOL0     H88535   6.010  -0.414   5.688 -1.4333  1.6347 -3.8557
  671MOL0     H88536   5.646  -0.661   5.425  0.1401  0.1889 -0.0216
  671MOL0     H88537   5.412  -0.656   5.375 -1.5139  2.2752 -1.8478
  671MOL0     H88538   5.157  -0.386   5.644 -1.0589 -0.4525  2.9088
  671MOL0     H88539   5.169  -0.540   5.718 -1.1923 -0.3087 -0.2472
  671MOL0     H88540   4.940  -0.519   5.670  1.7676 -0.2898  1.9188
  671MOL0     H88541   4.989  -0.610   5.531 -1.3755  0.8899  0.1916
  671MOL0     H88542   5.004  -0.400   5.398 -2.3896  1.8820 -1.4364
  671MOL0     H88543   4.943  -0.312   5.535  2.0182 -0.2686  0.3577
  671MOL0     H88544   4.811  -0.560   5.404 -0.4661  0.3798  0.0797
  671MOL0     H88545   4.732  -0.462   5.525 -2.3425  1.5364 -2.4883
  671MOL0     H88546   4.796  -0.360   5.247 -2.1269 -0.7645 -2.0808
  671MOL0     H88547   4.743  -0.257   5.372  2.1476 -0.1490 -0.2222
  671MOL0     H88548   4.553  -0.311   5.262  1.0123 -0.5613  0.0808
  671MOL0     H88549   4.540  -0.401   5.406 -1.5046  0.1965 -1.0931
  671MOL0     H88550   4.674  -0.582   5.220 -0.0261  1.6589  1.1130
  671MOL0     H88551   4.511  -0.611   5.274 -1.6447 -1.2030 -1.8149
  671MOL0     H88552   4.430  -0.466   5.099  0.9910  1.4733  0.7245
  671MOL0     H88553   4.503  -0.621   5.046  1.4117 -0.1867 -2.7132
  671MOL0     H88554   5.352  -0.384   5.692 -0.0533 -1.8247  1.0677
  671MOL0     H88555   5.593  -0.362   5.732  1.6561 -1.5374 -0.5989
  671MOL0     H88556   6.025  -0.668   5.358  0.0195  1.8865 -0.8906
  671MOL0     H88557   6.279  -0.692   5.388 -0.5494 -1.3821 -0.1303
  671MOL0     H88558   7.564  -0.090   6.615  2.0515 -0.5767 -0.7469
  671MOL0     H88559   7.783   0.025   6.589  0.8053  0.9373 -0.2012
  671MOL0     H88560   8.090   0.305   6.735 -1.4818  3.1679  2.4483
  671MOL0     H88561   8.311   0.410   6.708 -1.1352 -0.1758  0.5437
  671MOL0     H88562   8.503   0.548   6.651 -1.2175  0.1175  0.1029
  671MOL0     H88563   8.552   0.659   6.521  0.9335  0.3769  2.4618
  671MOL0     H88564   8.688   0.456   6.519  0.4431  2.4471 -2.7858
  671MOL0     H88565   8.549   0.344   6.498 -0.1560  0.8610  3.7686
  671MOL0     H88566   8.683   0.404   6.284 -2.2770 -1.6655 -0.5395
  671MOL0     H88567   8.582   0.553   6.289 -3.4982  0.3071  0.4698
  671MOL0     H88568   8.501   0.251   6.304 -2.8745  0.5360  1.7035
  671MOL0     H88569   8.391   0.373   6.326  1.7097  2.1847  0.7581
  671MOL0     H88570   8.495   0.294   5.901 -2.3311 -2.6712  0.3735
  671MOL0     H88571   8.177   0.610   6.350 -0.9976  5.6833  2.7068
  671MOL0     H88572   7.938   0.515   6.394 -0.3320 -1.8681  1.4309
  672MOL0     O88573   5.830   5.860   9.492 -0.7603 -0.7285  0.2567
  672MOL0     C88574   5.857   5.786   9.585  0.3468 -0.1736  0.8921
  672MOL0     O88575   5.756   5.724   9.656  0.5512 -0.5170 -0.1428
  672MOL0     C88576   5.623   5.731   9.606 -0.6403 -0.7352 -0.1036
  672MOL0     C88577   5.589   5.704   9.464 -0.1970  0.4292 -0.5669
  672MOL0     C88578   5.457   5.704   9.418 -0.0962  1.7070  0.5060
  672MOL0     C88579   5.347   5.725   9.505 -0.3208  0.1698 -0.1765
  672MOL0     O88580   5.223   5.729   9.458 -0.5348  0.5281  0.0820
  672MOL0     C88581   5.108   5.715   9.539  0.5903 -0.3607 -0.5026
  672MOL0     C88582   5.008   5.643   9.447  0.2187 -0.3222 -0.6032
  672MOL0     C88583   4.868   5.624   9.520 -0.0296  0.0198 -0.6553
  672MOL0     C88584   4.775   5.533   9.429 -0.6142  0.8471  0.1520
  672MOL0     C88585   4.638   5.531   9.506  1.1225 -0.2445  0.0798
  672MOL0     C88586   4.523   5.464   9.424 -0.3701 -0.2566  0.3467
  672MOL0     C88587   4.384   5.488   9.469  0.0780 -0.9778 -0.6259
  672MOL0     C88588   4.294   5.378   9.413  0.2077  0.1130 -0.6203
  672MOL0     N88589   4.157   5.409   9.451  0.3941 -0.7980  0.7511
  672MOL0     C88590   4.056   5.435   9.363 -1.5650 -0.5061 -0.0410
  672MOL0     C88591   3.972   5.504   9.434  0.2868 -0.2100 -0.0966
  672MOL0     C88592   3.846   5.564   9.368  0.4439 -0.3830 -0.7069
  672MOL0     C88593   3.755   5.654   9.455 -0.0070 -0.3582 -0.1392
  672MOL0     C88594   3.813   5.788   9.501  0.2972  0.2503 -0.2488
  672MOL0     C88595   3.704   5.882   9.564 -0.0782 -0.6228  0.4808
  672MOL0     O88596   3.643   5.821   9.681  0.8548 -0.2067 -0.0440
  672MOL0     C88597   3.553   5.901   9.745 -0.1421 -0.1109 -0.6146
  672MOL0     C88598   3.595   6.019   9.803 -0.2851 -0.4728  0.1889
  672MOL0     C88599   3.511   6.106   9.871 -0.2610  0.2309  0.0371
  672MOL0     C88600   3.380   6.063   9.894  0.8488  0.8682 -0.1201
  672MOL0     C88601   3.296   6.127   9.997 -0.4870 -0.2976 -0.1826
  672MOL0     O88602   3.173   6.083  10.015  0.1724  0.4119  0.2731
  672MOL0     C88603   3.108   6.113  10.134  0.6032  0.2688  0.7635
  672MOL0     C88604   3.173   6.124  10.256  0.3138  0.6733 -0.3945
  672MOL0     C88605   3.086   6.146  10.371 -0.0222  0.0636  0.0651
  672MOL0     C88606   2.942   6.163  10.358 -0.2936  0.3947 -0.8917
  672MOL0     O88607   2.857   6.193  10.464 -0.6622 -0.5142 -0.6636
  672MOL0     C88608   2.902   6.174  10.595  0.2962  0.0661 -0.3659
  672MOL0     C88609   2.791   6.235  10.681  0.0483  0.0545  0.3488
  672MOL0     C88610   2.797   6.390  10.677 -0.3562  0.5813  0.8250
  672MOL0     C88611   2.713   6.461  10.784 -0.2479  0.5948  0.0238
  672MOL0     C88612   2.564   6.464  10.751 -0.5242 -0.3332  0.2373
  672MOL0     C88613   2.480   6.512  10.875  0.6540  0.6940  0.2038
  672MOL0     C88614   2.508   6.655  10.927  0.2951 -0.0719  0.3339
  672MOL0     C88615   2.486   6.775  10.827 -0.2490  0.7833  0.9302
  672MOL0    Cl88616   2.328   6.759  10.744  0.0040 -0.2330 -0.0088
  672MOL0     C88617   2.891   6.169  10.226  0.8460 -0.4228  0.1368
  672MOL0     C88618   2.969   6.141  10.115  0.4321 -0.0033 -0.5335
  672MOL0     O88619   3.342   6.232  10.049  0.1758  0.3222  0.2436
  672MOL0     C88620   3.331   5.949   9.836 -0.4801 -0.0778  0.3697
  672MOL0     C88621   3.414   5.871   9.758 -1.3265  0.2514  0.3073
  672MOL0     N88622   4.010   5.504   9.569 -0.0819 -0.4641  0.1893
  672MOL0     N88623   4.127   5.461   9.570 -0.0419 -0.2100  0.5939
  672MOL0     C88624   5.376   5.760   9.642 -0.3236 -0.2447 -0.1062
  672MOL0     C88625   5.513   5.757   9.691  0.1338 -1.0263  0.0590
  672MOL0     C88626   5.997   5.774   9.633 -0.0362  0.3903 -0.0270
  672MOL0     C88627   6.017   5.733   9.769 -0.1538 -0.7830  0.0160
  672MOL0     C88628   6.146   5.718   9.817  0.0251 -0.6439  0.9982
  672MOL0     C88629   6.256   5.737   9.729 -0.1450 -0.1947  0.8951
  672MOL0     O88630   6.377   5.710   9.761 -0.5029  0.1948  0.6694
  672MOL0     C88631   6.416   5.719   9.900 -0.0436 -0.0411  0.1185
  672MOL0     C88632   6.568   5.747   9.897  0.3807  0.3555 -0.0153
  672MOL0     C88633   6.657   5.645   9.839  0.0768 -0.9273 -0.0435
  672MOL0     C88634   6.618   5.499   9.870 -0.0350 -0.7086  0.5829
  672MOL0     C88635   6.660   5.456  10.004 -0.5811 -0.0108  0.1278
  672MOL0     C88636   6.695   5.458  10.123 -1.1909  0.6669  0.4341
  672MOL0     C88637   6.232   5.781   9.602  0.3297 -0.7858 -0.3367
  672MOL0     C88638   6.104   5.794   9.548 -0.6588 -0.0152 -0.7715
  672MOL0     H88639   5.666   5.682   9.391  0.5891 -2.2994  0.9431
  672MOL0     H88640   5.441   5.683   9.312 -0.1680  0.6018  0.7225
  672MOL0     H88641   5.064   5.813   9.561 -0.5808 -0.7243 -1.1494
  672MOL0     H88642   5.116   5.661   9.634  0.1774 -1.3661 -1.0314
  672MOL0     H88643   5.045   5.550   9.402  1.0710 -0.7410  0.8704
  672MOL0     H88644   4.983   5.716   9.370 -1.8061  1.5380  1.6384
  672MOL0     H88645   4.817   5.720   9.529  0.6815  0.3712 -0.2485
  672MOL0     H88646   4.878   5.584   9.622  1.3081  0.1116 -0.7263
  672MOL0     H88647   4.766   5.588   9.335  0.3737  1.5914  0.4883
  672MOL0     H88648   4.812   5.431   9.410 -2.1714 -0.2448  2.5268
  672MOL0     H88649   4.614   5.636   9.528 -0.2611 -0.4492 -0.4042
  672MOL0     H88650   4.640   5.476   9.600 -0.5422  0.7675  0.7574
  672MOL0     H88651   4.545   5.359   9.406 -3.0519 -0.2810 -4.4899
  672MOL0     H88652   4.525   5.506   9.323 -4.7960 -1.5548 -0.5275
  672MOL0     H88653   4.375   5.471   9.577 -2.0515  1.5952 -0.3164
  672MOL0     H88654   4.342   5.581   9.430  1.9004 -0.9835 -2.8487
  672MOL0     H88655   4.315   5.283   9.464 -2.5379  0.1158  0.7205
  672MOL0     H88656   4.297   5.370   9.304  0.5891 -3.3800 -0.4775
  672MOL0     H88657   4.059   5.424   9.255 -1.3660  1.5140 -0.2785
  672MOL0     H88658   3.784   5.476   9.350  1.0321 -1.6179  2.4941
  672MOL0     H88659   3.873   5.624   9.281 -0.5602  1.3805  0.1245
  672MOL0     H88660   3.725   5.599   9.545  0.8003 -1.9134 -0.7985
  672MOL0     H88661   3.668   5.674   9.393  1.1588  2.7440 -0.9668
  672MOL0     H88662   3.887   5.769   9.579 -0.8815 -3.3232  0.2118
  672MOL0     H88663   3.849   5.824   9.404  1.2396 -0.7230 -0.2711
  672MOL0     H88664   3.633   5.912   9.487  1.5599  1.1928 -0.4168
  672MOL0     H88665   3.762   5.970   9.593 -0.1833 -0.4439  0.1507
  672MOL0     H88666   3.697   6.047   9.778 -1.0005  0.2308 -2.2466
  672MOL0     H88667   3.538   6.197   9.923 -1.8169 -0.2534  1.7894
  672MOL0     H88668   3.276   6.097  10.277 -0.6129 -1.2973  2.1123
  672MOL0     H88669   3.129   6.141  10.471 -1.8953  2.6212  1.1069
  672MOL0     H88670   2.998   6.226  10.608  0.3414  0.2976 -1.5400
  672MOL0     H88671   2.916   6.073  10.634  2.5285  1.4416  2.8817
  672MOL0     H88672   2.803   6.205  10.786  0.1410  0.2331  0.3900
  672MOL0     H88673   2.694   6.199  10.646 -0.3410  2.1443 -0.9280
  672MOL0     H88674   2.756   6.410  10.577  2.7375  1.6082 -0.3581
  672MOL0     H88675   2.904   6.414  10.682 -0.0506 -0.9229  2.2094
  672MOL0     H88676   2.726   6.419  10.884 -4.3313 -1.4511 -0.1239
  672MOL0     H88677   2.751   6.563  10.798  2.1584 -0.6693  4.3947
  672MOL0     H88678   2.523   6.364  10.729  2.1428 -1.5128  0.2464
  672MOL0     H88679   2.533   6.537  10.676 -1.9851 -1.6314 -0.4814
  672MOL0     H88680   2.514   6.441  10.951  1.9761 -1.2234 -2.0399
  672MOL0     H88681   2.372   6.499  10.861  0.9928 -0.8132 -1.5904
  672MOL0     H88682   2.435   6.662  11.007  1.8273 -2.3820  2.0303
  672MOL0     H88683   2.608   6.682  10.962  0.0147  0.3784  0.8097
  672MOL0     H88684   2.566   6.766  10.754 -1.5796  1.7164 -0.7129
  672MOL0     H88685   2.497   6.876  10.867  1.5593  3.0974 -4.5077
  672MOL0     H88686   2.790   6.197  10.201  0.9672  0.4137  0.5698
  672MOL0     H88687   2.926   6.133  10.015 -4.4370  2.2059  1.1072
  672MOL0     H88688   3.224   5.932   9.849 -0.3505 -0.5468  0.8223
  672MOL0     H88689   3.380   5.775   9.722  3.4862 -1.8636  0.5754
  672MOL0     H88690   5.297   5.788   9.711  0.6169 -1.3797  1.5148
  672MOL0     H88691   5.523   5.783   9.796  0.5843 -0.0234 -0.2173
  672MOL0     H88692   5.930   5.716   9.830 -1.3508 -3.7345 -2.2811
  672MOL0     H88693   6.156   5.686   9.920  2.3176 -4.4373 -0.1819
  672MOL0     H88694   6.383   5.631   9.956 -1.0279 -0.1675 -0.6272
  672MOL0     H88695   6.373   5.804   9.955  3.7800 -0.1143  3.6859
  672MOL0     H88696   6.587   5.845   9.852 -0.6710 -0.3155 -2.0124
  672MOL0     H88697   6.587   5.760  10.004  0.2404  0.4367 -0.0000
  672MOL0     H88698   6.761   5.665   9.867  0.5639 -1.1127 -1.6486
  672MOL0     H88699   6.651   5.659   9.731 -1.3452  2.1332  0.2962
  672MOL0     H88700   6.514   5.487   9.840  0.1685  0.9436 -0.9489
  672MOL0     H88701   6.679   5.456   9.790  1.6390 -0.4588  1.6612
  672MOL0     H88702   6.730   5.457  10.224  0.6189  0.0257 -0.1432
  672MOL0     H88703   6.314   5.808   9.535 -0.3642  1.5804 -0.3151
  672MOL0     H88704   6.095   5.814   9.442  0.4181  1.0712 -0.6830
  673MOL0     O88705   1.258   2.059   4.511 -0.1351  0.2989 -0.2460
  673MOL0     C88706   1.264   1.946   4.558  0.1307  0.1907  0.4419
  673MOL0     O88707   1.385   1.870   4.566  0.1352  0.2743 -0.0224
  673MOL0     C88708   1.510   1.927   4.553 -0.2344  0.4959  0.6823
  673MOL0     C88709   1.610   1.842   4.500 -0.6014 -0.2432  0.1430
  673MOL0     C88710   1.738   1.890   4.484 -0.7072  0.6733 -0.2729
  673MOL0     C88711   1.775   2.021   4.516  0.5191 -0.3636  0.0956
  673MOL0     O88712   1.901   2.078   4.495 -0.3291  0.0241 -0.5182
  673MOL0     C88713   2.024   2.005   4.525  1.1111 -1.1921  0.1430
  673MOL0     C88714   2.104   1.992   4.400  0.3830 -1.0120 -0.0983
  673MOL0     C88715   2.240   1.918   4.432  0.1876  0.9798  1.7793
  673MOL0     C88716   2.328   1.941   4.305  0.1936  0.8002  0.8793
  673MOL0     C88717   2.474   1.893   4.332 -0.3120 -1.3407 -0.5537
  673MOL0     C88718   2.563   1.896   4.208  0.0411  0.1157  0.6813
  673MOL0     C88719   2.702   1.851   4.257  0.2977  0.4918  0.5114
  673MOL0     C88720   2.798   1.961   4.287  0.5226 -0.2656 -0.3221
  673MOL0     N88721   2.913   1.921   4.374  0.1336  0.2459  0.3085
  673MOL0     C88722   3.028   1.859   4.323 -0.3008 -0.2217  0.5477
  673MOL0     C88723   3.100   1.819   4.432  0.3494 -0.0675 -0.5129
  673MOL0     C88724   3.244   1.772   4.427 -0.2439  0.7332 -0.1419
  673MOL0     C88725   3.336   1.851   4.337 -0.3432 -0.5326  0.7334
  673MOL0     C88726   3.481   1.804   4.342  0.7572 -0.4540 -0.8406
  673MOL0     C88727   3.509   1.667   4.273  0.1217 -0.6072 -0.5926
  673MOL0     O88728   3.530   1.685   4.126  0.5344 -0.0218 -0.4875
  673MOL0     C88729   3.432   1.653   4.038  0.6474  0.4295 -0.7243
  673MOL0     C88730   3.304   1.587   4.069 -0.3841 -0.2826  0.8100
  673MOL0     C88731   3.210   1.554   3.970 -0.0009  0.1609  0.5242
  673MOL0     C88732   3.247   1.577   3.836  0.5458 -0.0579  0.2242
  673MOL0     C88733   3.154   1.555   3.720 -0.4258  0.3238 -0.5897
  673MOL0     O88734   3.033   1.503   3.747 -1.1071  0.6940  0.4158
  673MOL0     C88735   2.941   1.491   3.647 -0.5795 -0.6393 -0.2132
  673MOL0     C88736   2.886   1.371   3.619 -0.4242  0.5238  0.6137
  673MOL0     C88737   2.780   1.349   3.536  1.5145 -0.5804 -0.4900
  673MOL0     C88738   2.734   1.457   3.453 -0.2014  1.0233 -0.4101
  673MOL0     O88739   2.633   1.446   3.364 -0.1493 -0.0094 -0.4318
  673MOL0     C88740   2.619   1.320   3.301  1.0170 -0.0834  0.1104
  673MOL0     C88741   2.495   1.249   3.356  0.4164 -0.2402  0.0304
  673MOL0     C88742   2.483   1.102   3.321  0.3353 -0.3839 -0.0236
  673MOL0     C88743   2.383   1.022   3.404  0.5178  0.1313 -0.2057
  673MOL0     C88744   2.410   0.873   3.410 -0.2908  1.4279  0.4316
  673MOL0     C88745   2.289   0.796   3.480  0.6685  0.5710  0.9018
  673MOL0     C88746   2.161   0.818   3.406 -0.1084 -0.1376  0.1960
  673MOL0     C88747   2.172   0.822   3.258 -0.1890 -0.0372  1.4344
  673MOL0    Cl88748   2.002   0.833   3.207  0.4474  0.0407 -0.0360
  673MOL0     C88749   2.781   1.578   3.468 -0.3577 -0.3384 -0.6033
  673MOL0     C88750   2.893   1.599   3.564  0.2592 -0.4602 -0.1577
  673MOL0     O88751   3.184   1.590   3.608 -0.5429 -0.0778  1.1482
  673MOL0     C88752   3.378   1.628   3.812  0.4450 -0.5705  0.6799
  673MOL0     C88753   3.469   1.654   3.911  0.3480  0.1814  0.2794
  673MOL0     N88754   3.029   1.868   4.544  0.2457 -0.4403  0.1410
  673MOL0     N88755   2.925   1.930   4.511 -0.1376  0.6377  0.3206
  673MOL0     C88756   1.675   2.105   4.569 -0.6377 -0.1077  0.4685
  673MOL0     C88757   1.541   2.061   4.588 -0.5017  0.2651  1.0152
  673MOL0     C88758   1.141   1.875   4.593  0.2889  0.3436  0.7283
  673MOL0     C88759   1.023   1.943   4.620  0.0788 -0.3707 -0.4409
  673MOL0     C88760   0.900   1.870   4.653  0.3347  0.8635 -0.5247
  673MOL0     C88761   0.906   1.730   4.664 -0.3379 -0.7154 -0.4789
  673MOL0     O88762   0.806   1.647   4.700  0.0367 -0.2021 -0.0364
  673MOL0     C88763   0.676   1.686   4.734 -0.2023  0.7942  0.1385
  673MOL0     C88764   0.661   1.713   4.881  0.1076 -0.1112 -0.1508
  673MOL0     C88765   0.521   1.718   4.922 -0.3299 -0.1350 -1.2214
  673MOL0     C88766   0.469   1.861   4.955 -0.9211  0.2132  0.3858
  673MOL0     C88767   0.537   1.910   5.076 -0.0077 -0.0043  0.5157
  673MOL0     C88768   0.610   1.957   5.163  0.3505  0.1283  0.4035
  673MOL0     C88769   1.024   1.671   4.646 -0.0194 -0.4296 -0.0601
  673MOL0     C88770   1.142   1.739   4.608  0.5071  0.0311 -1.0111
  673MOL0     H88771   1.592   1.738   4.471  3.3335 -0.3929 -2.4758
  673MOL0     H88772   1.812   1.830   4.432  0.1294  4.5607 -4.1806
  673MOL0     H88773   2.003   1.912   4.580  0.2846 -0.7623  0.5760
  673MOL0     H88774   2.071   2.068   4.600  1.4929  1.9879 -2.5260
  673MOL0     H88775   2.130   2.084   4.348  0.6471  0.0092  1.7553
  673MOL0     H88776   2.046   1.935   4.327 -0.3964 -1.2362  0.6788
  673MOL0     H88777   2.218   1.815   4.461 -0.0482  1.3954  3.1560
  673MOL0     H88778   2.290   1.960   4.520 -0.1293 -0.6418  2.7772
  673MOL0     H88779   2.289   1.885   4.220  0.4423  1.0318  0.6093
  673MOL0     H88780   2.333   2.046   4.273 -1.6185  0.3608 -1.0863
  673MOL0     H88781   2.472   1.790   4.368  1.6103 -0.5136  2.2966
  673MOL0     H88782   2.520   1.955   4.410 -2.1259 -0.2253 -0.3106
  673MOL0     H88783   2.571   2.000   4.175  0.6047  0.7225  2.5636
  673MOL0     H88784   2.529   1.831   4.127 -1.3383  1.0409  0.4867
  673MOL0     H88785   2.692   1.796   4.351 -0.2611 -2.2640 -1.0226
  673MOL0     H88786   2.757   1.786   4.188  1.0602  0.2918  1.2947
  673MOL0     H88787   2.741   2.036   4.343 -0.6567 -0.9060 -0.6217
  673MOL0     H88788   2.840   1.996   4.193 -0.6595 -2.6370 -1.8343
  673MOL0     H88789   3.055   1.834   4.221 -1.0908  0.6674  0.1035
  673MOL0     H88790   3.219   1.672   4.390 -1.1306  1.0203 -0.3280
  673MOL0     H88791   3.279   1.772   4.531 -1.6056 -0.7268  0.3611
  673MOL0     H88792   3.343   1.957   4.366 -1.8689 -0.5589  1.2819
  673MOL0     H88793   3.285   1.852   4.240  0.5135 -1.3321  0.2630
  673MOL0     H88794   3.555   1.877   4.307 -0.6673  0.7937 -1.3383
  673MOL0     H88795   3.510   1.773   4.443  3.5766  0.1600 -1.3692
  673MOL0     H88796   3.426   1.601   4.301 -1.4642  1.1739 -0.8902
  673MOL0     H88797   3.597   1.619   4.316 -0.9453 -1.6464  0.5101
  673MOL0     H88798   3.274   1.560   4.170 -0.3513 -1.1292  0.5928
  673MOL0     H88799   3.110   1.518   3.995 -0.0144 -1.4447 -1.5821
  673MOL0     H88800   2.932   1.295   3.682 -0.9673  1.3370  2.0429
  673MOL0     H88801   2.736   1.250   3.535 -3.4717  1.2237  2.3628
  673MOL0     H88802   2.710   1.259   3.304  1.2632  0.2386 -0.6329
  673MOL0     H88803   2.592   1.352   3.200 -0.6763  1.4430  1.0006
  673MOL0     H88804   2.401   1.293   3.321  0.8782  0.5630 -0.2248
  673MOL0     H88805   2.493   1.261   3.465  0.0716  0.3829 -0.0375
  673MOL0     H88806   2.581   1.054   3.324  2.5528  3.6983 -0.5527
  673MOL0     H88807   2.447   1.108   3.217  1.4827 -0.5921 -0.4409
  673MOL0     H88808   2.406   1.061   3.503 -2.5296  3.8964 -0.7444
  673MOL0     H88809   2.280   1.053   3.385  0.6728  0.2765 -0.8350
  673MOL0     H88810   2.504   0.840   3.454  0.8101 -1.5541 -3.5663
  673MOL0     H88811   2.422   0.833   3.309  1.0119  2.3717  0.2016
  673MOL0     H88812   2.282   0.816   3.588  2.8646 -1.7832  1.5912
  673MOL0     H88813   2.306   0.688   3.486 -1.2504 -0.1632 -3.4971
  673MOL0     H88814   2.094   0.734   3.427 -0.2376 -0.2516 -0.6166
  673MOL0     H88815   2.109   0.903   3.449 -2.1901 -0.6448 -1.1219
  673MOL0     H88816   2.219   0.734   3.213 -0.9923  0.5146 -0.5586
  673MOL0     H88817   2.213   0.913   3.214  3.1973 -0.2476  3.6993
  673MOL0     H88818   2.730   1.662   3.421 -1.3473 -0.2043  0.6421
  673MOL0     H88819   2.925   1.703   3.567  0.8493 -0.6385 -0.1382
  673MOL0     H88820   3.417   1.638   3.711 -3.8867  2.1675 -1.0201
  673MOL0     H88821   3.570   1.691   3.895  0.8978 -1.3411  0.0356
  673MOL0     H88822   1.694   2.206   4.603 -1.3251  0.7366 -1.5277
  673MOL0     H88823   1.469   2.135   4.623 -1.5189  0.2078 -0.8187
  673MOL0     H88824   1.024   2.050   4.601  1.8215 -0.4813 -1.1705
  673MOL0     H88825   0.804   1.916   4.675  0.7276 -0.1334  4.5603
  673MOL0     H88826   0.612   1.601   4.709 -0.9411  1.3693  0.0301
  673MOL0     H88827   0.639   1.764   4.665 -0.3674 -0.4538 -1.2352
  673MOL0     H88828   0.702   1.629   4.936 -0.2876  0.2096  0.6432
  673MOL0     H88829   0.721   1.803   4.899  0.2129 -0.3150  0.5229
  673MOL0     H88830   0.507   1.651   5.007  0.2958  3.0424  1.6092
  673MOL0     H88831   0.457   1.687   4.838 -1.2219 -1.1601 -0.1903
  673MOL0     H88832   0.492   1.919   4.866  1.6165 -1.5439 -0.1923
  673MOL0     H88833   0.361   1.861   4.975 -1.3731  0.3836 -1.8762
  673MOL0     H88834   0.664   1.986   5.250 -0.2147  0.2449  0.7201
  673MOL0     H88835   1.028   1.563   4.657 -2.0470 -0.3049  3.4536
  673MOL0     H88836   1.231   1.682   4.584  0.7676 -0.5793  1.1652
  674MOL0     O88837   0.498   5.634  10.630 -0.1577 -0.1905  0.1911
  674MOL0     C88838   0.530   5.575  10.530 -0.1030 -0.8413 -1.1456
  674MOL0     O88839   0.452   5.495  10.459 -0.3423  0.5061 -0.2535
  674MOL0     C88840   0.340   5.429  10.513  0.2850  0.1521 -0.0817
  674MOL0     C88841   0.345   5.291  10.525  0.4876  0.1277  0.7647
  674MOL0     C88842   0.246   5.221  10.580  0.7909  0.2203 -1.5194
  674MOL0     C88843   0.121   5.281  10.608 -0.9627 -0.1432  0.3744
  674MOL0     O88844   0.011   5.213  10.660  0.3330 -0.6620  0.4215
  674MOL0     C88845   0.033   5.191  10.799  0.2462 -0.4238 -0.4673
  674MOL0     C88846  -0.091   5.146  10.857  0.9458  0.2299  0.9670
  674MOL0     C88847  -0.087   5.165  11.007 -0.4660 -0.3238  0.9834
  674MOL0     C88848  -0.215   5.131  11.065 -0.4757  0.3847 -0.3150
  674MOL0     C88849  -0.247   5.213  11.195 -0.3731  0.6912 -0.1147
  674MOL0     C88850  -0.370   5.159  11.274  0.1391 -0.1080  0.4706
  674MOL0     C88851  -0.405   5.234  11.401  0.6290  0.3413  0.1193
  674MOL0     C88852  -0.493   5.359  11.384 -0.7152  0.4289 -0.7942
  674MOL0     N88853  -0.604   5.349  11.295 -0.1681 -0.1750 -0.3737
  674MOL0     C88854  -0.651   5.448  11.206 -0.1001 -0.0110 -1.1947
  674MOL0     C88855  -0.782   5.425  11.200  0.4208  0.5976 -0.0573
  674MOL0     C88856  -0.868   5.506  11.109  0.3560  0.1876 -1.0368
  674MOL0     C88857  -1.013   5.458  11.098  0.8946  0.0786 -0.2768
  674MOL0     C88858  -1.098   5.529  10.988 -0.9103  0.8033 -0.1318
  674MOL0     C88859  -1.251   5.488  10.999  0.0758  0.9911  0.7904
  674MOL0     O88860  -1.302   5.455  11.129  0.2938 -0.5825  0.0205
  674MOL0     C88861  -1.437   5.423  11.151  0.4366 -0.2832 -0.6862
  674MOL0     C88862  -1.489   5.447  11.280 -0.1105  0.1309 -0.3585
  674MOL0     C88863  -1.617   5.402  11.316  0.2882  0.2061  0.0506
  674MOL0     C88864  -1.705   5.349  11.217 -1.0304  0.3005 -0.7555
  674MOL0     C88865  -1.847   5.319  11.239  0.1095  0.1668  0.8314
  674MOL0     O88866  -1.905   5.359  11.350  0.5115 -0.2990 -0.4016
  674MOL0     C88867  -2.030   5.325  11.391  0.2124 -0.4137 -0.1109
  674MOL0     C88868  -2.085   5.402  11.491  0.5789 -0.8022 -0.3301
  674MOL0     C88869  -2.200   5.380  11.556  2.0687 -0.2897 -0.0241
  674MOL0     C88870  -2.273   5.266  11.525 -0.3117  0.2510  1.1805
  674MOL0     O88871  -2.381   5.250  11.605  0.0900  0.0116  0.0252
  674MOL0     C88872  -2.489   5.170  11.571 -0.3306 -0.2289  0.7403
  674MOL0     C88873  -2.613   5.234  11.645 -1.1502  0.0725  0.1313
  674MOL0     C88874  -2.747   5.168  11.609  0.5613 -0.3401  0.9358
  674MOL0     C88875  -2.864   5.239  11.671  0.3691 -0.0280  0.4928
  674MOL0     C88876  -2.984   5.141  11.677 -0.3952  0.1265  0.1438
  674MOL0     C88877  -3.074   5.174  11.793 -0.5782 -0.0802 -0.3886
  674MOL0     C88878  -3.205   5.099  11.801  0.1381 -0.0254  0.3165
  674MOL0     C88879  -3.190   4.941  11.825  0.2481 -0.3134 -0.7793
  674MOL0    Cl88880  -3.148   4.918  11.994  0.5132  0.0031  0.1993
  674MOL0     C88881  -2.236   5.187  11.415 -0.6571  0.2719  0.5688
  674MOL0     C88882  -2.108   5.210  11.354  0.3546 -0.4693  0.4063
  674MOL0     O88883  -1.902   5.270  11.137  0.9997 -0.2155 -0.2409
  674MOL0     C88884  -1.645   5.309  11.097  0.4568  0.3380 -0.2304
  674MOL0     C88885  -1.512   5.347  11.062 -0.9388  0.4278  0.6924
  674MOL0     N88886  -0.817   5.323  11.297  0.4665 -0.8545  0.7028
  674MOL0     N88887  -0.709   5.278  11.337  0.2625 -0.0646  1.4029
  674MOL0     C88888   0.110   5.420  10.584  0.3306 -0.0950 -0.3319
  674MOL0     C88889   0.218   5.497  10.536 -0.0564 -0.1683 -0.7670
  674MOL0     C88890   0.675   5.584  10.493 -0.4808 -0.9657  0.7886
  674MOL0     C88891   0.735   5.510  10.388  0.8272 -0.7825 -0.5478
  674MOL0     C88892   0.868   5.522  10.349  0.4492 -0.1788  0.1784
  674MOL0     C88893   0.948   5.612  10.406 -0.0880 -0.4365  0.2711
  674MOL0     O88894   1.082   5.638  10.376 -0.5690 -0.5751  0.4706
  674MOL0     C88895   1.132   5.570  10.257 -0.3701 -0.3736  0.3084
  674MOL0     C88896   1.281   5.608  10.254 -0.4976  0.6177 -0.7963
  674MOL0     C88897   1.359   5.551  10.375 -0.2608  0.0917 -0.4680
  674MOL0     C88898   1.510   5.559  10.357  0.6327  0.8100 -0.4037
  674MOL0     C88899   1.567   5.692  10.307  0.6809 -1.3131 -0.2329
  674MOL0     C88900   1.631   5.794  10.284 -0.2109  1.1280  0.3613
  674MOL0     C88901   0.902   5.685  10.510  0.5621  0.2105 -0.2789
  674MOL0     C88902   0.768   5.674  10.553  0.3176  0.0752  0.1280
  674MOL0     H88903   0.422   5.233  10.476  0.3823 -0.3005  1.0986
  674MOL0     H88904   0.255   5.114  10.594 -0.8914  0.3521  1.3937
  674MOL0     H88905   0.053   5.287  10.847 -2.2241 -1.5088  3.0828
  674MOL0     H88906   0.113   5.121  10.822  0.5436  0.0885  0.0676
  674MOL0     H88907  -0.111   5.041  10.834 -2.0082  1.0820 -0.8979
  674MOL0     H88908  -0.180   5.200  10.826 -1.7172 -3.1648  2.0824
  674MOL0     H88909  -0.060   5.265  11.042  0.8151 -0.0632 -0.6342
  674MOL0     H88910  -0.007   5.098  11.038 -0.3692 -1.5193 -1.6272
  674MOL0     H88911  -0.292   5.147  10.989  0.1873 -1.0445 -1.3199
  674MOL0     H88912  -0.220   5.024  11.087 -2.5743  0.4721 -0.2047
  674MOL0     H88913  -0.256   5.319  11.170 -0.1420  0.5851 -0.6618
  674MOL0     H88914  -0.159   5.204  11.259 -1.5153 -0.5276  1.3966
  674MOL0     H88915  -0.335   5.059  11.303  2.3885  0.9143  1.5403
  674MOL0     H88916  -0.452   5.145  11.203 -0.9351  1.1677  1.4253
  674MOL0     H88917  -0.469   5.165  11.457  1.2945  0.6119  1.2433
  674MOL0     H88918  -0.316   5.257  11.461  1.1912 -2.1139  0.3383
  674MOL0     H88919  -0.433   5.442  11.345 -3.0019  2.4562 -0.2332
  674MOL0     H88920  -0.541   5.394  11.475 -2.6720  1.6729 -2.2315
  674MOL0     H88921  -0.587   5.534  11.184  3.4409 -1.3950  2.4536
  674MOL0     H88922  -0.821   5.492  11.011  2.5580 -1.0754  0.0946
  674MOL0     H88923  -0.862   5.611  11.138 -3.3348  0.9446 -2.5284
  674MOL0     H88924  -1.056   5.464  11.198 -0.3688  0.0777 -0.8120
  674MOL0     H88925  -1.020   5.351  11.078 -1.9925  0.2112 -0.3025
  674MOL0     H88926  -1.084   5.636  11.009 -0.0610  0.3432  1.8407
  674MOL0     H88927  -1.061   5.498  10.890  0.4996 -2.4285  1.2793
  674MOL0     H88928  -1.267   5.405  10.929 -0.2172  1.1953  0.6107
  674MOL0     H88929  -1.320   5.564  10.962 -2.0815 -0.4300  1.6433
  674MOL0     H88930  -1.428   5.498  11.353 -0.1610  0.9077 -0.8447
  674MOL0     H88931  -1.641   5.410  11.421 -1.2999 -0.3246 -0.2359
  674MOL0     H88932  -2.017   5.480  11.523 -0.3211 -0.4425  0.7770
  674MOL0     H88933  -2.238   5.427  11.647  2.4694 -0.1321  0.0667
  674MOL0     H88934  -2.476   5.065  11.599  1.6083 -0.0437  0.7019
  674MOL0     H88935  -2.498   5.165  11.463  0.0311 -0.7181  0.7320
  674MOL0     H88936  -2.625   5.340  11.620  0.2017 -0.1471 -1.6363
  674MOL0     H88937  -2.592   5.223  11.752 -0.0371 -1.4978 -0.2122
  674MOL0     H88938  -2.741   5.063  11.641 -0.8869 -2.1148 -3.6662
  674MOL0     H88939  -2.750   5.167  11.500 -1.8978  1.5094  0.9122
  674MOL0     H88940  -2.847   5.262  11.777 -1.8957 -1.0156  1.1456
  674MOL0     H88941  -2.894   5.326  11.612 -2.7608 -1.6016 -0.4599
  674MOL0     H88942  -2.958   5.036  11.695 -0.3000  0.3948  1.6630
  674MOL0     H88943  -3.027   5.154  11.577 -0.2548  1.0428  0.1963
  674MOL0     H88944  -3.116   5.275  11.788  2.5224  1.3719  0.5590
  674MOL0     H88945  -3.019   5.167  11.887 -1.5134  0.6849  0.2390
  674MOL0     H88946  -3.264   5.149  11.879 -1.9819 -0.5002 -0.8969
  674MOL0     H88947  -3.259   5.094  11.706  2.2646 -1.3743 -0.8915
  674MOL0     H88948  -3.102   4.912  11.766  2.2786  2.0270  0.8870
  674MOL0     H88949  -3.283   4.886  11.805 -0.7689  1.7679 -2.0397
  674MOL0     H88950  -2.303   5.106  11.388  3.1953 -3.2788  0.7439
  674MOL0     H88951  -2.075   5.133  11.286 -0.5124  0.4807 -1.1597
  674MOL0     H88952  -1.700   5.259  11.018  2.6331  2.1373 -3.1113
  674MOL0     H88953  -1.484   5.311  10.963 -2.4065  0.6363  0.1767
  674MOL0     H88954   0.009   5.452  10.606 -0.2249 -2.7701  1.5270
  674MOL0     H88955   0.200   5.602  10.518 -0.8221 -0.0364  0.6500
  674MOL0     H88956   0.673   5.438  10.336 -0.6019  1.4695 -2.1745
  674MOL0     H88957   0.908   5.450  10.279 -3.1697 -3.2579  0.9327
  674MOL0     H88958   1.085   5.609  10.165  1.4777  2.3526  0.4125
  674MOL0     H88959   1.116   5.462  10.255 -1.1104 -0.4975 -5.5801
  674MOL0     H88960   1.319   5.556  10.166 -2.6357 -0.0955 -1.3533
  674MOL0     H88961   1.288   5.718  10.256 -3.3299  0.9382  3.0228
  674MOL0     H88962   1.316   5.458  10.412  0.8698 -0.7826 -1.2839
  674MOL0     H88963   1.329   5.619  10.455  1.0182 -0.6532  0.6750
  674MOL0     H88964   1.563   5.538  10.450 -1.4448 -0.8240  0.4853
  674MOL0     H88965   1.545   5.494  10.276 -2.5123  2.2125 -3.1115
  674MOL0     H88966   1.683   5.885  10.257  1.9211 -0.3594 -0.8822
  674MOL0     H88967   0.970   5.757  10.553  0.0327  0.8553 -0.5167
  674MOL0     H88968   0.749   5.737  10.639  3.4859 -0.4778  1.3747
  675MOL0     O88969   8.045   2.643   4.332  0.2430 -0.0042 -0.2248
  675MOL0     C88970   8.030   2.667   4.211 -1.0692 -0.1256  0.0724
  675MOL0     O88971   8.132   2.698   4.116 -1.0144  0.0302 -0.4429
  675MOL0     C88972   8.260   2.712   4.157 -1.3344 -0.7405  1.0801
  675MOL0     C88973   8.367   2.629   4.114 -0.3019 -0.0437 -0.0167
  675MOL0     C88974   8.492   2.634   4.170  0.1326  0.0584  0.0928
  675MOL0     C88975   8.525   2.723   4.272  0.7017 -0.0267  0.3051
  675MOL0     O88976   8.650   2.742   4.322  0.4893 -1.2222 -0.0141
  675MOL0     C88977   8.742   2.640   4.294 -0.0115 -0.5087 -1.0253
  675MOL0     C88978   8.847   2.637   4.408  0.2054  0.5880  0.0401
  675MOL0     C88979   8.987   2.683   4.364  0.6487 -0.2437 -0.1158
  675MOL0     C88980   9.046   2.584   4.261 -0.0368 -0.6180 -0.3310
  675MOL0     C88981   9.113   2.465   4.339  0.1391  0.3939 -0.6804
  675MOL0     C88982   9.166   2.362   4.251  0.6842  0.0194 -0.1664
  675MOL0     C88983   9.250   2.255   4.335  0.2932 -0.1569  0.2439
  675MOL0     C88984   9.180   2.130   4.387  0.0721 -0.0875 -0.6295
  675MOL0     N88985   9.083   2.087   4.286  0.3272  0.6689 -0.0726
  675MOL0     C88986   9.094   2.003   4.180 -0.0747  0.6084  0.3498
  675MOL0     C88987   8.969   1.983   4.128  0.3953 -0.1350 -0.1409
  675MOL0     C88988   8.939   1.899   4.009 -0.1345  1.0961 -0.2906
  675MOL0     C88989   8.818   1.956   3.936 -0.2424  0.3269  1.2205
  675MOL0     C88990   8.689   1.880   3.994  0.6660 -1.4579 -0.2708
  675MOL0     C88991   8.559   1.953   3.971  0.7142 -0.4067  0.3278
  675MOL0     O88992   8.550   1.975   3.832  0.8854  0.4688  0.1126
  675MOL0     C88993   8.451   2.059   3.776  0.4149 -0.2519 -0.2773
  675MOL0     C88994   8.449   2.065   3.645  0.4515  0.2145 -0.0038
  675MOL0     C88995   8.336   2.129   3.583 -0.0652  0.2324 -0.7734
  675MOL0     C88996   8.230   2.184   3.659  0.0468  0.8367  0.5613
  675MOL0     C88997   8.108   2.232   3.593  0.1401 -0.4139  0.8285
  675MOL0     O88998   8.097   2.203   3.463 -0.1070  0.5578  0.2737
  675MOL0     C88999   7.985   2.222   3.381 -0.5415  0.5546 -0.2490
  675MOL0     C89000   7.860   2.236   3.428  0.2272  0.7584  1.5891
  675MOL0     C89001   7.750   2.246   3.334 -0.2169  0.2398 -0.9170
  675MOL0     C89002   7.777   2.257   3.202  0.1255 -0.7413  0.6928
  675MOL0     O89003   7.680   2.301   3.111 -0.8846  0.0264  0.1433
  675MOL0     C89004   7.692   2.270   2.966 -0.6092  0.4139  1.0437
  675MOL0     C89005   7.567   2.285   2.890  0.1619 -0.9868  0.1246
  675MOL0     C89006   7.458   2.200   2.949  0.8405  0.1539 -0.8301
  675MOL0     C89007   7.324   2.249   2.891 -0.5915  0.0895  0.5381
  675MOL0     C89008   7.210   2.214   2.984  0.2525 -0.4573 -0.2052
  675MOL0     C89009   7.070   2.273   2.935  1.1225  0.5940 -0.5523
  675MOL0     C89010   7.002   2.186   2.833  0.5322  0.3905 -0.1308
  675MOL0     C89011   6.856   2.195   2.823  0.0517  0.5535 -0.1536
  675MOL0    Cl89012   6.800   2.358   2.771 -0.8977 -0.0184  0.1581
  675MOL0     C89013   7.912   2.235   3.160  0.1904  0.3556 -0.6638
  675MOL0     C89014   8.013   2.218   3.248 -0.3314  1.1549 -0.8882
  675MOL0     O89015   8.035   2.298   3.657  0.1012  0.3734 -0.1132
  675MOL0     C89016   8.241   2.177   3.799 -0.4701  0.7278  0.2389
  675MOL0     C89017   8.347   2.112   3.854 -0.9213  0.7074 -0.3489
  675MOL0     N89018   8.881   2.044   4.213  0.2916  0.0273  0.3845
  675MOL0     N89019   8.947   2.103   4.306  0.3266 -0.7702  0.1550
  675MOL0     C89020   8.420   2.805   4.320 -0.1144 -0.0035 -0.6681
  675MOL0     C89021   8.292   2.804   4.260 -0.1188  0.2683 -0.2325
  675MOL0     C89022   7.895   2.651   4.155 -0.0253 -0.1555  1.2978
  675MOL0     C89023   7.865   2.690   4.023 -0.2064 -0.4987 -0.0674
  675MOL0     C89024   7.739   2.677   3.967 -0.4729  0.5036  0.0082
  675MOL0     C89025   7.645   2.604   4.036 -0.7761  0.1942 -1.0360
  675MOL0     O89026   7.525   2.564   3.981 -0.0999  0.0827  0.1677
  675MOL0     C89027   7.480   2.624   3.864  0.8754  0.9045 -0.7473
  675MOL0     C89028   7.325   2.628   3.857 -0.1003  0.2591  0.4817
  675MOL0     C89029   7.272   2.697   3.733 -0.0577  0.3401  0.0278
  675MOL0     C89030   7.115   2.690   3.722 -0.4438  0.4789  0.4524
  675MOL0     C89031   7.065   2.561   3.704 -0.2245 -0.2091  0.3024
  675MOL0     C89032   7.018   2.453   3.689  0.1385  0.7811 -0.0585
  675MOL0     C89033   7.675   2.560   4.165 -0.2921  0.6168 -0.1414
  675MOL0     C89034   7.792   2.601   4.233  0.1528  0.7081  0.0997
  675MOL0     H89035   8.346   2.559   4.035  1.5798 -0.1037 -0.5045
  675MOL0     H89036   8.572   2.565   4.143  0.7299 -0.8736  3.6861
  675MOL0     H89037   8.786   2.666   4.197  0.2373  0.7105 -0.5990
  675MOL0     H89038   8.705   2.537   4.301  0.2528 -0.6663 -1.8172
  675MOL0     H89039   8.850   2.532   4.438 -1.4540  1.0477  1.9993
  675MOL0     H89040   8.830   2.701   4.495  4.5771  1.0784  0.7631
  675MOL0     H89041   9.047   2.706   4.453 -1.7235  2.5124  0.9392
  675MOL0     H89042   8.974   2.779   4.312 -0.0417 -0.0727  0.3466
  675MOL0     H89043   8.979   2.544   4.185  0.5764 -1.6955 -0.3255
  675MOL0     H89044   9.124   2.639   4.208  0.0763  0.8604  1.2871
  675MOL0     H89045   9.048   2.418   4.413  0.2477  0.3101 -0.6372
  675MOL0     H89046   9.199   2.508   4.391  0.0999 -1.5106  1.1033
  675MOL0     H89047   9.230   2.405   4.174  1.0287 -2.2754 -1.2589
  675MOL0     H89048   9.084   2.318   4.194 -2.0019  3.2283  0.8996
  675MOL0     H89049   9.326   2.213   4.269 -0.5899 -1.4581  0.0176
  675MOL0     H89050   9.286   2.315   4.419 -2.4139  1.3474  0.4268
  675MOL0     H89051   9.129   2.156   4.480 -1.9853 -0.9796 -1.4484
  675MOL0     H89052   9.246   2.047   4.414 -1.7115 -0.9354  1.4700
  675MOL0     H89053   9.191   1.962   4.151  0.9965  2.4861  1.1016
  675MOL0     H89054   8.931   1.795   4.040  1.3237  0.5244 -1.7172
  675MOL0     H89055   9.027   1.899   3.943  0.2352 -0.2534  0.1634
  675MOL0     H89056   8.833   1.941   3.829 -0.1721 -3.2031  1.6181
  675MOL0     H89057   8.823   2.065   3.945  0.8267  0.3975  0.0619
  675MOL0     H89058   8.684   1.781   3.948  0.4604 -0.4043 -2.6768
  675MOL0     H89059   8.701   1.868   4.102  0.4235 -1.3838 -0.2342
  675MOL0     H89060   8.577   2.043   4.029  0.0539  0.4730 -0.7865
  675MOL0     H89061   8.479   1.891   4.011 -0.3975 -1.2238 -2.8269
  675MOL0     H89062   8.526   2.011   3.590  0.6909  0.2722  0.2726
  675MOL0     H89063   8.318   2.140   3.476  1.0062  1.5891 -0.8418
  675MOL0     H89064   7.842   2.245   3.535  1.9017  0.6567  1.9013
  675MOL0     H89065   7.648   2.278   3.354 -0.7649 -0.8116 -1.9709
  675MOL0     H89066   7.728   2.168   2.951 -1.2632  0.2166  0.7542
  675MOL0     H89067   7.757   2.346   2.922 -1.2894 -0.2483 -1.2360
  675MOL0     H89068   7.584   2.248   2.789  0.0720 -1.1455  0.1680
  675MOL0     H89069   7.552   2.393   2.879  2.4029 -0.6328 -0.0088
  675MOL0     H89070   7.440   2.204   3.057  0.5943 -0.9054 -0.8152
  675MOL0     H89071   7.474   2.094   2.928  1.8770 -0.0102  0.6337
  675MOL0     H89072   7.335   2.357   2.882 -0.1365 -0.1806 -4.2264
  675MOL0     H89073   7.318   2.201   2.793  2.4466 -2.6414  1.5126
  675MOL0     H89074   7.229   2.244   3.088 -2.7250 -1.5392  0.7457
  675MOL0     H89075   7.211   2.105   2.994 -0.6811 -0.3466  1.4091
  675MOL0     H89076   7.089   2.375   2.903 -0.2008  0.8346 -0.6233
  675MOL0     H89077   7.006   2.273   3.024 -0.3276  2.0166 -1.5498
  675MOL0     H89078   7.052   2.197   2.736 -0.0157 -2.7676 -0.9060
  675MOL0     H89079   7.026   2.088   2.875 -1.4229 -0.0583  0.0217
  675MOL0     H89080   6.809   2.170   2.918  2.6042 -1.7815  0.6051
  675MOL0     H89081   6.817   2.114   2.760  3.2460 -2.5478  1.5481
  675MOL0     H89082   7.941   2.226   3.056 -1.4258  1.6071 -1.2748
  675MOL0     H89083   8.111   2.207   3.201 -0.1975 -1.0484 -0.2217
  675MOL0     H89084   8.159   2.218   3.857  0.0361  0.8122  0.9054
  675MOL0     H89085   8.351   2.116   3.963 -2.0362  1.0664 -0.3081
  675MOL0     H89086   8.438   2.881   4.396  2.7462 -1.6066  0.4129
  675MOL0     H89087   8.231   2.865   4.325  0.4132  0.8074 -0.2265
  675MOL0     H89088   7.941   2.732   3.958 -1.0577 -0.5247 -1.1102
  675MOL0     H89089   7.715   2.705   3.864 -1.5321  3.3566  0.9142
  675MOL0     H89090   7.514   2.574   3.773 -2.4660  1.7243 -2.6138
  675MOL0     H89091   7.504   2.731   3.863 -0.4708  1.2265 -1.3858
  675MOL0     H89092   7.281   2.528   3.866  0.0971  0.2816  2.1255
  675MOL0     H89093   7.287   2.694   3.936 -3.3509  0.0662 -0.7759
  675MOL0     H89094   7.320   2.643   3.651 -0.4617  2.7669 -1.9310
  675MOL0     H89095   7.303   2.801   3.721 -0.6741  0.4809 -0.4216
  675MOL0     H89096   7.076   2.743   3.809 -0.8345 -0.3690  0.8155
  675MOL0     H89097   7.073   2.741   3.635 -2.5538 -1.4920  0.2186
  675MOL0     H89098   6.958   2.364   3.689 -2.4388  2.2305  4.4000
  675MOL0     H89099   7.598   2.513   4.225  0.0438 -1.0215 -0.9605
  675MOL0     H89100   7.807   2.568   4.335 -1.9182 -0.0304  0.2113
  676MOL0     O89101   1.116   5.887   9.958 -0.0983  0.0387 -0.2248
  676MOL0     C89102   1.137   5.778   9.917 -0.5517 -0.3720  0.3785
  676MOL0     O89103   1.049   5.663   9.919 -0.0456  0.5523 -0.5564
  676MOL0     C89104   0.927   5.682   9.967  0.2352  0.0633  0.5980
  676MOL0     C89105   0.845   5.797   9.964 -0.0312 -0.4856  0.0807
  676MOL0     C89106   0.721   5.811  10.028 -0.4197  0.4913  0.5116
  676MOL0     C89107   0.672   5.697  10.092  0.0886  0.7421  0.1490
  676MOL0     O89108   0.537   5.683  10.135  0.3214 -0.8955  0.8135
  676MOL0     C89109   0.463   5.796  10.165 -0.5021 -1.1038  0.4196
  676MOL0     C89110   0.329   5.753  10.229 -0.0391 -1.1452  1.1875
  676MOL0     C89111   0.239   5.691  10.121 -0.3857 -0.1961  0.1869
  676MOL0     C89112   0.102   5.654  10.192  0.2834 -0.8077 -0.9355
  676MOL0     C89113   0.034   5.540  10.128  0.4595 -0.1329 -0.6422
  676MOL0     C89114  -0.100   5.489  10.189 -0.1181 -0.0206  0.9010
  676MOL0     C89115  -0.218   5.583  10.163 -0.9128 -0.1279 -0.6563
  676MOL0     C89116  -0.256   5.577  10.018 -0.3014  0.4535  0.4702
  676MOL0     N89117  -0.387   5.640  10.019  0.9521  0.1205 -0.2418
  676MOL0     C89118  -0.513   5.587   9.968 -0.7547 -0.0938 -0.7761
  676MOL0     C89119  -0.597   5.689   9.956  0.2911 -0.0484 -0.0351
  676MOL0     C89120  -0.720   5.693   9.870 -0.6526  0.1300  0.3114
  676MOL0     C89121  -0.827   5.612   9.919  0.2268 -0.0539  0.0097
  676MOL0     C89122  -0.939   5.609   9.814 -0.7987  0.6042 -0.4547
  676MOL0     C89123  -1.059   5.547   9.871  0.4825 -0.3262  0.3431
  676MOL0     O89124  -1.154   5.515   9.765 -0.5631  0.5051 -0.3581
  676MOL0     C89125  -1.283   5.493   9.804  0.8777 -0.0490 -0.6394
  676MOL0     C89126  -1.324   5.481   9.938 -0.5044 -0.0876  0.1539
  676MOL0     C89127  -1.455   5.470   9.967 -0.2011  0.4003  0.6158
  676MOL0     C89128  -1.552   5.470   9.862  0.0060  0.8209 -0.7236
  676MOL0     C89129  -1.698   5.453   9.907 -0.2965 -0.5251 -0.0858
  676MOL0     O89130  -1.788   5.458   9.809 -0.7650 -0.3936  0.1683
  676MOL0     C89131  -1.930   5.453   9.831  0.2640  0.7196  0.5734
  676MOL0     C89132  -2.012   5.495   9.725 -0.7312  0.3907 -1.0240
  676MOL0     C89133  -2.150   5.506   9.744  0.4920 -0.9371 -0.0612
  676MOL0     C89134  -2.215   5.470   9.865 -0.2090 -0.2220 -0.1719
  676MOL0     O89135  -2.349   5.493   9.874 -0.0050 -0.1182  0.4634
  676MOL0     C89136  -2.433   5.377   9.901 -0.7270  0.3405  0.0995
  676MOL0     C89137  -2.574   5.429   9.869  0.1021 -0.0249 -0.4434
  676MOL0     C89138  -2.675   5.316   9.914 -0.3653  0.2801  0.2193
  676MOL0     C89139  -2.819   5.351   9.869  0.3812  0.5646 -0.2265
  676MOL0     C89140  -2.906   5.223   9.913 -0.9186 -0.4706  0.1479
  676MOL0     C89141  -3.042   5.207   9.848  0.5077  0.3846 -0.2595
  676MOL0     C89142  -3.104   5.074   9.869 -0.1520 -0.0012  1.1172
  676MOL0     C89143  -3.241   5.062   9.802 -0.1156  0.8792 -0.2949
  676MOL0    Cl89144  -3.359   5.128   9.914  0.0620 -0.2064  0.1988
  676MOL0     C89145  -2.137   5.410   9.969 -0.9298  1.0114  0.0655
  676MOL0     C89146  -2.004   5.402   9.952 -0.2597 -0.2907  1.6236
  676MOL0     O89147  -1.719   5.462  10.027  0.6405  0.3641 -0.2130
  676MOL0     C89148  -1.515   5.490   9.727 -0.4742  0.3675 -0.2418
  676MOL0     C89149  -1.378   5.509   9.701  0.0593  0.1341  0.2802
  676MOL0     N89150  -0.531   5.798  10.013 -0.8543  0.2028  0.9542
  676MOL0     N89151  -0.409   5.773  10.048 -0.2080 -0.1599 -0.3195
  676MOL0     C89152   0.741   5.573  10.075  0.2031 -0.2552 -0.1188
  676MOL0     C89153   0.866   5.566  10.010  0.3591 -0.1811 -0.3788
  676MOL0     C89154   1.276   5.745   9.880 -0.3702 -0.1580 -0.3251
  676MOL0     C89155   1.385   5.819   9.922  0.4946  0.0757 -1.3400
  676MOL0     C89156   1.517   5.786   9.892  0.1120 -0.0981  0.2006
  676MOL0     C89157   1.548   5.663   9.828  0.4836 -1.1650  0.0492
  676MOL0     O89158   1.665   5.596   9.794 -0.1307  0.3964  0.3274
  676MOL0     C89159   1.778   5.687   9.785  0.4385  0.1185  0.1629
  676MOL0     C89160   1.855   5.675   9.925  0.5714  0.1557  0.2348
  676MOL0     C89161   1.958   5.788   9.941 -0.0520 -1.0064  0.8513
  676MOL0     C89162   2.094   5.751   9.878  0.1663 -0.4575  0.0630
  676MOL0     C89163   2.166   5.651   9.949 -0.8335  0.1713 -1.2504
  676MOL0     C89164   2.231   5.568  10.004 -0.5814 -0.4327 -0.1860
  676MOL0     C89165   1.439   5.585   9.792  0.2987 -0.5735  0.0231
  676MOL0     C89166   1.306   5.627   9.817  0.5665 -0.1157  0.4520
  676MOL0     H89167   0.882   5.880   9.905  0.5286 -1.2131 -0.6129
  676MOL0     H89168   0.659   5.900  10.016 -0.2495  0.5443 -0.0012
  676MOL0     H89169   0.447   5.858  10.076 -2.4576  1.9180  2.6415
  676MOL0     H89170   0.520   5.857  10.237  2.1560 -0.7669 -1.7914
  676MOL0     H89171   0.285   5.842  10.274 -1.4678 -1.9373  1.4222
  676MOL0     H89172   0.349   5.685  10.313 -0.3869 -0.5114  1.7948
  676MOL0     H89173   0.298   5.605  10.087  0.7037 -0.3462  2.2782
  676MOL0     H89174   0.208   5.762  10.043 -4.0486 -1.6837  0.0929
  676MOL0     H89175   0.122   5.624  10.295  1.5510  0.2476 -0.8434
  676MOL0     H89176   0.039   5.743  10.205  2.3477  0.2525  4.5552
  676MOL0     H89177   0.110   5.463  10.110  0.3678 -0.1784 -0.8437
  676MOL0     H89178   0.004   5.583  10.032  0.6802  0.4243 -0.4632
  676MOL0     H89179  -0.088   5.471  10.296 -3.1484 -4.2041  0.7838
  676MOL0     H89180  -0.127   5.396  10.138  2.5200  1.2754 -3.4830
  676MOL0     H89181  -0.303   5.545  10.222  1.5080 -1.3312  2.3233
  676MOL0     H89182  -0.195   5.685  10.193 -1.1032  0.6733 -3.0474
  676MOL0     H89183  -0.261   5.471   9.992 -0.9480  0.4217  0.7078
  676MOL0     H89184  -0.182   5.641   9.968  0.1182  0.5069  1.1402
  676MOL0     H89185  -0.536   5.484   9.944 -1.7485 -0.0278 -0.1608
  676MOL0     H89186  -0.683   5.644   9.779 -3.9792 -3.2778  0.5994
  676MOL0     H89187  -0.760   5.795   9.861  0.1880  0.4593  0.2078
  676MOL0     H89188  -0.861   5.651  10.015 -0.7602  1.5188 -0.9336
  676MOL0     H89189  -0.788   5.509   9.924  0.0444 -0.0428  2.5150
  676MOL0     H89190  -0.969   5.712   9.792 -4.5811 -0.1204  0.6020
  676MOL0     H89191  -0.903   5.566   9.720 -0.7229  1.3553 -0.7831
  676MOL0     H89192  -1.107   5.612   9.945  1.1021 -0.8750  1.2438
  676MOL0     H89193  -1.041   5.447   9.911 -1.7200 -0.0516  2.2344
  676MOL0     H89194  -1.256   5.473  10.022 -1.2862 -0.9586  0.7294
  676MOL0     H89195  -1.465   5.467  10.075  1.7829 -2.0701  0.8097
  676MOL0     H89196  -1.958   5.521   9.634  0.5092  0.7106 -0.2181
  676MOL0     H89197  -2.210   5.551   9.666 -0.6258  1.0453  1.8008
  676MOL0     H89198  -2.412   5.351  10.005  0.4777  3.0960  0.6392
  676MOL0     H89199  -2.409   5.292   9.838  2.6855  1.9326 -0.9917
  676MOL0     H89200  -2.591   5.443   9.762 -3.1636 -1.9679 -0.3096
  676MOL0     H89201  -2.606   5.521   9.919 -0.1446  0.1218 -0.8688
  676MOL0     H89202  -2.672   5.295  10.021 -0.9580 -0.4968  0.0883
  676MOL0     H89203  -2.654   5.224   9.859 -2.4710 -0.5263  0.6562
  676MOL0     H89204  -2.849   5.448   9.910  0.5657  1.5671 -2.3225
  676MOL0     H89205  -2.825   5.372   9.762 -0.4767 -0.5775 -0.4157
  676MOL0     H89206  -2.920   5.235  10.021 -2.8749  0.7062 -0.1943
  676MOL0     H89207  -2.845   5.133   9.897  1.4024  0.4920  2.7442
  676MOL0     H89208  -3.028   5.221   9.741 -0.0370 -0.7598 -0.4918
  676MOL0     H89209  -3.103   5.292   9.882  1.6400  1.1412 -0.0534
  676MOL0     H89210  -3.050   4.996   9.815 -2.0823  0.1160 -1.1449
  676MOL0     H89211  -3.095   5.061   9.978  3.1222  0.2286  0.9520
  676MOL0     H89212  -3.260   4.955   9.795  0.2771  0.7799  0.1350
  676MOL0     H89213  -3.246   5.109   9.703  1.1780  4.7069  1.2601
  676MOL0     H89214  -2.187   5.362  10.053 -1.5122  0.2879 -0.6864
  676MOL0     H89215  -1.953   5.356  10.036  0.6174 -1.9591  0.2445
  676MOL0     H89216  -1.575   5.467   9.640 -1.8989 -0.4953  0.9304
  676MOL0     H89217  -1.338   5.523   9.601  1.4039 -0.8713  0.6547
  676MOL0     H89218   0.699   5.477  10.102  2.1371 -0.0950  4.4334
  676MOL0     H89219   0.920   5.472   9.999 -2.2966 -1.7977 -0.5880
  676MOL0     H89220   1.382   5.899   9.996 -0.2380 -0.8559 -0.3269
  676MOL0     H89221   1.587   5.850   9.944  0.1921 -0.3295  0.3807
  676MOL0     H89222   1.743   5.786   9.756  0.5164 -0.0695 -0.5901
  676MOL0     H89223   1.835   5.659   9.696 -1.6868  3.1248 -2.3754
  676MOL0     H89224   1.779   5.674  10.003 -1.3142  0.1214 -1.5256
  676MOL0     H89225   1.906   5.578   9.938  0.7394  0.4604  2.1701
  676MOL0     H89226   1.973   5.798  10.049  2.3879 -0.9509  0.5683
  676MOL0     H89227   1.928   5.884   9.897 -1.7505 -2.4734 -1.3903
  676MOL0     H89228   2.099   5.717   9.775  0.9828 -0.2817  0.0315
  676MOL0     H89229   2.157   5.841   9.884  0.5792 -0.8293  2.0944
  676MOL0     H89230   2.299   5.504  10.056  0.3038  0.9647  0.4455
  676MOL0     H89231   1.465   5.488   9.751 -0.5638 -0.0875 -1.7713
  676MOL0     H89232   1.234   5.551   9.787 -0.0084  1.5702 -2.8410
  677MOL0     O89233   2.824   5.670   3.773 -0.0145  0.2109  0.0891
  677MOL0     C89234   2.922   5.722   3.735 -0.5364 -0.0006 -0.3320
  677MOL0     O89235   2.927   5.840   3.659  0.5640 -0.9407 -0.6462
  677MOL0     C89236   2.805   5.911   3.661 -0.4463 -0.0335 -1.4968
  677MOL0     C89237   2.774   5.987   3.778 -0.4555  0.5932 -0.4304
  677MOL0     C89238   2.649   6.057   3.782 -0.5060  0.3538  0.4126
  677MOL0     C89239   2.560   6.063   3.674  0.9487  0.1759 -0.2696
  677MOL0     O89240   2.446   6.139   3.678  0.4101  0.5268 -0.1694
  677MOL0     C89241   2.329   6.057   3.650  0.0324  0.2918  0.0950
  677MOL0     C89242   2.211   6.105   3.741  1.1139 -0.3610 -0.1973
  677MOL0     C89243   2.097   6.008   3.747  0.2830 -0.1523 -0.3241
  677MOL0     C89244   1.959   6.069   3.791  0.3150 -0.6528  0.6338
  677MOL0     C89245   1.837   5.974   3.804 -0.0705  0.3153  0.3853
  677MOL0     C89246   1.718   6.063   3.842  0.8507 -0.2149 -0.7587
  677MOL0     C89247   1.569   5.999   3.816 -0.5376 -0.1259  0.0147
  677MOL0     C89248   1.548   5.865   3.883  0.3678 -0.7232  0.0241
  677MOL0     N89249   1.456   5.782   3.816 -0.0070  0.2460  0.8393
  677MOL0     C89250   1.339   5.826   3.762  1.3730  0.4507 -0.0248
  677MOL0     C89251   1.287   5.720   3.693 -0.3775  0.5719 -0.1227
  677MOL0     C89252   1.155   5.723   3.630  0.1934 -0.6253  0.9756
  677MOL0     C89253   1.033   5.715   3.721 -0.6852 -0.7529  0.3061
  677MOL0     C89254   1.040   5.590   3.818 -0.3328  0.7557 -0.1796
  677MOL0     C89255   0.899   5.538   3.841  0.9918 -0.6075 -0.4676
  677MOL0     O89256   0.834   5.526   3.710 -0.8225  0.0724  0.1055
  677MOL0     C89257   0.712   5.472   3.708  0.8780 -0.4794 -0.7570
  677MOL0     C89258   0.613   5.477   3.813 -0.6266  0.0275  0.4724
  677MOL0     C89259   0.488   5.415   3.799 -0.0863 -0.6897  0.4055
  677MOL0     C89260   0.459   5.340   3.684  0.1070 -0.3084  0.2352
  677MOL0     C89261   0.324   5.281   3.665 -0.0666 -0.1135  0.2921
  677MOL0     O89262   0.308   5.214   3.544  0.0962  0.9384 -0.3320
  677MOL0     C89263   0.190   5.145   3.514 -0.6938 -0.3832 -0.3801
  677MOL0     C89264   0.192   5.003   3.497  1.0599 -0.0000  0.4745
  677MOL0     C89265   0.077   4.942   3.455  0.0592  0.5907 -0.2449
  677MOL0     C89266  -0.041   5.010   3.411 -0.6944  0.4993 -0.3441
  677MOL0     O89267  -0.155   4.945   3.362 -0.2015  0.6313  0.0469
  677MOL0     C89268  -0.138   4.849   3.258 -0.1964 -0.8183 -0.5044
  677MOL0     C89269  -0.262   4.854   3.174 -0.0752 -0.0840 -0.2664
  677MOL0     C89270  -0.243   4.756   3.049 -0.5395 -0.3851  0.8289
  677MOL0     C89271  -0.362   4.766   2.952  0.4645 -0.2811 -0.7215
  677MOL0     C89272  -0.347   4.688   2.821  0.3869  0.5348  0.7610
  677MOL0     C89273  -0.364   4.544   2.845 -0.2222  0.4777  0.1058
  677MOL0     C89274  -0.351   4.456   2.719 -0.4694 -1.3455  0.1640
  677MOL0     C89275  -0.369   4.311   2.751  0.5858  0.2467  0.9697
  677MOL0    Cl89276  -0.543   4.294   2.772 -0.5306  0.2396  0.2324
  677MOL0     C89277  -0.041   5.148   3.441  0.4573  0.4873  0.4859
  677MOL0     C89278   0.072   5.213   3.501  0.7865 -0.0353  0.1402
  677MOL0     O89279   0.233   5.300   3.749  0.1015 -0.2846  0.0754
  677MOL0     C89280   0.552   5.333   3.589 -0.2670 -0.5347  0.5590
  677MOL0     C89281   0.676   5.404   3.597  0.1165  0.2700  0.3450
  677MOL0     N89282   1.379   5.612   3.708 -0.7723 -1.0420 -1.1520
  677MOL0     N89283   1.475   5.649   3.781 -0.3017  0.7535  0.6697
  677MOL0     C89284   2.602   5.997   3.558  0.5968 -0.5406  0.5149
  677MOL0     C89285   2.715   5.914   3.551  0.5643 -0.1391 -0.5388
  677MOL0     C89286   3.049   5.653   3.771  0.1081 -0.7364 -0.1282
  677MOL0     C89287   3.054   5.517   3.810 -0.4198  0.1885  0.3558
  677MOL0     C89288   3.179   5.467   3.848  0.9640 -0.6917  0.6808
  677MOL0     C89289   3.292   5.549   3.856 -0.2208 -0.0329  0.0223
  677MOL0     O89290   3.410   5.491   3.899  0.0438  0.1094  0.2382
  677MOL0     C89291   3.528   5.572   3.921 -0.6057  0.8254 -0.0805
  677MOL0     C89292   3.609   5.590   3.800 -0.2185  0.0558  1.1107
  677MOL0     C89293   3.618   5.472   3.705  0.6079 -0.6809  0.1792
  677MOL0     C89294   3.671   5.338   3.753 -0.3152  0.2782  0.6863
  677MOL0     C89295   3.816   5.364   3.772 -0.7501  0.1701 -0.6332
  677MOL0     C89296   3.934   5.390   3.802 -0.3518 -0.4774  0.1767
  677MOL0     C89297   3.286   5.683   3.817 -0.3708 -0.6734 -1.0325
  677MOL0     C89298   3.163   5.736   3.781 -0.0409  0.8794  0.1695
  677MOL0     H89299   2.842   5.995   3.862 -0.7631 -2.1069  0.1877
  677MOL0     H89300   2.633   6.108   3.877  1.0544 -0.0784  0.9389
  677MOL0     H89301   2.340   5.955   3.689 -1.8679  0.0496  0.0714
  677MOL0     H89302   2.297   6.051   3.546  2.1421 -0.0915 -0.5774
  677MOL0     H89303   2.188   6.202   3.696 -0.3800 -0.3179  0.6070
  677MOL0     H89304   2.246   6.129   3.842 -3.2402  1.7392  1.0269
  677MOL0     H89305   2.136   5.924   3.804  0.5998  1.8842  2.7201
  677MOL0     H89306   2.073   5.982   3.644  1.4803  2.4797 -1.3613
  677MOL0     H89307   1.987   6.116   3.886  0.3272  1.8558 -0.5176
  677MOL0     H89308   1.927   6.146   3.720  2.2296 -2.1953 -2.0664
  677MOL0     H89309   1.868   5.899   3.878  0.3386 -1.0144 -1.0827
  677MOL0     H89310   1.827   5.929   3.705 -0.5919  2.2978 -0.5102
  677MOL0     H89311   1.717   6.157   3.787 -0.3690 -0.6139 -1.4521
  677MOL0     H89312   1.731   6.095   3.946  1.1601 -2.0363 -0.1983
  677MOL0     H89313   1.484   6.063   3.843  0.5493  1.5386 -0.3986
  677MOL0     H89314   1.567   5.982   3.708  3.5582  0.6471 -0.3395
  677MOL0     H89315   1.521   5.867   3.989 -0.9374  0.5723 -0.3115
  677MOL0     H89316   1.641   5.807   3.876 -0.0196 -1.2510 -0.8649
  677MOL0     H89317   1.290   5.921   3.779 -0.9591 -0.8133  0.7038
  677MOL0     H89318   1.147   5.641   3.558 -1.2481  0.3777 -0.0626
  677MOL0     H89319   1.143   5.817   3.576 -1.0291  0.5718  3.1580
  677MOL0     H89320   0.946   5.723   3.656 -0.3891  1.8593  0.1440
  677MOL0     H89321   1.027   5.806   3.781  0.7499  1.2068 -2.3227
  677MOL0     H89322   1.100   5.508   3.777 -1.0201  0.1232  0.0525
  677MOL0     H89323   1.095   5.627   3.906 -0.1665  2.4896 -0.9628
  677MOL0     H89324   0.843   5.611   3.900  0.9563  1.5265 -2.9361
  677MOL0     H89325   0.900   5.435   3.875 -0.5504 -1.0939 -1.7562
  677MOL0     H89326   0.648   5.520   3.906 -2.8410 -1.2364  1.9540
  677MOL0     H89327   0.418   5.426   3.881  1.8577 -0.6334  2.1462
  677MOL0     H89328   0.276   4.934   3.506  1.7061  0.9961  2.6587
  677MOL0     H89329   0.076   4.837   3.430  0.6096  0.7765 -1.0917
  677MOL0     H89330  -0.122   4.749   3.298  1.0259 -0.0408  1.0578
  677MOL0     H89331  -0.053   4.881   3.197  0.0223 -0.6563 -0.1169
  677MOL0     H89332  -0.272   4.957   3.139 -2.1668 -0.6922 -1.6735
  677MOL0     H89333  -0.353   4.825   3.227  0.1446  0.0003  0.1568
  677MOL0     H89334  -0.237   4.653   3.086 -4.6689 -1.7211 -1.4790
  677MOL0     H89335  -0.150   4.788   3.000  0.1277 -0.1334  2.2312
  677MOL0     H89336  -0.451   4.742   3.010 -0.7261  1.2880 -1.8156
  677MOL0     H89337  -0.379   4.870   2.922 -0.7981  0.0259  0.9348
  677MOL0     H89338  -0.258   4.704   2.760  0.4781 -2.3860 -0.0028
  677MOL0     H89339  -0.435   4.718   2.764  0.1224 -0.4295  0.6412
  677MOL0     H89340  -0.459   4.525   2.895 -0.0272  1.4626  0.8699
  677MOL0     H89341  -0.281   4.519   2.911  0.5699  2.1614 -0.1968
  677MOL0     H89342  -0.415   4.492   2.638  2.1301 -1.3494 -2.0336
  677MOL0     H89343  -0.246   4.471   2.691 -0.1560  0.5265  2.0675
  677MOL0     H89344  -0.325   4.292   2.849  0.4128 -0.1905  0.9632
  677MOL0     H89345  -0.323   4.244   2.678  1.1459 -0.6898  2.1587
  677MOL0     H89346  -0.135   5.203   3.440 -0.0127 -0.2771 -1.3767
  677MOL0     H89347   0.070   5.320   3.520  2.1567  0.2178 -1.0026
  677MOL0     H89348   0.550   5.272   3.500  0.1427 -0.1974  0.3138
  677MOL0     H89349   0.754   5.388   3.523  2.3115  1.8488  2.1739
  677MOL0     H89350   2.556   6.024   3.464  3.1535  0.3989 -0.5246
  677MOL0     H89351   2.730   5.860   3.459 -1.6665  0.7796 -1.5263
  677MOL0     H89352   2.965   5.455   3.800 -0.0149 -0.2547 -0.8288
  677MOL0     H89353   3.189   5.365   3.885  1.9408 -0.0825  2.2088
  677MOL0     H89354   3.591   5.510   3.986 -1.0668  1.0538  0.5947
  677MOL0     H89355   3.512   5.667   3.973  3.6979  1.4911  0.3933
  677MOL0     H89356   3.570   5.678   3.748  1.9483  1.8401  2.3265
  677MOL0     H89357   3.705   5.623   3.841  0.0774  0.1124  0.3941
  677MOL0     H89358   3.669   5.500   3.612  2.3192 -2.6780  0.4559
  677MOL0     H89359   3.518   5.447   3.666  0.2933  2.1247 -1.1122
  677MOL0     H89360   3.619   5.312   3.846 -1.0499 -1.1696 -0.0871
  677MOL0     H89361   3.657   5.254   3.684  0.2843  0.1145  0.7557
  677MOL0     H89362   4.038   5.411   3.809 -0.3847  0.7162 -2.0229
  677MOL0     H89363   3.366   5.756   3.816 -3.2870  2.7912 -1.3086
  677MOL0     H89364   3.156   5.842   3.758 -0.8470  1.6733  3.4532
  678MOL0     O89365  10.192   0.796   2.162 -1.1052  0.5141 -0.1929
  678MOL0     C89366  10.273   0.853   2.238  0.1770  0.2916 -0.5482
  678MOL0     O89367  10.255   0.884   2.370  0.1683  0.7184 -0.1715
  678MOL0     C89368  10.130   0.892   2.422  0.3396 -0.8751  0.6746
  678MOL0     C89369  10.087   1.018   2.476 -0.1167 -0.0666  0.5165
  678MOL0     C89370   9.961   1.027   2.531 -0.1296  0.5110 -0.5632
  678MOL0     C89371   9.870   0.921   2.527  0.3765 -0.0231 -0.7711
  678MOL0     O89372   9.751   0.956   2.588 -0.1809  0.7957 -0.2671
  678MOL0     C89373   9.627   0.898   2.536 -0.3338 -0.6533 -0.0723
  678MOL0     C89374   9.527   0.996   2.492 -0.1163 -0.1733 -0.9613
  678MOL0     C89375   9.394   0.918   2.481 -0.2777  0.2039  0.3002
  678MOL0     C89376   9.290   0.987   2.400 -0.4353 -0.7290 -0.5957
  678MOL0     C89377   9.154   0.915   2.391  0.0856  0.0456 -0.1116
  678MOL0     C89378   9.159   0.773   2.346 -0.6518 -0.0815  0.0793
  678MOL0     C89379   9.019   0.720   2.315  0.1193  0.2886  0.2646
  678MOL0     C89380   8.950   0.654   2.442 -0.4952  0.4205  0.1038
  678MOL0     N89381   8.827   0.577   2.444 -0.4195  0.7166  0.3229
  678MOL0     C89382   8.740   0.554   2.335 -0.1470  0.3379  0.0324
  678MOL0     C89383   8.644   0.473   2.385  0.7759 -0.5679  0.0431
  678MOL0     C89384   8.530   0.413   2.309  0.4444 -0.7644 -0.1314
  678MOL0     C89385   8.386   0.470   2.337  0.0577  1.0714  0.3698
  678MOL0     C89386   8.360   0.612   2.285 -1.0212  0.4777 -0.6792
  678MOL0     C89387   8.419   0.722   2.374 -0.2525  0.2935 -0.3609
  678MOL0     O89388   8.493   0.813   2.290 -1.0034 -0.2248  0.7933
  678MOL0     C89389   8.589   0.898   2.337  0.5512  0.3683 -0.1977
  678MOL0     C89390   8.669   0.955   2.241 -0.3427  0.7372  0.7049
  678MOL0     C89391   8.773   1.044   2.278  0.1093 -0.0612  0.5804
  678MOL0     C89392   8.790   1.086   2.407 -0.2486  0.1808  0.2443
  678MOL0     C89393   8.902   1.169   2.452 -0.1417 -0.1578 -0.2114
  678MOL0     O89394   8.919   1.199   2.588 -0.1599  0.0931  0.7411
  678MOL0     C89395   9.038   1.268   2.610  0.8048 -0.1775  0.4626
  678MOL0     C89396   9.055   1.399   2.571  0.8311 -0.1757 -0.7657
  678MOL0     C89397   9.182   1.463   2.578 -0.0507 -0.1650 -0.3949
  678MOL0     C89398   9.291   1.402   2.635  0.5998  0.0415 -0.0068
  678MOL0     O89399   9.414   1.462   2.649 -0.6080  0.3984 -0.2208
  678MOL0     C89400   9.512   1.410   2.558  0.0082  0.4215  0.1758
  678MOL0     C89401   9.467   1.406   2.409 -0.4330 -0.7322  0.0820
  678MOL0     C89402   9.584   1.350   2.328  0.1630 -0.0401 -1.0846
  678MOL0     C89403   9.566   1.362   2.182  0.1547 -0.1708 -0.0465
  678MOL0     C89404   9.454   1.273   2.133 -0.2136  0.5712  0.6651
  678MOL0     C89405   9.415   1.314   1.988 -0.4038  0.5191  0.3873
  678MOL0     C89406   9.283   1.247   1.949 -0.9570  0.0633  0.4892
  678MOL0     C89407   9.160   1.288   2.027 -0.2281 -0.1973 -0.0008
  678MOL0    Cl89408   9.027   1.206   1.942 -0.1797  0.8357  0.0222
  678MOL0     C89409   9.263   1.272   2.686 -0.3932  0.4256  0.9880
  678MOL0     C89410   9.134   1.211   2.678 -0.4810  0.8501  0.4524
  678MOL0     O89411   8.967   1.214   2.356  0.2937 -0.0568  0.4145
  678MOL0     C89412   8.707   1.021   2.501 -0.0786  0.7010  0.3230
  678MOL0     C89413   8.607   0.935   2.467 -1.0050  1.0248  0.4043
  678MOL0     N89414   8.658   0.469   2.519 -0.0954 -0.6190 -0.3281
  678MOL0     N89415   8.766   0.528   2.555  0.1393  0.1785  0.2426
  678MOL0     C89416   9.909   0.805   2.472 -1.0042  0.7751 -0.4515
  678MOL0     C89417  10.040   0.788   2.423 -0.6656 -1.0717  0.0621
  678MOL0     C89418  10.406   0.874   2.174  0.1405  0.5926 -0.4439
  678MOL0     C89419  10.513   0.902   2.264 -0.2930  0.5571  0.2885
  678MOL0     C89420  10.641   0.928   2.207  0.3696 -0.1988  0.1001
  678MOL0     C89421  10.667   0.917   2.069  0.2999 -0.1770 -0.4454
  678MOL0     O89422  10.798   0.923   2.024 -0.4941 -0.1211 -0.0125
  678MOL0     C89423  10.832   0.935   1.882 -0.3552 -0.8072 -0.4766
  678MOL0     C89424  10.988   0.960   1.875  0.5674 -1.1930 -0.2664
  678MOL0     C89425  11.028   1.099   1.942  0.4910 -0.7613  0.2652
  678MOL0     C89426  11.016   1.228   1.859 -0.2090  0.1725  0.5304
  678MOL0     C89427  10.900   1.238   1.769 -0.8596 -0.3584  0.0109
  678MOL0     C89428  10.804   1.259   1.701  0.1672  0.2035  0.2180
  678MOL0     C89429  10.556   0.882   1.986  0.1505 -0.4897 -0.3835
  678MOL0     C89430  10.433   0.865   2.034  0.0344  0.5880 -0.4836
  678MOL0     H89431  10.140   1.113   2.486 -0.6227  0.1870  0.8541
  678MOL0     H89432   9.932   1.123   2.574  2.2634  1.2176 -0.3616
  678MOL0     H89433   9.589   0.849   2.626  0.0309 -0.3229  0.2631
  678MOL0     H89434   9.632   0.808   2.474 -0.6557 -1.8010  1.5119
  678MOL0     H89435   9.545   1.038   2.393 -1.8797  0.7922 -0.9106
  678MOL0     H89436   9.505   1.085   2.553  1.5963  1.1774 -2.2354
  678MOL0     H89437   9.348   0.911   2.580 -3.2194 -1.7767 -1.0829
  678MOL0     H89438   9.403   0.824   2.426 -2.7637  0.9734 -1.5950
  678MOL0     H89439   9.294   1.092   2.428  1.0968  0.5823 -4.9340
  678MOL0     H89440   9.314   0.981   2.293  1.2788  3.5636 -0.6237
  678MOL0     H89441   9.083   0.969   2.327 -1.0440 -0.8485  0.3731
  678MOL0     H89442   9.116   0.905   2.493 -1.1245  0.7962 -0.4626
  678MOL0     H89443   9.192   0.703   2.423  0.8185 -0.9071 -1.2527
  678MOL0     H89444   9.224   0.764   2.259  1.6166  1.9352  1.4506
  678MOL0     H89445   8.950   0.794   2.274 -1.3923 -0.9872  0.3865
  678MOL0     H89446   9.021   0.644   2.236 -2.4543  2.3816 -2.0049
  678MOL0     H89447   8.934   0.730   2.520 -1.4720  0.2700  0.0566
  678MOL0     H89448   9.026   0.584   2.478 -1.1028 -0.4472 -0.2779
  678MOL0     H89449   8.747   0.590   2.233 -0.9217  0.6901  0.0996
  678MOL0     H89450   8.525   0.304   2.308  2.1310 -0.8970  1.2110
  678MOL0     H89451   8.549   0.444   2.205  0.7378 -0.1257  0.1080
  678MOL0     H89452   8.367   0.460   2.444 -0.0956  2.3370  0.4770
  678MOL0     H89453   8.309   0.409   2.288  0.2016  0.7428  0.5519
  678MOL0     H89454   8.396   0.620   2.182  0.2355  0.3233 -0.2653
  678MOL0     H89455   8.252   0.630   2.287 -1.2046 -0.3888 -1.9537
  678MOL0     H89456   8.494   0.690   2.447  0.5208  3.3465  0.3400
  678MOL0     H89457   8.340   0.771   2.431  1.8533  0.7606  2.3716
  678MOL0     H89458   8.653   0.929   2.136  2.3258 -1.9564  0.8312
  678MOL0     H89459   8.835   1.068   2.193 -0.3261 -0.5816  0.1060
  678MOL0     H89460   8.969   1.456   2.537  0.8163 -0.4286 -1.1528
  678MOL0     H89461   9.198   1.569   2.558  0.8655 -0.5490 -1.8662
  678MOL0     H89462   9.551   1.313   2.589  0.9088  0.6065 -0.3499
  678MOL0     H89463   9.598   1.477   2.568  1.0342 -0.6929 -0.7079
  678MOL0     H89464   9.452   1.512   2.385  0.9225 -0.6312 -0.4116
  678MOL0     H89465   9.374   1.354   2.389  0.3276 -1.2905 -2.3083
  678MOL0     H89466   9.601   1.244   2.349  0.6523  0.5470  1.8164
  678MOL0     H89467   9.669   1.408   2.365 -1.0556  0.3630  1.2946
  678MOL0     H89468   9.542   1.467   2.166  0.1322 -0.4920 -2.5754
  678MOL0     H89469   9.666   1.349   2.140  0.9530  0.4730  1.5664
  678MOL0     H89470   9.355   1.289   2.176 -1.8222  0.3393 -2.6094
  678MOL0     H89471   9.469   1.166   2.144 -1.4667  0.3051  0.0363
  678MOL0     H89472   9.494   1.284   1.920 -1.1568  2.5552 -1.5032
  678MOL0     H89473   9.406   1.422   1.973 -3.0757  0.1981 -0.9721
  678MOL0     H89474   9.260   1.266   1.843  1.8067  1.4018  0.0508
  678MOL0     H89475   9.299   1.140   1.959 -3.2393 -0.5686 -1.4367
  678MOL0     H89476   9.159   1.397   2.015  0.2970 -0.2612 -0.6834
  678MOL0     H89477   9.157   1.258   2.132 -0.6487 -0.8000 -0.1791
  678MOL0     H89478   9.339   1.219   2.743  0.4484  0.8111  0.2502
  678MOL0     H89479   9.122   1.110   2.717  0.0293  0.8685  0.6675
  678MOL0     H89480   8.707   1.046   2.606 -2.3973 -3.3886  1.4794
  678MOL0     H89481   8.548   0.899   2.550  1.1881 -0.5464  1.3774
  678MOL0     H89482   9.852   0.713   2.475  1.6633 -1.0109  2.6453
  678MOL0     H89483  10.078   0.693   2.387 -3.5846 -1.7770 -1.4002
  678MOL0     H89484  10.509   0.899   2.372  4.5467 -0.3131  0.6590
  678MOL0     H89485  10.735   0.939   2.261  0.9206 -1.9798 -0.4097
  678MOL0     H89486  10.764   0.999   1.826 -1.5220  0.5560  2.3471
  678MOL0     H89487  10.820   0.833   1.843 -3.7243 -1.2097  1.2750
  678MOL0     H89488  11.031   0.878   1.932 -0.8163 -0.5268  1.8531
  678MOL0     H89489  11.016   0.973   1.770 -0.0384 -3.0832 -0.7018
  678MOL0     H89490  11.136   1.096   1.959  0.3322  2.0081  2.5461
  678MOL0     H89491  10.978   1.126   2.036  0.5738 -0.9821  0.3753
  678MOL0     H89492  11.010   1.312   1.928  1.5189  0.3011  0.5626
  678MOL0     H89493  11.102   1.249   1.795  0.0742  3.8432  1.9029
  678MOL0     H89494  10.722   1.255   1.632  0.2663 -2.0403  0.1754
  678MOL0     H89495  10.576   0.874   1.880  0.1748  1.1790 -0.5359
  678MOL0     H89496  10.347   0.852   1.968  0.7617 -1.0969 -1.1512
  679MOL0     O89497   0.530   8.882  10.190  0.4372  0.1985 -0.2644
  679MOL0     C89498   0.605   8.802  10.135  0.9296 -0.4264 -1.0601
  679MOL0     O89499   0.591   8.764  10.003 -0.4354 -0.7515  0.2445
  679MOL0     C89500   0.531   8.831   9.902 -1.0800  0.1659 -0.2511
  679MOL0     C89501   0.541   8.976   9.905  0.1305 -0.6482 -0.9486
  679MOL0     C89502   0.474   9.051   9.805 -0.0796 -1.1355 -0.0819
  679MOL0     C89503   0.406   8.994   9.700  0.6270  0.4900 -0.1422
  679MOL0     O89504   0.358   9.069   9.590  0.1117 -0.3057  0.1798
  679MOL0     C89505   0.291   9.196   9.614 -0.2524 -0.0237  0.0708
  679MOL0     C89506   0.197   9.245   9.499 -0.3054  0.1531 -0.2685
  679MOL0     C89507   0.083   9.154   9.470 -0.2990  0.0652 -0.3293
  679MOL0     C89508  -0.004   9.213   9.357  0.0852 -0.5776  0.2346
  679MOL0     C89509  -0.133   9.131   9.345  0.0296  0.2183 -0.1377
  679MOL0     C89510  -0.106   8.978   9.342  0.7639 -0.1564 -0.4299
  679MOL0     C89511  -0.229   8.901   9.306 -0.4039 -0.8940 -0.3853
  679MOL0     C89512  -0.194   8.753   9.316  0.0391 -0.5604 -0.1905
  679MOL0     N89513  -0.308   8.662   9.312  1.0895 -0.0715 -0.4705
  679MOL0     C89514  -0.344   8.577   9.204 -0.2956  0.7360 -0.6274
  679MOL0     C89515  -0.439   8.501   9.252 -0.3470  0.7091 -1.2574
  679MOL0     C89516  -0.485   8.375   9.180  0.5744  0.3524  0.3355
  679MOL0     C89517  -0.627   8.331   9.207  0.9732 -0.2165  0.9966
  679MOL0     C89518  -0.663   8.214   9.105  0.5122 -0.7279 -1.1236
  679MOL0     C89519  -0.804   8.169   9.117  0.0178  0.3485 -0.1224
  679MOL0     O89520  -0.832   8.079   9.008 -0.1879 -0.4048  0.2218
  679MOL0     C89521  -0.955   8.021   8.992  0.7985  0.3874  0.0061
  679MOL0     C89522  -1.059   8.046   9.094  0.5413  0.0358  0.7941
  679MOL0     C89523  -1.184   7.988   9.061  0.2724 -0.1855  0.2932
  679MOL0     C89524  -1.211   7.915   8.944  0.1429 -0.2435  0.4417
  679MOL0     C89525  -1.337   7.844   8.923 -0.1368  1.0205 -0.5459
  679MOL0     O89526  -1.415   7.835   9.039 -0.1286 -0.0855  0.9333
  679MOL0     C89527  -1.547   7.801   9.037  0.3955 -0.1788  0.2420
  679MOL0     C89528  -1.594   7.755   9.156  0.8987 -0.5137 -0.2115
  679MOL0     C89529  -1.731   7.710   9.177 -0.4715  0.1786 -0.0555
  679MOL0     C89530  -1.821   7.712   9.072 -0.0887 -0.4468  0.8221
  679MOL0     O89531  -1.957   7.660   9.074 -0.3305 -1.3379  0.7510
  679MOL0     C89532  -1.961   7.537   9.140  0.4515 -0.3924  0.4954
  679MOL0     C89533  -2.100   7.481   9.107  0.3767  0.6182  0.0243
  679MOL0     C89534  -2.091   7.434   8.963  0.7410 -0.2497  0.8156
  679MOL0     C89535  -2.212   7.346   8.933 -0.3949 -0.9120  0.2244
  679MOL0     C89536  -2.352   7.423   8.950 -0.2341 -0.8401 -1.3679
  679MOL0     C89537  -2.460   7.319   8.907  0.0462  0.1296  0.1349
  679MOL0     C89538  -2.594   7.389   8.884 -0.3322  0.8262  0.3175
  679MOL0     C89539  -2.692   7.285   8.825  0.0614 -0.7167  0.4590
  679MOL0    Cl89540  -2.835   7.385   8.771 -0.3821 -0.3663  0.5223
  679MOL0     C89541  -1.778   7.765   8.953  0.1835 -0.0220 -0.5223
  679MOL0     C89542  -1.649   7.814   8.938 -0.2376  1.3117  0.6452
  679MOL0     O89543  -1.368   7.801   8.808 -0.9404  0.3398  0.0591
  679MOL0     C89544  -1.108   7.910   8.844  1.2214 -1.1031  0.8238
  679MOL0     C89545  -0.980   7.958   8.870 -0.3527  0.2914 -0.3628
  679MOL0     N89546  -0.471   8.536   9.383 -0.0343  0.1032 -0.1589
  679MOL0     N89547  -0.399   8.638   9.411  0.2214 -0.1422 -0.5297
  679MOL0     C89548   0.406   8.856   9.695  0.2137  0.2284  0.1374
  679MOL0     C89549   0.464   8.775   9.792 -0.1986  0.2098 -0.7293
  679MOL0     C89550   0.696   8.720  10.226 -0.4431  0.5488  0.1344
  679MOL0     C89551   0.754   8.610  10.174  0.0417  0.9318  0.8206
  679MOL0     C89552   0.832   8.536  10.255 -0.3994  0.3196  0.0239
  679MOL0     C89553   0.859   8.561  10.391 -0.0732 -0.3641  0.3535
  679MOL0     O89554   0.950   8.488  10.463 -1.0291  0.4143  0.2602
  679MOL0     C89555   0.947   8.504  10.604  0.0409  0.3902  0.5797
  679MOL0     C89556   0.814   8.439  10.659 -0.3795 -0.1665 -0.1947
  679MOL0     C89557   0.803   8.296  10.610 -0.2935 -0.4241 -0.2101
  679MOL0     C89558   0.690   8.210  10.675 -0.3832 -0.4010  0.9541
  679MOL0     C89559   0.710   8.191  10.816 -0.0717  0.3809 -0.0036
  679MOL0     C89560   0.712   8.161  10.934  0.0089 -0.9758 -0.7647
  679MOL0     C89561   0.800   8.674  10.436 -0.5590 -0.8106 -0.0364
  679MOL0     C89562   0.728   8.765  10.355  0.4236 -0.3347  0.0825
  679MOL0     H89563   0.599   9.027   9.982 -1.2103 -2.6201  1.4850
  679MOL0     H89564   0.490   9.158   9.796 -1.3199 -1.0380 -1.4564
  679MOL0     H89565   0.360   9.279   9.632 -0.7044  1.0483 -2.6765
  679MOL0     H89566   0.223   9.192   9.700 -3.9582 -0.5330 -2.6601
  679MOL0     H89567   0.266   9.274   9.419 -0.9076  0.7659 -0.5747
  679MOL0     H89568   0.153   9.339   9.533  0.0905  0.6657 -1.1379
  679MOL0     H89569   0.020   9.143   9.558  0.3228  1.5907  0.3440
  679MOL0     H89570   0.135   9.065   9.435 -0.2067  0.7048 -1.9088
  679MOL0     H89571  -0.039   9.315   9.375  0.0837 -0.5532  0.0946
  679MOL0     H89572   0.060   9.208   9.268 -0.5506  1.3049 -0.3870
  679MOL0     H89573  -0.179   9.157   9.248  0.1693  1.8755  0.2094
  679MOL0     H89574  -0.199   9.147   9.431  1.5702  0.8855  0.9684
  679MOL0     H89575  -0.079   8.944   9.442  0.1770  0.3588 -0.0948
  679MOL0     H89576  -0.029   8.960   9.266 -1.0370 -1.8549 -1.9395
  679MOL0     H89577  -0.310   8.924   9.375  0.4061  0.1566  0.2272
  679MOL0     H89578  -0.265   8.918   9.204 -0.4078 -2.5797 -0.6985
  679MOL0     H89579  -0.139   8.738   9.410  1.6055  1.0007 -0.7997
  679MOL0     H89580  -0.133   8.707   9.237  1.4414 -0.3833  0.7424
  679MOL0     H89581  -0.308   8.577   9.101  0.1886  1.2472 -0.4624
  679MOL0     H89582  -0.405   8.300   9.182  0.6330  0.3459 -1.2000
  679MOL0     H89583  -0.485   8.412   9.077 -2.6201  0.7123  0.3824
  679MOL0     H89584  -0.684   8.423   9.190 -2.6586 -2.2771  1.0811
  679MOL0     H89585  -0.650   8.306   9.311  0.9295 -1.3593  0.7174
  679MOL0     H89586  -0.657   8.248   9.001  2.5091  2.4226 -0.0834
  679MOL0     H89587  -0.590   8.133   9.114  0.4322 -0.8717 -1.7265
  679MOL0     H89588  -0.869   8.258   9.121 -0.9898 -0.3650 -0.1062
  679MOL0     H89589  -0.820   8.119   9.213  1.1699  0.1560 -0.0224
  679MOL0     H89590  -1.038   8.101   9.186 -0.5881  0.0910  1.0264
  679MOL0     H89591  -1.270   8.005   9.125  0.6272 -0.7332  0.9232
  679MOL0     H89592  -1.539   7.749   9.249 -1.4482 -2.3614  1.1683
  679MOL0     H89593  -1.763   7.665   9.271 -0.1488 -1.7518 -0.8360
  679MOL0     H89594  -1.955   7.549   9.249  1.5205  1.8947  0.2302
  679MOL0     H89595  -1.883   7.465   9.114  1.4778  1.0020 -0.4215
  679MOL0     H89596  -2.179   7.554   9.126  1.7208  2.0913  0.1835
  679MOL0     H89597  -2.117   7.389   9.165  2.8119 -0.4126 -0.7575
  679MOL0     H89598  -1.998   7.379   8.942 -0.7797 -2.3705 -0.7183
  679MOL0     H89599  -2.105   7.511   8.887 -1.8552 -2.8926 -1.6165
  679MOL0     H89600  -2.195   7.308   8.832  1.5176  0.7063 -0.1169
  679MOL0     H89601  -2.195   7.256   8.993  2.2150 -2.7479 -2.9287
  679MOL0     H89602  -2.361   7.518   8.895  0.2096 -0.4833 -0.8325
  679MOL0     H89603  -2.363   7.462   9.052  1.2964  3.1454 -2.5071
  679MOL0     H89604  -2.465   7.245   8.988  2.7149  1.5000  1.7065
  679MOL0     H89605  -2.436   7.272   8.811 -1.6983  1.2198 -0.8866
  679MOL0     H89606  -2.633   7.401   8.986 -0.4437  2.1253  0.1326
  679MOL0     H89607  -2.597   7.484   8.829  0.9403  1.0280  0.5737
  679MOL0     H89608  -2.737   7.206   8.886 -1.1218  0.3221  0.9765
  679MOL0     H89609  -2.655   7.240   8.732  0.0494 -2.8656  1.4356
  679MOL0     H89610  -1.851   7.762   8.873 -2.7190  0.5245  1.8885
  679MOL0     H89611  -1.630   7.856   8.840 -0.8637 -0.2764 -0.2114
  679MOL0     H89612  -1.121   7.858   8.750  0.5618 -0.1379  0.3685
  679MOL0     H89613  -0.894   7.929   8.810  2.1521  1.9473  2.1727
  679MOL0     H89614   0.359   8.821   9.604 -4.8354  1.2272  2.0660
  679MOL0     H89615   0.454   8.670   9.767  3.3154 -0.1459 -1.1207
  679MOL0     H89616   0.746   8.577  10.071  1.9845 -0.3700  1.0437
  679MOL0     H89617   0.888   8.453  10.215 -1.5033  0.2746 -1.5213
  679MOL0     H89618   0.944   8.611  10.629 -2.1257  0.2046  1.2993
  679MOL0     H89619   1.040   8.466  10.648  0.4529 -0.5350 -0.9979
  679MOL0     H89620   0.813   8.426  10.768  1.0298 -1.0286 -0.2506
  679MOL0     H89621   0.725   8.498  10.637 -2.3818 -2.8838  0.0789
  679MOL0     H89622   0.900   8.247  10.614 -0.5256 -0.8828 -0.1414
  679MOL0     H89623   0.768   8.291  10.506 -1.1267 -1.9044  0.1145
  679MOL0     H89624   0.598   8.270  10.671  0.6703  1.2011 -0.5482
  679MOL0     H89625   0.672   8.115  10.623 -2.4361  1.5876 -2.3895
  679MOL0     H89626   0.699   8.150  11.040 -0.1571 -0.4813 -0.7326
  679MOL0     H89627   0.805   8.712  10.538 -1.7928 -0.1239 -0.2094
  679MOL0     H89628   0.672   8.852  10.388 -0.7660 -0.8783 -0.4339
  680MOL0     O89629  10.730   8.083  10.045 -0.4936 -0.2212  0.4596
  680MOL0     C89630  10.738   8.210  10.036  0.0895 -0.2258  0.3044
  680MOL0     O89631  10.645   8.302  10.091 -0.2685  0.2973  0.1871
  680MOL0     C89632  10.533   8.243  10.148 -0.6341  0.0383 -0.1479
  680MOL0     C89633  10.412   8.283  10.092 -1.0570 -0.4547  0.7825
  680MOL0     C89634  10.291   8.246  10.149  0.2172  0.4307  0.4626
  680MOL0     C89635  10.279   8.181  10.275  0.7068 -0.2296  0.3722
  680MOL0     O89636  10.161   8.153  10.338  0.2477  0.4615  0.7693
  680MOL0     C89637  10.037   8.198  10.275 -0.9236 -0.4936 -0.2381
  680MOL0     C89638   9.930   8.130  10.372 -0.2318  0.3217  0.6161
  680MOL0     C89639   9.790   8.153  10.316 -0.1757 -0.4347  0.7189
  680MOL0     C89640   9.678   8.117  10.414  0.7913 -0.7083 -0.7591
  680MOL0     C89641   9.545   8.129  10.345  0.5830 -1.7080 -0.3220
  680MOL0     C89642   9.434   8.095  10.446 -0.1419 -0.7617  0.3736
  680MOL0     C89643   9.290   8.096  10.386 -0.9781  0.1404 -0.9639
  680MOL0     C89644   9.199   8.072  10.499  0.3395 -0.2159 -0.3680
  680MOL0     N89645   9.058   8.070  10.472  0.3417  0.2385  0.4340
  680MOL0     C89646   8.999   7.970  10.400 -0.1480 -0.2186 -0.1451
  680MOL0     C89647   8.878   8.024  10.365 -0.1199  0.3813  0.7133
  680MOL0     C89648   8.784   7.963  10.262 -0.5448  0.5064 -0.1782
  680MOL0     C89649   8.736   7.827  10.325 -0.9815  0.0240  0.0914
  680MOL0     C89650   8.658   7.832  10.455  0.1445  0.2595 -0.2229
  680MOL0     C89651   8.540   7.928  10.456 -0.8906  0.0525  0.1687
  680MOL0     O89652   8.469   7.922  10.575 -0.1940  0.4093 -0.6064
  680MOL0     C89653   8.360   8.007  10.596 -0.0677  0.7227 -0.1078
  680MOL0     C89654   8.238   7.974  10.543  0.8703 -0.0568  0.0223
  680MOL0     C89655   8.125   8.059  10.567  0.0445 -0.7873  0.0937
  680MOL0     C89656   8.128   8.168  10.655  0.2634 -0.9180 -0.0078
  680MOL0     C89657   8.007   8.248  10.679 -0.1410 -0.1857 -0.2494
  680MOL0     O89658   8.028   8.362  10.741  0.2457 -0.0249  0.4663
  680MOL0     C89659   7.919   8.442  10.778 -0.3735 -0.1085 -0.5912
  680MOL0     C89660   7.807   8.390  10.834 -0.1708  0.4256 -1.0871
  680MOL0     C89661   7.701   8.466  10.880  0.0888 -0.8426 -0.1811
  680MOL0     C89662   7.709   8.608  10.869  0.4687  0.3069 -0.6860
  680MOL0     O89663   7.611   8.694  10.903 -0.3410  0.4855 -0.1052
  680MOL0     C89664   7.522   8.640  10.999  0.5772  0.4678 -0.7623
  680MOL0     C89665   7.403   8.736  11.028 -0.3051  0.7403  0.0850
  680MOL0     C89666   7.443   8.866  11.090 -0.0814  0.0741 -0.3825
  680MOL0     C89667   7.340   8.979  11.086 -0.3900 -0.0336 -0.4923
  680MOL0     C89668   7.280   8.986  11.231  0.0043 -0.2914 -0.1519
  680MOL0     C89669   7.168   9.087  11.234  0.1474  0.8747  0.6360
  680MOL0     C89670   7.116   9.125  11.374 -0.3437 -0.2132  0.4757
  680MOL0     C89671   7.072   9.005  11.451  0.3486  0.3222 -0.1054
  680MOL0    Cl89672   6.978   9.055  11.590 -0.0917 -0.0494  0.1140
  680MOL0     C89673   7.821   8.659  10.809 -0.3766  0.2284  0.2569
  680MOL0     C89674   7.924   8.580  10.769 -0.1465 -0.2153 -0.0624
  680MOL0     O89675   7.910   8.221  10.624 -0.1793  0.1792  0.2632
  680MOL0     C89676   8.263   8.200  10.699  0.3390  0.5226  0.3841
  680MOL0     C89677   8.371   8.120  10.668  0.6609  0.1430  0.6234
  680MOL0     N89678   8.856   8.128  10.446 -0.5793 -0.1499  0.3124
  680MOL0     N89679   8.961   8.164  10.502  0.5131 -0.0179  0.0875
  680MOL0     C89680  10.405   8.139  10.327  0.5084  0.7293 -0.0213
  680MOL0     C89681  10.531   8.180  10.274  0.2221  0.5917 -0.4155
  680MOL0     C89682  10.859   8.269   9.977 -0.7226 -0.0784  0.6627
  680MOL0     C89683  10.877   8.405   9.977  0.8537 -0.5488 -0.3195
  680MOL0     C89684  10.987   8.466   9.913 -0.6282 -0.2340 -0.1081
  680MOL0     C89685  11.083   8.384   9.848  0.7341  0.3004 -0.2679
  680MOL0     O89686  11.186   8.430   9.769  0.6756 -0.1565  0.1095
  680MOL0     C89687  11.191   8.566   9.722  0.1199 -0.2577  0.0787
  680MOL0     C89688  11.318   8.607   9.639  0.0987 -0.2578 -0.0754
  680MOL0     C89689  11.329   8.516   9.514 -0.0837 -0.1450  0.1938
  680MOL0     C89690  11.468   8.533   9.447  0.8124 -0.4494  0.1657
  680MOL0     C89691  11.500   8.672   9.398  0.2720 -1.3124  0.8168
  680MOL0     C89692  11.529   8.786   9.356 -0.6550 -0.3799 -0.2564
  680MOL0     C89693  11.076   8.243   9.859  1.0706  0.7109  0.5035
  680MOL0     C89694  10.961   8.186   9.918  0.0075  0.1176 -0.1684
  680MOL0     H89695  10.416   8.337   9.997  0.3561  0.9007  1.5776
  680MOL0     H89696  10.197   8.284  10.109 -1.6840 -1.8482  2.5035
  680MOL0     H89697  10.030   8.170  10.169  1.2297  2.7695 -1.4061
  680MOL0     H89698  10.025   8.307  10.273 -0.4531 -0.4511 -1.2131
  680MOL0     H89699   9.942   8.162  10.476  1.4741 -1.3342  0.9947
  680MOL0     H89700   9.936   8.021  10.370 -3.0592  0.0696  1.3142
  680MOL0     H89701   9.776   8.083  10.234 -1.9832  0.0756  0.5568
  680MOL0     H89702   9.777   8.256  10.282  1.5788 -1.0408 -2.1330
  680MOL0     H89703   9.678   8.023  10.469  1.9573  0.8604  2.2032
  680MOL0     H89704   9.685   8.193  10.493 -1.6045  2.5133 -3.3481
  680MOL0     H89705   9.531   8.060  10.261 -0.3856 -1.3019 -0.5204
  680MOL0     H89706   9.533   8.230  10.303  0.6453 -0.5106  2.3705
  680MOL0     H89707   9.451   8.165  10.529  0.6010  0.8276 -1.0493
  680MOL0     H89708   9.448   7.993  10.482  0.5373 -1.1814 -1.0139
  680MOL0     H89709   9.274   8.198  10.348 -0.4405 -0.4054 -2.7555
  680MOL0     H89710   9.287   8.024  10.303  2.6713 -2.6530  1.0468
  680MOL0     H89711   9.224   8.152  10.570  1.1482  0.8847 -1.8496
  680MOL0     H89712   9.230   7.982  10.553  1.1040  1.3530  1.9584
  680MOL0     H89713   9.052   7.882  10.364 -2.3702 -1.7516  0.1476
  680MOL0     H89714   8.837   7.948  10.168  2.5299  2.6985  1.0262
  680MOL0     H89715   8.699   8.031  10.246  0.6106  1.5748 -2.3160
  680MOL0     H89716   8.826   7.767  10.343  0.0884  1.6199  0.2928
  680MOL0     H89717   8.672   7.782  10.249  2.6104 -0.3732 -3.0057
  680MOL0     H89718   8.628   7.730  10.479  0.8671 -0.2960 -1.5536
  680MOL0     H89719   8.724   7.859  10.538 -1.2062 -2.7253  2.0299
  680MOL0     H89720   8.469   7.913  10.374 -1.2843 -0.8373  0.6661
  680MOL0     H89721   8.580   8.030  10.456 -2.8117  0.9676 -3.0232
  680MOL0     H89722   8.246   7.884  10.482 -0.5505  1.6065 -2.8553
  680MOL0     H89723   8.033   8.022  10.522  0.8980 -3.2914  0.2030
  680MOL0     H89724   7.794   8.283  10.826  0.3993  0.3552 -1.0834
  680MOL0     H89725   7.612   8.417  10.918 -0.5358 -0.0899 -0.6371
  680MOL0     H89726   7.578   8.632  11.093  0.1901  0.4247 -0.5339
  680MOL0     H89727   7.476   8.546  10.970 -0.6225  0.6042  0.5653
  680MOL0     H89728   7.330   8.690  11.095 -2.5635 -1.5338 -3.5856
  680MOL0     H89729   7.357   8.760  10.932 -0.7549  1.2510  0.4186
  680MOL0     H89730   7.529   8.900  11.031  1.7154 -1.1037  1.4532
  680MOL0     H89731   7.470   8.849  11.194 -2.4706 -4.4766 -0.2791
  680MOL0     H89732   7.378   9.075  11.051 -1.3136 -0.1334 -1.8698
  680MOL0     H89733   7.255   8.952  11.023 -1.0438  0.3336  0.2048
  680MOL0     H89734   7.359   9.013  11.302 -0.5266  1.1413 -0.0856
  680MOL0     H89735   7.251   8.886  11.265 -2.7751  1.5437  3.5142
  680MOL0     H89736   7.084   9.045  11.178  1.7363 -0.3076 -0.9751
  680MOL0     H89737   7.198   9.176  11.179 -0.7421  0.0150 -1.3444
  680MOL0     H89738   7.200   9.177  11.421 -0.1289 -0.8617  0.8173
  680MOL0     H89739   7.033   9.197  11.369  0.7722  1.0619 -0.3324
  680MOL0     H89740   7.151   8.932  11.467 -0.5442 -0.8084 -0.7527
  680MOL0     H89741   7.007   8.948  11.384 -1.1793 -1.2157  2.5521
  680MOL0     H89742   7.835   8.766  10.794  3.9004 -0.1603  0.1087
  680MOL0     H89743   8.015   8.627  10.734 -0.7834  0.3110 -1.0707
  680MOL0     H89744   8.293   8.284  10.761 -0.8761 -0.6341  2.6324
  680MOL0     H89745   8.468   8.140  10.714  1.3086 -1.3138 -0.0322
  680MOL0     H89746  10.403   8.077  10.416  2.8893  0.1881 -0.2788
  680MOL0     H89747  10.622   8.160  10.330  0.6220  1.7609 -0.6006
  680MOL0     H89748  10.805   8.471  10.026  0.3187 -1.4606  0.1472
  680MOL0     H89749  10.995   8.574   9.913 -1.0527 -0.1953 -1.2967
  680MOL0     H89750  11.201   8.629   9.810 -1.6165 -0.5195  0.5022
  680MOL0     H89751  11.101   8.585   9.663  0.0471  3.3750  1.0869
  680MOL0     H89752  11.314   8.709   9.602 -0.7200 -0.1875  0.1884
  680MOL0     H89753  11.402   8.596   9.708 -0.5662 -0.7987  0.6818
  680MOL0     H89754  11.243   8.532   9.448 -0.1642 -0.9173  0.1094
  680MOL0     H89755  11.315   8.411   9.541  2.9482 -0.8523 -0.6376
  680MOL0     H89756  11.556   8.516   9.510  1.0383 -0.6684 -0.2024
  680MOL0     H89757  11.468   8.469   9.358 -0.3889 -0.8351  0.4205
  680MOL0     H89758  11.556   8.889   9.344 -0.2993 -0.4068  0.2826
  680MOL0     H89759  11.159   8.180   9.828  0.3276  1.4651 -3.5696
  680MOL0     H89760  10.938   8.080   9.922 -1.6116  0.3297 -2.2508
  681MOL0     O89761   9.965   2.949   6.466 -0.0782  0.0301 -0.3261
  681MOL0     C89762   9.967   3.056   6.404 -0.2601  0.2203  0.8201
  681MOL0     O89763  10.081   3.125   6.381  0.7757  0.6296  0.0980
  681MOL0     C89764  10.184   3.125   6.470 -0.2085  0.4529 -0.1036
  681MOL0     C89765  10.183   3.097   6.611  0.1959 -0.2625  0.4109
  681MOL0     C89766  10.303   3.089   6.679 -0.3934  0.2969  0.0864
  681MOL0     C89767  10.427   3.110   6.607  0.5605 -0.1174 -0.2105
  681MOL0     O89768  10.549   3.106   6.669  0.5153  0.3218  0.7217
  681MOL0     C89769  10.563   3.019   6.785 -0.3797 -0.3329 -0.4217
  681MOL0     C89770  10.704   3.028   6.833 -0.1744  0.4065 -0.5322
  681MOL0     C89771  10.754   3.171   6.855 -0.5338 -0.3939 -0.1389
  681MOL0     C89772  10.671   3.270   6.942  0.0099  0.0743  0.0139
  681MOL0     C89773  10.619   3.209   7.080 -0.0309  0.0275  0.3082
  681MOL0     C89774  10.562   3.331   7.164  0.0958  1.1873  0.3578
  681MOL0     C89775  10.487   3.314   7.300 -0.3367 -0.5580  0.4203
  681MOL0     C89776  10.373   3.206   7.305  0.7098  0.2968  0.6952
  681MOL0     N89777  10.285   3.226   7.419 -0.4691 -0.4972 -0.5571
  681MOL0     C89778  10.224   3.345   7.460  0.4752  0.1745 -0.1186
  681MOL0     C89779  10.174   3.308   7.576  0.6397 -1.4855 -0.2296
  681MOL0     C89780  10.112   3.409   7.666  0.0805  1.2225 -0.2637
  681MOL0     C89781   9.959   3.419   7.661  0.2835  0.7799  1.0356
  681MOL0     C89782   9.918   3.455   7.516  0.5307 -0.0420  0.6004
  681MOL0     C89783   9.774   3.516   7.500 -0.0092  0.1792 -0.1815
  681MOL0     O89784   9.691   3.403   7.471  0.2267  0.8386  0.0611
  681MOL0     C89785   9.560   3.419   7.437  0.8385  0.8315 -0.2594
  681MOL0     C89786   9.497   3.538   7.424  0.5061 -0.0157  0.4816
  681MOL0     C89787   9.358   3.556   7.416 -0.3721 -0.2637 -0.1333
  681MOL0     C89788   9.285   3.438   7.414 -0.7045  0.6837  0.6939
  681MOL0     C89789   9.142   3.430   7.392 -0.2038 -0.3991 -0.3759
  681MOL0     O89790   9.070   3.329   7.462 -0.0127  0.1744  0.7570
  681MOL0     C89791   8.937   3.349   7.482 -0.8390 -0.1496 -0.9303
  681MOL0     C89792   8.887   3.316   7.610  0.3612 -0.2068 -0.5630
  681MOL0     C89793   8.752   3.313   7.636 -0.6197 -1.2000  0.1468
  681MOL0     C89794   8.654   3.334   7.538 -0.1705  0.4716  0.0078
  681MOL0     O89795   8.518   3.333   7.576  0.0130  0.2926 -0.4559
  681MOL0     C89796   8.422   3.314   7.474  0.3030  0.0856  0.1244
  681MOL0     C89797   8.279   3.316   7.539  0.8578 -0.2758 -0.0088
  681MOL0     C89798   8.168   3.301   7.433  0.2777  0.1897  0.4115
  681MOL0     C89799   8.050   3.221   7.505 -0.9056 -0.2356 -0.1015
  681MOL0     C89800   7.920   3.222   7.427 -0.3487  0.1077 -0.2341
  681MOL0     C89801   7.822   3.115   7.486 -0.5249  0.2877 -0.0812
  681MOL0     C89802   7.713   3.108   7.385 -0.9159 -0.1239 -0.1791
  681MOL0     C89803   7.593   3.024   7.431 -0.0999  0.2084  0.6644
  681MOL0    Cl89804   7.508   3.093   7.562 -0.0758 -0.1116  0.0341
  681MOL0     C89805   8.708   3.358   7.411 -0.4269 -0.0961 -0.6152
  681MOL0     C89806   8.844   3.370   7.382 -1.0278 -0.0553  0.7804
  681MOL0     O89807   9.092   3.527   7.334 -0.0035 -0.9048  0.4315
  681MOL0     C89808   9.350   3.312   7.430 -0.6227 -0.6166 -0.6175
  681MOL0     C89809   9.490   3.301   7.438  1.6249 -0.8989  0.1099
  681MOL0     N89810  10.205   3.172   7.609 -0.6877 -0.8223 -0.4909
  681MOL0     N89811  10.267   3.125   7.508  0.2373 -0.6406  0.1906
  681MOL0     C89812  10.427   3.149   6.473  0.0284 -0.0278  0.0689
  681MOL0     C89813  10.306   3.151   6.405  0.0917 -0.0510 -0.3646
  681MOL0     C89814   9.844   3.085   6.328  0.4521 -0.8601 -1.0142
  681MOL0     C89815   9.831   3.197   6.252 -0.2249 -0.1070 -0.2098
  681MOL0     C89816   9.725   3.214   6.162  0.7190  0.0865 -0.7846
  681MOL0     C89817   9.623   3.117   6.156 -0.5502  0.2234 -0.2158
  681MOL0     O89818   9.502   3.130   6.088 -0.1668  0.1171 -0.9025
  681MOL0     C89819   9.484   3.203   5.973 -0.0732 -0.0343 -0.4452
  681MOL0     C89820   9.337   3.226   5.946  0.3154 -0.2995 -0.4483
  681MOL0     C89821   9.268   3.309   6.059 -0.5024  0.8610  0.5234
  681MOL0     C89822   9.117   3.272   6.069 -0.6515  0.5533  0.3200
  681MOL0     C89823   9.043   3.304   5.944  0.9381  1.0790  0.7164
  681MOL0     C89824   8.977   3.332   5.846 -0.8380 -0.2499  1.0170
  681MOL0     C89825   9.633   3.007   6.240  0.5067 -0.6304  0.3429
  681MOL0     C89826   9.742   2.990   6.323  0.0034  0.4206  0.2569
  681MOL0     H89827  10.083   3.092   6.654  0.3954  2.2020  1.3083
  681MOL0     H89828  10.305   3.076   6.786  0.4127  1.9358  0.3035
  681MOL0     H89829  10.535   2.915   6.766  0.1663 -0.4445 -0.6297
  681MOL0     H89830  10.505   3.055   6.871 -0.8163 -1.8328 -0.0555
  681MOL0     H89831  10.771   2.976   6.765 -2.2106  0.6771 -2.9020
  681MOL0     H89832  10.713   2.982   6.932  1.3414  2.1645  0.1860
  681MOL0     H89833  10.763   3.212   6.754 -0.5779  0.9436  0.3894
  681MOL0     H89834  10.852   3.170   6.904 -0.3180  1.5080 -0.4461
  681MOL0     H89835  10.736   3.352   6.974 -3.0132  2.1725  1.2216
  681MOL0     H89836  10.590   3.314   6.885  0.2652  0.2722 -0.1989
  681MOL0     H89837  10.691   3.147   7.134 -1.1413 -2.0377 -0.4577
  681MOL0     H89838  10.535   3.139   7.076  0.9259 -1.1775 -2.9980
  681MOL0     H89839  10.493   3.379   7.094 -0.8570 -0.2769  0.2571
  681MOL0     H89840  10.646   3.399   7.182  0.1469  1.1050  0.4297
  681MOL0     H89841  10.562   3.278   7.371  0.7210 -0.0893 -0.4341
  681MOL0     H89842  10.450   3.415   7.324 -0.2503 -0.0941 -1.2791
  681MOL0     H89843  10.404   3.101   7.308 -1.3949 -0.4012 -0.5759
  681MOL0     H89844  10.314   3.226   7.215 -2.2522 -2.5659  1.7980
  681MOL0     H89845  10.231   3.447   7.421  1.6453  0.7210  1.4199
  681MOL0     H89846  10.166   3.504   7.662  1.2364  0.6969  1.5544
  681MOL0     H89847  10.131   3.368   7.766  0.1675 -0.3378 -0.8964
  681MOL0     H89848   9.924   3.497   7.729 -0.9117  2.5855 -1.4521
  681MOL0     H89849   9.922   3.323   7.696  1.0761 -0.5856 -1.5550
  681MOL0     H89850   9.985   3.534   7.480  3.5543 -2.8309 -0.4798
  681MOL0     H89851   9.931   3.373   7.444  1.6732  2.7652 -2.6723
  681MOL0     H89852   9.774   3.575   7.408  0.3290 -2.3830 -1.9415
  681MOL0     H89853   9.750   3.578   7.587 -0.1587 -0.8994  0.5634
  681MOL0     H89854   9.555   3.628   7.402 -1.0003  0.7987 -0.3480
  681MOL0     H89855   9.321   3.655   7.392 -3.2431 -1.5516 -1.5018
  681MOL0     H89856   8.968   3.292   7.678  0.5715 -2.9180 -1.6351
  681MOL0     H89857   8.714   3.312   7.737 -1.1640 -2.2776 -0.0529
  681MOL0     H89858   8.446   3.216   7.432 -2.1944 -0.5518  0.0566
  681MOL0     H89859   8.435   3.390   7.396  1.1837  1.0682  1.1963
  681MOL0     H89860   8.252   3.404   7.598 -2.6423  0.2869 -2.1362
  681MOL0     H89861   8.267   3.227   7.602  0.4094  0.2115  0.6073
  681MOL0     H89862   8.204   3.253   7.341  2.4307 -1.2665  1.9209
  681MOL0     H89863   8.130   3.399   7.403  0.0225  0.7884  2.5550
  681MOL0     H89864   8.093   3.122   7.522  0.1414 -0.3722 -2.9848
  681MOL0     H89865   8.031   3.262   7.605 -0.1915  0.2794 -0.1713
  681MOL0     H89866   7.939   3.189   7.325  2.8869  0.5045  0.1552
  681MOL0     H89867   7.887   3.327   7.433  0.3570  0.2864  0.7701
  681MOL0     H89868   7.777   3.136   7.583 -1.0159 -0.6317 -0.1062
  681MOL0     H89869   7.864   3.015   7.495 -1.5693 -0.2255 -0.7354
  681MOL0     H89870   7.671   3.207   7.367  0.1769 -0.2251 -4.1928
  681MOL0     H89871   7.761   3.072   7.294 -0.4127 -1.8939  0.7379
  681MOL0     H89872   7.608   2.920   7.459 -0.3483  0.2912  1.1155
  681MOL0     H89873   7.524   3.017   7.347 -1.2748  0.5538  1.5702
  681MOL0     H89874   8.629   3.375   7.339 -0.6935 -1.1584 -0.5925
  681MOL0     H89875   8.883   3.382   7.281  1.8197 -3.7904  1.2442
  681MOL0     H89876   9.310   3.211   7.432  0.0888 -0.8950  0.6280
  681MOL0     H89877   9.535   3.204   7.455 -1.4097 -2.5141 -0.4110
  681MOL0     H89878  10.522   3.169   6.424  0.1813  0.6837  0.6423
  681MOL0     H89879  10.311   3.144   6.297  1.4109 -1.1246 -0.2591
  681MOL0     H89880   9.910   3.270   6.246 -1.9145  1.7093 -1.7691
  681MOL0     H89881   9.702   3.297   6.096 -1.4169  0.4214  0.2877
  681MOL0     H89882   9.543   3.161   5.891  0.6579 -1.6924  0.8792
  681MOL0     H89883   9.529   3.302   5.986 -0.2239 -0.1575  1.2128
  681MOL0     H89884   9.327   3.271   5.847  0.5551 -0.3018 -0.4740
  681MOL0     H89885   9.286   3.129   5.953  2.8529 -1.9283 -2.3709
  681MOL0     H89886   9.272   3.415   6.035 -3.5044  0.9199 -0.1209
  681MOL0     H89887   9.318   3.287   6.154  2.2776 -0.3824 -1.0959
  681MOL0     H89888   9.108   3.166   6.092  1.4909  0.5324  1.3810
  681MOL0     H89889   9.061   3.324   6.147 -0.2146 -0.3679  1.2713
  681MOL0     H89890   8.920   3.360   5.760 -1.4420 -1.3283  1.0440
  681MOL0     H89891   9.557   2.930   6.238  2.0752 -2.3340 -3.0596
  681MOL0     H89892   9.744   2.898   6.382 -5.0483 -0.5250 -0.5910
  682MOL0     O89893   9.075   7.858   2.097 -0.3763 -0.0848  0.7042
  682MOL0     C89894   9.132   7.749   2.095  1.4540 -0.0902 -0.4743
  682MOL0     O89895   9.073   7.627   2.104  1.4257  0.5439  0.3032
  682MOL0     C89896   8.937   7.612   2.094  0.4236 -0.4176 -0.4595
  682MOL0     C89897   8.847   7.631   1.981 -0.0441  0.2762  0.6194
  682MOL0     C89898   8.707   7.608   1.987 -0.0546 -0.5508  0.5250
  682MOL0     C89899   8.651   7.555   2.102  0.0637  0.4671  0.6172
  682MOL0     O89900   8.514   7.527   2.105 -0.2041 -0.0929  0.3031
  682MOL0     C89901   8.467   7.460   2.228 -1.0471 -0.2889 -0.3419
  682MOL0     C89902   8.341   7.386   2.200 -0.1095  0.1328 -0.6049
  682MOL0     C89903   8.223   7.486   2.182  0.5864  0.0190  0.7755
  682MOL0     C89904   8.089   7.425   2.134  0.0201 -0.2711  0.1831
  682MOL0     C89905   7.990   7.535   2.090 -0.0268  0.8121 -0.2715
  682MOL0     C89906   7.895   7.462   1.994  0.1330  0.8556  0.2702
  682MOL0     C89907   7.817   7.575   1.915  0.3639 -0.1912  0.1526
  682MOL0     C89908   7.722   7.645   2.006 -0.2344  0.0128  0.4078
  682MOL0     N89909   7.587   7.676   1.950  0.4159  0.0196  0.3687
  682MOL0     C89910   7.553   7.750   1.838 -1.5783  0.6056 -0.4830
  682MOL0     C89911   7.423   7.754   1.837 -0.0338 -0.7097 -0.1973
  682MOL0     C89912   7.322   7.834   1.754  0.1604 -0.2031  0.0877
  682MOL0     C89913   7.204   7.761   1.685 -0.3309 -0.1172  0.1666
  682MOL0     C89914   7.100   7.853   1.619  0.1096  0.3469  0.8094
  682MOL0     C89915   6.973   7.766   1.590 -1.4006 -0.1810  1.4539
  682MOL0     O89916   6.907   7.735   1.710  0.7778 -0.8584 -0.5888
  682MOL0     C89917   6.781   7.789   1.733  0.4895 -0.2180 -0.3737
  682MOL0     C89918   6.674   7.703   1.759 -0.9687 -0.1720  0.0396
  682MOL0     C89919   6.552   7.754   1.783  0.0239  0.6971 -0.5932
  682MOL0     C89920   6.528   7.889   1.778  0.0193 -0.3372 -0.2694
  682MOL0     C89921   6.388   7.944   1.777 -0.8340  0.7385  0.7910
  682MOL0     O89922   6.374   8.086   1.773  0.0036 -0.3680 -0.0755
  682MOL0     C89923   6.245   8.135   1.761 -0.2822 -0.6378  0.3780
  682MOL0     C89924   6.227   8.237   1.661  0.6624  0.1886 -0.1166
  682MOL0     C89925   6.110   8.311   1.653 -1.0451 -0.1004  0.1729
  682MOL0     C89926   6.003   8.287   1.732  0.6915 -0.1464  0.3924
  682MOL0     O89927   5.894   8.366   1.712  0.6419 -0.2481  0.1179
  682MOL0     C89928   5.766   8.305   1.740  0.3704  0.2531 -0.3551
  682MOL0     C89929   5.655   8.398   1.683 -0.2955 -0.5046  0.5160
  682MOL0     C89930   5.664   8.543   1.719 -0.3693  0.2319 -0.1616
  682MOL0     C89931   5.550   8.615   1.653  0.0588 -0.0652  0.1486
  682MOL0     C89932   5.570   8.754   1.581  0.4749 -0.4006 -0.8625
  682MOL0     C89933   5.685   8.759   1.473 -0.1430 -0.0444  0.1120
  682MOL0     C89934   5.666   8.864   1.362 -0.7149  0.9395  0.3273
  682MOL0     C89935   5.681   9.005   1.422 -0.6649  0.2748  0.3058
  682MOL0    Cl89936   5.718   9.123   1.298 -0.1057 -0.6781 -0.2658
  682MOL0     C89937   6.011   8.172   1.816  0.4100  0.7028  0.2424
  682MOL0     C89938   6.128   8.103   1.844  0.9257 -0.5798  1.1053
  682MOL0     O89939   6.292   7.867   1.787 -1.0367  0.0450  0.3409
  682MOL0     C89940   6.641   7.978   1.768  0.7571  0.2698  0.2808
  682MOL0     C89941   6.763   7.929   1.744 -0.6732  0.4970  0.5515
  682MOL0     N89942   7.369   7.693   1.955  0.3566 -0.0986  0.5504
  682MOL0     N89943   7.473   7.644   2.010 -0.2042  0.0447 -0.6611
  682MOL0     C89944   8.736   7.549   2.217  0.7339 -1.4942  0.3195
  682MOL0     C89945   8.871   7.578   2.207  0.2381 -0.6140  0.4109
  682MOL0     C89946   9.278   7.747   2.094 -0.4468 -0.0325  0.7003
  682MOL0     C89947   9.345   7.866   2.121 -1.0210 -0.1884 -0.4810
  682MOL0     C89948   9.482   7.870   2.101 -0.1673  0.4209 -0.0377
  682MOL0     C89949   9.559   7.762   2.050 -0.7561 -0.4098 -0.7902
  682MOL0     O89950   9.690   7.790   2.031  0.4344  0.5639  0.9321
  682MOL0     C89951   9.770   7.699   1.962 -0.8409 -0.4100 -1.1549
  682MOL0     C89952   9.908   7.749   1.980  0.0537 -1.1539  0.4528
  682MOL0     C89953   9.955   7.747   2.133  1.3246 -1.1964  1.2636
  682MOL0     C89954  10.104   7.766   2.165 -0.7652  0.0729  0.5419
  682MOL0     C89955  10.162   7.634   2.148  0.8794  1.4658 -0.1467
  682MOL0     C89956  10.218   7.527   2.148  0.6637 -0.5423 -0.3550
  682MOL0     C89957   9.492   7.645   2.026 -0.7361 -0.1466 -0.3619
  682MOL0     C89958   9.353   7.632   2.055  0.5470 -0.3306  0.0991
  682MOL0     H89959   8.892   7.670   1.890 -1.0030 -2.0997 -0.9698
  682MOL0     H89960   8.641   7.636   1.905 -1.2975  0.5073  1.8301
  682MOL0     H89961   8.452   7.538   2.303  2.9338 -1.4377  1.9606
  682MOL0     H89962   8.537   7.387   2.268 -0.1026  1.5455  1.5588
  682MOL0     H89963   8.323   7.320   2.285  1.8700  0.0251 -0.2231
  682MOL0     H89964   8.348   7.316   2.117 -0.2083  0.6178 -1.0286
  682MOL0     H89965   8.252   7.553   2.101  1.2558 -0.8414  0.2740
  682MOL0     H89966   8.218   7.543   2.275  1.0514  0.4779  0.5270
  682MOL0     H89967   8.111   7.361   2.048 -2.4590  0.9679 -1.4864
  682MOL0     H89968   8.033   7.364   2.205 -0.8430  1.7236  1.2961
  682MOL0     H89969   8.053   7.602   2.031  1.7940  0.2310  0.9119
  682MOL0     H89970   7.958   7.588   2.180 -0.4696 -0.6563  0.4822
  682MOL0     H89971   7.828   7.392   2.044  0.7370  0.1900  0.1645
  682MOL0     H89972   7.954   7.418   1.913  2.5699  2.3826  1.0782
  682MOL0     H89973   7.893   7.640   1.869  0.0633 -0.7723 -1.2280
  682MOL0     H89974   7.759   7.537   1.830 -0.4619  2.4926 -0.5871
  682MOL0     H89975   7.768   7.743   2.024  2.7114 -0.9327 -1.3881
  682MOL0     H89976   7.710   7.586   2.097 -0.2169 -3.5585 -1.7043
  682MOL0     H89977   7.621   7.786   1.761 -0.3168  0.9535  0.7698
  682MOL0     H89978   7.382   7.868   1.669 -0.7049 -0.6923 -0.7504
  682MOL0     H89979   7.282   7.914   1.816 -1.4126 -3.0656  3.0883
  682MOL0     H89980   7.152   7.707   1.765 -0.4542  2.1486  1.6932
  682MOL0     H89981   7.248   7.678   1.629  2.1207  0.8501  0.5639
  682MOL0     H89982   7.077   7.932   1.691  0.2648 -0.1738  1.4378
  682MOL0     H89983   7.136   7.914   1.535  0.3902  2.5232  2.4038
  682MOL0     H89984   6.997   7.675   1.533 -1.6206 -0.2721  1.5024
  682MOL0     H89985   6.913   7.812   1.511 -0.2336 -0.9019  0.0971
  682MOL0     H89986   6.703   7.599   1.762  1.8561  0.5535  1.7076
  682MOL0     H89987   6.465   7.693   1.806  2.1020 -1.8278  0.9942
  682MOL0     H89988   6.310   8.255   1.595 -0.9048 -0.2378 -2.3016
  682MOL0     H89989   6.108   8.382   1.570  2.5512 -0.7698 -0.6628
  682MOL0     H89990   5.748   8.301   1.848 -0.3458 -2.9547 -0.5116
  682MOL0     H89991   5.751   8.204   1.703  0.0813 -0.2674  1.1161
  682MOL0     H89992   5.567   8.349   1.724 -2.3257  0.2674 -2.6093
  682MOL0     H89993   5.648   8.395   1.574 -0.0650  0.2400  0.4761
  682MOL0     H89994   5.753   8.594   1.681 -0.5891 -0.0715 -1.1145
  682MOL0     H89995   5.652   8.557   1.827  1.0384 -1.5727  0.2724
  682MOL0     H89996   5.509   8.547   1.578 -0.7541  1.3517 -0.7433
  682MOL0     H89997   5.461   8.620   1.717 -0.4093 -3.4573 -0.0668
  682MOL0     H89998   5.592   8.825   1.661 -3.1078 -0.8055  0.6490
  682MOL0     H89999   5.476   8.791   1.541  1.1542 -1.0229 -3.2302
  682MOL0     H90000   5.701   8.655   1.442  0.3277 -0.7728  2.5708
  682MOL0     H90001   5.782   8.783   1.519  2.0673 -3.7490 -2.0945
  682MOL0     H90002   5.749   8.845   1.293 -0.5332  0.3820  0.6845
  682MOL0     H90003   5.571   8.847   1.311  0.5103 -1.1785 -1.4438
  682MOL0     H90004   5.762   9.013   1.495 -0.5657 -1.5093  0.4368
  682MOL0     H90005   5.591   9.038   1.475 -0.4015  0.5620  0.5780
  682MOL0     H90006   5.927   8.155   1.884  0.9036  2.2578  1.2969
  682MOL0     H90007   6.153   8.037   1.927  1.2546 -0.1538  1.3470
  682MOL0     H90008   6.616   8.084   1.770 -2.5620 -0.3791  2.9206
  682MOL0     H90009   6.849   7.995   1.736 -0.7097  0.6082  1.0189
  682MOL0     H90010   8.703   7.525   2.317  0.2255 -0.7661  0.3341
  682MOL0     H90011   8.923   7.570   2.302  2.7566 -3.5327 -1.0192
  682MOL0     H90012   9.305   7.951   2.177  2.0376 -0.3263  2.1492
  682MOL0     H90013   9.528   7.966   2.123  1.9930 -0.4236 -0.5991
  682MOL0     H90014   9.737   7.702   1.858 -0.9130 -0.0503 -1.1233
  682MOL0     H90015   9.759   7.593   1.984 -1.7804 -0.4698 -1.8277
  682MOL0     H90016   9.969   7.686   1.914  1.6537  0.9032 -0.1281
  682MOL0     H90017   9.910   7.853   1.945 -5.4361 -0.8324  0.2373
  682MOL0     H90018   9.913   7.658   2.182  1.2336 -0.5201  2.4277
  682MOL0     H90019   9.901   7.830   2.177  0.9117 -0.3627 -0.7017
  682MOL0     H90020  10.165   7.835   2.105 -0.5701  0.2484  0.9419
  682MOL0     H90021  10.114   7.781   2.273 -2.1415 -0.6682  0.7887
  682MOL0     H90022  10.268   7.433   2.156  1.6724  0.1046  1.5861
  682MOL0     H90023   9.550   7.567   1.977 -1.0154 -0.7472  0.2504
  682MOL0     H90024   9.297   7.540   2.043 -0.8612  0.8314 -3.4695
  683MOL0     O90025   0.298   5.852   9.811 -0.0678 -0.6147 -0.0139
  683MOL0     C90026   0.305   5.894   9.697  0.1491 -0.2799 -0.0081
  683MOL0     O90027   0.201   5.940   9.610 -0.0670  0.1325 -1.0908
  683MOL0     C90028   0.081   5.959   9.678 -0.3009 -1.2653 -0.3027
  683MOL0     C90029  -0.010   5.864   9.711  0.9834 -0.7908 -0.3537
  683MOL0     C90030  -0.138   5.896   9.753 -0.4318  0.2160  0.0586
  683MOL0     C90031  -0.174   6.028   9.771  0.1059  0.0367  0.3737
  683MOL0     O90032  -0.299   6.056   9.814  0.1242  0.4499 -0.0302
  683MOL0     C90033  -0.348   6.189   9.857 -0.5219  0.1344  0.1127
  683MOL0     C90034  -0.496   6.162   9.857 -0.5265  0.0523  0.2192
  683MOL0     C90035  -0.594   6.267   9.921  0.2826 -0.0782  0.2436
  683MOL0     C90036  -0.746   6.245   9.910  0.0735  0.9830 -0.3469
  683MOL0     C90037  -0.786   6.141  10.016 -0.0031 -0.1666 -0.5625
  683MOL0     C90038  -0.933   6.082   9.990 -1.0720  0.7674 -0.0802
  683MOL0     C90039  -0.988   5.988  10.103 -0.4033 -0.0659 -0.1911
  683MOL0     C90040  -1.094   5.904  10.051 -0.4611 -0.3528 -0.0710
  683MOL0     N90041  -1.167   5.844  10.158 -0.1975  0.5591 -0.1326
  683MOL0     C90042  -1.287   5.891  10.216 -0.0375 -0.4379 -0.0293
  683MOL0     C90043  -1.306   5.800  10.311  0.2118 -0.0309 -0.0084
  683MOL0     C90044  -1.443   5.788  10.380  0.4849  0.8735  0.1891
  683MOL0     C90045  -1.554   5.734  10.286 -0.1916 -0.3110 -0.2436
  683MOL0     C90046  -1.684   5.716  10.367  0.4375 -0.1243  0.8398
  683MOL0     C90047  -1.810   5.698  10.283 -0.2397  0.1302 -0.7315
  683MOL0     O90048  -1.909   5.656  10.375 -0.2375 -0.5343 -0.7605
  683MOL0     C90049  -2.038   5.642  10.334 -0.8092 -0.4474 -0.4300
  683MOL0     C90050  -2.076   5.655  10.206 -0.3257  0.2309  0.2240
  683MOL0     C90051  -2.213   5.635  10.180  0.1748  0.1074  0.2528
  683MOL0     C90052  -2.313   5.611  10.276 -1.3209  0.0719  0.5864
  683MOL0     C90053  -2.456   5.584  10.231  0.2889 -0.2852  0.5285
  683MOL0     O90054  -2.520   5.482  10.300  0.1803 -0.4115 -0.5707
  683MOL0     C90055  -2.661   5.462  10.292 -1.0442 -0.4656 -0.4582
  683MOL0     C90056  -2.719   5.338  10.268  0.3461  0.3084 -0.7548
  683MOL0     C90057  -2.857   5.318  10.291 -0.4513  0.0157 -0.0855
  683MOL0     C90058  -2.945   5.427  10.327  0.3002 -0.3376 -0.0085
  683MOL0     O90059  -3.083   5.415  10.329  0.7858 -0.2821  0.3159
  683MOL0     C90060  -3.129   5.288  10.310  1.3470 -0.1844 -1.3797
  683MOL0     C90061  -3.281   5.274  10.336 -0.5302  0.2183 -0.3030
  683MOL0     C90062  -3.312   5.268  10.487 -0.2423 -0.5289  0.3795
  683MOL0     C90063  -3.462   5.274  10.518 -0.4361 -0.4890  0.1250
  683MOL0     C90064  -3.484   5.288  10.667  0.4687  0.7171 -0.3235
  683MOL0     C90065  -3.627   5.302  10.715 -0.0666 -0.4417 -0.3000
  683MOL0     C90066  -3.702   5.433  10.686 -1.0398 -0.1948 -0.2988
  683MOL0     C90067  -3.841   5.434  10.733  0.1597  0.7549 -0.0040
  683MOL0    Cl90068  -3.911   5.596  10.691 -0.1168 -0.0447 -0.0043
  683MOL0     C90069  -2.881   5.550  10.350  1.2985  0.0674  0.2908
  683MOL0     C90070  -2.746   5.570  10.326 -0.3945 -0.3711 -0.0138
  683MOL0     O90071  -2.507   5.651  10.140 -0.1786  0.3991  0.0385
  683MOL0     C90072  -2.267   5.593  10.410 -0.0186 -0.2656  0.0784
  683MOL0     C90073  -2.132   5.611  10.435 -0.4555 -0.5081  0.4200
  683MOL0     N90074  -1.208   5.701  10.304  0.0139 -0.2188  0.6181
  683MOL0     N90075  -1.130   5.727  10.205 -0.0869 -0.0098  0.6175
  683MOL0     C90076  -0.073   6.126   9.762 -0.2103 -0.0070  0.3324
  683MOL0     C90077   0.055   6.093   9.707  0.0793  0.2341 -0.8411
  683MOL0     C90078   0.435   5.877   9.633 -1.1610  0.3293 -0.0406
  683MOL0     C90079   0.546   5.856   9.717  0.0502 -0.5244 -0.6880
  683MOL0     C90080   0.677   5.838   9.663  0.4091 -0.4810  0.6540
  683MOL0     C90081   0.688   5.820   9.522  0.3104  0.5248 -1.1606
  683MOL0     O90082   0.802   5.781   9.460  0.0144 -0.8166  0.4468
  683MOL0     C90083   0.926   5.737   9.529  0.6391 -0.1347 -0.1670
  683MOL0     C90084   1.040   5.744   9.427  0.2666 -0.1964 -0.1922
  683MOL0     C90085   1.167   5.671   9.478 -0.7274  1.3329  0.5455
  683MOL0     C90086   1.279   5.641   9.368  0.6548  0.3503  0.3046
  683MOL0     C90087   1.313   5.758   9.292 -2.0692  0.5540 -0.1583
  683MOL0     C90088   1.342   5.849   9.229  0.2342 -0.1068  0.1372
  683MOL0     C90089   0.576   5.845   9.434  1.1705  0.8370 -0.1975
  683MOL0     C90090   0.455   5.877   9.494  0.2971 -0.1459  1.4156
  683MOL0     H90091   0.014   5.760   9.690 -0.4372 -1.4621  1.1597
  683MOL0     H90092  -0.211   5.818   9.772 -2.5297  2.5133  2.1907
  683MOL0     H90093  -0.330   6.273   9.790  0.9746  0.8365  1.3470
  683MOL0     H90094  -0.314   6.214   9.957 -1.1087 -0.1270  0.3847
  683MOL0     H90095  -0.517   6.069   9.909 -1.3426  1.8875  3.4454
  683MOL0     H90096  -0.517   6.149   9.750  1.2098  2.3118 -0.4771
  683MOL0     H90097  -0.592   6.361   9.865 -0.2421 -1.0000 -1.3753
  683MOL0     H90098  -0.563   6.284  10.025  0.6420  0.3470  0.0698
  683MOL0     H90099  -0.800   6.338   9.928  1.1972  1.8279 -1.1971
  683MOL0     H90100  -0.764   6.208   9.809  2.0056 -0.5725 -0.1904
  683MOL0     H90101  -0.787   6.187  10.115 -0.4090 -0.4671 -0.4227
  683MOL0     H90102  -0.717   6.056  10.020 -1.8340 -1.7015  0.1028
  683MOL0     H90103  -0.927   6.026   9.896 -1.5362 -1.0952  0.9555
  683MOL0     H90104  -1.005   6.164   9.983 -2.4028 -0.2733  1.0013
  683MOL0     H90105  -0.907   5.925  10.141 -2.0191 -3.0818 -1.3693
  683MOL0     H90106  -1.015   6.062  10.179  3.7362  1.8196 -0.2717
  683MOL0     H90107  -1.044   5.826   9.994 -1.3501 -1.9968  1.3047
  683MOL0     H90108  -1.166   5.960   9.990  0.1318  2.4773  1.6208
  683MOL0     H90109  -1.349   5.978  10.195  0.7233  0.5592  1.6654
  683MOL0     H90110  -1.487   5.884  10.410  1.1569  2.0089 -2.1681
  683MOL0     H90111  -1.437   5.729  10.471  1.3804 -0.2669 -0.5847
  683MOL0     H90112  -1.527   5.633  10.254  1.7073 -0.1319  0.6691
  683MOL0     H90113  -1.561   5.808  10.205  1.1037  0.5559  0.3986
  683MOL0     H90114  -1.671   5.624  10.425  0.6299  1.8474  4.1683
  683MOL0     H90115  -1.703   5.800  10.435 -2.4718  0.1916 -0.2484
  683MOL0     H90116  -1.788   5.621  10.209  2.0394 -0.1102  0.1110
  683MOL0     H90117  -1.820   5.795  10.235 -1.0672  0.7297  0.5949
  683MOL0     H90118  -2.020   5.670  10.114  0.8030 -1.0807  0.6644
  683MOL0     H90119  -2.248   5.625  10.078  0.4647  1.7001 -0.0232
  683MOL0     H90120  -2.673   5.250  10.225 -0.3799 -0.9242  0.8782
  683MOL0     H90121  -2.889   5.218  10.265  0.2681 -0.0976 -0.5409
  683MOL0     H90122  -3.080   5.219  10.380 -0.7833 -0.7587 -0.3613
  683MOL0     H90123  -3.110   5.244  10.212 -0.0346  0.2141 -1.8514
  683MOL0     H90124  -3.326   5.185  10.291 -0.3318 -0.4186  0.7163
  683MOL0     H90125  -3.316   5.366  10.289  1.5543  1.3353  0.2370
  683MOL0     H90126  -3.267   5.358  10.531 -1.1894  1.6475 -2.6822
  683MOL0     H90127  -3.282   5.176  10.537 -3.7857 -1.4886  0.9881
  683MOL0     H90128  -3.506   5.357  10.462 -1.1669  0.0694  1.4893
  683MOL0     H90129  -3.516   5.188  10.477 -0.1732 -0.9275  0.6779
  683MOL0     H90130  -3.442   5.376  10.716 -2.4170  1.1868  1.5578
  683MOL0     H90131  -3.442   5.198  10.712  0.4632  0.8627 -0.0208
  683MOL0     H90132  -3.633   5.285  10.823 -3.7821  0.2137 -0.2940
  683MOL0     H90133  -3.694   5.223  10.680 -1.8407  0.7005  0.3933
  683MOL0     H90134  -3.652   5.517  10.734 -2.0609 -0.5830  1.5276
  683MOL0     H90135  -3.700   5.457  10.579  0.5855 -1.3234 -0.5481
  683MOL0     H90136  -3.838   5.421  10.842  1.7731 -2.8940 -0.3440
  683MOL0     H90137  -3.884   5.346  10.686  0.2853 -0.0636  1.3612
  683MOL0     H90138  -2.951   5.628  10.379  0.0452 -1.2744  1.0015
  683MOL0     H90139  -2.710   5.669  10.355  1.8704 -0.6832 -1.5306
  683MOL0     H90140  -2.342   5.584  10.488  0.6189  0.8236  0.8335
  683MOL0     H90141  -2.103   5.613  10.540 -1.0775  1.4571  0.5906
  683MOL0     H90142  -0.084   6.227   9.800 -1.9957 -0.1798  0.3389
  683MOL0     H90143   0.131   6.167   9.683 -0.7093  1.4972  0.3785
  683MOL0     H90144   0.537   5.856   9.826  0.8540  2.1261 -0.5565
  683MOL0     H90145   0.758   5.842   9.736 -0.5896 -0.6028  1.7903
  683MOL0     H90146   0.916   5.639   9.578 -1.2301  0.5581  0.9647
  683MOL0     H90147   0.940   5.804   9.614 -0.0331  1.2854 -1.1309
  683MOL0     H90148   1.004   5.690   9.339 -0.3199 -0.5665  0.2658
  683MOL0     H90149   1.065   5.847   9.399  1.9904 -0.4113  0.4691
  683MOL0     H90150   1.129   5.576   9.516  1.3325  0.5252  0.7363
  683MOL0     H90151   1.198   5.746   9.551 -0.9121 -0.0021  2.0585
  683MOL0     H90152   1.360   5.592   9.423  1.9561 -0.6561 -2.3103
  683MOL0     H90153   1.234   5.568   9.300 -0.5423  0.1630  1.2566
  683MOL0     H90154   1.371   5.941   9.182 -1.0408  0.0720 -0.3450
  683MOL0     H90155   0.584   5.837   9.326  1.0176 -1.6569 -0.0722
  683MOL0     H90156   0.375   5.895   9.423  0.6613 -0.2418  0.9728
  684MOL0     O90157   3.687  11.027   9.721 -1.0841  0.5076  0.3241
  684MOL0     C90158   3.663  10.920   9.660 -0.3423  0.8479  0.2078
  684MOL0     O90159   3.560  10.838   9.671  0.0014 -0.3541  0.0006
  684MOL0     C90160   3.471  10.867   9.772 -0.1004  0.5297 -0.6277
  684MOL0     C90161   3.349  10.806   9.745 -0.0037  0.5361 -0.5133
  684MOL0     C90162   3.251  10.801   9.841  0.4161 -0.2736  0.2099
  684MOL0     C90163   3.262  10.872   9.958 -0.2802 -0.4079  0.5134
  684MOL0     O90164   3.158  10.857  10.045 -0.1583 -0.4170  0.1332
  684MOL0     C90165   3.127  10.973  10.118  0.5530 -0.1454 -0.3942
  684MOL0     C90166   2.983  10.958  10.164  0.1092  0.9060  0.1024
  684MOL0     C90167   2.934  11.081  10.240  0.4915  0.2100  0.0434
  684MOL0     C90168   2.785  11.074  10.265 -0.1548 -0.6293  0.5255
  684MOL0     C90169   2.696  11.173  10.190  0.1742  0.1561 -0.2264
  684MOL0     C90170   2.732  11.319  10.220 -0.5316  0.5597  0.2182
  684MOL0     C90171   2.726  11.357  10.358 -0.1418  0.0412 -0.2106
  684MOL0     C90172   2.734  11.512  10.377 -1.3063  1.7305 -0.8645
  684MOL0     N90173   2.874  11.556  10.380  0.7086  0.4695 -0.6561
  684MOL0     C90174   2.969  11.528  10.468  0.6563  0.5608  0.4972
  684MOL0     C90175   3.079  11.590  10.416  0.1870 -0.3524 -0.0376
  684MOL0     C90176   3.199  11.587  10.504  0.3340 -0.2324 -0.2879
  684MOL0     C90177   3.313  11.579  10.404 -0.5262  0.2094  0.4983
  684MOL0     C90178   3.331  11.437  10.364 -0.5092  0.1035  0.5989
  684MOL0     C90179   3.422  11.419  10.236 -0.1798 -0.9174 -0.4047
  684MOL0     O90180   3.424  11.282  10.211  0.9382 -0.1332  0.2584
  684MOL0     C90181   3.536  11.238  10.154  0.4120 -0.3598 -0.2564
  684MOL0     C90182   3.580  11.274  10.020  0.2242 -0.5162  0.0128
  684MOL0     C90183   3.686  11.222   9.957 -0.8025  0.2252 -0.0726
  684MOL0     C90184   3.768  11.130  10.024 -0.5882  0.7337  0.0908
  684MOL0     C90185   3.898  11.077   9.955 -0.3605  0.9144 -0.5453
  684MOL0     O90186   3.965  10.971  10.016 -0.1481 -0.7608  0.1458
  684MOL0     C90187   4.089  10.936   9.968  0.9543 -1.0590  0.0439
  684MOL0     C90188   4.197  10.994  10.028  0.0256  0.6603  0.2651
  684MOL0     C90189   4.323  10.964   9.979 -0.3156 -0.6309 -1.4424
  684MOL0     C90190   4.352  10.892   9.862  0.0230  0.4514 -0.6098
  684MOL0     O90191   4.475  10.843   9.819  0.4598  0.8099  0.5611
  684MOL0     C90192   4.588  10.929   9.845 -0.5792 -0.5895  0.4947
  684MOL0     C90193   4.693  10.910   9.748 -0.2292 -0.6588  0.4451
  684MOL0     C90194   4.783  10.787   9.783  1.4788 -0.3113 -0.1356
  684MOL0     C90195   4.832  10.725   9.654  0.2712  0.0500 -0.4498
  684MOL0     C90196   4.713  10.655   9.582 -1.2012  0.1348  0.3701
  684MOL0     C90197   4.762  10.610   9.446 -0.2060  0.0043  0.6498
  684MOL0     C90198   4.644  10.549   9.379  0.1268 -0.1049 -0.0090
  684MOL0     C90199   4.681  10.496   9.236  0.1038  0.0780  0.7326
  684MOL0    Cl90200   4.709  10.625   9.123 -0.2540 -0.6009  0.3263
  684MOL0     C90201   4.240  10.839   9.803  0.3785 -0.4159  0.1652
  684MOL0     C90202   4.106  10.852   9.850  0.3632  0.9300 -0.1108
  684MOL0     O90203   3.933  11.137   9.857 -0.0669  0.3771  0.2124
  684MOL0     C90204   3.720  11.087  10.144  0.3035  0.7776  0.2676
  684MOL0     C90205   3.608  11.142  10.213  0.4807 -0.0092 -0.9704
  684MOL0     N90206   3.047  11.637  10.289 -0.7102 -0.3040 -0.6095
  684MOL0     N90207   2.928  11.619  10.274  0.9775  0.4923 -0.0496
  684MOL0     C90208   3.384  10.930   9.993 -0.1249 -0.7162  0.3526
  684MOL0     C90209   3.490  10.922   9.899 -0.2507  0.3146  0.4332
  684MOL0     C90210   3.761  10.887   9.547 -0.4615  0.7760 -1.0982
  684MOL0     C90211   3.744  10.763   9.468  0.4430  0.2830  0.5246
  684MOL0     C90212   3.828  10.744   9.361  0.1542  0.0690  0.4045
  684MOL0     C90213   3.926  10.834   9.324  1.2081  0.0851 -0.2079
  684MOL0     O90214   4.003  10.786   9.222  0.2625 -0.5304  0.2607
  684MOL0     C90215   4.135  10.813   9.235  0.4923 -0.1196 -0.0616
  684MOL0     C90216   4.203  10.775   9.094  0.9659 -0.0924  0.6453
  684MOL0     C90217   4.357  10.745   9.117  0.1509  0.1628  0.0485
  684MOL0     C90218   4.431  10.871   9.160 -1.8013 -0.1949  1.0782
  684MOL0     C90219   4.439  10.899   9.306  0.5727 -0.2397  0.1829
  684MOL0     C90220   4.435  10.916   9.430  0.0274 -0.7105 -0.2038
  684MOL0     C90221   3.952  10.947   9.410  0.6821 -0.0646  0.2277
  684MOL0     C90222   3.869  10.972   9.514 -0.7597 -0.2032 -0.0304
  684MOL0     H90223   3.323  10.757   9.651 -1.4488  2.9805 -1.4919
  684MOL0     H90224   3.161  10.745   9.815  0.6396 -0.9673  0.8980
  684MOL0     H90225   3.134  11.060  10.051  0.6428  0.1062 -0.0586
  684MOL0     H90226   3.183  10.992  10.209 -1.5136  3.3245  0.3291
  684MOL0     H90227   2.973  10.866  10.222 -1.3616  1.9617  1.6578
  684MOL0     H90228   2.923  10.948  10.073 -0.7514  2.0421  0.5143
  684MOL0     H90229   2.968  11.170  10.186  1.1850  1.3144  2.1835
  684MOL0     H90230   2.976  11.079  10.341 -1.2312 -0.3607  0.7806
  684MOL0     H90231   2.757  10.973  10.236 -1.2328  0.0975 -1.0947
  684MOL0     H90232   2.768  11.091  10.371 -0.8935  2.7601 -0.0362
  684MOL0     H90233   2.591  11.150  10.209  0.4243  1.3943  3.3174
  684MOL0     H90234   2.708  11.159  10.082 -0.6740 -2.0473 -0.0929
  684MOL0     H90235   2.668  11.376  10.152 -1.6425 -1.7432 -0.7463
  684MOL0     H90236   2.838  11.338  10.196  0.4942  0.7045  4.1296
  684MOL0     H90237   2.628  11.320  10.390 -0.9509  0.0091 -2.5432
  684MOL0     H90238   2.804  11.307  10.415 -0.1649 -0.8277 -0.9183
  684MOL0     H90239   2.689  11.538  10.473 -3.1460 -3.4520 -0.0384
  684MOL0     H90240   2.679  11.570  10.302 -1.8078 -1.0832 -2.8272
  684MOL0     H90241   2.950  11.469  10.558 -1.9685 -1.4636 -1.2595
  684MOL0     H90242   3.193  11.497  10.565 -0.3323 -1.1564 -1.6842
  684MOL0     H90243   3.190  11.678  10.564 -0.3376 -1.6468  1.8849
  684MOL0     H90244   3.412  11.614  10.435 -0.9202  0.4014  1.5927
  684MOL0     H90245   3.291  11.645  10.320  0.4853 -1.3346 -1.0643
  684MOL0     H90246   3.356  11.368  10.445 -1.4298 -0.0141  0.7837
  684MOL0     H90247   3.230  11.402  10.344 -0.9232  0.9481  1.1379
  684MOL0     H90248   3.524  11.452  10.257 -0.8885  1.7664 -0.8634
  684MOL0     H90249   3.383  11.469  10.147  0.2301 -2.8965 -1.7776
  684MOL0     H90250   3.521  11.338   9.955  1.3912 -2.7783 -3.6143
  684MOL0     H90251   3.708  11.249   9.854 -1.5436 -3.0854 -1.2195
  684MOL0     H90252   4.195  11.053  10.119  1.3651 -1.3049  1.6744
  684MOL0     H90253   4.408  11.009  10.029  0.4840 -2.1892 -1.3379
  684MOL0     H90254   4.618  10.905   9.947 -1.4686 -1.9103  0.4728
  684MOL0     H90255   4.565  11.036   9.841 -0.4429 -0.6045 -1.2713
  684MOL0     H90256   4.751  11.003   9.743  0.6477 -1.2557 -2.7529
  684MOL0     H90257   4.650  10.908   9.647 -0.1840  0.1419  0.4026
  684MOL0     H90258   4.721  10.709   9.827 -1.6516  0.2236 -3.1481
  684MOL0     H90259   4.860  10.827   9.849  0.8059  2.4017 -0.8489
  684MOL0     H90260   4.882  10.793   9.585  0.8478 -1.8791 -2.0050
  684MOL0     H90261   4.910  10.661   9.695  2.1387  1.9297 -0.8674
  684MOL0     H90262   4.625  10.717   9.560  0.0331  1.6555 -0.5158
  684MOL0     H90263   4.685  10.567   9.640  1.1534  0.1943  1.6928
  684MOL0     H90264   4.850  10.544   9.448 -0.3698 -0.3161 -0.9519
  684MOL0     H90265   4.782  10.699   9.386  0.9586 -1.9941 -2.1898
  684MOL0     H90266   4.609  10.464   9.438 -0.9214 -1.8917 -2.9893
  684MOL0     H90267   4.562  10.620   9.369  0.0480 -0.3796 -1.5470
  684MOL0     H90268   4.586  10.450   9.207 -0.9791  1.8309  1.3216
  684MOL0     H90269   4.765  10.427   9.228 -0.1827 -0.0233 -2.2942
  684MOL0     H90270   4.257  10.777   9.715  0.1923  1.5261 -1.2858
  684MOL0     H90271   4.029  10.786   9.813  1.1686 -0.6088  0.8033
  684MOL0     H90272   3.768  11.002  10.192  1.6812  0.1925 -1.9699
  684MOL0     H90273   3.570  11.099  10.305 -0.9894 -0.0495 -1.5617
  684MOL0     H90274   3.413  10.970  10.090  3.9636 -2.5283  0.0913
  684MOL0     H90275   3.585  10.965   9.931 -0.4174  1.8991 -1.0704
  684MOL0     H90276   3.663  10.692   9.480  2.6395 -2.9847 -2.2283
  684MOL0     H90277   3.827  10.649   9.309  1.9976 -0.4098  1.1850
  684MOL0     H90278   4.173  10.761   9.323 -0.3732 -0.8728 -0.1267
  684MOL0     H90279   4.156  10.918   9.260 -3.0720  1.4657 -2.7333
  684MOL0     H90280   4.159  10.688   9.043 -0.7241  0.6631  0.7553
  684MOL0     H90281   4.194  10.850   9.016 -1.3905 -2.0482 -1.1274
  684MOL0     H90282   4.402  10.696   9.031 -0.9876 -1.7394  0.4792
  684MOL0     H90283   4.371  10.669   9.195  0.9382 -1.3864 -1.5244
  684MOL0     H90284   4.538  10.864   9.139 -1.1056  0.3366  4.0372
  684MOL0     H90285   4.408  10.965   9.108 -0.0906  0.8455  2.1009
  684MOL0     H90286   4.450  10.948   9.531  0.6532 -1.3211 -0.0919
  684MOL0     H90287   4.041  11.007   9.394  0.4354  0.0862 -0.6188
  684MOL0     H90288   3.884  11.054   9.583 -0.2513  1.4930 -2.0664
  685MOL0     O90289   6.784   1.247   2.205 -0.0227 -0.2482  1.0346
  685MOL0     C90290   6.821   1.125   2.194  0.6909  0.4531  0.2238
  685MOL0     O90291   6.733   1.022   2.171  0.2865 -0.1610 -0.5704
  685MOL0     C90292   6.597   1.043   2.171 -0.0778  0.4452 -0.3508
  685MOL0     C90293   6.532   0.970   2.072  0.1332 -0.6368 -0.1692
  685MOL0     C90294   6.398   0.989   2.039 -0.2945 -0.5752 -0.2099
  685MOL0     C90295   6.324   1.063   2.128 -0.1881  0.9580  0.8082
  685MOL0     O90296   6.183   1.073   2.111 -0.9399  0.1619  0.1257
  685MOL0     C90297   6.104   1.019   2.215 -0.1456  0.3900 -0.2384
  685MOL0     C90298   6.063   0.878   2.194  0.0585 -0.1936 -0.2062
  685MOL0     C90299   5.938   0.845   2.277  0.0783 -0.0068 -0.0311
  685MOL0     C90300   5.875   0.715   2.244  0.3921  0.0343 -0.0268
  685MOL0     C90301   5.738   0.699   2.302  1.0607 -0.0819  0.5076
  685MOL0     C90302   5.692   0.548   2.276 -0.3630 -0.3913 -0.0474
  685MOL0     C90303   5.546   0.536   2.312 -0.3417  0.7889 -0.9921
  685MOL0     C90304   5.467   0.431   2.230  0.4943  0.6674  1.0273
  685MOL0     N90305   5.356   0.369   2.306  0.0314 -0.3873  0.0202
  685MOL0     C90306   5.229   0.440   2.327 -0.3651  0.2133  0.6667
  685MOL0     C90307   5.168   0.356   2.421 -0.1543 -0.1793  0.7897
  685MOL0     C90308   5.043   0.384   2.495 -0.3656  0.1699  0.7854
  685MOL0     C90309   4.918   0.319   2.442  0.9164  0.3609 -0.0064
  685MOL0     C90310   4.790   0.370   2.519  0.2242 -0.0417  0.0666
  685MOL0     C90311   4.664   0.327   2.438  0.0238  0.3803  1.0068
  685MOL0     O90312   4.550   0.371   2.511  0.3640 -0.7328 -0.3982
  685MOL0     C90313   4.428   0.346   2.467  0.7233  0.0796  0.2061
  685MOL0     C90314   4.334   0.415   2.528  0.1036 -0.5483 -0.1232
  685MOL0     C90315   4.195   0.408   2.496  0.1060 -0.0554  1.2288
  685MOL0     C90316   4.157   0.321   2.385  0.8819 -1.1426  0.2962
  685MOL0     C90317   4.011   0.325   2.339 -0.0057  0.5481  0.1208
  685MOL0     O90318   3.984   0.268   2.214 -0.0824  0.2697 -0.9465
  685MOL0     C90319   3.849   0.228   2.204 -0.1582  0.2872 -0.0047
  685MOL0     C90320   3.809   0.096   2.225  0.9941 -0.3715  0.5074
  685MOL0     C90321   3.684   0.058   2.185 -0.1856  0.0112 -0.8885
  685MOL0     C90322   3.587   0.150   2.149  0.0506 -0.1680 -0.0050
  685MOL0     O90323   3.460   0.116   2.116 -0.0267  0.2579 -0.7616
  685MOL0     C90324   3.419  -0.012   2.050 -0.6214 -1.2583 -0.1778
  685MOL0     C90325   3.267  -0.025   2.051 -0.3058  0.2032 -0.2757
  685MOL0     C90326   3.227  -0.147   1.972 -0.3646  0.5795 -0.4457
  685MOL0     C90327   3.077  -0.172   1.957  0.4257  0.1979  0.0252
  685MOL0     C90328   3.037  -0.284   1.874  1.5598  0.2664  0.8970
  685MOL0     C90329   3.063  -0.257   1.719 -0.1665  0.0880  0.0274
  685MOL0     C90330   3.005  -0.360   1.643 -0.1691  0.6798 -0.0363
  685MOL0     C90331   3.046  -0.358   1.498  0.0778 -0.1410  0.6275
  685MOL0    Cl90332   3.230  -0.366   1.475 -0.4439 -0.0791 -0.5000
  685MOL0     C90333   3.618   0.286   2.147 -1.1839 -0.3275 -0.2502
  685MOL0     C90334   3.753   0.322   2.168 -0.0515  0.2837  0.2150
  685MOL0     O90335   3.928   0.376   2.417 -0.1611 -0.3334 -0.7594
  685MOL0     C90336   4.263   0.238   2.328 -0.1595  0.2536 -0.0734
  685MOL0     C90337   4.397   0.257   2.370 -0.6357 -0.9145  0.4782
  685MOL0     N90338   5.249   0.242   2.440  0.6302  1.0191 -0.3820
  685MOL0     N90339   5.359   0.253   2.376  0.7340  0.4223  0.3748
  685MOL0     C90340   6.382   1.124   2.243 -0.6437 -0.0550 -0.2788
  685MOL0     C90341   6.517   1.106   2.268 -0.2615  0.7164 -0.3568
  685MOL0     C90342   6.963   1.099   2.219 -0.2492  0.7672  0.1654
  685MOL0     C90343   7.057   1.196   2.238  0.2738 -0.3966 -0.1818
  685MOL0     C90344   7.195   1.173   2.271  0.2433  0.1193 -0.2046
  685MOL0     C90345   7.245   1.041   2.266 -0.3334 -1.1401  0.0358
  685MOL0     O90346   7.378   1.010   2.273 -0.0143 -0.1867 -0.1524
  685MOL0     C90347   7.474   1.107   2.219  0.5156 -0.7562  0.0622
  685MOL0     C90348   7.614   1.048   2.191  0.1449  0.3997 -0.7177
  685MOL0     C90349   7.714   1.146   2.165 -0.2952 -1.0091  0.6222
  685MOL0     C90350   7.847   1.068   2.127  0.8795 -0.1277 -0.7423
  685MOL0     C90351   7.949   1.172   2.092  0.5530 -0.1804 -0.7319
  685MOL0     C90352   8.025   1.257   2.059 -0.9668  0.7689 -0.6770
  685MOL0     C90353   7.152   0.938   2.241  0.3082  0.6668  0.0252
  685MOL0     C90354   7.014   0.963   2.225 -0.3082 -0.8876 -0.4829
  685MOL0     H90355   6.601   0.923   2.003 -1.2730 -0.2798 -1.9048
  685MOL0     H90356   6.344   0.951   1.953 -1.0123 -1.7146  0.7032
  685MOL0     H90357   6.010   1.075   2.208 -0.5717 -0.1404  0.9811
  685MOL0     H90358   6.144   1.039   2.315 -0.3556  0.6356 -0.2046
  685MOL0     H90359   6.150   0.821   2.228  1.0084  0.5390 -1.3482
  685MOL0     H90360   6.035   0.865   2.089 -1.7722  2.7903 -0.2084
  685MOL0     H90361   5.863   0.918   2.247  0.7818  0.7324  0.0004
  685MOL0     H90362   5.945   0.849   2.386 -2.3469 -1.1757  0.2651
  685MOL0     H90363   5.860   0.708   2.135 -3.9682  0.2256  0.3985
  685MOL0     H90364   5.941   0.635   2.280 -1.9668 -1.4213  1.2773
  685MOL0     H90365   5.679   0.772   2.245  1.8654  0.2013  0.0227
  685MOL0     H90366   5.727   0.719   2.409  0.7128 -0.8948  0.6364
  685MOL0     H90367   5.761   0.492   2.341  1.9514  4.0691  1.8189
  685MOL0     H90368   5.710   0.529   2.170  2.5681 -0.0424  0.2843
  685MOL0     H90369   5.537   0.507   2.417  0.0041  1.4617 -0.7732
  685MOL0     H90370   5.493   0.631   2.305  0.4673  1.3012 -0.4268
  685MOL0     H90371   5.532   0.350   2.193 -0.0444 -0.0803  1.6790
  685MOL0     H90372   5.427   0.488   2.145  0.1798 -1.9624 -0.7186
  685MOL0     H90373   5.199   0.535   2.284  1.1743 -0.2368 -1.5597
  685MOL0     H90374   5.030   0.493   2.496  0.8674  0.4410 -2.5199
  685MOL0     H90375   5.053   0.356   2.601  3.0069 -2.6241 -0.0841
  685MOL0     H90376   4.925   0.210   2.444  1.7381  0.4040 -0.2524
  685MOL0     H90377   4.914   0.341   2.335  0.4023 -1.7611 -0.4538
  685MOL0     H90378   4.788   0.316   2.615  0.4024 -0.7516 -0.3208
  685MOL0     H90379   4.799   0.478   2.534 -0.5663  0.0578 -0.1322
  685MOL0     H90380   4.665   0.219   2.422 -4.9413  0.2532  0.0344
  685MOL0     H90381   4.678   0.368   2.338  1.8149  2.8026  2.1294
  685MOL0     H90382   4.361   0.487   2.605 -0.7140 -0.8458  0.4597
  685MOL0     H90383   4.119   0.462   2.551 -1.2350 -1.9644  1.3207
  685MOL0     H90384   3.886   0.023   2.249  0.0596 -2.2219 -1.8001
  685MOL0     H90385   3.657  -0.045   2.205 -1.3453  0.3125 -0.8520
  685MOL0     H90386   3.449  -0.098   2.111  1.0589  0.1091  1.0272
  685MOL0     H90387   3.465  -0.014   1.951  1.1647  0.4739  0.5521
  685MOL0     H90388   3.225   0.066   2.006  1.0459  1.9705  1.8140
  685MOL0     H90389   3.224  -0.032   2.151 -2.3327 -1.4560 -1.1996
  685MOL0     H90390   3.272  -0.233   2.022  0.8631  1.2074 -0.4329
  685MOL0     H90391   3.266  -0.131   1.872 -1.1139  0.4038 -0.7729
  685MOL0     H90392   3.037  -0.192   2.057 -0.0137  0.6212 -0.0653
  685MOL0     H90393   3.038  -0.086   1.901  0.6395  0.8290  0.8201
  685MOL0     H90394   2.929  -0.298   1.883  1.4753 -0.8027 -1.0839
  685MOL0     H90395   3.081  -0.379   1.907 -1.4895 -1.8728 -0.7564
  685MOL0     H90396   3.172  -0.248   1.707 -0.1685 -0.0476 -0.0996
  685MOL0     H90397   3.018  -0.162   1.689  0.7145  0.9685  1.3825
  685MOL0     H90398   3.040  -0.453   1.690  0.0865  1.2509  0.9202
  685MOL0     H90399   2.895  -0.357   1.638 -0.8240 -6.6940 -1.3043
  685MOL0     H90400   3.003  -0.280   1.436 -1.3133 -2.9655 -2.2480
  685MOL0     H90401   3.018  -0.458   1.464  1.7901 -0.7486  0.9094
  685MOL0     H90402   3.539   0.355   2.118 -0.1123  3.3573  4.4395
  685MOL0     H90403   3.782   0.421   2.133  1.2149  0.5312  1.8319
  685MOL0     H90404   4.234   0.160   2.259  1.3074 -1.4965  1.2076
  685MOL0     H90405   4.469   0.208   2.307 -2.4228 -0.1207 -2.3675
  685MOL0     H90406   6.319   1.180   2.310  0.4218 -1.3418  1.9090
  685MOL0     H90407   6.568   1.145   2.355 -1.1961 -0.9860  1.0001
  685MOL0     H90408   7.023   1.299   2.234 -1.2348 -0.8992 -1.1689
  685MOL0     H90409   7.265   1.255   2.286 -0.7109  0.8892  0.1788
  685MOL0     H90410   7.471   1.195   2.283  0.6290 -1.3359  0.8796
  685MOL0     H90411   7.428   1.140   2.125 -0.2449  0.1598  0.7375
  685MOL0     H90412   7.638   0.995   2.283 -0.9759  1.6016  0.2948
  685MOL0     H90413   7.613   0.993   2.096  0.6722  2.2994 -1.8824
  685MOL0     H90414   7.731   1.204   2.256  0.1259  0.7901 -0.5527
  685MOL0     H90415   7.679   1.219   2.091 -0.7789 -1.6066  0.2526
  685MOL0     H90416   7.880   1.013   2.216  2.4142 -0.0447 -1.2361
  685MOL0     H90417   7.838   1.017   2.031 -0.7559  1.0028 -1.2270
  685MOL0     H90418   8.091   1.331   2.018  0.8033 -1.2320 -1.6514
  685MOL0     H90419   7.191   0.837   2.244  1.1677  1.0168  1.4418
  685MOL0     H90420   6.942   0.885   2.204  0.6776 -1.9961  0.1152
  686MOL0     O90421   3.998   6.175  11.192 -0.3861  0.5632 -0.5354
  686MOL0     C90422   4.082   6.109  11.146 -0.5159 -0.3751  0.3360
  686MOL0     O90423   4.062   5.989  11.091  1.1524 -0.7431 -0.3089
  686MOL0     C90424   3.939   5.941  11.060  0.2682  0.5904  0.9215
  686MOL0     C90425   3.889   5.824  11.115  0.8818  1.0749  0.1882
  686MOL0     C90426   3.761   5.787  11.108 -0.0415  0.4260 -0.4685
  686MOL0     C90427   3.663   5.852  11.037  0.4114 -1.0887  0.2908
  686MOL0     O90428   3.526   5.824  11.048 -0.2947 -0.4315  0.5056
  686MOL0     C90429   3.482   5.704  11.128 -0.4896  0.4464  0.3957
  686MOL0     C90430   3.325   5.695  11.122 -0.0921 -0.9826  0.0342
  686MOL0     C90431   3.271   5.571  11.184 -0.1974  0.1550 -0.5840
  686MOL0     C90432   3.125   5.552  11.140 -0.6718  0.4147 -0.1386
  686MOL0     C90433   3.032   5.637  11.220  0.4289 -0.0273  0.4251
  686MOL0     C90434   2.897   5.654  11.146 -0.1555  0.1077  0.1534
  686MOL0     C90435   2.777   5.712  11.226 -0.2732  0.2786  0.2919
  686MOL0     C90436   2.720   5.625  11.338  0.9403 -0.1977  0.4137
  686MOL0     N90437   2.689   5.489  11.290  0.4114  0.5198 -0.1321
  686MOL0     C90438   2.566   5.455  11.229 -0.0990  0.0732 -0.1141
  686MOL0     C90439   2.557   5.318  11.222  0.0504  0.1632  0.3753
  686MOL0     C90440   2.440   5.250  11.149 -0.2293 -0.0747 -0.5726
  686MOL0     C90441   2.397   5.124  11.220  0.0505 -0.1183 -0.7887
  686MOL0     C90442   2.316   5.009  11.152  0.7694 -0.2969  0.6116
  686MOL0     C90443   2.173   5.042  11.105 -0.2518 -0.0323 -0.2307
  686MOL0     O90444   2.121   4.927  11.039 -0.5666 -1.0436 -0.1209
  686MOL0     C90445   1.988   4.918  11.031 -0.8343  0.1638  0.2497
  686MOL0     C90446   1.901   5.023  11.001 -0.9542  0.2201  0.4385
  686MOL0     C90447   1.763   4.996  11.006  0.1684  0.0320 -0.1635
  686MOL0     C90448   1.710   4.864  11.031 -0.0693 -0.2296 -0.3469
  686MOL0     C90449   1.565   4.858  11.044 -0.3759 -0.3283 -0.2187
  686MOL0     O90450   1.517   4.771  11.136 -0.4032 -0.2027 -0.2707
  686MOL0     C90451   1.379   4.761  11.145  0.0043  0.2948 -0.6498
  686MOL0     C90452   1.303   4.874  11.189  0.5906 -0.3106  0.8203
  686MOL0     C90453   1.159   4.873  11.176  0.5763 -0.1104 -0.8598
  686MOL0     C90454   1.094   4.763  11.121 -0.2466 -0.4464  0.4238
  686MOL0     O90455   0.956   4.745  11.099 -0.0752 -0.3606 -0.4243
  686MOL0     C90456   0.879   4.851  11.157 -0.8929  0.3279  0.0776
  686MOL0     C90457   0.734   4.802  11.141 -0.2388  0.7463  0.0056
  686MOL0     C90458   0.638   4.913  11.190 -0.1381 -0.3926 -0.1696
  686MOL0     C90459   0.494   4.903  11.128 -0.1700 -0.2798  0.4188
  686MOL0     C90460   0.387   4.975  11.188  0.7834  1.0639  1.0376
  686MOL0     C90461   0.252   4.906  11.162 -0.0277 -0.2947  1.1165
  686MOL0     C90462   0.211   4.801  11.263 -0.2346  0.0269 -0.5481
  686MOL0     C90463   0.157   4.874  11.392 -0.0434  0.3620 -0.2716
  686MOL0    Cl90464   0.078   5.031  11.370  0.1857 -0.0284 -0.0616
  686MOL0     C90465   1.173   4.655  11.082  0.4021 -0.3843 -0.6614
  686MOL0     C90466   1.312   4.656  11.094 -0.4709  1.3858 -0.3168
  686MOL0     O90467   1.497   4.935  10.975 -0.2122 -0.2861  0.0336
  686MOL0     C90468   1.809   4.766  11.066  0.6083 -0.3283 -0.5479
  686MOL0     C90469   1.942   4.790  11.067 -0.9637 -1.1073  0.7486
  686MOL0     N90470   2.678   5.275  11.273  0.6487  0.0945 -0.1709
  686MOL0     N90471   2.744   5.373  11.336  0.2923  0.3118  0.2993
  686MOL0     C90472   3.714   5.980  10.985  0.5459 -0.0181  0.5489
  686MOL0     C90473   3.852   6.014  10.986 -0.1145 -1.2495  0.2997
  686MOL0     C90474   4.222   6.140  11.174  0.5282 -0.2366 -0.2488
  686MOL0     C90475   4.314   6.043  11.211 -1.1516 -0.4284 -0.1091
  686MOL0     C90476   4.445   6.071  11.227 -0.6490 -1.3498  0.9227
  686MOL0     C90477   4.491   6.200  11.209 -0.6442 -0.3775  0.2388
  686MOL0     O90478   4.621   6.246  11.211  0.0485 -0.4179  1.0862
  686MOL0     C90479   4.710   6.164  11.130 -0.3131  0.8535  0.1798
  686MOL0     C90480   4.825   6.245  11.086 -0.4406  0.4960 -0.1155
  686MOL0     C90481   4.911   6.297  11.203  0.0593 -0.2382 -0.3396
  686MOL0     C90482   5.002   6.402  11.148  0.2606  0.4451 -0.1743
  686MOL0     C90483   5.100   6.438  11.253 -0.6371 -1.1936  0.2099
  686MOL0     C90484   5.168   6.471  11.338  0.0719 -0.7152 -0.0383
  686MOL0     C90485   4.396   6.301  11.193  0.2834  0.0909 -0.0962
  686MOL0     C90486   4.261   6.274  11.171 -0.3199  0.4602 -0.5292
  686MOL0     H90487   3.955   5.766  11.179 -0.4855 -0.9964 -0.1929
  686MOL0     H90488   3.744   5.699  11.169  1.4820 -0.1087 -0.7686
  686MOL0     H90489   3.529   5.730  11.223 -0.4127  2.9962 -0.2627
  686MOL0     H90490   3.535   5.617  11.087  0.8042  1.4089 -0.0586
  686MOL0     H90491   3.299   5.687  11.016  1.2884  1.8978 -0.6189
  686MOL0     H90492   3.271   5.781  11.162 -2.7046 -1.0723 -2.8729
  686MOL0     H90493   3.270   5.572  11.293  1.7425 -2.2858 -0.4547
  686MOL0     H90494   3.330   5.484  11.155  3.4933  1.4899  2.1831
  686MOL0     H90495   3.117   5.567  11.031  2.7612  0.1490 -0.5286
  686MOL0     H90496   3.107   5.445  11.152  2.8054 -0.1182  1.7290
  686MOL0     H90497   3.073   5.734  11.249  2.5463  0.5117 -3.6443
  686MOL0     H90498   3.016   5.582  11.313 -1.3087  1.0758  0.8204
  686MOL0     H90499   2.856   5.572  11.087 -2.8603  1.6808 -0.3734
  686MOL0     H90500   2.911   5.740  11.079  1.8287 -0.2618  0.0294
  686MOL0     H90501   2.792   5.812  11.268  0.5575  1.2322 -2.0634
  686MOL0     H90502   2.706   5.721  11.143  0.4754 -1.6992 -0.6278
  686MOL0     H90503   2.628   5.670  11.375  0.7348  0.5517 -0.9575
  686MOL0     H90504   2.783   5.613  11.427  0.2798 -1.1544  0.7699
  686MOL0     H90505   2.491   5.524  11.192 -2.1723  0.0090  3.5122
  686MOL0     H90506   2.479   5.218  11.052  1.2310  1.3703 -0.5059
  686MOL0     H90507   2.365   5.329  11.150 -0.0418  0.1006 -0.2297
  686MOL0     H90508   2.337   5.155  11.306  2.0645 -2.6617  1.7211
  686MOL0     H90509   2.492   5.088  11.260  0.4860  1.1054 -0.6914
  686MOL0     H90510   2.358   4.968  11.059 -0.6215  3.4938 -1.8974
  686MOL0     H90511   2.307   4.929  11.227 -0.3399  1.1843  2.1542
  686MOL0     H90512   2.164   5.118  11.027  2.0695 -0.8163 -1.3660
  686MOL0     H90513   2.106   5.062  11.189  1.1896  1.0354  0.7163
  686MOL0     H90514   1.943   5.116  10.965 -0.0425 -0.7693 -1.1965
  686MOL0     H90515   1.697   5.080  10.987 -1.2640 -1.4385 -2.1913
  686MOL0     H90516   1.349   4.967  11.221  1.8752 -1.1256  1.4504
  686MOL0     H90517   1.111   4.965  11.207  3.4813  0.9650  0.7338
  686MOL0     H90518   0.896   4.942  11.100  1.0146 -0.7168 -1.1061
  686MOL0     H90519   0.904   4.872  11.262 -1.1700 -2.0365  0.6820
  686MOL0     H90520   0.725   4.707  11.195  0.6622  1.4037  1.3680
  686MOL0     H90521   0.706   4.782  11.037 -0.8800  1.3356  0.0542
  686MOL0     H90522   0.671   5.016  11.171 -0.3455 -0.1072  0.9678
  686MOL0     H90523   0.646   4.886  11.295 -0.4642 -1.7141 -0.4712
  686MOL0     H90524   0.507   4.932  11.024 -2.2157 -0.5155  0.0416
  686MOL0     H90525   0.481   4.794  11.120  0.4020 -0.1905 -3.8914
  686MOL0     H90526   0.376   5.075  11.146 -3.0966  0.0200 -0.9083
  686MOL0     H90527   0.410   4.982  11.295 -0.1970 -1.1081  1.4543
  686MOL0     H90528   0.256   4.862  11.062 -2.9005  0.5466  0.5370
  686MOL0     H90529   0.178   4.984  11.142 -0.1382 -0.6363  0.1378
  686MOL0     H90530   0.140   4.726  11.228 -1.0266 -0.4694  1.9441
  686MOL0     H90531   0.297   4.740  11.292 -1.3967 -1.7696 -0.7380
  686MOL0     H90532   0.240   4.887  11.462 -0.3734  2.5058 -0.2277
  686MOL0     H90533   0.081   4.809  11.436 -0.7073 -0.2566 -2.2521
  686MOL0     H90534   1.126   4.561  11.055 -1.0656 -0.0710  0.6258
  686MOL0     H90535   1.366   4.566  11.065  0.9653  1.7990  0.9389
  686MOL0     H90536   1.782   4.666  11.099 -0.3956  0.3017  0.6143
  686MOL0     H90537   2.012   4.712  11.096 -0.5997  0.4452  4.6424
  686MOL0     H90538   3.658   6.054  10.929  2.0884 -0.0279 -1.1122
  686MOL0     H90539   3.880   6.108  10.941 -3.1168  0.8137  2.3806
  686MOL0     H90540   4.273   5.943  11.224 -2.0431 -0.0616 -0.0389
  686MOL0     H90541   4.497   5.978  11.243 -0.3381 -1.6031 -1.1975
  686MOL0     H90542   4.667   6.112  11.044  1.3497 -1.2288  0.5352
  686MOL0     H90543   4.758   6.086  11.189  2.2887  2.3924  0.2716
  686MOL0     H90544   4.871   6.169  11.022 -4.4029 -1.1146 -1.3545
  686MOL0     H90545   4.783   6.327  11.027 -2.5353  0.9737  1.8762
  686MOL0     H90546   4.965   6.214  11.249 -1.5115 -0.9027  0.3776
  686MOL0     H90547   4.841   6.335  11.277  1.4487  0.6582  0.5409
  686MOL0     H90548   5.064   6.367  11.065  1.0009 -1.7452  1.2048
  686MOL0     H90549   4.947   6.491  11.115 -0.6094  0.3394  0.9290
  686MOL0     H90550   5.234   6.516  11.409 -1.6042 -1.2265  1.9500
  686MOL0     H90551   4.436   6.401  11.181 -1.6980  1.0532  0.8870
  686MOL0     H90552   4.183   6.350  11.174  0.4109  1.1966  0.7262
  687MOL0     O90553   6.562  10.163   0.203 -0.0582  0.5715 -0.2815
  687MOL0     C90554   6.688  10.187   0.208 -0.2206 -0.4242  0.0034
  687MOL0     O90555   6.785  10.091   0.228 -0.0879  0.4951 -0.5271
  687MOL0     C90556   6.751   9.976   0.303  0.1136 -0.0163  0.9729
  687MOL0     C90557   6.776   9.857   0.241  0.1103 -0.6639 -0.1692
  687MOL0     C90558   6.705   9.740   0.289  0.4644  0.1968 -0.7329
  687MOL0     C90559   6.629   9.749   0.410 -0.1016 -0.4258  0.4176
  687MOL0     O90560   6.552   9.654   0.469 -0.7608  0.2601  0.0928
  687MOL0     C90561   6.489   9.566   0.372  0.7177 -0.4402 -0.2513
  687MOL0     C90562   6.353   9.498   0.416  0.6018  0.6255 -0.2837
  687MOL0     C90563   6.338   9.465   0.574 -0.1445  0.1192  0.3061
  687MOL0     C90564   6.289   9.586   0.664  0.0623  0.1577  0.6960
  687MOL0     C90565   6.338   9.582   0.807 -1.3835  0.3581  0.1169
  687MOL0     C90566   6.308   9.710   0.894  0.6545 -0.8622 -0.7717
  687MOL0     C90567   6.315   9.854   0.846 -0.0718 -0.4051 -0.7973
  687MOL0     C90568   6.261   9.957   0.952  0.1002  0.8523 -0.8666
  687MOL0     N90569   6.113   9.946   0.975 -0.1414 -0.2965 -0.4951
  687MOL0     C90570   6.057   9.902   1.094 -0.1539 -0.1007  0.5431
  687MOL0     C90571   5.926   9.949   1.077 -0.1124  0.3662 -0.1127
  687MOL0     C90572   5.814   9.942   1.180  0.1233  0.2897  0.6985
  687MOL0     C90573   5.851   9.848   1.301 -0.4626  0.6342 -0.6239
  687MOL0     C90574   5.745   9.844   1.415 -0.4738  1.1994 -0.5719
  687MOL0     C90575   5.612   9.787   1.386  0.3402  0.1453 -0.1801
  687MOL0     O90576   5.617   9.648   1.369  0.9107  0.5726 -0.3325
  687MOL0     C90577   5.685   9.564   1.453  0.4500 -0.3308 -0.4671
  687MOL0     C90578   5.668   9.584   1.588 -0.9177  0.3019  0.1973
  687MOL0     C90579   5.734   9.490   1.676  0.3469  1.0173  0.0129
  687MOL0     C90580   5.812   9.390   1.630  0.4477  0.3722 -0.0382
  687MOL0     C90581   5.875   9.290   1.721 -0.2110 -0.8922  0.3538
  687MOL0     O90582   5.882   9.158   1.678  0.2291 -0.0134  0.6601
  687MOL0     C90583   5.955   9.067   1.739  0.2363 -0.0456  0.0701
  687MOL0     C90584   6.081   9.079   1.797  0.2058  0.1656 -0.5517
  687MOL0     C90585   6.140   8.956   1.847 -0.1496 -0.7320 -0.6499
  687MOL0     C90586   6.082   8.834   1.830  0.5338 -0.0883  0.2051
  687MOL0     O90587   6.160   8.728   1.869 -0.7231  0.0250 -0.0109
  687MOL0     C90588   6.128   8.591   1.858  0.2368  0.0087 -0.4052
  687MOL0     C90589   6.183   8.501   1.975 -0.1897  0.1512  0.8725
  687MOL0     C90590   6.328   8.444   1.949  0.3110  0.0143  0.4892
  687MOL0     C90591   6.377   8.363   2.075 -0.2678  0.5424  0.4379
  687MOL0     C90592   6.521   8.310   2.057 -0.5388  0.9020  0.3479
  687MOL0     C90593   6.629   8.415   2.100  0.7099  0.3041 -0.3946
  687MOL0     C90594   6.770   8.381   2.055 -0.2784  0.1882 -0.3973
  687MOL0     C90595   6.867   8.482   2.115  0.5964 -0.5957  0.8040
  687MOL0    Cl90596   6.855   8.647   2.040  0.0888 -0.1091  0.0872
  687MOL0     C90597   5.953   8.824   1.780 -0.0294 -0.1040 -0.8181
  687MOL0     C90598   5.896   8.938   1.729  0.1895  0.1132 -0.7582
  687MOL0     O90599   5.917   9.329   1.832  0.2596 -0.0371  0.7780
  687MOL0     C90600   5.820   9.370   1.497  1.2312 -0.4410  0.4766
  687MOL0     C90601   5.768   9.459   1.409  0.2859  0.0648 -0.8164
  687MOL0     N90602   5.910  10.005   0.953  0.1326 -0.0492  0.2884
  687MOL0     N90603   6.021  10.007   0.893  0.8195  0.8904  0.0667
  687MOL0     C90604   6.628   9.865   0.486  0.0330 -0.5489  0.1544
  687MOL0     C90605   6.671   9.979   0.423  0.1371 -0.4805 -0.1041
  687MOL0     C90606   6.737  10.316   0.152  0.1124 -0.3403  0.4406
  687MOL0     C90607   6.866  10.339   0.098 -0.6558 -0.7162 -0.0314
  687MOL0     C90608   6.904  10.467   0.058  0.2091 -0.0332  0.6277
  687MOL0     C90609   6.820  10.579   0.071  0.0251  0.4423 -0.1576
  687MOL0     O90610   6.873  10.702   0.043 -0.3589  0.2753 -0.5722
  687MOL0     C90611   6.776  10.801   0.011 -0.4663  0.0702  0.1603
  687MOL0     C90612   6.847  10.933  -0.006  0.1321  0.8117 -0.8207
  687MOL0     C90613   6.932  10.942  -0.133 -0.6723 -0.2867  0.1895
  687MOL0     C90614   7.068  11.014  -0.115 -0.3888 -0.3600 -0.6149
  687MOL0     C90615   7.046  11.159  -0.085 -0.1741 -0.7212  0.5917
  687MOL0     C90616   7.007  11.268  -0.050  0.5703  0.7907 -0.4601
  687MOL0     C90617   6.691  10.558   0.126  0.5686  0.2329 -0.3518
  687MOL0     C90618   6.650  10.430   0.166  0.6364  0.8433  0.9902
  687MOL0     H90619   6.826   9.853   0.144  0.9989 -3.7324  0.3306
  687MOL0     H90620   6.691   9.644   0.239 -1.1732 -0.6423  1.1826
  687MOL0     H90621   6.555   9.488   0.332  1.8499  1.3530 -2.0433
  687MOL0     H90622   6.447   9.630   0.293 -2.7812 -4.2475 -1.8688
  687MOL0     H90623   6.334   9.409   0.356  0.0111 -0.3398  1.2804
  687MOL0     H90624   6.276   9.568   0.382 -0.7427 -1.3418 -1.5049
  687MOL0     H90625   6.421   9.420   0.629 -0.6910  0.5081  1.4834
  687MOL0     H90626   6.260   9.388   0.581  1.5502 -1.8555 -0.9911
  687MOL0     H90627   6.326   9.684   0.630  0.0902  0.6221  1.9887
  687MOL0     H90628   6.180   9.585   0.669  0.0420 -1.0383  0.2019
  687MOL0     H90629   6.445   9.563   0.798 -1.1864  1.6764 -0.5948
  687MOL0     H90630   6.305   9.491   0.857 -0.1670  0.4287  1.1124
  687MOL0     H90631   6.367   9.699   0.986  0.1904 -1.4593 -0.5366
  687MOL0     H90632   6.203   9.700   0.923  0.7268  0.4809  0.0450
  687MOL0     H90633   6.423   9.869   0.829 -0.0853  0.4961 -0.1570
  687MOL0     H90634   6.260   9.871   0.753 -3.3917 -0.8551  0.9304
  687MOL0     H90635   6.271  10.060   0.914 -0.5716  1.0404 -0.5454
  687MOL0     H90636   6.313   9.943   1.046 -1.0251 -0.6713 -0.4364
  687MOL0     H90637   6.110   9.870   1.183  0.1561  1.8436  1.1048
  687MOL0     H90638   5.721   9.911   1.133  1.4490 -1.7258 -0.7472
  687MOL0     H90639   5.794  10.042   1.220  0.9148  0.8344 -0.2252
  687MOL0     H90640   5.939   9.886   1.353 -1.7515  1.0292  1.4077
  687MOL0     H90641   5.872   9.745   1.271 -0.2672  0.5203 -0.0951
  687MOL0     H90642   5.782   9.794   1.506  0.8089  1.3349 -1.0052
  687MOL0     H90643   5.720   9.944   1.451 -3.8277  0.3151 -0.1040
  687MOL0     H90644   5.577   9.827   1.290 -2.4382  1.3200  1.2302
  687MOL0     H90645   5.535   9.828   1.452 -3.0162 -0.0597 -3.6406
  687MOL0     H90646   5.619   9.669   1.635 -1.1084 -0.8174  2.1352
  687MOL0     H90647   5.736   9.508   1.783 -0.1849 -0.9491  0.3968
  687MOL0     H90648   6.120   9.180   1.807  0.5092  0.2665 -2.4843
  687MOL0     H90649   6.238   8.963   1.891 -0.6682  0.8085  0.3321
  687MOL0     H90650   6.167   8.548   1.766 -1.4963 -1.4117 -0.5299
  687MOL0     H90651   6.021   8.567   1.860  0.2165 -0.5106 -3.5340
  687MOL0     H90652   6.109   8.421   1.986 -0.3369  0.4746  2.4951
  687MOL0     H90653   6.171   8.559   2.067 -0.1079  0.6568  0.5707
  687MOL0     H90654   6.386   8.536   1.938 -0.9418  1.5348  4.5716
  687MOL0     H90655   6.323   8.388   1.855  0.2193 -0.7309  0.9352
  687MOL0     H90656   6.368   8.425   2.165 -0.5782  1.2104 -0.0450
  687MOL0     H90657   6.312   8.277   2.088 -0.2303  0.4992  0.3339
  687MOL0     H90658   6.541   8.279   1.954  1.6092  1.6540  0.4718
  687MOL0     H90659   6.531   8.218   2.116  2.1866  1.2866  0.6469
  687MOL0     H90660   6.634   8.425   2.208  2.3617  0.8851 -0.5061
  687MOL0     H90661   6.599   8.512   2.061  1.4733  0.3810 -0.8107
  687MOL0     H90662   6.801   8.286   2.098  3.0317  1.7980  1.1123
  687MOL0     H90663   6.788   8.376   1.947 -1.1072 -2.2252 -0.4891
  687MOL0     H90664   6.971   8.452   2.099  0.5478  0.1325 -1.1534
  687MOL0     H90665   6.858   8.499   2.222  1.9184 -1.4862  1.0852
  687MOL0     H90666   5.897   8.731   1.779 -0.3937  0.0092  1.6825
  687MOL0     H90667   5.792   8.934   1.697 -0.3664 -0.8877  1.0301
  687MOL0     H90668   5.859   9.278   1.455 -0.9836  0.2300 -3.5721
  687MOL0     H90669   5.778   9.436   1.304 -1.2589  1.4802 -1.3252
  687MOL0     H90670   6.574   9.867   0.580  1.2157 -0.3655  0.8482
  687MOL0     H90671   6.663  10.081   0.461  2.5612 -0.0831 -0.4563
  687MOL0     H90672   6.926  10.250   0.081 -0.3322 -0.3795 -0.7267
  687MOL0     H90673   7.000  10.487   0.011 -0.3964 -0.1540 -0.6946
  687MOL0     H90674   6.702  10.826   0.088 -1.3238 -0.7481 -0.3836
  687MOL0     H90675   6.716  10.781  -0.079  3.5263 -2.5906 -2.2443
  687MOL0     H90676   6.770  11.010  -0.014 -1.7081 -0.9901 -1.3454
  687MOL0     H90677   6.904  10.953   0.085 -1.0430  2.7462 -0.4552
  687MOL0     H90678   6.881  11.004  -0.206 -1.6219 -0.1459  0.9607
  687MOL0     H90679   6.948  10.843  -0.179  2.6083  0.9694 -1.7844
  687MOL0     H90680   7.130  10.974  -0.034  1.4487  2.1374 -0.6774
  687MOL0     H90681   7.126  11.008  -0.207 -0.9247  3.2669 -1.3571
  687MOL0     H90682   6.961  11.357  -0.012  0.0306  1.1885 -1.9794
  687MOL0     H90683   6.631  10.646   0.144 -0.6539 -0.4246 -1.0851
  687MOL0     H90684   6.560  10.419   0.225  0.8392  2.0630  1.5825
  688MOL0     O90685   3.740  10.884   0.591 -0.2643 -0.3804 -0.1911
  688MOL0     C90686   3.799  10.984   0.624  0.0874  0.1828 -0.1871
  688MOL0     O90687   3.747  11.108   0.643 -0.1329 -0.4056  0.4344
  688MOL0     C90688   3.616  11.129   0.622  0.1276  0.2418 -0.5097
  688MOL0     C90689   3.563  11.180   0.505 -1.0772 -0.4824  0.1983
  688MOL0     C90690   3.428  11.204   0.488  0.4444 -0.0196 -0.3940
  688MOL0     C90691   3.333  11.176   0.590  0.4564 -0.1419  0.0716
  688MOL0     O90692   3.200  11.207   0.573 -0.7697  0.5674  0.1031
  688MOL0     C90693   3.096  11.185   0.662 -0.7898 -0.0498 -1.0415
  688MOL0     C90694   3.022  11.059   0.630 -0.9579 -0.0402 -0.2163
  688MOL0     C90695   2.968  11.064   0.482  0.7173 -0.5514 -0.0871
  688MOL0     C90696   2.850  10.977   0.474  0.3158 -0.2564 -0.1418
  688MOL0     C90697   2.826  10.956   0.327  0.3740  0.5734  0.1635
  688MOL0     C90698   2.700  10.874   0.299 -0.3376 -0.4642 -0.0439
  688MOL0     C90699   2.574  10.958   0.326  0.1249  0.3996 -0.3488
  688MOL0     C90700   2.448  10.892   0.264  0.6408 -0.0043 -0.4106
  688MOL0     N90701   2.425  10.746   0.281  0.3375  0.1311 -0.4351
  688MOL0     C90702   2.475  10.638   0.212 -0.5164  0.8134 -0.1941
  688MOL0     C90703   2.431  10.523   0.267  0.1453 -0.1082  0.6534
  688MOL0     C90704   2.418  10.386   0.202  0.7528 -0.1845  0.5755
  688MOL0     C90705   2.275  10.348   0.214  0.5168 -0.7234  0.5549
  688MOL0     C90706   2.261  10.222   0.130 -0.4310  0.1602 -0.3992
  688MOL0     C90707   2.118  10.160   0.142 -0.3419 -0.3633  0.0004
  688MOL0     O90708   2.064  10.182   0.273  0.0956 -0.1771  0.2644
  688MOL0     C90709   1.937  10.129   0.289 -0.8029  0.6494 -0.0218
  688MOL0     C90710   1.868  10.168   0.404  0.2670 -0.2145 -0.0917
  688MOL0     C90711   1.741  10.115   0.431 -0.4339  0.2241 -0.3532
  688MOL0     C90712   1.678  10.030   0.340 -0.1743  0.9685 -0.8765
  688MOL0     C90713   1.543   9.977   0.371 -0.5181 -0.2949  0.6571
  688MOL0     O90714   1.479  10.029   0.482 -0.1977  0.1382  0.1055
  688MOL0     C90715   1.345   9.989   0.475  0.0428  1.4934 -0.4607
  688MOL0     C90716   1.296   9.868   0.540  0.1507 -0.5968  0.3032
  688MOL0     C90717   1.164   9.835   0.540 -0.2481 -0.6951  0.1797
  688MOL0     C90718   1.071   9.925   0.477 -0.2436  0.6424  0.2735
  688MOL0     O90719   0.938   9.899   0.480  0.0794  0.3508  0.5601
  688MOL0     C90720   0.893   9.761   0.463  0.1299  0.5715  0.0539
  688MOL0     C90721   0.923   9.716   0.314 -0.4562 -0.9765 -0.7968
  688MOL0     C90722   0.874   9.815   0.208  0.2382  0.1530 -0.1844
  688MOL0     C90723   0.725   9.831   0.229  1.0481 -0.4389  0.2440
  688MOL0     C90724   0.656   9.908   0.113  0.3979  0.0943 -0.4823
  688MOL0     C90725   0.507   9.922   0.152 -0.7898  1.7718  0.4953
  688MOL0     C90726   0.417  10.006   0.058 -0.7755 -0.7366  0.7100
  688MOL0     C90727   0.267  10.023   0.116 -1.1391 -0.2425  0.7635
  688MOL0    Cl90728   0.155  10.134   0.036  0.2160 -0.3494 -0.1950
  688MOL0     C90729   1.117  10.036   0.415  0.1513  0.9514 -0.1928
  688MOL0     C90730   1.251  10.070   0.406 -0.5048 -0.0669  0.4755
  688MOL0     O90731   1.500   9.884   0.299  0.1452 -0.2758 -0.5417
  688MOL0     C90732   1.740  10.003   0.216  0.0091  0.0989  0.0713
  688MOL0     C90733   1.871  10.056   0.193 -0.4254  0.2186  0.5995
  688MOL0     N90734   2.370  10.563   0.382  0.0846 -0.2710 -0.0523
  688MOL0     N90735   2.380  10.692   0.393 -0.0170 -0.3087 -0.5053
  688MOL0     C90736   3.387  11.112   0.706  0.1544 -0.3253  0.6992
  688MOL0     C90737   3.524  11.092   0.724  0.3594  0.2903  0.7789
  688MOL0     C90738   3.945  10.960   0.655  0.1858 -0.4711  0.6892
  688MOL0     C90739   4.026  11.068   0.706 -0.2414 -0.0468  0.3643
  688MOL0     C90740   4.158  11.047   0.732 -0.2119  0.4166 -0.1557
  688MOL0     C90741   4.224  10.920   0.707  0.1869 -0.7238 -0.0676
  688MOL0     O90742   4.356  10.878   0.713 -0.0731  0.8224 -0.0901
  688MOL0     C90743   4.457  10.973   0.751 -0.0643  0.3664 -0.1416
  688MOL0     C90744   4.546  10.920   0.858 -0.7294 -0.0724 -0.8456
  688MOL0     C90745   4.660  10.823   0.819 -0.0154  0.5169  0.3825
  688MOL0     C90746   4.789  10.836   0.921  0.5062  0.8273 -0.4483
  688MOL0     C90747   4.762  10.752   1.039  0.4479  0.0826  0.5660
  688MOL0     C90748   4.748  10.684   1.139  0.0281 -0.1795  0.3781
  688MOL0     C90749   4.143  10.814   0.658  0.1620 -0.2487 -0.9364
  688MOL0     C90750   4.006  10.836   0.633  0.2467  0.8086  1.0131
  688MOL0     H90751   3.643  11.210   0.438 -0.9567 -1.8622 -0.3037
  688MOL0     H90752   3.380  11.253   0.404 -1.4601 -1.1382 -0.0074
  688MOL0     H90753   3.026  11.268   0.650 -1.5923 -0.6746 -0.7255
  688MOL0     H90754   3.125  11.203   0.766 -1.3418 -1.5967 -0.6023
  688MOL0     H90755   2.937  11.050   0.698 -1.4839  0.4404 -0.7999
  688MOL0     H90756   3.074  10.968   0.661 -3.8503 -1.5553  0.5422
  688MOL0     H90757   3.044  11.030   0.412  0.5146  1.0250 -1.1232
  688MOL0     H90758   2.955  11.169   0.454  2.9940  0.1999  1.3404
  688MOL0     H90759   2.876  10.889   0.533 -0.5593 -0.6705 -0.3538
  688MOL0     H90760   2.755  11.021   0.506  2.1197  1.1271  3.9136
  688MOL0     H90761   2.911  10.906   0.282  1.9619  0.9269  2.5638
  688MOL0     H90762   2.812  11.054   0.281 -0.9920 -0.3255 -1.4580
  688MOL0     H90763   2.702  10.802   0.380  1.5499  1.1090  1.4052
  688MOL0     H90764   2.692  10.827   0.201 -0.5927 -0.0768 -0.2156
  688MOL0     H90765   2.552  10.963   0.433  0.9220 -0.1281 -0.1463
  688MOL0     H90766   2.586  11.056   0.280 -1.8387  0.5336 -0.6613
  688MOL0     H90767   2.440  10.917   0.158  3.3230  1.5801 -0.3273
  688MOL0     H90768   2.367  10.951   0.310 -0.0460  0.0193 -1.6224
  688MOL0     H90769   2.523  10.661   0.118 -0.4226  2.5518  0.2341
  688MOL0     H90770   2.488  10.318   0.251  3.0414  3.1407  2.3466
  688MOL0     H90771   2.449  10.404   0.098  1.1862  2.2368  1.0579
  688MOL0     H90772   2.213  10.421   0.161 -0.6508 -1.4247  0.9187
  688MOL0     H90773   2.235  10.344   0.316 -0.4757  0.6156  0.2484
  688MOL0     H90774   2.295  10.251   0.031  3.2426  1.5365  1.0864
  688MOL0     H90775   2.328  10.147   0.174 -2.0838 -1.8657 -1.1243
  688MOL0     H90776   2.129  10.055   0.113  1.5214 -0.7849  1.9366
  688MOL0     H90777   2.048  10.213   0.076 -0.7018  1.4345  1.7359
  688MOL0     H90778   1.911  10.238   0.476  1.0953 -0.4540 -0.3416
  688MOL0     H90779   1.686  10.146   0.520  1.8560  2.2931  0.4762
  688MOL0     H90780   1.363   9.810   0.603 -1.3631 -1.0018  1.6017
  688MOL0     H90781   1.130   9.758   0.610 -0.5936 -0.1655  0.6046
  688MOL0     H90782   0.790   9.742   0.494 -0.6937  0.1117 -2.6899
  688MOL0     H90783   0.946   9.692   0.529 -1.6995 -1.4780 -0.4874
  688MOL0     H90784   0.870   9.622   0.295  0.8367 -1.7619 -0.6053
  688MOL0     H90785   1.032   9.722   0.310 -0.2078 -1.2375  2.6789
  688MOL0     H90786   0.897   9.760   0.117  0.3891 -0.6835  0.3540
  688MOL0     H90787   0.914   9.917   0.216 -1.3703  0.8710 -0.7605
  688MOL0     H90788   0.668   9.738   0.236 -2.6111  1.3303 -2.5087
  688MOL0     H90789   0.708   9.892   0.318 -1.3627 -1.2546  0.4020
  688MOL0     H90790   0.654   9.849   0.020 -0.0701 -0.1752 -0.3024
  688MOL0     H90791   0.705  10.003   0.092  3.8967  0.6216  6.9156
  688MOL0     H90792   0.505   9.968   0.251 -0.6937  2.8331  0.0216
  688MOL0     H90793   0.461   9.823   0.160  0.7668  1.0123  0.4800
  688MOL0     H90794   0.470  10.099   0.037 -0.2612 -1.6011 -2.2305
  688MOL0     H90795   0.419   9.960  -0.041 -2.2524  2.0856 -0.7520
  688MOL0     H90796   0.278  10.062   0.217 -0.7934 -2.2768  1.5666
  688MOL0     H90797   0.220   9.924   0.116 -1.3795 -0.1481 -0.4523
  688MOL0     H90798   1.048  10.091   0.353 -1.5321  0.1934  0.9252
  688MOL0     H90799   1.302  10.151   0.356  0.0811  0.1424  1.4069
  688MOL0     H90800   1.690   9.947   0.138 -0.9722 -0.2910  0.9479
  688MOL0     H90801   1.904  10.035   0.092 -0.1296 -1.3705  0.9945
  688MOL0     H90802   3.317  11.077   0.782  1.3764  0.6759  2.3731
  688MOL0     H90803   3.561  11.027   0.803  0.8730 -0.5819 -0.1651
  688MOL0     H90804   3.989  11.170   0.707  3.8466  1.6319 -0.0123
  688MOL0     H90805   4.210  11.141   0.749  0.1014  0.5821 -1.8515
  688MOL0     H90806   4.414  11.067   0.785 -0.4777  0.7106 -1.5267
  688MOL0     H90807   4.521  11.009   0.670  0.7767 -1.0121 -0.1322
  688MOL0     H90808   4.596  11.008   0.898  0.8353 -0.9050 -0.8937
  688MOL0     H90809   4.489  10.877   0.941 -0.3383  1.2981  0.1628
  688MOL0     H90810   4.688  10.833   0.714 -1.5843 -1.3031 -0.2659
  688MOL0     H90811   4.621  10.721   0.822  4.2847 -1.3415  1.1369
  688MOL0     H90812   4.879  10.804   0.867  0.0496  0.9955 -1.3392
  688MOL0     H90813   4.796  10.941   0.953 -0.4456  1.3273 -1.7411
  688MOL0     H90814   4.748  10.620   1.225  1.1216 -1.1881 -0.3389
  688MOL0     H90815   4.182  10.713   0.652  3.0375  0.4567  2.3234
  688MOL0     H90816   3.959  10.742   0.606  0.1434  1.3365 -0.7482
  689MOL0     O90817   7.366   3.313   4.333  0.5974 -0.1764 -0.3393
  689MOL0     C90818   7.388   3.286   4.457 -0.2456 -1.1414  0.4552
  689MOL0     O90819   7.293   3.289   4.555  0.1269 -0.2261 -0.1687
  689MOL0     C90820   7.163   3.300   4.519 -0.1814 -0.9488 -0.7606
  689MOL0     C90821   7.105   3.417   4.467 -0.0964  0.0293 -0.0295
  689MOL0     C90822   6.973   3.427   4.428 -0.4154 -0.8547 -0.2726
  689MOL0     C90823   6.887   3.320   4.441  0.5003  0.0741  0.1857
  689MOL0     O90824   6.760   3.331   4.400  0.2163 -0.8948 -0.1293
  689MOL0     C90825   6.688   3.213   4.355 -0.7462  0.0535  0.0485
  689MOL0     C90826   6.547   3.259   4.334  0.2506  0.3483 -0.0131
  689MOL0     C90827   6.453   3.151   4.277 -0.6778  0.5788  0.4616
  689MOL0     C90828   6.312   3.170   4.306  0.7005 -0.1504 -0.5301
  689MOL0     C90829   6.227   3.071   4.229 -1.3944 -0.7051 -0.5417
  689MOL0     C90830   6.079   3.081   4.274 -0.4999 -0.0957  0.1960
  689MOL0     C90831   5.994   2.984   4.193  1.1813 -0.8817 -0.4481
  689MOL0     C90832   5.842   3.018   4.221 -1.5798  0.2447  0.8874
  689MOL0     N90833   5.806   3.017   4.366 -0.5561  0.0069  0.2916
  689MOL0     C90834   5.775   2.910   4.442  0.1578  0.5552 -0.5206
  689MOL0     C90835   5.747   2.959   4.563  1.0417 -0.2333  0.1206
  689MOL0     C90836   5.715   2.881   4.693  0.2807  0.0426  0.4251
  689MOL0     C90837   5.844   2.809   4.744  0.2856  0.2907  0.5386
  689MOL0     C90838   5.951   2.910   4.784 -0.6943  0.0039 -1.2576
  689MOL0     C90839   6.075   2.847   4.858  1.7787 -1.1240 -0.2874
  689MOL0     O90840   6.131   2.754   4.770  0.2508 -0.4155  0.4033
  689MOL0     C90841   6.266   2.766   4.741  0.0985  0.5935  0.6906
  689MOL0     C90842   6.303   2.875   4.656 -0.0578  0.7075  0.0869
  689MOL0     C90843   6.436   2.879   4.603  0.2014  0.5302  0.6023
  689MOL0     C90844   6.529   2.782   4.650 -0.3608 -0.4026 -0.4612
  689MOL0     C90845   6.674   2.819   4.626 -0.7220 -0.3336 -0.2410
  689MOL0     O90846   6.765   2.731   4.670  0.6627  0.1549  0.6653
  689MOL0     C90847   6.907   2.729   4.656  0.2642 -0.1237  0.1627
  689MOL0     C90848   6.966   2.808   4.559 -0.3587 -0.6029  0.3735
  689MOL0     C90849   7.106   2.803   4.544 -0.1868  0.3324 -0.2203
  689MOL0     C90850   7.179   2.710   4.620 -0.5498 -0.3542  0.4860
  689MOL0     O90851   7.309   2.681   4.592  0.1834  0.0499 -0.1360
  689MOL0     C90852   7.410   2.727   4.688 -0.5529 -0.3336 -0.3157
  689MOL0     C90853   7.524   2.637   4.663  0.5668  0.2527  0.4736
  689MOL0     C90854   7.638   2.654   4.764  0.1651 -0.1056 -0.1270
  689MOL0     C90855   7.730   2.777   4.739  0.1676 -0.0588  0.2512
  689MOL0     C90856   7.878   2.764   4.778 -0.5419  0.5062 -0.3396
  689MOL0     C90857   7.973   2.667   4.707  0.9957 -0.5455 -0.2859
  689MOL0     C90858   8.121   2.672   4.749 -0.5687 -0.1894  0.4685
  689MOL0     C90859   8.228   2.652   4.634  0.2214  0.5853 -0.1404
  689MOL0    Cl90860   8.391   2.703   4.688 -0.1200 -0.4714 -0.3733
  689MOL0     C90861   7.115   2.631   4.712 -0.3933 -0.0196 -0.0872
  689MOL0     C90862   6.982   2.643   4.742  0.3484  0.2512 -0.7615
  689MOL0     O90863   6.700   2.922   4.563 -0.0228 -0.1760  0.1812
  689MOL0     C90864   6.491   2.679   4.736 -1.2654 -0.7953 -0.2088
  689MOL0     C90865   6.362   2.671   4.779  0.7030  1.6385 -0.6454
  689MOL0     N90866   5.760   3.090   4.556 -0.0286 -0.3235  0.3004
  689MOL0     N90867   5.814   3.126   4.444  0.0248  0.6397 -0.1363
  689MOL0     C90868   6.936   3.205   4.507  0.3630 -0.5295  0.4262
  689MOL0     C90869   7.079   3.196   4.526  0.6369 -0.0311 -0.0104
  689MOL0     C90870   7.534   3.269   4.498 -0.4070 -0.4051 -0.3209
  689MOL0     C90871   7.637   3.269   4.407  0.5274  0.1311  0.1613
  689MOL0     C90872   7.771   3.269   4.454  0.4841  0.3371 -0.1382
  689MOL0     C90873   7.804   3.254   4.592  0.7574  0.5558  0.5796
  689MOL0     O90874   7.925   3.225   4.646  0.4351  0.4796 -0.2802
  689MOL0     C90875   8.037   3.198   4.562  0.4389 -0.2089  0.6165
  689MOL0     C90876   8.146   3.150   4.660 -0.8719 -0.6336  0.0258
  689MOL0     C90877   8.291   3.151   4.605  0.1474 -0.2434  0.2777
  689MOL0     C90878   8.339   3.290   4.548 -0.2102  0.0815  0.5339
  689MOL0     C90879   8.485   3.302   4.534 -0.1962  0.2348 -0.1194
  689MOL0     C90880   8.605   3.318   4.533 -0.2578 -0.8016 -0.0848
  689MOL0     C90881   7.693   3.239   4.678  1.0912 -0.0852 -0.3319
  689MOL0     C90882   7.566   3.253   4.633  0.3152  0.8525  0.8711
  689MOL0     H90883   7.174   3.497   4.441  1.8841 -2.2240 -2.2358
  689MOL0     H90884   6.923   3.514   4.387  0.6907  0.4065  0.9756
  689MOL0     H90885   6.698   3.140   4.435 -2.7658  2.1247  2.3220
  689MOL0     H90886   6.729   3.171   4.262  0.1412 -1.0640  0.9186
  689MOL0     H90887   6.557   3.351   4.276  0.0832  0.2626 -0.1780
  689MOL0     H90888   6.510   3.313   4.422  0.9812  2.2769 -0.8315
  689MOL0     H90889   6.469   3.052   4.322 -0.5441 -0.3361 -1.5069
  689MOL0     H90890   6.473   3.142   4.170  0.5005  0.8893  0.6377
  689MOL0     H90891   6.289   3.153   4.412 -2.2097 -0.5394 -1.1501
  689MOL0     H90892   6.290   3.276   4.287  3.1956  1.5000  4.1656
  689MOL0     H90893   6.264   2.970   4.250  2.1731  0.3513 -1.0119
  689MOL0     H90894   6.243   3.085   4.121  2.6444  1.0025  0.0829
  689MOL0     H90895   6.050   3.184   4.252  0.0101  0.5413  2.2395
  689MOL0     H90896   6.092   3.070   4.382  3.1095 -1.3294 -0.2143
  689MOL0     H90897   5.995   2.990   4.083 -2.5623 -0.6947 -0.5848
  689MOL0     H90898   6.003   2.880   4.228 -1.1772 -1.1181 -0.4057
  689MOL0     H90899   5.770   2.950   4.174  0.3206 -1.0052 -0.3580
  689MOL0     H90900   5.819   3.119   4.187 -0.1898  0.0365 -0.8213
  689MOL0     H90901   5.805   2.806   4.433  0.2885  0.3911  1.3204
  689MOL0     H90902   5.633   2.811   4.674  1.3255 -1.1431  0.1010
  689MOL0     H90903   5.675   2.944   4.773 -1.0313 -2.8003  2.2152
  689MOL0     H90904   5.879   2.754   4.656 -2.4205 -1.3993  0.4278
  689MOL0     H90905   5.819   2.736   4.821  0.4350  1.5524  1.8350
  689MOL0     H90906   5.991   2.968   4.700  0.9167  1.6890  0.5605
  689MOL0     H90907   5.900   2.976   4.854 -1.1598 -1.8003  0.1585
  689MOL0     H90908   6.038   2.801   4.951  3.0345 -0.0254  0.7870
  689MOL0     H90909   6.150   2.920   4.888  0.7754  0.3289 -1.2247
  689MOL0     H90910   6.226   2.945   4.625 -3.1528 -2.9630 -1.2350
  689MOL0     H90911   6.460   2.959   4.534 -1.6444  1.2448  0.7394
  689MOL0     H90912   6.910   2.872   4.491 -0.7655  0.2495  1.4921
  689MOL0     H90913   7.150   2.865   4.466 -0.7653  1.3696  0.2498
  689MOL0     H90914   7.378   2.725   4.792 -1.9712  1.0891 -0.6845
  689MOL0     H90915   7.445   2.822   4.646  1.4438 -1.2467 -0.8007
  689MOL0     H90916   7.561   2.653   4.561 -1.4681  0.5135 -0.2693
  689MOL0     H90917   7.479   2.538   4.675 -4.2571  2.1956  0.5760
  689MOL0     H90918   7.693   2.560   4.771 -1.3598 -1.0895 -0.6696
  689MOL0     H90919   7.586   2.658   4.860 -4.6465 -0.3516 -2.4094
  689MOL0     H90920   7.712   2.803   4.634 -1.5815 -0.1445  0.4967
  689MOL0     H90921   7.688   2.854   4.804 -0.1804 -2.3616  2.9933
  689MOL0     H90922   7.880   2.735   4.884  3.7958  0.8809 -0.1182
  689MOL0     H90923   7.933   2.858   4.765  0.7613 -0.5160 -2.9243
  689MOL0     H90924   7.964   2.679   4.598  2.8876  0.0812 -0.4163
  689MOL0     H90925   7.931   2.571   4.735 -1.6866  0.9755  1.3205
  689MOL0     H90926   8.144   2.772   4.788  0.2102  0.0374 -0.5316
  689MOL0     H90927   8.137   2.594   4.825 -3.0707 -1.0177  0.2378
  689MOL0     H90928   8.192   2.710   4.549  2.2998  0.5362 -1.1125
  689MOL0     H90929   8.241   2.545   4.614  1.1385  1.0951 -2.5665
  689MOL0     H90930   7.170   2.546   4.753 -1.6036  0.8127  3.6937
  689MOL0     H90931   6.940   2.579   4.818  1.3459  0.8611  0.3316
  689MOL0     H90932   6.566   2.605   4.762 -0.8605 -0.5466 -0.6551
  689MOL0     H90933   6.316   2.595   4.842  1.1092  3.0506  1.4604
  689MOL0     H90934   6.878   3.115   4.522 -1.0611  0.1038 -0.9995
  689MOL0     H90935   7.106   3.095   4.552 -1.7251 -1.5408 -2.8127
  689MOL0     H90936   7.627   3.279   4.300  1.5503  0.6524  0.1042
  689MOL0     H90937   7.854   3.288   4.388  0.4381  1.7181  0.1592
  689MOL0     H90938   8.065   3.295   4.521  1.2938 -0.2657  1.0468
  689MOL0     H90939   8.009   3.122   4.488 -3.3228  3.0517 -1.6884
  689MOL0     H90940   8.151   3.207   4.754 -0.2271 -2.5640  1.2291
  689MOL0     H90941   8.121   3.048   4.691  0.8839 -1.0507  0.1891
  689MOL0     H90942   8.282   3.075   4.527 -0.8538  0.4001 -0.2547
  689MOL0     H90943   8.359   3.112   4.681 -0.2474  0.5222  1.0392
  689MOL0     H90944   8.297   3.298   4.448  1.9355  0.8809 -0.3710
  689MOL0     H90945   8.302   3.371   4.611 -3.6254  0.0334 -1.1950
  689MOL0     H90946   8.710   3.340   4.538 -0.6416  1.3436 -0.4226
  689MOL0     H90947   7.696   3.233   4.786  2.4463  1.3106 -0.2426
  689MOL0     H90948   7.485   3.261   4.705  1.5388  1.8803  2.2022
  690MOL0     O90949   8.530  10.963   1.937  0.2965  0.7456 -0.3254
  690MOL0     C90950   8.594  10.971   1.832 -0.4121 -0.1123 -0.2854
  690MOL0     O90951   8.550  10.951   1.711 -0.5237 -0.1530 -0.3449
  690MOL0     C90952   8.426  10.892   1.693 -0.7505  0.5423 -0.7747
  690MOL0     C90953   8.344  10.953   1.596  1.1167  0.0524 -0.0468
  690MOL0     C90954   8.214  10.913   1.582  0.1676  0.5052  0.4342
  690MOL0     C90955   8.154  10.805   1.659  0.0774 -1.3320  0.2034
  690MOL0     O90956   8.026  10.742   1.645 -0.0561  0.4490  1.0481
  690MOL0     C90957   7.924  10.814   1.572 -0.1712 -0.8580  0.2036
  690MOL0     C90958   7.916  10.795   1.414 -0.2586 -0.0109  0.5834
  690MOL0     C90959   7.785  10.830   1.364  0.1082  0.4544 -0.1822
  690MOL0     C90960   7.756  10.786   1.217 -0.0629 -0.5430 -1.1832
  690MOL0     C90961   7.624  10.843   1.155 -0.4275 -0.3506  0.7336
  690MOL0     C90962   7.502  10.798   1.239 -0.6288 -0.3967  0.0871
  690MOL0     C90963   7.371  10.859   1.185 -1.5598 -0.4483  0.1265
  690MOL0     C90964   7.241  10.833   1.254  0.1715  0.8144 -0.2224
  690MOL0     N90965   7.244  10.910   1.376  0.0685 -0.6339  0.2074
  690MOL0     C90966   7.243  11.048   1.390  0.1432  0.3854  0.0732
  690MOL0     C90967   7.268  11.064   1.519 -0.1919 -0.5943  0.3029
  690MOL0     C90968   7.307  11.193   1.594 -0.0018 -0.4020  1.1222
  690MOL0     C90969   7.454  11.218   1.607 -0.5883 -0.3725  0.0562
  690MOL0     C90970   7.535  11.189   1.481  0.4303  0.2252 -0.6498
  690MOL0     C90971   7.683  11.213   1.504 -0.3820 -0.7182 -0.4210
  690MOL0     O90972   7.753  11.224   1.381  0.5939  0.0452  0.4443
  690MOL0     C90973   7.886  11.205   1.365 -1.0166 -0.2431 -0.4175
  690MOL0     C90974   7.944  11.176   1.239  0.5313 -0.1654 -0.0480
  690MOL0     C90975   8.077  11.174   1.218  0.0582 -0.1612 -0.3390
  690MOL0     C90976   8.166  11.204   1.332 -0.4822  0.2982  0.1792
  690MOL0     C90977   8.303  11.204   1.316 -0.0607 -0.0303  0.5578
  690MOL0     O90978   8.392  11.261   1.409  0.2099  0.6376  0.0315
  690MOL0     C90979   8.525  11.262   1.382 -0.0221  0.6117 -0.2073
  690MOL0     C90980   8.611  11.161   1.435  0.9060  0.2458 -1.1437
  690MOL0     C90981   8.743  11.155   1.396 -0.1115 -0.1844 -0.4151
  690MOL0     C90982   8.801  11.255   1.319  0.2847 -0.9806  0.0500
  690MOL0     O90983   8.939  11.243   1.299  0.0819 -0.2179  0.2717
  690MOL0     C90984   9.017  11.364   1.320 -0.1607  0.1167 -0.0515
  690MOL0     C90985   9.169  11.327   1.298 -0.4564  0.3713 -0.8974
  690MOL0     C90986   9.217  11.229   1.402 -0.3791  0.6511  0.2595
  690MOL0     C90987   9.367  11.239   1.442  0.2941  0.2524 -0.1917
  690MOL0     C90988   9.392  11.356   1.537 -0.3921  0.2131 -0.3667
  690MOL0     C90989   9.539  11.356   1.592 -0.4507 -0.3519  0.6726
  690MOL0     C90990   9.650  11.354   1.485  0.3749  0.0084  0.2675
  690MOL0     C90991   9.727  11.232   1.456 -0.6156 -0.1773  0.6485
  690MOL0    Cl90992   9.900  11.252   1.483 -0.4625 -0.0306 -0.1815
  690MOL0     C90993   8.718  11.365   1.281  0.4693  0.3065 -0.2654
  690MOL0     C90994   8.580  11.361   1.306 -0.7313  0.3670  0.9079
  690MOL0     O90995   8.335  11.156   1.209  0.0440 -0.0046 -0.0276
  690MOL0     C90996   8.121  11.241   1.458 -0.3978 -0.0278 -0.0749
  690MOL0     C90997   7.980  11.229   1.477 -0.0644 -0.2383 -0.1766
  690MOL0     N90998   7.300  10.941   1.575  0.5536 -0.5812 -0.3785
  690MOL0     N90999   7.271  10.851   1.497  0.5977 -0.4037 -1.0646
  690MOL0     C91000   8.245  10.742   1.748 -0.0739  0.1491 -0.4524
  690MOL0     C91001   8.383  10.778   1.772 -0.5087 -0.8030  0.0819
  690MOL0     C91002   8.728  11.036   1.851 -0.3247 -0.1079 -0.1785
  690MOL0     C91003   8.801  11.080   1.741  0.9380  0.1330  0.1973
  690MOL0     C91004   8.917  11.153   1.747 -0.2859  0.5325 -0.3530
  690MOL0     C91005   8.988  11.170   1.873  0.2649 -0.5049  0.2147
  690MOL0     O91006   9.113  11.238   1.882  0.5230  0.3780 -0.9185
  690MOL0     C91007   9.198  11.202   1.996 -0.3425 -0.1170 -0.0790
  690MOL0     C91008   9.338  11.216   1.947  0.0319  0.1226  0.2450
  690MOL0     C91009   9.449  11.209   2.057 -0.4561 -0.3507 -0.6369
  690MOL0     C91010   9.582  11.200   1.988 -0.3657 -0.4266  0.0942
  690MOL0     C91011   9.693  11.188   2.088  1.2402 -0.7892 -0.2544
  690MOL0     C91012   9.761  11.160   2.186  1.0764  0.0506  0.3227
  690MOL0     C91013   8.915  11.120   1.983  0.0426  0.6146  0.6471
  690MOL0     C91014   8.784  11.063   1.980 -0.0201  0.4192  0.7618
  690MOL0     H91015   8.377  11.040   1.539 -2.4587  3.3022  2.2996
  690MOL0     H91016   8.149  10.958   1.508  0.8182  0.5117 -0.1383
  690MOL0     H91017   7.907  10.916   1.608  0.5089 -1.1939  1.5534
  690MOL0     H91018   7.832  10.763   1.602 -2.2027  2.3085 -0.1850
  690MOL0     H91019   7.937  10.691   1.387  0.6132  0.4887 -0.7828
  690MOL0     H91020   7.993  10.855   1.364  0.3817 -2.3322 -1.4311
  690MOL0     H91021   7.765  10.936   1.380  0.6026  0.4417  0.5548
  690MOL0     H91022   7.710  10.774   1.420 -2.0755  0.8068 -2.5396
  690MOL0     H91023   7.833  10.827   1.151 -1.6937  0.1251 -2.7457
  690MOL0     H91024   7.779  10.679   1.208  0.1506 -0.7258  1.0220
  690MOL0     H91025   7.612  10.814   1.051  2.3291 -2.9270  1.0023
  690MOL0     H91026   7.640  10.951   1.149  1.1479 -0.6259 -0.9043
  690MOL0     H91027   7.510  10.844   1.338 -2.4200 -1.0280  0.5600
  690MOL0     H91028   7.487  10.690   1.244  1.1738 -0.7515 -1.2825
  690MOL0     H91029   7.386  10.966   1.170  0.0176 -0.8328 -1.2843
  690MOL0     H91030   7.359  10.808   1.089  0.6973 -1.4886  0.3492
  690MOL0     H91031   7.237  10.728   1.284  1.7791  0.0123 -2.5346
  690MOL0     H91032   7.149  10.850   1.198 -0.7589 -0.6490  0.7966
  690MOL0     H91033   7.229  11.123   1.313 -1.7738  0.4533  0.4496
  690MOL0     H91034   7.260  11.181   1.692 -1.3337  0.9330  0.6774
  690MOL0     H91035   7.261  11.280   1.546  2.3873  0.5150  0.3408
  690MOL0     H91036   7.497  11.158   1.688  0.6313  0.6378  0.1847
  690MOL0     H91037   7.471  11.321   1.638  0.7655 -0.7665  0.7473
  690MOL0     H91038   7.537  11.082   1.458  1.7252 -0.4981  2.3820
  690MOL0     H91039   7.508  11.255   1.398  0.4904 -2.2932 -2.8197
  690MOL0     H91040   7.722  11.135   1.570 -1.1815 -0.8347 -0.0659
  690MOL0     H91041   7.695  11.309   1.554 -1.1870 -0.8703  0.0870
  690MOL0     H91042   7.868  11.149   1.167  1.1063 -3.8622  0.5426
  690MOL0     H91043   8.116  11.135   1.125  0.8468 -2.6732  0.9286
  690MOL0     H91044   8.571  11.079   1.494  0.7688  0.0559 -1.4977
  690MOL0     H91045   8.787  11.057   1.411 -0.4635 -1.1865 -4.6417
  690MOL0     H91046   9.007  11.392   1.425  1.7089 -1.8929  0.7489
  690MOL0     H91047   8.986  11.446   1.256  1.2640  0.7925  0.0772
  690MOL0     H91048   9.222  11.423   1.300  1.2204 -0.5177  1.7724
  690MOL0     H91049   9.173  11.290   1.195  0.5555  1.4728 -1.2800
  690MOL0     H91050   9.201  11.129   1.361 -4.1666  1.1165  0.2715
  690MOL0     H91051   9.149  11.246   1.486  1.6501  1.8268  1.7571
  690MOL0     H91052   9.395  11.149   1.497  1.0973 -1.3453 -3.0158
  690MOL0     H91053   9.434  11.257   1.357 -2.7006  0.7312 -2.6411
  690MOL0     H91054   9.317  11.354   1.618  0.1948 -4.3139  0.3332
  690MOL0     H91055   9.391  11.451   1.483  2.0923 -0.7621 -2.3074
  690MOL0     H91056   9.556  11.260   1.640 -0.6131 -1.7957 -1.9445
  690MOL0     H91057   9.548  11.438   1.663 -1.0557  0.6888 -0.4022
  690MOL0     H91058   9.623  11.400   1.390 -0.4961  0.4725  0.7237
  690MOL0     H91059   9.720  11.427   1.528  0.8562 -1.0513  1.3534
  690MOL0     H91060   9.721  11.200   1.352  0.1485 -1.6260  1.0326
  690MOL0     H91061   9.690  11.146   1.513 -1.3091 -0.7929 -0.6951
  690MOL0     H91062   8.752  11.465   1.257 -1.0862  1.9991  3.6568
  690MOL0     H91063   8.508  11.436   1.277 -0.3934 -0.0046 -0.9957
  690MOL0     H91064   8.187  11.261   1.541 -0.7617  0.4139  0.1144
  690MOL0     H91065   7.934  11.269   1.566 -2.4412  1.3583 -1.9749
  690MOL0     H91066   8.196  10.678   1.820  0.9680  1.6115  1.6620
  690MOL0     H91067   8.445  10.732   1.849  1.0911  1.7413  0.4227
  690MOL0     H91068   8.747  11.067   1.648 -1.8466  2.1628  1.3824
  690MOL0     H91069   8.968  11.194   1.661  1.1107  1.3296  0.8006
  690MOL0     H91070   9.177  11.100   2.030 -1.4563  1.0606  3.1985
  690MOL0     H91071   9.168  11.274   2.074  1.3008  0.7579 -0.2015
  690MOL0     H91072   9.355  11.124   1.890  0.3827  0.6693 -0.5411
  690MOL0     H91073   9.352  11.308   1.889  5.1733  0.2738  1.2400
  690MOL0     H91074   9.430  11.115   2.110 -1.0195 -0.3641 -0.8602
  690MOL0     H91075   9.446  11.296   2.123 -1.9208 -0.2705 -0.7774
  690MOL0     H91076   9.591  11.111   1.926  1.1986  1.4992 -2.6823
  690MOL0     H91077   9.595  11.284   1.919 -0.6343 -0.2312  0.2791
  690MOL0     H91078   9.823  11.168   2.273  0.7338  3.5331  0.3741
  690MOL0     H91079   8.953  11.163   2.074  1.7198  0.5862 -0.0101
  690MOL0     H91080   8.722  11.045   2.067  1.8266 -0.6665  1.9365
  691MOL0     O91081   3.742   0.968   1.772  0.1934  0.4265  0.5105
  691MOL0     C91082   3.794   0.873   1.707 -0.5273 -0.2706 -0.4201
  691MOL0     O91083   3.736   0.784   1.632 -0.5937  0.7188  0.0108
  691MOL0     C91084   3.605   0.752   1.656 -0.2981 -0.0222  0.3508
  691MOL0     C91085   3.532   0.704   1.548  0.4125  0.8062 -0.0941
  691MOL0     C91086   3.407   0.637   1.564 -0.3211 -0.1532  1.1352
  691MOL0     C91087   3.357   0.647   1.696  0.1815 -0.2737  0.1180
  691MOL0     O91088   3.242   0.576   1.719  0.2625  0.0275  0.4756
  691MOL0     C91089   3.141   0.639   1.789  0.0363  0.6190 -0.6051
  691MOL0     C91090   3.068   0.742   1.703 -0.5239  0.5313  0.1963
  691MOL0     C91091   2.952   0.690   1.626  0.8225 -0.1403  0.0427
  691MOL0     C91092   2.890   0.790   1.521 -0.1906  0.5012  0.5154
  691MOL0     C91093   2.779   0.712   1.451 -0.8454 -0.5754  0.1030
  691MOL0     C91094   2.690   0.816   1.372 -0.0403  0.6847  0.3086
  691MOL0     C91095   2.568   0.747   1.318  0.5929 -0.8419 -0.1157
  691MOL0     C91096   2.447   0.781   1.401  0.1361  0.2277  0.1725
  691MOL0     N91097   2.323   0.777   1.318  0.7574 -0.3356  0.3417
  691MOL0     C91098   2.315   0.725   1.193 -0.1794  0.1982 -0.2882
  691MOL0     C91099   2.189   0.735   1.146 -0.0273  0.0686 -0.2738
  691MOL0     C91100   2.137   0.678   1.024 -1.0595  0.0470 -0.4215
  691MOL0     C91101   2.123   0.786   0.907 -0.1269  0.6368 -0.3430
  691MOL0     C91102   2.259   0.826   0.842 -0.1906  0.5009  0.1381
  691MOL0     C91103   2.332   0.730   0.745  0.0690  0.3184  0.4658
  691MOL0     O91104   2.402   0.627   0.824  0.4856 -0.2123  0.1240
  691MOL0     C91105   2.518   0.664   0.885  0.0839  0.5815 -0.4973
  691MOL0     C91106   2.580   0.563   0.956  1.0800  0.0789 -0.1453
  691MOL0     C91107   2.715   0.571   1.006 -0.0867  0.1081 -0.8870
  691MOL0     C91108   2.777   0.697   1.009 -0.4436  0.1719 -0.2286
  691MOL0     C91109   2.917   0.718   1.056 -0.2392 -0.2143  0.0627
  691MOL0     O91110   2.997   0.605   1.063 -0.5844  0.1882 -0.4400
  691MOL0     C91111   3.120   0.610   1.116 -0.5012  0.7910  0.6349
  691MOL0     C91112   3.181   0.483   1.123 -0.2299  0.1027  0.2469
  691MOL0     C91113   3.319   0.468   1.168 -0.1765  0.5780  0.1718
  691MOL0     C91114   3.396   0.583   1.180 -0.5064  0.4329 -0.9054
  691MOL0     O91115   3.531   0.584   1.223  0.6622  0.3111  0.6709
  691MOL0     C91116   3.599   0.460   1.254  0.9217  0.2538  0.0492
  691MOL0     C91117   3.735   0.476   1.298 -0.5390 -0.3926 -1.1012
  691MOL0     C91118   3.791   0.334   1.326  0.5521 -0.3408  0.2601
  691MOL0     C91119   3.933   0.340   1.370  0.1727 -0.0720  1.0629
  691MOL0     C91120   3.983   0.198   1.402  0.2908  0.1612 -0.2899
  691MOL0     C91121   4.129   0.209   1.469  0.4637 -0.5207  0.0661
  691MOL0     C91122   4.178   0.065   1.500 -0.7712 -1.0397 -0.1550
  691MOL0     C91123   4.328   0.074   1.525 -0.2332  0.0673  0.1961
  691MOL0    Cl91124   4.404  -0.086   1.564  0.4417  0.1081  0.1085
  691MOL0     C91125   3.342   0.707   1.173 -0.0184  0.0941 -0.7177
  691MOL0     C91126   3.209   0.726   1.143  0.6722 -0.5057  0.0376
  691MOL0     O91127   2.944   0.832   1.089  0.1230 -0.0994 -0.4236
  691MOL0     C91128   2.694   0.812   0.967 -0.0627  0.0482 -0.5755
  691MOL0     C91129   2.576   0.789   0.896  0.1675 -0.2015 -0.0424
  691MOL0     N91130   2.114   0.785   1.246  0.6500  0.0123  0.1970
  691MOL0     N91131   2.193   0.811   1.349 -0.3029 -0.2197  0.2262
  691MOL0     C91132   3.435   0.685   1.806  0.9012  0.1849 -1.2114
  691MOL0     C91133   3.555   0.748   1.784  0.1596  0.5103 -0.4114
  691MOL0     C91134   3.942   0.888   1.695  0.6392 -1.0360  0.2126
  691MOL0     C91135   4.018   0.803   1.607 -0.5764  0.3305  0.8976
  691MOL0     C91136   4.159   0.810   1.599  0.0713 -0.1829  0.5676
  691MOL0     C91137   4.222   0.909   1.675 -0.1369 -0.0795  0.1576
  691MOL0     O91138   4.349   0.948   1.660 -0.4287 -0.7018  0.5365
  691MOL0     C91139   4.446   0.861   1.605 -0.4507 -0.0780  0.1334
  691MOL0     C91140   4.498   0.770   1.718 -0.1765 -0.7569 -1.1460
  691MOL0     C91141   4.590   0.832   1.816 -0.3545 -0.1607  0.3306
  691MOL0     C91142   4.673   0.946   1.758  0.3739  0.2315 -0.3629
  691MOL0     C91143   4.750   0.883   1.637  0.0333 -0.6644 -1.1632
  691MOL0     C91144   4.834   0.836   1.559  0.3163 -0.4420 -0.0281
  691MOL0     C91145   4.153   0.989   1.766 -0.0637  0.5055 -0.5519
  691MOL0     C91146   4.019   0.983   1.773  0.0768 -0.2419 -0.3024
  691MOL0     H91147   3.574   0.717   1.448 -0.8024  0.6604 -0.6451
  691MOL0     H91148   3.358   0.592   1.479  0.3034 -0.6676  1.0403
  691MOL0     H91149   3.176   0.694   1.877 -0.2189  2.1000 -1.3993
  691MOL0     H91150   3.067   0.567   1.827 -0.4881  1.5672  0.2429
  691MOL0     H91151   3.136   0.787   1.629 -1.5937  1.5658 -0.1729
  691MOL0     H91152   3.025   0.817   1.768 -1.1949 -0.0067  0.3781
  691MOL0     H91153   2.890   0.661   1.712  2.8238 -1.3214  1.1557
  691MOL0     H91154   2.981   0.596   1.580  1.1392 -1.7285  3.1864
  691MOL0     H91155   2.848   0.879   1.568  3.5704  4.0367 -2.0417
  691MOL0     H91156   2.973   0.819   1.455  0.4473  1.4381  1.6985
  691MOL0     H91157   2.722   0.656   1.525  2.5344 -2.0068  1.8631
  691MOL0     H91158   2.830   0.638   1.388  1.3649  1.8527 -1.1867
  691MOL0     H91159   2.755   0.845   1.289  0.4621 -1.7403 -0.2306
  691MOL0     H91160   2.669   0.905   1.431 -1.4512  1.2801 -1.0121
  691MOL0     H91161   2.557   0.796   1.221  1.7306 -2.1937 -0.9606
  691MOL0     H91162   2.573   0.639   1.303  1.6707 -0.8637  0.3033
  691MOL0     H91163   2.474   0.878   1.445 -0.2290 -1.3331  4.2258
  691MOL0     H91164   2.435   0.705   1.479 -1.4500 -1.1475 -1.3170
  691MOL0     H91165   2.401   0.694   1.136 -1.1659 -3.0008 -0.2384
  691MOL0     H91166   2.036   0.640   1.043 -0.6372 -0.2873  1.3883
  691MOL0     H91167   2.205   0.593   1.009 -1.7107 -0.9331  1.7318
  691MOL0     H91168   2.095   0.880   0.956 -1.7870 -0.9583  2.0202
  691MOL0     H91169   2.048   0.763   0.832  0.2972  1.2832 -0.9743
  691MOL0     H91170   2.241   0.923   0.794 -1.1335  1.3025  2.0310
  691MOL0     H91171   2.328   0.838   0.926  0.9600  1.0730 -0.8533
  691MOL0     H91172   2.397   0.792   0.681 -0.8047  0.4793 -0.2944
  691MOL0     H91173   2.264   0.684   0.673  1.5993  0.4567 -1.1282
  691MOL0     H91174   2.521   0.473   0.965  1.5202 -0.4515 -2.1200
  691MOL0     H91175   2.757   0.482   1.052 -3.6069 -1.2845 -0.0797
  691MOL0     H91176   3.122   0.395   1.101 -1.6415  1.2567 -0.7205
  691MOL0     H91177   3.374   0.375   1.173  0.2503  0.6736 -1.8936
  691MOL0     H91178   3.611   0.386   1.174  2.2603 -2.9306  2.9095
  691MOL0     H91179   3.536   0.424   1.336 -1.1022  0.5527 -1.2956
  691MOL0     H91180   3.748   0.537   1.388  1.0011  0.9723 -2.1757
  691MOL0     H91181   3.797   0.521   1.220 -1.3208  0.9691 -0.9663
  691MOL0     H91182   3.786   0.275   1.234  2.9716  1.8838 -1.4480
  691MOL0     H91183   3.717   0.290   1.393 -0.5078  0.5069 -0.3132
  691MOL0     H91184   3.987   0.393   1.291 -0.9632 -2.4544 -1.4569
  691MOL0     H91185   3.954   0.399   1.459 -1.6613 -1.8312  2.7685
  691MOL0     H91186   3.999   0.136   1.313  2.6651  0.5072 -0.1698
  691MOL0     H91187   3.911   0.148   1.468  1.4380  0.4053  1.1955
  691MOL0     H91188   4.117   0.259   1.566 -3.0227 -0.3690 -0.2979
  691MOL0     H91189   4.196   0.273   1.411  0.4892 -0.6681 -0.0673
  691MOL0     H91190   4.134   0.021   1.590  1.8243 -2.2325  0.6098
  691MOL0     H91191   4.168  -0.006   1.418  2.1285 -1.3209 -0.3686
  691MOL0     H91192   4.339   0.154   1.597 -0.5431  0.3291 -0.0417
  691MOL0     H91193   4.385   0.111   1.440 -0.0174 -2.1925 -0.7352
  691MOL0     H91194   3.411   0.790   1.186  0.0610 -0.1372  0.3791
  691MOL0     H91195   3.169   0.826   1.137 -3.1686 -1.8008  0.8741
  691MOL0     H91196   2.722   0.915   0.986 -0.3721 -0.1921  1.3149
  691MOL0     H91197   2.527   0.880   0.862 -0.7419 -0.8002 -0.3744
  691MOL0     H91198   3.397   0.664   1.906 -0.1188  4.1482 -0.6002
  691MOL0     H91199   3.617   0.775   1.869 -0.4727  2.8959 -0.6306
  691MOL0     H91200   3.967   0.730   1.546 -0.7530 -0.8960  2.4274
  691MOL0     H91201   4.200   0.747   1.522 -0.6208  0.2255 -0.1543
  691MOL0     H91202   4.528   0.907   1.549 -1.1692 -1.5031 -2.2141
  691MOL0     H91203   4.394   0.799   1.531 -2.5236  4.6180 -2.7434
  691MOL0     H91204   4.416   0.714   1.763 -0.3295 -0.9316 -1.6364
  691MOL0     H91205   4.554   0.685   1.679  4.0627  0.2083  2.1354
  691MOL0     H91206   4.666   0.761   1.850  0.9702  1.0991  0.0762
  691MOL0     H91207   4.541   0.860   1.910 -1.5461 -2.4820  0.4803
  691MOL0     H91208   4.621   1.037   1.728 -0.0947  0.0607 -0.0758
  691MOL0     H91209   4.744   0.980   1.834 -0.2522 -0.1693  0.4153
  691MOL0     H91210   4.896   0.796   1.482  0.2488 -3.2104  1.2330
  691MOL0     H91211   4.204   1.070   1.817 -3.8540  1.1919  2.5814
  691MOL0     H91212   3.971   1.051   1.842  1.5481 -1.5480  2.1503
  692MOL0     O91213   6.473   2.014   1.167  0.5718 -0.5120 -0.3653
  692MOL0     C91214   6.440   2.132   1.176 -1.1015 -0.4405 -0.4861
  692MOL0     O91215   6.529   2.240   1.190  1.2669  0.0338 -0.4591
  692MOL0     C91216   6.658   2.201   1.197  0.2869 -0.1680  0.0997
  692MOL0     C91217   6.698   2.147   1.315 -0.6574  0.8653  0.6363
  692MOL0     C91218   6.838   2.120   1.339  0.0264  0.3244 -0.1800
  692MOL0     C91219   6.936   2.151   1.245  0.4108  0.0287 -0.3190
  692MOL0     O91220   7.072   2.146   1.277 -0.1434  0.0008  0.5488
  692MOL0     C91221   7.124   2.014   1.305  0.6097 -0.7966  0.8783
  692MOL0     C91222   7.277   2.037   1.341  0.1309  0.2512  0.2996
  692MOL0     C91223   7.343   1.914   1.403 -0.1301  0.6191 -0.4943
  692MOL0     C91224   7.493   1.932   1.398 -0.1949 -0.1046 -0.7074
  692MOL0     C91225   7.583   1.862   1.513 -0.2536 -0.5683 -0.2148
  692MOL0     C91226   7.733   1.850   1.478  0.1520  0.2084 -0.1635
  692MOL0     C91227   7.759   1.746   1.367 -0.2048 -0.1719 -0.4612
  692MOL0     C91228   7.903   1.735   1.320  0.6232 -0.6909  0.4209
  692MOL0     N91229   8.006   1.747   1.428  0.7391 -0.2491  0.7590
  692MOL0     C91230   8.073   1.859   1.469  1.2105  0.2183 -0.0319
  692MOL0     C91231   8.146   1.815   1.572  0.4580 -0.4459  0.2472
  692MOL0     C91232   8.237   1.891   1.670 -0.3726  0.8250 -0.3209
  692MOL0     C91233   8.132   1.938   1.768  0.0301 -1.2025 -0.5419
  692MOL0     C91234   8.184   2.052   1.855  0.3399  0.6436 -0.2094
  692MOL0     C91235   8.066   2.128   1.921  0.3983  0.3961  0.6028
  692MOL0     O91236   8.001   2.202   1.812  0.5099  0.4169 -0.1319
  692MOL0     C91237   7.872   2.212   1.818  0.4988  0.2693 -0.3302
  692MOL0     C91238   7.786   2.241   1.713 -0.2968  0.1034 -0.0772
  692MOL0     C91239   7.648   2.235   1.720  0.6809  0.1802  0.6262
  692MOL0     C91240   7.582   2.231   1.839  0.5275  0.0086  0.3522
  692MOL0     C91241   7.437   2.223   1.859 -0.7503  0.0832 -0.0902
  692MOL0     O91242   7.366   2.221   1.744 -0.5978  0.6019 -0.8920
  692MOL0     C91243   7.237   2.202   1.761  1.7470  0.3857  0.2302
  692MOL0     C91244   7.184   2.070   1.795 -0.5756 -0.4586 -0.1277
  692MOL0     C91245   7.045   2.050   1.803  0.0234 -0.5034  0.6021
  692MOL0     C91246   6.958   2.159   1.776  0.6754 -0.4782  0.2766
  692MOL0     O91247   6.819   2.129   1.766  0.7580 -0.1680 -0.4138
  692MOL0     C91248   6.728   2.231   1.720 -0.9338 -0.6251  0.3114
  692MOL0     C91249   6.588   2.179   1.681 -0.7018  0.0982  0.1235
  692MOL0     C91250   6.491   2.308   1.674  0.0795 -0.2049  0.8700
  692MOL0     C91251   6.363   2.278   1.599  0.8264  0.6985 -0.1574
  692MOL0     C91252   6.265   2.400   1.582 -0.0651 -0.2519  0.8419
  692MOL0     C91253   6.138   2.345   1.520  0.6383  0.1724 -0.1952
  692MOL0     C91254   6.064   2.459   1.440 -0.2589  0.6575 -0.2251
  692MOL0     C91255   5.915   2.435   1.419  0.2941  0.0334  0.5882
  692MOL0    Cl91256   5.843   2.594   1.369  0.5152 -0.0030 -0.2141
  692MOL0     C91257   7.009   2.289   1.741  1.2918 -1.3862 -0.1274
  692MOL0     C91258   7.150   2.305   1.735  0.3974 -0.1208 -0.1867
  692MOL0     O91259   7.388   2.247   1.972  0.1424  0.0775  0.3282
  692MOL0     C91260   7.660   2.209   1.951 -0.1623 -0.0386  0.6808
  692MOL0     C91261   7.800   2.207   1.941  0.5951  0.5575 -0.3302
  692MOL0     N91262   8.118   1.676   1.593 -0.2599 -0.2002  0.1019
  692MOL0     N91263   8.029   1.645   1.510  0.1548 -0.6091  0.1618
  692MOL0     C91264   6.887   2.224   1.139  0.0633 -0.2073 -0.3132
  692MOL0     C91265   6.756   2.233   1.105 -0.2563 -0.6718 -0.1653
  692MOL0     C91266   6.298   2.155   1.147  0.2529  0.3692 -0.3507
  692MOL0     C91267   6.266   2.279   1.098 -0.2108  0.2317  0.5055
  692MOL0     C91268   6.127   2.314   1.079 -0.9733  0.0431  0.0364
  692MOL0     C91269   6.029   2.212   1.100 -0.4931 -0.0599  0.5312
  692MOL0     O91270   5.907   2.261   1.070  0.9376  0.6797 -0.0939
  692MOL0     C91271   5.799   2.173   1.073  0.1050  0.4257 -0.3463
  692MOL0     C91272   5.677   2.251   1.037 -0.0137 -0.0950  0.4975
  692MOL0     C91273   5.538   2.182   1.066  0.0715 -0.3003 -0.4221
  692MOL0     C91274   5.517   2.137   1.208 -1.1444 -0.0387 -0.0916
  692MOL0     C91275   5.540   2.255   1.295 -0.7714 -0.4110  0.7057
  692MOL0     C91276   5.563   2.336   1.384  0.5226 -0.4236  0.1460
  692MOL0     C91277   6.070   2.082   1.150  0.2713  0.8587  1.1195
  692MOL0     C91278   6.204   2.050   1.155  0.1539 -0.5205 -0.0095
  692MOL0     H91279   6.638   2.110   1.397 -0.6074 -0.5390  0.0651
  692MOL0     H91280   6.868   2.077   1.434 -0.6199  2.2912  0.9807
  692MOL0     H91281   7.125   1.958   1.211 -1.8540  3.0412 -1.7109
  692MOL0     H91282   7.072   1.967   1.389 -0.7447  0.0844  0.5721
  692MOL0     H91283   7.280   2.130   1.399 -0.6545  1.9718 -2.2490
  692MOL0     H91284   7.321   2.067   1.245 -0.6586  3.5065  0.8211
  692MOL0     H91285   7.301   1.819   1.366 -1.5345  2.4105 -3.8844
  692MOL0     H91286   7.317   1.922   1.509  1.2611 -0.0066 -0.0786
  692MOL0     H91287   7.515   1.885   1.302 -1.5108 -0.6600 -0.7591
  692MOL0     H91288   7.525   2.037   1.401  2.2387 -0.6002 -4.0291
  692MOL0     H91289   7.545   1.762   1.535  0.9733 -0.7399  1.2553
  692MOL0     H91290   7.591   1.923   1.604  5.0439  2.0507 -2.0588
  692MOL0     H91291   7.789   1.814   1.564 -0.2696 -1.5833 -0.5837
  692MOL0     H91292   7.767   1.949   1.447  2.3563  0.5305  2.8616
  692MOL0     H91293   7.725   1.654   1.415  2.4170  0.5420  3.2712
  692MOL0     H91294   7.699   1.767   1.278 -1.5051  1.9380  0.8061
  692MOL0     H91295   7.924   1.811   1.244 -0.9950 -0.7191 -0.1008
  692MOL0     H91296   7.917   1.641   1.265 -0.3827  1.1005 -3.2130
  692MOL0     H91297   8.070   1.958   1.425  0.5603 -0.1734 -0.8965
  692MOL0     H91298   8.304   1.969   1.632  0.7395  0.5464  0.9666
  692MOL0     H91299   8.289   1.809   1.722 -2.8055 -1.3354 -1.0981
  692MOL0     H91300   8.106   1.847   1.821  1.6435 -1.6282 -0.4300
  692MOL0     H91301   8.045   1.979   1.717  1.1708  2.6845  0.2749
  692MOL0     H91302   8.248   2.005   1.931 -0.6498  1.3552  1.0960
  692MOL0     H91303   8.236   2.130   1.798  0.0683 -0.2858 -1.7784
  692MOL0     H91304   8.117   2.199   1.986  0.9009  1.5709 -1.0006
  692MOL0     H91305   8.006   2.056   1.977  2.3929  0.1827  2.6123
  692MOL0     H91306   7.841   2.257   1.621  1.0704  0.0209  0.6928
  692MOL0     H91307   7.588   2.249   1.631 -3.4424  2.8504  3.4421
  692MOL0     H91308   7.255   1.991   1.816 -0.9137 -0.6483  0.3187
  692MOL0     H91309   7.005   1.950   1.808 -3.3355  0.5041 -2.2186
  692MOL0     H91310   6.771   2.274   1.628  3.3507 -1.8276  1.5146
  692MOL0     H91311   6.719   2.309   1.795  2.0254  1.3054 -1.1394
  692MOL0     H91312   6.557   2.108   1.759 -0.6866 -0.7416 -0.6090
  692MOL0     H91313   6.577   2.123   1.587  2.0095  0.8880 -0.7605
  692MOL0     H91314   6.549   2.387   1.627  3.8016 -0.9229  3.7442
  692MOL0     H91315   6.467   2.341   1.776  2.7269  0.7077  1.2823
  692MOL0     H91316   6.391   2.240   1.501 -0.0703 -0.3142 -0.0434
  692MOL0     H91317   6.305   2.200   1.649 -1.3840  2.6189  0.4661
  692MOL0     H91318   6.315   2.479   1.525  1.9979 -1.3377  1.0577
  692MOL0     H91319   6.245   2.443   1.681  2.7045  2.7779  0.2440
  692MOL0     H91320   6.081   2.291   1.597  0.6554 -0.9056 -0.9130
  692MOL0     H91321   6.154   2.270   1.443 -0.8083  1.5994 -1.9831
  692MOL0     H91322   6.087   2.545   1.502 -0.4777  1.2216 -0.9162
  692MOL0     H91323   6.119   2.466   1.345  2.1647  0.8245  1.1095
  692MOL0     H91324   5.874   2.404   1.515 -1.8661 -1.6776 -0.7845
  692MOL0     H91325   5.884   2.362   1.343  1.0085  1.0045 -0.6694
  692MOL0     H91326   6.964   2.382   1.708 -0.0621 -2.6397 -2.0106
  692MOL0     H91327   7.185   2.405   1.708  1.5396 -1.0740 -2.5892
  692MOL0     H91328   7.611   2.193   2.046  0.0553 -0.4707  0.7183
  692MOL0     H91329   7.862   2.215   2.030  0.3091  1.2622 -0.1878
  692MOL0     H91330   6.958   2.268   1.069 -0.0918 -0.8456 -0.8860
  692MOL0     H91331   6.723   2.289   1.018 -1.8058 -0.9802  0.1923
  692MOL0     H91332   6.327   2.367   1.078  2.3436 -1.6569 -0.4188
  692MOL0     H91333   6.098   2.413   1.046  2.3684  2.1669  2.8022
  692MOL0     H91334   5.788   2.128   1.172 -1.1149  4.4409  1.5548
  692MOL0     H91335   5.817   2.087   1.007  0.8571  0.2582  0.0705
  692MOL0     H91336   5.668   2.342   1.097  0.4342 -0.5556  1.2851
  692MOL0     H91337   5.689   2.273   0.931 -0.9471 -1.3013  0.1285
  692MOL0     H91338   5.528   2.096   0.999 -0.6284 -0.9816  0.5345
  692MOL0     H91339   5.449   2.237   1.032 -0.1330 -0.9230 -0.9144
  692MOL0     H91340   5.419   2.095   1.232  0.7990 -2.8078  4.2636
  692MOL0     H91341   5.600   2.074   1.242  0.8324  0.1486 -3.9929
  692MOL0     H91342   5.577   2.402   1.468 -2.8404 -1.7884  1.9622
  692MOL0     H91343   6.010   1.995   1.171  1.2416 -0.4385 -1.1109
  692MOL0     H91344   6.236   1.956   1.200 -0.0279 -0.0226  1.1886
  693MOL0     O91345   5.062   8.868  10.005 -0.5391 -0.2540  0.6671
  693MOL0     C91346   5.135   8.947   9.945 -0.0343  1.0875 -0.4112
  693MOL0     O91347   5.090   9.037   9.851  0.5096  0.5465  0.0415
  693MOL0     C91348   4.949   9.069   9.862 -0.4312 -0.1322  0.1341
  693MOL0     C91349   4.894   9.127   9.983 -0.9229  0.1162 -0.0609
  693MOL0     C91350   4.754   9.141   9.990 -0.2177  0.8300 -0.3719
  693MOL0     C91351   4.668   9.090   9.894 -1.3502  0.2780  0.5501
  693MOL0     O91352   4.539   9.136   9.912 -0.9821  0.1010 -0.5661
  693MOL0     C91353   4.426   9.062   9.851  0.6347 -0.0160  0.7383
  693MOL0     C91354   4.366   8.970   9.957 -0.0822  0.3216 -0.2887
  693MOL0     C91355   4.214   8.941   9.940  0.4550  0.7901  0.8197
  693MOL0     C91356   4.171   8.870  10.079 -0.5849  0.2362 -0.3541
  693MOL0     C91357   4.018   8.871  10.081  0.4852 -0.5307  0.8851
  693MOL0     C91358   3.960   8.782  10.192  0.0703  0.7040  0.3393
  693MOL0     C91359   3.809   8.751  10.181 -0.2780 -0.0824  0.4029
  693MOL0     C91360   3.726   8.868  10.211  0.3790  0.5151  0.0933
  693MOL0     N91361   3.584   8.839  10.226 -0.1469 -0.5724  0.4946
  693MOL0     C91362   3.520   8.863  10.340 -0.2519 -1.2353 -0.3595
  693MOL0     C91363   3.391   8.872  10.301 -0.2752  0.3462  0.4074
  693MOL0     C91364   3.271   8.915  10.378  0.0317 -0.3037  0.1742
  693MOL0     C91365   3.172   8.800  10.380  0.3552  0.3634  0.3040
  693MOL0     C91366   3.023   8.821  10.423  1.1947  0.1520 -0.2833
  693MOL0     C91367   2.995   8.967  10.484 -0.3457 -0.2286  0.7608
  693MOL0     O91368   2.854   8.985  10.499 -0.5225 -0.7608  0.0931
  693MOL0     C91369   2.773   9.033  10.401 -1.2014 -0.3445 -0.0014
  693MOL0     C91370   2.802   9.068  10.270 -0.0510  0.3411 -0.9061
  693MOL0     C91371   2.698   9.124  10.189 -0.5082 -0.6614  0.7397
  693MOL0     C91372   2.573   9.149  10.237  0.1325 -1.4356  0.2836
  693MOL0     C91373   2.472   9.207  10.142  0.2986 -0.5609 -0.4637
  693MOL0     O91374   2.344   9.221  10.188  0.2562 -0.7779 -0.0493
  693MOL0     C91375   2.240   9.252  10.105 -1.1895 -0.0815 -0.3510
  693MOL0     C91376   2.124   9.320  10.150 -0.4954 -0.0075 -0.4508
  693MOL0     C91377   2.006   9.351  10.079  0.0231 -0.3162 -0.0197
  693MOL0     C91378   2.006   9.327   9.944 -0.2780  0.4911  0.2584
  693MOL0     O91379   1.913   9.391   9.868 -0.1359 -0.2026 -0.2416
  693MOL0     C91380   1.788   9.321   9.828  0.2425 -0.7640  0.2223
  693MOL0     C91381   1.662   9.422   9.801 -0.0492  0.4952 -0.1263
  693MOL0     C91382   1.540   9.349   9.719 -0.1201 -0.1732 -0.4835
  693MOL0     C91383   1.440   9.459   9.671  0.2766 -0.0021 -0.5276
  693MOL0     C91384   1.318   9.386   9.603 -0.3402 -0.3166 -0.7876
  693MOL0     C91385   1.315   9.407   9.456 -0.0252 -0.0718 -0.2722
  693MOL0     C91386   1.213   9.317   9.401  0.3483 -0.3259 -0.4492
  693MOL0     C91387   1.109   9.384   9.314  0.7345  0.2672 -0.2619
  693MOL0    Cl91388   1.023   9.513   9.397 -0.4777 -0.3402  0.5130
  693MOL0     C91389   2.123   9.266   9.890  0.5388 -0.0131  0.3831
  693MOL0     C91390   2.230   9.227   9.965 -0.6620  0.2210 -0.6458
  693MOL0     O91391   2.514   9.244  10.034 -0.0842 -0.7910  0.4432
  693MOL0     C91392   2.555   9.143  10.371  0.5905 -1.3464  0.1158
  693MOL0     C91393   2.650   9.068  10.443 -0.5666 -0.7415 -0.0853
  693MOL0     N91394   3.391   8.832  10.174  0.1569  0.4440  0.4124
  693MOL0     N91395   3.503   8.813  10.126 -0.7180 -0.9330 -0.1460
  693MOL0     C91396   4.723   9.050   9.772 -0.3112 -0.0510 -0.2510
  693MOL0     C91397   4.864   9.036   9.755  0.6112  0.3067 -0.4699
  693MOL0     C91398   5.275   8.935   9.981 -0.1999  0.1266 -0.4020
  693MOL0     C91399   5.358   9.036   9.954 -0.0237  0.2795 -0.1624
  693MOL0     C91400   5.491   9.028   9.984  0.1335  0.7153 -0.0705
  693MOL0     C91401   5.542   8.925  10.059  0.7395  0.0852  0.7773
  693MOL0     O91402   5.676   8.911  10.086  0.2639 -0.3473 -0.0518
  693MOL0     C91403   5.769   8.934   9.979  0.4948  0.5251 -0.0002
  693MOL0     C91404   5.910   8.912  10.024 -0.0399 -0.3758 -0.1945
  693MOL0     C91405   5.938   9.000  10.142 -0.7345 -0.4303  0.0144
  693MOL0     C91406   6.079   9.040  10.180  0.6096 -0.2314 -0.1560
  693MOL0     C91407   6.094   9.154  10.266  1.1347 -0.7359  0.4710
  693MOL0     C91408   6.101   9.249  10.336 -0.3339  0.7849 -0.3520
  693MOL0     C91409   5.458   8.809  10.083  0.6069 -0.1087  0.4314
  693MOL0     C91410   5.320   8.817  10.038 -1.3584 -0.1279 -0.6612
  693MOL0     H91411   4.954   9.154  10.069  0.3472  2.2779 -1.5059
  693MOL0     H91412   4.720   9.180  10.085  0.4594  0.5095  0.0144
  693MOL0     H91413   4.460   9.010   9.761 -1.4987 -0.3857  0.0933
  693MOL0     H91414   4.354   9.137   9.816 -2.6276 -2.6095  1.4221
  693MOL0     H91415   4.377   9.019  10.054 -0.6677 -1.6108  0.7977
  693MOL0     H91416   4.428   8.880   9.961 -1.2798 -0.8428 -3.9707
  693MOL0     H91417   4.190   8.882   9.851 -1.0775  5.0191 -1.9018
  693MOL0     H91418   4.162   9.035   9.919 -0.0750  0.0127 -1.7073
  693MOL0     H91419   4.216   8.770  10.075 -0.3929  0.2192  1.3871
  693MOL0     H91420   4.221   8.925  10.160  1.8276 -2.6365  0.2891
  693MOL0     H91421   3.977   8.838   9.984 -1.7874  1.2556  1.1639
  693MOL0     H91422   3.989   8.976  10.087 -0.4317 -0.5253 -1.9358
  693MOL0     H91423   3.979   8.836  10.285 -0.3652 -0.3460  1.0626
  693MOL0     H91424   4.012   8.686  10.205  2.3916  1.2963 -3.1213
  693MOL0     H91425   3.784   8.698  10.088  2.1019 -0.9018  0.1621
  693MOL0     H91426   3.785   8.691  10.269 -0.5322  0.3402  0.6213
  693MOL0     H91427   3.741   8.947  10.137 -1.6013 -0.3442 -1.2978
  693MOL0     H91428   3.765   8.908  10.305  0.6768 -3.2484  1.7561
  693MOL0     H91429   3.559   8.886  10.439 -0.5103 -3.0119  0.1953
  693MOL0     H91430   3.231   9.004  10.327  2.5094  1.4280  1.0542
  693MOL0     H91431   3.298   8.950  10.479  2.4878 -0.7641 -0.2765
  693MOL0     H91432   3.216   8.718  10.439 -1.6432  0.6575  2.3516
  693MOL0     H91433   3.164   8.763  10.277 -0.4383 -0.7497  0.7351
  693MOL0     H91434   2.960   8.826  10.334 -0.2417  1.1517  0.7661
  693MOL0     H91435   2.995   8.745  10.497 -2.0787  3.2865  2.0296
  693MOL0     H91436   3.024   9.048  10.416 -0.7900 -2.0440 -1.7705
  693MOL0     H91437   3.048   8.975  10.579  0.1499 -1.0421  0.5654
  693MOL0     H91438   2.903   9.053  10.234  0.3497  0.0977  0.2959
  693MOL0     H91439   2.715   9.153  10.086  1.4323 -0.8422  0.9770
  693MOL0     H91440   2.130   9.358  10.251 -1.1142 -2.5777  0.6358
  693MOL0     H91441   1.926   9.409  10.123  0.5423 -0.0369  0.5649
  693MOL0     H91442   1.760   9.256   9.911 -1.0614  0.3006  0.6486
  693MOL0     H91443   1.812   9.272   9.733  0.0713 -0.1695 -0.1359
  693MOL0     H91444   1.695   9.506   9.739  0.2003  2.3306  2.3483
  693MOL0     H91445   1.637   9.463   9.899  0.1898 -0.7383  0.4823
  693MOL0     H91446   1.499   9.266   9.777  4.0056 -0.6593  2.1592
  693MOL0     H91447   1.585   9.308   9.628  0.1977 -2.7729  0.7611
  693MOL0     H91448   1.399   9.514   9.755  0.0312  2.5462 -2.2072
  693MOL0     H91449   1.493   9.531   9.608  0.0450  0.6990  0.0702
  693MOL0     H91450   1.229   9.432   9.645 -0.9936 -1.5167 -0.8141
  693MOL0     H91451   1.329   9.281   9.632  0.5230  0.0429  0.2504
  693MOL0     H91452   1.409   9.381   9.407 -0.7667  0.8455 -2.2731
  693MOL0     H91453   1.296   9.513   9.436  1.4450 -0.1119 -2.0908
  693MOL0     H91454   1.258   9.231   9.349  1.1129  0.0758 -0.4630
  693MOL0     H91455   1.147   9.282   9.481 -0.2744  0.0835 -0.7715
  693MOL0     H91456   1.032   9.307   9.306  0.2577  0.7245 -0.1493
  693MOL0     H91457   1.143   9.409   9.213 -0.3131 -1.4063 -1.0878
  693MOL0     H91458   2.123   9.244   9.783  1.5632 -2.4733  0.8244
  693MOL0     H91459   2.311   9.171   9.919 -0.0190  0.0485  0.6235
  693MOL0     H91460   2.462   9.188  10.404  1.8396 -0.1461  2.2060
  693MOL0     H91461   2.627   9.061  10.549  2.8294  1.2508  0.9403
  693MOL0     H91462   4.645   9.028   9.700 -2.8265  0.3371  2.1409
  693MOL0     H91463   4.904   9.013   9.657 -0.0916 -3.1771 -0.0617
  693MOL0     H91464   5.328   9.123   9.896 -2.2789 -1.1418 -1.3022
  693MOL0     H91465   5.552   9.108   9.943 -2.0805  0.3125 -4.7868
  693MOL0     H91466   5.756   9.039   9.950  1.4517  1.1394  1.6429
  693MOL0     H91467   5.750   8.878   9.887  1.1967 -0.7288  0.5964
  693MOL0     H91468   5.919   8.805  10.046  3.0840  0.4248  3.4819
  693MOL0     H91469   5.981   8.938   9.944  0.1517 -1.3178 -0.3463
  693MOL0     H91470   5.890   8.953  10.229  0.3673  0.1234  0.9582
  693MOL0     H91471   5.895   9.098  10.116 -0.0743 -0.8034 -2.7623
  693MOL0     H91472   6.128   8.955  10.227 -1.7485 -1.7744 -0.2758
  693MOL0     H91473   6.124   9.076  10.087  2.2516  3.2256  1.8217
  693MOL0     H91474   6.099   9.339  10.394  0.1428  0.5585  0.0197
  693MOL0     H91475   5.502   8.720  10.128  0.8515 -0.1090  0.1911
  693MOL0     H91476   5.254   8.734  10.063 -0.1683 -0.6452  0.9038
  694MOL0     O91477   7.043   9.238   4.686  0.8866 -0.1551 -0.1311
  694MOL0     C91478   6.967   9.328   4.725 -0.7276  0.2427  0.4546
  694MOL0     O91479   6.826   9.340   4.705  0.8477 -1.0736  0.5388
  694MOL0     C91480   6.762   9.235   4.635  0.2436  0.2708  0.2620
  694MOL0     C91481   6.649   9.180   4.697  0.4904  0.1042 -0.1839
  694MOL0     C91482   6.575   9.096   4.626 -0.2868  0.2382  0.7707
  694MOL0     C91483   6.611   9.051   4.491  0.2232  0.4904  0.2261
  694MOL0     O91484   6.538   8.986   4.401 -0.2333  1.1446  0.0641
  694MOL0     C91485   6.426   8.920   4.450  0.3869  0.1721 -0.2934
  694MOL0     C91486   6.365   8.826   4.352 -0.0300 -0.2545  0.3927
  694MOL0     C91487   6.317   8.897   4.221 -0.8765 -0.2553  0.1372
  694MOL0     C91488   6.197   8.996   4.237  0.3277  0.3734  0.3690
  694MOL0     C91489   6.075   8.925   4.301 -0.1867  0.1562 -0.0147
  694MOL0     C91490   6.030   8.795   4.220  0.7092 -0.1214 -0.2707
  694MOL0     C91491   5.962   8.828   4.086 -0.5920  0.0458  0.1363
  694MOL0     C91492   5.908   8.694   4.020 -0.0245 -0.7604  0.3345
  694MOL0     N91493   5.768   8.648   4.038 -0.6247  0.6206 -0.6695
  694MOL0     C91494   5.704   8.588   4.149  0.0256 -0.5634 -0.5704
  694MOL0     C91495   5.582   8.546   4.106 -0.7881 -0.6581 -0.0575
  694MOL0     C91496   5.491   8.458   4.187  0.2844 -0.2421  0.3921
  694MOL0     C91497   5.380   8.545   4.237 -0.2894 -0.7853  0.7856
  694MOL0     C91498   5.258   8.468   4.254  0.8083  0.4510 -0.0034
  694MOL0     C91499   5.132   8.543   4.287 -0.4674 -0.7067 -0.0015
  694MOL0     O91500   5.160   8.623   4.411  0.2537 -0.2080 -0.1645
  694MOL0     C91501   5.143   8.765   4.412  0.0397 -0.7658 -0.3915
  694MOL0     C91502   5.050   8.844   4.345  0.0509 -0.3482  0.2343
  694MOL0     C91503   5.042   8.983   4.363  1.2438 -0.9328  0.7118
  694MOL0     C91504   5.145   9.051   4.434  1.1046 -0.3509  0.7384
  694MOL0     C91505   5.161   9.201   4.424 -0.0843 -1.0524  0.4232
  694MOL0     O91506   5.275   9.256   4.470 -0.5380  0.9419 -0.2455
  694MOL0     C91507   5.319   9.381   4.435  0.5978 -0.3623 -0.6148
  694MOL0     C91508   5.450   9.384   4.383  0.4715 -0.3222  0.0595
  694MOL0     C91509   5.519   9.510   4.370  0.5945  0.0979  0.0842
  694MOL0     C91510   5.456   9.629   4.411  0.6774  1.2729  1.5384
  694MOL0     O91511   5.517   9.743   4.381 -0.2462 -0.6196  0.1698
  694MOL0     C91512   5.447   9.845   4.315  0.5997 -0.5764 -0.1703
  694MOL0     C91513   5.544   9.928   4.229  0.1134  0.1688 -0.5268
  694MOL0     C91514   5.669   9.966   4.305  0.2973 -0.0500  0.3707
  694MOL0     C91515   5.640  10.033   4.438  0.5300 -0.6916  0.4746
  694MOL0     C91516   5.774  10.075   4.517 -0.0327  0.0393  0.5164
  694MOL0     C91517   5.839  10.201   4.449 -0.5027  1.0197 -0.1629
  694MOL0     C91518   5.787  10.317   4.532 -0.0136 -0.7906  0.0069
  694MOL0     C91519   5.851  10.449   4.489  0.3725 -0.6731  0.5623
  694MOL0    Cl91520   5.818  10.502   4.319  0.5401  0.5534  0.3500
  694MOL0     C91521   5.317   9.620   4.446  0.1174  0.1965 -0.4890
  694MOL0     C91522   5.249   9.499   4.451  0.7432  0.9627 -1.4829
  694MOL0     O91523   5.064   9.267   4.378 -0.3599 -0.5221 -1.0469
  694MOL0     C91524   5.242   8.972   4.499  0.3677  0.0360 -0.5549
  694MOL0     C91525   5.246   8.828   4.480  0.0282  0.0315  0.3190
  694MOL0     N91526   5.575   8.584   3.976 -0.0177  0.4614 -0.7063
  694MOL0     N91527   5.687   8.631   3.931  0.6701  0.2513 -0.6084
  694MOL0     C91528   6.733   9.105   4.435 -0.5327 -0.3597  0.1954
  694MOL0     C91529   6.805   9.197   4.508 -0.2245 -1.2062  0.4876
  694MOL0     C91530   7.034   9.446   4.785 -0.2845 -0.2700  0.3354
  694MOL0     C91531   7.161   9.437   4.843  0.0937  0.3477  0.8095
  694MOL0     C91532   7.231   9.556   4.884 -0.4022  0.6863 -0.1809
  694MOL0     C91533   7.176   9.682   4.881 -1.1884  0.6757 -0.6923
  694MOL0     O91534   7.237   9.805   4.919  0.7465  0.3794  0.0502
  694MOL0     C91535   7.376   9.816   4.878 -0.6670  0.7087 -0.3610
  694MOL0     C91536   7.427   9.931   4.965 -0.1416 -0.0757 -0.3196
  694MOL0     C91537   7.577   9.924   4.976 -0.5951  0.2815  0.4013
  694MOL0     C91538   7.636  10.046   5.044  1.0532  0.4268 -0.3189
  694MOL0     C91539   7.610  10.042   5.195  0.6933  0.8643  0.3558
  694MOL0     C91540   7.578  10.051   5.305 -0.3591  0.2859 -0.9691
  694MOL0     C91541   7.047   9.686   4.821 -0.5305  0.6217  0.0732
  694MOL0     C91542   6.985   9.575   4.779  1.4574  0.1393  0.9751
  694MOL0     H91543   6.602   9.223   4.785  1.3313  1.3386 -0.2979
  694MOL0     H91544   6.478   9.054   4.648 -1.2739  0.4002 -2.6161
  694MOL0     H91545   6.353   8.998   4.477  0.5028  0.4163 -0.6776
  694MOL0     H91546   6.451   8.858   4.536  1.2472  0.9369  0.0271
  694MOL0     H91547   6.282   8.775   4.401 -0.1324  1.2759  1.9336
  694MOL0     H91548   6.445   8.756   4.326  0.4136  0.3934 -0.0086
  694MOL0     H91549   6.295   8.823   4.144 -1.3009  0.5832 -0.5727
  694MOL0     H91550   6.400   8.955   4.180 -0.6998 -1.7137 -1.6886
  694MOL0     H91551   6.220   9.084   4.297  0.4483  0.1601  0.6364
  694MOL0     H91552   6.179   9.036   4.137  0.7119  0.9051  0.5127
  694MOL0     H91553   5.997   9.001   4.309  1.2349  1.5140  2.2783
  694MOL0     H91554   6.104   8.890   4.401 -1.0578 -0.6219 -0.0258
  694MOL0     H91555   5.950   8.740   4.271  1.0676 -1.5706 -1.2079
  694MOL0     H91556   6.114   8.726   4.207  0.6595  0.0966 -2.0418
  694MOL0     H91557   5.884   8.905   4.093 -0.9250 -0.3399  0.8279
  694MOL0     H91558   6.038   8.883   4.030 -0.7935  1.7360  1.4293
  694MOL0     H91559   5.968   8.607   4.049 -0.8953 -0.1857  4.4626
  694MOL0     H91560   5.925   8.722   3.916  0.6043  1.9703  1.0664
  694MOL0     H91561   5.754   8.568   4.244  2.3497  1.8012 -1.1634
  694MOL0     H91562   5.554   8.410   4.263  0.1114 -1.9965 -0.5318
  694MOL0     H91563   5.450   8.387   4.115 -2.2299  0.6562  0.8391
  694MOL0     H91564   5.364   8.627   4.167  2.6199  1.3800  2.4344
  694MOL0     H91565   5.417   8.577   4.335  1.7973  0.1298 -0.2520
  694MOL0     H91566   5.234   8.411   4.164 -2.8821 -0.9810  1.6961
  694MOL0     H91567   5.282   8.399   4.336 -2.4712 -0.1106  0.5981
  694MOL0     H91568   5.053   8.467   4.286  2.5037 -4.0963 -1.7274
  694MOL0     H91569   5.110   8.607   4.201  0.0763 -0.8869 -0.2785
  694MOL0     H91570   4.972   8.796   4.287 -0.2670 -2.1611  2.0229
  694MOL0     H91571   4.960   9.042   4.324 -1.0336 -2.3157  3.0241
  694MOL0     H91572   5.491   9.289   4.349  0.7638 -0.6068  1.1668
  694MOL0     H91573   5.622   9.509   4.337  1.0779  2.3039  1.3739
  694MOL0     H91574   5.400   9.911   4.388  1.5233 -1.8785  1.6822
  694MOL0     H91575   5.390   9.800   4.233  2.4897 -2.7947 -0.3951
  694MOL0     H91576   5.495  10.018   4.191 -3.3342 -1.7908 -1.0969
  694MOL0     H91577   5.570   9.866   4.143  0.0901  0.3557 -0.6697
  694MOL0     H91578   5.737  10.016   4.236 -1.2433 -1.0726 -2.0155
  694MOL0     H91579   5.728   9.876   4.324  0.4858 -0.2712 -1.1252
  694MOL0     H91580   5.562  10.109   4.429  2.0744  0.8950 -0.2588
  694MOL0     H91581   5.595   9.956   4.500  1.3156 -0.8947  0.8118
  694MOL0     H91582   5.853  10.002   4.503  0.5810  0.8250 -0.2850
  694MOL0     H91583   5.759  10.092   4.624  1.0985 -0.0571  0.7030
  694MOL0     H91584   5.825  10.197   4.341  0.8171 -1.8444 -0.3481
  694MOL0     H91585   5.947  10.196   4.470 -0.4836 -1.1673 -0.5063
  694MOL0     H91586   5.681  10.327   4.504  0.6193  0.5200 -2.1802
  694MOL0     H91587   5.797  10.295   4.639  4.1240  1.1026  0.1790
  694MOL0     H91588   5.959  10.435   4.496  0.4095 -0.6874  0.0374
  694MOL0     H91589   5.823  10.518   4.569  1.5386 -2.4690  2.6126
  694MOL0     H91590   5.266   9.716   4.453  1.9856  1.2611 -0.8790
  694MOL0     H91591   5.146   9.499   4.482  0.9889  1.0498 -0.6380
  694MOL0     H91592   5.319   9.024   4.555 -1.1108  0.5091  1.1234
  694MOL0     H91593   5.336   8.777   4.514  1.0072  1.3791 -0.1505
  694MOL0     H91594   6.760   9.074   4.334  3.6674  0.8529  0.7665
  694MOL0     H91595   6.891   9.239   4.456 -0.3159 -0.7773  0.6818
  694MOL0     H91596   7.224   9.350   4.833  0.7131  1.0826 -2.9226
  694MOL0     H91597   7.334   9.546   4.914 -0.2442  2.6475  0.0948
  694MOL0     H91598   7.385   9.857   4.777 -3.1745  1.0426 -0.5212
  694MOL0     H91599   7.435   9.724   4.891  0.6728  1.2560 -2.2383
  694MOL0     H91600   7.383  10.028   4.940  2.1753  0.9165 -0.8625
  694MOL0     H91601   7.390   9.918   5.067  3.8610 -3.3910  0.9610
  694MOL0     H91602   7.611   9.921   4.872 -3.4373 -1.6857 -0.5927
  694MOL0     H91603   7.614   9.830   5.017  0.3885  0.4246 -0.1065
  694MOL0     H91604   7.745  10.040   5.046  1.0935 -0.2898  3.5198
  694MOL0     H91605   7.610  10.142   4.999 -4.4397 -0.8160 -0.5521
  694MOL0     H91606   7.535  10.073   5.401  1.6513 -0.9001  0.2727
  694MOL0     H91607   6.987   9.776   4.835 -1.4395  0.0799 -0.2597
  694MOL0     H91608   6.891   9.581   4.726  3.2360 -1.0202 -2.6156
  695MOL0     O91609   0.056   3.442   0.520 -0.9458 -0.5494  0.3906
  695MOL0     C91610   0.068   3.321   0.536  0.2324  0.3826  0.5405
  695MOL0     O91611  -0.042   3.226   0.527 -0.4834 -0.2719 -0.2720
  695MOL0     C91612  -0.179   3.257   0.531 -0.2238 -1.4141 -0.7509
  695MOL0     C91613  -0.237   3.380   0.539  0.4276 -0.4245 -1.0952
  695MOL0     C91614  -0.373   3.402   0.545  0.0513  0.3328 -0.2199
  695MOL0     C91615  -0.459   3.294   0.527 -0.6117 -0.4482  0.2916
  695MOL0     O91616  -0.590   3.327   0.523  0.0107  0.8575  0.4669
  695MOL0     C91617  -0.687   3.225   0.520 -0.3421 -0.2511  0.1910
  695MOL0     C91618  -0.745   3.198   0.379  0.9117 -0.2829 -0.6040
  695MOL0     C91619  -0.754   3.323   0.299  0.0528 -0.5309  0.2569
  695MOL0     C91620  -0.801   3.291   0.159 -0.7853  0.6122 -0.5437
  695MOL0     C91621  -0.796   3.417   0.071 -0.5700 -0.9654 -0.4353
  695MOL0     C91622  -0.853   3.394  -0.066  0.2873  0.1677  0.1700
  695MOL0     C91623  -0.904   3.523  -0.134 -0.1816  1.0483  0.1283
  695MOL0     C91624  -0.893   3.506  -0.284  0.0843 -1.2540 -0.0218
  695MOL0     N91625  -1.028   3.475  -0.339  0.8845  0.5017 -0.4792
  695MOL0     C91626  -1.091   3.351  -0.338  1.3987 -0.4466 -1.1313
  695MOL0     C91627  -1.210   3.366  -0.411  0.0781  0.3181 -0.2164
  695MOL0     C91628  -1.307   3.259  -0.438  0.0796  0.3009 -0.9200
  695MOL0     C91629  -1.392   3.289  -0.561  0.5012 -0.5154 -0.7926
  695MOL0     C91630  -1.454   3.156  -0.623  0.0658 -0.2726  0.9648
  695MOL0     C91631  -1.562   3.076  -0.536  0.6541  0.6104 -0.1713
  695MOL0     O91632  -1.694   3.136  -0.540 -0.7946  0.0727  0.3540
  695MOL0     C91633  -1.774   3.108  -0.645  1.0605  0.3097 -0.5849
  695MOL0     C91634  -1.856   3.216  -0.683 -0.3882 -0.5239  0.7504
  695MOL0     C91635  -1.954   3.203  -0.782 -0.1059  0.2956 -0.0410
  695MOL0     C91636  -1.973   3.080  -0.846  0.2205 -0.6141  0.1532
  695MOL0     C91637  -2.080   3.071  -0.954 -0.4987 -0.4298 -0.8977
  695MOL0     O91638  -2.044   2.985  -1.048 -0.5429 -0.1109  0.4703
  695MOL0     C91639  -2.106   2.961  -1.161  0.2421 -0.1026  0.2874
  695MOL0     C91640  -2.051   2.999  -1.276 -0.0689  1.2809 -0.5348
  695MOL0     C91641  -2.125   3.011  -1.392  0.4004  0.5611  0.3577
  695MOL0     C91642  -2.267   2.981  -1.389 -0.4244 -0.2101 -1.2763
  695MOL0     O91643  -2.341   2.971  -1.508 -0.2301  0.0042  0.4524
  695MOL0     C91644  -2.435   2.862  -1.512 -0.2466  0.0685  1.0607
  695MOL0     C91645  -2.467   2.831  -1.655 -0.0309 -0.4695 -1.5801
  695MOL0     C91646  -2.557   2.705  -1.681  0.1471 -0.7564 -0.2334
  695MOL0     C91647  -2.583   2.677  -1.837 -0.1007  0.6813  0.5286
  695MOL0     C91648  -2.629   2.524  -1.866 -0.7283  0.0516 -0.1433
  695MOL0     C91649  -2.735   2.483  -1.770  0.2742  0.1815  0.0665
  695MOL0     C91650  -2.865   2.560  -1.785  0.2904 -0.2006 -0.3617
  695MOL0     C91651  -2.981   2.485  -1.716  0.4529  0.8614 -0.6037
  695MOL0    Cl91652  -3.013   2.319  -1.794 -0.0189  0.2219 -0.0931
  695MOL0     C91653  -2.328   2.942  -1.268  0.6555  0.3085 -0.1384
  695MOL0     C91654  -2.243   2.918  -1.165 -0.3794  0.5143  0.1220
  695MOL0     O91655  -2.186   3.138  -0.953 -0.4093 -0.2684  0.6131
  695MOL0     C91656  -1.890   2.970  -0.812 -0.1269  0.4665  0.5461
  695MOL0     C91657  -1.790   2.983  -0.712  0.1575 -0.6002 -0.0591
  695MOL0     N91658  -1.216   3.501  -0.440  0.2823 -0.3376  0.2259
  695MOL0     N91659  -1.112   3.565  -0.401  0.0262  0.6242  0.1898
  695MOL0     C91660  -0.408   3.163   0.518 -0.3058  1.2500 -0.4947
  695MOL0     C91661  -0.267   3.148   0.522  0.5947  0.2550  1.0569
  695MOL0     C91662   0.202   3.256   0.551  0.1436 -0.4789  0.3219
  695MOL0     C91663   0.322   3.335   0.550  0.2416  0.0181  0.6705
  695MOL0     C91664   0.445   3.273   0.562 -0.0414 -0.4840 -0.5267
  695MOL0     C91665   0.452   3.130   0.566 -0.4214 -0.3597 -0.4710
  695MOL0     O91666   0.558   3.051   0.581  0.2789 -0.8430 -0.7799
  695MOL0     C91667   0.684   3.113   0.565  0.4643 -0.2753 -0.0850
  695MOL0     C91668   0.716   3.148   0.410  0.0765  0.6559  0.0247
  695MOL0     C91669   0.740   3.017   0.331  0.7234  0.2972  0.0984
  695MOL0     C91670   0.775   3.042   0.187 -0.1462 -0.0966 -0.7024
  695MOL0     C91671   0.647   3.054   0.100 -0.8786  0.6887 -0.1976
  695MOL0     C91672   0.549   3.065   0.030  0.2310 -0.0358  0.3499
  695MOL0     C91673   0.337   3.056   0.568 -0.9581 -0.8675 -0.5667
  695MOL0     C91674   0.206   3.115   0.554  0.0050  0.1635 -0.5294
  695MOL0     H91675  -0.174   3.465   0.562  0.6502 -1.2655  1.7003
  695MOL0     H91676  -0.408   3.504   0.559 -0.7455  0.1377 -0.7195
  695MOL0     H91677  -0.759   3.272   0.589  1.8468  1.8037  1.2089
  695MOL0     H91678  -0.658   3.132   0.568 -0.0688 -1.6786 -2.5448
  695MOL0     H91679  -0.848   3.164   0.387  1.5820 -2.2072  0.5261
  695MOL0     H91680  -0.683   3.123   0.329 -1.6175 -2.5842 -0.4595
  695MOL0     H91681  -0.655   3.369   0.292  0.3934 -1.3044 -0.2642
  695MOL0     H91682  -0.834   3.384   0.341 -0.3648 -1.2018  0.4599
  695MOL0     H91683  -0.738   3.211   0.119  1.4624  1.6871  0.6896
  695MOL0     H91684  -0.907   3.264   0.162 -0.7131  0.3964  1.4308
  695MOL0     H91685  -0.694   3.450   0.050 -0.3157  0.6870  2.6872
  695MOL0     H91686  -0.844   3.500   0.125 -0.9011 -1.0886 -0.5335
  695MOL0     H91687  -0.940   3.326  -0.066  0.9032 -0.7138  2.7565
  695MOL0     H91688  -0.764   3.351  -0.113  0.9109 -0.3049  1.7218
  695MOL0     H91689  -1.003   3.560  -0.107 -2.4301 -1.6010 -3.5454
  695MOL0     H91690  -0.831   3.602  -0.118  1.2665  1.1693 -5.1956
  695MOL0     H91691  -0.820   3.429  -0.309 -0.0852 -1.0247 -1.2828
  695MOL0     H91692  -0.862   3.602  -0.326 -0.2031 -1.2370 -0.1993
  695MOL0     H91693  -1.057   3.256  -0.298  1.8297  0.6712  1.3325
  695MOL0     H91694  -1.365   3.249  -0.346 -0.5053 -0.0096 -1.3184
  695MOL0     H91695  -1.265   3.162  -0.466 -1.7821 -0.4444 -1.2873
  695MOL0     H91696  -1.336   3.345  -0.636  0.3244  2.2166  0.9246
  695MOL0     H91697  -1.480   3.350  -0.534  0.9436 -0.4549  0.5926
  695MOL0     H91698  -1.510   3.192  -0.709 -0.2448 -0.3830  1.1192
  695MOL0     H91699  -1.370   3.095  -0.657 -2.1462 -2.6677 -0.5397
  695MOL0     H91700  -1.532   3.067  -0.431  0.3875  1.6854  0.0059
  695MOL0     H91701  -1.569   2.971  -0.565  2.7016  0.4825 -0.3257
  695MOL0     H91702  -1.844   3.310  -0.631  3.0901  0.7862 -1.9582
  695MOL0     H91703  -2.012   3.291  -0.809 -1.5708  0.7317  3.7515
  695MOL0     H91704  -1.944   3.016  -1.282  0.0035  0.5922 -1.3084
  695MOL0     H91705  -2.084   3.030  -1.491 -0.5617  0.0119 -0.1588
  695MOL0     H91706  -2.525   2.896  -1.460  0.1435  1.6713  0.7564
  695MOL0     H91707  -2.399   2.774  -1.458  1.9445  1.5184  2.1285
  695MOL0     H91708  -2.377   2.818  -1.716  1.0086 -0.7103 -0.0652
  695MOL0     H91709  -2.529   2.915  -1.686  0.6574  1.8528  2.5938
  695MOL0     H91710  -2.655   2.718  -1.633 -0.2345 -0.8950 -0.9544
  695MOL0     H91711  -2.513   2.615  -1.638 -1.1370 -0.8540  0.9768
  695MOL0     H91712  -2.652   2.754  -1.873  0.9194  2.3749  2.0183
  695MOL0     H91713  -2.482   2.695  -1.876 -0.6395 -0.0554 -1.3077
  695MOL0     H91714  -2.547   2.454  -1.844 -0.7428 -0.1075 -0.5994
  695MOL0     H91715  -2.659   2.505  -1.969  3.2227  0.6416 -1.5778
  695MOL0     H91716  -2.696   2.494  -1.668 -0.4670 -2.2971  0.6964
  695MOL0     H91717  -2.754   2.376  -1.774 -0.1630  0.2120  1.0545
  695MOL0     H91718  -2.857   2.659  -1.737 -4.3964 -0.1269  0.7926
  695MOL0     H91719  -2.899   2.566  -1.889  0.7432 -1.6249 -0.6039
  695MOL0     H91720  -3.069   2.551  -1.720 -0.1745  0.1538  0.7225
  695MOL0     H91721  -2.965   2.472  -1.608  1.2443 -0.7539 -0.8909
  695MOL0     H91722  -2.430   2.906  -1.265  2.2523 -5.2444  2.2516
  695MOL0     H91723  -2.297   2.904  -1.071 -0.7823 -2.1656 -0.4218
  695MOL0     H91724  -1.905   2.883  -0.875  0.0201  2.2354 -2.1127
  695MOL0     H91725  -1.718   2.903  -0.700  2.6593  0.4755 -5.2148
  695MOL0     H91726  -0.461   3.069   0.507  1.9848 -0.2294  0.3160
  695MOL0     H91727  -0.212   3.055   0.516  1.4936  0.8608 -1.4823
  695MOL0     H91728   0.313   3.443   0.550 -1.7789 -0.1040 -0.8778
  695MOL0     H91729   0.531   3.337   0.572  0.9834 -2.0409  1.3051
  695MOL0     H91730   0.760   3.040   0.596  1.4558 -0.0433 -1.8300
  695MOL0     H91731   0.693   3.204   0.624 -0.9346  0.0585 -0.3475
  695MOL0     H91732   0.626   3.194   0.369 -0.8089  0.5519  1.7433
  695MOL0     H91733   0.802   3.216   0.408  1.5513 -1.1372 -0.6809
  695MOL0     H91734   0.666   2.940   0.355  1.7587 -0.3469  1.3530
  695MOL0     H91735   0.824   2.967   0.381  0.5828 -0.8974 -0.7894
  695MOL0     H91736   0.840   3.130   0.181 -0.4137  0.4695  2.6390
  695MOL0     H91737   0.831   2.959   0.143  1.3427  0.6692 -0.2957
  695MOL0     H91738   0.469   3.091  -0.036  0.5997 -1.7273 -0.8281
  695MOL0     H91739   0.345   2.951   0.595  2.2902  0.2414  3.9271
  695MOL0     H91740   0.126   3.043   0.541  0.4173 -0.7302  1.6132
  696MOL0     O91741   7.769   1.767   8.590 -0.0096  0.1597 -0.4373
  696MOL0     C91742   7.788   1.751   8.464 -0.2313 -0.1670 -0.2885
  696MOL0     O91743   7.696   1.741   8.366  0.0215  0.5057  0.2910
  696MOL0     C91744   7.559   1.737   8.389 -0.4780 -0.3036 -0.2992
  696MOL0     C91745   7.482   1.754   8.507 -0.0587  0.3009  0.9067
  696MOL0     C91746   7.343   1.757   8.506  0.0168 -0.2712  0.0614
  696MOL0     C91747   7.275   1.736   8.380  0.3293 -0.0234 -1.4537
  696MOL0     O91748   7.138   1.744   8.351  0.4800  0.6376  0.2032
  696MOL0     C91749   7.048   1.809   8.446 -0.9328  0.8070 -0.0711
  696MOL0     C91750   6.908   1.814   8.377 -0.1140 -0.6593 -0.3441
  696MOL0     C91751   6.799   1.837   8.484  0.7271  0.6101  0.1324
  696MOL0     C91752   6.657   1.829   8.421  1.4238  0.0361  0.5727
  696MOL0     C91753   6.547   1.817   8.531 -1.0342  0.0278 -0.4357
  696MOL0     C91754   6.448   1.711   8.494  1.0536 -0.9409  1.0433
  696MOL0     C91755   6.323   1.727   8.585 -0.2644 -0.3283  0.3421
  696MOL0     C91756   6.248   1.595   8.591 -0.0755 -0.6210  0.4047
  696MOL0     N91757   6.133   1.595   8.684 -0.2517 -0.5562  0.0807
  696MOL0     C91758   6.031   1.690   8.689  1.4129 -1.0930 -0.3604
  696MOL0     C91759   5.967   1.674   8.809 -0.9218  0.5125  0.1768
  696MOL0     C91760   5.835   1.740   8.858  0.6339  0.5774 -0.4626
  696MOL0     C91761   5.808   1.728   9.007 -0.7359  1.1387 -0.5997
  696MOL0     C91762   5.677   1.797   9.070  0.5847 -0.4618 -0.2022
  696MOL0     C91763   5.540   1.752   9.004  0.0541 -0.5287  0.3020
  696MOL0     O91764   5.429   1.812   9.068 -0.0949 -0.3615  0.4339
  696MOL0     C91765   5.308   1.776   9.035  0.0645  0.6491  0.0667
  696MOL0     C91766   5.211   1.814   9.135  0.8636  0.3469  0.5492
  696MOL0     C91767   5.081   1.785   9.120  1.0128  0.4515 -0.0797
  696MOL0     C91768   5.043   1.709   9.014  0.3081 -0.1772  0.4987
  696MOL0     C91769   4.896   1.691   9.001  1.3499  0.2647  0.1916
  696MOL0     O91770   4.811   1.771   9.083 -0.1863  0.6669 -0.4154
  696MOL0     C91771   4.682   1.788   9.046  0.3182 -0.4011  0.5278
  696MOL0     C91772   4.666   1.886   8.953 -0.4953 -0.5767 -0.0850
  696MOL0     C91773   4.540   1.928   8.918  0.7716 -0.1750 -0.1155
  696MOL0     C91774   4.422   1.858   8.959 -0.0742 -0.8780 -0.1548
  696MOL0     O91775   4.301   1.900   8.909 -0.1569 -0.1460  0.1382
  696MOL0     C91776   4.177   1.843   8.969 -0.1939  0.2802  0.4157
  696MOL0     C91777   4.056   1.905   8.901 -0.6179 -0.8820 -0.8721
  696MOL0     C91778   3.918   1.841   8.933 -0.0736  0.1278 -0.2779
  696MOL0     C91779   3.816   1.906   8.845  0.0006 -0.2836  1.0852
  696MOL0     C91780   3.683   1.853   8.890 -0.1973  0.9177 -0.4947
  696MOL0     C91781   3.568   1.943   8.833  0.4102  0.4148 -0.0858
  696MOL0     C91782   3.559   2.076   8.895  0.0222  0.5212  1.5970
  696MOL0     C91783   3.438   2.151   8.852  0.0386 -0.1648 -0.1116
  696MOL0    Cl91784   3.299   2.083   8.936 -0.0743 -0.2720 -0.3123
  696MOL0     C91785   4.444   1.753   9.052 -0.5127  0.4691  0.2117
  696MOL0     C91786   4.568   1.712   9.096  0.1217 -0.6024  0.0028
  696MOL0     O91787   4.857   1.612   8.910  0.3080 -0.2299  0.3331
  696MOL0     C91788   5.132   1.658   8.928  0.1234  0.3510 -0.3338
  696MOL0     C91789   5.272   1.692   8.928  0.2326  0.0741 -0.2824
  696MOL0     N91790   6.040   1.572   8.880 -0.0059  0.2959  0.5026
  696MOL0     N91791   6.134   1.527   8.807 -0.3249 -0.8007 -0.3316
  696MOL0     C91792   7.346   1.693   8.272 -0.6252 -0.3321 -0.3053
  696MOL0     C91793   7.486   1.700   8.278 -0.0703 -0.3640  0.5782
  696MOL0     C91794   7.925   1.709   8.422 -0.0000 -0.6061  1.0766
  696MOL0     C91795   7.969   1.688   8.285  0.5249  0.1906 -0.4994
  696MOL0     C91796   8.101   1.648   8.253  0.4535 -0.0415 -0.7399
  696MOL0     C91797   8.187   1.634   8.358 -0.5494  0.3806  0.3625
  696MOL0     O91798   8.314   1.609   8.318  0.1048 -0.0834 -0.1409
  696MOL0     C91799   8.413   1.651   8.419 -1.3034 -0.6449 -0.0111
  696MOL0     C91800   8.549   1.708   8.355 -0.1853 -0.4571 -0.3529
  696MOL0     C91801   8.671   1.724   8.454 -0.4889  0.0096 -0.4557
  696MOL0     C91802   8.635   1.840   8.545 -0.2255  0.2234 -1.1393
  696MOL0     C91803   8.740   1.869   8.639  0.0125 -0.5276 -0.6669
  696MOL0     C91804   8.834   1.883   8.719 -0.4473  0.4746 -0.7818
  696MOL0     C91805   8.143   1.625   8.490 -0.1134 -0.2734  0.1578
  696MOL0     C91806   8.009   1.660   8.521  0.3233 -0.7541  0.3149
  696MOL0     H91807   7.534   1.771   8.601  1.4034  1.0548  0.0143
  696MOL0     H91808   7.293   1.789   8.597 -0.7756  1.7167 -0.9917
  696MOL0     H91809   7.088   1.905   8.479 -1.0970  1.4785 -1.7207
  696MOL0     H91810   7.044   1.742   8.532 -0.1449  0.2070 -0.4907
  696MOL0     H91811   6.884   1.729   8.312 -0.8338  0.7447 -1.9725
  696MOL0     H91812   6.910   1.900   8.310 -1.8848 -1.9748 -2.2008
  696MOL0     H91813   6.812   1.922   8.552  1.6988 -0.7245  1.7019
  696MOL0     H91814   6.805   1.750   8.551 -0.3186  0.3385 -0.1052
  696MOL0     H91815   6.624   1.918   8.367 -3.3577 -1.4626  0.5717
  696MOL0     H91816   6.646   1.753   8.343 -1.0515  0.1182  0.7449
  696MOL0     H91817   6.505   1.918   8.537 -1.1312 -0.0728  1.2053
  696MOL0     H91818   6.606   1.802   8.622 -0.2012 -1.0759 -1.1331
  696MOL0     H91819   6.475   1.605   8.490 -2.1362 -1.8600  1.2274
  696MOL0     H91820   6.402   1.728   8.396  1.2234  0.9928  1.2699
  696MOL0     H91821   6.342   1.760   8.687 -1.2757  0.1344  0.3938
  696MOL0     H91822   6.264   1.809   8.542  2.7288  1.3238 -1.0268
  696MOL0     H91823   6.307   1.522   8.647 -0.5683  0.2239  2.1177
  696MOL0     H91824   6.242   1.555   8.490  3.2491  0.4658 -0.3511
  696MOL0     H91825   5.996   1.747   8.603 -2.2045 -2.0809  0.2953
  696MOL0     H91826   5.750   1.697   8.804  0.8347  2.6914 -2.6566
  696MOL0     H91827   5.839   1.841   8.816 -2.7763  1.1699  0.3567
  696MOL0     H91828   5.893   1.769   9.063  0.7612 -3.3290  0.7903
  696MOL0     H91829   5.816   1.623   9.038  2.4490  1.5557  0.3194
  696MOL0     H91830   5.657   1.770   9.174 -0.1994  2.1423  0.4051
  696MOL0     H91831   5.693   1.905   9.063 -2.5359  0.1591  0.7437
  696MOL0     H91832   5.539   1.643   9.011  1.6131 -0.7140 -1.6109
  696MOL0     H91833   5.549   1.772   8.897  0.4565 -1.7375  0.0977
  696MOL0     H91834   5.251   1.854   9.228 -0.2334  0.0397  1.1708
  696MOL0     H91835   5.011   1.815   9.198 -0.5306 -0.4545 -1.0655
  696MOL0     H91836   4.750   1.938   8.909 -2.1494  2.1393 -0.2557
  696MOL0     H91837   4.530   2.004   8.840 -0.4094 -0.3591 -0.1611
  696MOL0     H91838   4.168   1.865   9.076 -1.0688 -0.2161  0.4538
  696MOL0     H91839   4.166   1.739   8.937 -0.4165  0.2072  0.7177
  696MOL0     H91840   4.078   1.910   8.794  0.2018 -2.5111 -0.7979
  696MOL0     H91841   4.056   2.009   8.937 -0.8438 -0.9440 -0.6933
  696MOL0     H91842   3.894   1.842   9.039 -1.1894  2.5843 -0.4844
  696MOL0     H91843   3.915   1.734   8.914 -1.9553  0.0069  0.4403
  696MOL0     H91844   3.815   2.015   8.860 -1.9672 -0.3243  1.4472
  696MOL0     H91845   3.829   1.891   8.738  2.0202  3.3371  0.6335
  696MOL0     H91846   3.679   1.845   8.999  1.6368  1.5457 -0.3427
  696MOL0     H91847   3.671   1.754   8.845  2.3591  0.7948 -1.0269
  696MOL0     H91848   3.468   1.902   8.851 -0.6690  3.0055  0.3892
  696MOL0     H91849   3.582   1.952   8.725 -1.7685 -1.8598 -0.6497
  696MOL0     H91850   3.561   2.067   9.004 -2.3672  1.1118  1.7484
  696MOL0     H91851   3.645   2.141   8.881 -0.0831  0.4865  0.7517
  696MOL0     H91852   3.430   2.143   8.743 -3.6889 -0.2127  0.0232
  696MOL0     H91853   3.449   2.259   8.866  0.2027  0.1463 -2.2995
  696MOL0     H91854   4.356   1.706   9.093 -0.6952  0.7075  0.0980
  696MOL0     H91855   4.582   1.634   9.169  1.3965 -0.0308  0.4049
  696MOL0     H91856   5.101   1.604   8.839  1.1211 -0.5393 -0.1571
  696MOL0     H91857   5.345   1.642   8.864  1.6600  1.7439 -0.0201
  696MOL0     H91858   7.294   1.665   8.182 -3.2640  0.4391  0.8646
  696MOL0     H91859   7.543   1.670   8.191 -0.3515  2.2954 -0.6136
  696MOL0     H91860   7.900   1.703   8.202  0.1185 -0.0031 -0.2003
  696MOL0     H91861   8.128   1.640   8.148  2.9091  0.4146 -0.1872
  696MOL0     H91862   8.443   1.569   8.486 -1.6488 -0.4839  0.3436
  696MOL0     H91863   8.371   1.732   8.480 -0.8400 -0.5672  0.2158
  696MOL0     H91864   8.581   1.649   8.269 -1.7054  0.6080 -1.7108
  696MOL0     H91865   8.519   1.805   8.312 -1.7241 -0.1331  1.3385
  696MOL0     H91866   8.773   1.739   8.417  0.6349 -1.9958  1.5486
  696MOL0     H91867   8.669   1.631   8.511  4.1665 -0.2738 -0.3843
  696MOL0     H91868   8.640   1.927   8.478  1.2042  0.7285 -0.4246
  696MOL0     H91869   8.543   1.826   8.602  0.5095  2.8177  0.9029
  696MOL0     H91870   8.917   1.876   8.786 -1.1045  0.8844  0.1072
  696MOL0     H91871   8.206   1.584   8.568  0.7259  0.4293 -0.1352
  696MOL0     H91872   7.985   1.658   8.626 -0.4755  0.5934  0.1738
  697MOL0     O91873   7.778   2.529   0.185  0.6768  0.8342  0.4944
  697MOL0     C91874   7.754   2.601   0.281 -0.8748  0.1716 -0.1137
  697MOL0     O91875   7.838   2.593   0.398  0.0520 -0.8642 -0.0602
  697MOL0     C91876   7.939   2.494   0.398  0.9306  0.0139  0.5347
  697MOL0     C91877   7.953   2.417   0.515  0.1197  0.0778  0.2232
  697MOL0     C91878   8.044   2.325   0.527 -0.6185  0.1421 -0.9191
  697MOL0     C91879   8.144   2.309   0.429  0.4546  0.4903 -0.0730
  697MOL0     O91880   8.247   2.217   0.449  0.1333  0.4395 -0.7013
  697MOL0     C91881   8.302   2.218   0.581  0.0859 -0.2333 -0.0621
  697MOL0     C91882   8.445   2.177   0.570 -0.3669 -0.6754  0.2628
  697MOL0     C91883   8.520   2.210   0.705  0.5509 -0.3443 -1.1842
  697MOL0     C91884   8.494   2.118   0.825 -0.2362  0.2843  0.3318
  697MOL0     C91885   8.579   2.157   0.945 -0.2682 -0.1000 -0.8956
  697MOL0     C91886   8.507   2.258   1.037  0.6831  0.0432  0.5960
  697MOL0     C91887   8.594   2.283   1.161  0.5770  0.5350  0.2623
  697MOL0     C91888   8.688   2.397   1.126 -0.3700 -0.0364 -0.2931
  697MOL0     N91889   8.777   2.420   1.237  0.2500 -0.0845  0.2508
  697MOL0     C91890   8.772   2.540   1.291 -0.7980 -0.4581 -0.3809
  697MOL0     C91891   8.888   2.547   1.372  0.4930 -0.2269  0.2206
  697MOL0     C91892   8.928   2.653   1.475 -0.5601 -0.2598 -0.3929
  697MOL0     C91893   8.818   2.668   1.583 -0.0404  0.0850  0.6257
  697MOL0     C91894   8.662   2.695   1.563  0.1798 -0.2597 -0.4459
  697MOL0     C91895   8.639   2.807   1.458 -0.3099 -0.2516 -0.1458
  697MOL0     O91896   8.531   2.768   1.364 -1.1313 -0.7105  0.1098
  697MOL0     C91897   8.406   2.806   1.399  0.3342  0.3643  0.3150
  697MOL0     C91898   8.370   2.891   1.505 -0.1059 -0.7432 -0.1833
  697MOL0     C91899   8.237   2.937   1.510 -0.0541  0.4685  0.1242
  697MOL0     C91900   8.136   2.886   1.429  1.3571  0.3298 -1.0886
  697MOL0     C91901   8.005   2.937   1.458 -0.7562 -0.4245 -0.6840
  697MOL0     O91902   7.910   2.900   1.375  0.2334 -0.8407  0.0956
  697MOL0     C91903   7.783   2.944   1.392 -1.0903 -0.4493  0.5317
  697MOL0     C91904   7.676   2.868   1.432 -0.5244  0.5893  0.1048
  697MOL0     C91905   7.548   2.924   1.434  0.9805  0.8424 -0.6030
  697MOL0     C91906   7.519   3.058   1.421  0.3606  0.8366 -0.7283
  697MOL0     O91907   7.389   3.107   1.423 -0.5841  0.4299  0.4432
  697MOL0     C91908   7.356   3.202   1.527 -0.1835 -0.1192 -0.4267
  697MOL0     C91909   7.263   3.311   1.471  0.1816 -0.4939  0.0268
  697MOL0     C91910   7.165   3.271   1.360 -0.1932  0.7459 -0.3652
  697MOL0     C91911   7.049   3.377   1.353 -0.3569  0.8066 -0.5362
  697MOL0     C91912   6.980   3.375   1.223 -0.2129  1.2433  0.5102
  697MOL0     C91913   6.848   3.456   1.216  0.4571 -1.1444 -0.2302
  697MOL0     C91914   6.809   3.459   1.066  0.0826 -1.1858 -0.3461
  697MOL0     C91915   6.678   3.553   1.063 -0.9691 -0.4576  0.0207
  697MOL0    Cl91916   6.692   3.635   0.905  0.0662 -0.0221 -0.0038
  697MOL0     C91917   7.629   3.144   1.393 -1.2346 -0.0697 -0.5199
  697MOL0     C91918   7.760   3.082   1.381  0.2045  0.2233  0.0751
  697MOL0     O91919   7.985   2.986   1.569 -1.2362  0.5578  0.1815
  697MOL0     C91920   8.164   2.788   1.328 -0.0468 -0.6493  0.3853
  697MOL0     C91921   8.303   2.754   1.314  0.2332 -0.4119  0.5003
  697MOL0     N91922   8.966   2.435   1.339  1.0550 -0.0877  0.9814
  697MOL0     N91923   8.894   2.358   1.263 -0.4647 -0.2268  0.2942
  697MOL0     C91924   8.125   2.382   0.309 -0.3793  0.6776  1.1987
  697MOL0     C91925   8.027   2.482   0.294 -0.1924 -0.8878  0.0203
  697MOL0     C91926   7.646   2.699   0.281 -0.4038 -0.4453 -0.5535
  697MOL0     C91927   7.543   2.692   0.186 -0.7704 -0.1587 -0.0560
  697MOL0     C91928   7.433   2.772   0.186  0.3592  0.0373 -0.5629
  697MOL0     C91929   7.413   2.871   0.285  0.4919 -0.8822  0.3818
  697MOL0     O91930   7.297   2.943   0.279  0.3983  0.5574 -0.2873
  697MOL0     C91931   7.305   3.077   0.324  0.4048 -0.0615  0.3533
  697MOL0     C91932   7.184   3.148   0.270  0.1334 -0.0774  0.0869
  697MOL0     C91933   7.176   3.173   0.118  0.3529  0.3133 -0.2847
  697MOL0     C91934   7.039   3.138   0.060  0.0344  0.0270 -0.4275
  697MOL0     C91935   7.043   3.184  -0.081  0.5414 -0.6351 -0.2559
  697MOL0     C91936   7.045   3.222  -0.200  0.3630 -0.2018  0.3429
  697MOL0     C91937   7.520   2.899   0.375  0.8872  0.0805 -0.3342
  697MOL0     C91938   7.639   2.813   0.377 -0.0788 -0.1400  0.7985
  697MOL0     H91939   7.878   2.422   0.593 -1.7135 -0.6874 -1.3760
  697MOL0     H91940   8.025   2.245   0.598  1.2498 -0.5230 -1.1143
  697MOL0     H91941   8.247   2.159   0.655 -0.4065  2.8818  2.2706
  697MOL0     H91942   8.303   2.325   0.606 -0.0412 -0.6481  1.8869
  697MOL0     H91943   8.489   2.227   0.484 -0.6501 -3.4728 -1.6370
  697MOL0     H91944   8.457   2.071   0.547 -1.7221 -1.6255  3.3046
  697MOL0     H91945   8.491   2.313   0.730  0.8305 -0.8335  1.4908
  697MOL0     H91946   8.626   2.209   0.678  0.7209 -0.4205 -0.5207
  697MOL0     H91947   8.388   2.114   0.853 -0.1120 -0.9363  0.6981
  697MOL0     H91948   8.519   2.016   0.794 -2.1859  0.1708 -1.0787
  697MOL0     H91949   8.676   2.193   0.911 -0.3771 -0.8383 -2.0174
  697MOL0     H91950   8.599   2.072   1.011 -0.7601 -1.3092 -2.2655
  697MOL0     H91951   8.415   2.212   1.074 -0.4551  0.7971 -1.1687
  697MOL0     H91952   8.486   2.352   0.984  2.4167  1.0284  1.5648
  697MOL0     H91953   8.529   2.296   1.249 -0.8418  3.1526 -1.0714
  697MOL0     H91954   8.658   2.200   1.192  1.3602  1.4908  1.3007
  697MOL0     H91955   8.634   2.488   1.098 -0.2384  0.5325  1.1710
  697MOL0     H91956   8.749   2.367   1.041  0.0825 -0.3032  0.1153
  697MOL0     H91957   8.703   2.622   1.272  1.3283  2.1606  2.2377
  697MOL0     H91958   8.959   2.752   1.441  0.5033 -0.8775 -1.2842
  697MOL0     H91959   9.018   2.611   1.522  1.2155  0.7211 -2.7376
  697MOL0     H91960   8.851   2.757   1.639  0.4533 -0.6161  1.4812
  697MOL0     H91961   8.821   2.577   1.644 -5.3507 -1.1792 -0.5279
  697MOL0     H91962   8.621   2.601   1.525  0.6793  0.0955 -1.9485
  697MOL0     H91963   8.611   2.714   1.658  0.4579 -1.6781  0.0129
  697MOL0     H91964   8.732   2.821   1.402  0.5373 -2.2019  0.6788
  697MOL0     H91965   8.619   2.901   1.509  0.4867 -0.8965  1.4386
  697MOL0     H91966   8.440   2.944   1.569 -0.3464  1.9301 -1.9837
  697MOL0     H91967   8.211   2.996   1.597  2.1771  0.0527  1.1563
  697MOL0     H91968   7.706   2.764   1.436 -2.8232 -0.1605 -0.7757
  697MOL0     H91969   7.469   2.852   1.449  0.5122  1.2500 -1.0704
  697MOL0     H91970   7.442   3.253   1.571 -0.0524 -2.1425  1.9140
  697MOL0     H91971   7.320   3.161   1.622  1.8440 -0.3082  0.3296
  697MOL0     H91972   7.337   3.386   1.442  0.2095  0.5295  2.4533
  697MOL0     H91973   7.205   3.350   1.555 -2.7565 -1.4834 -1.4023
  697MOL0     H91974   7.123   3.175   1.391 -0.4754  1.2125  0.7434
  697MOL0     H91975   7.220   3.271   1.265 -0.3950  1.0112 -0.4836
  697MOL0     H91976   6.973   3.351   1.428  1.6713 -0.9460  1.0521
  697MOL0     H91977   7.084   3.479   1.373 -0.7157  1.4789 -2.9956
  697MOL0     H91978   6.947   3.276   1.193  0.8463  0.8335  0.6713
  697MOL0     H91979   7.041   3.429   1.150 -1.1288  2.1757  0.3963
  697MOL0     H91980   6.877   3.554   1.254  2.6838 -1.6854 -0.3540
  697MOL0     H91981   6.765   3.417   1.276 -0.2293 -0.2850 -0.6105
  697MOL0     H91982   6.892   3.500   1.008  1.4331  0.1952  2.3712
  697MOL0     H91983   6.802   3.360   1.020  2.3919 -0.7550 -1.7644
  697MOL0     H91984   6.690   3.625   1.146 -0.8739 -1.9751  1.3725
  697MOL0     H91985   6.586   3.498   1.081 -0.6517 -0.8461  0.4984
  697MOL0     H91986   7.617   3.251   1.387 -1.9059 -0.1951 -1.6938
  697MOL0     H91987   7.842   3.151   1.364  1.7338  0.1876  5.3700
  697MOL0     H91988   8.113   2.772   1.234  0.3422 -0.2018  0.1022
  697MOL0     H91989   8.350   2.692   1.238  4.8200  0.2405  2.4458
  697MOL0     H91990   8.197   2.366   0.229 -0.9973 -2.8769  1.2267
  697MOL0     H91991   8.027   2.542   0.204  3.1684  2.3690  1.9361
  697MOL0     H91992   7.572   2.619   0.111  0.1269  3.2440 -3.3203
  697MOL0     H91993   7.365   2.768   0.102  1.6147 -1.1807 -1.5571
  697MOL0     H91994   7.400   3.119   0.291  0.6180 -0.4439  0.4870
  697MOL0     H91995   7.309   3.077   0.433 -0.3438 -1.1663  0.3931
  697MOL0     H91996   7.094   3.101   0.312 -0.1011  2.9077  3.4536
  697MOL0     H91997   7.182   3.246   0.319 -0.0531  0.1633 -0.3955
  697MOL0     H91998   7.252   3.107   0.075 -1.3558 -3.0496  1.4662
  697MOL0     H91999   7.213   3.274   0.100  1.4834  0.0923  0.6662
  697MOL0     H92000   7.013   3.032   0.048  0.4437  0.1033 -2.2848
  697MOL0     H92001   6.957   3.192   0.109 -1.0754 -1.5968 -0.3996
  697MOL0     H92002   7.057   3.240  -0.305  3.1495  1.3078  0.8169
  697MOL0     H92003   7.512   2.974   0.453 -1.3128  1.9627 -2.1921
  697MOL0     H92004   7.717   2.830   0.451 -0.3173 -1.9971  1.5098
  698MOL0     O92005   9.044   0.657   3.286 -0.2582  0.3838 -0.1700
  698MOL0     C92006   9.080   0.760   3.336  0.4519 -0.0691 -1.0104
  698MOL0     O92007   8.990   0.855   3.381  0.5529 -0.6164 -0.2488
  698MOL0     C92008   8.851   0.832   3.389  0.3954 -0.0852  0.2711
  698MOL0     C92009   8.778   0.818   3.274 -0.6548  0.8074  0.0859
  698MOL0     C92010   8.636   0.823   3.282 -0.1401 -0.1517 -0.0379
  698MOL0     C92011   8.573   0.856   3.407 -0.1935  0.2954 -0.2409
  698MOL0     O92012   8.440   0.859   3.423  0.1157 -0.9869 -1.0151
  698MOL0     C92013   8.354   0.910   3.323  0.4712  0.4628  0.2188
  698MOL0     C92014   8.378   1.057   3.273 -0.0087 -0.1347 -0.0335
  698MOL0     C92015   8.402   1.155   3.393 -0.8801 -0.5295  0.1642
  698MOL0     C92016   8.437   1.299   3.356  0.6397 -0.2849  0.5581
  698MOL0     C92017   8.565   1.322   3.282  0.9580  0.2575 -0.0386
  698MOL0     C92018   8.689   1.245   3.336  0.3217 -0.5078 -0.5399
  698MOL0     C92019   8.828   1.291   3.288  0.4723 -0.7326 -0.0359
  698MOL0     C92020   8.923   1.182   3.303 -0.1781  0.7602 -0.6836
  698MOL0     N92021   9.056   1.233   3.272 -0.1169 -0.8454  0.3573
  698MOL0     C92022   9.103   1.278   3.149  0.4353 -0.2925  0.0913
  698MOL0     C92023   9.232   1.302   3.163 -0.6366  0.0053 -0.7107
  698MOL0     C92024   9.330   1.348   3.055  0.4411  0.3095  0.9969
  698MOL0     C92025   9.478   1.337   3.098  0.3690 -0.0771  0.7683
  698MOL0     C92026   9.563   1.388   2.976 -0.5411  0.7570 -0.0239
  698MOL0     C92027   9.710   1.404   3.021  0.6656 -0.1409  0.2578
  698MOL0     O92028   9.784   1.458   2.913 -0.4359  0.2420 -0.3608
  698MOL0     C92029   9.876   1.555   2.942  0.2319  1.2528 -1.5811
  698MOL0     C92030  10.010   1.502   2.935  0.5735 -0.6825  0.8250
  698MOL0     C92031  10.120   1.582   2.974 -0.3528 -0.0909 -1.1368
  698MOL0     C92032  10.098   1.718   3.018 -0.4411 -0.4088 -0.1309
  698MOL0     C92033  10.209   1.809   3.047 -0.0247 -0.2252  0.2071
  698MOL0     O92034  10.331   1.747   3.061  0.1941 -0.5343 -0.1680
  698MOL0     C92035  10.444   1.822   3.091  0.3837  0.6282 -0.2230
  698MOL0     C92036  10.472   1.953   3.043  0.6990  0.3163  1.1891
  698MOL0     C92037  10.596   2.007   3.081 -0.7938 -0.1149  0.1927
  698MOL0     C92038  10.690   1.941   3.163  0.1790  0.4548  0.3540
  698MOL0     O92039  10.806   2.015   3.189 -0.7433 -0.3273 -0.8493
  698MOL0     C92040  10.927   1.951   3.146 -0.4727 -0.3759  0.6452
  698MOL0     C92041  10.941   1.966   2.993 -0.4389 -0.8128  0.8618
  698MOL0     C92042  10.976   2.112   2.947 -0.4385 -0.3412  0.1301
  698MOL0     C92043  11.060   2.124   2.820 -0.1188 -0.3684  0.4712
  698MOL0     C92044  11.201   2.068   2.826  0.0031 -0.4953 -0.4220
  698MOL0     C92045  11.296   2.154   2.909 -0.8259 -0.3673 -0.3725
  698MOL0     C92046  11.430   2.092   2.911 -0.2846  0.4054  0.3522
  698MOL0     C92047  11.544   2.199   2.893 -0.3273  0.3289 -0.8872
  698MOL0    Cl92048  11.705   2.140   2.916  0.2806 -0.0407 -0.1611
  698MOL0     C92049  10.657   1.812   3.212 -0.6210 -0.2150 -0.1060
  698MOL0     C92050  10.538   1.753   3.172  0.2126 -0.8042  0.0767
  698MOL0     O92051  10.194   1.929   3.062  1.0839  0.2854 -0.6069
  698MOL0     C92052   9.964   1.767   3.020 -0.0455  0.1000  0.2638
  698MOL0     C92053   9.857   1.685   2.984 -0.6194 -0.0440  0.5575
  698MOL0     N92054   9.269   1.279   3.298  0.4581 -0.5407  0.1419
  698MOL0     N92055   9.163   1.240   3.358 -0.3033  0.2304 -0.4196
  698MOL0     C92056   8.647   0.839   3.520 -0.1166 -0.1295  0.0075
  698MOL0     C92057   8.787   0.834   3.515 -0.6517 -0.2360 -0.4429
  698MOL0     C92058   9.229   0.781   3.359  0.4620 -0.0662  0.0157
  698MOL0     C92059   9.316   0.671   3.368 -1.0768  0.3974  0.4609
  698MOL0     C92060   9.460   0.695   3.369 -0.3296  0.0488  0.0909
  698MOL0     C92061   9.500   0.829   3.350  0.1445 -0.8218 -0.3173
  698MOL0     O92062   9.633   0.868   3.344  0.2759 -0.2634 -0.0827
  698MOL0     C92063   9.722   0.773   3.281  0.4288 -0.1788  0.2266
  698MOL0     C92064   9.848   0.845   3.253  0.1439 -0.2370 -0.3131
  698MOL0     C92065   9.945   0.766   3.172 -0.2915  0.1480  0.4136
  698MOL0     C92066  10.078   0.833   3.126  0.0530 -0.0246  0.3768
  698MOL0     C92067  10.058   0.891   2.995 -0.3344  0.1108 -1.3057
  698MOL0     C92068  10.034   0.931   2.886  0.1024 -0.2084 -0.9677
  698MOL0     C92069   9.407   0.932   3.377 -0.3704  0.4148 -0.2573
  698MOL0     C92070   9.273   0.909   3.376  0.2258 -0.9178 -0.0979
  698MOL0     H92071   8.831   0.816   3.179  3.2763 -2.1472  2.0504
  698MOL0     H92072   8.571   0.823   3.195 -0.6640 -0.3841  0.3446
  698MOL0     H92073   8.257   0.909   3.373  0.9105  0.5925  1.0824
  698MOL0     H92074   8.351   0.836   3.242  1.9112  0.6644 -0.0451
  698MOL0     H92075   8.284   1.095   3.232 -0.9665 -2.0113  0.3102
  698MOL0     H92076   8.468   1.059   3.210  0.6079  0.5991  0.8473
  698MOL0     H92077   8.490   1.119   3.448  0.6333  0.3650 -1.5779
  698MOL0     H92078   8.304   1.162   3.441 -1.6260 -0.8729 -1.2607
  698MOL0     H92079   8.353   1.347   3.305  0.2571 -2.8697 -1.4852
  698MOL0     H92080   8.445   1.350   3.452 -1.8479  1.9226 -0.2861
  698MOL0     H92081   8.584   1.430   3.279  3.1259  0.0255  1.8130
  698MOL0     H92082   8.549   1.292   3.179 -0.9728  0.3991  0.1992
  698MOL0     H92083   8.682   1.140   3.309  0.4254 -0.2357 -1.6784
  698MOL0     H92084   8.679   1.253   3.445 -0.8001 -1.8541 -0.5131
  698MOL0     H92085   8.822   1.306   3.180  0.5113 -0.9760 -0.0736
  698MOL0     H92086   8.852   1.389   3.330  0.6086  0.3055 -2.3949
  698MOL0     H92087   8.901   1.096   3.239 -0.9993  0.9518 -0.6701
  698MOL0     H92088   8.917   1.146   3.406 -1.8888  3.8151  0.3910
  698MOL0     H92089   9.047   1.292   3.057  0.2948  1.7309  0.4398
  698MOL0     H92090   9.296   1.450   3.039 -1.8363 -0.5108  0.1782
  698MOL0     H92091   9.328   1.289   2.962  1.8767 -1.3806  1.9652
  698MOL0     H92092   9.497   1.232   3.123 -1.3721 -1.0122 -1.5284
  698MOL0     H92093   9.503   1.392   3.189  0.3798 -0.1910  0.8351
  698MOL0     H92094   9.554   1.315   2.895  0.7069  0.9524 -0.3670
  698MOL0     H92095   9.532   1.487   2.942  0.5076  0.5931 -1.5364
  698MOL0     H92096   9.748   1.303   3.042 -0.4878 -0.7484 -0.4951
  698MOL0     H92097   9.719   1.460   3.114  2.5724  0.3066 -0.1448
  698MOL0     H92098  10.021   1.397   2.912 -1.2704 -1.0966  1.6629
  698MOL0     H92099  10.219   1.541   2.959  1.4462  3.2023  0.5600
  698MOL0     H92100  10.412   2.014   2.976  3.4200  1.2939 -0.5453
  698MOL0     H92101  10.608   2.106   3.040 -3.7090  1.9982  3.8378
  698MOL0     H92102  10.920   1.843   3.158  0.9731 -0.3472  2.0429
  698MOL0     H92103  11.020   1.989   3.190  1.3763 -1.1315 -2.3509
  698MOL0     H92104  10.854   1.938   2.934 -0.2610  1.0622 -0.4032
  698MOL0     H92105  11.011   1.896   2.947 -0.5201  0.5717 -1.5614
  698MOL0     H92106  11.031   2.171   3.022  0.2292 -1.1031  0.2500
  698MOL0     H92107  10.880   2.164   2.939  0.2606  0.9832  0.0410
  698MOL0     H92108  11.001   2.072   2.744  0.2724 -1.3227  0.8064
  698MOL0     H92109  11.067   2.231   2.798  1.8564 -0.0793  2.1775
  698MOL0     H92110  11.245   2.061   2.726  0.1890  1.3164 -0.4903
  698MOL0     H92111  11.203   1.964   2.859 -0.5470 -0.1886  0.6217
  698MOL0     H92112  11.268   2.166   3.014  0.4076  2.6444 -0.2856
  698MOL0     H92113  11.299   2.256   2.871 -0.7715 -0.5318 -0.8124
  698MOL0     H92114  11.448   2.057   3.013  2.0806  0.3256 -0.0379
  698MOL0     H92115  11.441   2.007   2.843  1.4326 -0.4516  1.6280
  698MOL0     H92116  11.538   2.269   2.976 -0.8365  0.2082 -0.8176
  698MOL0     H92117  11.538   2.260   2.803 -1.7293  1.6875  0.0653
  698MOL0     H92118  10.732   1.758   3.271  2.3435  2.8512 -0.7703
  698MOL0     H92119  10.519   1.659   3.223  1.1431 -0.5884  0.8560
  698MOL0     H92120   9.939   1.870   3.044 -0.3040  0.3018 -0.8188
  698MOL0     H92121   9.753   1.716   2.981 -0.9833 -1.2740  0.1372
  698MOL0     H92122   8.590   0.833   3.612 -1.7926 -1.5726 -1.0571
  698MOL0     H92123   8.854   0.826   3.601 -0.7344 -2.0254 -0.5030
  698MOL0     H92124   9.269   0.573   3.365 -0.3422  0.0534 -1.4737
  698MOL0     H92125   9.519   0.604   3.358  0.9047  0.8024  0.3124
  698MOL0     H92126   9.677   0.723   3.195  2.1581 -2.6944  0.6734
  698MOL0     H92127   9.749   0.693   3.351  0.1476  2.3202  3.4427
  698MOL0     H92128   9.829   0.936   3.196 -0.8512  2.3751  3.7472
  698MOL0     H92129   9.888   0.872   3.351  0.1162 -3.5267  0.7154
  698MOL0     H92130   9.892   0.732   3.082 -0.1385 -1.9772  1.0879
  698MOL0     H92131   9.968   0.675   3.228 -2.4986  2.3958  5.6629
  698MOL0     H92132  10.093   0.915   3.197 -1.5422 -0.4534  1.2455
  698MOL0     H92133  10.161   0.761   3.132 -1.5501 -1.9730  0.3306
  698MOL0     H92134   9.992   0.958   2.792 -2.5125  0.2436  0.2458
  698MOL0     H92135   9.443   1.033   3.393  0.9082 -0.1826  0.8111
  698MOL0     H92136   9.201   0.990   3.383  2.0713  0.8265 -0.4754
  699MOL0     O92137   4.309   8.344  10.603 -0.2136 -0.0984  0.1039
  699MOL0     C92138   4.273   8.462  10.580 -0.0000  0.0961  0.2201
  699MOL0     O92139   4.177   8.529  10.648  0.1880 -0.0684  0.7981
  699MOL0     C92140   4.124   8.457  10.737  0.2557  0.5982  0.2197
  699MOL0     C92141   4.191   8.448  10.861  0.3004  0.1510 -0.3621
  699MOL0     C92142   4.128   8.377  10.969 -0.7766 -0.4040 -0.0822
  699MOL0     C92143   3.998   8.312  10.951 -0.8342 -0.1376  0.0412
  699MOL0     O92144   3.937   8.248  11.056 -0.1712 -0.1896  0.2826
  699MOL0     C92145   3.992   8.264  11.194 -0.0624  0.6018 -0.0639
  699MOL0     C92146   3.903   8.211  11.312 -0.6250  0.2190  0.6951
  699MOL0     C92147   3.795   8.302  11.358 -0.0674  0.4876 -0.5334
  699MOL0     C92148   3.703   8.354  11.250  0.6731  0.1241  0.7960
  699MOL0     C92149   3.556   8.342  11.286 -0.8607 -0.4525  0.6656
  699MOL0     C92150   3.479   8.384  11.160  0.0053  0.3013  0.5792
  699MOL0     C92151   3.330   8.352  11.180 -0.0959 -0.5566 -0.5381
  699MOL0     C92152   3.229   8.382  11.073 -0.3166  0.5616  0.1007
  699MOL0     N92153   3.094   8.339  11.091  0.3209  0.0044 -0.0748
  699MOL0     C92154   3.028   8.267  10.997  0.4309 -0.2104 -0.6412
  699MOL0     C92155   2.895   8.281  11.026  0.6307  0.4244  0.4665
  699MOL0     C92156   2.787   8.225  10.945  0.1722 -0.4069 -0.1060
  699MOL0     C92157   2.744   8.335  10.848  0.1735  0.9484 -0.3193
  699MOL0     C92158   2.661   8.261  10.739 -0.2325 -0.6547  0.4631
  699MOL0     C92159   2.539   8.187  10.794 -0.5134  0.2640  0.2263
  699MOL0     O92160   2.453   8.262  10.874 -0.2343 -0.4606  0.9636
  699MOL0     C92161   2.326   8.301  10.835 -0.9877 -0.0413  0.6228
  699MOL0     C92162   2.285   8.435  10.826 -0.0562  0.7306 -0.1312
  699MOL0     C92163   2.164   8.472  10.784 -0.2860  0.0143  0.2746
  699MOL0     C92164   2.066   8.373  10.753 -0.2575 -0.5529 -0.0539
  699MOL0     C92165   1.927   8.416  10.717 -0.4779 -1.0070 -0.8553
  699MOL0     O92166   1.915   8.538  10.644  0.1922  0.5272 -0.1410
  699MOL0     C92167   1.813   8.546  10.556  0.4058  0.1346  0.0837
  699MOL0     C92168   1.678   8.548  10.581  0.7401 -0.3092 -0.8422
  699MOL0     C92169   1.577   8.560  10.493 -0.1241 -0.2653  0.0286
  699MOL0     C92170   1.616   8.588  10.362  1.2521 -0.6302 -0.3538
  699MOL0     O92171   1.504   8.600  10.276  0.1415  0.5674  0.4181
  699MOL0     C92172   1.521   8.632  10.137 -0.0098  0.6545  0.1546
  699MOL0     C92173   1.393   8.694  10.065  0.5406 -0.6153 -0.8726
  699MOL0     C92174   1.445   8.766   9.937  0.2883 -0.7317 -0.0528
  699MOL0     C92175   1.322   8.815   9.860  0.1938  0.4224 -0.0143
  699MOL0     C92176   1.356   8.827   9.712 -0.6996  0.1078  0.0465
  699MOL0     C92177   1.234   8.784   9.621  0.7793 -0.0117 -0.2528
  699MOL0     C92178   1.264   8.827   9.481 -0.2762  0.7354 -0.0014
  699MOL0     C92179   1.171   8.811   9.367 -0.3073 -0.1200 -0.2967
  699MOL0    Cl92180   1.233   8.871   9.210 -0.1526 -0.3737  0.4188
  699MOL0     C92181   1.755   8.589  10.322 -0.2037 -0.0215 -0.1188
  699MOL0     C92182   1.849   8.575  10.421  0.5992 -0.1141  0.1540
  699MOL0     O92183   1.834   8.330  10.730  0.0140 -0.2090 -0.4037
  699MOL0     C92184   2.096   8.240  10.758 -0.8967  0.6093 -0.4163
  699MOL0     C92185   2.230   8.203  10.799  0.0315 -0.3089 -0.2342
  699MOL0     N92186   2.872   8.347  11.148  0.3727  0.4742  0.2717
  699MOL0     N92187   2.997   8.392  11.174  0.2058  0.2840 -0.5452
  699MOL0     C92188   3.940   8.323  10.822  0.9612  0.4393  1.0689
  699MOL0     C92189   3.992   8.400  10.718  0.5690  1.1346  0.0423
  699MOL0     C92190   4.351   8.522  10.467 -0.2485  0.0450 -0.4201
  699MOL0     C92191   4.453   8.460  10.404 -0.6158 -0.5395  0.5815
  699MOL0     C92192   4.535   8.523  10.311  1.0576 -0.6924  0.3455
  699MOL0     C92193   4.505   8.653  10.266 -0.2810 -0.0201  0.3712
  699MOL0     O92194   4.596   8.708  10.180 -0.7066 -0.2039 -0.2445
  699MOL0     C92195   4.630   8.842  10.202 -0.2546 -0.5060 -0.7475
  699MOL0     C92196   4.729   8.856  10.321  1.3812  0.1597  0.4340
  699MOL0     C92197   4.870   8.845  10.269 -0.9387  0.1673 -0.0790
  699MOL0     C92198   4.981   8.826  10.366 -0.5544  0.1752  0.2797
  699MOL0     C92199   4.968   8.689  10.425  0.5844  0.0124 -0.5349
  699MOL0     C92200   4.943   8.587  10.487 -0.0249 -0.1619  0.5679
  699MOL0     C92201   4.397   8.717  10.325  0.4085 -0.3297 -1.0287
  699MOL0     C92202   4.313   8.645  10.419 -0.0793 -0.3846  0.4181
  699MOL0     H92203   4.285   8.498  10.884 -1.0976  2.3101  1.0252
  699MOL0     H92204   4.177   8.375  11.066  2.6397 -0.4618 -1.6554
  699MOL0     H92205   4.018   8.369  11.200  2.0236  0.0934  0.5700
  699MOL0     H92206   4.081   8.200  11.199 -0.1470  0.5091  3.9632
  699MOL0     H92207   3.974   8.177  11.388 -1.2796 -2.0302  0.3728
  699MOL0     H92208   3.860   8.117  11.278  1.0896  0.2613 -1.8736
  699MOL0     H92209   3.829   8.382  11.424  2.5042 -0.5837 -0.4233
  699MOL0     H92210   3.733   8.249  11.431 -1.5062  1.7058 -0.8223
  699MOL0     H92211   3.720   8.460  11.228  0.3887 -0.0837 -0.5172
  699MOL0     H92212   3.716   8.298  11.156  0.3510  1.0072  0.2170
  699MOL0     H92213   3.540   8.414  11.367 -2.3115 -1.3845  1.2532
  699MOL0     H92214   3.530   8.240  11.316 -0.8629 -1.1369 -1.4883
  699MOL0     H92215   3.510   8.322  11.075  0.4623 -0.5510  1.3457
  699MOL0     H92216   3.503   8.487  11.132 -1.2514  0.4735  0.0716
  699MOL0     H92217   3.323   8.246  11.203 -1.4951 -0.5354 -0.7809
  699MOL0     H92218   3.296   8.409  11.268 -1.0076 -0.8452 -0.6952
  699MOL0     H92219   3.262   8.330  10.983  0.8500  2.4205 -0.6104
  699MOL0     H92220   3.222   8.490  11.055 -5.2115  0.3198 -0.7575
  699MOL0     H92221   3.068   8.209  10.914  1.3319 -2.6232  1.3474
  699MOL0     H92222   2.703   8.222  11.016  0.9559  2.0961  1.0273
  699MOL0     H92223   2.811   8.130  10.897  2.5156 -0.1795  0.5136
  699MOL0     H92224   2.826   8.398  10.813  0.8031  0.4696  0.2616
  699MOL0     H92225   2.669   8.393  10.902 -0.4749 -0.6431  0.5646
  699MOL0     H92226   2.616   8.333  10.670 -0.9114 -3.0151 -1.7012
  699MOL0     H92227   2.731   8.196  10.685 -0.2548 -2.2512  2.2164
  699MOL0     H92228   2.580   8.107  10.856  2.4703  1.0255 -0.6167
  699MOL0     H92229   2.469   8.155  10.716  1.4032  3.3965 -3.0422
  699MOL0     H92230   2.357   8.510  10.858  1.9825 -0.7840 -1.0096
  699MOL0     H92231   2.126   8.574  10.793 -1.8215 -0.2255 -2.3631
  699MOL0     H92232   1.638   8.536  10.681  2.0996  0.3465 -0.2067
  699MOL0     H92233   1.473   8.544  10.518  0.2409 -0.5601  1.4438
  699MOL0     H92234   1.545   8.539  10.086  0.7332  0.6541  0.4879
  699MOL0     H92235   1.605   8.702  10.131  1.1729 -0.6413  0.9703
  699MOL0     H92236   1.368   8.774  10.134 -0.3083 -0.7475 -1.0205
  699MOL0     H92237   1.311   8.629  10.033  1.0148  0.3126 -4.4131
  699MOL0     H92238   1.499   8.686   9.885  3.7306  1.4225 -0.1081
  699MOL0     H92239   1.513   8.852   9.936  0.6134 -0.9609  1.4319
  699MOL0     H92240   1.244   8.739   9.868 -1.2246  1.4673 -2.6149
  699MOL0     H92241   1.289   8.912   9.899 -2.0954  0.2041 -1.2499
  699MOL0     H92242   1.444   8.763   9.700 -2.9431 -3.6988  1.7697
  699MOL0     H92243   1.394   8.926   9.685 -1.0015 -0.1287 -1.3070
  699MOL0     H92244   1.140   8.833   9.648 -0.2636 -2.7280  1.3744
  699MOL0     H92245   1.219   8.676   9.625  0.4812  0.0634  1.1685
  699MOL0     H92246   1.290   8.933   9.481  2.1897  0.2051 -1.5951
  699MOL0     H92247   1.359   8.780   9.456 -0.1775  1.6587 -1.4613
  699MOL0     H92248   1.078   8.865   9.387  0.0568  0.4678 -0.1750
  699MOL0     H92249   1.149   8.704   9.362  1.9291 -0.5792 -1.7294
  699MOL0     H92250   1.789   8.613  10.222  1.0100 -0.9018  0.0603
  699MOL0     H92251   1.954   8.586  10.397  1.0240  0.6836  2.1371
  699MOL0     H92252   2.023   8.165  10.728 -0.0029 -0.5874  0.3181
  699MOL0     H92253   2.246   8.096  10.805 -2.9298 -0.7996  0.8407
  699MOL0     H92254   3.848   8.266  10.823 -0.0364  2.0105  1.0029
  699MOL0     H92255   3.942   8.398  10.622 -0.2556  1.0608  0.4638
  699MOL0     H92256   4.488   8.362  10.433  0.5076  0.0581  1.3247
  699MOL0     H92257   4.623   8.472  10.271  2.1121 -2.0722  3.9900
  699MOL0     H92258   4.535   8.894  10.219  0.5487  0.9732 -0.5781
  699MOL0     H92259   4.675   8.871  10.107 -0.9302 -1.8918 -1.5240
  699MOL0     H92260   4.711   8.949  10.376 -2.1584  1.2704 -2.1593
  699MOL0     H92261   4.711   8.773  10.390  2.7829 -1.5814 -1.1894
  699MOL0     H92262   4.880   8.945  10.225  1.5170  0.8190  1.7691
  699MOL0     H92263   4.882   8.773  10.188  4.1935 -0.6619  1.0762
  699MOL0     H92264   5.078   8.840  10.318 -0.9136 -1.7673 -1.1608
  699MOL0     H92265   4.968   8.898  10.447  1.8954  1.8203 -0.6972
  699MOL0     H92266   4.904   8.508  10.549  1.2353  0.0798  1.7102
  699MOL0     H92267   4.363   8.819  10.305 -0.2193 -0.1058  0.9396
  699MOL0     H92268   4.227   8.694  10.464 -2.6242 -1.3519 -2.9932
  700MOL0     O92269   2.595   3.466   2.418 -0.4882  0.1026 -0.4096
  700MOL0     C92270   2.710   3.466   2.379  0.5084 -0.3072  0.9873
  700MOL0     O92271   2.755   3.521   2.269  0.1738  0.3092 -0.4000
  700MOL0     C92272   2.674   3.586   2.183 -0.4639  0.0532  0.6309
  700MOL0     C92273   2.549   3.649   2.206  0.7369 -0.0983 -0.2646
  700MOL0     C92274   2.490   3.720   2.100 -0.7195 -0.9060  0.3139
  700MOL0     C92275   2.558   3.739   1.980 -0.2034  0.3416 -1.2262
  700MOL0     O92276   2.512   3.821   1.880 -0.6220 -0.2512  0.5565
  700MOL0     C92277   2.374   3.857   1.875  0.9948 -0.4031  0.6752
  700MOL0     C92278   2.287   3.744   1.819  0.0382  0.5886  0.8663
  700MOL0     C92279   2.310   3.729   1.667 -0.2397  0.4738  0.3344
  700MOL0     C92280   2.207   3.637   1.603 -1.2607  0.7676  0.0086
  700MOL0     C92281   2.206   3.487   1.643  0.3004  0.0016  0.9098
  700MOL0     C92282   2.125   3.404   1.541  0.0952 -0.1649 -0.8895
  700MOL0     C92283   2.181   3.249   1.557 -0.4661 -0.4701  0.3274
  700MOL0     C92284   2.103   3.142   1.485 -1.0116  0.4309  0.1034
  700MOL0     N92285   1.962   3.129   1.519  0.1301  0.5427 -0.6595
  700MOL0     C92286   1.919   3.107   1.650  0.5165  0.1158  0.4407
  700MOL0     C92287   1.787   3.064   1.637 -0.5636 -0.6886  0.0213
  700MOL0     C92288   1.693   3.017   1.751 -0.4415  0.5919  0.1388
  700MOL0     C92289   1.701   2.859   1.759 -0.0437  0.0621  0.9334
  700MOL0     C92290   1.643   2.782   1.631 -0.7492  0.8751  0.2363
  700MOL0     C92291   1.491   2.794   1.599 -1.1102  0.0633 -0.5162
  700MOL0     O92292   1.420   2.760   1.719 -0.5034  0.3211  0.3267
  700MOL0     C92293   1.293   2.703   1.703  0.7546  0.0597 -0.2727
  700MOL0     C92294   1.224   2.660   1.820 -0.5172  0.9227 -0.3505
  700MOL0     C92295   1.095   2.600   1.816 -0.1810  0.6915 -0.1880
  700MOL0     C92296   1.039   2.570   1.691  0.2694 -0.3666 -0.2360
  700MOL0     C92297   0.899   2.507   1.685  0.4289 -0.0742  0.2577
  700MOL0     O92298   0.820   2.510   1.797 -0.3381  0.0062 -0.4794
  700MOL0     C92299   0.698   2.454   1.783  0.6849 -0.9864  0.3302
  700MOL0     C92300   0.675   2.328   1.832 -0.5314 -1.2302 -0.1290
  700MOL0     C92301   0.549   2.269   1.833  0.1286 -0.3906  0.1099
  700MOL0     C92302   0.444   2.327   1.759  0.1451 -0.1160 -0.0678
  700MOL0     O92303   0.325   2.266   1.732 -0.3618  0.0504 -0.3342
  700MOL0     C92304   0.242   2.225   1.837  0.1634 -0.5270  0.1578
  700MOL0     C92305   0.093   2.214   1.803 -0.6897  0.8565 -0.0034
  700MOL0     C92306   0.011   2.164   1.921  0.4460  0.2095 -0.2528
  700MOL0     C92307  -0.142   2.201   1.913 -0.2425  0.0321 -0.7636
  700MOL0     C92308  -0.231   2.132   2.021 -0.3604  0.0024  0.2914
  700MOL0     C92309  -0.381   2.154   1.997  0.6219  0.3043  0.3133
  700MOL0     C92310  -0.445   2.050   1.913 -0.3325  0.3890  0.1180
  700MOL0     C92311  -0.593   2.017   1.961 -0.9711  0.5364  0.0315
  700MOL0    Cl92312  -0.704   2.155   1.987  0.1749  0.5574  0.5114
  700MOL0     C92313   0.474   2.452   1.694 -0.5788  0.2159 -0.2070
  700MOL0     C92314   0.594   2.513   1.713  0.2022 -0.1049 -0.1808
  700MOL0     O92315   0.866   2.474   1.574  0.4455  0.7743 -0.4237
  700MOL0     C92316   1.111   2.598   1.572 -0.4171  0.6271  0.1753
  700MOL0     C92317   1.225   2.672   1.581 -0.5654 -0.0541 -0.3207
  700MOL0     N92318   1.754   3.079   1.501 -0.1089  0.5270 -0.5150
  700MOL0     N92319   1.862   3.108   1.433 -0.0616 -0.1936  0.7772
  700MOL0     C92320   2.683   3.678   1.963 -0.5225 -0.1760  0.0278
  700MOL0     C92321   2.742   3.601   2.061 -0.6851 -0.1877  0.0904
  700MOL0     C92322   2.820   3.413   2.473  0.5040  0.0701 -0.4007
  700MOL0     C92323   2.955   3.455   2.457 -0.1773  0.0549 -0.8619
  700MOL0     C92324   3.054   3.388   2.537 -0.1597  0.1104 -0.1843
  700MOL0     C92325   3.023   3.286   2.622  0.2449 -0.3097  0.0301
  700MOL0     O92326   3.132   3.213   2.683 -0.2200 -0.7411  0.8539
  700MOL0     C92327   3.114   3.147   2.802 -0.3230 -0.3833 -0.0605
  700MOL0     C92328   3.092   3.247   2.906 -0.1581 -0.2599  0.2961
  700MOL0     C92329   2.999   3.193   3.026  1.0451 -0.2442  0.5248
  700MOL0     C92330   2.849   3.163   2.981 -0.6112  0.5783  1.0196
  700MOL0     C92331   2.766   3.286   2.972 -0.4066  0.8165  0.6126
  700MOL0     C92332   2.718   3.393   2.953  0.8780  0.5761 -0.3399
  700MOL0     C92333   2.891   3.259   2.637 -0.0682  0.2460  0.1521
  700MOL0     C92334   2.784   3.309   2.556 -0.5105  0.7734 -1.2976
  700MOL0     H92335   2.497   3.642   2.301  0.0402 -1.4350 -0.7252
  700MOL0     H92336   2.395   3.765   2.128  1.3692  3.5859  0.9316
  700MOL0     H92337   2.363   3.951   1.819  0.4510  0.7888  2.6864
  700MOL0     H92338   2.341   3.886   1.975  0.1478 -0.2881  0.3648
  700MOL0     H92339   2.185   3.776   1.840  0.4272  2.5020  0.0405
  700MOL0     H92340   2.290   3.652   1.878 -0.5656  1.1531  1.7851
  700MOL0     H92341   2.413   3.695   1.651  0.7997  3.6469 -0.6089
  700MOL0     H92342   2.313   3.824   1.612  2.7433  0.9303  1.0775
  700MOL0     H92343   2.114   3.693   1.614 -0.2294  2.5720 -0.1854
  700MOL0     H92344   2.215   3.648   1.495  0.0064  3.0303  0.2721
  700MOL0     H92345   2.162   3.474   1.742 -2.1678 -0.7397 -0.1934
  700MOL0     H92346   2.309   3.450   1.641 -0.4323 -2.3804  2.4998
  700MOL0     H92347   2.147   3.442   1.441 -0.2992  4.3013  0.4641
  700MOL0     H92348   2.016   3.407   1.551  0.2149 -0.4425  0.7929
  700MOL0     H92349   2.281   3.253   1.513 -0.7456  1.4095 -0.1962
  700MOL0     H92350   2.186   3.227   1.664  2.2481 -0.4830  0.2643
  700MOL0     H92351   2.143   3.041   1.498 -1.0592  0.6517  2.3046
  700MOL0     H92352   2.108   3.163   1.377 -0.8241 -0.9404 -0.1768
  700MOL0     H92353   1.970   3.121   1.745 -0.3826  0.5503  0.8659
  700MOL0     H92354   1.594   3.061   1.732 -0.3956  0.3317 -0.7407
  700MOL0     H92355   1.726   3.044   1.851  0.7034 -0.2321 -0.0007
  700MOL0     H92356   1.658   2.819   1.852 -3.6229  0.2018 -0.5131
  700MOL0     H92357   1.805   2.827   1.766 -0.0304 -0.1712 -0.2295
  700MOL0     H92358   1.694   2.816   1.541 -0.1947 -2.4189 -0.8542
  700MOL0     H92359   1.672   2.677   1.643 -1.2460  0.4350 -2.0075
  700MOL0     H92360   1.467   2.733   1.512 -0.4377 -0.9006 -0.0436
  700MOL0     H92361   1.462   2.898   1.580 -3.6888 -0.4778 -0.0030
  700MOL0     H92362   1.279   2.692   1.907  1.6149  0.1500 -1.3562
  700MOL0     H92363   1.038   2.590   1.908  0.7386  1.0516  0.4437
  700MOL0     H92364   0.758   2.276   1.878 -1.0329 -1.0437  1.0244
  700MOL0     H92365   0.529   2.172   1.878 -1.3065  0.8454  2.2903
  700MOL0     H92366   0.247   2.305   1.911  1.1011 -0.8425  0.4403
  700MOL0     H92367   0.291   2.139   1.882  2.2975 -0.5016 -1.9151
  700MOL0     H92368   0.068   2.153   1.716 -1.2766  1.5217 -0.3106
  700MOL0     H92369   0.063   2.315   1.773 -1.8023 -0.2998 -3.2228
  700MOL0     H92370   0.059   2.202   2.012 -0.7222  0.8824  0.0997
  700MOL0     H92371   0.019   2.055   1.921 -1.3947 -0.0928 -4.6096
  700MOL0     H92372  -0.164   2.308   1.918  1.0833  0.4108 -2.1074
  700MOL0     H92373  -0.175   2.157   1.819 -0.0886 -1.9344  0.0575
  700MOL0     H92374  -0.215   2.182   2.117 -1.7989  0.6481  0.2236
  700MOL0     H92375  -0.206   2.026   2.028  3.1536  0.5637 -1.3939
  700MOL0     H92376  -0.400   2.251   1.949 -2.5719 -1.6830 -3.0007
  700MOL0     H92377  -0.435   2.163   2.091  1.2484  3.2282  0.4896
  700MOL0     H92378  -0.449   2.083   1.809 -0.4882  2.6531  0.7946
  700MOL0     H92379  -0.388   1.957   1.920 -0.6309  0.0849 -1.2437
  700MOL0     H92380  -0.605   1.945   2.042 -0.7814 -0.2823 -0.6526
  700MOL0     H92381  -0.640   1.965   1.877  0.0297  1.6629 -1.2760
  700MOL0     H92382   0.402   2.498   1.627 -1.2774 -1.8697 -0.9849
  700MOL0     H92383   0.620   2.603   1.659  1.7733  1.6091  3.1491
  700MOL0     H92384   1.073   2.577   1.472  4.3032 -2.3986 -1.2984
  700MOL0     H92385   1.272   2.691   1.485  1.3689  1.5876  0.8437
  700MOL0     H92386   2.736   3.696   1.870 -2.3488  1.2631 -0.8045
  700MOL0     H92387   2.833   3.544   2.042 -0.0404  0.4899  1.0153
  700MOL0     H92388   2.980   3.529   2.383 -2.5578  0.3149 -1.4796
  700MOL0     H92389   3.162   3.402   2.535 -0.0469 -0.4631  1.1305
  700MOL0     H92390   3.205   3.092   2.828  0.3141  0.2859 -0.8189
  700MOL0     H92391   3.033   3.075   2.799  0.0313 -0.7500 -2.1464
  700MOL0     H92392   3.193   3.272   2.940  0.6152  1.0248 -2.6998
  700MOL0     H92393   3.052   3.340   2.865  1.4918 -0.9832 -3.2584
  700MOL0     H92394   2.994   3.271   3.102  3.7255  3.4080 -2.6061
  700MOL0     H92395   3.043   3.104   3.072  3.9018  0.7735 -0.0510
  700MOL0     H92396   2.848   3.111   2.885  0.1227  0.6169  0.9869
  700MOL0     H92397   2.799   3.101   3.056 -1.0894 -0.2978  0.0014
  700MOL0     H92398   2.685   3.494   2.939 -1.7298 -0.2250 -0.4171
  700MOL0     H92399   2.859   3.174   2.696  0.7936  0.5429  1.0821
  700MOL0     H92400   2.686   3.263   2.562  1.0974 -2.9170 -0.1301
  701MOL0     O92401   7.211  10.171   8.208 -0.7765  0.2014  0.4977
  701MOL0     C92402   7.245  10.289   8.223 -0.1516  1.2326 -0.7815
  701MOL0     O92403   7.168  10.388   8.278 -0.0739 -0.3168 -0.0965
  701MOL0     C92404   7.035  10.351   8.294  0.0122  0.2306  0.2878
  701MOL0     C92405   6.987  10.258   8.386 -0.2162  0.1630  0.4321
  701MOL0     C92406   6.849  10.244   8.413  0.1538 -0.3163 -0.7087
  701MOL0     C92407   6.747  10.314   8.345 -1.0152 -0.6381  0.1817
  701MOL0     O92408   6.616  10.289   8.363  0.7166 -0.1848  0.3880
  701MOL0     C92409   6.564  10.250   8.486 -0.4845 -0.1021 -0.4965
  701MOL0     C92410   6.416  10.282   8.497 -0.0393 -0.1780 -0.1813
  701MOL0     C92411   6.401  10.426   8.540  0.4542  0.3817 -0.1293
  701MOL0     C92412   6.251  10.462   8.522  0.3353 -1.4905  0.0964
  701MOL0     C92413   6.247  10.603   8.587  1.1166  0.5042 -0.4214
  701MOL0     C92414   6.114  10.677   8.562  0.1917 -0.6013  0.1627
  701MOL0     C92415   5.996  10.648   8.657  1.2285 -1.0091 -1.0060
  701MOL0     C92416   5.881  10.748   8.617 -0.0048 -0.6362  0.2226
  701MOL0     N92417   5.801  10.703   8.508 -0.0754 -0.2750  0.1326
  701MOL0     C92418   5.676  10.646   8.515 -0.8328 -0.2981  0.4300
  701MOL0     C92419   5.632  10.637   8.385 -0.0558 -0.8209  0.3630
  701MOL0     C92420   5.495  10.597   8.336  0.4138 -0.1503 -0.0135
  701MOL0     C92421   5.377  10.628   8.430  0.7021 -0.4773  0.1145
  701MOL0     C92422   5.250  10.559   8.378  0.3017  0.3476  0.1721
  701MOL0     C92423   5.128  10.589   8.463 -0.8779 -0.4094 -0.0813
  701MOL0     O92424   5.032  10.485   8.442 -0.8654  0.3564 -0.2190
  701MOL0     C92425   4.907  10.505   8.507  0.0981 -0.3011 -0.4128
  701MOL0     C92426   4.852  10.599   8.589  0.5074  0.4719 -0.2921
  701MOL0     C92427   4.722  10.597   8.637 -0.5760  0.2306  0.5247
  701MOL0     C92428   4.636  10.500   8.592 -0.4477  0.0287 -0.0672
  701MOL0     C92429   4.494  10.498   8.637 -0.6204  0.2502 -0.3187
  701MOL0     O92430   4.444  10.581   8.731 -0.6836  0.4573 -0.0408
  701MOL0     C92431   4.320  10.549   8.775 -0.7185  0.5769 -0.0701
  701MOL0     C92432   4.312  10.438   8.864  0.0187 -0.0020 -0.1257
  701MOL0     C92433   4.192  10.410   8.916  0.8831  0.5732  0.4991
  701MOL0     C92434   4.073  10.474   8.874 -0.1777  0.2828  0.4485
  701MOL0     O92435   3.956  10.428   8.918  0.5678  0.6072  0.3417
  701MOL0     C92436   3.845  10.504   8.925  0.5332  0.1743  0.2362
  701MOL0     C92437   3.739  10.405   8.979  0.3610 -0.7346  0.5351
  701MOL0     C92438   3.612  10.479   9.005  0.7933 -0.0942 -0.4211
  701MOL0     C92439   3.492  10.397   9.057 -0.1916 -1.5724 -0.5644
  701MOL0     C92440   3.356  10.479   9.067 -0.5418 -0.1767  0.1629
  701MOL0     C92441   3.368  10.601   9.158 -0.1976 -0.1027 -0.7748
  701MOL0     C92442   3.382  10.574   9.308 -0.1354  0.4635 -0.8973
  701MOL0     C92443   3.264  10.505   9.379 -0.2054 -0.9588 -0.1351
  701MOL0    Cl92444   3.149  10.633   9.448 -0.3650  0.0728  0.3016
  701MOL0     C92445   4.079  10.577   8.775  0.4236  0.8350 -0.2490
  701MOL0     C92446   4.204  10.616   8.735 -0.6120  0.1901 -0.2579
  701MOL0     O92447   4.425  10.418   8.578  0.4208  0.0800  0.3424
  701MOL0     C92448   4.689  10.405   8.501 -0.3515  0.3144 -0.2702
  701MOL0     C92449   4.824  10.400   8.464 -0.0109  0.1922 -0.3352
  701MOL0     N92450   5.722  10.695   8.302  0.1130 -0.1947 -1.0486
  701MOL0     N92451   5.824  10.737   8.374 -0.0297  0.3481 -0.3223
  701MOL0     C92452   6.786  10.394   8.236  0.4943  0.6778 -0.4793
  701MOL0     C92453   6.930  10.416   8.211 -0.7028  0.0513  0.3133
  701MOL0     C92454   7.384  10.324   8.210 -0.1338  0.8429  1.0457
  701MOL0     C92455   7.443  10.422   8.295 -0.2123  0.5626  0.6018
  701MOL0     C92456   7.573  10.476   8.296 -0.3793 -0.3477 -0.4953
  701MOL0     C92457   7.660  10.444   8.192  0.1615 -0.0800 -0.2185
  701MOL0     O92458   7.787  10.493   8.190 -0.3005 -1.0738 -0.7278
  701MOL0     C92459   7.885  10.431   8.104 -0.0245  0.5402 -0.5959
  701MOL0     C92460   8.016  10.519   8.103  1.2197 -0.3887  0.2955
  701MOL0     C92461   8.116  10.461   8.009 -0.8170 -0.9793 -0.1514
  701MOL0     C92462   8.215  10.568   7.978 -0.5160  1.1131  0.3443
  701MOL0     C92463   8.320  10.570   8.085 -0.7613 -0.0243  0.1429
  701MOL0     C92464   8.421  10.561   8.151  0.7848  0.0049  0.1086
  701MOL0     C92465   7.614  10.332   8.106  0.5743 -0.4183  0.5886
  701MOL0     C92466   7.480  10.276   8.116 -0.4657 -0.9069  0.7876
  701MOL0     H92467   7.057  10.212   8.454 -0.8849  0.3031  1.2385
  701MOL0     H92468   6.822  10.176   8.493  1.9857 -0.1463  0.1208
  701MOL0     H92469   6.615  10.290   8.574 -0.5451 -0.5235 -0.2673
  701MOL0     H92470   6.570  10.141   8.486 -1.5579 -0.1767 -0.1730
  701MOL0     H92471   6.379  10.218   8.579  0.1549 -0.0199  0.0310
  701MOL0     H92472   6.366  10.271   8.401 -2.0148  0.3127  0.7275
  701MOL0     H92473   6.464  10.491   8.477  2.9502 -0.5948  1.1961
  701MOL0     H92474   6.431  10.436   8.645 -0.0695  1.9317 -0.1095
  701MOL0     H92475   6.235  10.483   8.416 -3.4140 -2.2482  0.3729
  701MOL0     H92476   6.174  10.389   8.549 -1.3352 -0.1828 -0.9416
  701MOL0     H92477   6.329  10.667   8.554 -0.1924  1.1950 -2.5326
  701MOL0     H92478   6.267  10.600   8.695  0.0849  0.1454 -0.2310
  701MOL0     H92479   6.079  10.653   8.461  0.0590  0.7711 -0.1420
  701MOL0     H92480   6.136  10.784   8.571 -0.9952 -0.4481  1.5412
  701MOL0     H92481   5.960  10.545   8.645 -1.1795 -0.1021 -2.4776
  701MOL0     H92482   6.019  10.670   8.761  0.7904  0.8543 -1.2591
  701MOL0     H92483   5.929  10.845   8.600  1.1787 -1.2459 -0.0547
  701MOL0     H92484   5.806  10.759   8.695  2.1282  0.7014  2.2073
  701MOL0     H92485   5.615  10.615   8.599  1.4892 -0.0200  2.3198
  701MOL0     H92486   5.487  10.490   8.317  2.9453 -0.8641  2.2637
  701MOL0     H92487   5.476  10.650   8.242  1.7396  0.6881  0.1585
  701MOL0     H92488   5.354  10.734   8.442 -4.8114 -1.6146  3.4088
  701MOL0     H92489   5.393  10.593   8.533 -4.1492 -1.6004  0.7766
  701MOL0     H92490   5.218  10.574   8.275 -0.1315 -2.9554 -0.2877
  701MOL0     H92491   5.277  10.453   8.379 -3.9235 -0.9418 -0.3575
  701MOL0     H92492   5.098  10.691   8.439 -1.2227 -0.0935  1.5502
  701MOL0     H92493   5.162  10.581   8.567  1.6616 -0.4397 -0.8527
  701MOL0     H92494   4.918  10.676   8.628  1.3899 -0.9755  1.1739
  701MOL0     H92495   4.693  10.672   8.710  0.5262 -0.6854  1.9422
  701MOL0     H92496   4.392  10.372   8.897  1.8774  2.6065  0.9073
  701MOL0     H92497   4.192  10.321   8.978  1.1311  1.5908  2.0162
  701MOL0     H92498   3.813  10.538   8.827 -2.9071 -3.8771 -0.3323
  701MOL0     H92499   3.870  10.593   8.983  2.1118  0.9847 -1.5765
  701MOL0     H92500   3.781  10.363   9.071 -1.0260 -2.1238  0.5711
  701MOL0     H92501   3.713  10.327   8.907 -1.1169 -0.2752  0.5517
  701MOL0     H92502   3.579  10.524   8.911 -1.7566  0.0499  0.4733
  701MOL0     H92503   3.644  10.561   9.070 -1.2799  0.6373 -0.2582
  701MOL0     H92504   3.472  10.311   8.993 -0.0831  0.6206 -3.7634
  701MOL0     H92505   3.528  10.359   9.154  0.4449 -0.9354 -0.5421
  701MOL0     H92506   3.270  10.418   9.095 -0.8143  0.5055  0.8376
  701MOL0     H92507   3.324  10.528   8.974 -2.7191  0.3615  1.1277
  701MOL0     H92508   3.286  10.672   9.145  3.2524  4.2442 -1.1573
  701MOL0     H92509   3.454  10.664   9.135  0.8514 -1.4602 -0.7244
  701MOL0     H92510   3.474  10.524   9.340  0.5986  3.9484  3.3923
  701MOL0     H92511   3.393  10.672   9.355 -0.4731  1.0888 -2.0885
  701MOL0     H92512   3.300  10.443   9.461  0.7966 -0.4474 -0.1723
  701MOL0     H92513   3.207  10.445   9.307 -1.1426  3.5472 -3.6219
  701MOL0     H92514   3.987  10.616   8.733 -0.1685 -2.8795 -2.9118
  701MOL0     H92515   4.217  10.674   8.644  2.0007 -3.2359 -2.3826
  701MOL0     H92516   4.631  10.322   8.462 -0.9846 -0.6754  2.4979
  701MOL0     H92517   4.869  10.320   8.407 -0.1258  0.6380 -1.0669
  701MOL0     H92518   6.715  10.451   8.176 -3.8642 -2.0042  1.6684
  701MOL0     H92519   6.963  10.481   8.131  2.6214 -1.6378  0.1221
  701MOL0     H92520   7.369  10.450   8.369  1.9658  0.4363  2.9786
  701MOL0     H92521   7.598  10.548   8.373  2.7752 -0.8612 -0.9045
  701MOL0     H92522   7.844  10.424   8.003  1.9075 -0.0277 -1.3792
  701MOL0     H92523   7.900  10.327   8.136  1.6976  0.5300 -1.3568
  701MOL0     H92524   7.992  10.622   8.073  0.7530 -0.8244 -0.8792
  701MOL0     H92525   8.051  10.519   8.207 -0.8381  0.5469  1.0548
  701MOL0     H92526   8.071  10.434   7.913  2.1462 -3.7683 -0.9270
  701MOL0     H92527   8.152  10.365   8.046  0.2021 -1.2200 -1.6729
  701MOL0     H92528   8.262  10.545   7.882 -0.9891  1.3468  0.0501
  701MOL0     H92529   8.173  10.669   7.972  0.1488  1.4272  0.9104
  701MOL0     H92530   8.509  10.564   8.212  0.9120 -1.3614  0.0138
  701MOL0     H92531   7.684  10.281   8.040 -1.9775 -0.9997 -1.8238
  701MOL0     H92532   7.448  10.193   8.053  2.1773 -0.4157 -1.3748
  702MOL0     O92533   4.868   9.403   3.897  0.3626 -0.4488  0.0167
  702MOL0     C92534   4.938   9.450   3.802 -0.2278 -0.7557  0.1136
  702MOL0     O92535   4.879   9.506   3.692 -0.4273 -0.5415 -0.1768
  702MOL0     C92536   4.755   9.510   3.676  0.8955 -0.5612  0.3235
  702MOL0     C92537   4.677   9.399   3.676 -0.1682 -0.3660  0.4164
  702MOL0     C92538   4.538   9.406   3.642  0.7947 -0.9484  0.2455
  702MOL0     C92539   4.474   9.530   3.605 -0.3020  0.2910 -0.5315
  702MOL0     O92540   4.342   9.527   3.572  0.4667  0.9545 -0.0390
  702MOL0     C92541   4.292   9.636   3.494  0.3862  0.4932 -0.5649
  702MOL0     C92542   4.142   9.620   3.465  0.5687  0.0293  0.0878
  702MOL0     C92543   4.120   9.514   3.354  0.4194  0.9237  0.2685
  702MOL0     C92544   3.982   9.454   3.373  0.0604 -0.4557  0.7734
  702MOL0     C92545   3.968   9.328   3.283  0.0328 -0.1031  0.9217
  702MOL0     C92546   3.853   9.246   3.338 -0.7878  0.4847  0.2233
  702MOL0     C92547   3.706   9.300   3.317  0.1432 -0.0329 -0.1391
  702MOL0     C92548   3.651   9.341   3.178  0.8050 -0.9589  0.2712
  702MOL0     N92549   3.505   9.376   3.180  0.0428 -0.2611  0.1908
  702MOL0     C92550   3.403   9.278   3.182  0.0123 -1.0384 -0.5806
  702MOL0     C92551   3.297   9.341   3.154 -0.4599 -0.7396  0.2762
  702MOL0     C92552   3.175   9.255   3.119  0.0596 -0.6957  0.2015
  702MOL0     C92553   3.037   9.332   3.124  0.6096 -0.4369  0.6303
  702MOL0     C92554   2.923   9.265   3.057 -0.7211  0.4971  0.0432
  702MOL0     C92555   2.796   9.343   3.073 -1.1657  0.3073 -0.2278
  702MOL0     O92556   2.690   9.277   3.007  0.0380  0.7335 -0.3342
  702MOL0     C92557   2.571   9.344   3.003  0.3373  0.2162 -0.1133
  702MOL0     C92558   2.546   9.471   3.049  0.4765 -0.4200 -0.3988
  702MOL0     C92559   2.422   9.533   3.032 -0.6267 -0.3668 -0.9198
  702MOL0     C92560   2.314   9.451   2.991 -0.0792  0.0535  0.6634
  702MOL0     C92561   2.173   9.506   2.990 -1.2290 -0.7222  0.1950
  702MOL0     O92562   2.140   9.601   3.074 -0.4098  0.2727  0.2100
  702MOL0     C92563   2.011   9.648   3.096  0.3263  0.1693 -0.5420
  702MOL0     C92564   1.897   9.569   3.090  0.5191 -0.3275  0.0538
  702MOL0     C92565   1.768   9.612   3.114 -0.8246  0.5048  0.3907
  702MOL0     C92566   1.754   9.745   3.146  0.3278 -0.0215 -0.3196
  702MOL0     O92567   1.635   9.807   3.179  0.6725  0.5565 -0.8904
  702MOL0     C92568   1.515   9.727   3.200 -0.2492 -0.0568 -0.4077
  702MOL0     C92569   1.462   9.697   3.066 -0.8317  0.0845 -0.4383
  702MOL0     C92570   1.313   9.670   3.089  0.6688 -0.7060  0.5947
  702MOL0     C92571   1.246   9.681   2.954 -0.2982  0.1390 -0.4928
  702MOL0     C92572   1.096   9.654   2.963  0.4061 -1.0117 -0.0714
  702MOL0     C92573   1.020   9.788   3.004 -0.5023  0.2887  0.6159
  702MOL0     C92574   0.886   9.798   2.943  0.3050 -0.6465  0.6195
  702MOL0     C92575   0.785   9.706   3.003  0.0262  0.2170  0.2877
  702MOL0    Cl92576   0.785   9.533   2.952 -0.3290  0.0768  0.0327
  702MOL0     C92577   1.855   9.831   3.155  0.0855 -0.4329 -0.4025
  702MOL0     C92578   1.991   9.784   3.130  0.9393 -0.4723  0.2857
  702MOL0     O92579   2.091   9.446   2.918 -0.7368 -0.8333 -0.8222
  702MOL0     C92580   2.340   9.326   2.944  0.3822 -0.0506 -0.1755
  702MOL0     C92581   2.465   9.275   2.941  0.6464 -0.1770 -0.8608
  702MOL0     N92582   3.321   9.479   3.141  0.6246 -0.1359  0.8013
  702MOL0     N92583   3.454   9.496   3.162  0.1164 -0.4512  0.5560
  702MOL0     C92584   4.557   9.648   3.605  0.6903 -0.0856 -0.2987
  702MOL0     C92585   4.697   9.631   3.636 -0.7162  0.5135  0.0465
  702MOL0     C92586   5.084   9.454   3.824 -0.0807  0.7712  0.3424
  702MOL0     C92587   5.138   9.417   3.955  0.7123  0.0836  0.4212
  702MOL0     C92588   5.274   9.420   3.992 -0.0903  0.4504  0.6989
  702MOL0     C92589   5.366   9.467   3.893 -0.0145  0.4038 -0.7231
  702MOL0     O92590   5.501   9.470   3.904  0.8090  0.4635  0.2009
  702MOL0     C92591   5.564   9.392   4.004 -0.7501 -0.8510 -0.1790
  702MOL0     C92592   5.717   9.430   4.043  0.5800  0.7355 -0.1239
  702MOL0     C92593   5.727   9.581   4.065  1.5027  0.1967 -0.2115
  702MOL0     C92594   5.833   9.643   3.979  0.1346  0.7594 -0.8628
  702MOL0     C92595   5.848   9.786   4.003  0.5908 -0.1692 -1.5807
  702MOL0     C92596   5.877   9.902   4.019  0.5368  0.1750  0.2470
  702MOL0     C92597   5.316   9.515   3.766  0.0268  0.2103 -0.2605
  702MOL0     C92598   5.180   9.505   3.729  0.8052  1.5587 -0.0414
  702MOL0     H92599   4.710   9.302   3.710  0.2950  0.3828  2.2185
  702MOL0     H92600   4.476   9.318   3.627  1.3691 -1.3715  0.3400
  702MOL0     H92601   4.344   9.641   3.398 -1.9053  1.1980 -1.8450
  702MOL0     H92602   4.320   9.732   3.539  2.3979 -1.1223  1.9038
  702MOL0     H92603   4.095   9.718   3.451  1.5874  0.2453 -2.2825
  702MOL0     H92604   4.108   9.585   3.563 -1.3782 -0.3191 -0.6808
  702MOL0     H92605   4.192   9.432   3.357 -0.4871  0.1088  0.1694
  702MOL0     H92606   4.142   9.569   3.263  1.1060  1.3243  0.6685
  702MOL0     H92607   3.975   9.442   3.482  1.1592  0.6687  0.9912
  702MOL0     H92608   3.903   9.523   3.341  1.5403 -0.6137 -3.9723
  702MOL0     H92609   4.060   9.271   3.291  0.6160  0.9726  2.2364
  702MOL0     H92610   3.963   9.340   3.174 -0.6878 -2.6872  0.6024
  702MOL0     H92611   3.862   9.228   3.446  0.9221 -0.4123 -0.0380
  702MOL0     H92612   3.867   9.146   3.295  1.3398  1.5616 -1.8116
  702MOL0     H92613   3.646   9.214   3.347  1.0290 -0.6809 -0.1712
  702MOL0     H92614   3.684   9.377   3.392 -0.7936 -0.7691  0.3595
  702MOL0     H92615   3.673   9.262   3.106 -0.4267 -1.1432  0.0784
  702MOL0     H92616   3.704   9.431   3.145  1.2444 -1.4437 -0.3752
  702MOL0     H92617   3.400   9.170   3.183 -2.7153 -1.0735 -2.3190
  702MOL0     H92618   3.170   9.168   3.186  0.1919 -2.0297 -1.4607
  702MOL0     H92619   3.183   9.228   3.014 -4.2412  2.8938 -1.3733
  702MOL0     H92620   3.046   9.434   3.087  0.1183  0.3415  2.5360
  702MOL0     H92621   3.008   9.337   3.229 -5.9885 -0.8458 -0.7190
  702MOL0     H92622   2.931   9.254   2.949 -0.0230 -0.5025  0.1925
  702MOL0     H92623   2.908   9.166   3.100 -1.2892  0.3336 -0.5208
  702MOL0     H92624   2.810   9.441   3.027 -2.2588  1.6682  2.1751
  702MOL0     H92625   2.779   9.365   3.179  3.0562  0.7066  0.5454
  702MOL0     H92626   2.614   9.547   3.086 -0.0398 -1.0455  1.9847
  702MOL0     H92627   2.408   9.635   3.066  4.3123  0.3506 -0.3250
  702MOL0     H92628   1.910   9.467   3.055 -2.1240 -1.1219  1.1478
  702MOL0     H92629   1.681   9.550   3.094 -1.4447  1.4976 -0.0914
  702MOL0     H92630   1.444   9.783   3.262  1.2918  0.9534  0.5435
  702MOL0     H92631   1.551   9.636   3.249  1.9596  0.5745 -0.7003
  702MOL0     H92632   1.503   9.604   3.025 -2.3004  0.1325 -2.1841
  702MOL0     H92633   1.481   9.779   2.997  1.0989 -0.8385 -1.0614
  702MOL0     H92634   1.268   9.742   3.158  3.1122  1.8472 -0.2997
  702MOL0     H92635   1.299   9.569   3.129  0.1815 -0.0995  2.0156
  702MOL0     H92636   1.271   9.781   2.916  2.2078 -1.0126 -2.2019
  702MOL0     H92637   1.281   9.608   2.880  0.5594 -0.1619  0.1983
  702MOL0     H92638   1.073   9.580   3.040  2.1391 -0.3903  1.1167
  702MOL0     H92639   1.053   9.626   2.866 -0.5938  0.8615 -0.2104
  702MOL0     H92640   1.069   9.875   2.960 -1.6883  0.9154  0.4702
  702MOL0     H92641   1.029   9.794   3.113  1.1765 -0.5637  0.5503
  702MOL0     H92642   0.836   9.894   2.960 -0.9387 -1.3883  1.3000
  702MOL0     H92643   0.888   9.777   2.835  0.8303  0.4961  0.3865
  702MOL0     H92644   0.683   9.743   2.999 -1.0496 -1.8137  4.0238
  702MOL0     H92645   0.806   9.706   3.111 -2.5449  0.0991  0.8381
  702MOL0     H92646   1.832   9.931   3.191 -2.4854 -0.3920 -1.8802
  702MOL0     H92647   2.083   9.841   3.137  0.8007  0.1208 -1.8633
  702MOL0     H92648   2.265   9.276   2.882 -0.9918  1.4427  0.2168
  702MOL0     H92649   2.489   9.181   2.892 -0.4203 -1.4234  0.8936
  702MOL0     H92650   4.530   9.749   3.577 -0.1297  0.1503  1.1958
  702MOL0     H92651   4.751   9.725   3.643 -0.6192  0.3769  1.3872
  702MOL0     H92652   5.064   9.392   4.030 -0.2426  3.2541  0.7118
  702MOL0     H92653   5.303   9.391   4.093 -1.8938 -1.0063  0.8550
  702MOL0     H92654   5.563   9.288   3.971  3.9853 -1.0061 -0.5925
  702MOL0     H92655   5.508   9.395   4.097  1.1363 -0.9459  1.0232
  702MOL0     H92656   5.765   9.373   4.123 -0.0270  2.2784  1.3854
  702MOL0     H92657   5.784   9.410   3.959 -0.0556 -2.3001 -0.0145
  702MOL0     H92658   5.747   9.610   4.168  0.1546  0.9027 -0.1286
  702MOL0     H92659   5.629   9.625   4.045  2.5119  3.1132  0.7515
  702MOL0     H92660   5.925   9.592   4.009 -0.6209  1.6387  3.7553
  702MOL0     H92661   5.816   9.621   3.874 -0.9954 -0.9387 -0.3632
  702MOL0     H92662   5.908  10.004   4.030  0.9483  0.3313 -1.9476
  702MOL0     H92663   5.388   9.561   3.699  1.0121 -0.1006  0.5607
  702MOL0     H92664   5.160   9.526   3.624 -1.2237  2.3811  0.4563
  703MOL0     O92665   7.224   8.417   5.581 -1.0292  0.4408 -0.2363
  703MOL0     C92666   7.222   8.473   5.471  0.2403  0.1451  0.3292
  703MOL0     O92667   7.140   8.443   5.362 -0.3170 -0.2437  0.0534
  703MOL0     C92668   7.046   8.340   5.375 -0.1815 -0.2385  0.4823
  703MOL0     C92669   6.967   8.326   5.484 -0.3607 -1.0939 -1.1066
  703MOL0     C92670   6.854   8.241   5.482  0.0273 -0.2042  0.0655
  703MOL0     C92671   6.825   8.152   5.377  0.4830  0.3683  0.4038
  703MOL0     O92672   6.729   8.052   5.371  0.0464 -0.5356 -0.0821
  703MOL0     C92673   6.603   8.087   5.439 -0.4605  0.1180 -0.7963
  703MOL0     C92674   6.522   8.167   5.339  0.4957 -0.0109 -0.7783
  703MOL0     C92675   6.379   8.188   5.380 -0.2684  0.8672 -0.0489
  703MOL0     C92676   6.301   8.062   5.382  1.0716  1.3744 -0.8669
  703MOL0     C92677   6.147   8.071   5.432 -0.2983 -1.0334 -0.6467
  703MOL0     C92678   6.124   8.124   5.572  0.4016 -0.6525  1.0037
  703MOL0     C92679   5.996   8.074   5.640  0.3945 -0.4196  0.1183
  703MOL0     C92680   5.886   8.181   5.630 -0.3114 -0.8339  0.4414
  703MOL0     N92681   5.760   8.147   5.694 -0.3375  0.9243  0.1405
  703MOL0     C92682   5.649   8.094   5.629 -0.0223 -0.3988 -0.0407
  703MOL0     C92683   5.575   8.057   5.727  0.6568  0.2596  0.3231
  703MOL0     C92684   5.451   7.975   5.698 -0.3887  0.1134  0.7905
  703MOL0     C92685   5.342   8.020   5.786 -0.3341  0.3533  0.1805
  703MOL0     C92686   5.293   8.160   5.746  0.7813  0.8735  0.5409
  703MOL0     C92687   5.218   8.180   5.608  0.0444 -0.4068 -0.3138
  703MOL0     O92688   5.122   8.067   5.612  0.1564  0.2456 -0.1903
  703MOL0     C92689   5.012   8.067   5.694  0.2224 -0.4333  0.4447
  703MOL0     C92690   4.939   8.187   5.716 -0.2706 -0.1259  0.6588
  703MOL0     C92691   4.831   8.181   5.794  0.0910  0.1045 -0.5138
  703MOL0     C92692   4.785   8.062   5.853 -0.2972  0.3720  1.8486
  703MOL0     C92693   4.661   8.049   5.936 -0.2091 -0.0641  0.6755
  703MOL0     O92694   4.628   7.922   5.971  0.9767  0.1850  0.5136
  703MOL0     C92695   4.525   7.897   6.061  0.2194 -0.3454  0.2034
  703MOL0     C92696   4.410   7.977   6.080  0.2539  0.4200 -0.8892
  703MOL0     C92697   4.317   7.951   6.184  0.3928  0.4658  0.4173
  703MOL0     C92698   4.339   7.840   6.266 -0.2612 -0.3466  0.9445
  703MOL0     O92699   4.271   7.803   6.376  0.5402  0.2876  0.6259
  703MOL0     C92700   4.208   7.897   6.456  0.0957 -0.3402 -0.2199
  703MOL0     C92701   4.075   7.845   6.520 -0.5855 -0.5508 -0.0671
  703MOL0     C92702   3.972   7.818   6.406 -0.3222  0.2517 -0.3987
  703MOL0     C92703   3.847   7.738   6.448 -0.2002  1.0098 -0.6547
  703MOL0     C92704   3.770   7.673   6.335  0.3287 -0.0689 -0.1852
  703MOL0     C92705   3.701   7.781   6.254  0.9762 -0.1213  0.2233
  703MOL0     C92706   3.602   7.709   6.159  0.1656 -0.3642 -0.0389
  703MOL0     C92707   3.634   7.733   6.007  0.5898 -0.8149  0.6674
  703MOL0    Cl92708   3.624   7.903   5.951 -0.3385 -0.3423  0.2473
  703MOL0     C92709   4.449   7.755   6.236  0.1563 -0.0883 -0.8578
  703MOL0     C92710   4.541   7.782   6.134  0.4568 -0.3538 -0.1093
  703MOL0     O92711   4.606   8.156   5.967 -0.3764 -0.1192 -0.5799
  703MOL0     C92712   4.858   7.944   5.828  0.1955 -0.6064 -0.7081
  703MOL0     C92713   4.969   7.947   5.747  0.0828 -0.7471 -0.6758
  703MOL0     N92714   5.628   8.090   5.853 -0.5525 -0.3419  0.4048
  703MOL0     N92715   5.744   8.143   5.833  0.3352  1.3139  0.7397
  703MOL0     C92716   6.911   8.157   5.270  0.2492  0.1004 -0.3852
  703MOL0     C92717   7.022   8.249   5.266 -0.1321 -0.3624 -1.0570
  703MOL0     C92718   7.333   8.561   5.448 -0.9473 -0.2185  0.8853
  703MOL0     C92719   7.459   8.550   5.501 -0.7908  0.4682 -0.2076
  703MOL0     C92720   7.553   8.651   5.481 -0.4596  0.3837  0.0863
  703MOL0     C92721   7.527   8.757   5.393 -0.2857  0.1072 -0.5167
  703MOL0     O92722   7.617   8.861   5.372  0.0585 -0.1459  0.0897
  703MOL0     C92723   7.648   8.944   5.485  0.2977 -0.1443  0.5512
  703MOL0     C92724   7.713   9.072   5.430 -0.4806  0.5285  0.7498
  703MOL0     C92725   7.758   9.162   5.544  0.6181 -0.0933 -0.2959
  703MOL0     C92726   7.843   9.287   5.494 -0.5643 -0.4589 -1.0447
  703MOL0     C92727   7.982   9.247   5.459  0.3158 -0.4228 -0.2391
  703MOL0     C92728   8.094   9.219   5.438  0.4026 -0.4775 -0.2555
  703MOL0     C92729   7.407   8.757   5.319  0.9325  0.0619  0.0977
  703MOL0     C92730   7.315   8.657   5.344 -0.9363  1.0114  0.3357
  703MOL0     H92731   6.987   8.392   5.567 -1.0187 -1.2592 -0.8017
  703MOL0     H92732   6.787   8.242   5.568  1.7407 -0.0969  1.4643
  703MOL0     H92733   6.620   8.138   5.534 -1.6093  1.2639 -1.1630
  703MOL0     H92734   6.554   7.993   5.467 -1.6098  0.7724 -0.5201
  703MOL0     H92735   6.523   8.108   5.247 -0.0166  0.6954 -1.2430
  703MOL0     H92736   6.560   8.269   5.327 -0.3628  0.5695  1.0980
  703MOL0     H92737   6.327   8.254   5.311 -1.0731 -1.9579 -2.3312
  703MOL0     H92738   6.365   8.237   5.477 -2.0477 -0.6235  0.5111
  703MOL0     H92739   6.312   8.015   5.284 -0.0920 -0.5732 -0.1037
  703MOL0     H92740   6.348   7.993   5.452  1.7127  1.3406 -1.3175
  703MOL0     H92741   6.100   7.972   5.425  0.0870 -1.2073 -0.8195
  703MOL0     H92742   6.096   8.142   5.366 -0.6506  0.0576  0.7560
  703MOL0     H92743   6.117   8.233   5.569 -1.0458 -0.5729  3.6158
  703MOL0     H92744   6.210   8.087   5.628  2.0644  0.8328 -0.4523
  703MOL0     H92745   5.965   7.974   5.609 -1.8136  0.4250 -0.6090
  703MOL0     H92746   6.025   8.064   5.745  0.0447  0.4942  0.3089
  703MOL0     H92747   5.875   8.215   5.527  2.4402 -1.7214 -0.2216
  703MOL0     H92748   5.915   8.276   5.678 -0.2984  0.7118 -2.4100
  703MOL0     H92749   5.630   8.072   5.524 -3.6344 -0.9901  0.5934
  703MOL0     H92750   5.458   7.865   5.701 -0.5348 -0.2850 -4.4501
  703MOL0     H92751   5.419   8.006   5.598  1.3583  4.6891  1.4212
  703MOL0     H92752   5.372   8.041   5.889  0.1553  2.6103 -0.3685
  703MOL0     H92753   5.262   7.945   5.794  0.4254 -0.3276  1.8668
  703MOL0     H92754   5.224   8.186   5.827  0.0948  0.3031  0.1460
  703MOL0     H92755   5.382   8.224   5.749  1.7442 -0.4021  0.1825
  703MOL0     H92756   5.289   8.163   5.527  1.8771  2.4502  0.5706
  703MOL0     H92757   5.170   8.276   5.585  0.5230 -0.8369 -3.5780
  703MOL0     H92758   4.956   8.276   5.657 -1.5985  1.2071  2.1789
  703MOL0     H92759   4.783   8.278   5.805  1.3324  0.4795  2.3817
  703MOL0     H92760   4.389   8.063   6.017  2.6688  1.3015 -0.6107
  703MOL0     H92761   4.235   8.019   6.205  0.9818  2.0008 -1.8566
  703MOL0     H92762   4.175   7.987   6.402 -0.1500 -0.9883 -1.1671
  703MOL0     H92763   4.264   7.925   6.546 -1.5162 -0.9601  1.0304
  703MOL0     H92764   4.033   7.921   6.588 -0.6713  1.8180 -2.5824
  703MOL0     H92765   4.102   7.756   6.578 -1.7870 -0.4020  0.7565
  703MOL0     H92766   4.028   7.765   6.328  2.4667  2.0871  0.2214
  703MOL0     H92767   3.945   7.918   6.371 -0.3543  0.4052  0.0579
  703MOL0     H92768   3.881   7.658   6.514 -0.3469  3.1273  2.2021
  703MOL0     H92769   3.772   7.793   6.506 -0.5500 -1.5206  1.4832
  703MOL0     H92770   3.710   7.608   6.398  0.9798  2.0223  2.8233
  703MOL0     H92771   3.841   7.613   6.276  2.7395 -0.3069  2.7121
  703MOL0     H92772   3.774   7.835   6.194 -1.1726  2.1626 -0.5081
  703MOL0     H92773   3.638   7.853   6.307 -2.0564 -2.0667 -0.4566
  703MOL0     H92774   3.616   7.601   6.177 -1.0486 -0.2945  1.5197
  703MOL0     H92775   3.501   7.738   6.187  0.9680  2.7387  0.0299
  703MOL0     H92776   3.574   7.666   5.944 -0.7381  0.2894  0.7057
  703MOL0     H92777   3.736   7.695   5.994  1.0023  0.2828  0.5551
  703MOL0     H92778   4.477   7.673   6.301 -2.6219 -0.0775  0.4703
  703MOL0     H92779   4.621   7.714   6.106 -0.6441 -0.5943 -3.0060
  703MOL0     H92780   4.812   7.852   5.862 -0.7889  0.5680  1.3720
  703MOL0     H92781   5.029   7.860   5.723  1.4073 -0.0372  0.0094
  703MOL0     H92782   6.895   8.086   5.190  0.6240 -1.0308  0.5111
  703MOL0     H92783   7.087   8.267   5.180 -0.5978 -3.1180 -2.0853
  703MOL0     H92784   7.472   8.480   5.583  0.2411  0.2911 -0.5089
  703MOL0     H92785   7.640   8.641   5.545 -0.0979 -1.5376 -0.6444
  703MOL0     H92786   7.727   8.900   5.546  0.9953 -1.1445 -1.0028
  703MOL0     H92787   7.561   8.968   5.547 -0.0474  0.2756 -0.0868
  703MOL0     H92788   7.791   9.025   5.370 -1.7610 -1.1809  0.3492
  703MOL0     H92789   7.651   9.121   5.355 -1.6508 -1.3721  0.4209
  703MOL0     H92790   7.813   9.098   5.613  0.0699  0.6348  0.8495
  703MOL0     H92791   7.674   9.200   5.604  1.8484 -1.2745  2.3199
  703MOL0     H92792   7.784   9.345   5.423 -0.8087  2.5813  1.4103
  703MOL0     H92793   7.846   9.363   5.573 -0.3233 -0.7276 -0.7930
  703MOL0     H92794   8.199   9.203   5.425  0.7692 -0.1716  2.0404
  703MOL0     H92795   7.368   8.837   5.257  2.3926  0.0991 -0.8112
  703MOL0     H92796   7.220   8.662   5.291 -0.0788  0.9378 -1.2780
  704MOL0     O92797   1.020   1.326   2.399  0.5611  0.2243  0.2066
  704MOL0     C92798   0.997   1.209   2.408  0.6361 -0.2506 -0.2269
  704MOL0     O92799   1.087   1.110   2.446  0.1085  0.0776 -0.3903
  704MOL0     C92800   1.217   1.153   2.477  0.2641 -0.4449 -0.0458
  704MOL0     C92801   1.234   1.262   2.565 -0.2028  0.4262 -0.6256
  704MOL0     C92802   1.360   1.292   2.615  0.3921 -0.6226 -0.2500
  704MOL0     C92803   1.470   1.215   2.585 -0.0699  0.4471  0.4467
  704MOL0     O92804   1.595   1.236   2.639 -0.6960 -0.0297 -0.0598
  704MOL0     C92805   1.601   1.218   2.788  0.5383  0.6134  1.1556
  704MOL0     C92806   1.677   1.327   2.849 -0.6959  0.1571  0.1577
  704MOL0     C92807   1.826   1.356   2.814 -0.6942  0.1223 -0.1958
  704MOL0     C92808   1.876   1.459   2.913  0.1668 -1.1184  0.0254
  704MOL0     C92809   1.825   1.603   2.879 -0.9244  0.5362  0.1135
  704MOL0     C92810   1.850   1.696   3.000 -0.6103  0.1796 -0.0045
  704MOL0     C92811   1.741   1.673   3.104 -0.6329 -0.2188 -0.1897
  704MOL0     C92812   1.749   1.776   3.217  0.3995  0.2028 -0.2140
  704MOL0     N92813   1.879   1.749   3.292  0.5558 -0.7929  0.2858
  704MOL0     C92814   1.892   1.650   3.394  0.3156  0.5873  0.0912
  704MOL0     C92815   2.027   1.633   3.416 -0.1210 -0.1279 -0.4528
  704MOL0     C92816   2.108   1.533   3.506  0.6209 -0.8224  0.2948
  704MOL0     C92817   2.156   1.593   3.644 -0.2789 -0.3967 -0.5651
  704MOL0     C92818   2.262   1.706   3.616 -0.2156 -0.1394 -0.2407
  704MOL0     C92819   2.401   1.638   3.588 -1.3100 -0.4520 -0.0153
  704MOL0     O92820   2.505   1.741   3.557 -0.9944  0.6094 -0.9964
  704MOL0     C92821   2.601   1.777   3.647  0.4518  0.9690 -0.4892
  704MOL0     C92822   2.654   1.694   3.752  0.3785 -0.1690  0.0114
  704MOL0     C92823   2.740   1.744   3.849  0.4936  0.9934 -0.3080
  704MOL0     C92824   2.799   1.865   3.825 -0.1393 -0.5032 -0.1172
  704MOL0     C92825   2.923   1.906   3.908  1.0904  0.4438 -0.5959
  704MOL0     O92826   2.960   2.025   3.900 -0.0971 -0.1971  0.3650
  704MOL0     C92827   3.085   2.048   3.959  0.1995 -0.3950 -0.1796
  704MOL0     C92828   3.203   1.987   3.913  0.2293 -0.2852 -0.1292
  704MOL0     C92829   3.314   2.017   3.986 -0.5908  0.8779 -0.4786
  704MOL0     C92830   3.310   2.099   4.101 -0.0914 -0.2899  0.1952
  704MOL0     O92831   3.431   2.133   4.163 -0.6851  0.3177 -0.4596
  704MOL0     C92832   3.501   2.235   4.089 -0.5648  0.6915  1.0429
  704MOL0     C92833   3.637   2.262   4.151 -0.4492 -0.0406  1.3967
  704MOL0     C92834   3.713   2.141   4.174 -0.4458  0.7763  0.2107
  704MOL0     C92835   3.865   2.157   4.182  0.1826 -0.0755  0.3655
  704MOL0     C92836   3.926   2.022   4.223 -0.8758  0.6079  0.9997
  704MOL0     C92837   4.078   2.013   4.238  0.0640 -0.8520  0.7844
  704MOL0     C92838   4.106   1.884   4.300  0.6987  0.6427  0.4541
  704MOL0     C92839   4.247   1.849   4.310  0.7089  0.2056  0.3485
  704MOL0    Cl92840   4.267   1.694   4.384  0.2252  0.3617  0.0208
  704MOL0     C92841   3.198   2.153   4.148  1.1177 -0.0769  0.1480
  704MOL0     C92842   3.080   2.130   4.072  0.6780 -0.6620  0.1172
  704MOL0     O92843   2.973   1.820   3.980  0.4956 -0.4240 -0.7535
  704MOL0     C92844   2.755   1.950   3.724  0.1356 -0.1567  0.2177
  704MOL0     C92845   2.655   1.903   3.646  0.3296  0.7880  0.4440
  704MOL0     N92846   2.088   1.734   3.335  0.3543 -0.3887  0.7094
  704MOL0     N92847   1.995   1.802   3.267  0.1623  0.4676 -0.6086
  704MOL0     C92848   1.449   1.121   2.486  0.0433  0.5058 -0.3489
  704MOL0     C92849   1.320   1.079   2.438  0.1896  1.8874  0.0114
  704MOL0     C92850   0.854   1.178   2.384 -0.0737  0.5950  0.6972
  704MOL0     C92851   0.824   1.057   2.324  0.1356  0.0191 -0.0773
  704MOL0     C92852   0.687   1.019   2.314 -0.3844 -0.1117 -0.4067
  704MOL0     C92853   0.586   1.095   2.363 -0.1384  1.1206 -0.8513
  704MOL0     O92854   0.457   1.054   2.343 -0.0821  0.0982  0.0702
  704MOL0     C92855   0.350   1.126   2.414  0.5805  0.2407  0.4308
  704MOL0     C92856   0.227   1.056   2.359  0.9266  0.8894  0.1264
  704MOL0     C92857   0.216   0.913   2.403  0.5197 -0.4534 -0.0258
  704MOL0     C92858   0.076   0.865   2.419 -0.1063 -0.1488  0.1038
  704MOL0     C92859   0.023   0.854   2.283  0.4451  0.0972 -0.1127
  704MOL0     C92860  -0.001   0.859   2.161 -0.9074 -0.5240 -0.0818
  704MOL0     C92861   0.620   1.217   2.420 -0.3643 -0.2631 -0.1179
  704MOL0     C92862   0.751   1.265   2.433 -0.0702  0.6554 -0.1213
  704MOL0     H92863   1.153   1.325   2.599 -1.7646 -1.0009 -1.5735
  704MOL0     H92864   1.377   1.377   2.679 -1.1482 -0.1174 -0.4535
  704MOL0     H92865   1.652   1.126   2.820 -0.9575  0.3346  2.9232
  704MOL0     H92866   1.497   1.216   2.822 -0.9558 -3.7969 -2.5622
  704MOL0     H92867   1.676   1.308   2.957 -1.1313 -1.3107 -0.0759
  704MOL0     H92868   1.635   1.427   2.834 -3.7748 -0.5802  2.8101
  704MOL0     H92869   1.840   1.374   2.707 -1.4743 -2.4110 -0.7944
  704MOL0     H92870   1.882   1.263   2.831  2.5499  1.7863 -0.9282
  704MOL0     H92871   1.840   1.430   3.012  1.5732  0.0032  0.8957
  704MOL0     H92872   1.985   1.465   2.904  0.0763  1.0957  0.0833
  704MOL0     H92873   1.719   1.619   2.860 -0.9254 -0.4848 -0.8175
  704MOL0     H92874   1.892   1.640   2.801 -1.3175 -0.2516 -0.6014
  704MOL0     H92875   1.853   1.799   2.962  2.5224 -0.3991 -1.6811
  704MOL0     H92876   1.949   1.666   3.037 -0.9651  0.2844  1.0717
  704MOL0     H92877   1.644   1.691   3.056 -1.3980 -2.0799  0.5665
  704MOL0     H92878   1.748   1.580   3.162  0.8756  1.7507  3.0775
  704MOL0     H92879   1.663   1.757   3.282 -0.3951  1.4109 -0.8638
  704MOL0     H92880   1.727   1.876   3.178  0.0184  0.7782  1.3863
  704MOL0     H92881   1.807   1.587   3.418  2.4552 -2.8793 -0.7486
  704MOL0     H92882   2.183   1.472   3.454 -2.1319 -4.1898 -0.1085
  704MOL0     H92883   2.031   1.457   3.522 -1.8041  0.9798 -1.7774
  704MOL0     H92884   2.192   1.513   3.710  0.6220  0.9753  0.6527
  704MOL0     H92885   2.061   1.625   3.688 -1.0086 -1.9385 -0.9469
  704MOL0     H92886   2.231   1.775   3.537  0.0890 -0.2119 -0.4236
  704MOL0     H92887   2.275   1.764   3.708 -0.5176  0.2613 -0.4450
  704MOL0     H92888   2.392   1.582   3.495 -1.1453  3.9611 -2.9953
  704MOL0     H92889   2.423   1.579   3.678 -0.0696  1.4949  1.0291
  704MOL0     H92890   2.624   1.589   3.759  0.6813 -0.2202  0.6607
  704MOL0     H92891   2.763   1.676   3.930 -4.5281 -2.1839 -1.0787
  704MOL0     H92892   3.205   1.919   3.829  0.6643 -0.6644  0.1852
  704MOL0     H92893   3.410   1.980   3.953 -0.3842  0.6908  0.3063
  704MOL0     H92894   3.446   2.329   4.095 -0.6392  0.7403 -0.1604
  704MOL0     H92895   3.510   2.213   3.982 -1.2262 -3.1459  1.6359
  704MOL0     H92896   3.639   2.300   4.254  0.7232  0.0813  1.3441
  704MOL0     H92897   3.689   2.326   4.079  1.2999 -0.3038  2.3692
  704MOL0     H92898   3.690   2.074   4.090 -0.9925  0.6900  0.4209
  704MOL0     H92899   3.671   2.090   4.261 -0.2770  0.0342 -0.1307
  704MOL0     H92900   3.906   2.193   4.087  2.9379 -0.1063  1.4404
  704MOL0     H92901   3.899   2.237   4.249  0.9838 -0.1271  0.0356
  704MOL0     H92902   3.887   1.941   4.161  0.5434 -1.5119  2.7303
  704MOL0     H92903   3.893   1.998   4.324 -2.9852 -5.1701 -0.6687
  704MOL0     H92904   4.104   2.099   4.301  0.2013 -1.0643  1.0231
  704MOL0     H92905   4.137   2.027   4.147  2.1036 -0.8114  2.0334
  704MOL0     H92906   4.068   1.882   4.403 -2.9654 -1.5940 -0.7634
  704MOL0     H92907   4.058   1.803   4.244 -1.8856  1.9298  0.6572
  704MOL0     H92908   4.306   1.922   4.366  1.0861  0.6264 -0.5826
  704MOL0     H92909   4.285   1.833   4.209 -2.6141 -1.6606 -0.7583
  704MOL0     H92910   3.200   2.225   4.230  1.0032 -0.6297  0.6393
  704MOL0     H92911   2.982   2.166   4.103  0.0695 -1.0900 -1.2559
  704MOL0     H92912   2.798   2.049   3.714  0.5945 -0.4728 -1.1459
  704MOL0     H92913   2.601   1.972   3.581 -1.4915 -0.0120  1.0564
  704MOL0     H92914   1.531   1.051   2.468 -1.6185 -1.6358  0.0591
  704MOL0     H92915   1.324   0.992   2.373  2.1936 -0.0602  2.5006
  704MOL0     H92916   0.890   0.984   2.280 -1.0380 -2.0621  1.4293
  704MOL0     H92917   0.665   0.921   2.274  0.8566 -0.8674  0.7310
  704MOL0     H92918   0.347   1.233   2.389 -1.2602  0.5445  1.7118
  704MOL0     H92919   0.357   1.120   2.523  5.2788 -2.1755  0.2335
  704MOL0     H92920   0.133   1.097   2.398  1.4829 -0.6013  3.3779
  704MOL0     H92921   0.238   1.056   2.250 -1.8817  1.7174 -0.2407
  704MOL0     H92922   0.257   0.910   2.504 -1.3498  0.2381  0.8045
  704MOL0     H92923   0.278   0.853   2.336  3.1190  0.2814  1.6005
  704MOL0     H92924   0.077   0.773   2.478  2.8447 -0.0493  0.3934
  704MOL0     H92925   0.009   0.932   2.474  0.0420  0.4054 -0.3783
  704MOL0     H92926  -0.029   0.880   2.060 -2.0274  2.7888  0.7941
  704MOL0     H92927   0.541   1.276   2.465 -1.0038 -2.3356  1.5956
  704MOL0     H92928   0.776   1.352   2.493 -0.2528  1.0413 -0.5926
  705MOL0     O92929   3.950  10.688   5.524 -0.4870  0.6908 -0.4686
  705MOL0     C92930   3.985  10.571   5.513 -1.2842  0.2046  0.5607
  705MOL0     O92931   3.913  10.468   5.468 -0.2831  0.0426  0.5034
  705MOL0     C92932   3.795  10.486   5.402  0.3617  0.0604 -0.6456
  705MOL0     C92933   3.775  10.597   5.313  0.5653  0.0934 -1.0666
  705MOL0     C92934   3.652  10.620   5.251 -0.1401  0.3141 -0.2559
  705MOL0     C92935   3.556  10.523   5.261 -0.6712 -0.2816  0.2109
  705MOL0     O92936   3.433  10.538   5.199  0.2199  0.4608  0.5167
  705MOL0     C92937   3.425  10.552   5.054 -0.1574 -0.2025  0.3359
  705MOL0     C92938   3.305  10.467   4.999 -0.3815  0.9395 -0.8411
  705MOL0     C92939   3.170  10.522   5.057 -0.9321  0.1138  0.6618
  705MOL0     C92940   3.065  10.416   5.019  0.2164 -1.1366  0.5609
  705MOL0     C92941   2.942  10.469   5.094  0.5276 -0.7476  1.3266
  705MOL0     C92942   2.824  10.373   5.043  0.1849 -0.0607  0.7859
  705MOL0     C92943   2.675  10.417   5.066  0.0697 -0.3155 -0.6191
  705MOL0     C92944   2.648  10.438   5.209  0.8091  0.3026 -0.6836
  705MOL0     N92945   2.502  10.424   5.237  0.2642 -0.9068  1.1121
  705MOL0     C92946   2.436  10.305   5.265  0.4360 -0.4032 -0.0960
  705MOL0     C92947   2.304  10.346   5.272  0.4787 -0.6445  0.3346
  705MOL0     C92948   2.184  10.266   5.327  0.7899 -0.4430  0.3840
  705MOL0     C92949   2.100  10.210   5.216 -0.5669 -0.7042  0.6646
  705MOL0     C92950   1.960  10.175   5.252  0.4624  0.0219 -0.5620
  705MOL0     C92951   1.848  10.194   5.146 -0.3253 -0.1437 -0.8347
  705MOL0     O92952   1.848  10.084   5.058 -0.4480 -0.1849  0.1031
  705MOL0     C92953   1.730  10.012   5.055  1.0200  0.2528  0.1374
  705MOL0     C92954   1.657   9.997   4.935  0.1913 -0.4975  0.7017
  705MOL0     C92955   1.523   9.951   4.941 -0.6450 -0.4993 -0.8569
  705MOL0     C92956   1.459   9.916   5.058 -0.2855 -0.1015 -1.0315
  705MOL0     C92957   1.327   9.857   5.057 -0.1583  0.2680  0.1393
  705MOL0     O92958   1.272   9.813   5.181 -0.2039 -0.9959  0.3203
  705MOL0     C92959   1.139   9.769   5.190  0.3290  0.4249 -0.4293
  705MOL0     C92960   1.107   9.634   5.184 -0.0778  0.0784  0.0495
  705MOL0     C92961   0.969   9.600   5.182  0.3478 -0.1456  0.3607
  705MOL0     C92962   0.866   9.690   5.207 -0.7418  0.3498 -0.4211
  705MOL0     O92963   0.733   9.655   5.212  0.3927 -0.3959 -0.5068
  705MOL0     C92964   0.700   9.557   5.313  0.1545  0.3738 -0.1134
  705MOL0     C92965   0.550   9.563   5.350  0.9373 -0.7008 -1.0636
  705MOL0     C92966   0.452   9.519   5.245  0.3941 -0.1326  0.0318
  705MOL0     C92967   0.315   9.546   5.311 -0.3162 -0.0762  1.2392
  705MOL0     C92968   0.199   9.497   5.230  0.4433  0.1265  0.1635
  705MOL0     C92969   0.066   9.561   5.259 -0.7207  0.1885 -0.5082
  705MOL0     C92970  -0.007   9.511   5.382  0.6879 -0.4615 -0.2737
  705MOL0     C92971  -0.158   9.549   5.373 -0.0879 -0.2249 -0.9931
  705MOL0    Cl92972  -0.231   9.511   5.528  0.0529 -0.2006 -0.3161
  705MOL0     C92973   0.903   9.824   5.218  0.7095  0.2728 -0.0089
  705MOL0     C92974   1.041   9.867   5.212  0.0798  0.0326 -0.1783
  705MOL0     O92975   1.276   9.841   4.943 -0.1672  0.1341 -0.6397
  705MOL0     C92976   1.533   9.931   5.179  0.3670  0.1589 -0.3305
  705MOL0     C92977   1.663   9.975   5.177  0.8108 -0.3644 -0.0573
  705MOL0     N92978   2.295  10.482   5.235 -0.2844  0.0207 -0.0857
  705MOL0     N92979   2.414  10.527   5.216  0.0625  0.2303 -0.0830
  705MOL0     C92980   3.577  10.408   5.335  0.5939 -0.2638 -0.2550
  705MOL0     C92981   3.696  10.389   5.406  0.7540 -0.3033 -0.2987
  705MOL0     C92982   4.130  10.537   5.553  1.2204  0.4505 -0.3391
  705MOL0     C92983   4.212  10.620   5.627 -0.1084  0.0048  0.3246
  705MOL0     C92984   4.330  10.580   5.687  0.1795  0.7789 -0.5342
  705MOL0     C92985   4.385  10.457   5.656 -0.2176  1.2848 -0.1121
  705MOL0     O92986   4.498  10.402   5.709  0.1952 -0.3351 -0.0673
  705MOL0     C92987   4.583  10.495   5.788  0.3787  0.0585  0.0759
  705MOL0     C92988   4.724  10.447   5.818 -0.1716  0.1330  0.3428
  705MOL0     C92989   4.798  10.406   5.689  0.4617  0.5893 -0.2517
  705MOL0     C92990   4.944  10.349   5.711 -0.2079 -0.5344  0.7419
  705MOL0     C92991   5.043  10.446   5.766  1.1409 -0.4175 -0.5243
  705MOL0     C92992   5.131  10.517   5.808 -0.6823 -0.9347 -0.0450
  705MOL0     C92993   4.303  10.365   5.583 -0.3522  0.6921  0.1683
  705MOL0     C92994   4.176  10.403   5.546  0.9836  0.9430 -0.2774
  705MOL0     H92995   3.851  10.673   5.299 -0.3858  1.2391 -0.2494
  705MOL0     H92996   3.634  10.713   5.198  2.0502  0.3602 -1.0433
  705MOL0     H92997   3.518  10.521   5.005  0.8028  2.7454  0.0876
  705MOL0     H92998   3.412  10.656   5.021  0.6515 -0.3082 -0.3623
  705MOL0     H92999   3.313  10.361   5.027  0.8669  1.9420  3.3111
  705MOL0     H93000   3.295  10.462   4.890  3.0324  0.5836 -1.2469
  705MOL0     H93001   3.147  10.620   5.015 -0.3485  0.2388  0.6139
  705MOL0     H93002   3.179  10.527   5.166 -2.7493 -1.6845  0.9593
  705MOL0     H93003   3.059  10.412   4.910  1.3363  2.5551  0.2336
  705MOL0     H93004   3.080  10.318   5.067  2.5312 -0.9141  0.3979
  705MOL0     H93005   2.921  10.569   5.058 -1.5223 -1.5007  0.2800
  705MOL0     H93006   2.956  10.459   5.202  2.8528 -3.5357  0.8984
  705MOL0     H93007   2.841  10.274   5.086  0.1362 -0.3183  0.2105
  705MOL0     H93008   2.835  10.363   4.935 -3.0339  2.4240  0.0605
  705MOL0     H93009   2.650  10.513   5.021 -2.4055 -0.4280  0.3442
  705MOL0     H93010   2.605  10.349   5.017 -1.6765  1.1573 -0.2740
  705MOL0     H93011   2.687  10.536   5.238  1.8657 -0.2474 -0.1878
  705MOL0     H93012   2.699  10.369   5.277 -0.6109 -0.4201 -0.3084
  705MOL0     H93013   2.484  10.212   5.292  0.6192 -0.6140 -1.0944
  705MOL0     H93014   2.124  10.335   5.387 -1.6610 -1.6330 -0.5914
  705MOL0     H93015   2.218  10.185   5.392  0.9276 -1.1956 -0.6077
  705MOL0     H93016   2.153  10.122   5.180  1.4597  0.0927  1.5522
  705MOL0     H93017   2.098  10.286   5.137  1.2677  0.4481  1.6531
  705MOL0     H93018   1.953  10.067   5.266 -1.6492 -0.0220 -1.5808
  705MOL0     H93019   1.923  10.223   5.343 -1.4702  1.9819 -2.2489
  705MOL0     H93020   1.857  10.289   5.094 -4.0272 -0.2220 -1.8677
  705MOL0     H93021   1.748  10.200   5.187 -0.1650 -0.7233 -0.3424
  705MOL0     H93022   1.690  10.025   4.836 -2.1951 -1.1861 -0.3594
  705MOL0     H93023   1.467   9.933   4.850 -1.6737  2.7706 -1.0050
  705MOL0     H93024   1.183   9.559   5.167  1.0171  1.1671  0.0127
  705MOL0     H93025   0.948   9.494   5.167 -2.0451  0.1513  1.1878
  705MOL0     H93026   0.775   9.563   5.392 -1.8026 -1.0622  1.9657
  705MOL0     H93027   0.713   9.462   5.261  1.8485  0.4081  0.1849
  705MOL0     H93028   0.526   9.665   5.380  1.1025 -0.7407 -0.7975
  705MOL0     H93029   0.540   9.495   5.435  0.2631 -2.4790 -2.4756
  705MOL0     H93030   0.463   9.417   5.206  1.6661 -0.0305  0.1012
  705MOL0     H93031   0.460   9.581   5.156 -1.8400  0.4076  0.1544
  705MOL0     H93032   0.306   9.498   5.408 -2.5548 -1.0562  0.6021
  705MOL0     H93033   0.301   9.653   5.329 -0.1865  0.3864 -1.0444
  705MOL0     H93034   0.189   9.390   5.253  3.1608  0.0358  1.3575
  705MOL0     H93035   0.214   9.505   5.122 -2.5727 -0.1998 -0.3574
  705MOL0     H93036   0.004   9.543   5.170 -0.5712 -0.2419 -0.5250
  705MOL0     H93037   0.087   9.668   5.271  0.3750  0.2126 -2.3200
  705MOL0     H93038  -0.006   9.403   5.393 -0.8049 -0.2688  3.0663
  705MOL0     H93039   0.032   9.542   5.479  1.8910 -3.2349  0.2181
  705MOL0     H93040  -0.214   9.509   5.288 -0.6113  0.7159 -1.1100
  705MOL0     H93041  -0.166   9.657   5.357  0.4683 -0.3772 -2.3839
  705MOL0     H93042   0.824   9.894   5.244 -0.6684 -0.0502 -2.8960
  705MOL0     H93043   1.061   9.973   5.222  0.4232  0.4213 -3.6105
  705MOL0     H93044   1.485   9.907   5.273 -0.2274  0.0545 -0.6602
  705MOL0     H93045   1.726   9.984   5.265  0.9262 -1.2977 -0.0404
  705MOL0     H93046   3.487  10.352   5.357 -0.4529  2.0101  1.6315
  705MOL0     H93047   3.714  10.302   5.468 -1.2048 -0.1576  0.5323
  705MOL0     H93048   4.171  10.717   5.653  0.9750  0.6622 -0.2950
  705MOL0     H93049   4.377  10.655   5.751  0.3152 -0.7858  1.3032
  705MOL0     H93050   4.524  10.510   5.879 -1.3647  0.2449 -1.0246
  705MOL0     H93051   4.590  10.592   5.739  0.8328  0.5913  1.1685
  705MOL0     H93052   4.771  10.533   5.866  1.7643 -1.4352  1.4138
  705MOL0     H93053   4.726  10.363   5.888  0.4369 -1.6323 -1.6795
  705MOL0     H93054   4.802  10.494   5.624  0.9448  1.3982  0.8318
  705MOL0     H93055   4.744  10.321   5.647 -4.1655  1.6039  2.8624
  705MOL0     H93056   4.934  10.267   5.782  1.3718 -1.7465 -0.3775
  705MOL0     H93057   4.986  10.302   5.621 -0.7330  0.4130 -0.0294
  705MOL0     H93058   5.222  10.570   5.829 -0.8107 -0.8936  0.4302
  705MOL0     H93059   4.338  10.264   5.565 -0.1437  0.7139  0.4590
  705MOL0     H93060   4.118  10.337   5.481 -1.2405  4.0367 -1.7022
  706MOL0     O93061   0.739   6.099   0.480  1.0745  0.1373 -0.0334
  706MOL0     C93062   0.672   6.174   0.410  0.4735  0.1470  0.4348
  706MOL0     O93063   0.715   6.237   0.295  0.0468  0.0039  0.8043
  706MOL0     C93064   0.849   6.231   0.258  0.3651  0.2372  0.1192
  706MOL0     C93065   0.920   6.113   0.235  0.1454  0.4914  0.4150
  706MOL0     C93066   1.051   6.114   0.190  0.1010 -0.0479  0.0622
  706MOL0     C93067   1.118   6.221   0.156 -0.8487 -0.6925  0.6653
  706MOL0     O93068   1.245   6.212   0.106  1.6513  0.0942 -0.2248
  706MOL0     C93069   1.312   6.323   0.045  0.8973  0.2255 -0.1968
  706MOL0     C93070   1.403   6.253  -0.058  0.3775  0.5882 -0.1631
  706MOL0     C93071   1.503   6.342  -0.130 -0.3558 -0.3563  0.9239
  706MOL0     C93072   1.600   6.278  -0.235 -0.0265  0.2568 -0.3094
  706MOL0     C93073   1.532   6.263  -0.365 -0.2811  0.3060 -0.2360
  706MOL0     C93074   1.636   6.200  -0.460  0.8499  0.1652 -0.7271
  706MOL0     C93075   1.577   6.183  -0.600 -0.3183  0.1276  0.6023
  706MOL0     C93076   1.668   6.102  -0.686 -0.3049  0.2396 -0.2662
  706MOL0     N93077   1.677   5.960  -0.644 -0.0954  0.8806 -0.0743
  706MOL0     C93078   1.569   5.889  -0.635  0.6065  0.2006  0.6238
  706MOL0     C93079   1.602   5.778  -0.565  0.1281 -0.6712 -0.8404
  706MOL0     C93080   1.506   5.662  -0.556  0.6374 -0.9434 -0.1218
  706MOL0     C93081   1.386   5.708  -0.478  0.2900  0.5449  0.2756
  706MOL0     C93082   1.283   5.594  -0.468  0.0122  0.0705 -0.0903
  706MOL0     C93083   1.146   5.635  -0.430 -0.1464  1.0506 -0.0347
  706MOL0     O93084   1.082   5.737  -0.517 -0.3437  0.0851  0.0941
  706MOL0     C93085   0.961   5.804  -0.484 -0.9311 -0.6030  0.3101
  706MOL0     C93086   0.933   5.928  -0.544 -0.9789 -0.2800 -0.6456
  706MOL0     C93087   0.807   5.992  -0.514  0.2415 -0.3614  0.2788
  706MOL0     C93088   0.715   5.938  -0.418 -0.4115  0.9479 -0.4135
  706MOL0     C93089   0.564   5.967  -0.411 -0.6437 -0.8664  0.4181
  706MOL0     O93090   0.484   5.874  -0.358 -0.5383 -0.2512 -0.3980
  706MOL0     C93091   0.352   5.895  -0.368  0.9615 -0.5022 -0.2972
  706MOL0     C93092   0.281   5.878  -0.487 -0.7805 -0.0935 -0.3739
  706MOL0     C93093   0.152   5.912  -0.493  0.2494  0.1549 -0.3824
  706MOL0     C93094   0.076   5.945  -0.380 -0.3243  0.1769 -0.0014
  706MOL0     O93095  -0.058   5.949  -0.408 -0.3615 -0.2399 -0.5337
  706MOL0     C93096  -0.151   5.922  -0.305 -0.6131  0.1183 -0.2436
  706MOL0     C93097  -0.293   5.913  -0.367 -0.1238 -0.4492 -0.4319
  706MOL0     C93098  -0.381   5.814  -0.287 -0.1166 -0.4034 -0.3937
  706MOL0     C93099  -0.523   5.817  -0.310 -0.3050 -0.8271  0.0313
  706MOL0     C93100  -0.598   5.940  -0.255  1.4100  0.2543 -0.3466
  706MOL0     C93101  -0.752   5.919  -0.246 -0.3885 -0.0368 -0.2737
  706MOL0     C93102  -0.815   6.012  -0.357  0.6034 -0.1337 -0.1547
  706MOL0     C93103  -0.947   5.962  -0.391  0.3201  0.6271 -0.7346
  706MOL0    Cl93104  -1.066   6.019  -0.265 -0.1656  0.9824  0.1605
  706MOL0     C93105   0.146   5.962  -0.256  0.4045  0.4589  0.5930
  706MOL0     C93106   0.287   5.952  -0.254 -0.1144 -0.0832  1.4625
  706MOL0     O93107   0.531   6.082  -0.452 -0.2017 -0.4131  0.5588
  706MOL0     C93108   0.758   5.831  -0.351  0.5364  0.6820 -0.3038
  706MOL0     C93109   0.882   5.769  -0.381 -0.0885  0.3527 -0.4658
  706MOL0     N93110   1.739   5.792  -0.544 -0.1563  0.0085  0.2568
  706MOL0     N93111   1.781   5.905  -0.577 -0.1500  0.8359  0.2166
  706MOL0     C93112   1.053   6.340   0.186  0.3365 -0.7571 -1.0606
  706MOL0     C93113   0.923   6.350   0.241  0.5912  0.0258 -0.4902
  706MOL0     C93114   0.532   6.198   0.432 -0.0696 -0.6089 -0.7254
  706MOL0     C93115   0.462   6.117   0.527 -0.7158 -0.3430 -0.0627
  706MOL0     C93116   0.323   6.133   0.553 -0.1269  0.2008 -0.1939
  706MOL0     C93117   0.257   6.242   0.494 -0.1506 -0.4619 -0.0525
  706MOL0     O93118   0.126   6.272   0.527  0.2898 -0.3096 -0.0461
  706MOL0     C93119   0.022   6.209   0.449 -0.2423 -0.1147  0.6852
  706MOL0     C93120  -0.114   6.187   0.513 -0.2857  0.1725  0.1866
  706MOL0     C93121  -0.154   6.312   0.585  0.2647 -0.3775 -0.3366
  706MOL0     C93122  -0.297   6.314   0.653 -0.3008 -0.0516  0.1629
  706MOL0     C93123  -0.404   6.333   0.549 -0.3919  0.5752  0.3673
  706MOL0     C93124  -0.498   6.328   0.468  0.5547 -0.2483 -0.5426
  706MOL0     C93125   0.332   6.323   0.405  0.1359  0.6819  0.6984
  706MOL0     C93126   0.463   6.296   0.368 -0.8894  1.0765 -0.2196
  706MOL0     H93127   0.857   6.025   0.242 -1.4900  1.4861 -0.9071
  706MOL0     H93128   1.105   6.020   0.179  0.6185  0.0579  1.5460
  706MOL0     H93129   1.371   6.378   0.119  0.6629 -1.0403  0.9735
  706MOL0     H93130   1.249   6.397  -0.005  0.4898 -0.2811 -0.4463
  706MOL0     H93131   1.342   6.212  -0.139  0.0772 -0.9136  0.7787
  706MOL0     H93132   1.458   6.174  -0.006 -0.6769  1.2052  2.0380
  706MOL0     H93133   1.565   6.399  -0.059  3.6444 -2.2809 -0.7129
  706MOL0     H93134   1.465   6.431  -0.181  3.9721  0.6749 -0.9845
  706MOL0     H93135   1.693   6.336  -0.238  2.1133 -2.8190  1.4291
  706MOL0     H93136   1.633   6.179  -0.203  1.3364  0.2484 -1.6602
  706MOL0     H93137   1.503   6.356  -0.415 -0.5275 -0.2604 -1.1766
  706MOL0     H93138   1.440   6.205  -0.357 -0.3997  0.7288  1.8368
  706MOL0     H93139   1.669   6.104  -0.419  1.7140  1.4002  1.7067
  706MOL0     H93140   1.722   6.267  -0.455  0.8674  0.0452  1.7782
  706MOL0     H93141   1.470   6.159  -0.596 -0.1560 -0.5022  1.6151
  706MOL0     H93142   1.578   6.283  -0.644 -0.8943 -0.9231 -1.9913
  706MOL0     H93143   1.769   6.145  -0.682 -0.9569  1.6970  1.8986
  706MOL0     H93144   1.642   6.109  -0.792 -0.3784 -2.8215 -0.5396
  706MOL0     H93145   1.464   5.908  -0.656 -0.1066 -2.6935  1.1855
  706MOL0     H93146   1.544   5.569  -0.511  4.8032  0.0071 -1.1843
  706MOL0     H93147   1.486   5.617  -0.654  4.5778 -2.1983 -0.5460
  706MOL0     H93148   1.341   5.795  -0.526  2.8681  0.3715 -2.7251
  706MOL0     H93149   1.428   5.728  -0.379  2.0456 -3.6066  0.5866
  706MOL0     H93150   1.284   5.562  -0.572  0.4627 -1.1277  0.2627
  706MOL0     H93151   1.316   5.522  -0.392 -1.5137  1.5560  2.1170
  706MOL0     H93152   1.153   5.685  -0.333  1.0435  2.1530 -0.6580
  706MOL0     H93153   1.082   5.546  -0.425 -1.1456  1.7142 -0.7146
  706MOL0     H93154   0.997   5.973  -0.620 -2.8646  0.2744 -1.9831
  706MOL0     H93155   0.772   6.077  -0.571  1.8008  0.3326  0.2977
  706MOL0     H93156   0.334   5.838  -0.573 -2.6213 -0.7276 -1.2780
  706MOL0     H93157   0.093   5.898  -0.583 -3.9968 -0.6835  2.2302
  706MOL0     H93158  -0.154   6.004  -0.232 -0.2645 -1.8444  2.1157
  706MOL0     H93159  -0.112   5.827  -0.267  4.2625  0.9515 -2.4037
  706MOL0     H93160  -0.286   5.888  -0.474  1.8639  0.0945 -0.4660
  706MOL0     H93161  -0.343   6.010  -0.363  0.0358 -0.3565 -0.6444
  706MOL0     H93162  -0.364   5.841  -0.182  0.5737  0.9418 -0.8276
  706MOL0     H93163  -0.348   5.710  -0.293 -1.9400 -1.0162 -0.3830
  706MOL0     H93164  -0.561   5.794  -0.410 -1.5069 -2.4809  0.8273
  706MOL0     H93165  -0.560   5.733  -0.251 -0.0876 -1.1964 -0.3530
  706MOL0     H93166  -0.582   6.036  -0.305 -2.3096  1.5742  0.6689
  706MOL0     H93167  -0.568   5.964  -0.153 -1.4418 -0.1352  0.6657
  706MOL0     H93168  -0.788   5.940  -0.145 -0.4157 -5.7473  1.2624
  706MOL0     H93169  -0.767   5.811  -0.257  3.4335 -0.6651 -0.4369
  706MOL0     H93170  -0.813   6.119  -0.333 -4.5500  0.5637 -1.6039
  706MOL0     H93171  -0.755   6.001  -0.447  0.4566  0.0707 -0.2793
  706MOL0     H93172  -0.949   5.853  -0.397 -3.1384 -0.1473  5.3774
  706MOL0     H93173  -0.969   6.015  -0.484  0.5391 -0.2209 -1.2787
  706MOL0     H93174   0.095   5.979  -0.162  0.7141 -1.8001  1.2350
  706MOL0     H93175   0.345   5.963  -0.163  0.2684 -0.1720  1.2320
  706MOL0     H93176   0.695   5.782  -0.278  1.0857 -0.6083 -0.6500
  706MOL0     H93177   0.898   5.675  -0.328 -2.0927 -0.7472 -1.7106
  706MOL0     H93178   1.100   6.438   0.182 -2.0714  0.4867 -0.7682
  706MOL0     H93179   0.886   6.450   0.259 -1.7361 -1.1044  1.7324
  706MOL0     H93180   0.513   6.037   0.579 -0.4725 -0.0019  0.2227
  706MOL0     H93181   0.257   6.082   0.622  0.4542 -1.4241 -0.7728
  706MOL0     H93182   0.059   6.117   0.404  3.1318  1.5843 -0.3150
  706MOL0     H93183   0.003   6.279   0.367 -2.0644 -1.3343  0.0036
  706MOL0     H93184  -0.198   6.147   0.456 -1.0796 -1.4741  2.3970
  706MOL0     H93185  -0.096   6.108   0.586 -0.9319  1.2081  1.5356
  706MOL0     H93186  -0.155   6.397   0.516 -3.0482 -0.4733 -0.5664
  706MOL0     H93187  -0.086   6.335   0.667 -2.5672  0.9930  1.8327
  706MOL0     H93188  -0.324   6.225   0.710 -2.4493 -0.8290 -1.8949
  706MOL0     H93189  -0.313   6.404   0.713  0.9585  0.2486  0.0874
  706MOL0     H93190  -0.581   6.325   0.400 -1.8406 -2.3500  2.2194
  706MOL0     H93191   0.296   6.390   0.328  0.1559 -1.1035 -0.9389
  706MOL0     H93192   0.512   6.351   0.289  1.9113  1.6291  1.7396
  707MOL0     O93193  10.562   7.185   8.775  0.3475  0.3914  0.3667
  707MOL0     C93194  10.594   7.237   8.664  0.3105 -0.7738  0.5441
  707MOL0     O93195  10.528   7.227   8.550  0.5359  0.0405  0.9164
  707MOL0     C93196  10.402   7.154   8.541  0.1114 -0.6330 -0.3118
  707MOL0     C93197  10.387   7.023   8.582 -0.0592  0.1633 -0.2744
  707MOL0     C93198  10.254   6.970   8.591 -1.0506  0.5851 -0.0267
  707MOL0     C93199  10.149   7.037   8.528 -0.6475 -0.4301  0.5226
  707MOL0     O93200  10.032   6.966   8.517  0.5599 -0.4221  0.6762
  707MOL0     C93201   9.918   7.035   8.582  0.4933 -0.1946  0.9485
  707MOL0     C93202   9.828   6.932   8.654  0.9463  0.5380  0.3133
  707MOL0     C93203   9.870   6.879   8.794  0.5547  0.6085  1.1600
  707MOL0     C93204   9.750   6.795   8.834  0.5642 -0.2638 -0.3432
  707MOL0     C93205   9.783   6.707   8.955  0.8592 -0.1989  0.2000
  707MOL0     C93206   9.704   6.573   8.956  0.2464 -0.0461 -0.4378
  707MOL0     C93207   9.561   6.583   9.005 -0.2303 -1.2431  0.0047
  707MOL0     C93208   9.480   6.455   8.974  0.7353  0.4180  0.1199
  707MOL0     N93209   9.347   6.460   9.041  0.1883 -0.1382 -0.5297
  707MOL0     C93210   9.222   6.493   8.985 -0.4325 -0.3201  0.1944
  707MOL0     C93211   9.134   6.466   9.083  0.0079  0.6504 -0.1207
  707MOL0     C93212   8.986   6.486   9.070 -0.3173  0.4026 -0.0610
  707MOL0     C93213   8.903   6.369   9.129  0.0249  0.5858 -0.5760
  707MOL0     C93214   8.750   6.398   9.120 -0.1716  0.1791 -0.4555
  707MOL0     C93215   8.669   6.304   9.204  0.2756  0.7902  0.4680
  707MOL0     O93216   8.537   6.347   9.234  0.6282 -0.9136  0.1119
  707MOL0     C93217   8.449   6.270   9.301 -0.2027 -0.0760 -0.1060
  707MOL0     C93218   8.338   6.324   9.349 -0.4961  0.0904 -0.0214
  707MOL0     C93219   8.237   6.248   9.400  0.4976  0.3855 -0.0773
  707MOL0     C93220   8.256   6.111   9.438 -0.4554  0.4053  0.8155
  707MOL0     C93221   8.153   6.028   9.520 -0.4413  0.4522  0.3512
  707MOL0     O93222   8.185   5.899   9.549 -0.3675 -0.1057  0.8092
  707MOL0     C93223   8.108   5.825   9.638 -0.4318 -0.3887  0.8506
  707MOL0     C93224   7.970   5.812   9.629  0.0755  0.2503 -0.2065
  707MOL0     C93225   7.902   5.716   9.701  0.6111 -0.1331 -0.6954
  707MOL0     C93226   7.972   5.630   9.789 -0.4173  0.5945  1.6830
  707MOL0     O93227   7.915   5.531   9.864 -0.5611 -0.5045 -0.1017
  707MOL0     C93228   7.812   5.575   9.956  0.7947  0.1595 -0.1111
  707MOL0     C93229   7.785   5.471  10.059 -0.3458  0.4066 -0.4920
  707MOL0     C93230   7.731   5.544  10.187  0.6820  0.7198  0.7333
  707MOL0     C93231   7.588   5.613  10.164 -0.0033 -0.9596 -0.1188
  707MOL0     C93232   7.544   5.680  10.301 -0.4317  0.0859  0.0466
  707MOL0     C93233   7.419   5.768  10.264 -0.3904 -0.3748 -0.2603
  707MOL0     C93234   7.365   5.843  10.394 -0.3122  0.4167  0.3775
  707MOL0     C93235   7.258   5.942  10.355  0.4669  0.0639 -0.3709
  707MOL0    Cl93236   7.133   5.852  10.258 -0.1997 -0.2274  0.4136
  707MOL0     C93237   8.116   5.639   9.804  0.3506 -0.1425  0.8805
  707MOL0     C93238   8.178   5.742   9.731 -0.7919 -1.0054  0.2926
  707MOL0     O93239   8.039   6.076   9.532 -0.3907 -0.1888  0.1647
  707MOL0     C93240   8.376   6.049   9.394  0.9924 -0.5601  0.3931
  707MOL0     C93241   8.467   6.128   9.320  0.0574  0.1118  0.4932
  707MOL0     N93242   9.195   6.438   9.204 -0.2560 -0.5955  0.0676
  707MOL0     N93243   9.319   6.435   9.174 -0.6475 -0.6743  0.1247
  707MOL0     C93244  10.177   7.162   8.469  0.3263 -0.7324 -0.5754
  707MOL0     C93245  10.305   7.212   8.468  0.8000  0.6443 -0.0944
  707MOL0     C93246  10.729   7.307   8.657  0.9251 -0.0556  0.0370
  707MOL0     C93247  10.809   7.345   8.765 -0.7133  0.0057  0.0564
  707MOL0     C93248  10.926   7.417   8.753 -0.5874  0.1464  0.6790
  707MOL0     C93249  10.977   7.439   8.626  0.6093  0.2717  0.4822
  707MOL0     O93250  11.090   7.513   8.617  0.4488 -0.1992 -0.0200
  707MOL0     C93251  11.069   7.647   8.658 -1.1788  0.4661 -0.1148
  707MOL0     C93252  11.124   7.735   8.545  0.2005  0.8796  0.3156
  707MOL0     C93253  11.055   7.713   8.411  0.8360 -0.3497 -0.2106
  707MOL0     C93254  11.087   7.825   8.319  0.0724 -0.3813 -0.7586
  707MOL0     C93255  11.231   7.850   8.312  0.0903  0.5290  0.0246
  707MOL0     C93256  11.350   7.868   8.326  0.7391 -0.1619 -0.2317
  707MOL0     C93257  10.917   7.390   8.512 -0.0021  0.7925 -0.2635
  707MOL0     C93258  10.789   7.324   8.524 -0.5931 -0.3426 -0.1389
  707MOL0     H93259  10.467   6.971   8.634 -2.4112 -2.1666  1.2366
  707MOL0     H93260  10.235   6.868   8.622 -0.8851  1.2274  2.3812
  707MOL0     H93261   9.848   7.075   8.509  2.3311 -3.3949 -2.9690
  707MOL0     H93262   9.948   7.117   8.648  0.7606 -0.1954  0.8333
  707MOL0     H93263   9.821   6.848   8.585 -0.9023 -0.3257  1.4899
  707MOL0     H93264   9.733   6.987   8.658  0.0157 -0.9404 -0.5354
  707MOL0     H93265   9.893   6.962   8.861 -0.2819  1.6359  0.2195
  707MOL0     H93266   9.959   6.816   8.784  1.5405  1.9439  1.1659
  707MOL0     H93267   9.669   6.860   8.868  0.6382 -0.5021  0.3169
  707MOL0     H93268   9.717   6.733   8.750  0.4962 -1.1350  0.3101
  707MOL0     H93269   9.758   6.760   9.048  1.7956  0.1647  0.2564
  707MOL0     H93270   9.890   6.685   8.957  0.1130 -4.7679  0.6145
  707MOL0     H93271   9.758   6.507   9.025 -0.9200  0.7048  1.2669
  707MOL0     H93272   9.692   6.545   8.851 -1.9701  2.3094 -0.8952
  707MOL0     H93273   9.570   6.607   9.111 -2.1646 -1.3036  0.2285
  707MOL0     H93274   9.514   6.672   8.962 -0.5635 -1.1351  0.5794
  707MOL0     H93275   9.530   6.366   9.013  1.9174  0.2010 -1.8066
  707MOL0     H93276   9.457   6.450   8.868  0.1619 -0.1845  0.2620
  707MOL0     H93277   9.209   6.529   8.883 -0.5779 -0.8083  0.0395
  707MOL0     H93278   8.957   6.493   8.965 -2.0391  0.6579  0.4048
  707MOL0     H93279   8.948   6.581   9.109 -1.6124 -1.3245  3.2895
  707MOL0     H93280   8.926   6.365   9.236 -1.6977  0.4104 -0.1826
  707MOL0     H93281   8.929   6.275   9.080  2.0524  0.5046  0.5486
  707MOL0     H93282   8.729   6.492   9.172 -0.2952 -1.0332  1.7827
  707MOL0     H93283   8.723   6.411   9.015  1.8793  1.8151 -0.8326
  707MOL0     H93284   8.723   6.275   9.295  1.7111  2.5982  0.2548
  707MOL0     H93285   8.661   6.214   9.142  0.0670  0.3688  1.1021
  707MOL0     H93286   8.335   6.432   9.339  0.7932  0.0322 -1.3715
  707MOL0     H93287   8.143   6.285   9.440 -0.9546 -2.2155 -0.8576
  707MOL0     H93288   7.919   5.864   9.549 -0.5965 -0.3868 -0.1968
  707MOL0     H93289   7.797   5.698   9.683  0.5527  0.4852 -1.0173
  707MOL0     H93290   7.718   5.578   9.901 -0.5223 -0.4435  1.9960
  707MOL0     H93291   7.845   5.670   9.999 -2.0224  1.8031 -1.3194
  707MOL0     H93292   7.870   5.403  10.069 -0.4766  0.1686 -0.9781
  707MOL0     H93293   7.695   5.419  10.025 -0.6561 -1.0452  2.2523
  707MOL0     H93294   7.800   5.621  10.222  0.7920  0.1517  1.8245
  707MOL0     H93295   7.725   5.475  10.272  1.1828  1.7359  1.6150
  707MOL0     H93296   7.594   5.692  10.088 -0.5303  0.9567  1.7209
  707MOL0     H93297   7.518   5.535  10.132 -1.3785  0.1186  0.1823
  707MOL0     H93298   7.625   5.747  10.334  0.4806  1.3944 -4.2745
  707MOL0     H93299   7.520   5.609  10.381 -2.5026 -0.4563 -0.9984
  707MOL0     H93300   7.339   5.707  10.220  0.6256 -0.6012 -1.8924
  707MOL0     H93301   7.451   5.845  10.194 -0.7399  0.5133  0.5390
  707MOL0     H93302   7.318   5.768  10.458 -1.3820  0.4485 -0.3550
  707MOL0     H93303   7.447   5.890  10.449 -0.6093  0.1292  1.0778
  707MOL0     H93304   7.317   6.022  10.309  1.6924 -0.3132  0.4836
  707MOL0     H93305   7.200   5.979  10.440 -0.9950 -6.4459  2.0876
  707MOL0     H93306   8.181   5.568   9.853  0.4727 -0.2792  0.5159
  707MOL0     H93307   8.284   5.764   9.730 -1.2196  1.3486  1.2234
  707MOL0     H93308   8.394   5.948   9.430 -0.8098  0.4121  4.7527
  707MOL0     H93309   8.563   6.089   9.287  0.6374  0.8230  1.2951
  707MOL0     H93310  10.104   7.205   8.401  0.5823 -0.7514 -0.8641
  707MOL0     H93311  10.329   7.303   8.415 -3.2580  1.7351 -0.3224
  707MOL0     H93312  10.785   7.324   8.869  2.7593  0.3329  1.0335
  707MOL0     H93313  10.993   7.440   8.836 -1.8710  1.0040  1.5142
  707MOL0     H93314  11.114   7.661   8.757 -0.1825 -2.2960 -0.0879
  707MOL0     H93315  10.965   7.676   8.671 -0.6678  2.4165 -0.1217
  707MOL0     H93316  11.109   7.838   8.577 -0.9296  1.1998 -1.1627
  707MOL0     H93317  11.232   7.724   8.536  0.1653  1.8343 -1.5569
  707MOL0     H93318  10.947   7.703   8.424  0.8443 -1.3399 -0.8308
  707MOL0     H93319  11.087   7.615   8.377  0.6510 -0.6567  0.4725
  707MOL0     H93320  11.044   7.810   8.219  2.3880 -0.1276 -1.8707
  707MOL0     H93321  11.050   7.915   8.370 -0.7728 -1.4155  0.5251
  707MOL0     H93322  11.448   7.901   8.354  1.7120 -2.5070 -0.6529
  707MOL0     H93323  10.949   7.414   8.411 -0.3791  2.6022  0.0212
  707MOL0     H93324  10.732   7.291   8.438 -0.8341  0.0891 -0.1475
  708MOL0     O93325   5.137   8.505   9.415 -0.8790  0.0685 -0.5754
  708MOL0     C93326   5.191   8.439   9.323  1.0377  0.2743  0.0363
  708MOL0     O93327   5.120   8.383   9.217 -0.1677 -0.6574 -0.5581
  708MOL0     C93328   4.985   8.385   9.212 -0.1875 -0.3160 -0.2662
  708MOL0     C93329   4.942   8.326   9.093 -0.0654 -0.5541  0.0200
  708MOL0     C93330   4.810   8.325   9.054  0.2614  0.9393  0.9157
  708MOL0     C93331   4.711   8.393   9.137  0.6540  0.0537 -0.5994
  708MOL0     O93332   4.577   8.394   9.105  0.3619  0.3340 -0.5574
  708MOL0     C93333   4.541   8.405   8.966 -0.7969  0.0264  0.2475
  708MOL0     C93334   4.417   8.479   8.964 -0.3970 -0.2700  0.0293
  708MOL0     C93335   4.426   8.615   9.024 -0.2523 -0.7293  0.0654
  708MOL0     C93336   4.294   8.687   9.024 -0.4815  0.0262 -0.2295
  708MOL0     C93337   4.291   8.835   9.080  0.4527  0.4960 -0.9963
  708MOL0     C93338   4.139   8.872   9.112  0.5552 -0.4561  0.4022
  708MOL0     C93339   4.121   9.027   9.099 -1.2167  0.2231  0.0481
  708MOL0     C93340   3.984   9.069   9.151 -0.1262  0.7583  0.9314
  708MOL0     N93341   3.943   9.206   9.108 -0.4928 -0.5401  0.3342
  708MOL0     C93342   3.847   9.244   9.017 -0.4404 -0.2384 -0.7184
  708MOL0     C93343   3.826   9.376   9.045  0.2188 -0.3546  0.3355
  708MOL0     C93344   3.742   9.485   8.977 -0.7623  1.1054 -0.3290
  708MOL0     C93345   3.596   9.438   8.959  0.4399  0.0315 -0.5357
  708MOL0     C93346   3.515   9.564   8.927 -0.2501  0.8189  1.4988
  708MOL0     C93347   3.367   9.530   8.918 -0.4688  0.3204 -0.6520
  708MOL0     O93348   3.334   9.439   8.812 -0.3017  0.5913  0.1588
  708MOL0     C93349   3.221   9.367   8.806  0.3884 -0.1607  0.2550
  708MOL0     C93350   3.184   9.312   8.683 -0.3255 -0.3949  0.6976
  708MOL0     C93351   3.062   9.232   8.671 -0.6405 -0.9956 -0.3707
  708MOL0     C93352   2.983   9.207   8.784  0.5731  0.1538  0.8502
  708MOL0     C93353   2.859   9.122   8.761 -0.1395  0.2500 -0.2008
  708MOL0     O93354   2.808   9.112   8.632  0.0520  0.1271  0.0346
  708MOL0     C93355   2.701   9.026   8.612 -0.3809 -0.5391 -0.0165
  708MOL0     C93356   2.725   8.908   8.533 -0.1407  0.0666 -0.0573
  708MOL0     C93357   2.615   8.827   8.509 -0.3399  0.2640 -0.2362
  708MOL0     C93358   2.485   8.862   8.553  0.5720  0.7215  0.8725
  708MOL0     O93359   2.383   8.767   8.525  0.3721 -0.4704  0.3151
  708MOL0     C93360   2.314   8.746   8.650 -0.4253  0.6330 -0.2825
  708MOL0     C93361   2.233   8.613   8.627  0.4733  0.6728  0.0876
  708MOL0     C93362   2.130   8.588   8.747  0.4143  0.0011 -0.3116
  708MOL0     C93363   2.008   8.675   8.750  0.2927 -0.2210  0.8046
  708MOL0     C93364   1.911   8.627   8.854 -0.7489  0.0408  0.0743
  708MOL0     C93365   1.976   8.594   8.999  1.0223  0.4578  0.1887
  708MOL0     C93366   1.862   8.539   9.080 -0.0585 -0.0695 -0.2888
  708MOL0     C93367   1.886   8.544   9.228  0.4896 -0.4304 -0.5941
  708MOL0    Cl93368   1.922   8.708   9.304 -0.5279 -0.2694 -0.1475
  708MOL0     C93369   2.463   8.981   8.619  0.9682  0.3925  0.2823
  708MOL0     C93370   2.570   9.061   8.651  0.2542  0.5531 -0.2259
  708MOL0     O93371   2.797   9.086   8.865  0.0664  0.0883 -0.1092
  708MOL0     C93372   3.028   9.255   8.903 -0.2811  0.9755  0.2036
  708MOL0     C93373   3.141   9.330   8.919 -0.3963 -0.0996  0.0526
  708MOL0     N93374   3.905   9.416   9.146 -0.0531 -0.4704 -0.1979
  708MOL0     N93375   3.984   9.321   9.179 -0.2142 -0.5971 -0.9157
  708MOL0     C93376   4.751   8.451   9.258 -0.0331 -0.3808 -0.0569
  708MOL0     C93377   4.886   8.439   9.293  1.3139  0.2321 -0.4945
  708MOL0     C93378   5.338   8.439   9.319  0.9423  0.1276 -0.8013
  708MOL0     C93379   5.422   8.483   9.425 -0.6465 -0.2028 -0.2191
  708MOL0     C93380   5.561   8.474   9.417 -0.2144  0.2522  0.2186
  708MOL0     C93381   5.625   8.429   9.297  0.8725 -0.6855 -0.2741
  708MOL0     O93382   5.763   8.417   9.285  0.3583  0.7688  0.1078
  708MOL0     C93383   5.850   8.485   9.380  0.3770  0.2770  0.0911
  708MOL0     C93384   5.819   8.640   9.385 -0.6296  0.5232 -0.2344
  708MOL0     C93385   5.903   8.713   9.276  0.2303  0.6333 -0.4432
  708MOL0     C93386   5.916   8.870   9.292 -0.5639  0.4533 -0.1372
  708MOL0     C93387   5.923   8.948   9.171 -0.2328  0.1913 -0.6104
  708MOL0     C93388   5.937   9.010   9.069  0.5827  0.6338 -0.3806
  708MOL0     C93389   5.541   8.387   9.194 -0.0203 -0.8831 -0.5166
  708MOL0     C93390   5.400   8.383   9.208 -0.1259  0.4783  0.0142
  708MOL0     H93391   5.018   8.272   9.037  0.0343 -1.4064  0.9460
  708MOL0     H93392   4.778   8.267   8.969 -1.0720  0.5307  1.6692
  708MOL0     H93393   4.536   8.305   8.922 -1.1397  1.2163 -2.6477
  708MOL0     H93394   4.624   8.445   8.907 -0.2327  2.4066  2.4821
  708MOL0     H93395   4.343   8.412   9.009 -1.8156  0.2746 -1.3906
  708MOL0     H93396   4.385   8.487   8.860 -1.0809 -1.1129  0.1727
  708MOL0     H93397   4.494   8.674   8.962 -0.5397  0.5337  0.9153
  708MOL0     H93398   4.464   8.618   9.127  1.6147 -0.4744 -0.5971
  708MOL0     H93399   4.244   8.682   8.927 -1.5935 -3.1498  0.3978
  708MOL0     H93400   4.227   8.623   9.081  1.1183 -2.7572 -1.2630
  708MOL0     H93401   4.336   8.903   9.006  1.7204 -0.9450 -1.6032
  708MOL0     H93402   4.339   8.848   9.177 -1.9035  0.5064  0.2275
  708MOL0     H93403   4.110   8.820   9.203 -0.1602 -0.2045  0.3245
  708MOL0     H93404   4.083   8.834   9.026  3.9452  0.9026 -2.7153
  708MOL0     H93405   4.198   9.074   9.160 -0.6071 -0.3460 -0.2630
  708MOL0     H93406   4.132   9.066   8.998  4.0775 -1.1370 -0.2098
  708MOL0     H93407   3.988   9.072   9.260 -0.0898 -1.4068  1.0374
  708MOL0     H93408   3.914   8.990   9.124 -0.7184  1.2716  0.9418
  708MOL0     H93409   3.793   9.189   8.940 -2.0502  0.7020 -0.3110
  708MOL0     H93410   3.786   9.509   8.879  1.5452 -0.6736  0.1894
  708MOL0     H93411   3.755   9.573   9.040  0.1851  0.6276  0.1722
  708MOL0     H93412   3.547   9.392   9.046  1.8123  3.2703  2.1809
  708MOL0     H93413   3.595   9.367   8.876  0.2587  0.8362 -1.2490
  708MOL0     H93414   3.539   9.644   8.998 -0.1375  0.9825  1.2740
  708MOL0     H93415   3.553   9.603   8.833  1.1961 -1.3826  1.1141
  708MOL0     H93416   3.313   9.621   8.890  1.6589  3.0460  3.1826
  708MOL0     H93417   3.328   9.491   9.013 -0.0450  0.8223 -0.2736
  708MOL0     H93418   3.246   9.326   8.595 -0.8805 -1.4176  0.1337
  708MOL0     H93419   3.044   9.191   8.572  3.2281  1.2083 -2.2165
  708MOL0     H93420   2.825   8.889   8.497 -0.0543 -2.8839  1.4463
  708MOL0     H93421   2.641   8.746   8.443  0.0536 -0.1819  0.4578
  708MOL0     H93422   2.238   8.819   8.680 -0.7109  0.0273  0.5349
  708MOL0     H93423   2.381   8.732   8.735 -0.2355  0.1305 -0.5126
  708MOL0     H93424   2.296   8.525   8.611  0.7836  0.7455  0.8519
  708MOL0     H93425   2.170   8.626   8.539 -0.2090  1.0653  0.6261
  708MOL0     H93426   2.185   8.611   8.839 -0.2920 -1.2405  0.4448
  708MOL0     H93427   2.110   8.481   8.758  1.8357 -0.0503  5.2380
  708MOL0     H93428   2.030   8.781   8.766  1.4569 -0.1374 -1.1134
  708MOL0     H93429   1.956   8.676   8.654  2.6618  0.8744 -0.5652
  708MOL0     H93430   1.852   8.540   8.823 -2.1981  0.4624  1.4783
  708MOL0     H93431   1.828   8.698   8.869 -1.1711 -0.2833 -0.6684
  708MOL0     H93432   2.031   8.677   9.043  1.4740 -0.7194  1.9536
  708MOL0     H93433   2.048   8.511   8.999  0.5291  0.0129 -0.6435
  708MOL0     H93434   1.770   8.589   9.047 -0.2869 -1.3695 -1.7259
  708MOL0     H93435   1.842   8.433   9.061 -0.5447 -0.0171 -0.0695
  708MOL0     H93436   1.969   8.473   9.241  0.3874 -1.3023 -3.8950
  708MOL0     H93437   1.792   8.516   9.278 -1.2910  1.1644 -2.8590
  708MOL0     H93438   2.361   9.004   8.650 -0.0594 -4.9122  1.9116
  708MOL0     H93439   2.541   9.151   8.704 -1.2847  0.8567 -1.4848
  708MOL0     H93440   2.978   9.235   8.998  0.6087 -1.4762  0.2218
  708MOL0     H93441   3.170   9.368   9.016 -0.0488  2.2926 -0.9157
  708MOL0     H93442   4.676   8.487   9.328 -0.5700 -1.7766  0.1223
  708MOL0     H93443   4.900   8.488   9.388 -1.5406  2.3042 -1.0154
  708MOL0     H93444   5.376   8.495   9.522  1.2631 -2.8354  1.1402
  708MOL0     H93445   5.618   8.494   9.507  0.5261  2.1908 -0.6147
  708MOL0     H93446   5.957   8.475   9.358  1.1017  2.3752  2.3264
  708MOL0     H93447   5.825   8.443   9.478 -2.3563  1.2876 -0.0784
  708MOL0     H93448   5.711   8.654   9.373 -0.3335  1.5504 -2.2551
  708MOL0     H93449   5.855   8.682   9.480  2.2221  1.4749 -1.5980
  708MOL0     H93450   5.845   8.685   9.187 -1.7595  0.8298  0.7370
  708MOL0     H93451   6.002   8.665   9.277 -0.1616 -0.3133  2.7483
  708MOL0     H93452   5.820   8.900   9.334 -2.5308 -2.5728 -2.0464
  708MOL0     H93453   6.006   8.899   9.347  1.2224  3.2564 -4.0465
  708MOL0     H93454   5.971   9.053   8.977 -1.9260  1.0269 -1.1979
  708MOL0     H93455   5.596   8.357   9.106  0.8758 -2.1057  0.4443
  708MOL0     H93456   5.338   8.335   9.133 -0.9933 -2.7038  2.5646
  709MOL0     O93457   9.723   5.047   4.784 -0.2558  0.2703 -0.3958
  709MOL0     C93458   9.779   5.120   4.866 -0.9697  0.4860  0.1369
  709MOL0     O93459   9.718   5.183   4.972 -0.3389  0.5861 -0.3809
  709MOL0     C93460   9.576   5.177   4.992  0.1782 -0.6593 -0.3594
  709MOL0     C93461   9.475   5.130   4.912 -0.1415 -0.2351  0.3175
  709MOL0     C93462   9.342   5.142   4.947  0.0846 -0.2702 -0.4617
  709MOL0     C93463   9.304   5.190   5.070  0.6089 -0.1697 -0.6540
  709MOL0     O93464   9.177   5.218   5.116 -0.4022  0.5155 -0.0177
  709MOL0     C93465   9.065   5.154   5.053 -0.0310 -0.5218 -0.6037
  709MOL0     C93466   8.972   5.238   4.968 -0.3691 -0.2845  0.0444
  709MOL0     C93467   8.886   5.324   5.058 -0.4183  0.5988 -0.2962
  709MOL0     C93468   8.772   5.379   4.976  0.6640 -1.1513 -0.0281
  709MOL0     C93469   8.665   5.445   5.059 -0.9441 -0.1014 -1.2902
  709MOL0     C93470   8.563   5.524   4.973  0.0291  0.6416  0.1204
  709MOL0     C93471   8.432   5.545   5.040  0.4646  0.0662 -0.0813
  709MOL0     C93472   8.452   5.658   5.151  0.3876  0.5314 -0.3237
  709MOL0     N93473   8.330   5.736   5.165 -0.0910 -0.6537  0.6403
  709MOL0     C93474   8.225   5.705   5.244 -0.2310  1.0233 -0.4358
  709MOL0     C93475   8.136   5.804   5.231  0.7431  0.4577  0.2250
  709MOL0     C93476   8.017   5.815   5.327 -1.1327  0.6166 -0.2013
  709MOL0     C93477   7.887   5.828   5.247  0.5555 -0.1270  0.0261
  709MOL0     C93478   7.825   5.693   5.197  0.1711 -0.4972  0.2793
  709MOL0     C93479   7.677   5.706   5.148  0.7917 -0.8843 -0.0546
  709MOL0     O93480   7.583   5.738   5.252 -0.6270  0.9571 -0.0560
  709MOL0     C93481   7.515   5.630   5.309  0.4282  0.3606  0.7618
  709MOL0     C93482   7.480   5.509   5.239  0.9499  0.2768 -0.4592
  709MOL0     C93483   7.400   5.401   5.293 -0.4620 -1.1584 -0.2121
  709MOL0     C93484   7.350   5.413   5.419  0.0620  0.7939 -0.0015
  709MOL0     C93485   7.259   5.308   5.468  0.0073  0.0209  0.3757
  709MOL0     O93486   7.219   5.218   5.370 -0.3888  0.5093  0.4852
  709MOL0     C93487   7.139   5.115   5.400 -0.3095  0.5792  0.6587
  709MOL0     C93488   7.003   5.126   5.384 -0.0074  0.1656 -0.3289
  709MOL0     C93489   6.917   5.024   5.415 -0.4880  0.5172 -0.6524
  709MOL0     C93490   6.969   4.904   5.478  0.2108 -0.5606  0.6930
  709MOL0     O93491   6.895   4.802   5.509  0.5658 -0.5671 -0.4335
  709MOL0     C93492   6.803   4.824   5.622 -0.1008  0.2213 -0.1795
  709MOL0     C93493   6.812   4.698   5.717  0.1015 -0.7209 -0.0087
  709MOL0     C93494   6.759   4.573   5.642 -0.0007 -0.3856 -0.2626
  709MOL0     C93495   6.716   4.470   5.755 -0.0818  0.1952 -0.2907
  709MOL0     C93496   6.721   4.331   5.698 -0.3424  0.0635  0.2814
  709MOL0     C93497   6.609   4.319   5.589 -0.4764  0.5818  0.7603
  709MOL0     C93498   6.657   4.189   5.509  0.2353  0.3906  1.0183
  709MOL0     C93499   6.570   4.143   5.401  0.8068  0.0091  0.2369
  709MOL0    Cl93500   6.509   4.282   5.298  0.0166  0.0299 -0.3923
  709MOL0     C93501   7.102   4.890   5.482  0.2073 -0.6118 -0.4117
  709MOL0     C93502   7.190   4.995   5.454 -0.1682 -0.0043  0.6879
  709MOL0     O93503   7.210   5.315   5.580  0.5229 -0.0732  0.0554
  709MOL0     C93504   7.374   5.539   5.486  0.1940 -0.0300  0.5005
  709MOL0     C93505   7.453   5.638   5.434  0.0305 -0.1441 -0.0277
  709MOL0     N93506   8.188   5.898   5.146  0.7356 -0.9111  0.5102
  709MOL0     N93507   8.307   5.855   5.107  0.4427  1.1049 -0.0316
  709MOL0     C93508   9.407   5.238   5.154  1.3474  0.0967 -0.3420
  709MOL0     C93509   9.540   5.240   5.110  0.8953  0.8217  1.0287
  709MOL0     C93510   9.921   5.167   4.849 -0.3463 -0.6382  0.6323
  709MOL0     C93511   9.967   5.282   4.915 -0.3435  0.2639 -0.1300
  709MOL0     C93512  10.095   5.333   4.883 -0.1577  0.9128  0.0238
  709MOL0     C93513  10.180   5.274   4.792 -0.0507  0.2044  0.2466
  709MOL0     O93514  10.304   5.333   4.780  0.3334  0.0475  0.1859
  709MOL0     C93515  10.371   5.336   4.650  0.7200 -0.1845 -0.1180
  709MOL0     C93516  10.444   5.456   4.618 -0.6926 -0.2289 -0.0149
  709MOL0     C93517  10.365   5.577   4.641  0.6526  0.2237 -0.4125
  709MOL0     C93518  10.374   5.641   4.786  0.0497 -0.6553  0.1284
  709MOL0     C93519  10.332   5.783   4.788 -0.3095  0.0932 -0.3811
  709MOL0     C93520  10.311   5.904   4.790  0.2541  0.0705  0.4721
  709MOL0     C93521  10.140   5.164   4.721 -0.5633 -0.2905  0.0617
  709MOL0     C93522  10.006   5.118   4.749 -0.4680 -0.1947 -0.8902
  709MOL0     H93523   9.502   5.086   4.816  1.1165  0.8869  0.1265
  709MOL0     H93524   9.265   5.117   4.875 -0.1776 -1.1728  0.1201
  709MOL0     H93525   9.002   5.122   5.137 -0.0208 -2.4692 -1.2833
  709MOL0     H93526   9.108   5.067   5.002  0.0550 -0.1786 -1.1323
  709MOL0     H93527   8.901   5.169   4.921  0.5966  0.8123 -3.2907
  709MOL0     H93528   9.030   5.300   4.900  3.9317 -1.5836  2.2026
  709MOL0     H93529   8.954   5.391   5.110 -1.0597 -0.6840  2.3664
  709MOL0     H93530   8.841   5.262   5.137 -1.3280  1.1881 -0.3342
  709MOL0     H93531   8.814   5.460   4.915 -1.8946 -2.0318 -3.2589
  709MOL0     H93532   8.732   5.297   4.917  2.8447 -2.6757  0.4990
  709MOL0     H93533   8.712   5.514   5.129 -1.0109  1.4077 -2.6739
  709MOL0     H93534   8.607   5.365   5.107 -0.7354  1.3312  1.5232
  709MOL0     H93535   8.548   5.483   4.873 -1.7540  3.3392 -0.8548
  709MOL0     H93536   8.600   5.624   4.950 -1.8141  1.7402  1.6043
  709MOL0     H93537   8.356   5.578   4.969 -0.6878  2.7764  2.2342
  709MOL0     H93538   8.387   5.450   5.072  0.0933 -0.9476 -3.2985
  709MOL0     H93539   8.533   5.730   5.135  0.6769  0.9627  2.4392
  709MOL0     H93540   8.466   5.613   5.250 -1.4791 -1.5635 -0.9327
  709MOL0     H93541   8.216   5.622   5.313 -4.4211  3.1310  1.9383
  709MOL0     H93542   8.025   5.909   5.383 -0.9727  0.6542 -0.2877
  709MOL0     H93543   8.019   5.730   5.396  2.2036  0.6906 -0.0550
  709MOL0     H93544   7.907   5.893   5.162  0.1569 -2.4265 -1.9143
  709MOL0     H93545   7.817   5.885   5.310 -0.8744 -1.0345 -0.6711
  709MOL0     H93546   7.886   5.657   5.114  0.8597 -2.6639  1.6607
  709MOL0     H93547   7.823   5.615   5.273  1.9216 -0.5382  0.3149
  709MOL0     H93548   7.647   5.623   5.083 -1.3938  0.4440 -0.8390
  709MOL0     H93549   7.683   5.790   5.079  1.7200 -1.3421 -0.5591
  709MOL0     H93550   7.504   5.497   5.134 -2.4984  2.7992 -1.7187
  709MOL0     H93551   7.384   5.313   5.232 -1.1196 -0.2278 -1.4310
  709MOL0     H93552   6.966   5.214   5.332 -0.5804  2.2095  3.2308
  709MOL0     H93553   6.808   5.027   5.408 -0.4267  2.6739 -1.1837
  709MOL0     H93554   6.701   4.838   5.586  0.4884 -1.9679 -3.2105
  709MOL0     H93555   6.836   4.912   5.678 -2.0197 -0.2900  1.8812
  709MOL0     H93556   6.740   4.719   5.798  0.4222 -2.0464  0.6445
  709MOL0     H93557   6.912   4.684   5.759 -1.1865  0.1583  3.7610
  709MOL0     H93558   6.841   4.545   5.575  2.1021 -1.0631  2.4014
  709MOL0     H93559   6.675   4.602   5.578 -1.4440 -0.2874  1.6116
  709MOL0     H93560   6.796   4.478   5.829  0.6299 -0.8158 -0.9125
  709MOL0     H93561   6.615   4.495   5.789  1.6156  0.6930  5.2289
  709MOL0     H93562   6.708   4.263   5.783 -0.2278  0.5482  0.6891
  709MOL0     H93563   6.819   4.303   5.658 -0.8166 -1.0248 -0.1761
  709MOL0     H93564   6.606   4.402   5.517  3.0638  1.4595  1.4539
  709MOL0     H93565   6.509   4.315   5.633 -1.4595  1.6471 -1.2300
  709MOL0     H93566   6.749   4.205   5.453 -1.6536  5.9872 -1.1431
  709MOL0     H93567   6.674   4.103   5.576  1.7133  1.1235  1.6312
  709MOL0     H93568   6.485   4.092   5.448  1.9570 -1.4329  0.7971
  709MOL0     H93569   6.620   4.069   5.339  2.2107  1.6214 -0.6305
  709MOL0     H93570   7.130   4.797   5.531  3.0054  0.1681 -0.3329
  709MOL0     H93571   7.298   4.982   5.463 -0.0942  0.1119  0.0343
  709MOL0     H93572   7.307   5.561   5.569 -2.0039 -0.4938 -1.0636
  709MOL0     H93573   7.468   5.733   5.484 -0.4120  1.6510 -3.0569
  709MOL0     H93574   9.388   5.272   5.255  2.3637 -3.2434  1.1340
  709MOL0     H93575   9.612   5.270   5.185  1.9058  0.1746  0.3411
  709MOL0     H93576   9.906   5.348   4.976 -0.2278  0.9981 -0.7937
  709MOL0     H93577  10.129   5.429   4.922  2.5372  0.3060 -0.5989
  709MOL0     H93578  10.286   5.339   4.581  0.6760  0.0571 -0.0507
  709MOL0     H93579  10.435   5.250   4.626  0.0665 -0.5151 -0.7244
  709MOL0     H93580  10.537   5.460   4.674  0.5957  0.7700 -2.0787
  709MOL0     H93581  10.480   5.462   4.515 -0.9117  3.7407 -0.0319
  709MOL0     H93582  10.261   5.556   4.612  0.5056  0.1974  0.1258
  709MOL0     H93583  10.400   5.655   4.573  1.9837  0.0996  0.1073
  709MOL0     H93584  10.305   5.585   4.851  0.8034 -2.6623 -0.7337
  709MOL0     H93585  10.478   5.634   4.819  0.2270 -4.0002 -0.8061
  709MOL0     H93586  10.303   6.011   4.785  1.4296  0.3043  2.6192
  709MOL0     H93587  10.208   5.112   4.655 -0.4301 -0.8024  0.5916
  709MOL0     H93588   9.970   5.031   4.695  0.4230 -2.8819  2.4383
  710MOL0     O93589   9.268   0.073   9.166 -0.6300  0.6060 -0.6231
  710MOL0     C93590   9.357  -0.009   9.179 -0.4497  0.3084 -0.7802
  710MOL0     O93591   9.347  -0.141   9.151 -0.4519  0.3981  0.1575
  710MOL0     C93592   9.230  -0.212   9.140 -0.3588 -0.0526  0.2204
  710MOL0     C93593   9.096  -0.158   9.129  0.1296 -0.0754 -0.3272
  710MOL0     C93594   8.985  -0.249   9.111 -0.9186  0.1195  0.7157
  710MOL0     C93595   9.002  -0.383   9.083 -0.1648 -0.5482 -0.0265
  710MOL0     O93596   8.891  -0.459   9.054 -0.5450 -0.0962  0.6868
  710MOL0     C93597   8.905  -0.597   9.030 -0.0903  0.0507  0.4323
  710MOL0     C93598   8.777  -0.644   8.985  0.4458 -0.2278 -0.2422
  710MOL0     C93599   8.655  -0.621   9.081 -0.0938  0.4498  0.1557
  710MOL0     C93600   8.541  -0.717   9.015 -0.7158  0.2437  0.2748
  710MOL0     C93601   8.394  -0.684   9.054 -0.1230 -0.3488 -0.4297
  710MOL0     C93602   8.361  -0.535   9.032 -0.1865 -0.7329 -0.6838
  710MOL0     C93603   8.218  -0.502   9.095  0.0230 -0.3618 -0.0517
  710MOL0     C93604   8.179  -0.355   9.088  0.9363 -0.1535  0.6870
  710MOL0     N93605   8.290  -0.264   9.112  0.5791  0.2099 -0.3199
  710MOL0     C93606   8.363  -0.277   9.228 -0.4902 -0.8858  0.3831
  710MOL0     C93607   8.470  -0.193   9.205 -0.0906 -0.0237 -0.5933
  710MOL0     C93608   8.588  -0.158   9.295 -0.3609  0.3530 -0.0074
  710MOL0     C93609   8.627  -0.285   9.375  0.4962  1.0724 -0.9832
  710MOL0     C93610   8.749  -0.244   9.451 -0.8529  0.3229 -0.2319
  710MOL0     C93611   8.809  -0.366   9.539  0.1402 -0.4388 -0.9479
  710MOL0     O93612   8.892  -0.455   9.467  0.3028 -0.4209  0.5646
  710MOL0     C93613   9.028  -0.429   9.457  0.1803  0.2815  0.3119
  710MOL0     C93614   9.091  -0.305   9.460  0.0632  0.2408 -0.3063
  710MOL0     C93615   9.229  -0.298   9.461 -0.7209  0.2761  0.7970
  710MOL0     C93616   9.306  -0.423   9.451 -0.6721  1.0004 -0.3183
  710MOL0     C93617   9.451  -0.415   9.459 -1.1753  0.2453  0.4380
  710MOL0     O93618   9.509  -0.295   9.483  0.5526  0.5764  0.3381
  710MOL0     C93619   9.636  -0.268   9.451 -0.5536 -0.3776 -0.7987
  710MOL0     C93620   9.702  -0.178   9.538  0.1513 -0.1649 -0.1658
  710MOL0     C93621   9.838  -0.141   9.518 -0.0788 -0.4390  0.1531
  710MOL0     C93622   9.908  -0.191   9.411  0.2706  0.1279  0.9117
  710MOL0     O93623  10.038  -0.148   9.378  0.1909  0.6610  0.2280
  710MOL0     C93624  10.091  -0.030   9.425 -0.0213 -0.2103 -0.0034
  710MOL0     C93625  10.225  -0.013   9.382 -0.0516  0.7050  0.5658
  710MOL0     C93626  10.265   0.130   9.385 -0.8744 -0.0802  0.2823
  710MOL0     C93627  10.411   0.148   9.345 -0.5553 -0.4607 -0.1287
  710MOL0     C93628  10.480   0.284   9.363  0.2626  0.5202 -0.0900
  710MOL0     C93629  10.418   0.391   9.280  0.3444  1.1931  0.1689
  710MOL0     C93630  10.498   0.522   9.294  0.6882  0.4124  0.1721
  710MOL0     C93631  10.404   0.639   9.258  0.8096  0.3933 -0.3005
  710MOL0    Cl93632  10.371   0.645   9.085 -0.0586  0.3783 -0.0797
  710MOL0     C93633   9.850  -0.285   9.326  0.1850 -0.4120 -0.1021
  710MOL0     C93634   9.722  -0.328   9.352  0.5701 -0.3413  0.6813
  710MOL0     O93635   9.508  -0.517   9.426 -0.8585  0.5556  0.2382
  710MOL0     C93636   9.235  -0.550   9.433 -0.6744 -0.6207 -0.3468
  710MOL0     C93637   9.104  -0.540   9.438  0.7654 -0.3040  0.1864
  710MOL0     N93638   8.461  -0.160   9.070 -0.2832  0.6092 -0.1802
  710MOL0     N93639   8.355  -0.194   9.015  0.8040 -0.4205  0.4858
  710MOL0     C93640   9.134  -0.437   9.090 -0.6965 -0.1904 -0.4196
  710MOL0     C93641   9.243  -0.351   9.114  0.5190 -0.3524 -0.1083
  710MOL0     C93642   9.496   0.039   9.199  0.6480  0.8979  0.0729
  710MOL0     C93643   9.612  -0.039   9.194  0.6402 -0.4031 -0.3236
  710MOL0     C93644   9.731   0.030   9.198  0.0132  0.1105 -0.2280
  710MOL0     C93645   9.751   0.162   9.208 -0.3848  0.7261  0.6830
  710MOL0     O93646   9.885   0.208   9.228  0.7327 -0.1467  0.9068
  710MOL0     C93647   9.911   0.347   9.225 -0.5597 -0.4186 -0.2859
  710MOL0     C93648   9.908   0.408   9.095  0.4248  0.1392  0.6933
  710MOL0     C93649  10.046   0.407   9.021 -0.0129 -0.0410 -0.2206
  710MOL0     C93650  10.106   0.269   8.988 -0.1626 -0.0002 -0.3278
  710MOL0     C93651  10.034   0.200   8.877 -0.1000 -0.4858  0.2630
  710MOL0     C93652   9.997   0.144   8.776  1.1176  0.2336 -0.1371
  710MOL0     C93653   9.636   0.234   9.231  0.0495 -0.6530 -0.3171
  710MOL0     C93654   9.510   0.169   9.244 -0.3250  0.2459 -0.9030
  710MOL0     H93655   9.068  -0.056   9.151 -0.4794 -0.1344 -0.7927
  710MOL0     H93656   8.883  -0.214   9.123 -1.0392  1.3196 -2.8464
  710MOL0     H93657   8.930  -0.646   9.125  1.1950  1.1036  0.6742
  710MOL0     H93658   8.984  -0.622   8.958 -1.9370  0.0097 -1.6900
  710MOL0     H93659   8.794  -0.751   8.971 -1.0126 -0.4039 -0.8769
  710MOL0     H93660   8.751  -0.603   8.887  5.5464 -1.5502 -2.4540
  710MOL0     H93661   8.629  -0.514   9.084  2.1526  1.0714 -0.6813
  710MOL0     H93662   8.676  -0.649   9.184 -2.4827  0.9053  0.8273
  710MOL0     H93663   8.553  -0.715   8.906 -2.2792 -2.7326 -0.0318
  710MOL0     H93664   8.560  -0.820   9.044  0.3075 -0.1471 -1.5633
  710MOL0     H93665   8.381  -0.713   9.159  1.7592 -0.5705 -0.2312
  710MOL0     H93666   8.329  -0.740   8.986 -0.7264  0.4176 -0.5017
  710MOL0     H93667   8.357  -0.524   8.923  1.9242  0.3349 -0.7088
  710MOL0     H93668   8.442  -0.473   9.070  2.9366 -3.6477 -2.0025
  710MOL0     H93669   8.144  -0.563   9.044 -0.1492  0.9779 -1.4732
  710MOL0     H93670   8.225  -0.523   9.202  2.0742 -0.6666 -0.1996
  710MOL0     H93671   8.096  -0.338   9.156  0.2844 -3.3093  0.8323
  710MOL0     H93672   8.144  -0.341   8.985 -3.1913 -1.6296  1.7233
  710MOL0     H93673   8.343  -0.334   9.318  2.8216  0.0574  1.8442
  710MOL0     H93674   8.551  -0.098   9.379 -2.5622 -0.1401 -0.5556
  710MOL0     H93675   8.667  -0.110   9.236 -0.4490  3.1651  1.9705
  710MOL0     H93676   8.637  -0.377   9.317 -0.7223 -0.8732  1.6735
  710MOL0     H93677   8.548  -0.298   9.449  2.2830  2.0168  1.2283
  710MOL0     H93678   8.829  -0.217   9.381 -0.7669  0.0127 -0.2533
  710MOL0     H93679   8.724  -0.155   9.511  1.8404  1.8405 -1.1574
  710MOL0     H93680   8.722  -0.400   9.595  0.1802  2.3305  1.0134
  710MOL0     H93681   8.870  -0.310   9.611 -1.0490 -1.7083  1.1467
  710MOL0     H93682   9.040  -0.211   9.476  1.3768  1.3522 -2.3008
  710MOL0     H93683   9.276  -0.201   9.461 -0.1099  0.0467 -1.7476
  710MOL0     H93684   9.649  -0.139   9.625 -0.3107 -3.4783  1.2052
  710MOL0     H93685   9.885  -0.068   9.584  2.0130 -0.3573 -1.3525
  710MOL0     H93686  10.096  -0.030   9.534 -0.5421 -1.1399  0.0351
  710MOL0     H93687  10.020   0.048   9.394  2.4243  2.8040  1.4488
  710MOL0     H93688  10.227  -0.047   9.278 -3.4232 -0.0294  0.6426
  710MOL0     H93689  10.302  -0.067   9.438  1.3757  0.3693 -1.6022
  710MOL0     H93690  10.251   0.148   9.491 -1.3655  1.2742  0.0003
  710MOL0     H93691  10.200   0.191   9.322  0.8009  1.3967 -0.0791
  710MOL0     H93692  10.460   0.075   9.409 -0.8192  0.0451  0.6650
  710MOL0     H93693  10.434   0.126   9.240  3.2775  1.4676  0.1649
  710MOL0     H93694  10.582   0.268   9.326  2.5321  0.0335  5.3554
  710MOL0     H93695  10.476   0.321   9.466  1.1705 -1.8537  0.8800
  710MOL0     H93696  10.315   0.411   9.310 -0.0626 -0.4028 -0.0843
  710MOL0     H93697  10.417   0.365   9.173  2.0905  0.9522  0.1832
  710MOL0     H93698  10.547   0.531   9.391  1.5473  0.0873 -0.2197
  710MOL0     H93699  10.587   0.527   9.230  1.7390  0.2734  1.5720
  710MOL0     H93700  10.470   0.723   9.279  2.4170 -0.1621 -2.7206
  710MOL0     H93701  10.307   0.644   9.307  0.3809 -0.1453 -1.0656
  710MOL0     H93702   9.894  -0.342   9.245  1.2038 -2.9111  2.0386
  710MOL0     H93703   9.678  -0.401   9.285 -2.7706  0.7859  1.4611
  710MOL0     H93704   9.283  -0.644   9.407 -1.6758 -0.5676 -2.5639
  710MOL0     H93705   9.040  -0.627   9.442 -0.8352  0.8531  1.6552
  710MOL0     H93706   9.149  -0.544   9.095  1.6326  0.1207  2.4546
  710MOL0     H93707   9.348  -0.379   9.122  0.9764  1.2523 -0.2768
  710MOL0     H93708   9.609  -0.146   9.177  4.1939 -0.7327  0.4193
  710MOL0     H93709   9.822  -0.029   9.202  0.1602  0.2516 -1.2117
  710MOL0     H93710  10.014   0.357   9.258 -0.8388 -0.7364  0.7207
  710MOL0     H93711   9.853   0.410   9.293 -0.4743  2.2348 -2.5037
  710MOL0     H93712   9.827   0.374   9.030 -0.3346 -0.6049  1.9822
  710MOL0     H93713   9.892   0.515   9.111  2.9516  0.4726  1.4084
  710MOL0     H93714  10.129   0.456   9.074  0.6245  0.4865 -1.6626
  710MOL0     H93715  10.036   0.468   8.931 -1.5032  0.8496  0.4887
  710MOL0     H93716  10.210   0.293   8.965 -0.1603  1.7516  1.2038
  710MOL0     H93717  10.110   0.205   9.077  0.8528 -0.8608 -0.9698
  710MOL0     H93718   9.967   0.077   8.698  2.7324 -1.1700  0.3916
  710MOL0     H93719   9.652   0.335   9.266  1.3643 -1.5858  1.9922
  710MOL0     H93720   9.424   0.223   9.283 -0.3510  0.9241 -1.8715
  711MOL0     O93721   3.541   9.723  10.059 -0.3874  0.6910 -0.3411
  711MOL0     C93722   3.610   9.671   9.964 -0.5724  0.8833  0.3236
  711MOL0     O93723   3.553   9.610   9.855  0.0946  0.7088  0.0186
  711MOL0     C93724   3.419   9.640   9.822 -0.3410  0.3430  0.6699
  711MOL0     C93725   3.366   9.769   9.834 -0.0478  0.0068  0.7581
  711MOL0     C93726   3.229   9.801   9.795  0.1708  0.4770 -1.2808
  711MOL0     C93727   3.154   9.711   9.724 -0.2710  0.1401 -0.1693
  711MOL0     O93728   3.025   9.733   9.696 -0.5240  0.1396  0.2935
  711MOL0     C93729   2.974   9.676   9.578 -0.1440 -0.0044 -1.2710
  711MOL0     C93730   2.828   9.734   9.572  0.1479  0.1435 -0.0613
  711MOL0     C93731   2.733   9.632   9.637  0.5175  0.0309 -0.1943
  711MOL0     C93732   2.620   9.704   9.717  0.1736  0.3368 -0.3899
  711MOL0     C93733   2.496   9.619   9.739  0.1416 -0.4031 -0.9324
  711MOL0     C93734   2.408   9.686   9.832  0.8940 -0.6957 -1.0271
  711MOL0     C93735   2.303   9.596   9.878  0.5027  0.2100  0.5612
  711MOL0     C93736   2.174   9.674   9.904  0.1640 -0.0986 -0.3961
  711MOL0     N93737   2.099   9.688   9.777 -0.4853 -0.5636 -0.2703
  711MOL0     C93738   2.048   9.600   9.681 -1.3495 -0.5640  0.5854
  711MOL0     C93739   2.015   9.672   9.570 -0.0060  0.3528 -0.4584
  711MOL0     C93740   1.964   9.618   9.442 -0.2432 -0.6861  0.2730
  711MOL0     C93741   1.830   9.684   9.412  0.2545  0.4044  0.5387
  711MOL0     C93742   1.867   9.810   9.326 -0.7867 -1.1117 -0.0399
  711MOL0     C93743   1.760   9.916   9.342 -0.2874  0.6970  0.3629
  711MOL0     O93744   1.637   9.890   9.269 -0.2538  0.4951  0.2704
  711MOL0     C93745   1.534   9.975   9.300  0.7913  0.2343  0.6458
  711MOL0     C93746   1.423   9.967   9.218 -0.5726 -0.9171 -0.5384
  711MOL0     C93747   1.313  10.053   9.233  0.0387 -0.2863  0.3810
  711MOL0     C93748   1.304  10.146   9.338 -0.0350 -0.5500  0.1046
  711MOL0     C93749   1.188  10.237   9.343 -0.0672  0.7460 -0.3174
  711MOL0     O93750   1.108  10.241   9.238  0.6610 -0.2154  0.0271
  711MOL0     C93751   0.978  10.268   9.253 -0.1873 -0.0334 -0.2186
  711MOL0     C93752   0.888  10.185   9.329 -0.2591  0.0613 -0.8896
  711MOL0     C93753   0.748  10.227   9.339 -0.4832  0.2970 -1.3286
  711MOL0     C93754   0.699  10.331   9.257 -0.9700 -0.7189 -0.1635
  711MOL0     O93755   0.579  10.391   9.261  0.3038  0.4617  0.1424
  711MOL0     C93756   0.459  10.312   9.283  0.2745  0.6112 -0.1757
  711MOL0     C93757   0.404  10.312   9.419 -1.0161 -0.3096  0.2703
  711MOL0     C93758   0.266  10.236   9.430 -0.6225  0.0641  0.0509
  711MOL0     C93759   0.147  10.307   9.372 -0.2074  0.2434  0.3826
  711MOL0     C93760   0.015  10.232   9.395  0.1637 -0.1025  0.7931
  711MOL0     C93761  -0.109  10.317   9.355 -1.0032 -0.4390 -1.2373
  711MOL0     C93762  -0.232  10.233   9.368 -0.5879  0.4933  0.0608
  711MOL0     C93763  -0.354  10.326   9.362  0.4548  0.4081  0.6637
  711MOL0    Cl93764  -0.487  10.204   9.339 -0.1633  0.3450 -0.3656
  711MOL0     C93765   0.797  10.410   9.185  0.4719  0.5027  0.0671
  711MOL0     C93766   0.928  10.375   9.189 -0.3706 -1.1558  0.0715
  711MOL0     O93767   1.163  10.275   9.462 -0.0772 -0.6908  0.9405
  711MOL0     C93768   1.416  10.154   9.420  0.0435  0.6155  0.1656
  711MOL0     C93769   1.523  10.073   9.403 -0.0192  0.0762 -0.7865
  711MOL0     N93770   2.039   9.800   9.602  0.1948  0.5277  0.1543
  711MOL0     N93771   2.076   9.811   9.726 -0.2599  0.1148  1.2824
  711MOL0     C93772   3.217   9.586   9.702 -0.0573  0.0734  0.2415
  711MOL0     C93773   3.347   9.547   9.744  0.3116 -0.0912 -0.3279
  711MOL0     C93774   3.757   9.669   9.981 -0.5333  0.5487 -0.1412
  711MOL0     C93775   3.840   9.627   9.880 -0.2911  0.3670 -0.4030
  711MOL0     C93776   3.978   9.617   9.890  0.0380  0.6216  0.0834
  711MOL0     C93777   4.042   9.657  10.008  0.1628  0.3079  0.2124
  711MOL0     O93778   4.171   9.629  10.015 -1.2141 -0.4619  0.4387
  711MOL0     C93779   4.248   9.714  10.099 -0.2821  0.9785 -0.0452
  711MOL0     C93780   4.384   9.721  10.046 -0.4624 -0.1342 -0.3403
  711MOL0     C93781   4.472   9.811  10.133 -0.3922  0.1158  0.4732
  711MOL0     C93782   4.616   9.785  10.090 -0.1922 -0.3590 -0.1694
  711MOL0     C93783   4.672   9.655  10.147 -0.4608 -0.0908  0.7447
  711MOL0     C93784   4.702   9.552  10.208 -0.3088 -0.5319 -0.0860
  711MOL0     C93785   3.953   9.697  10.109 -1.3100 -0.4125  0.0773
  711MOL0     C93786   3.822   9.719  10.096  0.4273  0.8161  0.8453
  711MOL0     H93787   3.436   9.840   9.877  1.7166 -0.3966 -1.3005
  711MOL0     H93788   3.174   9.892   9.816 -0.6978 -0.1054 -0.9776
  711MOL0     H93789   2.969   9.567   9.572 -0.0066  0.0029 -1.5384
  711MOL0     H93790   3.039   9.706   9.494 -1.1164  2.7688 -1.1547
  711MOL0     H93791   2.810   9.739   9.464  0.2454 -1.5775 -0.1825
  711MOL0     H93792   2.823   9.835   9.614  0.9351  0.9312 -1.7253
  711MOL0     H93793   2.792   9.568   9.704  0.4028 -1.6092 -1.6070
  711MOL0     H93794   2.694   9.576   9.552  0.5704  2.4773 -1.9340
  711MOL0     H93795   2.667   9.717   9.815 -0.4839  2.5140 -0.3220
  711MOL0     H93796   2.593   9.801   9.674 -1.0299 -0.2075 -0.9090
  711MOL0     H93797   2.527   9.525   9.787 -0.4646 -0.0583  0.1914
  711MOL0     H93798   2.459   9.606   9.637  2.3654 -2.5919 -1.5604
  711MOL0     H93799   2.350   9.760   9.775 -0.8129 -3.0479 -2.5155
  711MOL0     H93800   2.452   9.733   9.920  0.3560  1.0875 -1.6465
  711MOL0     H93801   2.273   9.531   9.795 -0.3254  0.7495  0.4212
  711MOL0     H93802   2.342   9.534   9.959 -1.4894 -2.3030 -0.2597
  711MOL0     H93803   2.204   9.774   9.937  1.9352 -1.1648  1.4402
  711MOL0     H93804   2.117   9.631   9.986 -0.0687  1.1841  0.1321
  711MOL0     H93805   2.066   9.493   9.683  3.9969 -0.0625 -2.3582
  711MOL0     H93806   1.949   9.510   9.449 -0.5994 -0.7039 -0.6139
  711MOL0     H93807   2.027   9.629   9.353  0.5870 -3.6407  0.3771
  711MOL0     H93808   1.777   9.711   9.504  0.4065  1.8445  0.2403
  711MOL0     H93809   1.769   9.616   9.352  0.5528  1.1577 -0.6716
  711MOL0     H93810   1.947   9.871   9.369 -2.1161  0.6501  0.0573
  711MOL0     H93811   1.886   9.787   9.221  1.4804  0.7150 -0.1160
  711MOL0     H93812   1.806  10.006   9.301  0.2002  1.2174  1.9681
  711MOL0     H93813   1.744   9.937   9.448 -1.8094  1.7090 -0.0354
  711MOL0     H93814   1.436   9.901   9.132  2.3377  1.3803 -2.0290
  711MOL0     H93815   1.236  10.034   9.158 -0.7348 -0.1494  1.1286
  711MOL0     H93816   0.907  10.094   9.385 -1.5226  1.8817  2.9164
  711MOL0     H93817   0.681  10.163   9.395  1.9124  0.2454  1.7529
  711MOL0     H93818   0.473  10.205   9.266 -1.4783  0.2644  0.4307
  711MOL0     H93819   0.382  10.352   9.217 -0.2034  1.1224  0.6741
  711MOL0     H93820   0.400  10.416   9.452 -1.3801 -0.2544  0.0541
  711MOL0     H93821   0.464  10.255   9.491 -2.6634 -0.6343  1.4598
  711MOL0     H93822   0.247  10.219   9.536 -1.6000 -0.8167 -0.2446
  711MOL0     H93823   0.279  10.137   9.385  1.5357 -0.0563  0.8504
  711MOL0     H93824   0.118  10.396   9.430 -1.7630 -0.2503  0.4123
  711MOL0     H93825   0.171  10.335   9.269  0.6787 -1.4518  0.1051
  711MOL0     H93826   0.015  10.199   9.500  2.1252  1.3788  1.3343
  711MOL0     H93827   0.011  10.143   9.333 -0.0083  0.5822 -0.1992
  711MOL0     H93828  -0.101  10.341   9.248 -3.7286 -1.2970 -1.7264
  711MOL0     H93829  -0.115  10.412   9.408 -2.7601 -0.9565 -0.4402
  711MOL0     H93830  -0.245  10.163   9.286 -1.9905  0.0140  0.6667
  711MOL0     H93831  -0.223  10.169   9.456 -0.7437  1.0107  0.4614
  711MOL0     H93832  -0.348  10.390   9.273  3.8738 -0.5284  0.0574
  711MOL0     H93833  -0.365  10.384   9.453 -1.3255 -0.1674  0.8454
  711MOL0     H93834   0.761  10.498   9.133  1.0697  1.0966  0.6565
  711MOL0     H93835   0.998  10.424   9.122 -0.8391 -0.6885 -0.0869
  711MOL0     H93836   1.409  10.224   9.502  0.2309  0.6288  0.1705
  711MOL0     H93837   1.605  10.088   9.473 -1.1680  0.6516  0.4751
  711MOL0     H93838   3.161   9.510   9.649  0.5133 -1.8813  2.2566
  711MOL0     H93839   3.391   9.450   9.721 -1.1142 -0.8378 -0.0378
  711MOL0     H93840   3.793   9.604   9.785 -1.3584 -0.1704  0.2344
  711MOL0     H93841   4.034   9.575   9.808  2.1161  4.8802 -0.9657
  711MOL0     H93842   4.255   9.675  10.201  0.5451  2.5126  0.5167
  711MOL0     H93843   4.202   9.813  10.101 -2.2427  0.1604 -0.9589
  711MOL0     H93844   4.415   9.616  10.050 -0.6853 -0.1680  0.6199
  711MOL0     H93845   4.399   9.760   9.945  1.6138  4.4602  1.4742
  711MOL0     H93846   4.467   9.789  10.240  0.9179 -2.8312  0.0516
  711MOL0     H93847   4.449   9.915  10.109  0.1287  0.5582  1.8162
  711MOL0     H93848   4.614   9.772   9.981  0.9890 -0.1935 -0.2210
  711MOL0     H93849   4.690   9.863  10.108  0.2657 -0.6705 -0.6392
  711MOL0     H93850   4.726   9.465  10.265 -0.4788  0.1963  1.1499
  711MOL0     H93851   4.010   9.710  10.200 -0.0750 -4.4299  0.0893
  711MOL0     H93852   3.749   9.744  10.172 -1.3910  0.7043 -0.7852
  712MOL0     O93853   4.212  11.001   2.703  0.1597 -0.0632 -0.1424
  712MOL0     C93854   4.232  10.986   2.828 -0.6724  0.1134  0.3870
  712MOL0     O93855   4.152  10.925   2.916  0.0114 -0.6297 -0.1509
  712MOL0     C93856   4.025  10.873   2.866 -0.8239 -0.3904 -0.2102
  712MOL0     C93857   4.014  10.792   2.746 -0.9861 -1.1815 -1.0572
  712MOL0     C93858   3.901  10.724   2.713 -0.3966  0.6630 -0.7071
  712MOL0     C93859   3.778  10.740   2.795 -0.2464  0.3122  0.7256
  712MOL0     O93860   3.676  10.649   2.767 -0.0344 -0.4665 -0.0540
  712MOL0     C93861   3.550  10.673   2.828  0.0378 -0.0464 -1.0901
  712MOL0     C93862   3.442  10.605   2.744 -0.2193 -0.6916 -0.3536
  712MOL0     C93863   3.297  10.676   2.742 -0.3468  0.0470  0.8162
  712MOL0     C93864   3.198  10.601   2.652  0.7705 -0.7288  0.0399
  712MOL0     C93865   3.048  10.591   2.706 -0.0505  1.0144  0.1258
  712MOL0     C93866   2.998  10.716   2.768 -0.1519  0.7595 -0.1710
  712MOL0     C93867   2.850  10.716   2.790  0.1973 -0.0957 -0.0317
  712MOL0     C93868   2.786  10.583   2.837 -0.3078  0.5519  0.0097
  712MOL0     N93869   2.644  10.590   2.875 -0.1627 -0.4022  0.9145
  712MOL0     C93870   2.539  10.656   2.810 -0.3337 -0.1043  0.3886
  712MOL0     C93871   2.431  10.645   2.893 -0.5846 -0.7389  0.5021
  712MOL0     C93872   2.302  10.718   2.863  0.8045  0.1662 -0.0823
  712MOL0     C93873   2.299  10.856   2.922  0.9794 -0.3095 -0.4418
  712MOL0     C93874   2.180  10.935   2.861 -0.1197  0.5251 -0.8085
  712MOL0     C93875   2.047  10.928   2.932 -0.6141  0.5484  0.1732
  712MOL0     O93876   2.008  10.791   2.934 -0.5213 -0.1054  0.0449
  712MOL0     C93877   1.901  10.776   3.020  0.4916  0.6812  0.4914
  712MOL0     C93878   1.786  10.855   3.011 -0.0504  0.3689 -0.3971
  712MOL0     C93879   1.674  10.835   3.098  0.6975 -0.8386 -0.6762
  712MOL0     C93880   1.676  10.729   3.195 -0.4976  0.1172  0.1112
  712MOL0     C93881   1.562  10.701   3.280 -0.2733  0.4751 -1.0262
  712MOL0     O93882   1.449  10.773   3.262  1.1711 -0.7711  0.5355
  712MOL0     C93883   1.327  10.718   3.301 -0.1341  0.4206  0.7312
  712MOL0     C93884   1.219  10.756   3.221  0.8389  0.2170 -0.6351
  712MOL0     C93885   1.090  10.729   3.262 -0.1550 -0.1663 -0.3016
  712MOL0     C93886   1.062  10.645   3.372  0.2595  0.3546  0.3236
  712MOL0     O93887   0.930  10.604   3.410  0.1349 -0.2151 -0.6180
  712MOL0     C93888   0.831  10.643   3.316 -0.1969  0.4073  0.0766
  712MOL0     C93889   0.702  10.575   3.339  0.4100  0.2891  0.3539
  712MOL0     C93890   0.663  10.617   3.489 -1.0464 -0.6829 -0.1690
  712MOL0     C93891   0.523  10.573   3.542 -0.1966 -0.5029  0.1898
  712MOL0     C93892   0.409  10.628   3.449 -0.0146  0.4865  0.0219
  712MOL0     C93893   0.275  10.642   3.527 -0.5768 -0.2276 -0.5115
  712MOL0     C93894   0.233  10.500   3.579  0.3027  0.3032 -0.6318
  712MOL0     C93895   0.092  10.523   3.640 -0.4807 -0.8862  1.0184
  712MOL0    Cl93896   0.048  10.379   3.743  0.2141 -0.3519 -0.4683
  712MOL0     C93897   1.162  10.605   3.452 -0.0365  0.1276  0.1745
  712MOL0     C93898   1.296  10.637   3.416 -0.0830  0.4683  0.2430
  712MOL0     O93899   1.569  10.594   3.343  0.2160 -0.3484  0.2913
  712MOL0     C93900   1.801  10.659   3.208 -0.0968  0.0566  0.9749
  712MOL0     C93901   1.911  10.682   3.123  0.0132 -0.7678  0.9010
  712MOL0     N93902   2.473  10.580   3.003  0.3383 -0.1876  0.2689
  712MOL0     N93903   2.598  10.551   2.992 -0.1056  0.2640  0.3350
  712MOL0     C93904   3.779  10.831   2.901  1.3552  0.0553  0.8481
  712MOL0     C93905   3.902  10.889   2.935 -0.3332 -0.7792 -0.1089
  712MOL0     C93906   4.360  11.020   2.883 -0.5650  0.1906  0.3235
  712MOL0     C93907   4.378  11.053   3.016 -0.3017  0.1978  0.1500
  712MOL0     C93908   4.509  11.086   3.057 -0.0786  0.1155  0.1371
  712MOL0     C93909   4.616  11.078   2.971 -0.8028  0.0045 -0.0709
  712MOL0     O93910   4.746  11.120   2.989 -0.0252  0.3217 -0.4089
  712MOL0     C93911   4.801  11.167   3.119  0.1299  0.1241  0.0899
  712MOL0     C93912   4.855  11.040   3.196 -0.1240  0.3862  0.4111
  712MOL0     C93913   4.997  10.987   3.139  0.1765  1.1065  0.0801
  712MOL0     C93914   5.047  10.883   3.232 -0.8174  0.0250 -0.4579
  712MOL0     C93915   5.116  10.916   3.351  0.3374 -0.4922 -0.2400
  712MOL0     C93916   5.182  10.949   3.448 -0.4403  0.6741  0.5572
  712MOL0     C93917   4.599  11.043   2.843  0.3625 -0.1628  0.8842
  712MOL0     C93918   4.471  11.009   2.789 -0.4433  0.5501 -1.7000
  712MOL0     H93919   4.087  10.779   2.667 -0.5105  0.8592 -1.0284
  712MOL0     H93920   3.897  10.664   2.623 -1.2843 -0.4509  0.0413
  712MOL0     H93921   3.525  10.779   2.837 -2.2523 -0.5160 -1.1976
  712MOL0     H93922   3.544  10.640   2.932 -0.7594  3.0902 -0.0393
  712MOL0     H93923   3.441  10.499   2.770  1.7587 -1.2063 -2.0889
  712MOL0     H93924   3.465  10.610   2.638  0.6989  0.0160 -0.1399
  712MOL0     H93925   3.311  10.779   2.709 -0.5879 -0.2184 -0.1520
  712MOL0     H93926   3.264  10.683   2.846  0.1607 -1.2797  1.0914
  712MOL0     H93927   3.200  10.655   2.557  2.0908 -1.9701 -0.6673
  712MOL0     H93928   3.234  10.503   2.619  0.7915 -0.5637 -0.4425
  712MOL0     H93929   3.044  10.505   2.774  0.5495  0.8646 -0.0199
  712MOL0     H93930   2.991  10.572   2.615  0.4095  1.4719 -0.2658
  712MOL0     H93931   3.036  10.804   2.715  0.0703  0.4514 -0.5269
  712MOL0     H93932   3.043  10.721   2.868  0.7695 -1.4740 -0.4105
  712MOL0     H93933   2.839  10.791   2.868  1.6242 -2.3218  2.4856
  712MOL0     H93934   2.798  10.745   2.699  1.5409  1.0809 -0.4716
  712MOL0     H93935   2.834  10.533   2.922  0.6069 -1.6258 -1.7027
  712MOL0     H93936   2.795  10.505   2.761 -3.1741 -0.6203  0.7495
  712MOL0     H93937   2.563  10.705   2.717  5.1435 -1.5279  0.6744
  712MOL0     H93938   2.218  10.654   2.892  0.4549  0.4749 -0.4132
  712MOL0     H93939   2.296  10.715   2.754 -0.7206  2.6129 -0.1331
  712MOL0     H93940   2.400  10.888   2.894  1.5290 -1.7570 -0.1917
  712MOL0     H93941   2.307  10.856   3.032 -0.2237  1.9545 -0.2918
  712MOL0     H93942   2.207  11.041   2.861 -1.1908  0.8281  0.2203
  712MOL0     H93943   2.163  10.904   2.757  0.7993 -2.0571 -0.2578
  712MOL0     H93944   1.981  10.984   2.865  2.6400  1.8651 -2.2023
  712MOL0     H93945   2.057  10.973   3.031  3.9701 -0.6955  0.5300
  712MOL0     H93946   1.782  10.921   2.925 -1.4908 -1.6430 -1.9841
  712MOL0     H93947   1.585  10.895   3.088 -0.4260 -2.5276 -1.3606
  712MOL0     H93948   1.240  10.804   3.125  0.4525  2.4337  0.3308
  712MOL0     H93949   1.007  10.775   3.208 -1.0857 -1.2955  0.1294
  712MOL0     H93950   0.861  10.612   3.215 -0.9748  0.5097 -0.1881
  712MOL0     H93951   0.802  10.748   3.322 -2.9707 -0.3748  1.7069
  712MOL0     H93952   0.720  10.467   3.342  2.4725  0.5771 -0.0943
  712MOL0     H93953   0.628  10.608   3.265  1.6527 -1.1659 -1.6665
  712MOL0     H93954   0.663  10.726   3.494 -3.0063 -0.7047  2.4492
  712MOL0     H93955   0.732  10.566   3.557 -1.8703  1.5872  2.5222
  712MOL0     H93956   0.518  10.464   3.539 -1.4701 -0.5416  2.1738
  712MOL0     H93957   0.506  10.603   3.646 -1.5356  1.7915 -0.6170
  712MOL0     H93958   0.392  10.573   3.356 -0.2110  0.0606  0.3087
  712MOL0     H93959   0.432  10.733   3.428  2.3903  0.4473  1.9971
  712MOL0     H93960   0.206  10.688   3.455  1.2758  0.5622 -1.8735
  712MOL0     H93961   0.286  10.696   3.622  1.6837  0.6301 -1.1969
  712MOL0     H93962   0.229  10.425   3.499  3.1938  0.5473 -1.0988
  712MOL0     H93963   0.297  10.465   3.660  0.2319  0.5844 -0.4537
  712MOL0     H93964   0.020  10.535   3.558 -0.3036 -3.6845  0.3304
  712MOL0     H93965   0.088  10.612   3.702 -0.8674 -1.5757  2.0063
  712MOL0     H93966   1.135  10.555   3.545 -1.9186  2.0972  0.7683
  712MOL0     H93967   1.384  10.602   3.469 -1.7875 -2.3306  1.4584
  712MOL0     H93968   1.809  10.580   3.282 -2.2846 -0.1665  1.0193
  712MOL0     H93969   2.007  10.633   3.137  0.6943  0.5194  0.9068
  712MOL0     H93970   3.696  10.845   2.970 -0.5484  2.8257 -1.7523
  712MOL0     H93971   3.900  10.932   3.034  0.9944  2.1431 -1.2191
  712MOL0     H93972   4.297  11.062   3.087  0.4842 -3.5832  1.7224
  712MOL0     H93973   4.525  11.111   3.161  0.2683 -0.8431  0.3240
  712MOL0     H93974   4.736  11.223   3.187  0.2611  0.9417 -0.4421
  712MOL0     H93975   4.884  11.231   3.089  0.6048 -0.0525  0.9966
  712MOL0     H93976   4.868  11.068   3.301  1.7532 -1.3620  0.7098
  712MOL0     H93977   4.774  10.967   3.197 -1.3461  1.7069  1.8867
  712MOL0     H93978   5.077  11.058   3.118  1.6820 -0.9614 -1.6037
  712MOL0     H93979   4.966  10.938   3.046 -0.1490  0.8222  0.3380
  712MOL0     H93980   4.960  10.820   3.254 -0.5917 -0.2035 -0.2071
  712MOL0     H93981   5.124  10.822   3.184 -0.5002 -0.6417  0.8607
  712MOL0     H93982   5.236  10.983   3.534  0.1312 -2.5290  1.5926
  712MOL0     H93983   4.682  11.043   2.773 -1.4661 -0.6748 -1.4250
  712MOL0     H93984   4.454  10.977   2.687  2.5984  0.6827 -2.3393
  713MOL0     O93985  10.764   5.027   6.918 -0.6627 -0.4826 -0.1646
  713MOL0     C93986  10.833   5.127   6.901 -0.6363  0.5397  0.3821
  713MOL0     O93987  10.811   5.225   6.807 -0.1350 -0.1901 -0.0735
  713MOL0     C93988  10.760   5.180   6.685 -0.7097 -0.6401  0.3013
  713MOL0     C93989  10.842   5.143   6.573  0.2360 -0.2143 -0.5588
  713MOL0     C93990  10.778   5.112   6.455 -0.1980 -0.3608  0.3422
  713MOL0     C93991  10.640   5.087   6.446  0.4845 -0.2312  0.0363
  713MOL0     O93992  10.595   5.022   6.333  0.2347  0.1431 -0.1758
  713MOL0     C93993  10.500   4.917   6.344 -0.3897  0.1777 -0.9598
  713MOL0     C93994  10.567   4.778   6.325 -0.0427 -0.3179 -0.5363
  713MOL0     C93995  10.460   4.680   6.276  0.3817  1.1607 -0.1530
  713MOL0     C93996  10.415   4.710   6.134  0.7884  0.8755  0.0752
  713MOL0     C93997  10.343   4.597   6.057  0.4242 -0.6176  0.3673
  713MOL0     C93998  10.447   4.505   5.989  1.0427 -0.5940  0.0492
  713MOL0     C93999  10.387   4.411   5.881 -0.2478  0.7160 -0.2563
  713MOL0     C94000  10.488   4.325   5.821 -0.5579  0.4450 -0.1184
  713MOL0     N94001  10.423   4.227   5.730 -0.1248 -0.5385 -1.0220
  713MOL0     C94002  10.355   4.242   5.612  0.8547  0.2784 -0.6768
  713MOL0     C94003  10.300   4.125   5.570  0.3750 -0.9479  0.1751
  713MOL0     C94004  10.218   4.085   5.459 -0.9172  0.7804  0.3465
  713MOL0     C94005  10.261   3.951   5.407  0.2262  0.7167  0.3860
  713MOL0     C94006  10.199   3.924   5.271  0.5814 -0.4177  1.0882
  713MOL0     C94007  10.065   3.852   5.273  0.3560 -0.0483 -0.1087
  713MOL0     O94008   9.959   3.929   5.335  0.4124  0.0240  0.2701
  713MOL0     C94009   9.835   3.945   5.278 -0.6437  1.0173 -1.0171
  713MOL0     C94010   9.778   4.066   5.297  0.1153  0.0505  0.7291
  713MOL0     C94011   9.652   4.105   5.243  1.0757 -0.1077  0.1029
  713MOL0     C94012   9.561   4.012   5.190 -0.4488 -0.2680  0.3192
  713MOL0     C94013   9.420   4.043   5.157 -1.1974 -0.2831 -0.1402
  713MOL0     O94014   9.344   3.960   5.083 -0.3691  0.6973 -0.3718
  713MOL0     C94015   9.205   3.978   5.087  0.5151  0.8288 -0.8899
  713MOL0     C94016   9.125   3.997   5.199 -0.6627 -0.4852 -0.2131
  713MOL0     C94017   8.987   4.009   5.178 -0.0841  0.5925  0.6182
  713MOL0     C94018   8.925   4.010   5.042  0.1872 -0.3092 -0.0369
  713MOL0     O94019   8.790   4.021   5.041 -0.0591 -0.0091 -0.4362
  713MOL0     C94020   8.727   4.060   4.917  0.2020 -1.5521 -0.3922
  713MOL0     C94021   8.575   4.060   4.942  0.2841 -0.9711  0.4677
  713MOL0     C94022   8.515   4.179   4.862 -0.8125  0.1173  0.3975
  713MOL0     C94023   8.360   4.179   4.876 -0.3207  0.1517 -0.4790
  713MOL0     C94024   8.281   4.066   4.811  0.8898 -0.2336  0.1940
  713MOL0     C94025   8.138   4.100   4.803  0.3611 -0.4415  0.3163
  713MOL0     C94026   8.051   3.980   4.762 -0.5496  0.6362  0.4313
  713MOL0     C94027   7.903   4.012   4.731 -0.4379 -0.2194 -0.4408
  713MOL0    Cl94028   7.841   4.107   4.867 -0.0001  0.0808  0.1675
  713MOL0     C94029   9.014   4.008   4.932  0.5661 -0.2223 -0.6353
  713MOL0     C94030   9.150   3.997   4.958 -0.6949  0.3870  0.4615
  713MOL0     O94031   9.379   4.144   5.213 -0.0702  0.4713  0.1102
  713MOL0     C94032   9.620   3.881   5.181  0.2710 -0.2315 -0.1019
  713MOL0     C94033   9.747   3.840   5.228  0.6873 -0.0253  0.4214
  713MOL0     N94034  10.323   4.046   5.679  0.6188 -0.2769  0.3530
  713MOL0     N94035  10.392   4.101   5.764 -0.5161 -0.3662  0.1175
  713MOL0     C94036  10.568   5.099   6.565 -0.0249  0.3704  0.6724
  713MOL0     C94037  10.631   5.149   6.678 -0.0282  0.3560  0.1916
  713MOL0     C94038  10.947   5.155   6.994 -0.1428 -0.0239  0.1409
  713MOL0     C94039  11.046   5.255   6.974 -0.7520  0.1619 -0.0332
  713MOL0     C94040  11.130   5.288   7.078  0.1020  0.3714 -0.3671
  713MOL0     C94041  11.144   5.205   7.190 -0.0800  0.4264 -0.4185
  713MOL0     O94042  11.242   5.245   7.269 -0.0671 -0.0368  0.3129
  713MOL0     C94043  11.316   5.165   7.358  0.8710  0.0707  1.0198
  713MOL0     C94044  11.376   5.254   7.450  0.0700  0.2286 -0.5627
  713MOL0     C94045  11.479   5.334   7.383 -0.2851 -0.3917 -0.1263
  713MOL0     C94046  11.554   5.428   7.480  0.2907  0.8696 -0.1397
  713MOL0     C94047  11.657   5.506   7.409 -0.3781 -1.0310  0.3304
  713MOL0     C94048  11.742   5.570   7.355  0.5961 -0.4916  0.3571
  713MOL0     C94049  11.058   5.098   7.209 -1.0641 -0.0325  0.4951
  713MOL0     C94050  10.954   5.080   7.118 -0.4325 -0.1429  0.2153
  713MOL0     H94051  10.948   5.159   6.590 -0.2122 -0.9750  4.6248
  713MOL0     H94052  10.837   5.114   6.364  0.1934  0.8043  0.6096
  713MOL0     H94053  10.436   4.936   6.259 -0.7632  0.5919 -0.5915
  713MOL0     H94054  10.440   4.923   6.435 -1.7065 -0.0672 -1.7949
  713MOL0     H94055  10.607   4.740   6.420  1.7834  2.2209 -0.1909
  713MOL0     H94056  10.650   4.789   6.255  3.2328 -3.3446  2.4187
  713MOL0     H94057  10.378   4.688   6.348  0.2748 -0.6795 -0.0250
  713MOL0     H94058  10.505   4.580   6.279 -0.1919  0.9067  0.0237
  713MOL0     H94059  10.348   4.796   6.144  2.9161  2.6162  0.1735
  713MOL0     H94060  10.497   4.749   6.073 -0.2371 -0.4987 -2.3388
  713MOL0     H94061  10.268   4.636   5.988  1.4080 -0.9836 -0.9501
  713MOL0     H94062  10.285   4.543   6.132 -0.4352 -1.0497 -0.5863
  713MOL0     H94063  10.491   4.437   6.063  1.6749 -1.2074 -0.8628
  713MOL0     H94064  10.524   4.568   5.942 -1.0091  1.4476 -0.7892
  713MOL0     H94065  10.324   4.349   5.945 -0.6411  0.2026 -1.1243
  713MOL0     H94066  10.333   4.470   5.806  1.3364  0.2185 -1.8646
  713MOL0     H94067  10.551   4.268   5.890  2.2957 -0.2747 -3.0400
  713MOL0     H94068  10.545   4.389   5.752 -0.7369  3.8649  2.6464
  713MOL0     H94069  10.350   4.335   5.556 -1.8152  0.9030  0.4341
  713MOL0     H94070  10.226   4.158   5.378  1.6304 -2.7396 -2.9368
  713MOL0     H94071  10.113   4.075   5.485 -0.3750 -1.0251  2.0671
  713MOL0     H94072  10.236   3.867   5.473 -2.8630  0.6726 -0.6480
  713MOL0     H94073  10.369   3.948   5.390  0.3122 -0.7194  1.0356
  713MOL0     H94074  10.186   4.022   5.223  0.5252 -0.6703  0.5789
  713MOL0     H94075  10.268   3.869   5.206  0.1074  0.6699 -0.3960
  713MOL0     H94076  10.067   3.751   5.315 -1.3526 -1.0677 -2.2623
  713MOL0     H94077  10.031   3.840   5.170 -2.5871 -0.6730  0.8450
  713MOL0     H94078   9.837   4.141   5.349  0.1546 -1.1314  2.4569
  713MOL0     H94079   9.610   4.204   5.256 -0.0448 -0.7275  1.4669
  713MOL0     H94080   9.176   3.999   5.295  1.6768  0.1291 -1.3859
  713MOL0     H94081   8.923   4.012   5.266 -1.7497 -1.5014 -0.4364
  713MOL0     H94082   8.749   3.994   4.833 -0.9387 -1.5926 -0.6699
  713MOL0     H94083   8.757   4.164   4.896 -1.3642 -1.4562 -2.4177
  713MOL0     H94084   8.557   4.083   5.047  0.4592  1.5465  0.0348
  713MOL0     H94085   8.529   3.967   4.910  1.5364 -1.2180 -0.7671
  713MOL0     H94086   8.558   4.183   4.761  2.4157 -2.0998  1.5047
  713MOL0     H94087   8.558   4.272   4.901 -0.0889 -0.2265  0.4489
  713MOL0     H94088   8.340   4.183   4.983 -0.1640  2.4130 -0.5012
  713MOL0     H94089   8.332   4.275   4.832  1.4486 -0.5200 -3.3899
  713MOL0     H94090   8.296   3.972   4.865 -1.0544  0.2040  1.6263
  713MOL0     H94091   8.321   4.059   4.710 -0.4565  0.2360 -0.3926
  713MOL0     H94092   8.121   4.183   4.734 -3.1251  0.1293  1.6404
  713MOL0     H94093   8.096   4.133   4.898 -0.7950 -2.9990  0.7845
  713MOL0     H94094   8.089   3.937   4.669 -2.3848  1.4644 -0.7632
  713MOL0     H94095   8.060   3.914   4.848  1.0995 -1.8595 -1.5082
  713MOL0     H94096   7.847   3.920   4.715 -0.8159  0.0671 -0.7904
  713MOL0     H94097   7.905   4.073   4.640  0.7780 -1.4144 -1.2551
  713MOL0     H94098   8.987   4.029   4.829 -2.0604  1.9653  0.3851
  713MOL0     H94099   9.215   4.001   4.872 -1.3298  2.2021  0.0192
  713MOL0     H94100   9.568   3.791   5.150  3.9888 -2.2300 -1.1448
  713MOL0     H94101   9.776   3.737   5.211 -0.9162 -0.4447  0.1122
  713MOL0     H94102  10.462   5.076   6.567  0.3509 -1.4047  0.9908
  713MOL0     H94103  10.571   5.163   6.768 -2.6939 -0.2726 -1.3934
  713MOL0     H94104  11.058   5.310   6.881  1.8090 -0.9012 -0.4241
  713MOL0     H94105  11.195   5.375   7.066  1.3825 -0.4154  0.5457
  713MOL0     H94106  11.376   5.104   7.290  0.1878  0.1955  0.2770
  713MOL0     H94107  11.247   5.096   7.408  0.2142 -1.2625 -1.5150
  713MOL0     H94108  11.308   5.329   7.493  1.1448 -1.5292  5.0364
  713MOL0     H94109  11.411   5.195   7.535 -0.8723 -0.1978 -0.4513
  713MOL0     H94110  11.437   5.396   7.304  1.1537 -0.1724 -0.7548
  713MOL0     H94111  11.558   5.269   7.344  2.9093  3.7137 -1.2831
  713MOL0     H94112  11.487   5.493   7.537 -1.0640 -0.5079 -0.1014
  713MOL0     H94113  11.608   5.360   7.547 -2.0232 -2.6706 -1.5403
  713MOL0     H94114  11.810   5.620   7.288 -0.4270  0.4365 -0.0222
  713MOL0     H94115  11.056   5.033   7.295  0.0779 -0.7646 -0.0060
  713MOL0     H94116  10.878   5.005   7.138  0.6422 -1.0880  0.8975
  714MOL0     O94117   2.770   2.930   2.619  0.6824  0.2010 -0.5457
  714MOL0     C94118   2.722   2.981   2.519 -0.5172  0.7079 -0.3264
  714MOL0     O94119   2.595   3.004   2.502  0.1589 -1.0711  0.4821
  714MOL0     C94120   2.498   2.960   2.590  0.4576  0.2633  0.4306
  714MOL0     C94121   2.514   2.972   2.728 -0.5632  0.4995  0.3203
  714MOL0     C94122   2.418   2.934   2.823  0.3146 -0.3947  0.4838
  714MOL0     C94123   2.296   2.887   2.777  0.1579 -0.5113  0.2888
  714MOL0     O94124   2.198   2.854   2.866  0.2791  0.0624 -0.1998
  714MOL0     C94125   2.064   2.907   2.852  0.1032  0.6418  0.5977
  714MOL0     C94126   1.998   2.925   2.988 -0.2616 -0.1752  0.7395
  714MOL0     C94127   1.984   2.785   3.050 -0.6207  0.3986 -0.1222
  714MOL0     C94128   1.844   2.746   3.081 -0.6615  0.5189  1.5260
  714MOL0     C94129   1.835   2.606   3.135  0.3095 -0.1240 -0.5448
  714MOL0     C94130   1.684   2.586   3.183 -0.7400  0.3606 -0.1628
  714MOL0     C94131   1.680   2.447   3.263  1.0546 -0.3541  0.0979
  714MOL0     C94132   1.668   2.320   3.179  0.0382  0.6086  0.0863
  714MOL0     N94133   1.631   2.206   3.256 -0.2727 -0.2561  0.8475
  714MOL0     C94134   1.679   2.178   3.383  1.0931 -0.3179 -0.0920
  714MOL0     C94135   1.594   2.095   3.431  0.0778 -0.8562 -0.1985
  714MOL0     C94136   1.602   2.017   3.564  0.2879 -0.1470 -0.4971
  714MOL0     C94137   1.703   1.904   3.547 -0.4437  1.3521 -0.9484
  714MOL0     C94138   1.720   1.800   3.662  0.7054 -0.2995  0.2625
  714MOL0     C94139   1.590   1.769   3.739 -0.1033 -0.2263 -0.1541
  714MOL0     O94140   1.497   1.697   3.651 -0.0037 -0.0237 -0.5230
  714MOL0     C94141   1.370   1.669   3.695 -0.2308  0.6521 -0.5037
  714MOL0     C94142   1.278   1.652   3.596 -0.1409 -0.4096 -0.3010
  714MOL0     C94143   1.147   1.628   3.630  0.5321  0.4813  0.5881
  714MOL0     C94144   1.104   1.625   3.768  0.6627 -0.5663  0.1090
  714MOL0     C94145   0.959   1.599   3.808 -0.2285 -0.1368  0.6610
  714MOL0     O94146   0.930   1.586   3.938  0.5263 -0.7048  0.5444
  714MOL0     C94147   0.799   1.580   3.993 -0.0134 -0.2746 -0.6981
  714MOL0     C94148   0.686   1.619   3.920 -0.5335  0.2675 -0.0671
  714MOL0     C94149   0.562   1.589   3.969  0.5051 -0.1181 -0.3450
  714MOL0     C94150   0.542   1.520   4.089 -0.6743  0.2243 -0.3236
  714MOL0     O94151   0.410   1.499   4.130  0.7659 -0.3541  0.5749
  714MOL0     C94152   0.366   1.408   4.229 -0.2227 -0.3446  0.8637
  714MOL0     C94153   0.219   1.434   4.278 -0.4152  0.3383  0.4347
  714MOL0     C94154   0.113   1.459   4.170  0.2659 -0.9301 -0.0200
  714MOL0     C94155  -0.030   1.466   4.219 -0.0306  0.2135 -0.8322
  714MOL0     C94156  -0.134   1.523   4.122 -0.3228 -0.0204 -0.0412
  714MOL0     C94157  -0.279   1.492   4.162  0.8417  1.7505 -0.5778
  714MOL0     C94158  -0.336   1.558   4.291 -0.1767 -0.2967  0.7830
  714MOL0     C94159  -0.489   1.523   4.278 -0.6597 -0.8507  0.7073
  714MOL0    Cl94160  -0.561   1.627   4.417  0.1860 -0.4546  0.2555
  714MOL0     C94161   0.649   1.488   4.164  0.1193 -0.2212 -0.6131
  714MOL0     C94162   0.780   1.515   4.121 -0.6856 -0.0218  0.4932
  714MOL0     O94163   0.878   1.577   3.717 -0.4564 -0.1199  0.4031
  714MOL0     C94164   1.202   1.648   3.867  0.3872  0.7445  0.4349
  714MOL0     C94165   1.333   1.673   3.825  0.6505  0.4899 -0.1544
  714MOL0     N94166   1.495   2.061   3.336  0.1915  0.8538  0.4611
  714MOL0     N94167   1.526   2.125   3.229  0.2996  0.3328  0.1786
  714MOL0     C94168   2.274   2.880   2.637 -0.0808 -0.5568 -0.8505
  714MOL0     C94169   2.379   2.907   2.545 -0.6553 -0.2294 -0.1757
  714MOL0     C94170   2.823   3.032   2.419  0.2404 -0.0585  0.0170
  714MOL0     C94171   2.775   3.117   2.320 -0.8362  1.0766 -0.2171
  714MOL0     C94172   2.865   3.168   2.238  0.2248  0.0062 -0.0307
  714MOL0     C94173   2.999   3.146   2.236  0.0111 -0.8730 -0.7317
  714MOL0     O94174   3.099   3.196   2.155 -0.2446 -0.1960 -0.5888
  714MOL0     C94175   3.063   3.303   2.052  1.0104  0.8913 -0.4866
  714MOL0     C94176   3.185   3.346   1.973 -0.3656 -0.3039 -0.4539
  714MOL0     C94177   3.303   3.372   2.069 -0.1185  0.0849 -0.1246
  714MOL0     C94178   3.281   3.449   2.198 -0.5112  0.2033 -0.0823
  714MOL0     C94179   3.260   3.592   2.174 -0.4103  0.0106  0.4652
  714MOL0     C94180   3.230   3.707   2.145 -0.2806 -0.2681  0.1138
  714MOL0     C94181   3.044   3.053   2.334  0.2785 -0.7225  0.0499
  714MOL0     C94182   2.959   2.989   2.421  0.1459 -0.1258  0.4628
  714MOL0     H94183   2.605   3.022   2.761  1.4082 -1.9789 -1.0236
  714MOL0     H94184   2.440   2.957   2.927 -0.5077 -0.5303  0.6880
  714MOL0     H94185   1.992   2.840   2.804  0.0156 -0.1365  1.8000
  714MOL0     H94186   2.073   3.000   2.794 -1.1949  0.7220  0.5011
  714MOL0     H94187   1.898   2.962   2.962  0.5135  1.1900 -0.5087
  714MOL0     H94188   2.058   2.992   3.050  0.4598 -1.4358  1.4465
  714MOL0     H94189   2.039   2.797   3.144 -2.5040 -0.9585  1.2252
  714MOL0     H94190   2.038   2.714   2.985 -0.4667 -0.6782  1.1425
  714MOL0     H94191   1.811   2.824   3.150 -3.4883  1.0250 -0.2089
  714MOL0     H94192   1.778   2.757   2.994 -1.4063 -3.9207  1.2674
  714MOL0     H94193   1.905   2.594   3.218 -1.8402 -0.6731  1.2962
  714MOL0     H94194   1.863   2.531   3.061 -2.5457 -0.8899 -0.9839
  714MOL0     H94195   1.612   2.584   3.101  0.2715 -4.1283 -1.2423
  714MOL0     H94196   1.654   2.669   3.248  0.0355  1.7529 -1.5234
  714MOL0     H94197   1.773   2.448   3.321  2.1773  2.7046 -1.5028
  714MOL0     H94198   1.594   2.457   3.329 -1.0764 -2.1986 -2.2304
  714MOL0     H94199   1.765   2.307   3.131 -1.2084 -0.7711 -2.2187
  714MOL0     H94200   1.612   2.325   3.086 -0.3164  1.1087  0.3165
  714MOL0     H94201   1.760   2.227   3.437  1.4422  0.5208 -1.3270
  714MOL0     H94202   1.506   1.969   3.584  1.4952 -2.5997 -0.2030
  714MOL0     H94203   1.628   2.077   3.652 -0.1917 -2.7258  1.5326
  714MOL0     H94204   1.798   1.942   3.510 -1.0238  1.3284 -2.5667
  714MOL0     H94205   1.659   1.848   3.463 -1.8874  0.1889  0.5052
  714MOL0     H94206   1.777   1.712   3.631 -1.5040 -1.4291 -0.8273
  714MOL0     H94207   1.789   1.838   3.738  1.5163  1.3105 -1.2182
  714MOL0     H94208   1.543   1.853   3.790  3.4126  1.4254  0.6805
  714MOL0     H94209   1.633   1.717   3.824  2.5936 -0.0040 -1.2779
  714MOL0     H94210   1.314   1.646   3.493  1.6265  0.3883  0.2395
  714MOL0     H94211   1.069   1.612   3.557  1.6087  2.6982 -1.1682
  714MOL0     H94212   0.690   1.656   3.818 -0.5470 -2.8944 -1.3581
  714MOL0     H94213   0.462   1.609   3.934  0.8647 -0.1296 -1.3997
  714MOL0     H94214   0.424   1.409   4.321  2.3847 -0.7653 -0.6648
  714MOL0     H94215   0.380   1.307   4.189 -0.3947  0.0390 -0.1992
  714MOL0     H94216   0.222   1.518   4.348  1.3742  1.4540 -0.9023
  714MOL0     H94217   0.183   1.356   4.346  0.6190 -1.9030 -1.4606
  714MOL0     H94218   0.110   1.375   4.100  1.2205 -1.9116  1.0715
  714MOL0     H94219   0.144   1.548   4.113 -0.4613 -0.6387  0.0329
  714MOL0     H94220  -0.059   1.363   4.239  2.2765 -1.2007 -3.8701
  714MOL0     H94221  -0.037   1.510   4.319  1.9122 -2.3247  0.5288
  714MOL0     H94222  -0.111   1.459   4.036  2.5517 -0.8344  1.2038
  714MOL0     H94223  -0.111   1.627   4.097  1.7258 -0.5359 -0.5517
  714MOL0     H94224  -0.283   1.384   4.178 -1.3828  1.7244 -1.0499
  714MOL0     H94225  -0.342   1.510   4.074 -1.5083  0.6338  0.7837
  714MOL0     H94226  -0.284   1.522   4.380 -0.1142  0.0671  0.8948
  714MOL0     H94227  -0.329   1.667   4.288 -2.5375 -0.0194  2.5464
  714MOL0     H94228  -0.499   1.418   4.307 -0.4661 -1.2521 -0.6441
  714MOL0     H94229  -0.529   1.552   4.180  2.7263 -0.3077 -0.6505
  714MOL0     H94230   0.645   1.423   4.251 -1.4147  1.8180  0.9306
  714MOL0     H94231   0.874   1.490   4.170  0.4870  0.2016 -1.5059
  714MOL0     H94232   1.180   1.653   3.973  0.8409  1.8079  0.4923
  714MOL0     H94233   1.405   1.700   3.901  0.6264 -2.0914  0.8781
  714MOL0     H94234   2.172   2.851   2.616 -0.0734 -0.2926 -1.2697
  714MOL0     H94235   2.371   2.922   2.438  3.8724  2.4511 -0.3690
  714MOL0     H94236   2.667   3.125   2.320 -1.0814 -1.1695 -1.4976
  714MOL0     H94237   2.820   3.223   2.156  1.8262 -0.8700 -1.5984
  714MOL0     H94238   3.020   3.391   2.102  2.2080  0.3886  1.5347
  714MOL0     H94239   2.992   3.256   1.984  0.1590  0.3294  0.7495
  714MOL0     H94240   3.196   3.277   1.889 -1.6770  1.4871 -2.2018
  714MOL0     H94241   3.156   3.441   1.926  1.6691  1.2574  1.2454
  714MOL0     H94242   3.379   3.425   2.011 -1.8888  1.6815 -1.1095
  714MOL0     H94243   3.350   3.275   2.091  2.0848  0.9893 -0.5736
  714MOL0     H94244   3.201   3.410   2.262  1.3195 -3.4159  0.2282
  714MOL0     H94245   3.378   3.440   2.247 -0.6862 -1.1208  0.0442
  714MOL0     H94246   3.207   3.807   2.115  3.1767 -0.3416 -3.5645
  714MOL0     H94247   3.152   3.046   2.342  0.6348  3.0757  0.5441
  714MOL0     H94248   2.994   2.916   2.494  0.7733  3.3680  3.9902
  715MOL0     O94249  10.029   3.549   1.649 -0.5069 -0.1324  0.2101
  715MOL0     C94250  10.095   3.621   1.722  0.3556 -0.9458 -0.4199
  715MOL0     O94251  10.049   3.720   1.800  0.3272 -0.1809 -0.0462
  715MOL0     C94252   9.919   3.762   1.786 -0.4385 -0.2421  0.6988
  715MOL0     C94253   9.847   3.771   1.666  0.0879 -0.8475  0.0008
  715MOL0     C94254   9.717   3.815   1.669 -0.5000  0.0524 -0.2396
  715MOL0     C94255   9.651   3.847   1.787  0.3851  0.7876  0.6913
  715MOL0     O94256   9.524   3.885   1.778  0.1482  0.0178  0.3058
  715MOL0     C94257   9.437   3.887   1.895  0.1701  0.4791 -0.6009
  715MOL0     C94258   9.311   3.978   1.884 -0.7330 -0.6396  0.1140
  715MOL0     C94259   9.369   4.130   1.854  0.2503  1.7061 -0.6117
  715MOL0     C94260   9.248   4.218   1.842 -0.1347 -0.3980 -0.2927
  715MOL0     C94261   9.184   4.250   1.984  0.0220  0.1800  0.4164
  715MOL0     C94262   9.101   4.376   1.989 -0.9224 -0.9811  0.4780
  715MOL0     C94263   8.987   4.366   1.894  0.1738  0.9097  0.7842
  715MOL0     C94264   8.854   4.452   1.937 -1.2715 -0.7943 -0.2170
  715MOL0     N94265   8.778   4.401   2.043  0.4926  0.4172 -0.1941
  715MOL0     C94266   8.639   4.406   2.061  0.3134 -0.7668  0.3695
  715MOL0     C94267   8.614   4.354   2.185  0.5377  0.9167 -0.4508
  715MOL0     C94268   8.485   4.339   2.263 -0.1282  0.3721  0.2818
  715MOL0     C94269   8.370   4.417   2.195 -0.1282  0.2807  0.2956
  715MOL0     C94270   8.235   4.378   2.267 -0.2378  0.0853  0.7476
  715MOL0     C94271   8.117   4.482   2.226  0.5295  0.2123 -0.0781
  715MOL0     O94272   8.138   4.524   2.086  0.2292 -0.4603 -0.6049
  715MOL0     C94273   8.029   4.538   2.006  0.0582  0.5465 -0.2614
  715MOL0     C94274   8.032   4.500   1.870 -0.4098 -0.5484  0.0084
  715MOL0     C94275   7.921   4.512   1.790 -0.0417 -0.3026 -0.3866
  715MOL0     C94276   7.795   4.571   1.836 -0.6683  0.0965  0.5936
  715MOL0     C94277   7.680   4.597   1.743  0.1699  0.1077 -0.5013
  715MOL0     O94278   7.697   4.615   1.609 -0.2677  0.1868 -0.2706
  715MOL0     C94279   7.592   4.619   1.523 -0.2043 -0.3315 -0.0119
  715MOL0     C94280   7.620   4.582   1.390 -0.0168  1.8918 -0.2965
  715MOL0     C94281   7.524   4.590   1.290  0.6656  0.0336  0.1180
  715MOL0     C94282   7.388   4.625   1.324  0.0369  0.8094  1.1995
  715MOL0     O94283   7.279   4.641   1.240 -0.5785 -0.0557  0.5151
  715MOL0     C94284   7.296   4.704   1.102  0.1280  0.0856  0.2309
  715MOL0     C94285   7.348   4.846   1.130  0.3590  0.6652  0.4538
  715MOL0     C94286   7.333   4.942   1.009 -1.0972 -0.7174 -0.8204
  715MOL0     C94287   7.362   4.890   0.872 -0.0452  1.0778 -0.3458
  715MOL0     C94288   7.411   4.993   0.773  0.1129 -0.4903 -0.2601
  715MOL0     C94289   7.553   5.043   0.809 -0.5686  0.4016 -0.3309
  715MOL0     C94290   7.623   5.123   0.698  0.0090 -0.4864 -0.4182
  715MOL0     C94291   7.747   5.066   0.631  0.4005  0.9994  0.2101
  715MOL0    Cl94292   7.703   4.919   0.548 -0.2558 -0.1273  0.1155
  715MOL0     C94293   7.359   4.662   1.453 -0.5464  0.0719  1.2394
  715MOL0     C94294   7.465   4.655   1.551  1.2762  0.2032  0.1822
  715MOL0     O94295   7.571   4.598   1.798  0.0985  0.5437 -0.8089
  715MOL0     C94296   7.795   4.597   1.974  0.7610  0.5275 -0.4696
  715MOL0     C94297   7.910   4.586   2.051 -0.0800  0.9276  0.3188
  715MOL0     N94298   8.736   4.330   2.245 -0.0378  0.7598 -0.3967
  715MOL0     N94299   8.831   4.344   2.162  0.3311  0.2891 -0.6892
  715MOL0     C94300   9.737   3.854   1.904 -0.0777 -0.3505  0.4998
  715MOL0     C94301   9.870   3.812   1.904  0.1522 -0.0459  0.0718
  715MOL0     C94302  10.237   3.594   1.741 -0.5412 -0.3981  0.5932
  715MOL0     C94303  10.287   3.463   1.712  0.0566 -0.4070 -0.0920
  715MOL0     C94304  10.415   3.425   1.723 -0.2725 -0.3410  0.6873
  715MOL0     C94305  10.505   3.525   1.769 -0.1394  0.1408 -0.6487
  715MOL0     O94306  10.635   3.487   1.763  0.6004 -0.1071 -0.1604
  715MOL0     C94307  10.731   3.572   1.831 -0.7067  0.3084  0.4016
  715MOL0     C94308  10.868   3.493   1.848 -0.0237 -0.3027 -0.0154
  715MOL0     C94309  10.980   3.593   1.891 -0.8676  0.5205  0.5219
  715MOL0     C94310  11.109   3.521   1.925  0.5136  0.4701  0.0558
  715MOL0     C94311  11.219   3.617   1.948  0.8708  0.6081 -0.9193
  715MOL0     C94312  11.297   3.699   1.976  0.3146 -0.1359 -0.3041
  715MOL0     C94313  10.462   3.652   1.802  0.0758 -0.2373 -0.3966
  715MOL0     C94314  10.330   3.692   1.796  0.3399 -0.3656 -0.3914
  715MOL0     H94315   9.889   3.729   1.575 -0.7251  1.6319 -1.6197
  715MOL0     H94316   9.666   3.817   1.573  1.3070  2.4418 -1.2595
  715MOL0     H94317   9.485   3.916   1.989  4.2279 -2.2908 -1.5743
  715MOL0     H94318   9.404   3.791   1.936 -1.1203  1.2147  0.1614
  715MOL0     H94319   9.248   3.978   1.974 -2.4464 -0.2413 -1.0393
  715MOL0     H94320   9.252   3.940   1.801 -0.3653  0.2520 -0.5683
  715MOL0     H94321   9.417   4.147   1.757 -0.3272 -1.7654 -1.6381
  715MOL0     H94322   9.435   4.144   1.941 -2.2164 -0.0477  1.7116
  715MOL0     H94323   9.302   4.307   1.809  3.6716 -2.2035  0.4819
  715MOL0     H94324   9.181   4.178   1.766 -0.2887  0.3568 -0.5608
  715MOL0     H94325   9.265   4.260   2.058 -2.2543 -0.2861  3.1698
  715MOL0     H94326   9.121   4.167   2.016  0.3945  0.2357  1.3314
  715MOL0     H94327   9.167   4.463   1.974  0.0088 -1.7687 -0.1079
  715MOL0     H94328   9.066   4.394   2.091 -1.2020 -0.6656  0.3279
  715MOL0     H94329   9.005   4.401   1.793 -0.2328  2.9895  1.3920
  715MOL0     H94330   8.951   4.262   1.888  1.7143  0.1436  3.1602
  715MOL0     H94331   8.793   4.459   1.846 -0.7113  0.5499 -0.5138
  715MOL0     H94332   8.880   4.556   1.961 -1.0207 -0.4553 -1.8020
  715MOL0     H94333   8.558   4.431   1.992  3.5148  1.7363 -2.8866
  715MOL0     H94334   8.506   4.368   2.366  3.4920 -0.3364 -0.1279
  715MOL0     H94335   8.444   4.238   2.274 -6.4366  2.6855  3.5855
  715MOL0     H94336   8.366   4.402   2.087 -0.3249  0.8528  0.2211
  715MOL0     H94337   8.381   4.524   2.214 -1.6486  0.3110  1.2071
  715MOL0     H94338   8.214   4.274   2.241  3.2096 -0.6656  0.4733
  715MOL0     H94339   8.247   4.373   2.376  1.7663 -2.1456  0.5058
  715MOL0     H94340   8.128   4.567   2.294  2.3610 -0.3816  0.4119
  715MOL0     H94341   8.016   4.442   2.241  0.0003  1.5873  0.1002
  715MOL0     H94342   8.127   4.464   1.832 -1.4840 -2.1842 -1.2984
  715MOL0     H94343   7.937   4.483   1.686  1.5167 -1.7896  0.2168
  715MOL0     H94344   7.715   4.538   1.359 -0.0851 -0.2394  2.1808
  715MOL0     H94345   7.556   4.574   1.187  2.2991  3.1151  0.0205
  715MOL0     H94346   7.201   4.728   1.053  0.7332  0.9529 -0.5468
  715MOL0     H94347   7.362   4.647   1.037 -1.5123 -3.4170  1.3533
  715MOL0     H94348   7.454   4.845   1.156  0.6096  0.9478 -0.5463
  715MOL0     H94349   7.305   4.887   1.222  1.8334 -0.6387  1.7994
  715MOL0     H94350   7.399   5.025   1.037 -0.0365 -2.2270  1.4945
  715MOL0     H94351   7.226   4.964   1.016 -1.2556 -0.9615 -2.1374
  715MOL0     H94352   7.435   4.809   0.878  0.7604  1.8667  1.1925
  715MOL0     H94353   7.272   4.842   0.833  1.4947 -1.7420 -0.7262
  715MOL0     H94354   7.356   5.088   0.777  0.5011 -0.1132 -2.4918
  715MOL0     H94355   7.397   4.949   0.674  1.0428 -1.1634 -0.1051
  715MOL0     H94356   7.609   4.952   0.830 -0.6810  0.1440 -1.1206
  715MOL0     H94357   7.552   5.107   0.898  2.3869  1.8992 -1.2306
  715MOL0     H94358   7.545   5.160   0.630  0.6047 -0.2030 -0.9547
  715MOL0     H94359   7.656   5.216   0.744  0.8909 -1.5013  1.0771
  715MOL0     H94360   7.821   5.036   0.706 -0.4114 -0.0263  0.6335
  715MOL0     H94361   7.787   5.133   0.554  0.9475 -0.1286 -0.5183
  715MOL0     H94362   7.259   4.695   1.482 -2.1805  1.5473 -4.6527
  715MOL0     H94363   7.423   4.683   1.647 -1.9730 -2.9251 -0.1305
  715MOL0     H94364   7.700   4.620   2.022  1.1919  0.1200  0.6084
  715MOL0     H94365   7.911   4.610   2.157  1.3281 -0.4149  0.6545
  715MOL0     H94366   9.703   3.910   1.990 -0.3319 -0.6570  0.6004
  715MOL0     H94367   9.932   3.831   1.991 -1.4735  1.3716  1.0138
  715MOL0     H94368  10.221   3.378   1.690 -0.5108 -0.5661  2.0167
  715MOL0     H94369  10.462   3.328   1.711  1.1848  0.2581  1.3546
  715MOL0     H94370  10.702   3.586   1.936  2.7443  0.6184  1.4534
  715MOL0     H94371  10.731   3.668   1.778 -2.8020  0.0943 -0.0817
  715MOL0     H94372  10.846   3.412   1.918 -2.1828  0.6135  0.4479
  715MOL0     H94373  10.896   3.450   1.751  4.9207  3.6313 -0.7747
  715MOL0     H94374  10.947   3.659   1.972 -0.2496  0.8102  0.5431
  715MOL0     H94375  10.995   3.650   1.798  2.5075 -2.7663 -1.2230
  715MOL0     H94376  11.091   3.462   2.015  0.5081 -0.4482 -0.5315
  715MOL0     H94377  11.131   3.447   1.847  0.4345  0.9059 -0.3809
  715MOL0     H94378  11.375   3.772   1.988  1.4172 -1.3652  0.2247
  715MOL0     H94379  10.528   3.729   1.841  0.3976 -0.5165 -0.3949
  715MOL0     H94380  10.297   3.793   1.817 -3.5144 -1.3157 -1.1476
  716MOL0     O94381   6.642  10.274   5.319 -0.3562 -0.3551 -0.7111
  716MOL0     C94382   6.654  10.317   5.436 -0.0346  0.7057  0.0547
  716MOL0     O94383   6.586  10.264   5.544  0.0710  0.5559  0.3081
  716MOL0     C94384   6.493  10.161   5.537 -0.7828  0.2928  0.6549
  716MOL0     C94385   6.502  10.057   5.624  0.3195 -0.1269 -0.6689
  716MOL0     C94386   6.404   9.954   5.615  0.3447 -1.0207 -0.3722
  716MOL0     C94387   6.296   9.957   5.529  1.2164 -0.7590  0.3992
  716MOL0     O94388   6.192   9.864   5.532  0.4989 -0.3195 -0.3290
  716MOL0     C94389   6.150   9.827   5.404 -0.2425 -0.2109  1.3961
  716MOL0     C94390   6.009   9.895   5.373 -0.7943 -0.0429  0.0847
  716MOL0     C94391   5.899   9.867   5.473  0.6038 -0.2755 -0.2986
  716MOL0     C94392   5.766   9.943   5.441  0.0677 -0.1416 -0.1495
  716MOL0     C94393   5.669   9.958   5.561 -1.0022  0.5345 -0.5379
  716MOL0     C94394   5.584   9.833   5.575 -0.3147 -0.1911 -0.1834
  716MOL0     C94395   5.499   9.850   5.700 -0.1713 -0.5424  1.0272
  716MOL0     C94396   5.396   9.966   5.689 -0.5894  0.4436 -0.0832
  716MOL0     N94397   5.313   9.947   5.571 -0.2577 -0.7823  0.0377
  716MOL0     C94398   5.255  10.054   5.500  1.0591 -0.3313 -0.2075
  716MOL0     C94399   5.172   9.990   5.414 -0.3961 -0.1667  0.4662
  716MOL0     C94400   5.101  10.064   5.296  0.1611  0.3060 -0.1228
  716MOL0     C94401   4.973  10.147   5.336 -0.1251  1.2301 -0.6249
  716MOL0     C94402   4.860  10.075   5.435 -0.2486  0.8540  0.2550
  716MOL0     C94403   4.712  10.095   5.388  0.6499  0.3178  0.3577
  716MOL0     O94404   4.671  10.235   5.373 -0.1603  0.8821  0.4410
  716MOL0     C94405   4.548  10.260   5.321 -0.2458  0.0381  0.4643
  716MOL0     C94406   4.452  10.165   5.273 -0.1244  0.3285  0.5778
  716MOL0     C94407   4.336  10.218   5.211  0.1643 -0.1623 -0.2610
  716MOL0     C94408   4.310  10.347   5.182 -0.2712  0.0855 -0.4620
  716MOL0     C94409   4.186  10.387   5.104  0.0788 -0.6095 -0.5314
  716MOL0     O94410   4.080  10.297   5.104  0.1598 -0.2711  0.0841
  716MOL0     C94411   3.973  10.331   5.023 -0.4299 -0.3306 -0.7545
  716MOL0     C94412   3.998  10.366   4.889  0.2313 -0.4700  0.8466
  716MOL0     C94413   3.889  10.370   4.799 -0.7048  0.5721  0.0964
  716MOL0     C94414   3.761  10.346   4.842  0.3773 -0.1368 -0.2317
  716MOL0     O94415   3.644  10.358   4.771  0.4667  0.4749 -0.9525
  716MOL0     C94416   3.646  10.355   4.623 -0.5492  0.2273 -0.6638
  716MOL0     C94417   3.510  10.328   4.568 -0.9235  0.0642  0.6692
  716MOL0     C94418   3.429  10.223   4.644  0.1233 -0.1380  0.2270
  716MOL0     C94419   3.275  10.245   4.615 -0.1750  0.7137  0.4151
  716MOL0     C94420   3.196  10.126   4.680  0.6065  0.5137 -0.6468
  716MOL0     C94421   3.045  10.162   4.671  0.4914 -0.3768  0.6367
  716MOL0     C94422   2.959  10.045   4.704 -0.1237 -0.2186 -0.2919
  716MOL0     C94423   2.844  10.081   4.800  0.4866 -0.0067  0.4920
  716MOL0    Cl94424   2.710  10.184   4.726  0.1862 -0.4875 -0.1275
  716MOL0     C94425   3.743  10.332   4.980  0.6157 -0.4739  0.3596
  716MOL0     C94426   3.841  10.319   5.075 -0.7651 -0.5127  0.4463
  716MOL0     O94427   4.182  10.501   5.058 -0.1286  0.4457 -0.9462
  716MOL0     C94428   4.407  10.442   5.225  0.2943  0.1787  0.8754
  716MOL0     C94429   4.522  10.397   5.293 -0.3176  0.2370  0.1150
  716MOL0     N94430   5.166   9.857   5.441  0.2167  0.2095 -0.1554
  716MOL0     N94431   5.258   9.828   5.530  0.5795 -0.1311 -0.2297
  716MOL0     C94432   6.290  10.069   5.445  0.1529  0.7952 -0.3425
  716MOL0     C94433   6.392  10.165   5.441 -0.5829  0.2023  0.3717
  716MOL0     C94434   6.745  10.433   5.454 -1.1072  0.8828  0.8168
  716MOL0     C94435   6.800  10.504   5.343 -0.0052  0.2379 -0.0758
  716MOL0     C94436   6.888  10.603   5.363  0.0959  0.2800 -0.1587
  716MOL0     C94437   6.934  10.633   5.496 -0.8350 -0.1237 -0.4181
  716MOL0     O94438   7.016  10.738   5.513 -0.8500 -0.1426 -0.1407
  716MOL0     C94439   7.062  10.771   5.643  0.2352  0.4120  0.5889
  716MOL0     C94440   7.169  10.870   5.648  0.4869 -0.3872 -0.9901
  716MOL0     C94441   7.130  11.013   5.650 -0.2156 -0.2713  0.4476
  716MOL0     C94442   7.238  11.124   5.659 -0.0992  0.7481  0.3377
  716MOL0     C94443   7.349  11.100   5.560 -0.3690  0.5629 -0.2772
  716MOL0     C94444   7.438  11.070   5.488 -0.2672 -0.1985 -0.0136
  716MOL0     C94445   6.876  10.565   5.604  0.7981  0.0619  0.5107
  716MOL0     C94446   6.783  10.459   5.583 -0.2884 -0.4984  0.2492
  716MOL0     H94447   6.577  10.049   5.702  1.2127 -2.1693 -1.6485
  716MOL0     H94448   6.403   9.867   5.679  0.3795 -0.5366  0.3051
  716MOL0     H94449   6.124   9.722   5.415 -4.2830  0.7360  2.5883
  716MOL0     H94450   6.229   9.855   5.333  0.7652  2.7309  3.4717
  716MOL0     H94451   5.984   9.879   5.268 -1.7356  1.5534  0.0349
  716MOL0     H94452   6.022  10.002   5.385 -0.2915 -0.2612  1.6330
  716MOL0     H94453   5.925   9.920   5.566 -2.0670 -0.4075  0.6195
  716MOL0     H94454   5.891   9.761   5.496 -1.6412 -0.5524 -2.0688
  716MOL0     H94455   5.792  10.041   5.400 -1.1734 -0.1701 -1.0466
  716MOL0     H94456   5.716   9.893   5.357 -2.2270  0.3074  0.8777
  716MOL0     H94457   5.598  10.039   5.543 -2.9702 -1.6287 -3.6235
  716MOL0     H94458   5.723   9.978   5.654  1.7665 -1.6739 -1.5181
  716MOL0     H94459   5.640   9.739   5.565  1.0396  0.5878 -0.1480
  716MOL0     H94460   5.521   9.837   5.486  1.0156  1.8718 -1.1060
  716MOL0     H94461   5.440   9.761   5.721 -1.0073 -0.4239 -0.6459
  716MOL0     H94462   5.566   9.876   5.783  2.3913 -2.0375 -0.4550
  716MOL0     H94463   5.441  10.066   5.692 -3.9718  2.0718  0.0321
  716MOL0     H94464   5.338   9.953   5.781 -1.5119 -0.5524 -0.7755
  716MOL0     H94465   5.283  10.159   5.507  2.7806 -0.8760  3.5029
  716MOL0     H94466   5.065   9.996   5.218  2.7289 -1.1359 -0.1473
  716MOL0     H94467   5.162  10.139   5.246  0.2816 -0.5390 -1.2771
  716MOL0     H94468   4.919  10.182   5.248 -0.1759  0.5582 -0.8680
  716MOL0     H94469   5.004  10.239   5.387 -3.0902  2.6809 -1.2298
  716MOL0     H94470   4.875   9.967   5.436  1.8289  1.1098  1.2227
  716MOL0     H94471   4.853  10.122   5.534  0.6910 -2.3842  2.0043
  716MOL0     H94472   4.642  10.059   5.464  1.6403  1.0047  1.6310
  716MOL0     H94473   4.695  10.036   5.297  1.0462 -0.6457  0.8966
  716MOL0     H94474   4.455  10.057   5.284 -2.9885  0.1866  0.8700
  716MOL0     H94475   4.258  10.151   5.176  0.1641  0.1095 -0.7819
  716MOL0     H94476   4.097  10.381   4.847 -0.9651 -1.3617 -2.6118
  716MOL0     H94477   3.902  10.365   4.691  2.4281 -2.7881  0.4618
  716MOL0     H94478   3.717  10.275   4.599 -0.4244  0.4241 -0.9592
  716MOL0     H94479   3.688  10.452   4.593 -1.1401  0.7384  0.1244
  716MOL0     H94480   3.520  10.298   4.463 -1.6221  3.4120 -0.4650
  716MOL0     H94481   3.455  10.422   4.569 -0.2043  0.4989  0.0898
  716MOL0     H94482   3.433  10.242   4.751 -3.6907  1.4510  0.2477
  716MOL0     H94483   3.461  10.121   4.620 -1.1670 -0.2103 -1.3887
  716MOL0     H94484   3.247  10.342   4.657 -2.0874  0.2288  0.3673
  716MOL0     H94485   3.252  10.249   4.508 -2.6986 -2.2365  0.7260
  716MOL0     H94486   3.230  10.119   4.784  0.3721  3.5394 -0.2487
  716MOL0     H94487   3.214  10.034   4.625  0.1292  0.2083 -0.2983
  716MOL0     H94488   3.024  10.192   4.568  1.6919 -2.7206 -0.3796
  716MOL0     H94489   3.023  10.249   4.733 -1.1035  0.3699 -0.8767
  716MOL0     H94490   2.919  10.001   4.612  0.4052  1.0274 -1.1416
  716MOL0     H94491   3.023   9.968   4.748 -0.0754  1.5661  3.0425
  716MOL0     H94492   2.880  10.138   4.886 -0.2557  0.8422  0.2550
  716MOL0     H94493   2.793   9.990   4.832 -2.3266  0.9690 -0.8999
  716MOL0     H94494   3.641  10.312   5.013  0.3483 -1.3645 -0.9060
  716MOL0     H94495   3.811  10.289   5.175 -2.4977  1.4322  0.5693
  716MOL0     H94496   4.390  10.548   5.207  0.3696  0.5403  2.6895
  716MOL0     H94497   4.588  10.481   5.316 -2.3540  2.6436 -2.1700
  716MOL0     H94498   6.209  10.087   5.375  0.2922 -2.1977 -1.3942
  716MOL0     H94499   6.396  10.247   5.369  0.6577 -0.8565 -0.8241
  716MOL0     H94500   6.778  10.466   5.244  1.3480 -1.0673  0.0844
  716MOL0     H94501   6.924  10.664   5.280 -3.3903  2.2313 -0.4017
  716MOL0     H94502   7.104  10.680   5.685  0.6890  1.4532  2.4732
  716MOL0     H94503   6.977  10.801   5.705 -0.9917 -0.6938 -0.4686
  716MOL0     H94504   7.210  10.850   5.747  0.7101  0.5760 -0.8809
  716MOL0     H94505   7.247  10.847   5.575  2.3721  0.5626  0.6660
  716MOL0     H94506   7.052  11.038   5.724  0.9001  0.7847  1.3040
  716MOL0     H94507   7.089  11.031   5.550  1.5853 -0.1634 -0.2956
  716MOL0     H94508   7.196  11.219   5.627  0.1832  1.0570  0.8686
  716MOL0     H94509   7.270  11.135   5.763 -0.6757  2.8195  0.3340
  716MOL0     H94510   7.532  11.039   5.447  0.9009  3.1609 -0.2130
  716MOL0     H94511   6.899  10.600   5.704 -1.9729  2.1717  0.5347
  716MOL0     H94512   6.748  10.398   5.665  0.4816 -1.5227 -0.1644
  717MOL0     O94513  10.959   5.522   5.028 -0.3181  0.3921  0.5072
  717MOL0     C94514  11.036   5.447   5.082 -0.3552 -0.8939 -0.6671
  717MOL0     O94515  11.041   5.312   5.067 -0.0467  0.1687 -0.0190
  717MOL0     C94516  10.925   5.257   5.015  0.1903  0.9504 -0.3973
  717MOL0     C94517  10.881   5.286   4.879 -0.6322 -0.9115 -0.6561
  717MOL0     C94518  10.758   5.244   4.828 -0.5783  0.4109 -0.5383
  717MOL0     C94519  10.685   5.156   4.904  0.4791  0.8165 -0.5877
  717MOL0     O94520  10.576   5.095   4.842 -1.0209  0.2990 -0.9480
  717MOL0     C94521  10.467   5.043   4.923  0.5580  0.3055 -0.7845
  717MOL0     C94522  10.469   4.892   4.957 -0.7353  0.1641  0.0767
  717MOL0     C94523  10.428   4.817   4.831  0.0351  1.0817 -0.0966
  717MOL0     C94524  10.274   4.819   4.802  0.5044  0.1772 -0.0831
  717MOL0     C94525  10.255   4.733   4.674 -0.3856 -0.6469 -0.2137
  717MOL0     C94526  10.106   4.742   4.631  0.2453  0.9697  0.7138
  717MOL0     C94527  10.012   4.686   4.732  0.0270  0.1549 -0.0899
  717MOL0     C94528  10.013   4.534   4.746  0.1657 -0.3317  0.2779
  717MOL0     N94529   9.975   4.463   4.620 -0.0495  1.1265 -1.2956
  717MOL0     C94530   9.865   4.489   4.549  0.1283  0.1359  0.8013
  717MOL0     C94531   9.865   4.399   4.450 -0.2926 -0.2361 -0.2899
  717MOL0     C94532   9.772   4.362   4.340 -0.4571  0.2076 -0.4427
  717MOL0     C94533   9.636   4.420   4.344 -0.3722 -0.2009  1.2045
  717MOL0     C94534   9.532   4.335   4.408  0.2559  0.5552  0.2491
  717MOL0     C94535   9.407   4.416   4.441 -0.1809  0.1410  0.4483
  717MOL0     O94536   9.424   4.502   4.556 -0.5809 -0.1576 -0.3992
  717MOL0     C94537   9.315   4.579   4.597 -0.2894 -0.2248 -0.0433
  717MOL0     C94538   9.345   4.677   4.691 -0.2676 -0.1291 -0.1644
  717MOL0     C94539   9.236   4.751   4.748 -0.0724  0.7295  0.9251
  717MOL0     C94540   9.102   4.736   4.691 -0.1166  0.8384  0.1080
  717MOL0     C94541   9.001   4.827   4.752  0.2643 -0.5404  0.1907
  717MOL0     O94542   8.881   4.806   4.687 -0.9096  0.1389 -0.8365
  717MOL0     C94543   8.782   4.890   4.708  0.2527  0.2961 -0.3271
  717MOL0     C94544   8.650   4.845   4.733 -0.3416  0.3343 -0.2703
  717MOL0     C94545   8.545   4.929   4.723 -0.3068 -0.1024  0.8808
  717MOL0     C94546   8.557   5.064   4.715  1.0209 -0.1575 -0.0059
  717MOL0     O94547   8.454   5.153   4.707  0.4388 -0.0980 -0.9254
  717MOL0     C94548   8.363   5.154   4.817  0.6040  0.2204 -0.0643
  717MOL0     C94549   8.284   5.284   4.814  0.2505  0.6262 -0.4007
  717MOL0     C94550   8.157   5.287   4.904 -0.4559 -0.2103 -0.0919
  717MOL0     C94551   8.173   5.222   5.040 -0.9887  0.7228  0.4296
  717MOL0     C94552   8.080   5.279   5.152 -0.0586 -0.9661  0.2017
  717MOL0     C94553   7.928   5.238   5.135 -0.2122  0.7194  0.7279
  717MOL0     C94554   7.836   5.284   5.243 -0.5011  0.4848  1.4014
  717MOL0     C94555   7.696   5.222   5.230  0.1661  0.5837 -0.2724
  717MOL0    Cl94556   7.647   5.168   5.066 -0.2158 -0.0605  0.3276
  717MOL0     C94557   8.686   5.109   4.716  0.3630  0.0161  0.0249
  717MOL0     C94558   8.798   5.026   4.713  0.7105 -1.1177 -0.8307
  717MOL0     O94559   9.021   4.904   4.844 -0.3427 -0.2671  1.1819
  717MOL0     C94560   9.075   4.635   4.601 -0.4815 -0.9742  0.6627
  717MOL0     C94561   9.181   4.556   4.554 -0.1731  0.5645 -0.4996
  717MOL0     N94562   9.968   4.303   4.473  0.3961  0.3654  0.0502
  717MOL0     N94563  10.029   4.347   4.576 -0.1102 -0.6351  0.1702
  717MOL0     C94564  10.729   5.126   5.037 -0.1353 -0.5166  0.3694
  717MOL0     C94565  10.851   5.168   5.086 -0.3950  0.4023  0.4919
  717MOL0     C94566  11.137   5.508   5.161 -0.6345 -0.3848 -0.2310
  717MOL0     C94567  11.175   5.648   5.147 -1.2116 -0.0169 -0.6349
  717MOL0     C94568  11.290   5.699   5.216  1.0235 -0.6748  0.1715
  717MOL0     C94569  11.361   5.633   5.308 -0.1439  0.5857 -0.0119
  717MOL0     O94570  11.471   5.673   5.385  0.2386  0.1551  0.2210
  717MOL0     C94571  11.541   5.786   5.331 -0.1447 -0.9503 -0.5146
  717MOL0     C94572  11.679   5.798   5.400 -0.3206  0.3199  0.3709
  717MOL0     C94573  11.668   5.796   5.554 -0.2372  0.7586 -0.8156
  717MOL0     C94574  11.809   5.792   5.619 -0.2611  1.0991  0.9569
  717MOL0     C94575  11.828   5.735   5.755  0.5816 -0.1751  0.4857
  717MOL0     C94576  11.828   5.692   5.862 -0.5624  0.4419 -0.1770
  717MOL0     C94577  11.302   5.511   5.338  0.3810 -0.3695  0.2871
  717MOL0     C94578  11.194   5.440   5.270  0.9317  0.7923  0.3902
  717MOL0     H94579  10.940   5.360   4.826 -2.1369  1.6014  0.9833
  717MOL0     H94580  10.725   5.258   4.726  3.3500  0.4285 -1.9680
  717MOL0     H94581  10.374   5.071   4.872 -0.4902 -1.6918 -0.0745
  717MOL0     H94582  10.457   5.103   5.014 -0.7639  0.2923 -0.8991
  717MOL0     H94583  10.411   4.861   5.045  0.6029  1.5116  1.4781
  717MOL0     H94584  10.572   4.867   4.981 -0.6002  2.5690  2.4346
  717MOL0     H94585  10.461   4.714   4.848  0.1429  0.9745 -0.9220
  717MOL0     H94586  10.484   4.868   4.751 -0.3555 -0.3337 -1.3069
  717MOL0     H94587  10.228   4.776   4.891  1.8128  0.1990  0.6303
  717MOL0     H94588  10.236   4.920   4.789 -1.0629 -0.2405  1.0173
  717MOL0     H94589  10.280   4.628   4.690  0.4420 -0.1510  2.1378
  717MOL0     H94590  10.314   4.774   4.592 -0.2622 -2.2863 -0.9719
  717MOL0     H94591  10.094   4.688   4.536  1.1612 -3.0962  2.7045
  717MOL0     H94592  10.079   4.847   4.619 -1.1462  0.4732 -1.0214
  717MOL0     H94593  10.028   4.725   4.833 -0.7289 -1.2434  0.6051
  717MOL0     H94594   9.916   4.718   4.691  0.8305 -0.2872 -2.5157
  717MOL0     H94595   9.940   4.516   4.825 -2.9818 -0.5406 -2.4687
  717MOL0     H94596  10.116   4.514   4.778 -0.6984 -2.9455  1.6924
  717MOL0     H94597   9.792   4.569   4.539  1.7944  1.6014 -0.3254
  717MOL0     H94598   9.769   4.252   4.340  5.2075 -0.2493 -1.1029
  717MOL0     H94599   9.816   4.390   4.244  0.1273 -0.2997 -0.3305
  717MOL0     H94600   9.609   4.430   4.238 -1.3140 -3.2301  1.0453
  717MOL0     H94601   9.638   4.519   4.389  3.6613 -0.8664  2.9172
  717MOL0     H94602   9.523   4.242   4.351 -0.9379  2.7600 -3.5398
  717MOL0     H94603   9.574   4.319   4.508 -1.3566 -0.6202  0.7685
  717MOL0     H94604   9.334   4.339   4.469  1.3283 -1.1030  1.1093
  717MOL0     H94605   9.370   4.469   4.352 -0.6358  0.4993  0.8448
  717MOL0     H94606   9.446   4.686   4.729 -1.4296 -2.0967  3.8755
  717MOL0     H94607   9.256   4.828   4.821 -1.4582  2.2290 -0.1851
  717MOL0     H94608   8.640   4.737   4.731 -0.0217  0.2955 -2.7086
  717MOL0     H94609   8.444   4.893   4.732 -0.6828  0.9726  1.1246
  717MOL0     H94610   8.416   5.139   4.911 -1.4285  1.2731  1.3136
  717MOL0     H94611   8.291   5.073   4.807  0.2509  0.5792 -0.5260
  717MOL0     H94612   8.255   5.300   4.710 -0.5801  0.6911 -0.1702
  717MOL0     H94613   8.352   5.366   4.842 -4.3516  3.2060  5.5966
  717MOL0     H94614   8.069   5.238   4.861 -1.2238  1.8906 -1.0506
  717MOL0     H94615   8.131   5.393   4.912  0.0944  0.0691 -1.6342
  717MOL0     H94616   8.167   5.117   5.010  1.4071  1.2465 -2.3460
  717MOL0     H94617   8.274   5.257   5.062 -0.0960  1.2454 -3.6073
  717MOL0     H94618   8.087   5.388   5.157  0.8131 -0.9220 -1.2617
  717MOL0     H94619   8.114   5.231   5.245 -1.2947  0.3824  1.3954
  717MOL0     H94620   7.929   5.129   5.133  1.8318  0.6141  2.6462
  717MOL0     H94621   7.893   5.281   5.041  1.9097 -0.5845 -0.7426
  717MOL0     H94622   7.889   5.264   5.336  0.4447 -1.5026  0.4968
  717MOL0     H94623   7.824   5.391   5.225  0.9343  0.1189 -2.9432
  717MOL0     H94624   7.622   5.295   5.263 -0.4010  1.7837 -3.7793
  717MOL0     H94625   7.696   5.135   5.296 -1.1916  1.1144  0.4508
  717MOL0     H94626   8.700   5.215   4.733 -1.8330 -0.0024  2.6867
  717MOL0     H94627   8.890   5.082   4.700  0.0210 -0.3908 -2.9233
  717MOL0     H94628   8.974   4.625   4.560 -0.2281 -1.8870  0.2357
  717MOL0     H94629   9.155   4.472   4.490 -4.1393  0.4648  0.9672
  717MOL0     H94630  10.669   5.069   5.107 -2.3146 -0.8733 -1.6856
  717MOL0     H94631  10.885   5.144   5.186 -1.2497 -1.7584  0.3101
  717MOL0     H94632  11.130   5.708   5.069  1.4575  0.1084 -2.2034
  717MOL0     H94633  11.316   5.804   5.205  1.2163 -0.6244  1.0231
  717MOL0     H94634  11.478   5.875   5.342 -0.5160 -1.2191 -0.4570
  717MOL0     H94635  11.546   5.785   5.222  0.1172  1.5763 -0.5976
  717MOL0     H94636  11.735   5.711   5.366 -0.7963  0.4337 -0.7468
  717MOL0     H94637  11.743   5.876   5.359  1.0196 -1.7180 -1.6217
  717MOL0     H94638  11.604   5.710   5.580 -1.4439  1.3746 -1.6423
  717MOL0     H94639  11.625   5.887   5.596  1.4696  0.4454  1.8765
  717MOL0     H94640  11.887   5.742   5.561  0.9112  0.4233  3.0281
  717MOL0     H94641  11.834   5.898   5.616 -1.2936  1.3453  0.7037
  717MOL0     H94642  11.815   5.644   5.957 -3.1206 -3.3029 -2.1454
  717MOL0     H94643  11.342   5.469   5.431  1.3665 -1.8840 -0.7700
  717MOL0     H94644  11.154   5.343   5.299 -0.6822  0.8856 -1.3937
  718MOL0     O94645   7.459   6.742  10.863 -0.3535 -0.6566 -0.4074
  718MOL0     C94646   7.406   6.783  10.763  0.4675  0.3067  0.6114
  718MOL0     O94647   7.273   6.779  10.743  0.1351 -0.1061 -0.1480
  718MOL0     C94648   7.184   6.710  10.816  0.2216  0.4865  0.4634
  718MOL0     C94649   7.051   6.753  10.799 -1.5184  0.7457  0.1979
  718MOL0     C94650   6.946   6.683  10.850 -0.5775  0.1253 -0.5816
  718MOL0     C94651   6.968   6.579  10.945  0.8676 -0.3837  0.7816
  718MOL0     O94652   6.873   6.506  11.023 -0.8865 -0.2904 -0.5099
  718MOL0     C94653   6.736   6.533  10.990 -0.3233 -0.3476 -0.7300
  718MOL0     C94654   6.650   6.449  11.078  0.8355  0.0171  0.2163
  718MOL0     C94655   6.512   6.505  11.051 -0.3984 -0.1264  0.4882
  718MOL0     C94656   6.416   6.398  11.085  0.1618 -0.4523 -0.4968
  718MOL0     C94657   6.287   6.449  11.137  0.9360  0.1529 -0.0387
  718MOL0     C94658   6.196   6.333  11.204 -0.4503 -0.1236 -0.1116
  718MOL0     C94659   6.067   6.399  11.247 -0.0667  0.1460 -1.5683
  718MOL0     C94660   5.967   6.449  11.144  1.1055  0.2688  0.8455
  718MOL0     N94661   5.956   6.347  11.043  0.6263 -1.4268  0.4043
  718MOL0     C94662   6.023   6.359  10.918  0.2223 -0.2347 -0.3960
  718MOL0     C94663   5.979   6.251  10.846  0.2602  0.8132  0.0353
  718MOL0     C94664   6.026   6.197  10.709  0.7509  0.0940 -0.0874
  718MOL0     C94665   6.167   6.140  10.726 -0.5624 -0.3012  0.3055
  718MOL0     C94666   6.169   6.000  10.771 -0.0544  0.5033  0.4524
  718MOL0     C94667   6.313   5.944  10.797  0.0787 -0.0689  0.2730
  718MOL0     O94668   6.384   5.966  10.680 -0.4794 -0.0818 -0.2298
  718MOL0     C94669   6.519   6.006  10.685  0.3620  0.4159 -1.1026
  718MOL0     C94670   6.572   6.056  10.570 -0.0707  0.3010 -0.1915
  718MOL0     C94671   6.709   6.093  10.565 -0.4554 -0.5816 -0.6850
  718MOL0     C94672   6.796   6.068  10.673  0.8669 -1.1868 -0.3308
  718MOL0     C94673   6.938   6.102  10.660  0.3951 -0.4815 -0.2745
  718MOL0     O94674   7.011   6.074  10.772  0.9942  0.6393  0.6880
  718MOL0     C94675   7.141   6.116  10.774 -0.9789 -1.0212  0.2439
  718MOL0     C94676   7.180   6.255  10.762 -0.3500  0.5784  0.1400
  718MOL0     C94677   7.311   6.287  10.745 -0.0089 -0.4493 -0.0675
  718MOL0     C94678   7.416   6.190  10.751 -0.0849  0.3765 -0.3591
  718MOL0     O94679   7.546   6.221  10.724 -0.2620 -0.2770 -0.4711
  718MOL0     C94680   7.599   6.305  10.831 -0.2314 -0.5564  0.4679
  718MOL0     C94681   7.737   6.361  10.821 -0.6598 -1.1208 -0.6459
  718MOL0     C94682   7.756   6.479  10.721  0.5763  0.6027  0.1828
  718MOL0     C94683   7.812   6.423  10.583 -0.5445 -0.3367 -0.0263
  718MOL0     C94684   7.967   6.420  10.597  0.5736  0.4971 -0.3189
  718MOL0     C94685   8.021   6.564  10.567 -0.0957 -0.5644  0.2480
  718MOL0     C94686   8.175   6.566  10.583 -0.2790  0.2541 -0.0396
  718MOL0     C94687   8.228   6.707  10.633  0.5876  0.6815  0.1154
  718MOL0    Cl94688   8.169   6.848  10.527  0.1938 -0.2422 -0.4257
  718MOL0     C94689   7.376   6.060  10.788 -0.2807 -0.9292  0.3470
  718MOL0     C94690   7.247   6.025  10.803  0.2377 -0.8088  0.9081
  718MOL0     O94691   6.976   6.148  10.553  0.5027  0.1584 -0.8476
  718MOL0     C94692   6.740   6.025  10.794  0.8306 -0.5492 -0.4553
  718MOL0     C94693   6.601   6.004  10.803 -0.3848  0.0500  0.1368
  718MOL0     N94694   5.895   6.182  10.919  0.6140  0.3555 -0.2762
  718MOL0     N94695   5.874   6.241  11.034  0.2131 -0.5953 -0.1476
  718MOL0     C94696   7.098   6.537  10.971  0.0001  0.1528 -0.4613
  718MOL0     C94697   7.202   6.603  10.905  0.5187 -0.3839 -0.7456
  718MOL0     C94698   7.486   6.862  10.661  0.6027  0.0319 -0.5910
  718MOL0     C94699   7.419   6.927  10.553 -1.1069 -0.3565 -0.1814
  718MOL0     C94700   7.499   7.010  10.464 -0.0722  0.3263 -0.5444
  718MOL0     C94701   7.636   7.027  10.492 -0.2723 -0.1555 -0.1247
  718MOL0     O94702   7.711   7.115  10.412  0.7847  0.6882  0.2926
  718MOL0     C94703   7.656   7.193  10.302  1.5732 -0.9725 -0.1378
  718MOL0     C94704   7.569   7.311  10.356 -0.6455  0.0489 -1.0157
  718MOL0     C94705   7.480   7.363  10.236 -0.3579 -0.3622  0.9497
  718MOL0     C94706   7.368   7.280  10.206  0.6491  0.0627  0.4074
  718MOL0     C94707   7.255   7.321  10.291 -0.8265  0.1552  0.2423
  718MOL0     C94708   7.161   7.357  10.345  0.5387 -0.3642  0.1318
  718MOL0     C94709   7.699   6.953  10.601 -0.0777 -0.1455  0.7277
  718MOL0     C94710   7.619   6.883  10.685 -0.2321  0.2337 -0.4773
  718MOL0     H94711   7.040   6.836  10.729  0.7703  0.2823 -0.8002
  718MOL0     H94712   6.847   6.723  10.833 -2.0708 -3.1991 -0.3853
  718MOL0     H94713   6.702   6.528  10.886 -1.5364 -0.3592 -0.3572
  718MOL0     H94714   6.717   6.639  11.011  0.9367  0.7177 -4.2927
  718MOL0     H94715   6.688   6.459  11.180 -1.3268  3.6276  0.8680
  718MOL0     H94716   6.673   6.346  11.051  3.4311 -0.3376  3.1605
  718MOL0     H94717   6.495   6.518  10.944  1.8024 -1.9993 -0.1742
  718MOL0     H94718   6.507   6.595  11.114 -1.8693 -0.5441  1.0098
  718MOL0     H94719   6.402   6.346  10.990 -1.2835  0.2765 -0.6953
  718MOL0     H94720   6.455   6.315  11.145  2.2422  0.3090 -0.7213
  718MOL0     H94721   6.237   6.493  11.049 -1.7650  2.3277  2.3855
  718MOL0     H94722   6.300   6.526  11.213 -0.0712 -1.8172  2.2612
  718MOL0     H94723   6.257   6.298  11.289  0.2074  0.1943 -0.4422
  718MOL0     H94724   6.174   6.253  11.133  0.3745 -1.6845  1.2936
  718MOL0     H94725   6.019   6.331  11.318  0.1059 -0.8477 -2.3731
  718MOL0     H94726   6.096   6.486  11.306  1.6901 -1.4687  0.1193
  718MOL0     H94727   6.008   6.544  11.109 -0.8245  0.9488  0.2992
  718MOL0     H94728   5.867   6.475  11.179  1.5343  0.5669  1.9064
  718MOL0     H94729   6.104   6.425  10.888 -0.0813  0.6813  0.7029
  718MOL0     H94730   6.028   6.279  10.636  2.5369 -1.3398 -1.7229
  718MOL0     H94731   5.958   6.118  10.675  0.2934  0.2746  0.3791
  718MOL0     H94732   6.217   6.204  10.800 -2.8196  0.1281  1.5635
  718MOL0     H94733   6.234   6.145  10.640  2.0419 -1.7130  2.1184
  718MOL0     H94734   6.113   6.000  10.866 -0.4371  1.9806  0.2434
  718MOL0     H94735   6.113   5.937  10.701  0.0852  1.2406 -0.3246
  718MOL0     H94736   6.300   5.840  10.828  0.8074 -0.2549 -0.0377
  718MOL0     H94737   6.343   6.005  10.883 -3.6611  2.1729  0.2187
  718MOL0     H94738   6.498   6.080  10.494 -0.4234  1.6481  0.5565
  718MOL0     H94739   6.752   6.122  10.469  1.2640 -4.4883 -1.2760
  718MOL0     H94740   7.100   6.328  10.759 -0.6281  0.2824  0.2307
  718MOL0     H94741   7.337   6.393  10.744  1.5294 -0.7976 -1.8551
  718MOL0     H94742   7.592   6.253  10.927  0.7128 -0.4161  0.6229
  718MOL0     H94743   7.534   6.393  10.845  1.5818  1.3234 -2.0455
  718MOL0     H94744   7.804   6.277  10.802  0.4100 -0.0487 -1.8472
  718MOL0     H94745   7.767   6.400  10.919 -1.1610 -1.4954 -0.3428
  718MOL0     H94746   7.811   6.565  10.759  1.3047  0.3860 -0.3583
  718MOL0     H94747   7.656   6.522  10.706 -0.5760 -1.9427 -0.0906
  718MOL0     H94748   7.791   6.317  10.566  3.7642 -0.9430 -3.2634
  718MOL0     H94749   7.775   6.483  10.498  0.8622  0.5800 -0.0198
  718MOL0     H94750   8.010   6.355  10.520  2.9800  1.8383 -0.1941
  718MOL0     H94751   7.991   6.375  10.693  1.2946  1.3763 -0.0777
  718MOL0     H94752   7.976   6.643  10.629  1.1571  0.7040 -0.4155
  718MOL0     H94753   7.994   6.582  10.463  1.5885 -2.4866 -0.5856
  718MOL0     H94754   8.218   6.496  10.655 -1.0236  1.2631  1.4099
  718MOL0     H94755   8.216   6.551  10.482 -2.0720 -1.2897 -0.6034
  718MOL0     H94756   8.337   6.710  10.624  0.8530 -1.4707  1.8028
  718MOL0     H94757   8.192   6.731  10.734 -1.7071  1.5190 -0.8596
  718MOL0     H94758   7.451   5.985  10.809  0.1601 -0.8845 -0.9561
  718MOL0     H94759   7.225   5.920  10.818  0.4903 -0.4706  4.4710
  718MOL0     H94760   6.809   6.015  10.878  1.6103  0.1276 -1.0040
  718MOL0     H94761   6.558   5.967  10.896  2.7838 -3.6544  0.4039
  718MOL0     H94762   7.123   6.449  11.029 -0.3624  0.4720  0.1990
  718MOL0     H94763   7.298   6.553  10.912  0.7697  0.2841  2.8830
  718MOL0     H94764   7.317   6.904  10.522 -0.6040 -1.7706 -0.8755
  718MOL0     H94765   7.445   7.036  10.373 -3.1208  1.5783  1.4517
  718MOL0     H94766   7.588   7.137  10.237  2.2640 -1.7909 -0.1642
  718MOL0     H94767   7.734   7.240  10.241 -0.6649  4.2964  0.5108
  718MOL0     H94768   7.501   7.279  10.435 -0.7185 -0.1289 -1.1487
  718MOL0     H94769   7.634   7.389  10.396 -0.3297 -1.2137  1.0923
  718MOL0     H94770   7.546   7.356  10.149  0.8487  0.5687  1.7552
  718MOL0     H94771   7.453   7.466  10.260  0.3554 -0.0567  0.4838
  718MOL0     H94772   7.341   7.285  10.100 -0.6953 -0.8389  0.6904
  718MOL0     H94773   7.395   7.175  10.222 -1.9084 -1.0854 -1.8732
  718MOL0     H94774   7.083   7.392  10.411 -0.2622 -0.5547 -0.6965
  718MOL0     H94775   7.807   6.960  10.604 -0.1174  1.9200 -0.4662
  718MOL0     H94776   7.672   6.833  10.765  0.9671  1.0495 -0.7376
  719MOL0     O94777   2.131   7.657   7.626  1.0437 -0.0832 -0.4028
  719MOL0     C94778   2.097   7.746   7.700  0.6041 -0.0987  0.2190
  719MOL0     O94779   2.186   7.845   7.741  0.0209  0.5328  0.1193
  719MOL0     C94780   2.289   7.894   7.658 -1.1044  0.8273 -0.6477
  719MOL0     C94781   2.369   7.989   7.709 -0.9329 -0.9185  0.3252
  719MOL0     C94782   2.475   8.063   7.646  0.1833  0.1020  0.9090
  719MOL0     C94783   2.502   8.024   7.516 -0.6176 -0.4253  0.4539
  719MOL0     O94784   2.609   8.086   7.454 -0.0888  0.2230 -0.7344
  719MOL0     C94785   2.653   8.046   7.328 -0.2981 -0.4179 -0.2492
  719MOL0     C94786   2.725   8.170   7.274 -0.4843  0.5859 -0.1294
  719MOL0     C94787   2.785   8.153   7.133 -1.3087 -1.0765 -0.1045
  719MOL0     C94788   2.873   8.277   7.089 -0.0782 -0.5478  0.6204
  719MOL0     C94789   2.883   8.271   6.931 -0.7530 -0.6185  0.4885
  719MOL0     C94790   2.968   8.157   6.867  0.0308 -0.0703  0.1151
  719MOL0     C94791   3.121   8.163   6.903 -0.3797  0.1168 -0.1602
  719MOL0     C94792   3.194   8.283   6.836  0.6778  0.5375  0.7317
  719MOL0     N94793   3.338   8.286   6.866  0.4018 -0.0791 -0.2759
  719MOL0     C94794   3.437   8.366   6.800 -0.6772 -0.5492 -0.4018
  719MOL0     C94795   3.540   8.370   6.881 -0.6946 -0.2291 -0.2584
  719MOL0     C94796   3.667   8.453   6.878 -0.2254 -1.2061  0.4039
  719MOL0     C94797   3.652   8.598   6.842  0.6309  0.1382  0.1161
  719MOL0     C94798   3.561   8.668   6.950 -0.1065  0.1026 -0.2932
  719MOL0     C94799   3.501   8.798   6.890 -0.4999  0.1997 -0.1991
  719MOL0     O94800   3.406   8.774   6.784 -0.3204 -0.0430 -0.3481
  719MOL0     C94801   3.284   8.717   6.816  0.1063 -1.2141  0.1838
  719MOL0     C94802   3.222   8.688   6.941  0.4975  0.0734  0.4650
  719MOL0     C94803   3.082   8.668   6.944  0.6749 -0.1128 -0.7478
  719MOL0     C94804   3.002   8.660   6.827  0.0171  0.9987 -0.5907
  719MOL0     C94805   2.853   8.650   6.839 -0.1932  0.8074 -0.2603
  719MOL0     O94806   2.807   8.636   6.972  0.4236  0.7526  0.7038
  719MOL0     C94807   2.685   8.587   7.005 -0.1763 -0.7338 -0.5484
  719MOL0     C94808   2.611   8.502   6.928  0.7629 -0.7261 -0.0250
  719MOL0     C94809   2.488   8.449   6.982 -0.2866  0.5740 -0.3276
  719MOL0     C94810   2.449   8.483   7.108 -0.0438 -0.9798 -0.7188
  719MOL0     O94811   2.328   8.435   7.149 -0.2381  0.4199 -0.1312
  719MOL0     C94812   2.338   8.339   7.252  0.1400 -0.1832 -0.1819
  719MOL0     C94813   2.187   8.309   7.278 -0.8597 -0.6027 -0.6860
  719MOL0     C94814   2.174   8.203   7.375  0.5052  0.1989  0.4852
  719MOL0     C94815   2.031   8.154   7.387 -0.3354  1.1386 -0.0177
  719MOL0     C94816   2.019   8.047   7.498 -0.0232  0.1717 -0.1545
  719MOL0     C94817   1.873   7.994   7.521  0.1332 -0.1040  0.3904
  719MOL0     C94818   1.784   8.085   7.615  0.0191  0.0573 -0.3100
  719MOL0     C94819   1.654   8.019   7.631  0.0587  0.6564 -0.9426
  719MOL0    Cl94820   1.542   8.114   7.732  0.6202  0.4582  0.1362
  719MOL0     C94821   2.535   8.566   7.191  0.9241 -0.4425 -0.6660
  719MOL0     C94822   2.656   8.607   7.142 -0.3886 -0.5834  0.4133
  719MOL0     O94823   2.791   8.623   6.739  0.3018 -0.2265  0.3491
  719MOL0     C94824   3.069   8.662   6.700  0.2279  0.9675 -0.5908
  719MOL0     C94825   3.206   8.686   6.701 -0.4300  0.0191 -0.0848
  719MOL0     N94826   3.506   8.292   6.998 -0.1752 -0.0700 -0.6980
  719MOL0     N94827   3.384   8.246   6.984  0.0044 -0.0081  1.0312
  719MOL0     C94828   2.422   7.919   7.459  0.6635  0.5404 -1.0285
  719MOL0     C94829   2.316   7.863   7.527  0.0507  0.2762  0.2161
  719MOL0     C94830   1.965   7.734   7.763 -0.5552 -0.1772 -0.3359
  719MOL0     C94831   1.889   7.620   7.737 -0.4236  0.4756 -1.1211
  719MOL0     C94832   1.757   7.605   7.791  0.0867 -0.1635  1.2210
  719MOL0     C94833   1.706   7.698   7.878  0.3738 -0.1957 -0.2041
  719MOL0     O94834   1.578   7.673   7.935 -0.1186 -0.4001  0.4514
  719MOL0     C94835   1.511   7.773   8.014  0.6324  1.3186 -0.1446
  719MOL0     C94836   1.379   7.706   8.063  0.8111  0.6855  0.0260
  719MOL0     C94837   1.318   7.778   8.178 -0.6983  0.2347 -0.0776
  719MOL0     C94838   1.177   7.743   8.206 -0.2758 -0.9284  0.4605
  719MOL0     C94839   1.091   7.814   8.100 -0.0639 -0.5957  0.3758
  719MOL0     C94840   1.041   7.864   8.003  0.6808  0.8005 -0.3353
  719MOL0     C94841   1.781   7.819   7.900 -0.2400  0.3728  0.2365
  719MOL0     C94842   1.916   7.836   7.842  0.5026 -0.7434 -0.4844
  719MOL0     H94843   2.357   8.002   7.816 -2.2236  3.6108 -0.1761
  719MOL0     H94844   2.530   8.136   7.705 -0.3861  0.8303  0.5547
  719MOL0     H94845   2.573   8.018   7.259  0.4956 -1.7800 -0.6568
  719MOL0     H94846   2.723   7.962   7.325 -1.3424 -1.3634  0.8810
  719MOL0     H94847   2.805   8.192   7.347 -1.4274 -1.3954  1.6058
  719MOL0     H94848   2.657   8.255   7.280 -0.3896  0.5973  3.9124
  719MOL0     H94849   2.702   8.146   7.063  0.6475 -1.9999 -2.4724
  719MOL0     H94850   2.849   8.065   7.125 -2.1249 -1.5982 -1.1910
  719MOL0     H94851   2.809   8.366   7.099 -1.6154 -1.1865 -2.4191
  719MOL0     H94852   2.967   8.299   7.140  0.4500  2.2712 -1.3150
  719MOL0     H94853   2.920   8.364   6.888 -1.8957  0.8306  2.4648
  719MOL0     H94854   2.782   8.264   6.891 -0.5997 -0.2655  0.0281
  719MOL0     H94855   2.967   8.181   6.760 -0.1038 -1.0716 -0.1135
  719MOL0     H94856   2.923   8.058   6.875  0.5354 -0.5590 -2.3267
  719MOL0     H94857   3.136   8.170   7.011  1.0178 -2.2907 -0.1244
  719MOL0     H94858   3.167   8.067   6.878 -0.3596 -1.0949  3.7537
  719MOL0     H94859   3.154   8.381   6.866  0.6018  0.2074  1.7444
  719MOL0     H94860   3.182   8.263   6.729 -0.4226  1.5375  0.6435
  719MOL0     H94861   3.415   8.432   6.716 -1.6622  2.2436  1.8987
  719MOL0     H94862   3.737   8.403   6.810 -0.3624 -3.7740  2.0233
  719MOL0     H94863   3.721   8.452   6.973  0.5335 -1.1696 -0.0188
  719MOL0     H94864   3.608   8.602   6.742 -0.4319  0.1500  0.5709
  719MOL0     H94865   3.745   8.655   6.839  0.1034  0.9935 -0.3486
  719MOL0     H94866   3.482   8.600   6.983  0.5764  0.5049  2.3578
  719MOL0     H94867   3.620   8.697   7.037 -0.8386 -3.1005  1.4218
  719MOL0     H94868   3.584   8.858   6.850 -1.6594  3.0218  1.3323
  719MOL0     H94869   3.461   8.873   6.959 -0.3008  0.2221 -0.1058
  719MOL0     H94870   3.276   8.697   7.034  0.4224  0.6156  0.4581
  719MOL0     H94871   3.033   8.649   7.039 -2.1976 -2.2964 -2.5033
  719MOL0     H94872   2.638   8.479   6.825  1.5388  0.3511 -0.0773
  719MOL0     H94873   2.419   8.387   6.926  0.8659 -2.5015  1.3972
  719MOL0     H94874   2.371   8.389   7.343 -0.8148 -0.1587  0.1638
  719MOL0     H94875   2.386   8.243   7.234 -1.1522 -0.8648 -0.0846
  719MOL0     H94876   2.134   8.277   7.188 -1.1139 -1.9352 -0.0838
  719MOL0     H94877   2.134   8.399   7.309  1.9152  2.0464 -3.0360
  719MOL0     H94878   2.195   8.243   7.475 -0.9431  0.6378  0.6242
  719MOL0     H94879   2.239   8.119   7.348  2.4293  2.2824 -1.8908
  719MOL0     H94880   1.965   8.239   7.405 -1.1071  0.7603 -0.9668
  719MOL0     H94881   2.007   8.096   7.298 -0.7429 -1.2837  1.5891
  719MOL0     H94882   2.083   8.085   7.578  0.6443 -0.1773 -0.5113
  719MOL0     H94883   2.071   7.956   7.469 -1.5806 -0.5973 -0.6565
  719MOL0     H94884   1.874   7.897   7.571  3.1500  0.0937  0.8970
  719MOL0     H94885   1.829   7.984   7.421  1.2734  0.8064 -0.2242
  719MOL0     H94886   1.834   8.087   7.712  1.4279  1.0838 -1.0063
  719MOL0     H94887   1.789   8.190   7.584 -0.0047  0.3639  0.6820
  719MOL0     H94888   1.656   7.911   7.649 -0.2374  0.5808 -1.3397
  719MOL0     H94889   1.617   8.015   7.528  1.8291 -4.4224 -1.6745
  719MOL0     H94890   2.500   8.576   7.294 -1.7266 -4.4100 -0.9240
  719MOL0     H94891   2.725   8.664   7.203  1.8662 -2.0492 -0.6493
  719MOL0     H94892   3.025   8.646   6.602 -1.6684  1.6876  0.1035
  719MOL0     H94893   3.251   8.698   6.602  0.3793  0.0674  0.2850
  719MOL0     H94894   2.433   7.888   7.356  0.7762 -3.3948  0.0270
  719MOL0     H94895   2.254   7.786   7.481 -1.8395  0.5883  2.0684
  719MOL0     H94896   1.934   7.542   7.677 -1.3627 -1.4335  0.5507
  719MOL0     H94897   1.714   7.508   7.766  1.2995 -0.3802 -0.1950
  719MOL0     H94898   1.492   7.868   7.962 -1.0328  0.8552 -0.4119
  719MOL0     H94899   1.571   7.796   8.103  0.6518 -0.5127  0.3434
  719MOL0     H94900   1.307   7.703   7.981 -0.8575  0.1013  1.4521
  719MOL0     H94901   1.403   7.607   8.103 -1.7774  0.0127  0.0684
  719MOL0     H94902   1.320   7.887   8.177  0.8618  0.3119  2.3199
  719MOL0     H94903   1.379   7.743   8.262  1.9071  1.4224 -1.3705
  719MOL0     H94904   1.176   7.633   8.204  1.0753 -1.0007  1.9179
  719MOL0     H94905   1.150   7.790   8.301  2.0307  0.3512  0.5558
  719MOL0     H94906   0.999   7.904   7.913  0.7856  0.4233 -0.5546
  719MOL0     H94907   1.739   7.904   7.953 -1.0045  1.0568 -1.3566
  719MOL0     H94908   1.974   7.927   7.843  0.1260 -0.4715 -1.6387
  720MOL0     O94909   6.268   2.578   3.408 -0.0196  0.4386 -0.3338
  720MOL0     C94910   6.243   2.561   3.531  0.1656 -0.5235  0.0282
  720MOL0     O94911   6.124   2.567   3.586  0.2764  0.0262 -1.0544
  720MOL0     C94912   6.016   2.625   3.524  1.1711 -0.3191 -0.3937
  720MOL0     C94913   6.021   2.742   3.447 -0.3282 -0.1550  0.6728
  720MOL0     C94914   5.905   2.793   3.398  0.2933  0.1371  0.1035
  720MOL0     C94915   5.777   2.732   3.402 -0.3133 -1.0170 -0.4155
  720MOL0     O94916   5.669   2.809   3.384  0.2166 -0.2480 -0.0139
  720MOL0     C94917   5.554   2.764   3.326 -0.0546  0.5709 -0.2303
  720MOL0     C94918   5.491   2.892   3.267  0.3485 -0.0901  0.1370
  720MOL0     C94919   5.344   2.860   3.205 -0.7817 -0.2542 -0.1945
  720MOL0     C94920   5.286   2.976   3.126  0.4870  0.0349 -0.4221
  720MOL0     C94921   5.141   2.953   3.078 -0.0695 -0.3474 -0.0326
  720MOL0     C94922   5.038   3.059   3.130 -0.8846  0.5975 -0.2614
  720MOL0     C94923   4.902   3.061   3.051 -0.5167  0.2739 -0.1817
  720MOL0     C94924   4.829   2.935   3.056 -0.2583  0.0292 -0.4932
  720MOL0     N94925   4.710   2.949   2.980  0.0431  0.4113  0.3125
  720MOL0     C94926   4.592   3.006   3.016 -0.3537  0.2190 -0.6942
  720MOL0     C94927   4.525   3.008   2.902  0.3528  0.4089  0.6921
  720MOL0     C94928   4.381   3.047   2.884 -0.6422 -0.4330  0.1290
  720MOL0     C94929   4.350   3.187   2.956 -0.1623  0.0398 -0.3228
  720MOL0     C94930   4.232   3.249   2.891 -0.5862  0.5534  0.0766
  720MOL0     C94931   4.185   3.378   2.950 -0.1183  0.0284 -0.3099
  720MOL0     O94932   4.134   3.356   3.083 -0.4546 -0.4219  0.6828
  720MOL0     C94933   4.019   3.404   3.129  0.2277  0.8936 -0.5037
  720MOL0     C94934   3.966   3.343   3.245 -0.0345 -0.3169 -0.7301
  720MOL0     C94935   3.842   3.376   3.305 -0.0021 -0.8015 -1.5956
  720MOL0     C94936   3.766   3.478   3.242  0.1220 -1.0777  0.1356
  720MOL0     C94937   3.635   3.508   3.301 -0.1027 -0.1821 -0.1988
  720MOL0     O94938   3.534   3.524   3.210  0.7840  0.2943 -0.4275
  720MOL0     C94939   3.401   3.535   3.241  0.6112  0.1688 -1.2513
  720MOL0     C94940   3.310   3.482   3.148 -0.8475 -0.4185 -0.3779
  720MOL0     C94941   3.177   3.505   3.175 -0.2621  0.4246 -1.1238
  720MOL0     C94942   3.124   3.567   3.286 -0.0875  0.2015  0.0958
  720MOL0     O94943   2.990   3.586   3.297  0.1071 -0.1916  0.6584
  720MOL0     C94944   2.913   3.463   3.281 -0.2545 -0.5051 -0.1844
  720MOL0     C94945   2.802   3.463   3.390  0.5835  0.5503  0.1259
  720MOL0     C94946   2.731   3.601   3.385  0.4820  0.2033  0.1044
  720MOL0     C94947   2.680   3.640   3.243 -0.5331  0.0834 -0.7332
  720MOL0     C94948   2.592   3.762   3.247 -0.0661  0.3240 -0.6240
  720MOL0     C94949   2.474   3.754   3.152  0.1825 -0.3336 -0.6442
  720MOL0     C94950   2.515   3.804   3.010  0.0647  0.5153  0.1108
  720MOL0     C94951   2.387   3.761   2.926 -0.2048 -0.0845 -0.8360
  720MOL0    Cl94952   2.422   3.611   2.863 -0.0014  0.2793 -0.3095
  720MOL0     C94953   3.216   3.615   3.376 -0.6779  0.5900 -0.3296
  720MOL0     C94954   3.353   3.595   3.359 -0.0353 -1.0333 -0.1663
  720MOL0     O94955   3.626   3.509   3.421 -0.0290 -0.2182 -0.5742
  720MOL0     C94956   3.812   3.537   3.122  0.2372 -0.0959  0.3227
  720MOL0     C94957   3.940   3.505   3.074 -0.3261 -0.6050 -0.4604
  720MOL0     N94958   4.595   2.943   2.802 -0.8053  0.3093 -0.4359
  720MOL0     N94959   4.712   2.918   2.847 -0.6105 -0.4452  0.4910
  720MOL0     C94960   5.770   2.612   3.476 -0.3729  0.0309  0.7562
  720MOL0     C94961   5.890   2.559   3.536  0.0018  0.4593  0.5378
  720MOL0     C94962   6.358   2.515   3.614 -0.0930 -0.1134 -0.3674
  720MOL0     C94963   6.484   2.469   3.561  0.7287 -0.0129  0.1980
  720MOL0     C94964   6.579   2.407   3.635  0.1464  0.3188  0.9295
  720MOL0     C94965   6.554   2.377   3.766 -0.0932  0.0502  0.0239
  720MOL0     O94966   6.642   2.292   3.835 -0.9148  0.3607 -0.0678
  720MOL0     C94967   6.701   2.349   3.948 -0.7905 -0.2951 -0.6865
  720MOL0     C94968   6.814   2.261   4.006  0.7442  0.1173 -0.3184
  720MOL0     C94969   6.892   2.334   4.124 -0.4282 -0.2497  0.1657
  720MOL0     C94970   7.029   2.272   4.149  0.0369  0.4006 -0.3963
  720MOL0     C94971   7.076   2.334   4.275 -0.0245  0.4528  0.2208
  720MOL0     C94972   7.107   2.401   4.376  0.0990  1.4591  0.3166
  720MOL0     C94973   6.436   2.432   3.831  0.6728  0.1645  0.5864
  720MOL0     C94974   6.338   2.499   3.755  0.3856 -0.0227 -0.8327
  720MOL0     H94975   6.115   2.795   3.432  0.1231 -1.0774  0.1131
  720MOL0     H94976   5.892   2.891   3.354  0.3791  0.9893  1.8856
  720MOL0     H94977   5.496   2.736   3.414 -0.3529 -0.8282 -0.8374
  720MOL0     H94978   5.564   2.682   3.254  0.3255  0.4422 -0.0291
  720MOL0     H94979   5.557   2.925   3.187  0.8747  2.3866  1.5006
  720MOL0     H94980   5.484   2.964   3.348 -1.3450 -2.0980  1.9044
  720MOL0     H94981   5.270   2.832   3.280 -1.3261  1.6028  0.0059
  720MOL0     H94982   5.364   2.781   3.131  1.0363 -1.1152  1.1329
  720MOL0     H94983   5.289   3.068   3.184  2.0395 -0.2806  0.0434
  720MOL0     H94984   5.347   3.001   3.039 -0.0291 -1.9689 -1.4361
  720MOL0     H94985   5.105   2.855   3.111  0.5087 -1.9475 -3.6977
  720MOL0     H94986   5.143   2.954   2.969  0.7826 -2.7178 -0.1125
  720MOL0     H94987   5.083   3.158   3.125  2.5045 -0.2631  4.9508
  720MOL0     H94988   5.020   3.041   3.237  1.5450  0.8836  0.2635
  720MOL0     H94989   4.842   3.133   3.108 -0.9945  1.1134 -1.7012
  720MOL0     H94990   4.913   3.093   2.947 -1.3155  2.7184  0.4102
  720MOL0     H94991   4.810   2.916   3.162 -2.8277  1.8549 -0.5399
  720MOL0     H94992   4.894   2.853   3.025  2.0323  1.8955 -0.9369
  720MOL0     H94993   4.565   3.051   3.111  1.8511  1.5021 -0.6341
  720MOL0     H94994   4.313   2.979   2.937 -0.4506  0.5293  1.6844
  720MOL0     H94995   4.346   3.039   2.781 -0.9517 -3.2681  0.3692
  720MOL0     H94996   4.440   3.249   2.942  0.3221 -0.4442  0.6004
  720MOL0     H94997   4.333   3.155   3.059 -2.8907 -1.0528 -1.0241
  720MOL0     H94998   4.249   3.266   2.784  0.8557 -0.5674  0.0974
  720MOL0     H94999   4.148   3.181   2.904  0.8926 -1.1477  1.1917
  720MOL0     H95000   4.104   3.419   2.887  1.8768  4.0872 -0.5403
  720MOL0     H95001   4.275   3.440   2.948  2.1539 -3.0480 -0.2695
  720MOL0     H95002   4.033   3.272   3.294  0.7275  1.4555  0.9405
  720MOL0     H95003   3.815   3.320   3.394 -0.0681  0.5415 -0.7329
  720MOL0     H95004   3.341   3.439   3.053  3.1735  1.2046 -0.0084
  720MOL0     H95005   3.116   3.464   3.095  0.5322 -1.6563 -0.7193
  720MOL0     H95006   2.977   3.378   3.307  0.0915 -0.1235  0.2116
  720MOL0     H95007   2.885   3.452   3.175  3.0101 -0.1664 -1.2000
  720MOL0     H95008   2.852   3.457   3.488 -0.2512 -1.9439  0.4701
  720MOL0     H95009   2.726   3.384   3.385 -0.3127  1.4326 -0.5021
  720MOL0     H95010   2.795   3.682   3.422 -1.5176  1.6855  0.5254
  720MOL0     H95011   2.645   3.597   3.452  0.2714  3.6373  0.2174
  720MOL0     H95012   2.757   3.645   3.165 -2.8396 -1.7279 -3.2761
  720MOL0     H95013   2.620   3.556   3.208 -2.8555  0.7855  1.2880
  720MOL0     H95014   2.651   3.846   3.209  1.6527 -0.0644  1.0532
  720MOL0     H95015   2.557   3.801   3.343 -0.9825  1.7865 -1.5021
  720MOL0     H95016   2.392   3.810   3.198 -3.0557 -2.9199 -2.8540
  720MOL0     H95017   2.441   3.650   3.150  0.3109 -0.3662 -2.0102
  720MOL0     H95018   2.529   3.913   3.012 -0.6846  0.6165  1.9819
  720MOL0     H95019   2.612   3.770   2.975  1.7139  2.9058  1.9962
  720MOL0     H95020   2.360   3.835   2.850  3.2219  0.9643 -1.2112
  720MOL0     H95021   2.294   3.752   2.983 -0.5440 -0.1453 -1.3868
  720MOL0     H95022   3.171   3.658   3.464  1.4023  1.5273  0.3598
  720MOL0     H95023   3.419   3.630   3.438 -3.1048  0.3598  1.9649
  720MOL0     H95024   3.759   3.616   3.070  1.7344  0.8509  0.1923
  720MOL0     H95025   3.969   3.554   2.981 -3.0466 -2.1394 -2.2451
  720MOL0     H95026   5.676   2.568   3.505  0.1566 -0.6541  1.5014
  720MOL0     H95027   5.878   2.468   3.595 -2.4663  0.3794  0.0355
  720MOL0     H95028   6.501   2.483   3.455 -1.9866 -0.3105 -0.3519
  720MOL0     H95029   6.673   2.373   3.592  0.2832  1.1521  0.5507
  720MOL0     H95030   6.617   2.357   4.018 -1.3454 -2.5278 -1.0175
  720MOL0     H95031   6.733   2.448   3.915  0.9336 -1.1501 -1.6918
  720MOL0     H95032   6.777   2.163   4.037  2.1172  0.2426  1.9675
  720MOL0     H95033   6.875   2.237   3.918  3.1810 -0.7700  1.4940
  720MOL0     H95034   6.831   2.338   4.215  0.6125 -0.6089  0.8849
  720MOL0     H95035   6.908   2.439   4.096  0.4976 -1.3400 -4.2674
  720MOL0     H95036   7.032   2.163   4.161  1.5501  0.5036  0.4702
  720MOL0     H95037   7.093   2.298   4.065  1.4931  0.7805  0.7803
  720MOL0     H95038   7.129   2.459   4.464 -5.0688  2.3168  1.3534
  720MOL0     H95039   6.428   2.424   3.939  0.1034 -3.2507  0.4100
  720MOL0     H95040   6.244   2.531   3.798 -0.0813  1.5406 -2.8333
  721MOL0     O95041   9.976  11.262   8.251  0.1206 -0.2675  0.0639
  721MOL0     C95042  10.014  11.359   8.301 -0.0515 -0.1618  0.0083
  721MOL0     O95043   9.932  11.449   8.374  0.8503  0.1128  0.4078
  721MOL0     C95044   9.799  11.427   8.362 -0.2198 -0.1602  0.2406
  721MOL0     C95045   9.743  11.341   8.449  0.1741  0.3312  0.0884
  721MOL0     C95046   9.597  11.327   8.447 -0.5290 -0.0911  0.1820
  721MOL0     C95047   9.519  11.413   8.361  0.2139 -1.0986  0.4663
  721MOL0     O95048   9.377  11.404   8.366 -0.5307  0.6003  0.2626
  721MOL0     C95049   9.316  11.511   8.437  0.5551 -0.2464  0.4563
  721MOL0     C95050   9.247  11.427   8.553 -0.4745  0.4324 -0.2269
  721MOL0     C95051   9.134  11.511   8.613  0.7912  0.7923 -0.8897
  721MOL0     C95052   9.056  11.426   8.715  0.5743 -0.2738 -0.2471
  721MOL0     C95053   8.947  11.502   8.789 -0.2424  0.4177  0.3247
  721MOL0     C95054   8.976  11.493   8.937  0.1098 -0.3526 -0.1479
  721MOL0     C95055   8.895  11.589   9.026 -0.2559  0.3998  0.0017
  721MOL0     C95056   8.954  11.729   9.026 -0.3434  0.3587  0.9271
  721MOL0     N95057   8.880  11.842   9.071  0.0134  0.5578 -0.4775
  721MOL0     C95058   8.749  11.880   9.028 -0.8168 -0.5437  0.3055
  721MOL0     C95059   8.716  11.990   9.107  0.7476 -0.0256  0.1169
  721MOL0     C95060   8.605  12.087   9.081  0.7451 -0.4356 -0.5425
  721MOL0     C95061   8.594  12.130   8.934 -0.1786 -1.0575 -0.2480
  721MOL0     C95062   8.494  12.247   8.910 -0.1687 -0.2675 -0.5563
  721MOL0     C95063   8.517  12.320   8.785  0.9065  0.5065 -0.4017
  721MOL0     O95064   8.647  12.379   8.796 -0.5760  0.2604 -0.0493
  721MOL0     C95065   8.706  12.450   8.691 -0.7425  0.3861 -0.6034
  721MOL0     C95066   8.827  12.505   8.721  0.7392 -0.5669  0.0409
  721MOL0     C95067   8.890  12.588   8.632  0.5564 -0.0392  0.4730
  721MOL0     C95068   8.844  12.594   8.498  0.2286  0.9866 -0.2517
  721MOL0     C95069   8.922  12.676   8.403  1.0343  0.2312  0.0536
  721MOL0     O95070   9.062  12.685   8.407  0.5821 -0.7120  0.3357
  721MOL0     C95071   9.129  12.787   8.346 -0.2901  0.2551 -0.2714
  721MOL0     C95072   9.092  12.916   8.366  0.2289 -0.1912 -0.3069
  721MOL0     C95073   9.176  13.018   8.332  0.5700  0.2385  0.0172
  721MOL0     C95074   9.304  12.994   8.280 -0.0556  0.2088  0.7309
  721MOL0     O95075   9.378  13.100   8.246 -0.4577  0.2624  0.1445
  721MOL0     C95076   9.495  13.089   8.157 -0.1725  0.2435 -0.1286
  721MOL0     C95077   9.610  13.040   8.237 -0.4862  0.5156 -1.0341
  721MOL0     C95078   9.715  13.000   8.133  0.1310 -0.2196  0.4651
  721MOL0     C95079   9.830  12.927   8.204  0.5175 -0.0235  0.0051
  721MOL0     C95080   9.954  12.920   8.107  0.4185  0.6039 -0.1873
  721MOL0     C95081  10.080  12.892   8.190 -0.0959  0.6391 -0.5481
  721MOL0     C95082  10.218  12.937   8.139  0.3034  0.6868 -0.4072
  721MOL0     C95083  10.228  12.927   7.991 -0.6224  0.4652 -0.1501
  721MOL0    Cl95084  10.233  12.749   7.939  0.2784  0.2945  0.0144
  721MOL0     C95085   9.334  12.857   8.240  0.2354 -0.1171  0.1382
  721MOL0     C95086   9.251  12.754   8.287  0.0500  0.3574  0.0477
  721MOL0     O95087   8.855  12.718   8.310  0.4187 -0.1475 -0.8301
  721MOL0     C95088   8.722  12.533   8.466  0.5732 -0.1080 -1.1949
  721MOL0     C95089   8.651  12.459   8.566  0.5030 -0.2336  0.5159
  721MOL0     N95090   8.818  11.999   9.197  0.5884  0.3236  0.5630
  721MOL0     N95091   8.915  11.919   9.178  0.0635  1.1585 -0.2549
  721MOL0     C95092   9.584  11.500   8.265 -0.2362 -0.0027 -0.5810
  721MOL0     C95093   9.722  11.501   8.268 -0.4291 -0.0437 -0.5856
  721MOL0     C95094  10.157  11.380   8.305  0.1358  0.4585  0.1972
  721MOL0     C95095  10.215  11.483   8.389  0.8896  1.0624 -0.9276
  721MOL0     C95096  10.349  11.496   8.390 -0.6156 -0.7523 -0.2465
  721MOL0     C95097  10.429  11.435   8.287 -0.2947 -0.2961  0.2813
  721MOL0     O95098  10.568  11.463   8.285  0.3936 -0.1918 -0.2405
  721MOL0     C95099  10.662  11.412   8.181  0.2296 -0.6176  0.5950
  721MOL0     C95100  10.741  11.288   8.204  0.2638 -0.5860  1.0850
  721MOL0     C95101  10.770  11.258   8.344 -0.3135 -0.0875 -1.3924
  721MOL0     C95102  10.878  11.153   8.364  0.1199  0.1515  0.0393
  721MOL0     C95103  10.887  11.125   8.501  0.0287 -0.1983 -0.5894
  721MOL0     C95104  10.897  11.100   8.624 -0.2907  0.2552  0.7671
  721MOL0     C95105  10.368  11.347   8.194  0.5479  1.3665  0.1426
  721MOL0     C95106  10.239  11.304   8.216  0.5982 -0.7061  0.1965
  721MOL0     H95107   9.804  11.282   8.517  2.1235  3.6886  1.4668
  721MOL0     H95108   9.555  11.254   8.515 -0.3315 -2.1989 -1.8471
  721MOL0     H95109   9.243  11.555   8.368 -0.4049  0.8945  2.1263
  721MOL0     H95110   9.388  11.585   8.471  0.2521  1.3195 -2.0626
  721MOL0     H95111   9.324  11.399   8.626  0.3125  0.2824 -1.0975
  721MOL0     H95112   9.200  11.332   8.525  1.6189 -0.9043  0.5113
  721MOL0     H95113   9.066  11.546   8.534  0.5174  0.3794 -0.8361
  721MOL0     H95114   9.181  11.597   8.662  0.1675  0.9968 -0.6431
  721MOL0     H95115   8.995  11.352   8.663 -2.1860  2.1197 -0.6288
  721MOL0     H95116   9.133  11.383   8.780  0.4893  0.2417  0.2066
  721MOL0     H95117   8.852  11.450   8.773 -1.1241  2.2140 -0.5945
  721MOL0     H95118   8.947  11.608   8.760  2.7413  0.2499 -0.6362
  721MOL0     H95119   9.080  11.526   8.945 -0.4272  1.3150  0.3083
  721MOL0     H95120   8.968  11.387   8.964  0.3677 -0.5887 -0.9588
  721MOL0     H95121   8.794  11.578   8.984 -0.4630 -0.0825  0.6047
  721MOL0     H95122   8.875  11.549   9.126 -1.9985  0.9133 -0.1051
  721MOL0     H95123   8.963  11.753   8.920  1.7321  2.0097  1.3972
  721MOL0     H95124   9.059  11.733   9.057 -0.7475  0.5556  2.3637
  721MOL0     H95125   8.705  11.832   8.941  1.4220  0.9369 -1.7622
  721MOL0     H95126   8.633  12.180   9.132  0.6246  0.1650 -1.5423
  721MOL0     H95127   8.511  12.072   9.135  1.5754 -0.9354  0.8150
  721MOL0     H95128   8.560  12.043   8.878 -0.9568 -1.7719  1.2489
  721MOL0     H95129   8.698  12.156   8.914  1.1027 -3.0741  2.9320
  721MOL0     H95130   8.390  12.214   8.914  0.2339 -1.4881  1.4733
  721MOL0     H95131   8.512  12.322   8.988 -2.8649 -0.3930  0.2922
  721MOL0     H95132   8.440  12.398   8.779 -1.8272 -1.6388  3.0492
  721MOL0     H95133   8.495  12.261   8.696 -1.5693  0.0604  0.4254
  721MOL0     H95134   8.869  12.497   8.821  2.3026 -1.4360 -0.6546
  721MOL0     H95135   8.989  12.622   8.662 -0.2896  0.7136  2.5357
  721MOL0     H95136   8.993  12.936   8.407  0.1415  0.9317 -1.0170
  721MOL0     H95137   9.152  13.123   8.345 -2.3787 -0.1164 -1.6296
  721MOL0     H95138   9.526  13.189   8.126  2.3028  0.1151  1.6048
  721MOL0     H95139   9.467  13.027   8.071 -1.2634  1.9244 -1.0452
  721MOL0     H95140   9.582  12.950   8.294  1.2652 -0.1039 -1.0702
  721MOL0     H95141   9.643  13.117   8.307 -3.2036  0.7858  0.0854
  721MOL0     H95142   9.761  13.086   8.083 -0.3867  0.4615  1.1200
  721MOL0     H95143   9.663  12.935   8.063  0.9074 -2.1294  1.6016
  721MOL0     H95144   9.856  13.002   8.280 -1.2049  1.0611 -0.4274
  721MOL0     H95145   9.796  12.830   8.240 -1.9089  0.6568 -0.3081
  721MOL0     H95146   9.964  13.017   8.058  3.0243  0.1085 -0.8187
  721MOL0     H95147   9.940  12.843   8.031 -0.8370  0.7481 -0.1221
  721MOL0     H95148  10.075  12.788   8.224  0.0075  0.8311  0.0785
  721MOL0     H95149  10.072  12.942   8.288 -0.8040 -0.7983  0.1477
  721MOL0     H95150  10.222  13.041   8.172 -1.8854  0.5042  0.5469
  721MOL0     H95151  10.291  12.869   8.184  0.2788 -1.8201 -3.7342
  721MOL0     H95152  10.325  12.973   7.970 -0.3541  1.2963  2.4573
  721MOL0     H95153  10.152  12.990   7.944 -1.0286  0.9674  1.1397
  721MOL0     H95154   9.423  12.824   8.188 -0.7400 -2.3326 -0.2409
  721MOL0     H95155   9.264  12.647   8.277 -1.2075  0.1588  0.3584
  721MOL0     H95156   8.695  12.544   8.362  0.6895  2.2855 -1.0314
  721MOL0     H95157   8.570  12.390   8.546  0.3627 -1.2885  4.0001
  721MOL0     H95158   9.528  11.554   8.189 -0.8572 -1.2655 -1.0486
  721MOL0     H95159   9.780  11.575   8.213 -1.6205  0.3603 -1.3394
  721MOL0     H95160  10.161  11.529   8.471  2.7124  3.4601 -0.9718
  721MOL0     H95161  10.382  11.561   8.471 -1.1446 -2.8527  1.7441
  721MOL0     H95162  10.732  11.495   8.170 -1.4891  0.9893  1.1754
  721MOL0     H95163  10.611  11.400   8.085 -0.1058  0.3569  0.6377
  721MOL0     H95164  10.690  11.207   8.151  3.7096 -2.0100 -0.3590
  721MOL0     H95165  10.838  11.303   8.155 -1.1111  0.5186 -1.4984
  721MOL0     H95166  10.688  11.226   8.409  2.5372 -0.2155  2.5095
  721MOL0     H95167  10.813  11.350   8.384  0.2307 -1.0682  0.3590
  721MOL0     H95168  10.847  11.064   8.307 -3.3341 -1.2172  3.5812
  721MOL0     H95169  10.977  11.185   8.331  0.0670 -0.6226 -0.9249
  721MOL0     H95170  10.912  11.067   8.725  1.0138 -0.0207  0.5105
  721MOL0     H95171  10.423  11.286   8.123 -0.9550 -0.8456  0.7899
  721MOL0     H95172  10.195  11.215   8.171 -0.1259  0.2808 -1.1295
  722MOL0     O95173   0.309  11.023   6.579 -0.2497 -0.5917  0.5008
  722MOL0     C95174   0.329  11.131   6.640 -1.5202  0.0329 -0.1838
  722MOL0     O95175   0.412  11.147   6.746 -0.0480  0.1103 -0.4377
  722MOL0     C95176   0.499  11.066   6.803  0.0798 -0.2110  0.6526
  722MOL0     C95177   0.577  11.118   6.909 -0.2051 -0.2091 -0.5942
  722MOL0     C95178   0.683  11.048   6.974  0.2790  0.3596 -0.6942
  722MOL0     C95179   0.707  10.910   6.954  0.4894  0.2611  0.3124
  722MOL0     O95180   0.809  10.849   7.024  0.4661  0.8763  0.5444
  722MOL0     C95181   0.812  10.710   7.037  0.5928  0.5481 -0.3434
  722MOL0     C95182   0.673  10.654   7.093  0.0040 -0.7252 -0.5538
  722MOL0     C95183   0.696  10.513   7.140 -0.8835 -0.1661  0.9390
  722MOL0     C95184   0.594  10.444   7.242 -0.5572  0.6938 -0.2661
  722MOL0     C95185   0.461  10.404   7.167  0.2542  0.3238 -0.3245
  722MOL0     C95186   0.363  10.330   7.260  0.2921 -0.3413  0.6363
  722MOL0     C95187   0.222  10.316   7.182  0.0594 -0.3014  0.6479
  722MOL0     C95188   0.112  10.267   7.282 -0.8508 -0.2343 -0.1034
  722MOL0     N95189  -0.021  10.241   7.226  0.0349 -0.8175  0.0276
  722MOL0     C95190  -0.070  10.122   7.193 -0.1869  0.7075  0.9748
  722MOL0     C95191  -0.179  10.152   7.120  0.2884  0.2025  0.6483
  722MOL0     C95192  -0.276  10.058   7.075  0.9259  0.9442  0.3816
  722MOL0     C95193  -0.281   9.921   7.137 -0.0304  0.1943 -0.3651
  722MOL0     C95194  -0.409   9.848   7.089  0.0939  0.4528 -0.2039
  722MOL0     C95195  -0.458   9.732   7.165  0.2982  1.0457  0.3069
  722MOL0     O95196  -0.581   9.668   7.119 -0.3381  0.6498  0.0866
  722MOL0     C95197  -0.649   9.597   7.206  0.7192  0.3346  0.6909
  722MOL0     C95198  -0.784   9.584   7.179  0.6742  0.6300 -0.3330
  722MOL0     C95199  -0.864   9.508   7.261 -0.4274 -0.1835  0.4510
  722MOL0     C95200  -0.805   9.446   7.367 -0.6539  0.1436 -1.1290
  722MOL0     C95201  -0.891   9.345   7.441  0.0538 -1.0239  0.3831
  722MOL0     O95202  -0.834   9.262   7.532  0.1357 -0.1801 -0.4854
  722MOL0     C95203  -0.912   9.177   7.598  0.9824 -0.6513 -0.7442
  722MOL0     C95204  -1.092   9.248   7.706 -0.4848  0.2711 -0.4031
  722MOL0     C95205  -1.216   9.107   7.798 -0.7146  0.5518 -0.6350
  722MOL0     C95206  -1.169   8.902   7.793 -0.2741 -0.3158  1.3649
  722MOL0     O95207  -1.247   8.808   7.852  0.0756  0.3123 -0.1612
  722MOL0     C95208  -1.319   8.870   7.964  0.0281  0.7111 -0.4836
  722MOL0     C95209  -1.300   8.781   8.092  0.5072  0.6147 -0.1412
  722MOL0     C95210  -1.149   8.765   8.123 -0.1131 -0.0005 -1.0941
  722MOL0     C95211  -1.146   8.700   8.266  0.2017  0.1910 -0.5752
  722MOL0     C95212  -1.008   8.661   8.314  0.1879 -0.2901 -0.4266
  722MOL0     C95213  -0.902   8.769   8.353 -0.4982 -0.3181  0.2852
  722MOL0     C95214  -0.936   8.838   8.483 -0.1872  0.1229  1.2212
  722MOL0     C95215  -0.826   8.932   8.532 -0.4572 -0.0639 -0.1536
  722MOL0    Cl95216  -0.670   8.852   8.581  0.0621  0.0188  0.4572
  722MOL0     C95217  -0.995   8.832   7.695  0.2314  0.1426 -0.8067
  722MOL0     C95218  -0.872   8.971   7.591 -0.5310  0.3410 -0.5462
  722MOL0     O95219  -1.006   9.330   7.403  0.6082  0.7025  0.6106
  722MOL0     C95220  -0.672   9.469   7.401 -0.2150 -0.4112 -0.1947
  722MOL0     C95221  -0.588   9.533   7.316  0.0899  0.3709 -0.0631
  722MOL0     N95222  -0.198  10.292   7.108  0.7250 -0.4532  0.2409
  722MOL0     N95223  -0.100  10.340   7.176 -0.5330  0.2547 -0.0457
  722MOL0     C95224   0.619  10.856   6.856 -0.6629  0.4074  0.5556
  722MOL0     C95225   0.521  10.926   6.783 -0.4402 -0.0289 -0.3306
  722MOL0     C95226   0.255  11.254   6.593  0.2568  0.3997  0.4779
  722MOL0     C95227   0.309  11.383   6.614  0.0781 -0.9229  0.8840
  722MOL0     C95228   0.261  11.495   6.551  0.2619  0.2791 -0.1577
  722MOL0     C95229   0.145  11.496   6.478 -0.8051  0.3389 -0.8621
  722MOL0     O95230   0.100  11.618   6.441 -0.3469 -0.2645  0.1635
  722MOL0     C95231  -0.016  11.628   6.351 -0.0254 -0.0379  0.5156
  722MOL0     C95232  -0.054  11.763   6.293  0.7193 -0.2993  0.6624
  722MOL0     C95233  -0.145  11.732   6.177  0.6902  0.3461  0.2839
  722MOL0     C95234  -0.205  11.856   6.117  0.9111 -0.5734 -0.2277
  722MOL0     C95235  -0.110  11.928   6.037  0.2926 -0.0112 -0.3720
  722MOL0     C95236  -0.038  12.009   5.987 -0.7014 -0.4997 -1.1690
  722MOL0     C95237   0.084  11.374   6.455 -0.0105 -0.5143 -0.4000
  722MOL0     C95238   0.144  11.250   6.502  0.4277 -0.1970 -0.2580
  722MOL0     H95239   0.560  11.223   6.932  0.7990 -0.2202  0.2594
  722MOL0     H95240   0.750  11.105   7.038  0.7681 -1.4782  0.4990
  722MOL0     H95241   0.886  10.694   7.116  0.6591  1.0251 -0.3080
  722MOL0     H95242   0.843  10.663   6.943  1.9360  0.3144  0.2050
  722MOL0     H95243   0.582  10.669   7.033 -1.7489 -0.0703  2.1165
  722MOL0     H95244   0.655  10.721   7.177  0.6760 -0.5934 -0.5101
  722MOL0     H95245   0.794  10.516   7.189 -0.7703  0.6687  0.6605
  722MOL0     H95246   0.704  10.443   7.057 -0.7565 -1.3151  1.8844
  722MOL0     H95247   0.651  10.364   7.290  0.0291 -0.3107 -2.4933
  722MOL0     H95248   0.569  10.522   7.315  0.6251  0.8003  0.0476
  722MOL0     H95249   0.480  10.345   7.077  3.0388 -2.6619  1.9887
  722MOL0     H95250   0.419  10.501   7.139  0.4412  0.4652 -0.1168
  722MOL0     H95251   0.343  10.387   7.351  0.0283  2.5289 -1.0971
  722MOL0     H95252   0.395  10.229   7.285 -0.7885 -1.4847 -2.1972
  722MOL0     H95253   0.199  10.408   7.127  1.2819 -0.7670 -0.6827
  722MOL0     H95254   0.219  10.234   7.111  0.0701  0.7810 -0.6353
  722MOL0     H95255   0.103  10.342   7.360 -0.4895 -0.6334  0.3320
  722MOL0     H95256   0.155  10.180   7.332 -1.6374 -0.8813 -0.5262
  722MOL0     H95257  -0.038  10.021   7.218  0.4230  0.7595  0.4140
  722MOL0     H95258  -0.266  10.049   6.967 -0.0311  3.3373  0.0346
  722MOL0     H95259  -0.372  10.107   7.097 -0.9447 -2.3032  0.2080
  722MOL0     H95260  -0.293   9.930   7.245  3.0331 -1.5151  0.2393
  722MOL0     H95261  -0.190   9.864   7.115  0.7906  0.5763  1.7820
  722MOL0     H95262  -0.488   9.923   7.088  0.4113  0.7902 -1.5255
  722MOL0     H95263  -0.377   9.819   6.988 -0.6543 -1.8160  0.1546
  722MOL0     H95264  -0.461   9.763   7.269 -0.9421 -2.1142  1.3309
  722MOL0     H95265  -0.380   9.657   7.175 -2.5971 -1.8356  4.1693
  722MOL0     H95266  -0.820   9.638   7.092 -1.7407 -0.0160  0.1788
  722MOL0     H95267  -0.967   9.493   7.231  0.4800 -0.7570 -2.7241
  722MOL0     H95268  -1.110   9.354   7.700  0.4664  0.4031 -1.1240
  722MOL0     H95269  -1.313   9.135   7.837  0.3845  0.5470  2.3883
  722MOL0     H95270  -1.427   8.878   7.949 -0.0905  0.5328  0.2411
  722MOL0     H95271  -1.281   8.966   7.999 -0.4771  1.8532 -2.8356
  722MOL0     H95272  -1.345   8.682   8.075  0.2764  0.7522 -0.3367
  722MOL0     H95273  -1.348   8.837   8.172  1.1813 -0.2592  0.9070
  722MOL0     H95274  -1.102   8.862   8.142 -1.7419  0.2290  2.7720
  722MOL0     H95275  -1.097   8.701   8.051 -1.0176 -3.1049  0.8110
  722MOL0     H95276  -1.186   8.774   8.337  1.3468  0.6679 -0.4078
  722MOL0     H95277  -1.203   8.607   8.259  3.2485 -1.9648  0.8582
  722MOL0     H95278  -0.969   8.592   8.239 -1.3154  0.9485 -2.4676
  722MOL0     H95279  -1.029   8.599   8.402  1.2055 -2.8690 -1.8760
  722MOL0     H95280  -0.894   8.847   8.276  0.3039  0.9096  1.5548
  722MOL0     H95281  -0.809   8.717   8.378  0.8857  1.8106 -0.1532
  722MOL0     H95282  -1.022   8.904   8.465 -0.6079 -0.3642  1.4109
  722MOL0     H95283  -0.960   8.761   8.557  3.7606 -1.2896  1.2569
  722MOL0     H95284  -0.862   8.979   8.624 -3.8276 -2.7039  0.0810
  722MOL0     H95285  -0.796   8.998   8.450  0.3740 -0.5565 -0.2560
  722MOL0     H95286  -0.970   8.727   7.705  0.4071  0.2102 -0.5070
  722MOL0     H95287  -0.783   8.935   7.539 -1.2232 -2.2901 -0.0589
  722MOL0     H95288  -0.632   9.429   7.494  1.5342  6.3185  2.5472
  722MOL0     H95289  -0.479   9.535   7.324 -0.0517  2.2103  2.8990
  722MOL0     H95290   0.640  10.753   6.828 -0.0958  0.2916  1.3697
  722MOL0     H95291   0.459  10.869   6.715  1.5721 -3.9391  0.8467
  722MOL0     H95292   0.396  11.394   6.677 -0.5540 -1.0865  1.8105
  722MOL0     H95293   0.313  11.588   6.569  0.9344  0.2592 -1.8330
  722MOL0     H95294  -0.101  11.598   6.413 -1.1272 -1.3796 -1.5318
  722MOL0     H95295  -0.008  11.544   6.281 -0.0468  0.2900  0.1132
  722MOL0     H95296  -0.098  11.825   6.372 -0.5410  0.2529 -0.4265
  722MOL0     H95297   0.041  11.807   6.261  2.3796 -2.5670  2.2496
  722MOL0     H95298  -0.221  11.673   6.229  2.2721 -1.2986  0.8508
  722MOL0     H95299  -0.106  11.666   6.098  0.7845 -0.1760  0.7649
  722MOL0     H95300  -0.292  11.837   6.052 -0.4642  2.5484  0.5011
  722MOL0     H95301  -0.239  11.921   6.199 -0.9119  0.9015 -2.0419
  722MOL0     H95302   0.004  12.089   5.930  1.6676 -1.0034 -0.2613
  722MOL0     H95303  -0.004  11.369   6.391  0.0744 -1.0636 -0.4807
  722MOL0     H95304   0.087  11.164   6.469 -0.4313  0.9445 -1.9012
  723MOL0     O95305   0.785  10.582   5.563 -0.6499 -0.2016 -0.7641
  723MOL0     C95306   0.863  10.507   5.625  0.5313 -0.6442  0.7045
  723MOL0     O95307   0.834  10.416   5.711  0.1260  0.6193 -0.3594
  723MOL0     C95308   0.707  10.364   5.734  0.1321 -0.6018  0.5063
  723MOL0     C95309   0.613  10.341   5.631 -0.6705 -0.4702 -0.0604
  723MOL0     C95310   0.491  10.279   5.660 -0.2186  0.3076  0.6918
  723MOL0     C95311   0.469  10.246   5.789  1.3960 -0.7800 -0.2956
  723MOL0     O95312   0.345  10.201   5.841 -0.5793 -0.7498  0.5046
  723MOL0     C95313   0.235  10.193   5.750 -0.0817  0.2649 -0.1873
  723MOL0     C95314   0.106  10.135   5.822 -0.7827 -0.4370  0.3053
  723MOL0     C95315  -0.016  10.158   5.736  0.5672 -0.1630 -0.1694
  723MOL0     C95316  -0.145  10.110   5.811  1.3239  0.6248  0.8304
  723MOL0     C95317  -0.276  10.123   5.730  1.0244  0.0250  0.2266
  723MOL0     C95318  -0.385  10.138   5.833 -0.0152  0.1208  0.5306
  723MOL0     C95319  -0.517  10.129   5.758  0.2139  0.4772  1.0125
  723MOL0     C95320  -0.646  10.140   5.843  0.0889 -0.4920 -0.0120
  723MOL0     N95321  -0.771  10.098   5.767 -0.4982  0.0020  0.0995
  723MOL0     C95322  -0.831   9.976   5.775  0.1166 -0.0080 -0.1795
  723MOL0     C95323  -0.952   9.988   5.716  0.0946  1.1498 -0.2408
  723MOL0     C95324  -1.058   9.890   5.697  0.0436 -0.0070 -0.7371
  723MOL0     C95325  -1.163   9.912   5.799  0.1178  0.1038  0.5755
  723MOL0     C95326  -1.260   9.791   5.805 -0.0813 -0.4405 -0.1401
  723MOL0     C95327  -1.335   9.801   5.939 -0.5799  1.2754  0.7046
  723MOL0     O95328  -1.405   9.682   5.956 -0.1642 -0.0437  0.6128
  723MOL0     C95329  -1.407   9.632   6.084  0.4747  0.4760  0.1719
  723MOL0     C95330  -1.393   9.696   6.205  0.0890 -0.1526  0.2410
  723MOL0     C95331  -1.415   9.628   6.322  0.0664 -0.1566 -1.2993
  723MOL0     C95332  -1.450   9.491   6.329  0.5059  0.4538 -0.7915
  723MOL0     C95333  -1.457   9.422   6.459 -0.0788  0.4694 -0.4849
  723MOL0     O95334  -1.486   9.289   6.456  0.1936  0.4765  0.3057
  723MOL0     C95335  -1.530   9.233   6.577  0.1063 -0.5256 -0.1643
  723MOL0     C95336  -1.665   9.222   6.601  0.4026 -0.9608 -0.6494
  723MOL0     C95337  -1.712   9.155   6.725 -0.3390 -0.4394  0.1924
  723MOL0     C95338  -1.622   9.105   6.820 -0.1648 -0.0826  0.1223
  723MOL0     O95339  -1.681   9.058   6.930 -0.4078  0.3490 -0.8787
  723MOL0     C95340  -1.607   8.971   7.021 -0.2949  0.8622 -0.7734
  723MOL0     C95341  -1.714   8.876   7.093 -0.8802  0.8523  0.3328
  723MOL0     C95342  -1.631   8.766   7.163 -0.5667  0.6099  0.7828
  723MOL0     C95343  -1.720   8.668   7.235  0.0937  0.3300 -0.2285
  723MOL0     C95344  -1.662   8.531   7.275  1.2693  0.7350  0.3567
  723MOL0     C95345  -1.631   8.437   7.154 -0.3119 -0.6967 -0.1248
  723MOL0     C95346  -1.551   8.322   7.199 -0.6376  0.2647  0.2875
  723MOL0     C95347  -1.517   8.223   7.095 -0.4844 -1.5588 -0.7954
  723MOL0    Cl95348  -1.390   8.291   6.975  0.3788  0.4609  0.1466
  723MOL0     C95349  -1.487   9.115   6.788  0.1043  0.2733 -0.2345
  723MOL0     C95350  -1.442   9.172   6.666 -0.4732 -0.0598  0.3473
  723MOL0     O95351  -1.462   9.492   6.561  0.2887 -0.0278 -0.2320
  723MOL0     C95352  -1.467   9.426   6.200  0.4964  0.3407  0.4114
  723MOL0     C95353  -1.444   9.496   6.080 -0.0629 -0.2213 -0.0666
  723MOL0     N95354  -0.951  10.118   5.656  0.3700  0.9942 -0.4421
  723MOL0     N95355  -0.849  10.183   5.694 -0.5989  0.3515 -0.1081
  723MOL0     C95356   0.566  10.259   5.884  0.8145 -0.2957  0.2282
  723MOL0     C95357   0.686  10.313   5.857 -0.4626  0.0076  0.6065
  723MOL0     C95358   1.002  10.543   5.596 -0.1324 -0.4255 -0.2323
  723MOL0     C95359   1.096  10.445   5.604  1.1088  0.5768 -0.1776
  723MOL0     C95360   1.231  10.472   5.579  0.0403 -1.0552  0.4297
  723MOL0     C95361   1.280  10.604   5.541  1.0027  0.7029 -0.9652
  723MOL0     O95362   1.405  10.632   5.490 -0.1441  0.4236  0.1281
  723MOL0     C95363   1.519  10.548   5.527 -0.2054 -0.2288 -0.3816
  723MOL0     C95364   1.649  10.600   5.486 -0.5820 -0.1445  0.3679
  723MOL0     C95365   1.707  10.530   5.359 -0.3763 -0.4191 -0.0783
  723MOL0     C95366   1.843  10.576   5.320 -0.1929 -0.4094 -0.6038
  723MOL0     C95367   1.834  10.712   5.274 -0.8379 -0.8612 -0.1273
  723MOL0     C95368   1.830  10.823   5.225 -0.1830 -0.1372 -0.3865
  723MOL0     C95369   1.179  10.696   5.524  0.5847  0.0088 -0.2601
  723MOL0     C95370   1.041  10.669   5.552 -0.2124 -0.0538  0.3191
  723MOL0     H95371   0.650  10.376   5.536 -0.5677 -0.0012  0.1507
  723MOL0     H95372   0.407  10.270   5.592  0.1026  1.1682  0.1695
  723MOL0     H95373   0.272  10.120   5.676  0.1097  0.3869 -0.2124
  723MOL0     H95374   0.213  10.287   5.699 -0.8307 -0.2252 -0.8009
  723MOL0     H95375   0.088  10.191   5.914 -1.0420 -1.6212  0.9959
  723MOL0     H95376   0.129  10.030   5.841  0.0435 -0.5433 -1.0917
  723MOL0     H95377  -0.007  10.107   5.640  1.4923  0.9540 -0.7061
  723MOL0     H95378  -0.023  10.262   5.702 -2.0594 -0.0343  0.5644
  723MOL0     H95379  -0.132  10.004   5.832  1.9773  0.8833  1.7899
  723MOL0     H95380  -0.155  10.147   5.914  0.9137  1.6757  0.4238
  723MOL0     H95381  -0.297  10.027   5.683  0.1366  0.1300  0.3867
  723MOL0     H95382  -0.276  10.202   5.655  2.3431 -0.8491 -0.7571
  723MOL0     H95383  -0.372  10.233   5.885 -0.4968  1.0292 -0.9331
  723MOL0     H95384  -0.384  10.057   5.906  1.8882  0.9136  1.4460
  723MOL0     H95385  -0.525  10.218   5.694 -1.3758 -1.6427 -1.9718
  723MOL0     H95386  -0.516  10.032   5.709 -0.0888 -0.0963  2.1064
  723MOL0     H95387  -0.668  10.241   5.878 -1.3363 -0.8575  0.2153
  723MOL0     H95388  -0.642  10.071   5.927 -0.1678 -0.4898  0.0019
  723MOL0     H95389  -0.787   9.884   5.811  2.2745  1.1500  0.3073
  723MOL0     H95390  -1.008   9.793   5.708  2.0295  1.1602  1.5145
  723MOL0     H95391  -1.099   9.912   5.598  0.1141  4.1217 -0.0099
  723MOL0     H95392  -1.221  10.003   5.783  0.3002  0.4577  1.8235
  723MOL0     H95393  -1.114   9.911   5.896 -0.4357 -3.2132  0.9304
  723MOL0     H95394  -1.341   9.797   5.731 -0.3485 -1.9839 -0.0192
  723MOL0     H95395  -1.205   9.696   5.802 -1.2013 -1.0840 -2.3666
  723MOL0     H95396  -1.400   9.889   5.942 -0.9955  1.3952 -3.9775
  723MOL0     H95397  -1.253   9.811   6.010 -0.3453  0.4217  0.5556
  723MOL0     H95398  -1.375   9.803   6.214  0.9377 -0.3590  1.2369
  723MOL0     H95399  -1.389   9.688   6.409 -0.9298 -1.0863 -0.3355
  723MOL0     H95400  -1.738   9.257   6.529  0.0437  2.7385  1.2620
  723MOL0     H95401  -1.818   9.136   6.737 -1.0100  0.4694 -3.1864
  723MOL0     H95402  -1.542   9.026   7.090 -1.4920 -0.8443  1.8580
  723MOL0     H95403  -1.533   8.913   6.966  0.5671  0.5036  0.7223
  723MOL0     H95404  -1.786   8.833   7.023  1.6475  0.4520 -2.2038
  723MOL0     H95405  -1.750   8.942   7.173  2.1598  1.7261  1.0936
  723MOL0     H95406  -1.561   8.808   7.237  1.5341 -1.2580 -0.0327
  723MOL0     H95407  -1.571   8.717   7.086  0.0094 -0.6914  2.0110
  723MOL0     H95408  -1.763   8.714   7.325 -1.0669 -0.1962 -0.4936
  723MOL0     H95409  -1.809   8.647   7.175  0.4997  2.5886 -1.7311
  723MOL0     H95410  -1.740   8.481   7.334  0.0593 -0.2641 -1.9505
  723MOL0     H95411  -1.573   8.553   7.334  1.7018 -1.0156  0.4334
  723MOL0     H95412  -1.591   8.486   7.065 -0.5992 -4.2998 -2.4085
  723MOL0     H95413  -1.729   8.391   7.137 -1.4039  1.7374 -0.8998
  723MOL0     H95414  -1.456   8.357   7.241  0.3979 -1.3173 -0.6210
  723MOL0     H95415  -1.611   8.263   7.268 -0.9108  0.4187  0.1817
  723MOL0     H95416  -1.612   8.195   7.047  0.2781  0.1909 -3.6056
  723MOL0     H95417  -1.470   8.137   7.143  1.4499 -0.4739 -0.6621
  723MOL0     H95418  -1.413   9.083   6.860  0.9374 -4.3173 -2.7736
  723MOL0     H95419  -1.334   9.179   6.664 -0.4348 -0.8374 -1.0384
  723MOL0     H95420  -1.487   9.319   6.203 -0.1742  0.1476 -4.0437
  723MOL0     H95421  -1.458   9.458   5.979  0.8972 -1.7551  0.3447
  723MOL0     H95422   0.546  10.224   5.985  0.9326  0.7825  0.6396
  723MOL0     H95423   0.772  10.312   5.923  0.2446 -1.8766 -0.2635
  723MOL0     H95424   1.058  10.347   5.631 -0.6602  0.9652 -1.1508
  723MOL0     H95425   1.291  10.382   5.568 -0.2416 -1.2450  0.4307
  723MOL0     H95426   1.501  10.446   5.492  0.2369 -0.4233 -0.0476
  723MOL0     H95427   1.516  10.543   5.636  0.3079 -2.6239 -0.4195
  723MOL0     H95428   1.639  10.709   5.480  0.3875  0.0958  2.4311
  723MOL0     H95429   1.724  10.587   5.564  4.1711  2.2730 -3.2704
  723MOL0     H95430   1.632  10.535   5.279  0.1111 -1.4792 -0.6233
  723MOL0     H95431   1.725  10.424   5.379  2.2146  0.0343  0.3718
  723MOL0     H95432   1.894  10.578   5.417 -1.8653  2.5391  0.3375
  723MOL0     H95433   1.888  10.510   5.245  1.1958 -1.7748  1.3208
  723MOL0     H95434   1.828  10.925   5.193  0.4298  1.0511  2.9202
  723MOL0     H95435   1.205  10.790   5.477  2.2227 -0.0029  0.5451
  723MOL0     H95436   0.971  10.749   5.531 -0.3463  0.0376  1.1203
  724MOL0     O95437   8.575   0.069   3.652 -0.2623  0.4871  0.0144
  724MOL0     C95438   8.560   0.146   3.745 -1.2096 -0.3379 -0.3298
  724MOL0     O95439   8.657   0.235   3.788 -0.3914  1.0238 -0.7312
  724MOL0     C95440   8.772   0.237   3.719 -1.0920  0.6975 -0.0219
  724MOL0     C95441   8.787   0.286   3.582  0.2988  0.3827 -0.2942
  724MOL0     C95442   8.910   0.297   3.524 -0.4154 -0.0306 -0.2960
  724MOL0     C95443   9.028   0.250   3.584  0.0396 -0.0494 -0.2774
  724MOL0     O95444   9.153   0.242   3.525 -0.0251  0.8232 -0.8164
  724MOL0     C95445   9.167   0.184   3.390 -0.2766 -0.1541 -0.7592
  724MOL0     C95446   9.296   0.121   3.361 -1.2988  0.1994  0.2143
  724MOL0     C95447   9.420   0.219   3.374 -0.1122 -0.1029 -0.1749
  724MOL0     C95448   9.556   0.145   3.376 -0.5498  1.1457  0.0940
  724MOL0     C95449   9.675   0.240   3.380 -0.0673  0.6314 -0.9137
  724MOL0     C95450   9.793   0.172   3.308 -0.9465 -0.6339  0.4893
  724MOL0     C95451   9.893   0.282   3.275 -0.2076 -0.1148  0.3609
  724MOL0     C95452  10.037   0.246   3.255  0.0306  1.0969 -0.2532
  724MOL0     N95453  10.116   0.368   3.236 -0.6486  0.4144  0.0027
  724MOL0     C95454  10.140   0.452   3.334 -0.6924  0.0538  0.5334
  724MOL0     C95455  10.233   0.533   3.298  0.0657  0.0653  0.7853
  724MOL0     C95456  10.289   0.640   3.385  0.7613 -0.1529  0.3908
  724MOL0     C95457  10.345   0.577   3.514  0.0306  0.4584  0.1161
  724MOL0     C95458  10.456   0.479   3.487  0.2082 -1.0751  0.0757
  724MOL0     C95459  10.591   0.550   3.492  0.4356 -0.5207  0.0132
  724MOL0     O95460  10.604   0.629   3.369  0.1710  0.0726  0.1345
  724MOL0     C95461  10.733   0.647   3.325 -0.1434  0.2015 -0.1375
  724MOL0     C95462  10.842   0.659   3.411 -0.1200  0.0294  0.0108
  724MOL0     C95463  10.975   0.683   3.365  1.1647  0.3906  0.0752
  724MOL0     C95464  10.993   0.674   3.227  1.3033 -1.0263  0.7747
  724MOL0     C95465  11.135   0.680   3.187 -0.1010  0.2448  0.5655
  724MOL0     O95466  11.229   0.610   3.261  0.4891 -0.6021 -0.0338
  724MOL0     C95467  11.358   0.625   3.229  0.2185 -0.1662 -0.3848
  724MOL0     C95468  11.442   0.515   3.244 -0.4984  1.2269 -1.2158
  724MOL0     C95469  11.583   0.528   3.223  0.9309  0.5922 -0.7724
  724MOL0     C95470  11.638   0.651   3.182 -0.4072 -0.7070 -0.2074
  724MOL0     O95471  11.773   0.683   3.161  0.0710 -0.6134 -0.5705
  724MOL0     C95472  11.857   0.565   3.136 -0.5810  0.3080  0.5140
  724MOL0     C95473  11.997   0.604   3.071  0.6117 -0.3625 -0.2246
  724MOL0     C95474  12.096   0.482   3.050  0.7352  0.0385 -0.3218
  724MOL0     C95475  12.236   0.530   3.011  0.8053  0.3492  0.0174
  724MOL0     C95476  12.301   0.626   3.106  0.0816  0.1492 -0.2485
  724MOL0     C95477  12.345   0.568   3.239 -0.2847 -0.6463 -0.3263
  724MOL0     C95478  12.452   0.461   3.241 -0.3116  0.6272  0.3995
  724MOL0     C95479  12.582   0.515   3.295  0.1918  0.0361  0.9697
  724MOL0    Cl95480  12.699   0.388   3.253 -0.0912 -0.0088 -0.4575
  724MOL0     C95481  11.555   0.757   3.163 -0.0550 -0.2158  0.0613
  724MOL0     C95482  11.420   0.749   3.185 -0.0791 -0.5599  0.1337
  724MOL0     O95483  11.158   0.718   3.074  0.4955 -0.2634  0.4993
  724MOL0     C95484  10.886   0.666   3.134  0.8979  0.2814  0.6018
  724MOL0     C95485  10.753   0.656   3.185 -0.3004  0.0128 -0.1798
  724MOL0     N95486  10.261   0.506   3.160 -0.1763 -0.0265 -0.0356
  724MOL0     N95487  10.192   0.397   3.129 -0.0572  0.1319 -0.4429
  724MOL0     C95488   9.004   0.205   3.718  0.4682 -0.3818 -0.0769
  724MOL0     C95489   8.881   0.193   3.790 -0.2596 -0.8211 -0.0449
  724MOL0     C95490   8.430   0.140   3.817  1.1662  1.4122 -0.1818
  724MOL0     C95491   8.350   0.027   3.792 -1.2651 -0.0574 -1.0347
  724MOL0     C95492   8.234  -0.009   3.869  0.0777  0.5385  0.9617
  724MOL0     C95493   8.203   0.065   3.983 -0.3980  0.0546  0.2632
  724MOL0     O95494   8.091   0.033   4.059 -0.2395  0.6386 -1.2693
  724MOL0     C95495   8.047   0.123   4.157  0.0835 -0.5648 -0.9492
  724MOL0     C95496   7.900   0.083   4.199  0.0340  0.2999  0.1272
  724MOL0     C95497   7.818   0.043   4.079 -0.1596  0.5885  0.6092
  724MOL0     C95498   7.669   0.055   4.098  1.3530 -0.0983  0.4620
  724MOL0     C95499   7.609   0.189   4.120  0.2188 -0.7286  0.7161
  724MOL0     C95500   7.545   0.290   4.130 -0.0158  0.6455 -0.4543
  724MOL0     C95501   8.281   0.189   4.006 -0.0943  0.2489 -0.2811
  724MOL0     C95502   8.386   0.226   3.915  0.3677  0.5244 -0.9347
  724MOL0     H95503   8.702   0.320   3.524 -0.5860  1.8084  1.7260
  724MOL0     H95504   8.928   0.347   3.429 -2.7638  3.2316  0.8251
  724MOL0     H95505   9.157   0.267   3.320 -2.6928 -1.0740 -1.6390
  724MOL0     H95506   9.087   0.112   3.367 -1.3056  1.1803 -1.5064
  724MOL0     H95507   9.292   0.078   3.260 -2.2496  0.5878  0.0764
  724MOL0     H95508   9.309   0.032   3.424 -3.4818 -0.6113 -0.3811
  724MOL0     H95509   9.404   0.274   3.467  0.1573  0.6095 -0.5375
  724MOL0     H95510   9.414   0.300   3.301 -4.4522 -1.4516 -1.6331
  724MOL0     H95511   9.560   0.085   3.468  0.3868  1.5568  0.3363
  724MOL0     H95512   9.561   0.083   3.286 -0.7692 -2.0927  2.1636
  724MOL0     H95513   9.700   0.274   3.480  2.6549  0.5315 -1.4867
  724MOL0     H95514   9.649   0.325   3.316  0.0745  0.8813 -0.6382
  724MOL0     H95515   9.752   0.126   3.218 -0.6109 -3.2735  1.5630
  724MOL0     H95516   9.850   0.105   3.373  0.3484 -0.0330 -0.0076
  724MOL0     H95517   9.846   0.323   3.186 -2.4906 -1.1557  1.0040
  724MOL0     H95518   9.901   0.357   3.354  2.7359 -0.5358  0.5810
  724MOL0     H95519  10.044   0.170   3.176 -1.3069  2.0578 -1.3503
  724MOL0     H95520  10.077   0.186   3.337 -3.8820 -1.3974  0.0809
  724MOL0     H95521  10.086   0.453   3.429 -2.4120 -0.6522 -0.3865
  724MOL0     H95522  10.208   0.712   3.397  0.4866 -0.6503  1.7126
  724MOL0     H95523  10.372   0.692   3.338  1.8828 -0.6608  1.7144
  724MOL0     H95524  10.270   0.523   3.572  1.9014 -1.6626  0.7303
  724MOL0     H95525  10.375   0.661   3.578 -2.7137 -1.5419  4.5460
  724MOL0     H95526  10.454   0.409   3.571  3.1577 -0.1259  1.0478
  724MOL0     H95527  10.436   0.423   3.395  0.1307  0.2968 -0.7770
  724MOL0     H95528  10.675   0.481   3.504 -0.6261 -1.8358  0.1669
  724MOL0     H95529  10.597   0.618   3.577  2.9031 -0.5219 -0.0936
  724MOL0     H95530  10.828   0.651   3.518  1.3094 -1.0921  0.1361
  724MOL0     H95531  11.061   0.684   3.432 -0.4099 -2.2065  2.3422
  724MOL0     H95532  11.386   0.422   3.255 -1.8643  1.8221 -2.8051
  724MOL0     H95533  11.650   0.444   3.230 -1.0979 -0.9368  2.6831
  724MOL0     H95534  11.801   0.491   3.079  1.0713 -2.1663  1.9328
  724MOL0     H95535  11.887   0.511   3.226  0.5858 -0.4555 -0.3103
  724MOL0     H95536  12.038   0.678   3.141  1.6761  1.5807 -2.7405
  724MOL0     H95537  11.993   0.655   2.974  0.0432  2.0042  0.9611
  724MOL0     H95538  12.054   0.425   2.968  0.9061 -2.0766  1.0008
  724MOL0     H95539  12.093   0.417   3.137 -1.0387  0.0863 -0.3047
  724MOL0     H95540  12.289   0.440   2.979 -1.5379 -1.0774 -0.0495
  724MOL0     H95541  12.226   0.584   2.917  1.0272 -0.2953 -0.3817
  724MOL0     H95542  12.237   0.711   3.130 -0.2677  0.0917 -0.9449
  724MOL0     H95543  12.383   0.674   3.053 -0.6137  0.3920 -1.1288
  724MOL0     H95544  12.255   0.520   3.278  0.0325 -0.5373  0.5482
  724MOL0     H95545  12.361   0.642   3.317  1.3649 -1.3188  0.0042
  724MOL0     H95546  12.411   0.378   3.300  0.1851 -1.0688 -1.5271
  724MOL0     H95547  12.468   0.421   3.141  0.0072  0.1990  0.6160
  724MOL0     H95548  12.597   0.538   3.401  3.3482  3.2249  0.0403
  724MOL0     H95549  12.606   0.602   3.234 -0.5977  0.0857  0.7243
  724MOL0     H95550  11.609   0.849   3.146  3.3515 -2.0795 -0.0411
  724MOL0     H95551  11.352   0.832   3.168 -2.1077 -1.9917  0.8430
  724MOL0     H95552  10.898   0.660   3.027  0.8129  2.2304  0.4413
  724MOL0     H95553  10.682   0.626   3.108  1.5716  1.5187 -2.6196
  724MOL0     H95554   9.096   0.180   3.771  1.2220  0.0661 -1.1387
  724MOL0     H95555   8.867   0.161   3.892  1.6193  1.2370  0.9262
  724MOL0     H95556   8.385  -0.048   3.722  1.1961 -1.1659  1.2397
  724MOL0     H95557   8.173  -0.096   3.845  1.1161  0.4033 -1.4394
  724MOL0     H95558   8.054   0.229   4.128 -0.8415  0.8636  3.2930
  724MOL0     H95559   8.115   0.119   4.242  0.5226  0.8587 -1.2013
  724MOL0     H95560   7.900   0.005   4.276  0.2179  1.0281  0.8830
  724MOL0     H95561   7.854   0.169   4.249  0.9864  0.5017  0.6734
  724MOL0     H95562   7.835  -0.063   4.054 -1.5419  0.0895  1.6925
  724MOL0     H95563   7.848   0.105   3.993 -2.3399  0.2361 -0.4830
  724MOL0     H95564   7.628   0.014   4.005  1.0293  0.8677  0.1655
  724MOL0     H95565   7.624  -0.006   4.177 -2.6913  0.0168 -1.4696
  724MOL0     H95566   7.507   0.391   4.135  1.9188  1.3734  0.9397
  724MOL0     H95567   8.250   0.248   4.091  1.1688 -0.8187  0.9684
  724MOL0     H95568   8.448   0.312   3.939  1.5878 -0.6890  0.4186
  725MOL0     O95569   2.480   0.937   9.102  0.3236 -0.0343  0.3658
  725MOL0     C95570   2.506   0.931   8.983  0.2550  0.0133  0.0913
  725MOL0     O95571   2.419   0.931   8.884  0.3339  0.1487  0.0998
  725MOL0     C95572   2.282   0.951   8.893  0.3824  0.6529  0.1893
  725MOL0     C95573   2.203   0.981   9.007  0.4721 -0.2732 -0.2949
  725MOL0     C95574   2.073   1.017   8.984  0.0229  0.7488  0.1852
  725MOL0     C95575   2.010   1.006   8.858 -0.2317 -0.0553 -0.0940
  725MOL0     O95576   1.880   1.041   8.833 -0.4576 -0.0417 -0.2335
  725MOL0     C95577   1.788   1.098   8.930  0.4090 -0.5964 -0.0263
  725MOL0     C95578   1.647   1.130   8.882  1.7869 -0.0957 -0.4220
  725MOL0     C95579   1.539   1.044   8.950  0.2901 -0.5992 -0.6692
  725MOL0     C95580   1.412   1.016   8.881 -0.2275 -0.9991 -0.2699
  725MOL0     C95581   1.433   0.977   8.726  1.1848  0.5091 -0.4469
  725MOL0     C95582   1.306   0.938   8.642  0.0099 -0.3437  0.1116
  725MOL0     C95583   1.226   1.064   8.613  0.0962  0.6535  0.3860
  725MOL0     C95584   1.090   1.040   8.550 -0.2711  0.8652 -0.6630
  725MOL0     N95585   1.033   1.176   8.521 -0.2884 -0.1292 -0.8451
  725MOL0     C95586   1.007   1.261   8.626  1.2199  0.3060  0.9705
  725MOL0     C95587   0.950   1.367   8.567 -1.0736 -0.3716 -0.0941
  725MOL0     C95588   0.914   1.487   8.655  0.1841  0.1648 -0.0106
  725MOL0     C95589   0.779   1.456   8.722  1.1678  0.2284  0.1532
  725MOL0     C95590   0.663   1.486   8.629  0.2521 -0.3923 -0.1901
  725MOL0     C95591   0.526   1.492   8.697 -0.3270 -0.6777 -0.2928
  725MOL0     O95592   0.519   1.613   8.766  0.3700  0.7289  0.2211
  725MOL0     C95593   0.388   1.656   8.766  0.1884 -0.5117 -0.2631
  725MOL0     C95594   0.275   1.577   8.795 -0.1756 -0.1740 -0.9803
  725MOL0     C95595   0.154   1.636   8.767 -0.4783 -0.5937  0.5588
  725MOL0     C95596   0.133   1.768   8.724  0.2659 -1.2524 -0.2455
  725MOL0     C95597  -0.005   1.827   8.702 -0.6886  0.6576 -0.8889
  725MOL0     O95598  -0.101   1.737   8.702  0.4058 -0.1856 -0.7211
  725MOL0     C95599  -0.225   1.775   8.649 -0.1163 -0.0499  0.4910
  725MOL0     C95600  -0.250   1.858   8.541 -0.3858 -0.0896 -0.0013
  725MOL0     C95601  -0.384   1.889   8.505  0.2978 -0.5274 -0.0827
  725MOL0     C95602  -0.492   1.837   8.570 -0.3926 -0.8782 -0.1981
  725MOL0     O95603  -0.617   1.872   8.531 -0.4159 -0.2804  0.4192
  725MOL0     C95604  -0.722   1.792   8.574 -0.8606  0.1995  0.1907
  725MOL0     C95605  -0.845   1.840   8.483 -0.3554  0.2020  0.7065
  725MOL0     C95606  -0.806   1.847   8.332 -0.2411 -0.1797 -0.6179
  725MOL0     C95607  -0.754   1.704   8.284  0.4950 -0.5872  0.1623
  725MOL0     C95608  -0.751   1.674   8.133 -0.2903  0.3843  0.2333
  725MOL0     C95609  -0.622   1.722   8.066 -0.4094 -0.2245 -0.2066
  725MOL0     C95610  -0.638   1.858   8.003  0.6342 -0.0583 -0.1211
  725MOL0     C95611  -0.512   1.939   7.978  0.0297 -0.6969 -0.5420
  725MOL0    Cl95612  -0.412   1.962   8.133 -0.0743  0.0697 -0.6490
  725MOL0     C95613  -0.469   1.759   8.687 -0.0026 -0.2890 -0.3885
  725MOL0     C95614  -0.332   1.716   8.715  0.2686 -0.2351  0.1191
  725MOL0     O95615  -0.013   1.945   8.679 -0.5301 -0.0768 -0.2597
  725MOL0     C95616   0.244   1.851   8.720 -0.4319  0.5151 -0.1734
  725MOL0     C95617   0.371   1.793   8.738 -0.2244  0.1717  0.5568
  725MOL0     N95618   0.929   1.341   8.427  0.3513  0.2225 -0.0735
  725MOL0     N95619   0.967   1.219   8.411  0.2935 -0.0160  0.9904
  725MOL0     C95620   2.080   0.966   8.750  0.4124  0.3997 -0.7171
  725MOL0     C95621   2.221   0.943   8.766 -0.2812  0.4505  0.7229
  725MOL0     C95622   2.650   0.928   8.947  0.5190 -0.2209  0.8273
  725MOL0     C95623   2.741   0.907   9.050 -0.5876  0.7496  0.3180
  725MOL0     C95624   2.874   0.892   9.024 -0.0191 -0.1394  0.8626
  725MOL0     C95625   2.921   0.913   8.893 -0.1780 -0.6323 -0.2343
  725MOL0     O95626   3.057   0.917   8.869 -0.1661  0.7466 -0.2483
  725MOL0     C95627   3.095   1.000   8.766  0.2490  0.5182 -0.0767
  725MOL0     C95628   3.238   1.029   8.773 -0.8035  0.0950  0.0472
  725MOL0     C95629   3.265   1.156   8.852 -0.1037  0.9131  0.7764
  725MOL0     C95630   3.232   1.151   9.002 -0.4056 -0.7222 -0.2492
  725MOL0     C95631   3.266   1.276   9.076 -0.4427 -0.1739  0.2116
  725MOL0     C95632   3.302   1.377   9.143 -0.0476  0.3940  0.3100
  725MOL0     C95633   2.821   0.937   8.791 -0.4664 -0.4347  0.1006
  725MOL0     C95634   2.687   0.946   8.820  0.1646  0.6542 -0.3409
  725MOL0     H95635   2.242   1.001   9.106  1.1296 -1.5042 -0.2822
  725MOL0     H95636   2.016   1.056   9.068  0.2566 -1.3532  1.3845
  725MOL0     H95637   1.823   1.199   8.954 -1.6687  1.3182 -4.0786
  725MOL0     H95638   1.785   1.037   9.020  2.8352  1.8703  1.9303
  725MOL0     H95639   1.640   1.121   8.774 -0.2603 -1.8278 -0.2342
  725MOL0     H95640   1.629   1.233   8.915  1.7012 -0.1190 -0.3949
  725MOL0     H95641   1.518   1.090   9.047 -0.0845 -1.2980 -0.4202
  725MOL0     H95642   1.572   0.942   8.969 -2.6750 -1.7964 -1.4781
  725MOL0     H95643   1.348   0.948   8.939  0.6652  0.6513  2.8503
  725MOL0     H95644   1.352   1.107   8.889 -0.7949 -1.2109 -1.7857
  725MOL0     H95645   1.496   0.887   8.726  1.7572  0.9027 -0.9456
  725MOL0     H95646   1.480   1.057   8.668  0.5395  0.2338 -1.3758
  725MOL0     H95647   1.250   0.868   8.706 -1.9561  0.8725 -0.1876
  725MOL0     H95648   1.324   0.887   8.547 -0.7619  1.5695 -1.1260
  725MOL0     H95649   1.211   1.116   8.707 -0.6415  0.7904  0.2025
  725MOL0     H95650   1.284   1.130   8.547 -0.2156 -0.1615 -0.7437
  725MOL0     H95651   1.028   0.992   8.627 -0.2039  1.0068 -0.5194
  725MOL0     H95652   1.087   0.982   8.458 -0.1059 -0.5977  0.2120
  725MOL0     H95653   1.020   1.242   8.732  1.2690 -0.1418  0.8837
  725MOL0     H95654   0.896   1.581   8.601 -5.2329 -0.9051 -0.6181
  725MOL0     H95655   0.988   1.502   8.734  0.4980  1.6905 -0.5509
  725MOL0     H95656   0.784   1.533   8.800  0.6707 -0.9248  1.3726
  725MOL0     H95657   0.768   1.362   8.777  2.2240  1.1109  1.9795
  725MOL0     H95658   0.682   1.582   8.581  1.6400 -0.4187  0.2595
  725MOL0     H95659   0.654   1.407   8.555 -1.8779  0.4305 -0.9046
  725MOL0     H95660   0.510   1.406   8.763  2.3453  0.6860  2.4164
  725MOL0     H95661   0.451   1.469   8.621 -1.8391 -0.7442  1.1652
  725MOL0     H95662   0.281   1.471   8.819 -1.7390 -0.0744  0.0161
  725MOL0     H95663   0.066   1.574   8.780 -0.9373  0.3820  2.4988
  725MOL0     H95664  -0.168   1.898   8.482 -1.0920  0.5755 -0.5577
  725MOL0     H95665  -0.396   1.948   8.415 -2.6766  1.0187  1.2104
  725MOL0     H95666  -0.756   1.808   8.677 -0.7791  2.1859 -0.0580
  725MOL0     H95667  -0.701   1.685   8.561  2.9590  1.1897 -4.9484
  725MOL0     H95668  -0.877   1.939   8.514 -0.8971 -0.6192  2.9345
  725MOL0     H95669  -0.926   1.766   8.487  0.3412 -0.7578 -1.2378
  725MOL0     H95670  -0.722   1.915   8.316 -0.2530 -0.0366 -0.0736
  725MOL0     H95671  -0.895   1.877   8.277 -0.5135 -0.2054 -0.1956
  725MOL0     H95672  -0.653   1.678   8.318  0.0622 -3.3229 -0.4493
  725MOL0     H95673  -0.813   1.633   8.342  1.6314 -0.9886  0.8762
  725MOL0     H95674  -0.832   1.725   8.079  1.2795 -0.5041 -3.2743
  725MOL0     H95675  -0.770   1.568   8.119  0.3072  0.1670  1.0129
  725MOL0     H95676  -0.577   1.648   8.000 -2.6384 -0.0773 -1.9909
  725MOL0     H95677  -0.544   1.743   8.141 -1.8233  5.6951  0.1138
  725MOL0     H95678  -0.709   1.861   7.919 -1.5242  0.8217  1.6498
  725MOL0     H95679  -0.694   1.918   8.074 -1.6743  1.1113 -2.7127
  725MOL0     H95680  -0.529   2.039   7.935  0.0646 -0.0931  0.7964
  725MOL0     H95681  -0.458   1.881   7.903 -0.6284 -1.7493 -0.2186
  725MOL0     H95682  -0.537   1.709   8.755 -2.0576  2.8418  0.0737
  725MOL0     H95683  -0.318   1.640   8.791 -3.0714 -3.2912 -1.9832
  725MOL0     H95684   0.245   1.959   8.708  0.2525  0.8355  2.2368
  725MOL0     H95685   0.459   1.849   8.712 -2.2928  2.6965 -1.6052
  725MOL0     H95686   2.031   0.961   8.653 -2.0627  3.0594  0.2543
  725MOL0     H95687   2.275   0.930   8.673  1.4014  1.2818  1.5420
  725MOL0     H95688   2.705   0.883   9.150  0.4659 -0.5005  0.4371
  725MOL0     H95689   2.945   0.882   9.105  0.9731 -3.3132 -0.2592
  725MOL0     H95690   3.038   1.093   8.760 -0.2433  0.3056  1.0340
  725MOL0     H95691   3.071   0.942   8.677 -2.5074 -2.1801  2.1983
  725MOL0     H95692   3.281   0.941   8.821 -0.3427 -0.8898 -2.0368
  725MOL0     H95693   3.288   1.038   8.676  0.7984 -0.2217  0.8103
  725MOL0     H95694   3.212   1.244   8.813 -0.7612 -0.6483 -2.1718
  725MOL0     H95695   3.372   1.179   8.844 -0.2677  1.9902  1.4586
  725MOL0     H95696   3.123   1.157   9.012 -0.4237  2.9269 -1.0117
  725MOL0     H95697   3.269   1.060   9.049  0.8734  0.4385  1.0997
  725MOL0     H95698   3.349   1.461   9.189  2.1305 -2.2241  3.3650
  725MOL0     H95699   2.853   0.957   8.689  0.4655 -2.7813 -0.1348
  725MOL0     H95700   2.612   0.964   8.744  0.3580 -0.0514 -0.7084
  726MOL0     O95701   0.114   6.631   8.053 -0.4087 -0.1603  0.4933
  726MOL0     C95702   0.113   6.706   8.149  0.6455  0.6329 -0.6224
  726MOL0     O95703   0.002   6.742   8.219  0.7602 -0.4380 -0.0804
  726MOL0     C95704  -0.118   6.704   8.167  1.0842 -0.4169 -0.1434
  726MOL0     C95705  -0.211   6.660   8.267 -0.7537 -0.2572 -1.1872
  726MOL0     C95706  -0.339   6.618   8.240  0.3060 -0.2326 -0.4357
  726MOL0     C95707  -0.387   6.631   8.108  0.3902 -0.5337  0.3139
  726MOL0     O95708  -0.522   6.608   8.079 -1.2167 -0.3078 -0.0697
  726MOL0     C95709  -0.580   6.480   8.114  0.2458 -0.5262  0.8401
  726MOL0     C95710  -0.731   6.505   8.127  0.2786  0.1665 -0.5097
  726MOL0     C95711  -0.799   6.369   8.123 -0.5273 -0.4969  0.3209
  726MOL0     C95712  -0.951   6.373   8.108 -0.1957  0.3972 -1.4722
  726MOL0     C95713  -1.018   6.242   8.091  0.0523 -0.4578 -0.1676
  726MOL0     C95714  -1.170   6.247   8.075 -0.2483 -0.5651 -0.1474
  726MOL0     C95715  -1.248   6.377   8.109 -0.1332 -0.0482  0.6314
  726MOL0     C95716  -1.390   6.373   8.054  0.7119  0.6981  1.2670
  726MOL0     N95717  -1.487   6.286   8.108 -0.3854  0.1659  0.2002
  726MOL0     C95718  -1.529   6.156   8.071 -0.0187 -0.4184 -0.6276
  726MOL0     C95719  -1.628   6.122   8.158 -0.4986  0.5230  0.3503
  726MOL0     C95720  -1.717   5.998   8.147  0.2231  0.0827 -0.8496
  726MOL0     C95721  -1.836   6.003   8.248 -0.6622 -0.3752  1.0310
  726MOL0     C95722  -1.879   5.850   8.278 -0.1809  0.2308 -1.3291
  726MOL0     C95723  -2.007   5.857   8.357 -0.2219 -0.3803  0.3090
  726MOL0     O95724  -2.037   5.722   8.382 -0.4220  0.6875  0.5674
  726MOL0     C95725  -2.171   5.683   8.398  0.4383  0.7636  0.4149
  726MOL0     C95726  -2.195   5.544   8.409  0.1597 -0.8114 -0.0958
  726MOL0     C95727  -2.322   5.491   8.431  0.3170  0.5292 -0.5394
  726MOL0     C95728  -2.436   5.570   8.434  0.8958 -0.3821 -0.4363
  726MOL0     C95729  -2.576   5.516   8.459 -0.5436  0.9952 -0.4986
  726MOL0     O95730  -2.585   5.378   8.460 -0.4728 -0.3139  0.0470
  726MOL0     C95731  -2.710   5.321   8.481 -0.7177 -0.7009  0.1308
  726MOL0     C95732  -2.830   5.359   8.426 -0.4728 -1.2038 -0.7012
  726MOL0     C95733  -2.947   5.298   8.454  1.0656  0.2899  0.3837
  726MOL0     C95734  -2.947   5.200   8.553  0.8789 -0.3980 -0.3021
  726MOL0     O95735  -3.071   5.153   8.579  0.4816 -0.2268  0.0330
  726MOL0     C95736  -3.091   5.049   8.672 -0.0715  0.3664 -0.5315
  726MOL0     C95737  -3.243   5.039   8.714  0.0964  0.1251 -0.3087
  726MOL0     C95738  -3.340   5.014   8.592  0.4611 -0.2744 -1.0522
  726MOL0     C95739  -3.483   5.034   8.646 -0.1253 -0.2454 -0.6728
  726MOL0     C95740  -3.601   5.019   8.538  0.5864 -0.3193  0.4517
  726MOL0     C95741  -3.587   5.111   8.415 -0.4316  1.1496 -0.0675
  726MOL0     C95742  -3.704   5.124   8.321 -0.7043 -0.2430 -0.1561
  726MOL0     C95743  -3.815   5.014   8.307  0.0484 -0.0125 -0.2389
  726MOL0    Cl95744  -3.762   4.864   8.212 -0.4121 -0.4583  0.2850
  726MOL0     C95745  -2.829   5.156   8.609 -0.1667 -0.8522 -0.9545
  726MOL0     C95746  -2.708   5.207   8.557 -0.0722  0.7782 -0.5825
  726MOL0     O95747  -2.670   5.598   8.481 -0.3197 -0.7062  0.1975
  726MOL0     C95748  -2.415   5.704   8.419  1.0012 -0.3550 -0.0986
  726MOL0     C95749  -2.286   5.764   8.405 -0.0767  0.4058 -0.1333
  726MOL0     N95750  -1.653   6.227   8.245  0.7593  0.5540  0.9082
  726MOL0     N95751  -1.573   6.321   8.206 -1.7410  0.0829 -0.2145
  726MOL0     C95752  -0.296   6.676   8.010  0.1507  0.0232  0.4764
  726MOL0     C95753  -0.163   6.715   8.033  0.4228  0.3862 -0.7124
  726MOL0     C95754   0.224   6.798   8.172 -0.5060  0.8229 -0.2016
  726MOL0     C95755   0.218   6.901   8.262  0.1735  0.3815  0.6656
  726MOL0     C95756   0.328   6.986   8.284 -0.4775  0.4142 -1.0340
  726MOL0     C95757   0.451   6.972   8.212  0.3285 -0.2654  1.0909
  726MOL0     O95758   0.543   7.068   8.249  0.1513  0.2481  0.1685
  726MOL0     C95759   0.667   7.050   8.180  0.0618  0.3766  0.3218
  726MOL0     C95760   0.759   7.168   8.206 -0.5647  0.1831 -0.3462
  726MOL0     C95761   0.717   7.283   8.118 -0.4611  0.0573 -1.1862
  726MOL0     C95762   0.780   7.412   8.180 -0.2463  0.7012  0.3852
  726MOL0     C95763   0.916   7.433   8.120 -0.2481  0.1439 -0.2759
  726MOL0     C95764   1.022   7.455   8.067  0.1985 -0.7981 -0.8553
  726MOL0     C95765   0.453   6.865   8.117 -1.0817 -0.6695  0.0712
  726MOL0     C95766   0.348   6.783   8.104  0.4492  0.8824  0.1577
  726MOL0     H95767  -0.184   6.653   8.372 -1.1352 -0.3669 -1.0958
  726MOL0     H95768  -0.403   6.601   8.326  0.5677  0.6527 -0.0517
  726MOL0     H95769  -0.545   6.430   8.204 -0.4583 -2.3116  0.1576
  726MOL0     H95770  -0.561   6.423   8.022  0.1023 -0.3379  0.6918
  726MOL0     H95771  -0.777   6.563   8.046 -1.1127 -1.2774 -0.8205
  726MOL0     H95772  -0.753   6.540   8.228  1.6867 -1.4520  0.4152
  726MOL0     H95773  -0.756   6.322   8.212 -1.5085 -1.4179  0.3320
  726MOL0     H95774  -0.765   6.309   8.038  0.7800 -0.2037  0.6138
  726MOL0     H95775  -0.989   6.423   8.198  0.4218 -1.4829 -0.1080
  726MOL0     H95776  -0.976   6.440   8.025 -0.7883  3.0761  0.7124
  726MOL0     H95777  -0.993   6.186   8.182  1.0000  0.4291  0.1380
  726MOL0     H95778  -0.965   6.183   8.016  0.0944  1.0916 -1.3988
  726MOL0     H95779  -1.204   6.165   8.139 -1.1125 -1.1292 -1.2848
  726MOL0     H95780  -1.199   6.216   7.974 -2.1101  1.4173 -0.2930
  726MOL0     H95781  -1.250   6.398   8.216  0.3154  1.5566  0.3479
  726MOL0     H95782  -1.201   6.469   8.074 -1.0888  0.7653  1.4401
  726MOL0     H95783  -1.394   6.345   7.949 -0.3779  2.4134  0.8142
  726MOL0     H95784  -1.425   6.476   8.053 -1.1476  0.1038  1.5441
  726MOL0     H95785  -1.501   6.100   7.982 -1.2436  0.2016 -1.4322
  726MOL0     H95786  -1.661   5.907   8.172  0.7642  0.6437  0.0471
  726MOL0     H95787  -1.747   5.992   8.042  1.1135  1.2974 -1.1961
  726MOL0     H95788  -1.921   6.051   8.198  2.5070  0.9878 -3.6646
  726MOL0     H95789  -1.796   6.052   8.337  4.4590 -0.6468 -0.7967
  726MOL0     H95790  -1.897   5.788   8.190  0.4732 -3.7752  1.1270
  726MOL0     H95791  -1.797   5.813   8.340 -0.4491  0.1188 -1.0358
  726MOL0     H95792  -2.079   5.906   8.291 -2.0265 -1.6421  1.2384
  726MOL0     H95793  -2.005   5.907   8.454 -1.9678 -0.9396  0.6657
  726MOL0     H95794  -2.106   5.481   8.405  1.5603  1.1146 -0.8840
  726MOL0     H95795  -2.336   5.384   8.441 -2.6889  1.0504  3.6648
  726MOL0     H95796  -2.834   5.434   8.348  3.5407  0.9214  0.7990
  726MOL0     H95797  -3.040   5.322   8.403 -0.0000  1.5939  2.7633
  726MOL0     H95798  -3.028   5.055   8.761  0.2425  0.1203 -0.7361
  726MOL0     H95799  -3.069   4.951   8.630 -0.4773  0.2015 -0.3622
  726MOL0     H95800  -3.268   5.130   8.769  0.0901 -1.4608  2.5156
  726MOL0     H95801  -3.248   4.960   8.789  1.9673  0.7104  0.4816
  726MOL0     H95802  -3.315   4.913   8.560  1.2353 -0.0351 -1.2456
  726MOL0     H95803  -3.313   5.084   8.512 -2.3572  1.4288 -0.6449
  726MOL0     H95804  -3.492   4.957   8.724  3.2457 -3.5524 -3.2054
  726MOL0     H95805  -3.500   5.136   8.681 -3.0720 -0.0987 -2.2377
  726MOL0     H95806  -3.693   5.049   8.590  0.4618  3.2047 -1.4641
  726MOL0     H95807  -3.610   4.914   8.508  2.8344  0.1223 -2.0967
  726MOL0     H95808  -3.508   5.068   8.352 -1.7627 -1.8552  0.1271
  726MOL0     H95809  -3.558   5.214   8.438 -0.8809  1.5822 -1.3471
  726MOL0     H95810  -3.756   5.217   8.345 -2.2606 -1.4123  1.1788
  726MOL0     H95811  -3.665   5.128   8.219 -2.8350 -2.1899 -1.1476
  726MOL0     H95812  -3.902   5.065   8.265 -0.2041 -2.2752 -2.6959
  726MOL0     H95813  -3.847   4.985   8.408  0.4754  0.5270  0.0605
  726MOL0     H95814  -2.827   5.085   8.691 -1.1330 -0.9566 -1.0092
  726MOL0     H95815  -2.615   5.168   8.597 -1.1239 -1.4974 -0.1602
  726MOL0     H95816  -2.509   5.758   8.415  1.2640  0.1735  0.5817
  726MOL0     H95817  -2.276   5.869   8.382  2.9586  0.7019  1.9460
  726MOL0     H95818  -0.327   6.681   7.906  0.2114  5.7853  0.4386
  726MOL0     H95819  -0.102   6.730   7.945 -1.4430  0.8379 -1.9783
  726MOL0     H95820   0.134   6.907   8.330 -0.7494  1.2836 -0.5175
  726MOL0     H95821   0.302   7.062   8.356  0.8781 -1.9291  2.1437
  726MOL0     H95822   0.651   7.041   8.072 -3.1379  2.6793  0.4426
  726MOL0     H95823   0.713   6.957   8.215  0.2487  0.3471  0.0022
  726MOL0     H95824   0.763   7.186   8.314 -0.1963 -1.5169 -0.0342
  726MOL0     H95825   0.862   7.143   8.176  1.2310  3.5468  2.3140
  726MOL0     H95826   0.610   7.291   8.137 -0.3690 -1.4015  0.1962
  726MOL0     H95827   0.741   7.281   8.011  2.3406 -3.0508 -0.6927
  726MOL0     H95828   0.717   7.493   8.143 -2.1306 -1.9053 -2.5731
  726MOL0     H95829   0.779   7.423   8.289  2.6200 -1.9411  0.8256
  726MOL0     H95830   1.115   7.468   8.016  0.5227 -1.3002 -0.4059
  726MOL0     H95831   0.536   6.844   8.051 -0.5619  0.3896  0.3750
  726MOL0     H95832   0.367   6.701   8.035 -1.2489 -2.0685  2.9068
  727MOL0     O95833   4.352   4.341   9.667  0.6621 -0.8727  0.1172
  727MOL0     C95834   4.423   4.393   9.751  0.0906  0.6337  0.2367
  727MOL0     O95835   4.431   4.526   9.770 -0.4357  0.1212 -0.3013
  727MOL0     C95836   4.326   4.614   9.734  1.1416  0.3064 -0.0343
  727MOL0     C95837   4.191   4.586   9.689  0.7549  0.0422 -0.3456
  727MOL0     C95838   4.107   4.702   9.668 -0.3913  0.4689 -0.0626
  727MOL0     C95839   4.145   4.827   9.684  0.0560 -0.0747 -0.0111
  727MOL0     O95840   4.070   4.937   9.650  0.2655 -0.2548 -0.6183
  727MOL0     C95841   4.010   4.923   9.516 -0.5566  0.1837  0.0146
  727MOL0     C95842   3.941   5.057   9.494  0.0200 -0.1375  0.0614
  727MOL0     C95843   3.792   5.045   9.537  0.2912 -0.1419  0.5552
  727MOL0     C95844   3.717   5.172   9.532  0.6202  0.5185  0.2967
  727MOL0     C95845   3.559   5.171   9.529 -1.1462 -0.0606  0.3758
  727MOL0     C95846   3.501   5.088   9.633 -0.2097  0.4763  0.8742
  727MOL0     C95847   3.349   5.080   9.613 -1.0949  1.3012  0.0129
  727MOL0     C95848   3.278   5.014   9.728 -0.1911 -0.4042 -0.0500
  727MOL0     N95849   3.131   5.000   9.705  0.4999 -0.3783  0.5063
  727MOL0     C95850   3.038   5.095   9.742 -0.5424 -0.0456  0.0006
  727MOL0     C95851   2.924   5.034   9.722  0.6222  0.7490 -0.6503
  727MOL0     C95852   2.791   5.109   9.726 -0.2804  0.7952  0.2062
  727MOL0     C95853   2.756   5.190   9.849  0.2250  0.0725 -0.5743
  727MOL0     C95854   2.616   5.272   9.832 -0.7295  0.7493 -0.4170
  727MOL0     C95855   2.481   5.204   9.879  0.3897  0.2635 -0.1150
  727MOL0     O95856   2.392   5.305   9.836  1.1572 -0.4749  0.5482
  727MOL0     C95857   2.255   5.275   9.837 -0.3610  0.0649 -0.0988
  727MOL0     C95858   2.205   5.149   9.886 -0.6804  0.0951 -0.7309
  727MOL0     C95859   2.073   5.126   9.868 -0.7449 -0.0609 -0.7879
  727MOL0     C95860   1.985   5.210   9.788 -0.0935  0.1569  0.8183
  727MOL0     C95861   1.847   5.168   9.750  0.0438 -0.6417 -0.7632
  727MOL0     O95862   1.787   5.058   9.821 -0.6712  0.5391  0.6517
  727MOL0     C95863   1.651   5.030   9.818 -0.1054 -0.2934 -0.1063
  727MOL0     C95864   1.549   5.120   9.804 -0.0431  0.2512 -0.5179
  727MOL0     C95865   1.411   5.084   9.810 -0.1855 -1.1471  0.4024
  727MOL0     C95866   1.366   4.949   9.838  0.4199  0.0466  0.0786
  727MOL0     O95867   1.243   4.903   9.869  0.4183  0.4203 -0.3497
  727MOL0     C95868   1.208   4.800   9.777  0.7204  0.5731  0.2398
  727MOL0     C95869   1.059   4.816   9.736  0.5491  0.7068  0.1569
  727MOL0     C95870   1.031   4.945   9.657 -0.0183 -0.8673  0.3216
  727MOL0     C95871   0.891   4.999   9.677  0.5767 -0.1262 -0.2905
  727MOL0     C95872   0.768   4.904   9.677  0.1129  0.0513  0.4101
  727MOL0     C95873   0.634   4.977   9.650 -0.0514 -0.1514  0.9217
  727MOL0     C95874   0.512   4.886   9.657 -0.0275 -0.4090 -0.0300
  727MOL0     C95875   0.386   4.965   9.713 -0.4864 -0.1855  0.7970
  727MOL0    Cl95876   0.257   4.844   9.685  0.2890 -0.0386  0.3828
  727MOL0     C95877   1.475   4.859   9.837 -0.5380 -0.7049 -0.1121
  727MOL0     C95878   1.610   4.901   9.834 -0.6974  0.4921  0.3735
  727MOL0     O95879   1.785   5.245   9.678  0.4008 -0.3687  0.7140
  727MOL0     C95880   2.040   5.340   9.748 -0.5224  0.8592  0.2281
  727MOL0     C95881   2.175   5.371   9.769  0.5399  0.3157 -0.0600
  727MOL0     N95882   2.943   4.915   9.664 -0.5534  0.7068  0.3179
  727MOL0     N95883   3.068   4.887   9.658  0.0056  0.0056  0.1765
  727MOL0     C95884   4.273   4.850   9.734  0.1158  0.0389 -0.3657
  727MOL0     C95885   4.361   4.745   9.771 -1.0090  0.2227  0.7700
  727MOL0     C95886   4.533   4.321   9.799  0.9502 -0.0291 -0.3950
  727MOL0     C95887   4.661   4.385   9.791 -0.4555 -0.3201 -0.3522
  727MOL0     C95888   4.774   4.322   9.830  0.4611 -0.4587  0.4858
  727MOL0     C95889   4.768   4.190   9.874 -0.4942  0.6557  0.1470
  727MOL0     O95890   4.881   4.132   9.915  0.2957 -0.5687  0.4770
  727MOL0     C95891   4.962   4.207  10.010  0.8989 -0.6637 -0.0399
  727MOL0     C95892   5.110   4.153   9.981 -0.0358 -0.4263 -0.4694
  727MOL0     C95893   5.222   4.222  10.050 -0.0019  0.2354  0.0072
  727MOL0     C95894   5.255   4.365  10.001  0.3125 -0.3923  0.7130
  727MOL0     C95895   5.174   4.468  10.069  0.6151  1.1111 -0.0793
  727MOL0     C95896   5.102   4.543  10.120  0.2858 -0.8915  0.4852
  727MOL0     C95897   4.645   4.125   9.877  0.3720  0.2238 -0.1351
  727MOL0     C95898   4.532   4.189   9.831  0.3862  0.0896  0.6605
  727MOL0     H95899   4.148   4.487   9.680  1.7956 -0.3463 -1.3061
  727MOL0     H95900   4.010   4.678   9.627  0.0730 -0.1845 -0.8074
  727MOL0     H95901   3.948   4.834   9.500 -3.0493  1.9234 -0.6111
  727MOL0     H95902   4.089   4.910   9.441 -0.7092  3.3005 -0.8105
  727MOL0     H95903   3.941   5.084   9.388  1.1408 -1.5797 -0.3324
  727MOL0     H95904   3.991   5.143   9.541  1.6864  0.2362 -2.2158
  727MOL0     H95905   3.778   5.008   9.639  0.3066 -0.0965  0.5741
  727MOL0     H95906   3.743   4.980   9.464  3.4506 -1.3982 -0.6466
  727MOL0     H95907   3.759   5.235   9.611 -4.3076  4.5293  0.2405
  727MOL0     H95908   3.739   5.211   9.432 -3.5249 -0.2825 -1.1592
  727MOL0     H95909   3.534   5.142   9.426  3.6155 -1.2181 -0.7129
  727MOL0     H95910   3.529   5.275   9.542  3.9479  1.5272  1.7816
  727MOL0     H95911   3.522   5.123   9.735 -0.3305 -2.2320  1.9008
  727MOL0     H95912   3.540   4.987   9.619 -0.2419  0.5828  0.0164
  727MOL0     H95913   3.305   5.178   9.594 -2.2057  0.7913 -0.1606
  727MOL0     H95914   3.318   5.026   9.523  0.7614  1.4676 -0.7629
  727MOL0     H95915   3.302   5.065   9.822 -3.6223  1.7979 -0.2087
  727MOL0     H95916   3.318   4.912   9.733 -3.9379 -2.3436 -3.6810
  727MOL0     H95917   3.050   5.189   9.795 -1.8886  1.2102 -1.8144
  727MOL0     H95918   2.722   5.026   9.711  0.8343 -0.2985  0.9021
  727MOL0     H95919   2.785   5.173   9.637  0.1425 -1.3865 -1.4934
  727MOL0     H95920   2.837   5.264   9.855  1.0751 -0.1905 -5.0266
  727MOL0     H95921   2.741   5.131   9.940  2.4592 -0.8744 -0.7401
  727MOL0     H95922   2.645   5.347   9.906 -1.0270 -1.1267  1.7195
  727MOL0     H95923   2.593   5.289   9.727 -2.4129 -2.4653 -0.6889
  727MOL0     H95924   2.471   5.203   9.988 -0.6794  2.6468 -0.1240
  727MOL0     H95925   2.462   5.109   9.829 -1.3634  0.7538 -0.4384
  727MOL0     H95926   2.266   5.075   9.938 -2.7971 -2.2047 -1.3149
  727MOL0     H95927   2.032   5.032   9.905  3.6686 -1.4997  1.0295
  727MOL0     H95928   1.562   5.226   9.782  0.4514  0.0931 -1.0085
  727MOL0     H95929   1.334   5.159   9.799  1.6798  0.7876 -0.1307
  727MOL0     H95930   1.230   4.700   9.817  1.4948  0.8437  0.5152
  727MOL0     H95931   1.269   4.803   9.686 -1.7970  0.8482 -1.5232
  727MOL0     H95932   0.990   4.821   9.821  0.9973 -1.5985  0.7212
  727MOL0     H95933   1.032   4.733   9.670  1.6657  1.2507 -1.0090
  727MOL0     H95934   1.064   4.932   9.554  0.2625  1.3698  0.0737
  727MOL0     H95935   1.093   5.027   9.695 -0.1429  0.2449 -1.7558
  727MOL0     H95936   0.889   5.064   9.765  0.5959  1.4154 -1.3889
  727MOL0     H95937   0.898   5.063   9.589  3.0672  1.3328  0.8577
  727MOL0     H95938   0.763   4.850   9.772  0.7629 -0.8749 -0.0634
  727MOL0     H95939   0.776   4.837   9.591 -1.6000 -1.3579  1.2906
  727MOL0     H95940   0.615   5.034   9.558 -4.0040  2.9239  3.3313
  727MOL0     H95941   0.635   5.050   9.731 -1.2532  0.6942  0.2104
  727MOL0     H95942   0.498   4.853   9.554  0.2076  1.3096 -0.6508
  727MOL0     H95943   0.538   4.797   9.715 -1.7598 -1.5452 -0.9003
  727MOL0     H95944   0.360   5.051   9.650 -1.4956 -0.3348  0.9867
  727MOL0     H95945   0.389   4.993   9.818  2.7992  2.9170  0.0653
  727MOL0     H95946   1.457   4.752   9.846  0.4956 -0.8918 -0.1323
  727MOL0     H95947   1.681   4.818   9.841 -1.1839  0.0840  0.5180
  727MOL0     H95948   1.978   5.416   9.701  0.1364  0.1727 -1.8804
  727MOL0     H95949   2.217   5.469   9.749 -0.0298  0.1166 -2.6283
  727MOL0     H95950   4.296   4.955   9.747 -0.1304  0.2603 -1.6253
  727MOL0     H95951   4.462   4.752   9.810  0.1076  0.7566 -1.9897
  727MOL0     H95952   4.676   4.489   9.763 -1.4478  0.6892  2.5369
  727MOL0     H95953   4.869   4.373   9.821 -1.4663  3.1119 -2.6077
  727MOL0     H95954   4.931   4.179  10.112  1.6895 -1.9673 -0.1321
  727MOL0     H95955   4.951   4.315   9.995 -2.4966 -0.8829  0.1596
  727MOL0     H95956   5.112   4.046  10.003  1.0310 -0.4490 -0.6299
  727MOL0     H95957   5.133   4.165   9.875  0.6275  0.1019 -0.2739
  727MOL0     H95958   5.310   4.163  10.023  1.7760  2.7089  0.1034
  727MOL0     H95959   5.208   4.222  10.159 -1.6822  2.3749 -0.1285
  727MOL0     H95960   5.362   4.371  10.019  0.3985 -0.5045  0.2506
  727MOL0     H95961   5.234   4.377   9.894  1.7226  4.1960  0.7206
  727MOL0     H95962   5.021   4.600  10.160  1.1481  0.5507  0.2600
  727MOL0     H95963   4.645   4.021   9.909  0.0954  0.9292  2.3181
  727MOL0     H95964   4.435   4.141   9.820  0.8211 -0.3451 -1.9454
  728MOL0     O95965  11.259   7.765   9.121  0.3091  0.9018  0.1848
  728MOL0     C95966  11.277   7.655   9.073  0.9359 -0.1157  0.0612
  728MOL0     O95967  11.220   7.542   9.119 -0.0555 -0.1162  0.5024
  728MOL0     C95968  11.127   7.554   9.216  0.7542  0.1272  0.6980
  728MOL0     C95969  10.992   7.548   9.175 -0.4829 -0.1221  0.1444
  728MOL0     C95970  10.889   7.553   9.267  0.4041 -0.2071 -0.5929
  728MOL0     C95971  10.920   7.557   9.405  0.6469  0.8055  0.4090
  728MOL0     O95972  10.815   7.548   9.501 -0.4554  0.3126  0.2249
  728MOL0     C95973  10.844   7.558   9.638  0.0080 -0.1413  0.4223
  728MOL0     C95974  10.716   7.561   9.717 -0.3345  0.6687  0.2725
  728MOL0     C95975  10.681   7.707   9.747 -0.1407 -0.0363  0.1346
  728MOL0     C95976  10.540   7.730   9.787  0.1221  0.1374  0.6276
  728MOL0     C95977  10.515   7.868   9.829  0.0912  0.4727 -0.4797
  728MOL0     C95978  10.376   7.875   9.899  0.1488 -0.0600  0.3759
  728MOL0     C95979  10.349   7.822  10.030 -0.1378 -0.2669 -0.0710
  728MOL0     C95980  10.236   7.726  10.046 -0.6716 -0.3578  0.5142
  728MOL0     N95981  10.112   7.795  10.012 -0.3523  0.8218 -0.4121
  728MOL0     C95982  10.015   7.746   9.930  0.4553  0.5426 -0.1657
  728MOL0     C95983   9.913   7.837   9.933 -0.4581  0.1579  0.7171
  728MOL0     C95984   9.792   7.858   9.850  0.5432  0.4144  0.0111
  728MOL0     C95985   9.666   7.822   9.929 -0.3535  0.7970 -0.4725
  728MOL0     C95986   9.662   7.666   9.967  0.2875  0.0479  0.1297
  728MOL0     C95987   9.529   7.661  10.044 -0.2184 -0.5058  1.1576
  728MOL0     O95988   9.427   7.628   9.945  0.0680  0.3683 -0.0181
  728MOL0     C95989   9.300   7.604   9.978 -0.2385 -0.3408 -0.3109
  728MOL0     C95990   9.227   7.668  10.074 -0.2152 -0.4781  0.4768
  728MOL0     C95991   9.088   7.644  10.095  0.4321  0.6429 -0.9374
  728MOL0     C95992   9.014   7.545  10.032 -0.2041  0.4336  0.0159
  728MOL0     C95993   8.882   7.513  10.064 -0.0113 -0.3213  0.1626
  728MOL0     O95994   8.840   7.386  10.035 -0.3774  0.9135 -0.1535
  728MOL0     C95995   8.709   7.358  10.075 -0.6996 -0.0845  0.3694
  728MOL0     C95996   8.594   7.342   9.987 -0.3585 -0.7782  0.3613
  728MOL0     C95997   8.462   7.329  10.032 -0.2394 -0.6519 -0.7576
  728MOL0     C95998   8.446   7.310  10.176  0.4707  0.1483 -0.1851
  728MOL0     O95999   8.332   7.281  10.249  0.2645 -0.5847 -1.2614
  728MOL0     C96000   8.210   7.315  10.183  0.1667 -0.7560 -0.2274
  728MOL0     C96001   8.143   7.196  10.120 -0.6393  0.0431 -0.2441
  728MOL0     C96002   8.079   7.109  10.220  0.6647 -0.0294  0.1469
  728MOL0     C96003   8.008   6.980  10.166  1.1915  0.7734  0.5036
  728MOL0     C96004   7.906   6.906  10.256  0.4307 -0.9019 -0.0500
  728MOL0     C96005   7.866   6.767  10.205 -0.2432  0.5313 -0.1746
  728MOL0     C96006   7.720   6.738  10.240  0.1871  1.3557  0.4784
  728MOL0     C96007   7.683   6.598  10.176  0.3222  0.1871 -1.3825
  728MOL0    Cl96008   7.652   6.596   9.991 -0.0829  0.0020  0.1425
  728MOL0     C96009   8.556   7.312  10.253  0.9248 -0.3834 -0.4320
  728MOL0     C96010   8.683   7.346  10.215  0.1956  0.7425  0.9747
  728MOL0     O96011   8.818   7.593  10.126 -0.0091 -0.1004 -0.4146
  728MOL0     C96012   9.093   7.473   9.926  0.0674 -0.8216 -0.3216
  728MOL0     C96013   9.232   7.506   9.905 -0.4720 -0.2267  0.0710
  728MOL0     N96014   9.944   7.929  10.032  0.7234 -0.2235  0.0057
  728MOL0     N96015  10.067   7.901  10.076  0.5425 -0.4710  0.1783
  728MOL0     C96016  11.053   7.567   9.443 -0.7508  0.0490 -0.0221
  728MOL0     C96017  11.158   7.575   9.346  0.5670 -0.4139  0.4907
  728MOL0     C96018  11.360   7.650   8.949 -0.7890  0.0798 -0.4082
  728MOL0     C96019  11.378   7.761   8.857 -0.6047 -0.0364  0.3278
  728MOL0     C96020  11.458   7.743   8.741  1.0501 -0.0029 -0.6911
  728MOL0     C96021  11.508   7.622   8.709  0.2468 -0.2814  0.0886
  728MOL0     O96022  11.580   7.619   8.596  0.0838 -1.0942  0.3009
  728MOL0     C96023  11.613   7.490   8.537 -0.2792 -0.4062  0.6282
  728MOL0     C96024  11.619   7.505   8.386 -0.4482 -0.7180 -0.6472
  728MOL0     C96025  11.759   7.558   8.338  0.8645  0.3596  0.0228
  728MOL0     C96026  11.792   7.709   8.323 -0.2024  0.4862 -0.6130
  728MOL0     C96027  11.933   7.724   8.300  0.4439  0.7574  0.0440
  728MOL0     C96028  12.054   7.746   8.281 -0.3074  0.2425 -0.4812
  728MOL0     C96029  11.487   7.517   8.796  0.1598 -0.4214 -0.1546
  728MOL0     C96030  11.415   7.532   8.911 -0.3991  1.0654  0.0746
  728MOL0     H96031  10.967   7.521   9.073  0.2523  1.5219 -0.5068
  728MOL0     H96032  10.788   7.522   9.242 -1.1472  0.8804  3.4367
  728MOL0     H96033  10.897   7.651   9.662 -0.0822  0.9053 -2.8944
  728MOL0     H96034  10.914   7.480   9.668 -0.0084  0.5415  2.4392
  728MOL0     H96035  10.726   7.506   9.811 -1.9807 -0.5383 -0.2163
  728MOL0     H96036  10.644   7.508   9.654  0.9887 -0.5462 -0.2768
  728MOL0     H96037  10.693   7.770   9.658 -1.2032 -0.6088 -0.4370
  728MOL0     H96038  10.749   7.741   9.826 -0.3572  0.6953  0.0112
  728MOL0     H96039  10.477   7.712   9.699 -0.1361  2.1749  0.3583
  728MOL0     H96040  10.524   7.657   9.868  2.3323 -3.2550 -1.6872
  728MOL0     H96041  10.523   7.932   9.740 -1.9633  1.1789 -0.2300
  728MOL0     H96042  10.577   7.897   9.914 -0.1670 -1.5948  0.4706
  728MOL0     H96043  10.304   7.842   9.823 -0.8758  1.6056  0.5675
  728MOL0     H96044  10.348   7.981   9.902  1.4158  0.2667  1.3361
  728MOL0     H96045  10.439   7.768  10.061 -0.8365 -0.7041  1.3009
  728MOL0     H96046  10.346   7.909  10.096  2.8932  0.2646 -0.5058
  728MOL0     H96047  10.241   7.696  10.151  1.7486 -0.8314  0.3421
  728MOL0     H96048  10.241   7.629   9.997 -0.1652 -0.9573  1.6994
  728MOL0     H96049  10.024   7.667   9.856  2.1746  1.1888 -0.7169
  728MOL0     H96050   9.779   7.790   9.766 -0.8308  1.8811 -1.0242
  728MOL0     H96051   9.790   7.960   9.812  1.3653 -0.4756 -2.6338
  728MOL0     H96052   9.570   7.853   9.887 -2.4271 -1.1882  2.3533
  728MOL0     H96053   9.666   7.874  10.025 -1.1899 -1.6194  0.9447
  728MOL0     H96054   9.669   7.607   9.875  3.9744  1.3742 -0.6340
  728MOL0     H96055   9.750   7.652  10.030  0.2614  0.5500  0.2828
  728MOL0     H96056   9.507   7.748  10.106 -0.8754  1.0601 -1.1201
  728MOL0     H96057   9.542   7.582  10.118 -0.3404 -2.9483 -1.2428
  728MOL0     H96058   9.269   7.752  10.128  1.6976 -1.5907  0.7875
  728MOL0     H96059   9.040   7.717  10.159  3.0560  0.6893  1.1921
  728MOL0     H96060   8.617   7.347   9.881 -1.0904  0.9300  0.2580
  728MOL0     H96061   8.384   7.349   9.959  0.3245  2.5684 -0.6148
  728MOL0     H96062   8.214   7.387  10.102  1.0165 -0.1761  0.3102
  728MOL0     H96063   8.140   7.350  10.260  0.2959 -0.2895 -0.3201
  728MOL0     H96064   8.211   7.146  10.050 -0.9866  2.0788 -2.1539
  728MOL0     H96065   8.058   7.228  10.059 -2.2939 -0.4036  1.7285
  728MOL0     H96066   8.009   7.180  10.265  2.0001  1.4086  0.0505
  728MOL0     H96067   8.143   7.073  10.301  2.4235  3.1255  0.3270
  728MOL0     H96068   7.946   7.005  10.080  0.1821 -1.1258  0.6333
  728MOL0     H96069   8.089   6.908  10.151  2.7535  2.4638  0.5119
  728MOL0     H96070   7.823   6.974  10.238  0.9685 -0.0798  0.5136
  728MOL0     H96071   7.932   6.906  10.363  3.4559 -0.4833 -0.6829
  728MOL0     H96072   7.939   6.699  10.250  0.4283  1.5072  0.2457
  728MOL0     H96073   7.875   6.756  10.097 -1.0458  2.6405 -0.4881
  728MOL0     H96074   7.710   6.726  10.348 -0.1756  0.0529  0.3206
  728MOL0     H96075   7.648   6.809  10.197  0.0850  1.8970  1.5272
  728MOL0     H96076   7.591   6.557  10.218  1.1492 -2.2018 -1.7484
  728MOL0     H96077   7.757   6.524  10.208  3.4814  2.2895 -3.2640
  728MOL0     H96078   8.542   7.283  10.356  2.5901 -0.8129 -0.3039
  728MOL0     H96079   8.763   7.341  10.288  3.5721 -1.3635 -2.5124
  728MOL0     H96080   9.033   7.404   9.868 -0.8633 -0.0149 -0.3262
  728MOL0     H96081   9.267   7.458   9.814  0.2482  0.6445 -0.1268
  728MOL0     H96082  11.084   7.586   9.545  1.2481 -2.0831 -0.1483
  728MOL0     H96083  11.259   7.588   9.383  0.2815  0.4356  0.9820
  728MOL0     H96084  11.342   7.862   8.870  0.6232  0.9204 -2.7080
  728MOL0     H96085  11.471   7.830   8.677 -2.9631  1.9502  0.8446
  728MOL0     H96086  11.529   7.423   8.559 -2.3000  0.5666 -3.1149
  728MOL0     H96087  11.707   7.455   8.580 -0.3203  0.8337  1.7969
  728MOL0     H96088  11.582   7.416   8.336  1.2154 -1.9162  0.1790
  728MOL0     H96089  11.551   7.587   8.360 -0.4840 -0.7734 -0.7286
  728MOL0     H96090  11.766   7.499   8.246 -0.8659 -1.0662  0.7310
  728MOL0     H96091  11.836   7.519   8.404  1.2334 -0.2402 -0.7371
  728MOL0     H96092  11.731   7.746   8.240 -0.5782 -0.2206 -0.6600
  728MOL0     H96093  11.782   7.766   8.415  0.7314 -1.9026  1.0895
  728MOL0     H96094  12.157   7.776   8.279 -0.0174 -0.7707 -2.4632
  728MOL0     H96095  11.542   7.424   8.787  0.8392 -0.1319  0.8322
  728MOL0     H96096  11.412   7.447   8.978  0.7125  0.6198 -0.4073
  729MOL0     O96097   6.289   4.918   7.083 -0.1131  0.1206  0.8467
  729MOL0     C96098   6.209   4.976   7.153  0.7573  0.0866 -0.6728
  729MOL0     O96099   6.069   4.958   7.137 -0.5820  0.7050 -0.0526
  729MOL0     C96100   6.001   4.903   7.021  0.2979  0.0061  0.1126
  729MOL0     C96101   5.883   4.824   7.042 -0.3615 -0.5244  0.3463
  729MOL0     C96102   5.807   4.782   6.932 -0.1495  0.5769  0.1966
  729MOL0     C96103   5.850   4.805   6.801 -0.1754  0.0335  0.1444
  729MOL0     O96104   5.763   4.761   6.698 -0.3913 -0.2643  0.2287
  729MOL0     C96105   5.823   4.684   6.592  0.4641 -0.5952 -0.0174
  729MOL0     C96106   5.738   4.662   6.478 -0.0458  0.5006  0.1473
  729MOL0     C96107   5.700   4.797   6.403 -1.0564  0.8742 -0.8982
  729MOL0     C96108   5.601   4.900   6.468  0.6189  0.2862  1.1413
  729MOL0     C96109   5.634   5.034   6.397 -0.3142 -0.2896  1.3085
  729MOL0     C96110   5.532   5.147   6.422  0.1023  0.2563 -0.5601
  729MOL0     C96111   5.540   5.255   6.320  0.1988 -0.2465  0.8139
  729MOL0     C96112   5.470   5.397   6.358  0.7587  0.1819  0.0312
  729MOL0     N96113   5.324   5.406   6.347 -0.0377 -0.9602 -0.8039
  729MOL0     C96114   5.224   5.369   6.434  1.1228 -0.3967 -0.7385
  729MOL0     C96115   5.109   5.410   6.386  0.1950  0.1704  0.4004
  729MOL0     C96116   4.972   5.373   6.433 -0.7739 -0.4396 -0.6202
  729MOL0     C96117   4.860   5.451   6.363 -0.8921  0.3391  0.3466
  729MOL0     C96118   4.722   5.423   6.413 -1.2847 -0.5454 -0.6532
  729MOL0     C96119   4.614   5.468   6.315  0.0039 -0.8373  0.1434
  729MOL0     O96120   4.505   5.380   6.332  0.2051 -0.0869  0.4209
  729MOL0     C96121   4.383   5.392   6.268  0.4742 -0.6763  0.7265
  729MOL0     C96122   4.326   5.515   6.205 -0.2094 -0.0641 -0.2362
  729MOL0     C96123   4.190   5.517   6.155 -0.1820  0.7727 -0.5130
  729MOL0     C96124   4.111   5.407   6.186  0.0123 -0.5309  0.5601
  729MOL0     C96125   3.971   5.414   6.133  0.4124 -0.3117  0.2565
  729MOL0     O96126   3.874   5.320   6.178  0.1177  0.1831 -1.1025
  729MOL0     C96127   3.742   5.321   6.157 -0.0987 -0.1918  0.3697
  729MOL0     C96128   3.667   5.245   6.250 -0.2322  0.2013 -0.0227
  729MOL0     C96129   3.531   5.240   6.238  0.3906 -0.6968  0.0234
  729MOL0     C96130   3.466   5.301   6.135 -0.0928  0.2699 -1.1284
  729MOL0     O96131   3.327   5.290   6.135  0.2573 -0.6872 -0.0827
  729MOL0     C96132   3.252   5.410   6.116  0.7191 -0.0324 -0.0254
  729MOL0     C96133   3.103   5.405   6.158  0.2336  0.1691  0.7129
  729MOL0     C96134   3.093   5.437   6.310 -0.4348 -0.3742  1.2878
  729MOL0     C96135   3.155   5.339   6.405 -0.3214  0.5703  0.4610
  729MOL0     C96136   3.076   5.324   6.538  0.7129  0.2613  0.5540
  729MOL0     C96137   3.152   5.235   6.634 -0.5288 -0.7398  0.5630
  729MOL0     C96138   3.072   5.200   6.762 -0.7800  0.6198  1.1724
  729MOL0     C96139   3.139   5.097   6.847  0.0748  0.2383  0.2836
  729MOL0    Cl96140   3.026   5.067   6.990  0.2268 -0.0440  0.1547
  729MOL0     C96141   3.536   5.363   6.034 -0.2499 -0.7018 -0.1431
  729MOL0     C96142   3.681   5.371   6.042  0.8144 -0.5291  0.1306
  729MOL0     O96143   3.943   5.506   6.061 -0.9201 -0.5252  0.4348
  729MOL0     C96144   4.156   5.307   6.270 -0.2804  0.7624 -1.2468
  729MOL0     C96145   4.286   5.298   6.304 -0.7065 -0.0982  0.2267
  729MOL0     N96146   5.131   5.470   6.266  0.1727  0.4734  0.5216
  729MOL0     N96147   5.258   5.466   6.240 -0.0171 -0.0650 -0.0082
  729MOL0     C96148   5.977   4.861   6.784  0.6492  0.6970  0.4475
  729MOL0     C96149   6.048   4.920   6.888  0.2451 -0.8410 -0.0201
  729MOL0     C96150   6.254   5.042   7.281 -0.1787  0.9581  0.1000
  729MOL0     C96151   6.172   5.120   7.362 -0.1832  0.2690  0.0463
  729MOL0     C96152   6.227   5.175   7.479 -0.3817 -0.7163  0.4323
  729MOL0     C96153   6.357   5.161   7.522  0.4039 -0.0318  1.0511
  729MOL0     O96154   6.422   5.194   7.634 -0.6407  0.2489 -0.2194
  729MOL0     C96155   6.369   5.306   7.704 -0.0098  0.3964 -0.3914
  729MOL0     C96156   6.477   5.387   7.777 -0.3239  0.3128 -0.1644
  729MOL0     C96157   6.547   5.304   7.888 -0.5236 -0.5434 -0.0705
  729MOL0     C96158   6.629   5.390   7.983 -1.4604  0.0932 -0.1179
  729MOL0     C96159   6.546   5.463   8.076  0.7199  0.3130 -0.0196
  729MOL0     C96160   6.480   5.520   8.162 -0.0912  1.0424 -0.0146
  729MOL0     C96161   6.437   5.086   7.433  0.0100 -0.6009 -0.9702
  729MOL0     C96162   6.386   5.017   7.328  0.1479 -0.5495 -0.3607
  729MOL0     H96163   5.841   4.816   7.142 -1.2588 -2.9092 -0.1687
  729MOL0     H96164   5.709   4.735   6.937 -0.7516  1.6331 -0.9921
  729MOL0     H96165   5.840   4.590   6.644  0.7006 -0.5220  0.0355
  729MOL0     H96166   5.920   4.717   6.555  2.3217 -1.4406  3.6600
  729MOL0     H96167   5.643   4.609   6.493  0.0117 -1.4187 -4.4270
  729MOL0     H96168   5.795   4.605   6.404 -0.4355  1.0604 -0.6059
  729MOL0     H96169   5.660   4.757   6.310 -0.4475 -2.3029  0.0831
  729MOL0     H96170   5.800   4.838   6.384 -0.1861 -1.2885 -1.2565
  729MOL0     H96171   5.502   4.861   6.445  0.9753 -0.4830  0.8558
  729MOL0     H96172   5.618   4.909   6.576  0.9646  1.0768  1.0327
  729MOL0     H96173   5.628   5.019   6.289 -2.5108 -0.6000  1.4259
  729MOL0     H96174   5.734   5.068   6.425  0.6212 -1.2595 -0.7026
  729MOL0     H96175   5.555   5.196   6.518 -0.9508  1.2291 -0.7756
  729MOL0     H96176   5.427   5.120   6.434 -0.4795  1.7663 -1.9150
  729MOL0     H96177   5.647   5.270   6.303  0.4138 -0.9585  1.4952
  729MOL0     H96178   5.495   5.238   6.221 -2.3065  1.8161  1.4737
  729MOL0     H96179   5.500   5.481   6.294  1.3802 -0.7538 -0.9567
  729MOL0     H96180   5.492   5.420   6.463 -0.7343 -1.5412  0.7597
  729MOL0     H96181   5.245   5.314   6.525 -1.3617 -1.3744 -0.6945
  729MOL0     H96182   4.987   5.397   6.538 -0.4579  1.9995 -1.1813
  729MOL0     H96183   4.964   5.265   6.417  1.6687 -0.6391 -0.9532
  729MOL0     H96184   4.868   5.425   6.257  0.1386  3.8616 -0.5512
  729MOL0     H96185   4.878   5.558   6.361  0.2020  0.1889 -2.6203
  729MOL0     H96186   4.711   5.315   6.411  0.1102 -0.7841  1.3943
  729MOL0     H96187   4.703   5.464   6.513 -1.2524 -1.5205 -0.2406
  729MOL0     H96188   4.657   5.451   6.216  3.2820 -1.4912  1.5504
  729MOL0     H96189   4.580   5.570   6.335 -1.1405 -1.2596  0.4578
  729MOL0     H96190   4.387   5.602   6.181 -2.8907  1.3820 -2.3847
  729MOL0     H96191   4.146   5.600   6.100 -0.6934  0.0160 -1.2838
  729MOL0     H96192   3.724   5.181   6.316 -0.1998 -1.7124 -1.8110
  729MOL0     H96193   3.480   5.158   6.288  1.5289 -1.5045 -0.0975
  729MOL0     H96194   3.274   5.457   6.020 -0.3712  0.2764 -0.1419
  729MOL0     H96195   3.294   5.489   6.178 -2.3800  3.5172 -1.9970
  729MOL0     H96196   3.060   5.311   6.122  0.3162  0.9430 -1.5908
  729MOL0     H96197   3.049   5.481   6.101  1.2930  0.5403  0.1756
  729MOL0     H96198   2.985   5.432   6.327 -1.7849  2.1883 -4.3473
  729MOL0     H96199   3.130   5.538   6.330  1.1497 -0.3524 -1.2539
  729MOL0     H96200   3.172   5.247   6.348  3.3379 -0.0519  2.2393
  729MOL0     H96201   3.257   5.375   6.423 -0.0113  0.3313 -0.7277
  729MOL0     H96202   2.979   5.284   6.508 -1.7718  2.8012  4.2881
  729MOL0     H96203   3.061   5.422   6.585  1.2668  0.8511 -0.4669
  729MOL0     H96204   3.245   5.285   6.663 -2.0094  1.2311  2.1336
  729MOL0     H96205   3.178   5.143   6.580 -1.2329  0.5438 -2.1742
  729MOL0     H96206   3.061   5.298   6.810  2.1745  0.6810  1.9482
  729MOL0     H96207   2.979   5.150   6.733  1.1293 -3.5768  1.4819
  729MOL0     H96208   3.238   5.126   6.883  1.5607 -3.9693  0.1907
  729MOL0     H96209   3.135   5.000   6.796 -0.3920  0.3615  0.0879
  729MOL0     H96210   3.491   5.405   5.944 -0.2941 -1.5512 -0.5303
  729MOL0     H96211   3.748   5.408   5.966  2.1378 -0.2214  1.4079
  729MOL0     H96212   4.090   5.225   6.294  1.1768  0.7087  3.5627
  729MOL0     H96213   4.323   5.218   6.366  1.1072  0.6264  0.1509
  729MOL0     H96214   6.009   4.890   6.684 -0.5862  1.6220  0.2945
  729MOL0     H96215   6.127   4.993   6.872  0.7076 -1.5416 -0.9737
  729MOL0     H96216   6.067   5.132   7.339 -0.1264  1.1221  0.1935
  729MOL0     H96217   6.151   5.228   7.536 -0.9380 -0.6692 -0.3494
  729MOL0     H96218   6.293   5.274   7.776  0.0168  2.3987  0.6027
  729MOL0     H96219   6.315   5.370   7.634 -3.5657 -1.0755  0.7972
  729MOL0     H96220   6.549   5.427   7.706  0.8074  1.1398  1.4054
  729MOL0     H96221   6.424   5.467   7.830 -1.6429 -1.4092  1.2870
  729MOL0     H96222   6.610   5.229   7.840  3.2600  2.0768  0.3464
  729MOL0     H96223   6.475   5.250   7.949 -0.7325 -0.4394 -0.2227
  729MOL0     H96224   6.695   5.327   8.044  0.7075  2.0019 -0.3550
  729MOL0     H96225   6.680   5.473   7.934  0.3604 -0.7334  0.2457
  729MOL0     H96226   6.411   5.585   8.213  0.5890  2.3628 -0.7275
  729MOL0     H96227   6.532   5.051   7.474 -0.3312 -1.0650 -0.5555
  729MOL0     H96228   6.460   4.952   7.281 -0.5696 -2.0687  0.5494
  730MOL0     O96229   3.246  10.571   6.722  1.0374 -0.2953  0.5155
  730MOL0     C96230   3.188  10.685   6.724  0.4372 -0.3575  0.0538
  730MOL0     O96231   3.251  10.806   6.728  0.6457  0.0350  0.2020
  730MOL0     C96232   3.384  10.805   6.691 -0.3098  0.0063 -1.0665
  730MOL0     C96233   3.436  10.758   6.568 -0.5912  0.4504 -0.6581
  730MOL0     C96234   3.568  10.776   6.534  0.0742 -0.3558  0.0276
  730MOL0     C96235   3.659  10.824   6.636 -0.4284 -0.2249 -0.8716
  730MOL0     O96236   3.797  10.829   6.625 -0.4530  0.5160 -0.3160
  730MOL0     C96237   3.850  10.788   6.493  0.3247  0.0178  0.1900
  730MOL0     C96238   4.003  10.826   6.494  0.1969 -0.5083  0.2606
  730MOL0     C96239   4.056  10.827   6.355 -0.3032  0.1299 -0.1898
  730MOL0     C96240   4.171  10.936   6.359 -0.4159  0.1407 -1.0340
  730MOL0     C96241   4.290  10.869   6.422 -0.2159  0.3099  0.8820
  730MOL0     C96242   4.408  10.965   6.402  0.1505  0.5733  0.2548
  730MOL0     C96243   4.537  10.913   6.469 -0.6580 -0.4158 -0.2327
  730MOL0     C96244   4.619  10.820   6.387 -0.9532 -0.3817 -1.1235
  730MOL0     N96245   4.766  10.851   6.402  0.0674 -0.0769  0.2876
  730MOL0     C96246   4.848  10.792   6.489 -0.2580 -0.5060  0.6127
  730MOL0     C96247   4.967  10.858   6.482  0.2552 -0.7469  0.6535
  730MOL0     C96248   5.098  10.836   6.546  0.2895 -0.0686  0.5731
  730MOL0     C96249   5.160  10.701   6.520 -0.6688  1.2727  0.7874
  730MOL0     C96250   5.203  10.681   6.366 -0.3699 -0.5567  0.0189
  730MOL0     C96251   5.210  10.532   6.327 -0.3641 -0.3727  0.4871
  730MOL0     O96252   5.078  10.468   6.347  0.3743  0.5875 -0.2786
  730MOL0     C96253   4.953  10.493   6.289 -0.7210 -0.0017  0.1488
  730MOL0     C96254   4.837  10.441   6.348 -0.2048  0.5838 -0.7439
  730MOL0     C96255   4.717  10.479   6.290  0.4543 -1.4312 -0.0759
  730MOL0     C96256   4.696  10.569   6.181  0.1777 -1.2419  0.4243
  730MOL0     C96257   4.567  10.607   6.126  0.0095 -0.3672  0.1886
  730MOL0     O96258   4.457  10.543   6.183 -0.4072 -0.0726 -0.1165
  730MOL0     C96259   4.331  10.544   6.145 -0.1983  0.1109  0.5912
  730MOL0     C96260   4.278  10.628   6.050  0.2342 -1.0189 -0.4177
  730MOL0     C96261   4.140  10.613   6.013 -0.0047 -0.7606 -0.9541
  730MOL0     C96262   4.046  10.536   6.085 -1.1056  0.2403 -0.4937
  730MOL0     O96263   3.904  10.549   6.074 -0.2758  0.1123 -0.1076
  730MOL0     C96264   3.848  10.623   5.963  0.3686  0.0674 -0.3804
  730MOL0     C96265   3.721  10.539   5.930 -0.4219 -0.1122  0.3916
  730MOL0     C96266   3.594  10.578   6.002  0.7729  0.0651 -0.4281
  730MOL0     C96267   3.481  10.515   5.923 -0.2790  0.3639  0.5440
  730MOL0     C96268   3.347  10.565   5.976 -0.4102 -0.2377 -0.0903
  730MOL0     C96269   3.336  10.526   6.137  0.3563  0.7671 -0.1584
  730MOL0     C96270   3.193  10.494   6.166 -0.0361  1.0726  0.2536
  730MOL0     C96271   3.169  10.347   6.144 -0.3146 -0.6289  0.3592
  730MOL0    Cl96272   3.001  10.315   6.172 -0.4962 -0.0608 -0.0896
  730MOL0     C96273   4.096  10.453   6.181 -0.1508 -0.1184 -0.1532
  730MOL0     C96274   4.238  10.452   6.204 -0.5587  0.1845 -0.2919
  730MOL0     O96275   4.567  10.690   6.034 -0.3279  0.2993 -0.9989
  730MOL0     C96276   4.813  10.611   6.115 -0.0993 -0.4078 -0.6106
  730MOL0     C96277   4.938  10.582   6.176  0.1578 -0.6101  0.2189
  730MOL0     N96278   4.939  10.953   6.390 -0.0550 -1.1248  0.4006
  730MOL0     N96279   4.827  10.946   6.333 -0.1823 -0.4216  0.3206
  730MOL0     C96280   3.604  10.876   6.754  0.4480  0.2178 -0.4260
  730MOL0     C96281   3.468  10.873   6.781 -0.0956  0.5708  0.3084
  730MOL0     C96282   3.035  10.682   6.699 -0.1286 -0.1671 -0.5215
  730MOL0     C96283   2.951  10.570   6.684  0.2318 -0.0002 -0.3930
  730MOL0     C96284   2.815  10.583   6.650  0.3499 -0.0715 -0.0498
  730MOL0     C96285   2.755  10.705   6.662  0.1308 -0.0207  0.1798
  730MOL0     O96286   2.623  10.740   6.646 -0.8038  0.0498  0.1887
  730MOL0     C96287   2.519  10.647   6.635 -0.0742 -0.5356 -0.0901
  730MOL0     C96288   2.382  10.718   6.669  0.2278  0.0791 -0.4141
  730MOL0     C96289   2.276  10.643   6.584 -0.1077 -0.5946 -0.6056
  730MOL0     C96290   2.227  10.520   6.660  0.1324  0.1860  0.3344
  730MOL0     C96291   2.088  10.492   6.623  0.1682  0.1919 -0.1948
  730MOL0     C96292   1.976  10.464   6.585 -0.3271 -0.0247  0.1929
  730MOL0     C96293   2.831  10.819   6.671 -1.6394  1.0230  0.1956
  730MOL0     C96294   2.972  10.813   6.695  0.1854  0.2425 -0.0564
  730MOL0     H96295   3.369  10.707   6.499 -1.4633  0.0565  0.4477
  730MOL0     H96296   3.609  10.740   6.440  1.1152  0.1906  0.2481
  730MOL0     H96297   3.802  10.834   6.406  0.5347  0.4711  0.3093
  730MOL0     H96298   3.843  10.679   6.490  1.5483 -0.1167  1.3958
  730MOL0     H96299   4.061  10.758   6.557 -1.2788 -0.7965  1.3931
  730MOL0     H96300   4.005  10.926   6.539 -0.8436 -0.5436  0.4248
  730MOL0     H96301   3.981  10.872   6.289 -0.8598 -2.1642 -1.2366
  730MOL0     H96302   4.069  10.724   6.320  3.2052  0.0258  1.1247
  730MOL0     H96303   4.191  10.967   6.257  1.6888 -0.7745 -0.9614
  730MOL0     H96304   4.144  11.026   6.415  1.5567  0.6752 -0.8817
  730MOL0     H96305   4.309  10.772   6.374  2.6622  1.9793 -1.7304
  730MOL0     H96306   4.285  10.849   6.529 -0.7206  0.5915  0.9160
  730MOL0     H96307   4.378  11.067   6.430 -3.0209 -0.4390  0.9118
  730MOL0     H96308   4.429  10.968   6.294  2.7485 -1.7633  0.5982
  730MOL0     H96309   4.602  10.996   6.497  0.0501 -0.7419 -0.8710
  730MOL0     H96310   4.514  10.867   6.566  1.7324  1.0604  1.1011
  730MOL0     H96311   4.596  10.825   6.281  0.6169  0.7521 -1.4513
  730MOL0     H96312   4.596  10.722   6.430  2.8980 -0.4840  1.1988
  730MOL0     H96313   4.825  10.712   6.559 -1.2042 -2.7503 -2.1018
  730MOL0     H96314   5.094  10.842   6.655  1.1922  0.8976  0.5683
  730MOL0     H96315   5.178  10.899   6.506  3.5278 -2.8645  2.1844
  730MOL0     H96316   5.083  10.626   6.537  0.0275 -0.0560 -1.4359
  730MOL0     H96317   5.237  10.673   6.592 -1.2635 -2.5239  0.1400
  730MOL0     H96318   5.142  10.742   6.299  0.4774  1.2676  0.8287
  730MOL0     H96319   5.297  10.736   6.381 -0.3415 -0.8391  0.9369
  730MOL0     H96320   5.283  10.480   6.390 -2.6344 -1.2304  2.5982
  730MOL0     H96321   5.243  10.531   6.223 -3.0179  3.3088 -0.6078
  730MOL0     H96322   4.853  10.377   6.434  1.9588  1.8956 -0.0887
  730MOL0     H96323   4.634  10.443   6.351 -1.3722 -2.7208 -3.0784
  730MOL0     H96324   4.328  10.711   6.000  1.1544 -1.8906 -0.9740
  730MOL0     H96325   4.120  10.694   5.944 -1.8027  1.7610  2.2608
  730MOL0     H96326   3.907  10.622   5.871 -0.0526 -2.3746 -0.6968
  730MOL0     H96327   3.809  10.718   6.001  1.6603  0.4705 -0.0355
  730MOL0     H96328   3.747  10.437   5.961 -0.2662  0.6796  3.1546
  730MOL0     H96329   3.706  10.546   5.822  0.6106 -2.2471  0.0600
  730MOL0     H96330   3.581  10.685   6.022 -3.2356 -0.5523  1.2237
  730MOL0     H96331   3.599  10.534   6.102  1.0008  2.7435  0.8357
  730MOL0     H96332   3.488  10.526   5.814 -1.6582 -2.2736  0.1203
  730MOL0     H96333   3.499  10.410   5.945  1.1988  0.2403 -1.0356
  730MOL0     H96334   3.266  10.517   5.921  0.3326  0.7974 -2.2089
  730MOL0     H96335   3.335  10.672   5.957 -0.0892  0.3254  2.5117
  730MOL0     H96336   3.356  10.610   6.204 -0.5103  1.8399 -1.2047
  730MOL0     H96337   3.383  10.432   6.165  0.5755 -0.2044 -3.3463
  730MOL0     H96338   3.179  10.523   6.271 -1.0873  1.7539 -0.0603
  730MOL0     H96339   3.122  10.549   6.103 -0.9828  0.0052  0.3623
  730MOL0     H96340   3.227  10.287   6.213  1.3427  1.3549  0.7756
  730MOL0     H96341   3.190  10.318   6.040 -1.6658 -3.2358  0.7202
  730MOL0     H96342   4.024  10.390   6.232 -0.1690 -0.9001 -1.1261
  730MOL0     H96343   4.280  10.377   6.270  1.2607  0.2886 -1.2558
  730MOL0     H96344   4.822  10.673   6.026 -0.3161  0.0628 -0.3073
  730MOL0     H96345   5.032  10.605   6.128  0.5658  0.1988  1.3685
  730MOL0     H96346   3.657  10.942   6.822  0.6944 -0.5393  0.1469
  730MOL0     H96347   3.412  10.920   6.861 -2.8760 -1.8497 -0.0335
  730MOL0     H96348   3.002  10.476   6.698 -0.3515 -0.6924 -2.5592
  730MOL0     H96349   2.746  10.499   6.635  0.3601  0.1166 -1.2669
  730MOL0     H96350   2.535  10.564   6.705  0.5330 -0.4441 -0.1149
  730MOL0     H96351   2.517  10.603   6.534 -1.0329  0.6486 -0.6078
  730MOL0     H96352   2.370  10.715   6.778 -0.4238 -3.3459 -0.4663
  730MOL0     H96353   2.392  10.824   6.641  2.5944  0.2102  0.6952
  730MOL0     H96354   2.314  10.607   6.488  0.7173 -4.2497  0.9317
  730MOL0     H96355   2.185  10.704   6.578 -0.4760 -1.1809 -1.0020
  730MOL0     H96356   2.286  10.431   6.638 -0.2019 -0.3806  1.6325
  730MOL0     H96357   2.230  10.538   6.768 -2.2962  0.2963  0.4374
  730MOL0     H96358   1.879  10.457   6.542 -1.0446 -1.1626  1.8843
  730MOL0     H96359   2.788  10.915   6.645  0.8305  1.6002 -2.2512
  730MOL0     H96360   3.032  10.902   6.700 -1.3228  1.3512 -0.7942
  731MOL0     O96361   1.514   9.612   1.553 -0.2451 -0.6516 -0.5757
  731MOL0     C96362   1.599   9.683   1.501 -0.2244  0.2786 -0.8049
  731MOL0     O96363   1.583   9.818   1.482  0.2342  0.2239  0.2868
  731MOL0     C96364   1.460   9.874   1.531 -0.5385 -0.2387  0.7157
  731MOL0     C96365   1.393   9.946   1.431 -0.1233 -0.0979 -0.2029
  731MOL0     C96366   1.269  10.000   1.460 -0.1313 -0.6917  0.4557
  731MOL0     C96367   1.208   9.968   1.582 -0.4035 -0.5029  0.1257
  731MOL0     O96368   1.085  10.021   1.597 -0.2835 -0.0134 -0.2538
  731MOL0     C96369   1.013   9.963   1.710 -1.2503  0.5899 -0.2969
  731MOL0     C96370   0.868  10.011   1.696  0.2298 -0.0438 -0.5222
  731MOL0     C96371   0.838  10.169   1.702  0.2947  0.9623 -1.3497
  731MOL0     C96372   0.693  10.180   1.751 -0.9492  0.4622  0.5233
  731MOL0     C96373   0.635  10.325   1.740 -0.9471 -0.0990  0.3298
  731MOL0     C96374   0.517  10.354   1.838 -0.4179 -0.1579  0.3860
  731MOL0     C96375   0.445  10.474   1.795 -0.3183 -0.0311 -0.4939
  731MOL0     C96376   0.358  10.450   1.671  0.8660 -0.6784 -0.7809
  731MOL0     N96377   0.220  10.470   1.694  1.0130 -0.0641  0.0813
  731MOL0     C96378   0.161  10.583   1.653  0.0809 -0.5887  0.1240
  731MOL0     C96379   0.025  10.557   1.658  0.2957  0.5722  0.0725
  731MOL0     C96380  -0.079  10.659   1.634  0.2592  0.3893 -0.6995
  731MOL0     C96381  -0.068  10.741   1.511 -0.2982  0.0466 -0.3615
  731MOL0     C96382  -0.189  10.838   1.491 -1.0051  0.1624 -0.1635
  731MOL0     C96383  -0.210  10.965   1.586 -0.2000  0.6021  0.7900
  731MOL0     O96384  -0.326  11.047   1.542  0.3816 -0.1914 -0.2924
  731MOL0     C96385  -0.443  10.985   1.548  1.1163  0.3213  0.2346
  731MOL0     C96386  -0.549  11.046   1.484 -0.2737 -0.3213 -0.0158
  731MOL0     C96387  -0.680  11.004   1.494  1.1766  1.2351 -0.2987
  731MOL0     C96388  -0.708  10.888   1.571 -0.2132  0.4466 -0.5485
  731MOL0     C96389  -0.843  10.836   1.574  0.9567  0.2416  0.0546
  731MOL0     O96390  -0.945  10.901   1.497  0.0283 -0.0626 -0.4443
  731MOL0     C96391  -1.068  10.840   1.469  0.9061 -0.3619 -0.6081
  731MOL0     C96392  -1.099  10.706   1.452 -0.6932 -0.0661  0.2112
  731MOL0     C96393  -1.220  10.666   1.408  0.2436 -0.4949  0.5848
  731MOL0     C96394  -1.332  10.757   1.396 -0.2694 -0.3321 -0.2349
  731MOL0     O96395  -1.458  10.720   1.368 -0.2061  0.4022  0.2471
  731MOL0     C96396  -1.470  10.623   1.263  0.2392  0.0279 -0.0814
  731MOL0     C96397  -1.623  10.610   1.249  0.5608  0.5441 -0.3104
  731MOL0     C96398  -1.689  10.564   1.376  0.1770  0.8510 -0.1841
  731MOL0     C96399  -1.636  10.433   1.436 -0.0820  0.6821  0.8872
  731MOL0     C96400  -1.691  10.395   1.566  0.3287  0.4983  0.5079
  731MOL0     C96401  -1.609  10.275   1.625  0.5713 -0.2124  0.5758
  731MOL0     C96402  -1.473  10.321   1.678  0.1374 -0.0462 -0.3334
  731MOL0     C96403  -1.390  10.208   1.747  0.2114 -0.2948 -0.4131
  731MOL0    Cl96404  -1.348  10.092   1.610  0.1450 -0.3544 -0.1139
  731MOL0     C96405  -1.302  10.894   1.408 -0.0600  0.4708 -1.2629
  731MOL0     C96406  -1.174  10.932   1.446 -0.1135  0.3898 -1.4101
  731MOL0     O96407  -0.868  10.735   1.644 -0.7776 -0.2861 -0.1341
  731MOL0     C96408  -0.610  10.820   1.627  0.4565  0.2085 -0.1950
  731MOL0     C96409  -0.481  10.868   1.617  0.5976  0.6818 -0.6088
  731MOL0     N96410   0.005  10.438   1.723  0.1426 -0.2750 -0.6401
  731MOL0     N96411   0.124  10.381   1.735 -0.4546  0.7908 -1.0737
  731MOL0     C96412   1.271   9.878   1.671 -0.0138 -0.1358 -0.2999
  731MOL0     C96413   1.400   9.848   1.650  0.1600  0.0032 -0.5036
  731MOL0     C96414   1.730   9.634   1.464  0.5352 -0.1433 -0.2829
  731MOL0     C96415   1.764   9.510   1.500 -0.5054  0.1291  0.4017
  731MOL0     C96416   1.892   9.451   1.479 -0.1297  0.4357 -0.8649
  731MOL0     C96417   1.991   9.530   1.421  0.4660  0.2998  0.1519
  731MOL0     O96418   2.113   9.466   1.405  0.3510  0.1357  0.0410
  731MOL0     C96419   2.219   9.531   1.329  1.0637 -0.4662 -0.8288
  731MOL0     C96420   2.297   9.619   1.424 -0.1991  1.3245  0.4377
  731MOL0     C96421   2.330   9.557   1.566 -0.0920 -0.1058  0.3990
  731MOL0     C96422   2.390   9.420   1.558 -0.6117  0.5368 -0.9483
  731MOL0     C96423   2.518   9.430   1.480  0.3273  0.8847 -0.0896
  731MOL0     C96424   2.626   9.441   1.431 -0.3767 -0.0923 -0.6597
  731MOL0     C96425   1.957   9.653   1.376  0.4235 -0.4493  0.3482
  731MOL0     C96426   1.830   9.714   1.400  0.2700  0.2734  0.2070
  731MOL0     H96427   1.433   9.970   1.333 -0.6605 -0.0933 -0.4250
  731MOL0     H96428   1.211  10.073   1.405 -0.8150 -0.4109  1.5281
  731MOL0     H96429   1.051   9.992   1.808 -3.4664  1.1557  0.4625
  731MOL0     H96430   1.015   9.854   1.704 -0.6900  0.6694 -1.9464
  731MOL0     H96431   0.816   9.960   1.778  1.5887 -1.6291 -0.5924
  731MOL0     H96432   0.830   9.959   1.608  3.0087 -0.6841 -1.4326
  731MOL0     H96433   0.848  10.221   1.607  1.6030  1.1193 -1.1560
  731MOL0     H96434   0.912  10.212   1.771  0.9447 -0.7728 -0.8916
  731MOL0     H96435   0.631  10.125   1.679 -1.2536  1.9774 -0.4309
  731MOL0     H96436   0.671  10.152   1.854 -0.9508 -1.1618  0.1021
  731MOL0     H96437   0.617  10.351   1.635 -2.1481 -1.5840  0.1350
  731MOL0     H96438   0.710  10.399   1.771 -1.3800  1.0296 -1.1943
  731MOL0     H96439   0.555  10.367   1.940 -0.3376 -2.1137  0.6523
  731MOL0     H96440   0.445  10.273   1.828  1.7498 -2.2256  0.5578
  731MOL0     H96441   0.373  10.483   1.878  0.6992 -2.9244  0.8448
  731MOL0     H96442   0.507  10.563   1.786 -1.5539  0.7103 -2.1720
  731MOL0     H96443   0.367  10.347   1.636 -0.5483 -0.3962 -2.0514
  731MOL0     H96444   0.402  10.516   1.596  1.7342 -0.3841 -0.0376
  731MOL0     H96445   0.218  10.666   1.613 -2.6407 -0.1469 -3.3703
  731MOL0     H96446  -0.077  10.725   1.721  0.9549 -0.6160  0.0754
  731MOL0     H96447  -0.174  10.605   1.632  0.4155  0.0959 -0.4222
  731MOL0     H96448  -0.067  10.677   1.423 -0.9176 -0.1906 -0.1998
  731MOL0     H96449   0.025  10.799   1.514  1.0963 -2.0042 -1.8854
  731MOL0     H96450  -0.174  10.882   1.392  1.4349  0.2989  0.2160
  731MOL0     H96451  -0.277  10.773   1.491  0.1483 -1.4897 -0.7640
  731MOL0     H96452  -0.120  11.028   1.582 -0.6261  1.1513 -0.5514
  731MOL0     H96453  -0.222  10.919   1.684  0.2348 -1.0102  0.1129
  731MOL0     H96454  -0.512  11.131   1.427  3.1225 -0.5780  1.5594
  731MOL0     H96455  -0.766  11.059   1.459  0.2930  0.3859  0.4911
  731MOL0     H96456  -1.028  10.625   1.439  0.2361  0.8652 -0.6668
  731MOL0     H96457  -1.227  10.560   1.384  3.8053 -0.6893 -0.1920
  731MOL0     H96458  -1.420  10.527   1.283  2.1436  1.3176  1.7149
  731MOL0     H96459  -1.425  10.651   1.167 -0.4314 -2.7483 -1.3319
  731MOL0     H96460  -1.648  10.529   1.180 -2.6139  0.4167  0.8449
  731MOL0     H96461  -1.668  10.702   1.212  0.0136  0.9551  1.2868
  731MOL0     H96462  -1.795  10.546   1.359  0.3154  0.7761 -0.9681
  731MOL0     H96463  -1.688  10.641   1.454  1.1465 -1.2770  2.0314
  731MOL0     H96464  -1.640  10.352   1.363  1.0783  0.7519  0.7358
  731MOL0     H96465  -1.530  10.439   1.460  0.4232 -1.9016 -0.3110
  731MOL0     H96466  -1.796  10.379   1.540  0.6106  0.1153 -0.4105
  731MOL0     H96467  -1.699  10.473   1.642  0.5231  1.1300 -0.1042
  731MOL0     H96468  -1.600  10.191   1.556  0.5998 -0.6118  1.0574
  731MOL0     H96469  -1.655  10.234   1.716 -1.3863  1.4389  0.4012
  731MOL0     H96470  -1.409  10.361   1.598  2.4756  1.8100  2.2264
  731MOL0     H96471  -1.483  10.407   1.745 -3.2250  0.2195 -1.0423
  731MOL0     H96472  -1.452  10.151   1.817  2.4432  0.1179  2.1004
  731MOL0     H96473  -1.299  10.247   1.793 -0.8467  0.4350  1.1579
  731MOL0     H96474  -1.386  10.962   1.395  0.5554  1.4624 -0.2244
  731MOL0     H96475  -1.151  11.037   1.464  0.8905 -0.1318  0.7691
  731MOL0     H96476  -0.627  10.729   1.685  3.0810 -0.2940 -0.0858
  731MOL0     H96477  -0.404  10.819   1.675 -0.2473 -0.7453 -0.6601
  731MOL0     H96478   1.239   9.843   1.768  0.2215  2.0538  0.6397
  731MOL0     H96479   1.452   9.788   1.723 -0.2814  0.5025  0.2417
  731MOL0     H96480   1.693   9.447   1.554 -0.9210 -0.9394 -1.3250
  731MOL0     H96481   1.903   9.350   1.517 -1.4002  2.0074  4.5721
  731MOL0     H96482   2.177   9.587   1.244 -2.5333 -0.7601  0.5721
  731MOL0     H96483   2.296   9.460   1.298  3.4494  0.4845  2.3227
  731MOL0     H96484   2.392   9.644   1.375 -0.2779 -2.0440 -1.7424
  731MOL0     H96485   2.245   9.714   1.440 -2.0996  0.4333 -0.1574
  731MOL0     H96486   2.238   9.553   1.625 -1.4133 -2.1623 -1.6069
  731MOL0     H96487   2.401   9.626   1.610 -1.7612  2.9480 -1.3271
  731MOL0     H96488   2.410   9.388   1.661 -0.3477  2.1744 -0.4596
  731MOL0     H96489   2.317   9.351   1.515  2.2614 -3.5289  0.0617
  731MOL0     H96490   2.714   9.477   1.382  0.5231  1.8035  2.1553
  731MOL0     H96491   2.031   9.706   1.316  0.3095 -2.3827 -1.6445
  731MOL0     H96492   1.799   9.815   1.378 -4.6859 -0.5795  2.0651
  732MOL0     O96493   8.528   7.982  10.933  0.7761  0.2274 -0.2493
  732MOL0     C96494   8.481   8.073  10.992 -0.3690 -0.2667 -0.6605
  732MOL0     O96495   8.552   8.185  11.032  0.0026 -0.4749  0.2217
  732MOL0     C96496   8.693   8.179  11.025  0.7834  0.4542 -0.5000
  732MOL0     C96497   8.763   8.227  11.131 -0.3275  0.4379 -0.0056
  732MOL0     C96498   8.905   8.220  11.130 -0.2324  0.0062  0.1290
  732MOL0     C96499   8.977   8.188  11.022 -0.4429 -0.1153 -0.0136
  732MOL0     O96500   9.115   8.190  11.033 -0.2142  0.0239 -0.2918
  732MOL0     C96501   9.196   8.149  10.923 -1.1703  0.0092  0.1610
  732MOL0     C96502   9.337   8.118  10.993  0.7350  0.4116  0.3023
  732MOL0     C96503   9.434   8.073  10.889 -0.9207  0.0893  1.1782
  732MOL0     C96504   9.574   8.075  10.942  0.2656  0.5852 -0.0970
  732MOL0     C96505   9.675   8.057  10.834  0.9248 -0.3020 -0.3576
  732MOL0     C96506   9.813   8.079  10.893 -0.5223 -0.3765 -0.1730
  732MOL0     C96507   9.900   8.078  10.769 -0.1221  0.2322  0.7214
  732MOL0     C96508  10.044   8.063  10.816  1.2220 -0.0676  0.7233
  732MOL0     N96509  10.100   7.944  10.758 -0.0004  0.7515  1.2882
  732MOL0     C96510  10.135   7.914  10.622  0.8206  0.5077 -0.0774
  732MOL0     C96511  10.161   7.780  10.619  0.2241 -0.6793 -1.1796
  732MOL0     C96512  10.187   7.701  10.499 -0.8466  1.0597 -0.2353
  732MOL0     C96513  10.340   7.677  10.477 -0.6715 -0.4941  0.3833
  732MOL0     C96514  10.398   7.804  10.412 -0.8547 -0.1327  0.2397
  732MOL0     C96515  10.550   7.791  10.388  0.3138  0.9398 -0.0961
  732MOL0     O96516  10.564   7.675  10.299 -0.2990  0.1159  0.2557
  732MOL0     C96517  10.661   7.671  10.204 -0.6060  0.4074  0.7511
  732MOL0     C96518  10.704   7.548  10.166 -0.3520  0.8123  0.9145
  732MOL0     C96519  10.804   7.529  10.076 -0.1126  0.5802 -0.7454
  732MOL0     C96520  10.876   7.635  10.029 -0.0777  0.7037  0.3312
  732MOL0     C96521  10.990   7.621   9.931  0.6756 -0.1517 -0.4179
  732MOL0     O96522  11.030   7.741   9.872  0.6091  0.4531 -0.5413
  732MOL0     C96523  11.132   7.770   9.784  0.3978  0.4410 -0.5387
  732MOL0     C96524  11.253   7.691   9.795  0.4450 -0.3649 -0.0838
  732MOL0     C96525  11.357   7.720   9.702  0.8517  1.2964  0.0141
  732MOL0     C96526  11.338   7.816   9.604 -0.6452  0.3273 -0.0689
  732MOL0     O96527  11.441   7.839   9.514 -0.4832  0.0806  0.3351
  732MOL0     C96528  11.409   7.871   9.377 -0.1990 -0.3930 -0.3041
  732MOL0     C96529  11.543   7.908   9.313  0.5081  0.6129  0.0149
  732MOL0     C96530  11.583   8.044   9.364 -0.8963 -0.6083 -0.7951
  732MOL0     C96531  11.732   8.080   9.336 -0.7031  0.0741 -0.1708
  732MOL0     C96532  11.776   8.216   9.387 -0.7873 -0.4313 -0.2998
  732MOL0     C96533  11.771   8.212   9.541  0.1885 -0.4449 -0.2312
  732MOL0     C96534  11.811   8.361   9.594 -0.3973 -0.2963  0.3260
  732MOL0     C96535  11.857   8.350   9.745 -0.9654  0.7968 -0.0534
  732MOL0    Cl96536  12.044   8.316   9.732 -0.2048  0.2488  0.2873
  732MOL0     C96537  11.227   7.896   9.608 -0.5837 -0.1912  0.2356
  732MOL0     C96538  11.125   7.873   9.697  0.6370 -0.0456 -0.1499
  732MOL0     O96539  11.038   7.508   9.908  0.2153  0.3212 -0.1810
  732MOL0     C96540  10.837   7.766  10.069 -0.2870 -0.2031 -0.0633
  732MOL0     C96541  10.727   7.779  10.151 -0.0992 -1.1288 -0.5922
  732MOL0     N96542  10.144   7.730  10.743 -0.8365 -0.1913 -0.0790
  732MOL0     N96543  10.093   7.823  10.814  0.0003  0.1116 -0.9332
  732MOL0     C96544   8.907   8.147  10.912 -0.0468 -0.2188 -0.8713
  732MOL0     C96545   8.765   8.145  10.911 -0.0708 -0.1196 -0.1445
  732MOL0     C96546   8.327   8.086  11.007 -0.5624  0.1135 -0.4836
  732MOL0     C96547   8.236   7.976  11.003 -0.4462 -0.0972 -0.4461
  732MOL0     C96548   8.101   7.983  11.009  0.5246 -0.3496  0.1363
  732MOL0     C96549   8.049   8.106  11.019  0.3693 -1.0238  0.2362
  732MOL0     O96550   7.917   8.142  11.026  0.0186  0.7046  0.5535
  732MOL0     C96551   7.820   8.041  10.990 -0.2317  0.1083  0.6676
  732MOL0     C96552   7.676   8.085  11.024  0.4478  0.0672 -0.9254
  732MOL0     C96553   7.558   7.977  11.017 -0.8783  0.4177 -0.0551
  732MOL0     C96554   7.568   7.884  10.899 -0.6439  0.8405  0.4565
  732MOL0     C96555   7.459   7.789  10.915 -0.4524  0.4165  0.2066
  732MOL0     C96556   7.368   7.717  10.935 -0.0000 -0.7975 -0.4057
  732MOL0     C96557   8.135   8.218  11.024  1.0661 -0.0461  0.2200
  732MOL0     C96558   8.274   8.212  11.031  0.2819 -0.2488 -0.3270
  732MOL0     H96559   8.708   8.260  11.219  1.1935 -0.6568  1.4111
  732MOL0     H96560   8.957   8.243  11.222  0.2450  0.6865 -0.2934
  732MOL0     H96561   9.194   8.231  10.851 -1.0921 -0.5467 -0.4798
  732MOL0     H96562   9.168   8.050  10.885  0.0872 -1.2139  2.1794
  732MOL0     H96563   9.315   8.043  11.070 -2.2982  2.6254  1.7951
  732MOL0     H96564   9.372   8.209  11.042  4.7602 -0.4330 -0.6660
  732MOL0     H96565   9.438   8.135  10.799 -0.0571  1.3100  2.0285
  732MOL0     H96566   9.403   7.976  10.847  1.2508  0.3238 -1.2430
  732MOL0     H96567   9.597   8.173  10.984 -0.1164  1.4327 -1.7792
  732MOL0     H96568   9.572   7.992  11.014 -1.0050 -0.2890 -1.0874
  732MOL0     H96569   9.647   8.132  10.759 -1.2416 -0.1261  0.5641
  732MOL0     H96570   9.668   7.953  10.803  0.5395 -0.4464  0.2084
  732MOL0     H96571   9.842   8.001  10.964  1.0909 -0.7586 -1.1972
  732MOL0     H96572   9.825   8.176  10.942 -0.8535 -1.0212  1.2385
  732MOL0     H96573   9.867   7.995  10.707 -2.3635 -0.0368  2.1356
  732MOL0     H96574   9.895   8.173  10.715  0.4343 -0.3322 -0.3360
  732MOL0     H96575  10.046   8.072  10.925 -1.1435  3.7113  0.5983
  732MOL0     H96576  10.098   8.152  10.783 -2.0279  2.8215  2.5627
  732MOL0     H96577  10.136   7.985  10.540 -1.7233  1.1359  0.3510
  732MOL0     H96578  10.162   7.746  10.402  0.7127  1.6983 -0.3715
  732MOL0     H96579  10.132   7.607  10.512 -3.1046  2.1798 -1.1120
  732MOL0     H96580  10.351   7.586  10.417 -0.1805  1.5522 -2.8871
  732MOL0     H96581  10.394   7.650  10.569 -0.7875 -1.2859  0.2233
  732MOL0     H96582  10.355   7.824  10.313 -0.8839  1.9728  0.6159
  732MOL0     H96583  10.378   7.890  10.477  3.6824  1.0286  0.3900
  732MOL0     H96584  10.595   7.752  10.480 -0.0659 -3.0486 -1.3999
  732MOL0     H96585  10.585   7.889  10.355 -2.8544  1.5104 -2.1784
  732MOL0     H96586  10.668   7.466  10.228  1.4970 -2.4447 -1.9151
  732MOL0     H96587  10.844   7.429  10.064  0.3276  0.6960 -0.3022
  732MOL0     H96588  11.271   7.616   9.871  0.9969 -0.3288 -0.1781
  732MOL0     H96589  11.438   7.647   9.698 -0.8234 -0.7744  1.4267
  732MOL0     H96590  11.350   7.961   9.356  1.9503  1.6592  1.8329
  732MOL0     H96591  11.365   7.784   9.327  2.1951 -0.8870 -1.7071
  732MOL0     H96592  11.523   7.918   9.206  1.8511  0.1961 -0.2855
  732MOL0     H96593  11.621   7.832   9.324 -2.5577 -3.3147 -2.1937
  732MOL0     H96594  11.555   8.052   9.470  0.8128  1.7139 -0.4486
  732MOL0     H96595  11.519   8.116   9.313 -1.3019 -0.5683 -0.2406
  732MOL0     H96596  11.802   8.001   9.366  4.1481  2.8598 -2.9226
  732MOL0     H96597  11.733   8.081   9.227 -1.2062 -2.4601 -0.2665
  732MOL0     H96598  11.702   8.290   9.354  1.1362  1.3731 -0.8022
  732MOL0     H96599  11.875   8.248   9.353 -0.9261 -0.6778 -0.9524
  732MOL0     H96600  11.839   8.135   9.577  1.1994  0.7277  0.4442
  732MOL0     H96601  11.669   8.193   9.576 -0.2313  2.9492  0.7743
  732MOL0     H96602  11.887   8.409   9.532 -0.8232  1.0471  0.8046
  732MOL0     H96603  11.738   8.442   9.586  0.9430  0.8317 -1.2784
  732MOL0     H96604  11.800   8.282   9.808 -0.1521  1.3299  1.3105
  732MOL0     H96605  11.855   8.446   9.797 -1.6048  1.6866 -1.6507
  732MOL0     H96606  11.204   7.963   9.526 -2.6081 -1.1557 -0.0549
  732MOL0     H96607  11.046   7.947   9.688 -0.2264 -1.0357 -0.8492
  732MOL0     H96608  10.880   7.861  10.036 -2.6289  1.6720  1.9157
  732MOL0     H96609  10.703   7.881  10.177  1.8885 -0.0457 -2.6172
  732MOL0     H96610   8.966   8.136  10.821  1.4579  1.1673 -0.0988
  732MOL0     H96611   8.718   8.116  10.818  2.4029 -1.6776 -1.0093
  732MOL0     H96612   8.274   7.875  10.989 -2.4599 -0.7052 -1.9903
  732MOL0     H96613   8.039   7.894  11.002  0.5835 -0.3819  0.0390
  732MOL0     H96614   7.840   7.958  11.059  0.7246  1.9156  2.6690
  732MOL0     H96615   7.824   8.009  10.885 -1.4272 -0.3332  0.7379
  732MOL0     H96616   7.671   8.112  11.131  2.9669 -1.4357 -0.3537
  732MOL0     H96617   7.644   8.170  10.963  0.1991  0.2046 -0.6118
  732MOL0     H96618   7.466   8.037  11.013 -1.9243 -1.1896 -1.2636
  732MOL0     H96619   7.554   7.921  11.111  3.0439  0.5830  0.3731
  732MOL0     H96620   7.552   7.939  10.807 -0.9237 -0.6297 -0.4035
  732MOL0     H96621   7.663   7.829  10.897  0.5564  2.7470 -3.1862
  732MOL0     H96622   7.286   7.653  10.961 -2.8391  2.7833  0.1758
  732MOL0     H96623   8.087   8.315  11.013  0.1889 -0.5819 -0.8192
  732MOL0     H96624   8.327   8.307  11.026 -0.7151  0.2799 -1.4870
  733MOL0     O96625   7.535   0.435   3.869 -0.8395 -0.7029  0.3815
  733MOL0     C96626   7.572   0.454   3.754  0.7498 -0.3604  0.9442
  733MOL0     O96627   7.507   0.531   3.664 -0.6154 -0.3533  0.1742
  733MOL0     C96628   7.391   0.582   3.698  0.6188  0.0281  0.0228
  733MOL0     C96629   7.278   0.504   3.709 -0.5546 -0.4953 -0.3772
  733MOL0     C96630   7.162   0.563   3.740 -0.5741  0.8654 -0.0176
  733MOL0     C96631   7.156   0.695   3.771  0.2603  0.2365  0.2643
  733MOL0     O96632   7.043   0.769   3.812  0.0535  0.7085  0.0667
  733MOL0     C96633   6.929   0.688   3.855 -1.0742  0.6470  0.4176
  733MOL0     C96634   6.831   0.780   3.931  0.5722  0.5011 -0.7760
  733MOL0     C96635   6.698   0.699   3.969 -1.3929  0.4313 -0.4452
  733MOL0     C96636   6.579   0.786   4.009 -0.6620 -0.9454 -0.7491
  733MOL0     C96637   6.466   0.698   4.078  0.3915  0.9174  0.4976
  733MOL0     C96638   6.355   0.780   4.148  0.3348  0.9076 -0.1683
  733MOL0     C96639   6.288   0.878   4.054 -0.7338 -0.6020 -0.3302
  733MOL0     C96640   6.230   0.793   3.944 -0.5506  0.3217 -0.3913
  733MOL0     N96641   6.122   0.849   3.873 -0.5740  0.0508  0.6187
  733MOL0     C96642   5.996   0.808   3.886  0.5688  0.6514  0.1520
  733MOL0     C96643   5.926   0.867   3.787  1.1911 -0.0571  0.0566
  733MOL0     C96644   5.777   0.849   3.749  0.5677  0.0415  0.4874
  733MOL0     C96645   5.719   0.721   3.820 -1.1841 -0.1735  1.1192
  733MOL0     C96646   5.696   0.746   3.973 -0.2972  0.1579 -0.3538
  733MOL0     C96647   5.601   0.864   3.977  0.4882 -0.2024 -0.4255
  733MOL0     O96648   5.512   0.844   4.078  0.5903  0.5812  0.0320
  733MOL0     C96649   5.379   0.836   4.037  0.3168  0.0396 -0.5896
  733MOL0     C96650   5.296   0.949   4.039 -0.3182  0.4768  0.4768
  733MOL0     C96651   5.176   0.938   3.973 -0.4162 -0.1196 -0.7824
  733MOL0     C96652   5.133   0.826   3.898 -0.4316  0.3921 -0.1507
  733MOL0     C96653   5.007   0.831   3.824 -0.0991  0.2505 -0.1489
  733MOL0     O96654   4.960   0.717   3.773 -0.8742  0.5942 -0.1638
  733MOL0     C96655   4.849   0.722   3.689  0.3527 -0.7040  0.0597
  733MOL0     C96656   4.868   0.773   3.558  0.2710 -0.3528  0.1122
  733MOL0     C96657   4.770   0.775   3.470  0.9059 -0.9810  0.0129
  733MOL0     C96658   4.645   0.726   3.510 -0.9878  0.7143  0.6847
  733MOL0     O96659   4.527   0.715   3.432  0.2069  0.5854  0.0017
  733MOL0     C96660   4.507   0.804   3.320  0.8053  0.4153  0.1047
  733MOL0     C96661   4.359   0.780   3.284 -0.0523 -0.9810  0.3902
  733MOL0     C96662   4.332   0.842   3.148  0.1571 -0.2911 -0.7682
  733MOL0     C96663   4.183   0.845   3.100 -0.5819  0.3972  0.1858
  733MOL0     C96664   4.173   0.897   2.957 -0.0127  0.4913 -0.5944
  733MOL0     C96665   4.022   0.888   2.926  0.1795  0.5475 -0.5312
  733MOL0     C96666   3.974   0.956   2.797 -0.2941 -1.2125  0.1988
  733MOL0     C96667   3.872   0.885   2.709 -0.4237 -0.2770 -0.0406
  733MOL0    Cl96668   3.871   0.935   2.541  0.6456 -0.3573 -0.2258
  733MOL0     C96669   4.623   0.676   3.644 -1.0778  0.6254 -0.2841
  733MOL0     C96670   4.731   0.672   3.728 -0.1792 -0.9223 -0.2727
  733MOL0     O96671   4.957   0.944   3.799  0.0736 -0.1002 -0.4432
  733MOL0     C96672   5.215   0.710   3.899 -0.0424  0.4974  0.6506
  733MOL0     C96673   5.340   0.714   3.969  0.2133  1.4775  0.0215
  733MOL0     N96674   6.008   0.957   3.728  0.1846  0.0103  0.3665
  733MOL0     N96675   6.125   0.946   3.781  0.2165 -0.2840 -0.0447
  733MOL0     C96676   7.263   0.781   3.743 -0.6595 -0.9640  0.7495
  733MOL0     C96677   7.386   0.721   3.715  0.6084  1.0331  0.3475
  733MOL0     C96678   7.699   0.392   3.709  0.5103  0.7516 -1.1167
  733MOL0     C96679   7.767   0.306   3.799  0.2213 -0.1825  0.4046
  733MOL0     C96680   7.881   0.235   3.757  0.3929  0.6613  0.4252
  733MOL0     C96681   7.945   0.247   3.633 -0.0465 -0.5711 -0.0844
  733MOL0     O96682   8.058   0.176   3.602 -0.3263 -0.0217 -0.5167
  733MOL0     C96683   8.163   0.244   3.533  0.4036  0.2941  0.2331
  733MOL0     C96684   8.208   0.378   3.592 -0.0425  0.7989 -1.2458
  733MOL0     C96685   8.346   0.439   3.548  0.6961  0.6168 -0.1693
  733MOL0     C96686   8.345   0.453   3.397 -0.6527  0.3545 -0.0975
  733MOL0     C96687   8.228   0.532   3.352 -0.4293 -0.4036 -0.4335
  733MOL0     C96688   8.133   0.596   3.317 -0.1008 -0.1441  0.3852
  733MOL0     C96689   7.881   0.336   3.549  0.7304  0.1335 -0.3846
  733MOL0     C96690   7.766   0.411   3.583 -0.0058  0.4554  0.3580
  733MOL0     H96691   7.298   0.399   3.695  0.7169 -0.7118  2.2945
  733MOL0     H96692   7.069   0.505   3.744  1.9604 -3.6337  2.3994
  733MOL0     H96693   6.958   0.605   3.921  0.7559 -1.1766 -2.4696
  733MOL0     H96694   6.874   0.652   3.768 -1.2607  3.0291 -0.5193
  733MOL0     H96695   6.797   0.862   3.868 -2.2270  0.8899  1.0636
  733MOL0     H96696   6.886   0.818   4.018  0.1473 -2.7783  1.0874
  733MOL0     H96697   6.735   0.637   4.051  0.5697 -0.9671 -2.2825
  733MOL0     H96698   6.663   0.638   3.886 -1.0671 -1.1570  0.5493
  733MOL0     H96699   6.609   0.864   4.080 -0.5646  1.9678 -3.7561
  733MOL0     H96700   6.548   0.845   3.922  1.5005 -1.0756 -1.6825
  733MOL0     H96701   6.511   0.629   4.149  3.5089 -0.5929 -2.6187
  733MOL0     H96702   6.428   0.636   3.996  4.5598 -1.0609 -0.2074
  733MOL0     H96703   6.391   0.837   4.234 -2.8762  1.3650  0.9928
  733MOL0     H96704   6.288   0.709   4.199  0.2663  0.6657 -0.5899
  733MOL0     H96705   6.208   0.931   4.106 -0.0759 -1.4765  1.7125
  733MOL0     H96706   6.355   0.953   4.011 -1.4605  1.1155  1.3752
  733MOL0     H96707   6.192   0.696   3.975 -0.5699  1.0083  1.8755
  733MOL0     H96708   6.316   0.770   3.880 -1.7205 -2.2447 -1.1493
  733MOL0     H96709   5.971   0.729   3.957 -2.3677  1.2333 -0.0989
  733MOL0     H96710   5.788   0.832   3.641  1.0726  2.0130  0.1952
  733MOL0     H96711   5.724   0.942   3.771  2.1078  0.5975  2.0550
  733MOL0     H96712   5.793   0.640   3.812  0.0272  1.0811 -2.2372
  733MOL0     H96713   5.634   0.674   3.770 -0.9360  2.2031 -1.7939
  733MOL0     H96714   5.646   0.658   4.015 -0.2454 -0.3163 -1.2728
  733MOL0     H96715   5.791   0.764   4.025  1.3279 -2.2051 -2.3226
  733MOL0     H96716   5.560   0.881   3.877 -1.9608  0.1482  0.5752
  733MOL0     H96717   5.650   0.959   4.003 -1.7859  1.0941 -0.6229
  733MOL0     H96718   5.323   1.039   4.093 -2.3711  1.3491  0.1359
  733MOL0     H96719   5.109   1.024   3.970  2.2859  2.0902 -2.4453
  733MOL0     H96720   4.959   0.819   3.521  0.3872  0.0710  0.9025
  733MOL0     H96721   4.785   0.801   3.366  0.7313 -2.3553 -0.3752
  733MOL0     H96722   4.572   0.769   3.239 -1.2530 -1.0696 -1.0230
  733MOL0     H96723   4.525   0.911   3.330 -2.9042  1.5466 -2.8715
  733MOL0     H96724   4.287   0.819   3.357 -0.3795  1.3253 -1.0615
  733MOL0     H96725   4.349   0.671   3.280  3.5197 -1.4646  1.3278
  733MOL0     H96726   4.399   0.797   3.074  0.6170 -1.1483  0.1523
  733MOL0     H96727   4.360   0.948   3.155 -0.2435 -0.0780 -2.1143
  733MOL0     H96728   4.154   0.740   3.092  3.2055 -0.8904  1.1345
  733MOL0     H96729   4.122   0.908   3.165  0.6186 -0.4716  2.2522
  733MOL0     H96730   4.227   0.835   2.885  0.6222 -0.2205  0.4720
  733MOL0     H96731   4.212   0.997   2.934 -1.2650  1.1927  0.2184
  733MOL0     H96732   3.961   0.929   3.008  2.2048  0.7390  0.9555
  733MOL0     H96733   3.989   0.785   2.910  1.3171 -0.0480  0.7613
  733MOL0     H96734   3.920   1.047   2.823  0.1785  0.3860 -3.7726
  733MOL0     H96735   4.056   0.997   2.737 -1.1665 -0.9137 -0.8275
  733MOL0     H96736   3.775   0.896   2.757  0.5796 -2.3036  2.7530
  733MOL0     H96737   3.893   0.777   2.708  0.2655 -0.1456 -0.5504
  733MOL0     H96738   4.538   0.618   3.677  0.3783  0.1734  3.0144
  733MOL0     H96739   4.724   0.622   3.824 -0.4601 -0.2963  0.0342
  733MOL0     H96740   5.194   0.614   3.852  1.1941 -0.2663  1.6072
  733MOL0     H96741   5.398   0.625   3.949  1.4458  2.4337 -0.7854
  733MOL0     H96742   7.252   0.886   3.766 -1.6420 -1.7661  4.7280
  733MOL0     H96743   7.470   0.786   3.694 -0.4568  1.7170 -2.1146
  733MOL0     H96744   7.725   0.294   3.898 -1.3808  0.3314 -0.1785
  733MOL0     H96745   7.916   0.158   3.824  1.2379  0.7860  0.1360
  733MOL0     H96746   8.115   0.268   3.438  1.2616  4.6305  0.7128
  733MOL0     H96747   8.250   0.184   3.504  3.0673  2.6663  2.7179
  733MOL0     H96748   8.124   0.447   3.581 -1.1724 -0.4302 -0.6472
  733MOL0     H96749   8.217   0.369   3.701 -2.2577  4.1340 -0.6373
  733MOL0     H96750   8.427   0.371   3.575  0.3042  0.0681 -0.3524
  733MOL0     H96751   8.358   0.537   3.594 -1.5879  0.8714  0.0003
  733MOL0     H96752   8.443   0.493   3.368  0.2996 -1.1198  0.9044
  733MOL0     H96753   8.340   0.352   3.355  0.2065  0.1647  0.2386
  733MOL0     H96754   8.050   0.656   3.286  1.7219  1.8226 -0.9755
  733MOL0     H96755   7.914   0.358   3.448  4.2377  0.5852  0.7229
  733MOL0     H96756   7.716   0.477   3.514  1.1832  0.5161 -0.4672
  734MOL0     O96757   8.944   4.431   5.764  0.5353 -0.4942 -0.1850
  734MOL0     C96758   8.922   4.313   5.731  0.1504  0.0038  0.6420
  734MOL0     O96759   8.793   4.257   5.713 -0.9803  0.0737  0.2387
  734MOL0     C96760   8.675   4.313   5.747 -0.0623  0.1107  0.3551
  734MOL0     C96761   8.567   4.295   5.661 -0.0811  0.0369  0.2737
  734MOL0     C96762   8.453   4.373   5.686 -0.6081 -1.6777  0.8143
  734MOL0     C96763   8.445   4.461   5.799  0.2116  0.8451 -0.3476
  734MOL0     O96764   8.325   4.528   5.819 -0.7055  0.3240 -0.3932
  734MOL0     C96765   8.329   4.605   5.939  0.3831  0.3404 -0.4701
  734MOL0     C96766   8.191   4.690   5.946  0.1543  0.7789 -0.3072
  734MOL0     C96767   8.069   4.595   5.964 -0.1576  0.9001 -0.1806
  734MOL0     C96768   7.924   4.657   5.968  0.5526  0.1829  0.0934
  734MOL0     C96769   7.814   4.555   5.998 -0.2131  0.1162  0.2110
  734MOL0     C96770   7.680   4.617   6.024 -0.3803 -0.7234 -0.0587
  734MOL0     C96771   7.578   4.508   6.039  0.1904 -0.2012  1.2872
  734MOL0     C96772   7.612   4.392   6.138 -0.5573 -0.3063 -0.8026
  734MOL0     N96773   7.494   4.312   6.152  0.0050  0.1704 -0.2734
  734MOL0     C96774   7.447   4.209   6.064  0.8181 -0.2683 -0.4703
  734MOL0     C96775   7.322   4.177   6.111  0.2796 -0.2380  0.0697
  734MOL0     C96776   7.224   4.077   6.051  0.3400 -0.3270 -0.2433
  734MOL0     C96777   7.129   4.158   5.949  0.1968  0.5637  0.1398
  734MOL0     C96778   7.020   4.257   5.995 -0.3916  0.0793 -0.1870
  734MOL0     C96779   7.062   4.404   5.990  0.0096  0.3188  0.9374
  734MOL0     O96780   7.097   4.423   5.854 -0.6497  0.7928  0.4497
  734MOL0     C96781   7.200   4.508   5.840  0.5929 -0.3692 -0.0422
  734MOL0     C96782   7.225   4.618   5.911 -0.6401 -0.2380 -0.5128
  734MOL0     C96783   7.332   4.704   5.875 -0.5932 -0.3206  0.7422
  734MOL0     C96784   7.407   4.683   5.767 -0.9967 -0.1470 -0.2409
  734MOL0     C96785   7.508   4.773   5.727 -0.4302  0.0140 -0.0172
  734MOL0     O96786   7.503   4.901   5.779  0.5279 -0.4080  0.4129
  734MOL0     C96787   7.586   5.005   5.730  0.3499  0.4090 -0.0157
  734MOL0     C96788   7.530   5.120   5.660  0.8611  0.1835 -0.4356
  734MOL0     C96789   7.618   5.221   5.617 -0.1263 -0.2626 -0.0541
  734MOL0     C96790   7.753   5.214   5.629 -0.0942 -0.3960 -0.4705
  734MOL0     O96791   7.833   5.317   5.581  0.5695 -0.0971  0.4176
  734MOL0     C96792   7.801   5.456   5.620 -0.0464 -0.3276 -0.3919
  734MOL0     C96793   7.924   5.532   5.668 -0.5254  0.9029 -0.3281
  734MOL0     C96794   8.004   5.478   5.792  0.2137  0.1636  0.9909
  734MOL0     C96795   8.123   5.567   5.811  0.5669  0.6956  0.5443
  734MOL0     C96796   8.205   5.513   5.929 -0.5144  0.2422 -0.3564
  734MOL0     C96797   8.131   5.533   6.059  0.3571  0.2812 -1.1277
  734MOL0     C96798   8.226   5.480   6.175 -0.2145 -0.4308  0.1772
  734MOL0     C96799   8.210   5.559   6.299  0.3351 -0.5183 -0.4066
  734MOL0    Cl96800   8.040   5.551   6.352  0.1988  0.1143  0.8144
  734MOL0     C96801   7.805   5.104   5.694  0.0804  0.7413 -0.3921
  734MOL0     C96802   7.727   5.003   5.745  0.2909  0.0370  0.0545
  734MOL0     O96803   7.596   4.737   5.650 -0.3191 -0.5103 -0.2816
  734MOL0     C96804   7.367   4.581   5.682 -0.4103  0.4100 -1.1143
  734MOL0     C96805   7.266   4.502   5.711 -0.1375  0.6307 -0.0674
  734MOL0     N96806   7.297   4.254   6.225 -0.2789 -0.7173 -0.1518
  734MOL0     N96807   7.398   4.328   6.245  0.7443 -0.0537 -0.4981
  734MOL0     C96808   8.550   4.469   5.884 -0.5222 -0.0856  0.1468
  734MOL0     C96809   8.666   4.390   5.866 -0.4648 -0.2692 -0.2095
  734MOL0     C96810   9.034   4.224   5.710 -0.6072  0.2245 -0.3989
  734MOL0     C96811   9.165   4.259   5.755  0.0650  0.1668  0.4131
  734MOL0     C96812   9.280   4.177   5.710  0.2819  0.5661 -0.7080
  734MOL0     C96813   9.260   4.052   5.650 -0.7528 -0.5364 -0.5948
  734MOL0     O96814   9.355   3.958   5.615 -0.3835  0.3101 -0.1109
  734MOL0     C96815   9.486   4.006   5.638 -0.2739  0.0534  0.3015
  734MOL0     C96816   9.580   3.899   5.586  0.7449 -0.1298  0.1233
  734MOL0     C96817   9.734   3.917   5.605 -0.7358 -0.2518 -0.0313
  734MOL0     C96818   9.768   3.884   5.748 -0.4700  0.0045 -0.9196
  734MOL0     C96819   9.904   3.925   5.772 -0.1598 -0.1485  0.3216
  734MOL0     C96820  10.024   3.948   5.783 -0.4831 -0.4177 -0.5411
  734MOL0     C96821   9.132   4.018   5.611  0.0817  0.0464 -0.1288
  734MOL0     C96822   9.030   4.099   5.641  0.1626 -0.3605  0.0008
  734MOL0     H96823   8.569   4.226   5.578  0.7715  0.6672 -0.2451
  734MOL0     H96824   8.360   4.365   5.630 -0.3606 -0.3210  0.1544
  734MOL0     H96825   8.407   4.682   5.936  0.8404 -0.1445 -1.2323
  734MOL0     H96826   8.336   4.549   6.033 -2.1002 -1.7090 -1.3750
  734MOL0     H96827   8.185   4.756   5.859  0.2222 -1.5351 -2.1581
  734MOL0     H96828   8.196   4.763   6.028 -0.8624 -0.3120  0.7628
  734MOL0     H96829   8.072   4.542   6.060  3.3141  0.5775 -0.3206
  734MOL0     H96830   8.070   4.516   5.889 -2.3988  0.6432 -0.0022
  734MOL0     H96831   7.921   4.736   6.043  0.3515 -0.0726  0.3541
  734MOL0     H96832   7.913   4.693   5.865 -1.8316 -2.2798 -0.6454
  734MOL0     H96833   7.847   4.503   6.089  2.4674  1.6642  0.2016
  734MOL0     H96834   7.809   4.483   5.916  0.0416 -1.1869  1.2962
  734MOL0     H96835   7.655   4.672   5.933  0.0421 -0.1118  0.1905
  734MOL0     H96836   7.674   4.677   6.116  0.5517 -0.3167 -0.2576
  734MOL0     H96837   7.489   4.552   6.083  0.5573  0.3516  1.4890
  734MOL0     H96838   7.559   4.465   5.940 -1.1876  0.3288  1.3103
  734MOL0     H96839   7.631   4.427   6.240  0.0329 -4.1264  0.5566
  734MOL0     H96840   7.688   4.327   6.094  0.7027  1.2489 -1.0504
  734MOL0     H96841   7.493   4.170   5.974 -1.8347 -0.6753 -1.7284
  734MOL0     H96842   7.168   4.030   6.133  2.2448  1.6231  2.3448
  734MOL0     H96843   7.291   4.007   6.000 -0.2661  0.5276 -2.2924
  734MOL0     H96844   7.084   4.077   5.891  0.1546  1.1147 -0.6134
  734MOL0     H96845   7.195   4.215   5.883 -0.2795  0.7344 -0.1922
  734MOL0     H96846   6.933   4.245   5.929 -0.2819  0.4163 -0.3949
  734MOL0     H96847   7.000   4.233   6.100 -1.0684  2.6628  0.3553
  734MOL0     H96848   7.137   4.436   6.063  4.2397  1.1723 -3.2819
  734MOL0     H96849   6.975   4.463   6.021  0.7318  0.6543  2.4104
  734MOL0     H96850   7.156   4.641   5.992 -0.9954 -2.3213 -0.1451
  734MOL0     H96851   7.360   4.778   5.949 -1.3283 -2.3405  3.1768
  734MOL0     H96852   7.423   5.139   5.664  0.9261  0.6257 -0.6529
  734MOL0     H96853   7.582   5.310   5.566 -0.0831  1.5274  2.7894
  734MOL0     H96854   7.719   5.472   5.690  1.6298 -2.3941  2.2233
  734MOL0     H96855   7.770   5.507   5.528 -0.0405  0.3201 -0.0370
  734MOL0     H96856   7.874   5.623   5.701 -0.3405  0.8687  0.0540
  734MOL0     H96857   7.987   5.561   5.583 -1.1658  1.0950 -0.7408
  734MOL0     H96858   8.030   5.373   5.775  1.5218  0.7472 -1.0770
  734MOL0     H96859   7.933   5.473   5.875 -0.3921  0.6626  0.5167
  734MOL0     H96860   8.182   5.562   5.719 -0.6668 -0.2386 -0.2289
  734MOL0     H96861   8.078   5.666   5.825 -2.5073  0.4628 -4.9535
  734MOL0     H96862   8.299   5.568   5.935  0.4889 -1.5514  1.7334
  734MOL0     H96863   8.219   5.405   5.922  1.3244  0.4569 -0.3141
  734MOL0     H96864   8.033   5.485   6.060  0.0181  0.9669 -1.1720
  734MOL0     H96865   8.112   5.640   6.072 -0.3891  0.2169 -1.6221
  734MOL0     H96866   8.216   5.374   6.197  1.8168 -0.4312  1.3444
  734MOL0     H96867   8.330   5.491   6.142 -0.0876  2.4014  1.2316
  734MOL0     H96868   8.227   5.665   6.279  0.1841 -0.5266 -0.5756
  734MOL0     H96869   8.281   5.528   6.377  0.6090  2.2461  0.5548
  734MOL0     H96870   7.913   5.108   5.711  0.2323 -3.2924  0.4634
  734MOL0     H96871   7.766   4.922   5.807 -1.5862 -0.7374  0.2974
  734MOL0     H96872   7.402   4.581   5.579  0.2263 -0.8818 -0.9059
  734MOL0     H96873   7.251   4.416   5.647 -0.8904  1.5921 -1.2401
  734MOL0     H96874   8.560   4.528   5.974 -2.8318  1.8079 -0.7374
  734MOL0     H96875   8.746   4.404   5.937  0.1784 -2.4769 -0.4121
  734MOL0     H96876   9.176   4.356   5.804 -0.8580 -0.0604  1.0952
  734MOL0     H96877   9.370   4.226   5.744 -1.3675  0.5367  4.6380
  734MOL0     H96878   9.500   4.017   5.746  0.3503  0.0668  0.2201
  734MOL0     H96879   9.502   4.098   5.581  2.3867 -0.6330 -0.1868
  734MOL0     H96880   9.559   3.795   5.614  2.1995  0.0738  2.2002
  734MOL0     H96881   9.566   3.912   5.478 -1.1158 -1.8328  0.1024
  734MOL0     H96882   9.770   4.014   5.568  2.9451 -1.9896 -1.5378
  734MOL0     H96883   9.790   3.839   5.554 -1.0861 -0.3184 -0.3089
  734MOL0     H96884   9.707   3.929   5.827 -0.3526 -1.3618 -0.0113
  734MOL0     H96885   9.767   3.777   5.770  2.8738 -0.8530 -3.8512
  734MOL0     H96886  10.125   3.975   5.808 -0.0280 -2.3950 -0.0792
  734MOL0     H96887   9.110   3.916   5.582  1.5312 -1.4498  3.4725
  734MOL0     H96888   8.936   4.049   5.620 -0.6914  1.3019 -0.3152
  735MOL0     O96889   7.975   3.899   0.575  0.2956 -0.2358  0.0596
  735MOL0     C96890   7.980   3.853   0.464 -0.6932 -0.4347  0.1637
  735MOL0     O96891   7.888   3.851   0.373 -0.4195 -0.3944 -0.3081
  735MOL0     C96892   7.754   3.879   0.412 -1.1511  0.3725  0.6388
  735MOL0     C96893   7.711   3.975   0.505 -0.4844  0.0394  0.8128
  735MOL0     C96894   7.582   4.020   0.505 -0.1528  0.0464  0.1187
  735MOL0     C96895   7.486   3.959   0.417  0.3890 -0.0576 -0.5422
  735MOL0     O96896   7.360   4.001   0.446  0.6191 -0.1848 -0.6242
  735MOL0     C96897   7.246   3.917   0.439  0.2286 -0.3528 -0.3163
  735MOL0     C96898   7.120   3.984   0.458  0.9390 -0.6537 -0.9087
  735MOL0     C96899   7.010   3.881   0.466 -0.2975 -0.3491  0.3141
  735MOL0     C96900   6.874   3.947   0.501  0.0670 -0.3370 -0.8691
  735MOL0     C96901   6.765   3.845   0.507 -0.3158  0.1553 -0.4897
  735MOL0     C96902   6.637   3.899   0.566 -0.1690 -0.0360  0.8470
  735MOL0     C96903   6.530   3.782   0.573 -0.1010 -0.2622  1.1805
  735MOL0     C96904   6.402   3.822   0.646  0.3429 -0.7513  0.7485
  735MOL0     N96905   6.292   3.716   0.642 -0.0833  0.0574 -0.4589
  735MOL0     C96906   6.169   3.736   0.592  0.3210  0.2186 -0.3440
  735MOL0     C96907   6.101   3.624   0.628 -0.5068 -0.6307 -0.8611
  735MOL0     C96908   5.954   3.609   0.603 -0.1160 -0.5830  0.4939
  735MOL0     C96909   5.874   3.682   0.711 -1.0722 -0.2660 -0.2755
  735MOL0     C96910   5.853   3.828   0.679  0.3765  0.3050 -0.2119
  735MOL0     C96911   5.746   3.879   0.772  0.3580 -0.1934 -0.3693
  735MOL0     O96912   5.719   4.019   0.743 -0.1074 -0.8602 -0.2754
  735MOL0     C96913   5.596   4.048   0.683  0.5732 -0.5009  0.5322
  735MOL0     C96914   5.614   4.122   0.563  0.3283  0.7895 -0.0223
  735MOL0     C96915   5.502   4.184   0.505  0.5091  0.1014 -0.1771
  735MOL0     C96916   5.369   4.161   0.557  1.0044  0.1975  0.2097
  735MOL0     C96917   5.240   4.221   0.497 -0.4995  0.1884  0.6479
  735MOL0     O96918   5.119   4.165   0.538 -0.4068 -1.2476  0.2534
  735MOL0     C96919   5.024   4.254   0.570  0.0634 -0.6936  1.0341
  735MOL0     C96920   4.960   4.239   0.695 -0.3282  0.3480 -0.1264
  735MOL0     C96921   4.847   4.322   0.729  0.3315 -0.3066 -0.0270
  735MOL0     C96922   4.792   4.409   0.634 -0.7784 -0.5885  0.9363
  735MOL0     O96923   4.690   4.491   0.665  0.5217  0.6449  0.1758
  735MOL0     C96924   4.727   4.620   0.721 -0.3769  0.7079  0.4068
  735MOL0     C96925   4.613   4.688   0.782 -0.0677  0.3235 -0.5680
  735MOL0     C96926   4.504   4.726   0.694  0.6677  0.0085  0.2001
  735MOL0     C96927   4.397   4.822   0.749  0.3171  0.8327  0.4800
  735MOL0     C96928   4.339   4.767   0.880  0.1279  0.0710  0.0498
  735MOL0     C96929   4.243   4.864   0.954  0.0907 -0.2003  0.2911
  735MOL0     C96930   4.111   4.879   0.876 -0.6001  0.3474  0.1108
  735MOL0     C96931   4.009   4.956   0.947  1.3117  0.3182 -0.6074
  735MOL0    Cl96932   3.950   4.871   1.100 -0.1238 -0.4926 -0.6216
  735MOL0     C96933   4.853   4.427   0.509 -0.1884  0.1407  0.0710
  735MOL0     C96934   4.967   4.348   0.473  0.1013  1.0746 -0.2705
  735MOL0     O96935   5.252   4.309   0.417 -0.7221 -0.4605  0.0780
  735MOL0     C96936   5.356   4.079   0.671  0.2043  0.0247  0.0367
  735MOL0     C96937   5.470   4.031   0.733 -0.1420  0.4992  0.7159
  735MOL0     N96938   6.184   3.531   0.693  0.7513 -0.5544  0.3904
  735MOL0     N96939   6.299   3.596   0.713  1.0536  0.5149 -0.0499
  735MOL0     C96940   7.523   3.861   0.331 -0.8242  0.3666  0.1400
  735MOL0     C96941   7.659   3.829   0.319  0.4174 -0.5843  0.2501
  735MOL0     C96942   8.124   3.808   0.446 -0.6719 -0.5473  0.1146
  735MOL0     C96943   8.230   3.802   0.541  0.7129 -0.6920  0.2677
  735MOL0     C96944   8.351   3.744   0.507  0.0492 -0.2620  0.6316
  735MOL0     C96945   8.377   3.709   0.372 -0.6989 -0.2264  1.0181
  735MOL0     O96946   8.502   3.667   0.329 -0.0575 -0.0038 -0.4725
  735MOL0     C96947   8.598   3.591   0.417  0.7102 -0.0623  0.2547
  735MOL0     C96948   8.730   3.635   0.385 -0.6349 -0.1667  0.1587
  735MOL0     C96949   8.784   3.623   0.245  0.3286  0.4535  0.3507
  735MOL0     C96950   8.914   3.693   0.246 -0.3346  0.0882  0.2082
  735MOL0     C96951   9.010   3.627   0.331  0.8058  0.3461 -0.3681
  735MOL0     C96952   9.080   3.572   0.415  0.2800  0.2760 -0.7865
  735MOL0     C96953   8.274   3.702   0.287 -0.7129 -0.4754 -0.0294
  735MOL0     C96954   8.150   3.748   0.317  0.1379 -0.3053 -0.0111
  735MOL0     H96955   7.770   4.021   0.584 -1.1269 -0.5787  1.6741
  735MOL0     H96956   7.562   4.093   0.582 -2.5704 -0.7602  0.3231
  735MOL0     H96957   7.251   3.839   0.516  0.5085 -0.4257 -0.4081
  735MOL0     H96958   7.256   3.873   0.339 -1.7892 -0.2615 -0.5986
  735MOL0     H96959   7.104   4.063   0.384 -0.0505 -1.3515 -1.4624
  735MOL0     H96960   7.133   4.037   0.553 -0.4143 -1.2868 -0.3474
  735MOL0     H96961   7.033   3.810   0.546 -1.0979  0.8962  1.6887
  735MOL0     H96962   6.988   3.826   0.373 -1.3093  1.3156 -0.4758
  735MOL0     H96963   6.877   3.993   0.600  1.9199 -1.4483 -0.3485
  735MOL0     H96964   6.843   4.017   0.422  2.0191 -1.9335 -3.1813
  735MOL0     H96965   6.802   3.755   0.557 -1.2330  0.5348  0.9285
  735MOL0     H96966   6.745   3.811   0.405 -2.2776  0.5539 -0.2727
  735MOL0     H96967   6.606   3.973   0.491  1.3005  0.3035  0.5450
  735MOL0     H96968   6.659   3.953   0.658 -1.1697  1.5392  0.2075
  735MOL0     H96969   6.500   3.748   0.474  0.0681 -1.0389  1.3946
  735MOL0     H96970   6.565   3.691   0.621 -2.6344 -0.6635  2.4400
  735MOL0     H96971   6.362   3.907   0.590  0.8547 -1.8440 -1.4259
  735MOL0     H96972   6.421   3.850   0.749  0.7884  0.5075  0.3381
  735MOL0     H96973   6.146   3.824   0.533  0.0544 -0.6219 -1.5202
  735MOL0     H96974   5.934   3.502   0.607  0.1801 -0.6532  0.1876
  735MOL0     H96975   5.932   3.647   0.503  0.4686  0.7025  0.8296
  735MOL0     H96976   5.925   3.678   0.808 -0.8193  3.5211 -0.0873
  735MOL0     H96977   5.774   3.638   0.721 -1.0499 -0.3769 -0.5245
  735MOL0     H96978   5.947   3.883   0.693  1.2871 -1.3886  0.7551
  735MOL0     H96979   5.813   3.844   0.579 -1.6915 -0.9072  0.3545
  735MOL0     H96980   5.781   3.871   0.875  0.4834 -0.6189 -0.4433
  735MOL0     H96981   5.653   3.822   0.763  0.5188 -0.3830 -0.8935
  735MOL0     H96982   5.716   4.148   0.536  0.3150  1.7787  0.7918
  735MOL0     H96983   5.512   4.253   0.422  3.0136 -0.9484 -0.8299
  735MOL0     H96984   4.997   4.164   0.764 -4.5323 -2.8868 -0.9962
  735MOL0     H96985   4.791   4.323   0.822  0.4502  1.0424  0.0483
  735MOL0     H96986   4.763   4.680   0.638  1.6153 -0.4460  0.3615
  735MOL0     H96987   4.825   4.618   0.770  0.1597  2.5925 -0.4949
  735MOL0     H96988   4.646   4.778   0.835  1.4227 -0.0532 -0.8131
  735MOL0     H96989   4.570   4.626   0.862 -2.1741  1.0410 -1.0810
  735MOL0     H96990   4.463   4.633   0.653  2.3910 -1.7483  2.1999
  735MOL0     H96991   4.561   4.780   0.617  1.5566 -2.2826 -0.8598
  735MOL0     H96992   4.459   4.911   0.764  0.7781  0.5747  0.1310
  735MOL0     H96993   4.318   4.849   0.678 -0.0052  0.0440  0.5309
  735MOL0     H96994   4.419   4.754   0.954 -0.3106  4.1436  1.5008
  735MOL0     H96995   4.293   4.671   0.855 -0.1293  0.7098 -2.1549
  735MOL0     H96996   4.294   4.960   0.937  2.9093 -1.3231  1.6850
  735MOL0     H96997   4.235   4.843   1.061 -3.5849 -0.7430  0.0160
  735MOL0     H96998   4.128   4.919   0.776 -1.9588  0.1030 -0.2302
  735MOL0     H96999   4.071   4.777   0.870  3.9097 -1.6625  0.2473
  735MOL0     H97000   3.923   4.964   0.879  1.1998 -0.0740 -0.5136
  735MOL0     H97001   4.036   5.059   0.970 -1.8925  0.9231  1.0243
  735MOL0     H97002   4.805   4.489   0.434 -0.7581 -2.7998 -2.1973
  735MOL0     H97003   5.031   4.357   0.386 -0.0215  1.0866 -0.3591
  735MOL0     H97004   5.256   4.072   0.715 -0.9582 -0.0519 -2.4468
  735MOL0     H97005   5.475   3.998   0.836  1.8242 -1.0315  0.1841
  735MOL0     H97006   7.451   3.808   0.270 -0.3992 -0.1360  0.0626
  735MOL0     H97007   7.686   3.757   0.242 -1.3634 -0.4701 -0.5489
  735MOL0     H97008   8.207   3.837   0.642  0.9125  0.3705 -0.0412
  735MOL0     H97009   8.437   3.735   0.574 -1.0262 -0.3329  2.0480
  735MOL0     H97010   8.595   3.486   0.387 -0.9314  0.8453 -3.2969
  735MOL0     H97011   8.582   3.602   0.524 -3.0015 -0.9995 -0.0896
  735MOL0     H97012   8.753   3.737   0.415  2.7059 -1.0300  0.9893
  735MOL0     H97013   8.799   3.576   0.448  0.2114  0.5942 -0.0294
  735MOL0     H97014   8.720   3.673   0.171  2.8354  0.9069 -1.6537
  735MOL0     H97015   8.805   3.519   0.218  3.1383  1.1508 -0.5471
  735MOL0     H97016   8.963   3.686   0.149 -0.4212 -0.2351  0.1883
  735MOL0     H97017   8.912   3.797   0.282  4.2241  0.0692  1.0864
  735MOL0     H97018   9.153   3.530   0.481  2.7067  1.0969 -2.7848
  735MOL0     H97019   8.300   3.671   0.187  0.8141  0.0624  0.1738
  735MOL0     H97020   8.068   3.740   0.247 -0.1726  0.5426  0.2450
  736MOL0     O97021   5.759   9.750   5.970 -0.2253 -0.3027  0.0742
  736MOL0     C97022   5.814   9.783   6.075 -0.1293  0.1739  0.5658
  736MOL0     O97023   5.744   9.802   6.195 -0.1145 -0.3180 -0.0277
  736MOL0     C97024   5.613   9.772   6.207  0.5694  0.5078  0.3757
  736MOL0     C97025   5.516   9.838   6.127  0.3663  0.6104  0.3550
  736MOL0     C97026   5.380   9.815   6.134  0.5696 -0.1366 -0.2327
  736MOL0     C97027   5.331   9.709   6.232  0.3083 -0.3072 -0.0826
  736MOL0     O97028   5.206   9.673   6.260  0.9144  0.7275 -0.6725
  736MOL0     C97029   5.107   9.738   6.186  1.2764 -0.1237  0.6097
  736MOL0     C97030   4.979   9.670   6.223  0.7033 -0.0067  0.6550
  736MOL0     C97031   4.853   9.733   6.164 -0.1746  0.0510  0.2710
  736MOL0     C97032   4.726   9.681   6.229 -1.0189  1.1085  0.2279
  736MOL0     C97033   4.598   9.719   6.160  0.2577 -0.3410  0.1031
  736MOL0     C97034   4.483   9.622   6.207 -0.0150  1.0638 -0.0136
  736MOL0     C97035   4.344   9.683   6.182  0.0101 -0.1495  0.9866
  736MOL0     C97036   4.304   9.686   6.032  0.5354  1.1233 -0.0100
  736MOL0     N97037   4.273   9.545   5.980 -0.1947 -0.1215  0.2619
  736MOL0     C97038   4.177   9.459   6.017  0.5202 -0.1537  0.4483
  736MOL0     C97039   4.203   9.339   5.953  0.5763  1.0125  0.1786
  736MOL0     C97040   4.141   9.211   5.958 -0.7019  0.4330  0.4773
  736MOL0     C97041   4.070   9.187   5.821 -0.3560 -0.9572  0.3175
  736MOL0     C97042   3.975   9.062   5.840 -0.6228 -0.5580  0.0130
  736MOL0     C97043   3.834   9.107   5.887 -0.5795 -0.4624 -0.1566
  736MOL0     O97044   3.793   9.005   5.985  0.6337 -0.5510  0.7450
  736MOL0     C97045   3.661   9.001   6.020 -0.2959  0.2136 -0.1504
  736MOL0     C97046   3.582   9.110   6.034  0.2251 -0.1945 -0.9250
  736MOL0     C97047   3.447   9.089   6.063  0.0563  0.0604 -0.2351
  736MOL0     C97048   3.389   8.963   6.069  0.8327 -0.4550  0.0204
  736MOL0     C97049   3.242   8.948   6.078 -0.3767 -0.3504  0.7625
  736MOL0     O97050   3.205   8.844   6.142  0.1550  0.2302 -0.2148
  736MOL0     C97051   3.077   8.822   6.175  0.6644  0.7538 -0.2524
  736MOL0     C97052   2.977   8.917   6.194 -0.5510  0.3229  0.0450
  736MOL0     C97053   2.849   8.872   6.237  0.1376 -0.3006  0.3019
  736MOL0     C97054   2.822   8.732   6.247  0.3695 -0.1460  0.1889
  736MOL0     O97055   2.698   8.684   6.283 -0.3637  0.0463 -0.1308
  736MOL0     C97056   2.692   8.698   6.428 -1.0356  0.8847 -0.1614
  736MOL0     C97057   2.591   8.814   6.446  0.5046  0.6095 -0.0591
  736MOL0     C97058   2.542   8.817   6.590  0.1414  1.0519 -0.0652
  736MOL0     C97059   2.446   8.697   6.615  0.0370  0.9730 -0.4831
  736MOL0     C97060   2.373   8.725   6.744 -0.3179  0.1880 -0.5672
  736MOL0     C97061   2.240   8.642   6.745  0.3883 -0.6984 -0.0422
  736MOL0     C97062   2.163   8.666   6.870  0.0616  0.0079  0.1528
  736MOL0     C97063   2.015   8.648   6.842  0.8572 -0.0967  0.4059
  736MOL0    Cl97064   1.965   8.486   6.770 -0.0205  0.0421  0.1097
  736MOL0     C97065   2.928   8.645   6.221  0.6226 -0.1077  0.3264
  736MOL0     C97066   3.052   8.688   6.187  0.2293  0.7493  0.4506
  736MOL0     O97067   3.173   9.039   6.035 -1.2257 -0.3497  0.2018
  736MOL0     C97068   3.466   8.859   6.049  0.4092 -0.2837  0.4031
  736MOL0     C97069   3.603   8.875   6.025  0.1240  0.1972 -0.0310
  736MOL0     N97070   4.311   9.357   5.875 -0.6722  0.0003 -0.4648
  736MOL0     N97071   4.351   9.480   5.896  0.8452 -0.5311 -0.2449
  736MOL0     C97072   5.426   9.662   6.328 -0.2088  0.6358  0.0673
  736MOL0     C97073   5.567   9.681   6.307 -0.4768  0.4299  0.1793
  736MOL0     C97074   5.963   9.806   6.084 -0.4587 -0.1931 -0.1384
  736MOL0     C97075   6.027   9.854   6.203 -0.4193  0.2731  0.1013
  736MOL0     C97076   6.164   9.878   6.199 -0.0628  0.4569  0.3067
  736MOL0     C97077   6.246   9.847   6.085 -0.4538 -0.2470 -0.2291
  736MOL0     O97078   6.382   9.880   6.097 -1.4161  0.0323 -0.1833
  736MOL0     C97079   6.454   9.907   5.983  0.1401  0.2856  0.4400
  736MOL0     C97080   6.573   9.998   6.023  0.8188 -0.4957  0.3142
  736MOL0     C97081   6.543  10.146   5.986 -0.2427  0.7769  0.2499
  736MOL0     C97082   6.467  10.219   6.097  0.1169  0.2924 -0.5276
  736MOL0     C97083   6.563  10.298   6.174  0.5324  0.1359 -0.2612
  736MOL0     C97084   6.635  10.377   6.223  0.6338  0.2442 -0.2477
  736MOL0     C97085   6.175   9.801   5.972 -0.2194  0.2408 -0.7293
  736MOL0     C97086   6.042   9.772   5.972 -0.8371  0.3922  0.4579
  736MOL0     H97087   5.553   9.909   6.054  3.8963 -1.3695 -0.0202
  736MOL0     H97088   5.311   9.875   6.075 -0.0708 -0.8202 -0.2028
  736MOL0     H97089   5.121   9.738   6.077 -1.0936  0.5569  0.2434
  736MOL0     H97090   5.111   9.844   6.215 -2.6212 -0.3998  2.9457
  736MOL0     H97091   4.967   9.673   6.332  1.3524 -0.5575  0.7477
  736MOL0     H97092   4.972   9.567   6.187  2.0166  0.2276 -0.3455
  736MOL0     H97093   4.853   9.715   6.056 -0.8147 -0.0512  0.2834
  736MOL0     H97094   4.863   9.840   6.182  2.0538 -0.2401  1.0642
  736MOL0     H97095   4.732   9.572   6.227  2.9929  1.0833  2.4948
  736MOL0     H97096   4.725   9.704   6.336 -1.4467 -1.9930  0.9781
  736MOL0     H97097   4.618   9.717   6.052  1.9707  0.4236  0.3719
  736MOL0     H97098   4.574   9.821   6.190  2.4728  0.1801  0.2705
  736MOL0     H97099   4.480   9.586   6.310 -1.5450 -1.9056 -0.9963
  736MOL0     H97100   4.490   9.522   6.163  2.0632  0.8207  0.7575
  736MOL0     H97101   4.274   9.625   6.243 -0.5851 -2.5071 -1.7636
  736MOL0     H97102   4.346   9.789   6.210  0.9797  0.0078  0.3752
  736MOL0     H97103   4.387   9.729   5.975  1.3539  4.1683  3.1635
  736MOL0     H97104   4.222   9.757   6.037  2.4144  3.3147  1.2964
  736MOL0     H97105   4.102   9.484   6.092  0.2038 -0.2798  0.1730
  736MOL0     H97106   4.063   9.222   6.034 -1.2489 -1.0935  0.1711
  736MOL0     H97107   4.211   9.130   5.979 -1.3036 -0.3527 -0.4952
  736MOL0     H97108   4.141   9.178   5.738 -0.5674 -0.9910  0.1406
  736MOL0     H97109   3.999   9.266   5.798 -0.0916 -0.7819  0.0961
  736MOL0     H97110   3.964   9.003   5.749  2.1512 -0.8096 -0.2263
  736MOL0     H97111   4.026   8.999   5.913 -2.6099  0.3157  2.2895
  736MOL0     H97112   3.759   9.125   5.810 -0.9917 -4.4465 -0.8961
  736MOL0     H97113   3.844   9.202   5.941 -0.4736 -0.3196 -0.4263
  736MOL0     H97114   3.627   9.209   6.035 -0.1360  0.0696 -3.7455
  736MOL0     H97115   3.378   9.173   6.065 -1.2212 -0.8978 -1.5720
  736MOL0     H97116   2.993   9.024   6.199 -2.8687  0.7526 -0.4239
  736MOL0     H97117   2.772   8.945   6.259 -0.5683 -1.4236  1.6918
  736MOL0     H97118   2.788   8.715   6.480 -0.6584  0.6822 -0.7871
  736MOL0     H97119   2.650   8.607   6.472  0.9949 -0.9864 -1.8609
  736MOL0     H97120   2.519   8.806   6.364 -1.2247  1.6780  1.2826
  736MOL0     H97121   2.638   8.911   6.430  2.2997 -0.5318 -2.3678
  736MOL0     H97122   2.488   8.912   6.597  0.2499  1.2026 -1.1739
  736MOL0     H97123   2.630   8.810   6.655 -0.7824 -0.5470  1.0987
  736MOL0     H97124   2.372   8.675   6.537  0.3475  0.2543 -0.5831
  736MOL0     H97125   2.497   8.601   6.628 -2.8691 -0.6810 -0.3360
  736MOL0     H97126   2.350   8.832   6.751  0.6700  0.3363  1.0028
  736MOL0     H97127   2.441   8.699   6.826 -0.7128  0.2931 -0.2019
  736MOL0     H97128   2.269   8.536   6.741 -0.7721 -1.0847  1.2192
  736MOL0     H97129   2.176   8.666   6.659 -2.4104 -3.1802  1.1929
  736MOL0     H97130   2.203   8.607   6.953  1.1538  1.6181  0.8286
  736MOL0     H97131   2.173   8.768   6.906 -3.7385 -0.4216  3.0132
  736MOL0     H97132   1.970   8.731   6.787  2.0701 -0.9888 -2.1070
  736MOL0     H97133   1.961   8.651   6.937  1.1302 -1.6494  0.6360
  736MOL0     H97134   2.911   8.538   6.221  3.0237 -0.6132 -2.5137
  736MOL0     H97135   3.133   8.620   6.166  1.1016  1.9015  0.0230
  736MOL0     H97136   3.427   8.758   6.063  2.0179 -0.6304  2.9056
  736MOL0     H97137   3.665   8.793   5.991 -0.3390  0.6988 -2.2375
  736MOL0     H97138   5.401   9.593   6.408  3.4937 -0.7828  0.2007
  736MOL0     H97139   5.645   9.633   6.365  0.4466  1.6651  0.0137
  736MOL0     H97140   5.972   9.867   6.296  1.4375 -0.9297  1.4422
  736MOL0     H97141   6.219   9.924   6.279  0.1962 -0.6567  0.7849
  736MOL0     H97142   6.397   9.953   5.902  0.8596  1.4630  0.5847
  736MOL0     H97143   6.486   9.811   5.941 -2.5244 -0.1876 -0.7068
  736MOL0     H97144   6.594   9.985   6.129  2.3688 -2.1759 -0.1351
  736MOL0     H97145   6.660   9.964   5.966 -0.5123 -0.0464 -2.1239
  736MOL0     H97146   6.489  10.150   5.891  2.6409  1.5787 -1.4601
  736MOL0     H97147   6.636  10.200   5.966 -0.6424  0.6974 -2.1088
  736MOL0     H97148   6.396  10.289   6.052 -0.3312 -0.1234 -0.4693
  736MOL0     H97149   6.423  10.149   6.169  1.2314 -2.3710 -2.2782
  736MOL0     H97150   6.697  10.440   6.284 -0.6305  0.3016  1.0334
  736MOL0     H97151   6.228   9.788   5.878  0.1492  0.2960 -0.5328
  736MOL0     H97152   5.998   9.744   5.877  0.3362 -2.1448  0.5748
  737MOL0     O97153   8.772   0.711   6.726  0.4879 -0.4337  0.3047
  737MOL0     C97154   8.774   0.806   6.799  0.2124 -0.1812  0.0511
  737MOL0     O97155   8.674   0.849   6.881 -0.8027  0.5809 -0.1100
  737MOL0     C97156   8.570   0.756   6.897  0.1146 -0.3929  0.2911
  737MOL0     C97157   8.458   0.763   6.823  0.6179  0.1816  0.0554
  737MOL0     C97158   8.341   0.692   6.862  0.0729  0.0363 -0.4474
  737MOL0     C97159   8.340   0.602   6.964  0.5168 -0.3268  0.2694
  737MOL0     O97160   8.227   0.530   7.002 -0.1554 -0.0182 -0.1925
  737MOL0     C97161   8.105   0.590   6.983 -0.1198 -0.4448  0.4060
  737MOL0     C97162   8.005   0.521   7.070 -0.0215 -0.1565 -0.3468
  737MOL0     C97163   7.863   0.568   7.034 -0.2730  0.1284  0.1575
  737MOL0     C97164   7.764   0.482   7.118 -0.1571  0.5642  0.5808
  737MOL0     C97165   7.625   0.563   7.127 -0.9344  0.8552 -0.7906
  737MOL0     C97166   7.531   0.482   7.233 -0.2660  0.2407 -0.7635
  737MOL0     C97167   7.399   0.546   7.275  0.0510  0.5868 -0.2026
  737MOL0     C97168   7.297   0.577   7.169  0.1518  0.1032  0.3966
  737MOL0     N97169   7.206   0.479   7.114 -0.0663 -0.5492  0.1056
  737MOL0     C97170   7.078   0.494   7.066  0.4220 -0.5353  0.1921
  737MOL0     C97171   7.022   0.370   7.043  1.2802 -0.2101  0.3420
  737MOL0     C97172   6.874   0.344   6.994  0.0894  0.1767  0.2769
  737MOL0     C97173   6.817   0.216   7.050  0.1155  0.4401  0.3523
  737MOL0     C97174   6.687   0.195   6.973  0.0682 -0.4472  0.1372
  737MOL0     C97175   6.600   0.111   7.056  0.4259 -0.6519 -0.0357
  737MOL0     O97176   6.641  -0.032   7.053  0.0084 -0.7956  1.0952
  737MOL0     C97177   6.592  -0.114   6.949  0.1564  0.3303 -0.1619
  737MOL0     C97178   6.615  -0.255   6.953 -0.0889 -0.0035  0.0036
  737MOL0     C97179   6.558  -0.345   6.869 -0.1625  0.8554  0.0068
  737MOL0     C97180   6.476  -0.300   6.763  0.1610  1.0831  0.8077
  737MOL0     C97181   6.421  -0.395   6.659 -0.7118  0.3571 -0.5807
  737MOL0     O97182   6.455  -0.524   6.669  0.0767  0.5149  0.1517
  737MOL0     C97183   6.369  -0.616   6.622 -0.6139  0.3115  0.6016
  737MOL0     C97184   6.408  -0.698   6.514 -0.5648  0.0181 -0.5688
  737MOL0     C97185   6.321  -0.803   6.473  0.0122 -0.1946  0.1952
  737MOL0     C97186   6.193  -0.819   6.535  0.1781 -0.1042 -0.0695
  737MOL0     O97187   6.097  -0.915   6.492 -0.0243 -0.3689 -1.0347
  737MOL0     C97188   6.130  -1.015   6.391  0.5525  0.0363 -0.0976
  737MOL0     C97189   6.015  -1.094   6.318  0.3407 -0.0605  0.6541
  737MOL0     C97190   5.945  -0.998   6.225 -0.5013 -0.5438  0.5585
  737MOL0     C97191   5.817  -1.062   6.173 -0.3865 -0.0296  0.0655
  737MOL0     C97192   5.778  -0.984   6.049 -0.4710  0.4305 -0.5965
  737MOL0     C97193   5.646  -1.021   5.975  0.1544 -0.2442  0.1612
  737MOL0     C97194   5.647  -0.980   5.829  0.5860  0.1438 -0.6731
  737MOL0     C97195   5.509  -0.916   5.788  0.6692  0.1611  0.0262
  737MOL0    Cl97196   5.365  -1.024   5.795  0.3808 -0.1923 -0.3171
  737MOL0     C97197   6.156  -0.727   6.634  0.8106  0.2375  0.3651
  737MOL0     C97198   6.246  -0.626   6.674  0.5940  0.3611  0.1116
  737MOL0     O97199   6.347  -0.340   6.572 -0.2042 -0.3495 -0.4531
  737MOL0     C97200   6.452  -0.162   6.751  0.2564  0.0329 -0.6075
  737MOL0     C97201   6.493  -0.070   6.846  0.7771  0.6468 -0.9332
  737MOL0     N97202   7.124   0.279   7.059  0.2529  0.1466  0.2086
  737MOL0     N97203   7.237   0.345   7.090  1.4877  0.1599  0.3235
  737MOL0     C97204   8.451   0.604   7.050  0.0092 -0.5220  0.4892
  737MOL0     C97205   8.565   0.684   7.017 -0.4435 -0.4090 -1.1013
  737MOL0     C97206   8.879   0.900   6.781 -0.4429  0.6701  0.0484
  737MOL0     C97207   9.006   0.857   6.733 -0.4925 -0.1947  0.2579
  737MOL0     C97208   9.115   0.944   6.737  0.5972 -0.1696 -0.1380
  737MOL0     C97209   9.107   1.072   6.785  0.2805  0.0876 -0.5089
  737MOL0     O97210   9.221   1.162   6.770 -0.0490 -0.2253 -0.4414
  737MOL0     C97211   9.202   1.296   6.711  0.4954 -0.4621 -0.0992
  737MOL0     C97212   9.283   1.407   6.782  0.0410 -0.6977  0.2032
  737MOL0     C97213   9.435   1.390   6.784 -0.2363  0.4647 -0.2871
  737MOL0     C97214   9.491   1.376   6.644  0.6002  0.1884  0.9050
  737MOL0     C97215   9.626   1.320   6.651 -0.1224  0.0190 -1.4360
  737MOL0     C97216   9.740   1.277   6.656  0.2112 -0.1568  0.1539
  737MOL0     C97217   8.993   1.106   6.851 -0.6155 -0.1755  0.1242
  737MOL0     C97218   8.874   1.028   6.841 -0.5437 -0.1332  0.4410
  737MOL0     H97219   8.461   0.823   6.732  4.0676 -3.2372 -2.4287
  737MOL0     H97220   8.255   0.698   6.797 -1.5519 -0.5024  1.5407
  737MOL0     H97221   8.064   0.599   6.882 -2.8667  0.7685  1.5226
  737MOL0     H97222   8.096   0.693   7.020  1.6965 -0.6291  1.4321
  737MOL0     H97223   8.026   0.530   7.177  2.5818  1.5779 -0.9071
  737MOL0     H97224   8.010   0.416   7.042  0.8735  0.3997 -2.4025
  737MOL0     H97225   7.844   0.555   6.928  0.9222  2.0941 -0.3489
  737MOL0     H97226   7.858   0.671   7.073  3.0950  0.0403  1.1603
  737MOL0     H97227   7.745   0.391   7.061  0.8223  1.5183 -1.3549
  737MOL0     H97228   7.800   0.459   7.218 -2.5652  0.8760  1.6013
  737MOL0     H97229   7.573   0.568   7.031  1.3978 -0.1868 -2.1973
  737MOL0     H97230   7.632   0.667   7.160 -1.6121  1.1411 -1.5185
  737MOL0     H97231   7.592   0.472   7.323 -0.6242 -0.8160 -0.6304
  737MOL0     H97232   7.502   0.382   7.199 -4.7552  1.8280 -2.3897
  737MOL0     H97233   7.355   0.472   7.342 -1.5644 -0.1070 -1.9147
  737MOL0     H97234   7.407   0.639   7.333 -0.0547  0.7740 -0.4865
  737MOL0     H97235   7.351   0.626   7.088 -2.9101  1.7661 -0.8151
  737MOL0     H97236   7.226   0.644   7.220 -0.7671  0.9653 -1.8721
  737MOL0     H97237   7.035   0.593   7.079  2.2100  0.4407 -0.9157
  737MOL0     H97238   6.872   0.336   6.885 -1.0983  0.2618  0.2807
  737MOL0     H97239   6.804   0.420   7.028 -1.5578 -1.0829 -0.1836
  737MOL0     H97240   6.800   0.220   7.158  0.4571 -2.0592  0.5474
  737MOL0     H97241   6.885   0.130   7.047  2.0679  1.8491  1.5947
  737MOL0     H97242   6.630   0.288   6.961  3.0708  1.4574 -0.3909
  737MOL0     H97243   6.710   0.159   6.872  2.1928 -2.2745  1.2002
  737MOL0     H97244   6.495   0.116   7.027  0.5666 -0.9091 -0.6150
  737MOL0     H97245   6.601   0.146   7.159  0.0631 -2.2163  0.5302
  737MOL0     H97246   6.685  -0.297   7.024  0.5351  0.3060 -0.4184
  737MOL0     H97247   6.578  -0.451   6.878  0.7130  1.1798  2.9220
  737MOL0     H97248   6.510  -0.703   6.479 -0.2037 -1.7602  0.6021
  737MOL0     H97249   6.367  -0.876   6.407  0.9513  2.5188 -2.3740
  737MOL0     H97250   6.191  -1.092   6.440 -2.7797 -3.5855 -1.1386
  737MOL0     H97251   6.189  -0.964   6.314  0.8169  0.9284  0.6749
  737MOL0     H97252   5.954  -1.161   6.380  0.4420 -1.1070 -0.3414
  737MOL0     H97253   6.069  -1.165   6.255  1.7608  0.8996  0.7367
  737MOL0     H97254   6.020  -0.973   6.150 -1.1301 -1.1173 -0.2707
  737MOL0     H97255   5.917  -0.906   6.279 -0.0861 -0.6002  0.8723
  737MOL0     H97256   5.844  -1.163   6.145  0.3766  0.8565 -2.6402
  737MOL0     H97257   5.730  -1.062   6.240 -1.2841  2.2769 -0.9811
  737MOL0     H97258   5.871  -0.991   5.991  0.7479  1.7710  1.0846
  737MOL0     H97259   5.758  -0.883   6.083 -2.1189  0.4038 -1.4170
  737MOL0     H97260   5.559  -0.972   6.019  1.4750  0.1233  2.5390
  737MOL0     H97261   5.636  -1.130   5.986 -2.6639 -0.3574 -2.2719
  737MOL0     H97262   5.722  -0.904   5.804  1.4880 -0.7234 -0.6747
  737MOL0     H97263   5.662  -1.062   5.759 -1.2213 -1.1089  0.3507
  737MOL0     H97264   5.518  -0.879   5.686 -1.8714  0.5683 -0.1363
  737MOL0     H97265   5.485  -0.831   5.853  2.8540 -0.2177  1.4334
  737MOL0     H97266   6.054  -0.735   6.670 -0.4945 -0.9103 -3.1759
  737MOL0     H97267   6.208  -0.565   6.755 -0.8366  0.6089 -0.7124
  737MOL0     H97268   6.393  -0.117   6.672 -2.7200  0.2810  1.5795
  737MOL0     H97269   6.462   0.034   6.854 -2.1752 -0.2511  1.2766
  737MOL0     H97270   8.445   0.545   7.141 -3.0744  0.7137  1.2323
  737MOL0     H97271   8.653   0.667   7.079  0.1970  2.7039 -1.0057
  737MOL0     H97272   9.009   0.757   6.690  3.8720  0.6761 -2.0507
  737MOL0     H97273   9.213   0.910   6.705  1.0775 -1.3208  2.3244
  737MOL0     H97274   9.096   1.322   6.719 -0.5253 -3.3230 -2.2688
  737MOL0     H97275   9.220   1.298   6.603  0.9839  1.4333 -0.0230
  737MOL0     H97276   9.258   1.510   6.755 -0.7130 -0.6862  0.8831
  737MOL0     H97277   9.257   1.404   6.889  1.6497 -2.2355  0.6081
  737MOL0     H97278   9.457   1.303   6.847  0.8239  2.2290  1.9203
  737MOL0     H97279   9.475   1.470   6.847 -1.7196  1.7745 -0.9534
  737MOL0     H97280   9.424   1.314   6.583  0.4628  2.2224 -1.1235
  737MOL0     H97281   9.487   1.479   6.609 -2.2208  0.0640  0.6574
  737MOL0     H97282   9.842   1.252   6.638 -0.3389  0.1554 -4.6165
  737MOL0     H97283   8.999   1.205   6.894 -1.1721 -0.6784  1.3974
  737MOL0     H97284   8.787   1.067   6.893 -0.1595  0.2254  0.8273
  738MOL0     O97285   8.747   9.272   0.501 -0.1578 -0.2336 -0.1763
  738MOL0     C97286   8.823   9.269   0.601 -0.2609  0.0006  0.0965
  738MOL0     O97287   8.787   9.256   0.732 -0.1841  0.3171 -0.1457
  738MOL0     C97288   8.649   9.246   0.758 -0.2627  0.3589  0.8758
  738MOL0     C97289   8.584   9.129   0.790 -1.1833  0.2606  0.8927
  738MOL0     C97290   8.447   9.131   0.822 -0.4108 -0.6706 -0.3700
  738MOL0     C97291   8.383   9.254   0.840  0.1762 -0.3269  1.2617
  738MOL0     O97292   8.249   9.273   0.878 -0.3034  0.8286  0.3064
  738MOL0     C97293   8.171   9.157   0.909 -0.4462 -0.5117 -0.9771
  738MOL0     C97294   8.026   9.219   0.923  0.6864  1.3488 -0.4385
  738MOL0     C97295   7.938   9.108   0.989 -0.6787 -0.2590  0.3191
  738MOL0     C97296   7.785   9.152   0.998  0.1935 -1.1964 -0.4352
  738MOL0     C97297   7.691   9.043   1.046 -0.7867 -0.0304  0.0582
  738MOL0     C97298   7.641   8.950   0.935 -0.4685  0.0749  1.0632
  738MOL0     C97299   7.505   8.881   0.981 -0.8697 -0.4303 -0.5325
  738MOL0     C97300   7.453   8.782   0.877  0.5489  0.2705 -0.7860
  738MOL0     N97301   7.328   8.724   0.929  0.2940  0.2128  0.3038
  738MOL0     C97302   7.218   8.800   0.951  0.4805  0.2846  0.6674
  738MOL0     C97303   7.134   8.727   1.033 -0.5457  0.1476 -0.1986
  738MOL0     C97304   7.006   8.765   1.095  0.0434  0.4153 -0.3398
  738MOL0     C97305   7.025   8.805   1.239  0.1917 -0.1226 -0.2162
  738MOL0     C97306   7.077   8.954   1.257 -0.9924 -0.6580  0.3502
  738MOL0     C97307   7.075   9.016   1.402 -0.3999 -0.1605  0.0419
  738MOL0     O97308   7.181   8.968   1.477 -0.5184  0.3439 -0.8739
  738MOL0     C97309   7.308   9.019   1.453 -0.8768 -0.4349  0.7731
  738MOL0     C97310   7.339   9.136   1.382  0.0855 -0.0309 -0.2106
  738MOL0     C97311   7.462   9.186   1.369 -0.5221 -0.2477 -0.0580
  738MOL0     C97312   7.574   9.105   1.418  0.5453  0.2846  1.2082
  738MOL0     C97313   7.708   9.154   1.393 -0.3052 -0.4351  0.6883
  738MOL0     O97314   7.739   9.287   1.352 -0.1427 -0.6179 -0.0261
  738MOL0     C97315   7.869   9.324   1.334 -0.1997  0.1121  0.1421
  738MOL0     C97316   7.903   9.415   1.229 -0.8687  0.4467 -0.0532
  738MOL0     C97317   8.034   9.472   1.224  0.2755  0.1804 -0.5958
  738MOL0     C97318   8.132   9.440   1.317  0.1280  0.6052  0.1179
  738MOL0     O97319   8.256   9.493   1.299 -0.0863 -0.2056 -0.7504
  738MOL0     C97320   8.327   9.425   1.191 -0.8883  0.5515  0.0108
  738MOL0     C97321   8.474   9.468   1.222 -0.4566 -0.4026  0.0327
  738MOL0     C97322   8.557   9.396   1.117 -0.1241 -0.3883  0.4935
  738MOL0     C97323   8.699   9.420   1.152 -0.5734  0.0754  0.2662
  738MOL0     C97324   8.789   9.342   1.044  0.1427 -0.2123 -0.3051
  738MOL0     C97325   8.933   9.309   1.089 -0.3394  0.4050 -0.6062
  738MOL0     C97326   9.016   9.429   1.144 -0.1753 -0.3434 -0.2996
  738MOL0     C97327   9.158   9.398   1.190  0.1708  0.3257 -0.3859
  738MOL0    Cl97328   9.286   9.411   1.076  0.0436  0.3370 -0.0130
  738MOL0     C97329   8.112   9.342   1.404  0.7502  0.1420 -0.6662
  738MOL0     C97330   7.975   9.295   1.422 -0.0142  0.1564 -0.5140
  738MOL0     O97331   7.796   9.069   1.388 -0.3346  0.2172  0.5693
  738MOL0     C97332   7.533   8.992   1.489 -0.2154 -0.3541  0.7023
  738MOL0     C97333   7.412   8.954   1.511  0.0993 -0.0582  1.4669
  738MOL0     N97334   7.203   8.608   1.045  0.1938 -0.9105 -0.4452
  738MOL0     N97335   7.319   8.613   1.002  0.1838  0.4650  0.4712
  738MOL0     C97336   8.454   9.373   0.815  0.3454 -0.0876 -0.0536
  738MOL0     C97337   8.585   9.368   0.761  0.7007 -0.3674  0.0763
  738MOL0     C97338   8.965   9.263   0.579 -0.5020  0.1893  0.7156
  738MOL0     C97339   9.023   9.243   0.454  0.4720  0.4826  0.4346
  738MOL0     C97340   9.159   9.233   0.432 -0.2438 -0.0871  0.1251
  738MOL0     C97341   9.240   9.244   0.545 -0.7142 -0.3005  0.5909
  738MOL0     O97342   9.376   9.254   0.516  0.4156  0.5144 -0.0394
  738MOL0     C97343   9.451   9.157   0.592  0.0450 -0.3155 -1.0757
  738MOL0     C97344   9.557   9.090   0.495  0.0075  0.5149  0.6843
  738MOL0     C97345   9.684   9.171   0.481  0.1160 -0.4369 -0.2490
  738MOL0     C97346   9.804   9.084   0.454 -0.1879 -0.7706 -0.5941
  738MOL0     C97347   9.843   8.974   0.548  1.0775 -0.4760  0.6592
  738MOL0     C97348   9.897   8.885   0.614 -1.1141  0.6401 -0.0927
  738MOL0     C97349   9.185   9.251   0.677 -0.2815  0.4199  0.4816
  738MOL0     C97350   9.047   9.269   0.693 -0.1683 -0.2606  0.5164
  738MOL0     H97351   8.626   9.029   0.786 -2.1458 -0.1561  0.9228
  738MOL0     H97352   8.394   9.037   0.834  2.7349 -2.5984 -0.4431
  738MOL0     H97353   8.200   9.105   1.001 -1.3197 -0.8880 -0.9074
  738MOL0     H97354   8.172   9.090   0.822 -1.3764 -0.1086 -1.3048
  738MOL0     H97355   7.984   9.238   0.824  2.9025 -2.1988 -2.2615
  738MOL0     H97356   8.027   9.311   0.981  1.6553  0.7554  0.5330
  738MOL0     H97357   7.975   9.083   1.089  2.3979  2.1457 -0.0936
  738MOL0     H97358   7.939   9.017   0.929 -1.2166 -0.7741  1.0703
  738MOL0     H97359   7.783   9.226   1.078  1.6477 -0.9617 -0.5839
  738MOL0     H97360   7.749   9.198   0.906  0.2831 -0.6969 -0.2248
  738MOL0     H97361   7.610   9.094   1.100  0.3008  1.4475  0.3609
  738MOL0     H97362   7.742   8.984   1.123 -2.3937  0.2438  1.4010
  738MOL0     H97363   7.724   8.879   0.922 -1.2835 -1.1279  2.1003
  738MOL0     H97364   7.618   9.002   0.842  1.2516 -0.2454  0.4208
  738MOL0     H97365   7.524   8.832   1.077  1.4122  2.3340  0.5549
  738MOL0     H97366   7.434   8.959   1.010  0.3239  0.5200 -0.0981
  738MOL0     H97367   7.529   8.706   0.856  1.6030  1.8059 -2.8788
  738MOL0     H97368   7.423   8.824   0.781  1.5180  1.1325 -0.7310
  738MOL0     H97369   7.199   8.901   0.915  1.4635  0.6441  1.1202
  738MOL0     H97370   6.934   8.682   1.086  0.1188  0.3611 -0.4366
  738MOL0     H97371   6.969   8.852   1.040  0.7897  0.5475 -0.6404
  738MOL0     H97372   7.081   8.723   1.286 -0.0007 -0.7148 -1.0008
  738MOL0     H97373   6.928   8.797   1.289 -1.2224  0.8955 -2.6336
  738MOL0     H97374   7.174   8.978   1.213 -0.7075  0.6744  1.6260
  738MOL0     H97375   7.019   9.016   1.187  3.8018  2.9822 -0.9514
  738MOL0     H97376   6.982   8.984   1.448 -0.9974  0.8706 -0.4231
  738MOL0     H97377   7.073   9.124   1.387 -2.8857 -0.2813 -0.8758
  738MOL0     H97378   7.271   9.203   1.331  0.6924  1.0024  0.3227
  738MOL0     H97379   7.484   9.269   1.302  3.6340  0.2283  1.6112
  738MOL0     H97380   7.832   9.423   1.148  0.9763  0.3237 -1.7436
  738MOL0     H97381   8.070   9.542   1.149  0.6614  1.2117  0.5125
  738MOL0     H97382   8.292   9.455   1.093 -1.6697  2.9447  0.9626
  738MOL0     H97383   8.328   9.316   1.204  2.7479  0.2183 -1.7038
  738MOL0     H97384   8.502   9.433   1.323  1.3113 -1.9526 -0.9189
  738MOL0     H97385   8.482   9.576   1.215  0.2689 -0.4305  0.2978
  738MOL0     H97386   8.538   9.446   1.022 -0.1159  0.1917  0.7891
  738MOL0     H97387   8.537   9.289   1.116 -0.8925 -0.3023  2.4488
  738MOL0     H97388   8.718   9.527   1.161 -0.2456 -0.1316  2.8296
  738MOL0     H97389   8.726   9.383   1.252 -0.5072 -0.7185 -0.0318
  738MOL0     H97390   8.793   9.404   0.954  1.1372 -0.9680 -0.8125
  738MOL0     H97391   8.735   9.252   1.013 -0.9212  1.2808 -3.1876
  738MOL0     H97392   8.984   9.254   1.009  1.1548 -0.3854  0.8148
  738MOL0     H97393   8.932   9.230   1.165 -0.1203  1.7043  0.7962
  738MOL0     H97394   9.017   9.502   1.063  1.1983 -1.0929 -1.0023
  738MOL0     H97395   8.961   9.478   1.225  2.7637 -0.6320  2.0649
  738MOL0     H97396   9.148   9.303   1.242 -3.5812  2.3003  3.1640
  738MOL0     H97397   9.181   9.476   1.264 -1.1850  1.3259 -0.9562
  738MOL0     H97398   8.195   9.310   1.466  0.8236 -0.9469 -1.3081
  738MOL0     H97399   7.946   9.226   1.500 -0.7865  2.4755  1.3733
  738MOL0     H97400   7.610   8.925   1.529 -0.4085 -0.3146  1.1484
  738MOL0     H97401   7.396   8.861   1.566 -1.0165 -0.1385  1.0260
  738MOL0     H97402   8.410   9.470   0.835 -2.5302 -1.6568  1.8986
  738MOL0     H97403   8.638   9.461   0.742 -3.9903  2.7197  0.2474
  738MOL0     H97404   8.961   9.242   0.365  1.9228 -0.3667 -0.6191
  738MOL0     H97405   9.209   9.236   0.336  1.4332  3.0050  0.9456
  738MOL0     H97406   9.394   9.082   0.648  0.4123 -1.2507 -1.9331
  738MOL0     H97407   9.496   9.217   0.672  3.5119 -0.8590 -2.4423
  738MOL0     H97408   9.582   8.992   0.536 -1.0389 -1.3275 -2.7078
  738MOL0     H97409   9.512   9.075   0.396 -0.8923 -0.3516  1.2075
  738MOL0     H97410   9.693   9.229   0.573 -1.1522 -3.1677  1.7283
  738MOL0     H97411   9.681   9.241   0.397  4.0605 -0.8321 -0.8832
  738MOL0     H97412   9.784   9.043   0.354 -0.2755  2.0371 -1.8223
  738MOL0     H97413   9.895   9.145   0.462  0.2930 -1.7214  2.7160
  738MOL0     H97414   9.946   8.814   0.678  1.6390  0.5289 -2.1356
  738MOL0     H97415   9.253   9.268   0.759  0.5298 -0.7846  0.0838
  738MOL0     H97416   9.005   9.291   0.791 -1.3650 -1.0573  0.2069
  739MOL0     O97417   2.292  11.290   1.883  0.5851  0.2712 -0.2830
  739MOL0     C97418   2.266  11.406   1.880 -0.3367 -0.0422  0.9193
  739MOL0     O97419   2.203  11.461   1.767  0.1605  0.5711  0.3614
  739MOL0     C97420   2.112  11.393   1.689 -1.0258  0.2939  0.7134
  739MOL0     C97421   2.161  11.332   1.572  0.2418 -1.2181  0.0913
  739MOL0     C97422   2.083  11.273   1.478  0.3820 -0.0088 -0.4708
  739MOL0     C97423   1.947  11.258   1.511  0.4114  0.0739  0.6442
  739MOL0     O97424   1.866  11.188   1.427  0.3092 -0.1840  0.6793
  739MOL0     C97425   1.735  11.155   1.442  0.8604 -0.0618 -0.1359
  739MOL0     C97426   1.639  11.275   1.400  0.1002 -0.7191 -0.2495
  739MOL0     C97427   1.496  11.252   1.435  0.6071  1.0410 -0.5729
  739MOL0     C97428   1.422  11.376   1.389 -0.1313 -0.1678 -0.0907
  739MOL0     C97429   1.272  11.357   1.411 -1.1769 -0.3897  0.2210
  739MOL0     C97430   1.185  11.475   1.372  0.1173  0.2618 -0.1077
  739MOL0     C97431   1.118  11.524   1.508 -0.0672  0.6106  0.4457
  739MOL0     C97432   1.027  11.642   1.481  0.5724  0.3236 -0.0530
  739MOL0     N97433   0.898  11.603   1.423 -0.3633  0.8748  0.1914
  739MOL0     C97434   0.777  11.612   1.486 -0.9659  0.3411 -0.2257
  739MOL0     C97435   0.680  11.591   1.385  0.8320  0.3636 -0.1505
  739MOL0     C97436   0.528  11.569   1.378  0.0493 -0.2578  0.3742
  739MOL0     C97437   0.454  11.693   1.321 -0.0863  0.2678 -0.0570
  739MOL0     C97438   0.310  11.690   1.372  0.0688 -0.2406 -0.3941
  739MOL0     C97439   0.218  11.799   1.317  0.5382  0.4830 -0.2216
  739MOL0     O97440   0.274  11.921   1.361  0.4920 -0.0541  0.0227
  739MOL0     C97441   0.224  12.035   1.300  0.3395 -0.5036  0.7417
  739MOL0     C97442   0.311  12.142   1.251 -0.1877  0.5646 -0.1483
  739MOL0     C97443   0.256  12.262   1.215 -0.4982 -0.0713  0.1566
  739MOL0     C97444   0.118  12.267   1.187 -0.1968 -0.6453  0.7462
  739MOL0     C97445   0.074  12.389   1.118  0.4847 -0.3824  0.8210
  739MOL0     O97446  -0.016  12.367   1.015  0.1282 -0.5907  0.0841
  739MOL0     C97447  -0.069  12.458   0.930 -0.4739 -0.2278  0.1006
  739MOL0     C97448   0.006  12.568   0.892  0.2250  0.0911 -0.3169
  739MOL0     C97449  -0.051  12.666   0.815 -0.3297  0.6171  0.5365
  739MOL0     C97450  -0.178  12.663   0.761  0.7961  0.5512  0.3678
  739MOL0     O97451  -0.218  12.769   0.681 -1.2415 -0.3668  0.2537
  739MOL0     C97452  -0.353  12.801   0.663  0.3026 -0.2032  0.1026
  739MOL0     C97453  -0.354  12.935   0.572  0.7430  1.0064 -0.6443
  739MOL0     C97454  -0.490  12.942   0.503 -0.7177 -0.2602  1.2470
  739MOL0     C97455  -0.605  12.948   0.598  1.0786 -0.2208 -0.3614
  739MOL0     C97456  -0.727  13.017   0.536  0.2504 -0.3684 -0.9178
  739MOL0     C97457  -0.852  13.026   0.620 -0.1975  0.2676  0.7037
  739MOL0     C97458  -0.980  13.031   0.536  0.0968  0.0712 -0.3475
  739MOL0     C97459  -1.112  13.026   0.619 -0.1435  0.7920 -0.6355
  739MOL0    Cl97460  -1.259  13.055   0.517  0.0272 -0.0253 -0.5402
  739MOL0     C97461  -0.251  12.543   0.795 -1.2447 -0.1302 -0.4723
  739MOL0     C97462  -0.198  12.441   0.884  0.0841 -0.4588 -0.6187
  739MOL0     O97463   0.128  12.497   1.153 -0.3193 -0.0967  0.6906
  739MOL0     C97464   0.032  12.160   1.226  1.4107  0.4137 -0.0794
  739MOL0     C97465   0.086  12.048   1.282  0.8606 -1.0712 -1.5895
  739MOL0     N97466   0.741  11.590   1.264 -0.0934 -0.6618  0.5956
  739MOL0     N97467   0.867  11.613   1.285 -0.8167  0.2013 -0.0336
  739MOL0     C97468   1.892  11.318   1.621  0.4714 -0.5282 -0.2737
  739MOL0     C97469   1.976  11.378   1.715 -0.2383  0.2431  0.0495
  739MOL0     C97470   2.341  11.504   1.961  0.4843  1.1258 -0.7576
  739MOL0     C97471   2.447  11.462   2.040  0.0880  0.1154 -0.0273
  739MOL0     C97472   2.521  11.561   2.110 -0.4900  0.9293  0.4815
  739MOL0     C97473   2.487  11.694   2.112 -0.3282 -0.2801 -0.3569
  739MOL0     O97474   2.545  11.792   2.190 -0.2363  0.4635 -0.7350
  739MOL0     C97475   2.532  11.785   2.340  0.2637 -0.8825  0.1695
  739MOL0     C97476   2.632  11.696   2.410 -0.4362 -0.3632 -0.7853
  739MOL0     C97477   2.679  11.738   2.549  0.7189 -0.4261  0.0124
  739MOL0     C97478   2.566  11.722   2.648 -0.1713  0.1732 -0.5293
  739MOL0     C97479   2.609  11.780   2.781  0.2026  0.0042  0.1185
  739MOL0     C97480   2.644  11.842   2.882 -0.4697  0.3868  0.2427
  739MOL0     C97481   2.383  11.726   2.037  0.4897  0.3415 -1.0301
  739MOL0     C97482   2.312  11.638   1.959 -0.6032 -0.1151  0.7497
  739MOL0     H97483   2.267  11.344   1.549 -0.0890 -2.7393 -2.5031
  739MOL0     H97484   2.135  11.229   1.394  1.9379  0.8254  0.0061
  739MOL0     H97485   1.709  11.131   1.546 -0.9468 -0.0149 -0.5324
  739MOL0     H97486   1.702  11.070   1.382  1.1128 -1.2720  1.3743
  739MOL0     H97487   1.642  11.304   1.294  1.0443  0.7707  0.1485
  739MOL0     H97488   1.662  11.369   1.451  2.1502  0.3033 -2.8156
  739MOL0     H97489   1.476  11.251   1.543 -3.8157 -4.6539 -0.9726
  739MOL0     H97490   1.464  11.156   1.394 -1.8490  1.0045  1.2175
  739MOL0     H97491   1.457  11.445   1.468  2.9220 -1.5833 -0.0701
  739MOL0     H97492   1.451  11.412   1.290  3.2191 -2.4521 -0.1151
  739MOL0     H97493   1.254  11.338   1.518 -0.2384  1.5046  0.7646
  739MOL0     H97494   1.239  11.273   1.349 -2.3465  1.0189 -1.1468
  739MOL0     H97495   1.122  11.435   1.292  0.4096 -1.2870  0.3960
  739MOL0     H97496   1.241  11.562   1.338  0.2691  0.5149  0.7665
  739MOL0     H97497   1.068  11.439   1.555  1.9833  0.2903  2.2031
  739MOL0     H97498   1.199  11.556   1.574  0.9014  1.3338 -1.0147
  739MOL0     H97499   1.091  11.712   1.426  3.8803  0.0010  3.0557
  739MOL0     H97500   1.001  11.691   1.575 -2.3250 -1.1907  0.0288
  739MOL0     H97501   0.760  11.597   1.592 -1.5126 -1.1683 -0.4915
  739MOL0     H97502   0.498  11.553   1.482  3.7418 -2.2473  1.3286
  739MOL0     H97503   0.501  11.476   1.327 -1.0230  0.2043  0.0648
  739MOL0     H97504   0.451  11.683   1.212 -0.3610  0.3251 -0.0541
  739MOL0     H97505   0.493  11.792   1.344 -1.7370  0.1851  3.7861
  739MOL0     H97506   0.260  11.597   1.345 -0.4729 -0.8186  2.2960
  739MOL0     H97507   0.309  11.705   1.480 -0.1720  1.7846 -0.6325
  739MOL0     H97508   0.119  11.792   1.363 -1.3155  0.7428 -3.8161
  739MOL0     H97509   0.207  11.784   1.209  1.6781 -0.7434 -0.2000
  739MOL0     H97510   0.417  12.122   1.267  0.0991  1.3273 -0.9813
  739MOL0     H97511   0.317  12.348   1.189  2.2363  0.3414  6.1875
  739MOL0     H97512   0.110  12.582   0.918  0.2175 -0.3926 -0.0235
  739MOL0     H97513   0.010  12.754   0.799  0.0226  0.8110  2.5940
  739MOL0     H97514  -0.396  12.821   0.761 -0.3150  0.5367 -0.3052
  739MOL0     H97515  -0.396  12.719   0.605 -1.0314 -0.9306  2.0159
  739MOL0     H97516  -0.277  12.929   0.495  0.5086  0.3115 -0.8374
  739MOL0     H97517  -0.334  13.023   0.634 -2.3910  1.3080  0.1414
  739MOL0     H97518  -0.514  12.862   0.432 -5.2549  2.9271 -1.2944
  739MOL0     H97519  -0.477  13.021   0.428 -3.8074 -2.0015 -1.3826
  739MOL0     H97520  -0.633  12.848   0.632  0.1706  0.2017  0.1784
  739MOL0     H97521  -0.571  13.017   0.675 -0.8718  1.2531 -0.7297
  739MOL0     H97522  -0.741  12.962   0.442  0.3617 -2.3257  0.1757
  739MOL0     H97523  -0.710  13.119   0.499 -1.4467  0.5541  0.6956
  739MOL0     H97524  -0.839  13.115   0.681 -2.7104  0.5759  0.9004
  739MOL0     H97525  -0.866  12.946   0.693  2.3929 -0.4655  0.4922
  739MOL0     H97526  -0.979  13.124   0.479  0.6907  1.1897  1.4142
  739MOL0     H97527  -0.984  12.944   0.470 -0.8706 -0.8546  0.8747
  739MOL0     H97528  -1.118  13.108   0.691 -0.5724 -0.7285  1.1529
  739MOL0     H97529  -1.116  12.935   0.679  3.2943  0.8477 -0.0894
  739MOL0     H97530  -0.343  12.518   0.743 -0.9563 -0.8908 -0.6328
  739MOL0     H97531  -0.253  12.351   0.912  1.5396 -1.4497 -0.7965
  739MOL0     H97532  -0.072  12.149   1.197  2.3686 -3.9608 -2.8773
  739MOL0     H97533   0.026  11.972   1.331  1.1734 -0.4055 -0.1389
  739MOL0     H97534   1.787  11.310   1.650  0.2501  0.2976 -0.7959
  739MOL0     H97535   1.937  11.425   1.804  0.1840  2.3114 -0.8205
  739MOL0     H97536   2.478  11.358   2.051 -0.5771  0.0103  0.9169
  739MOL0     H97537   2.610  11.527   2.162  0.6023  1.9800 -0.6226
  739MOL0     H97538   2.433  11.752   2.373 -0.8663 -0.1234 -2.2171
  739MOL0     H97539   2.538  11.886   2.379  0.1017 -1.3043  1.3161
  739MOL0     H97540   2.604  11.590   2.415 -0.9295 -0.1992  0.1619
  739MOL0     H97541   2.722  11.699   2.347 -0.5080  3.0521 -0.8695
  739MOL0     H97542   2.708  11.843   2.537 -1.2615  0.1224 -0.3440
  739MOL0     H97543   2.767  11.680   2.579  0.2766 -0.7028  0.8160
  739MOL0     H97544   2.472  11.766   2.616  0.3830  0.6257 -1.5884
  739MOL0     H97545   2.548  11.614   2.653 -0.6586  0.2082 -1.3942
  739MOL0     H97546   2.673  11.903   2.965 -2.1023  2.2708 -0.5004
  739MOL0     H97547   2.346  11.827   2.030 -2.2411 -0.4711  0.4090
  739MOL0     H97548   2.237  11.674   1.890  1.0745  0.3854 -0.8706
  740MOL0     O97549   3.193   9.104   2.663 -0.0067  0.4596  0.5072
  740MOL0     C97550   3.245   9.019   2.588  0.2030 -0.2597 -0.2748
  740MOL0     O97551   3.171   8.943   2.496 -0.1111  0.4517 -0.2142
  740MOL0     C97552   3.034   8.937   2.509  0.1661  0.0546 -0.6237
  740MOL0     C97553   2.982   8.868   2.621  0.2169  0.2008  0.0772
  740MOL0     C97554   2.849   8.862   2.640  0.0706  0.3508 -0.7624
  740MOL0     C97555   2.753   8.925   2.557  0.3530 -0.3802 -0.1196
  740MOL0     O97556   2.614   8.923   2.567  0.2868  0.1869 -0.8445
  740MOL0     C97557   2.562   8.911   2.707  0.3227  0.0339  0.8009
  740MOL0     C97558   2.408   8.920   2.705 -0.9311 -0.3024  0.3075
  740MOL0     C97559   2.344   8.911   2.837  0.3559  0.5393  0.3987
  740MOL0     C97560   2.198   8.957   2.838 -0.2469  0.2507 -0.1746
  740MOL0     C97561   2.125   8.853   2.928  0.9350  0.4901 -0.0617
  740MOL0     C97562   1.974   8.864   2.949 -0.4887  0.7395  0.5282
  740MOL0     C97563   1.935   8.989   3.033 -0.0222  0.2285  0.0125
  740MOL0     C97564   1.894   8.968   3.177  0.3632  0.5209 -0.7131
  740MOL0     N97565   1.776   8.877   3.186  0.1357 -1.1271  0.5330
  740MOL0     C97566   1.652   8.908   3.129  1.2833 -0.4242  0.5770
  740MOL0     C97567   1.566   8.813   3.184  0.0206 -0.6943  0.2631
  740MOL0     C97568   1.418   8.783   3.155  0.0148 -0.3001 -0.2177
  740MOL0     C97569   1.346   8.842   3.276  0.3977 -0.7592 -0.2278
  740MOL0     C97570   1.195   8.831   3.261  0.6046  0.3452  0.2345
  740MOL0     C97571   1.153   8.698   3.321  0.4176 -0.6113 -0.1775
  740MOL0     O97572   1.009   8.696   3.315  0.1028 -0.2935  0.3797
  740MOL0     C97573   0.948   8.574   3.344  0.0934 -0.1831 -0.3961
  740MOL0     C97574   1.012   8.452   3.370  0.0230  0.3790  0.2160
  740MOL0     C97575   0.952   8.333   3.392  0.1785  0.8193  0.5712
  740MOL0     C97576   0.811   8.325   3.389  1.3025 -0.3670 -0.0889
  740MOL0     C97577   0.730   8.197   3.415 -0.4835  0.1370 -0.3089
  740MOL0     O97578   0.602   8.195   3.386 -0.1660 -0.0310  0.5695
  740MOL0     C97579   0.527   8.080   3.399 -0.0652  0.1204 -0.0633
  740MOL0     C97580   0.556   7.949   3.333 -0.1219  0.0273 -0.0807
  740MOL0     C97581   0.460   7.850   3.328  0.3039  1.0138 -0.0820
  740MOL0     C97582   0.347   7.867   3.398 -0.7308 -0.8726  0.7315
  740MOL0     O97583   0.267   7.749   3.409  0.6770 -0.3314  0.0891
  740MOL0     C97584   0.173   7.733   3.514  0.5174  0.0136 -0.7310
  740MOL0     C97585   0.130   7.585   3.518 -0.2553  0.1166 -0.2244
  740MOL0     C97586   0.020   7.550   3.413  0.0145  0.8014  0.6463
  740MOL0     C97587  -0.044   7.410   3.440 -0.9639 -0.6555 -0.5767
  740MOL0     C97588  -0.115   7.363   3.306  0.1727  0.0093 -0.3385
  740MOL0     C97589  -0.126   7.213   3.328 -0.1468  0.6896 -0.7624
  740MOL0     C97590  -0.006   7.137   3.274  0.4944  0.2598  0.0726
  740MOL0     C97591  -0.032   6.988   3.258 -0.3868 -0.0164 -0.1464
  740MOL0    Cl97592  -0.150   6.943   3.121 -0.5602  0.2313  0.1635
  740MOL0     C97593   0.320   7.987   3.466 -0.0455  0.2460  0.0404
  740MOL0     C97594   0.402   8.099   3.455  0.6870 -0.7034  0.8100
  740MOL0     O97595   0.798   8.101   3.453 -0.2799  0.2873  0.1050
  740MOL0     C97596   0.742   8.448   3.356  0.4456 -0.9018 -1.0463
  740MOL0     C97597   0.812   8.567   3.334 -0.0992 -0.4525 -0.4080
  740MOL0     N97598   1.636   8.736   3.268  0.7303  1.1746  0.2726
  740MOL0     N97599   1.757   8.766   3.265 -0.4475  0.8616  0.3017
  740MOL0     C97600   2.808   9.000   2.448  0.4712  0.6649 -0.4956
  740MOL0     C97601   2.949   8.996   2.425  0.1492 -0.8235  0.1057
  740MOL0     C97602   3.393   9.010   2.599  0.2400  0.3981 -0.5340
  740MOL0     C97603   3.460   9.057   2.716 -0.7208  0.4917 -0.0012
  740MOL0     C97604   3.600   9.046   2.724  0.1291 -0.5813 -0.6249
  740MOL0     C97605   3.678   8.987   2.625 -0.3826  0.4178 -0.0573
  740MOL0     O97606   3.819   8.977   2.652 -0.0057  1.4687  0.3325
  740MOL0     C97607   3.896   8.887   2.564 -0.0390 -0.3326  0.5468
  740MOL0     C97608   4.048   8.885   2.609 -0.0259 -0.3248  0.5327
  740MOL0     C97609   4.057   8.783   2.731  0.4844 -0.0494  0.2743
  740MOL0     C97610   4.170   8.819   2.826  0.7606  1.7098 -0.4651
  740MOL0     C97611   4.220   8.715   2.915 -0.3562  0.4686  0.8530
  740MOL0     C97612   4.278   8.629   2.981  0.6612  0.1768 -0.9318
  740MOL0     C97613   3.598   8.921   2.520 -0.3234 -0.8855  0.2769
  740MOL0     C97614   3.463   8.942   2.506  0.1089 -0.3922  0.2228
  740MOL0     H97615   3.052   8.825   2.692  1.1418  0.6538 -0.5352
  740MOL0     H97616   2.824   8.819   2.737  4.8086  0.7555  0.8852
  740MOL0     H97617   2.602   8.992   2.770  0.5953  1.1969 -0.7982
  740MOL0     H97618   2.583   8.814   2.753  0.0265 -0.4088  0.0108
  740MOL0     H97619   2.371   8.842   2.638 -0.9335  0.6826 -0.8607
  740MOL0     H97620   2.377   9.017   2.664 -0.8254 -0.3117  0.2033
  740MOL0     H97621   2.395   8.971   2.913 -1.0346  4.0381 -1.1749
  740MOL0     H97622   2.353   8.805   2.862 -1.4362  0.2239 -0.1612
  740MOL0     H97623   2.192   9.052   2.892  2.1018 -0.7282  2.0037
  740MOL0     H97624   2.136   8.971   2.749 -0.5536 -0.4046 -0.0777
  740MOL0     H97625   2.172   8.872   3.025 -0.2403  0.9103  0.4449
  740MOL0     H97626   2.149   8.751   2.895 -0.2347  0.0267  0.4290
  740MOL0     H97627   1.954   8.765   2.990  0.6369 -0.1321 -0.9196
  740MOL0     H97628   1.923   8.875   2.852 -2.8044  1.3277  1.7561
  740MOL0     H97629   2.019   9.059   3.046  0.4601 -0.3275 -0.0735
  740MOL0     H97630   1.871   9.046   2.965 -0.5091  1.1764  1.2095
  740MOL0     H97631   1.862   9.059   3.230  2.0387 -1.6668  4.7312
  740MOL0     H97632   1.980   8.930   3.233  0.5527  1.2774 -0.4799
  740MOL0     H97633   1.619   8.972   3.049 -0.6516 -3.0825 -0.9315
  740MOL0     H97634   1.407   8.675   3.142 -2.5421 -0.0959 -0.1332
  740MOL0     H97635   1.387   8.834   3.063 -0.8863 -1.0183 -0.3150
  740MOL0     H97636   1.378   8.944   3.300 -0.3257 -0.2030 -1.5489
  740MOL0     H97637   1.382   8.795   3.368  1.7880 -1.2346 -0.9926
  740MOL0     H97638   1.145   8.914   3.313 -1.5631 -0.4136 -0.4984
  740MOL0     H97639   1.162   8.845   3.158 -1.7508  2.0543  1.1211
  740MOL0     H97640   1.194   8.684   3.422  0.2012  1.7889  0.3004
  740MOL0     H97641   1.189   8.615   3.261  0.1839 -1.3659  0.7012
  740MOL0     H97642   1.120   8.446   3.382 -0.0315 -1.4385  0.0597
  740MOL0     H97643   1.021   8.252   3.418 -0.9906 -0.1866  0.6360
  740MOL0     H97644   0.639   7.943   3.264 -0.6061  0.6497 -0.7313
  740MOL0     H97645   0.463   7.755   3.275  1.2114  0.9168  0.1287
  740MOL0     H97646   0.081   7.791   3.505  1.0100  1.3850  2.1928
  740MOL0     H97647   0.213   7.750   3.614 -2.5841  1.2717  0.4099
  740MOL0     H97648   0.086   7.567   3.617 -0.4420 -1.2847 -0.5305
  740MOL0     H97649   0.215   7.516   3.511 -1.7184 -1.9218  0.8455
  740MOL0     H97650   0.073   7.550   3.318 -0.8136  1.0618  0.1682
  740MOL0     H97651  -0.056   7.629   3.425 -0.6521  0.3093 -0.2475
  740MOL0     H97652   0.036   7.340   3.467  1.2315  1.8039 -0.3438
  740MOL0     H97653  -0.113   7.423   3.524  1.3171  3.0678  0.9649
  740MOL0     H97654  -0.062   7.384   3.212 -0.4167  0.8362 -0.5020
  740MOL0     H97655  -0.213   7.410   3.295  0.5649  1.1089  0.6029
  740MOL0     H97656  -0.210   7.169   3.272  1.4902 -1.9333 -1.3086
  740MOL0     H97657  -0.130   7.190   3.435  1.7664  0.2430 -0.7590
  740MOL0     H97658   0.009   7.169   3.170 -1.1693  2.7913  0.5132
  740MOL0     H97659   0.082   7.147   3.338 -0.2668 -0.1722  1.2322
  740MOL0     H97660  -0.084   6.962   3.351 -2.0267 -0.2465 -1.0734
  740MOL0     H97661   0.057   6.928   3.240 -0.2227  0.3817 -0.6938
  740MOL0     H97662   0.226   7.999   3.518 -0.2273 -0.3441 -0.1461
  740MOL0     H97663   0.366   8.196   3.489  1.3285 -0.1135 -0.1356
  740MOL0     H97664   0.634   8.451   3.343  0.4836 -0.2721 -1.2750
  740MOL0     H97665   0.775   8.663   3.300 -1.0095  0.1531  2.0297
  740MOL0     H97666   2.744   9.057   2.381  3.0414  2.7169 -1.3353
  740MOL0     H97667   2.988   9.051   2.339 -0.0257  2.5968  2.0315
  740MOL0     H97668   3.399   9.111   2.788 -1.0035 -0.0698  0.1872
  740MOL0     H97669   3.645   9.063   2.821 -4.0313 -3.4255  2.1613
  740MOL0     H97670   3.889   8.911   2.458  2.2666 -0.4393  0.3133
  740MOL0     H97671   3.869   8.781   2.575  0.9691 -0.8270 -1.3661
  740MOL0     H97672   4.110   8.847   2.528  0.2291 -1.6874  1.3433
  740MOL0     H97673   4.082   8.981   2.649  0.3531 -0.5723  0.8062
  740MOL0     H97674   4.070   8.686   2.683 -1.5510  0.3023 -1.1077
  740MOL0     H97675   3.966   8.789   2.791  1.0081  1.2230  0.9817
  740MOL0     H97676   4.252   8.847   2.759  3.4564 -1.4283  1.2115
  740MOL0     H97677   4.134   8.909   2.877 -3.9040  0.3485 -0.9786
  740MOL0     H97678   4.331   8.544   3.018 -3.3142 -2.2059 -0.1389
  740MOL0     H97679   3.655   8.864   2.447  0.1574  0.1172 -0.1576
  740MOL0     H97680   3.418   8.892   2.421  0.9492 -1.1049  0.1841
  741MOL0     O97681   2.134   2.681  10.642 -1.2148  0.3457  0.4897
  741MOL0     C97682   2.185   2.569  10.626 -0.5911 -0.2476 -0.8614
  741MOL0     O97683   2.119   2.459  10.583 -0.0739  0.2911  0.4645
  741MOL0     C97684   1.979   2.455  10.581  0.4031 -1.0474 -0.5688
  741MOL0     C97685   1.911   2.380  10.478 -0.2325  0.1928  0.5814
  741MOL0     C97686   1.771   2.370  10.492  0.2199  0.8384  0.2121
  741MOL0     C97687   1.696   2.429  10.594  0.3582  0.5837 -0.2697
  741MOL0     O97688   1.563   2.400  10.629  0.6537  0.1956  0.1459
  741MOL0     C97689   1.490   2.378  10.505 -0.9922 -0.6452 -0.1308
  741MOL0     C97690   1.345   2.414  10.538 -0.0421  0.5323 -0.4961
  741MOL0     C97691   1.284   2.333  10.661 -0.1727  0.6670  0.3867
  741MOL0     C97692   1.139   2.363  10.682  0.1177 -0.6504  0.2952
  741MOL0     C97693   1.060   2.264  10.762  0.3399  0.9809  0.7915
  741MOL0     C97694   0.904   2.282  10.752 -0.2576 -0.0767 -0.3655
  741MOL0     C97695   0.833   2.163  10.809 -0.2174 -0.4575 -0.1369
  741MOL0     C97696   0.689   2.142  10.751 -0.3473 -0.0745 -0.6032
  741MOL0     N97697   0.622   2.270  10.760  0.2259 -0.2444 -0.0240
  741MOL0     C97698   0.582   2.338  10.873  0.0573  1.0706 -0.8727
  741MOL0     C97699   0.495   2.427  10.832  0.0102 -0.8043  0.1746
  741MOL0     C97700   0.419   2.527  10.919  0.4276  0.1408  0.0009
  741MOL0     C97701   0.276   2.485  10.928  0.1564 -0.1457 -0.1843
  741MOL0     C97702   0.246   2.351  10.997 -0.4350 -0.0406 -0.6636
  741MOL0     C97703   0.299   2.333  11.143 -0.9203  0.8744  0.5863
  741MOL0     O97704   0.226   2.419  11.227  1.0004  0.2997  0.1076
  741MOL0     C97705   0.091   2.379  11.244 -0.3689 -0.9812  0.7243
  741MOL0     C97706  -0.005   2.476  11.271  0.3226 -0.3933  0.3812
  741MOL0     C97707  -0.135   2.448  11.308  0.0989 -0.3341  0.7032
  741MOL0     C97708  -0.164   2.313  11.341 -0.7597  0.0460  0.5126
  741MOL0     C97709  -0.303   2.268  11.396  0.3165 -0.1526 -0.0479
  741MOL0     O97710  -0.410   2.362  11.398  0.8340 -0.2781 -0.0121
  741MOL0     C97711  -0.537   2.319  11.418 -0.1640  0.6150 -0.7550
  741MOL0     C97712  -0.613   2.384  11.511  0.1664 -0.7392 -0.4120
  741MOL0     C97713  -0.747   2.352  11.529  0.1713  1.1535 -0.0062
  741MOL0     C97714  -0.805   2.241  11.460 -0.5950  0.1928  1.0110
  741MOL0     O97715  -0.943   2.220  11.478  0.3523 -0.4050 -0.0589
  741MOL0     C97716  -1.005   2.105  11.416  0.8220 -0.8749 -1.0370
  741MOL0     C97717  -1.146   2.092  11.470  0.2092 -0.3731  1.1415
  741MOL0     C97718  -1.252   2.042  11.368 -0.3546 -0.2226 -0.7052
  741MOL0     C97719  -1.394   2.067  11.430 -0.0527 -0.2357  0.2716
  741MOL0     C97720  -1.504   2.001  11.340  0.3211  0.1479 -0.3623
  741MOL0     C97721  -1.636   2.064  11.375  0.0311 -1.1945 -0.3693
  741MOL0     C97722  -1.751   1.978  11.315  0.7429  0.1829  0.1971
  741MOL0     C97723  -1.897   2.039  11.323 -0.0993 -0.4362  0.1207
  741MOL0    Cl97724  -2.032   1.934  11.260 -0.4868 -0.1739  0.0159
  741MOL0     C97725  -0.724   2.170  11.371  0.0611  0.0574  0.1705
  741MOL0     C97726  -0.593   2.208  11.346 -0.5460 -1.0112 -0.2837
  741MOL0     O97727  -0.312   2.150  11.427  0.2384 -0.2898  0.1744
  741MOL0     C97728  -0.068   2.219  11.323  0.0473  0.3773 -0.7653
  741MOL0     C97729   0.055   2.244  11.276  0.1320  0.8527  0.5876
  741MOL0     N97730   0.476   2.419  10.692  0.0957  0.6168  0.1742
  741MOL0     N97731   0.549   2.322  10.656 -0.7372  0.5995 -0.4917
  741MOL0     C97732   1.764   2.510  10.688 -0.5178 -0.3130 -0.1599
  741MOL0     C97733   1.903   2.517  10.676 -0.3259  0.5346  0.1376
  741MOL0     C97734   2.336   2.546  10.653  0.4345 -0.3762  1.1839
  741MOL0     C97735   2.396   2.439  10.585 -0.6626 -0.0520 -0.2802
  741MOL0     C97736   2.533   2.434  10.583 -0.4388  0.1321 -0.1099
  741MOL0     C97737   2.614   2.523  10.651 -0.3828 -0.4177  0.1992
  741MOL0     O97738   2.748   2.500  10.642  0.7527  0.6522  0.3163
  741MOL0     C97739   2.837   2.613  10.639 -0.4987  0.5414  0.0844
  741MOL0     C97740   2.973   2.572  10.662 -0.1503  0.8737  0.8745
  741MOL0     C97741   3.007   2.556  10.810  0.4988  0.3674  0.4067
  741MOL0     C97742   3.153   2.571  10.851  0.1136  0.5244 -0.2002
  741MOL0     C97743   3.212   2.438  10.849 -0.0773 -0.7487 -0.8254
  741MOL0     C97744   3.252   2.325  10.853 -0.7818 -0.3948  0.0517
  741MOL0     C97745   2.544   2.626  10.725 -0.1405  0.3336  0.2825
  741MOL0     C97746   2.408   2.639  10.724  0.1270  0.4260 -0.2254
  741MOL0     H97747   1.960   2.335  10.393  0.3529  1.8563  0.0121
  741MOL0     H97748   1.716   2.305  10.425  1.6069 -2.0466  1.6828
  741MOL0     H97749   1.499   2.278  10.462  1.4571 -0.1880 -0.8138
  741MOL0     H97750   1.519   2.456  10.434  0.9014 -0.7304  0.5028
  741MOL0     H97751   1.291   2.400  10.445  1.3182 -1.4782 -1.0571
  741MOL0     H97752   1.341   2.521  10.560  2.2266  0.6666 -0.4444
  741MOL0     H97753   1.343   2.366  10.747  0.2542  2.8837 -0.6789
  741MOL0     H97754   1.280   2.225  10.646 -2.2079  0.4057  2.2827
  741MOL0     H97755   1.125   2.464  10.722  0.2950 -1.3633  2.3092
  741MOL0     H97756   1.100   2.362  10.580 -1.3738 -0.8382  0.8416
  741MOL0     H97757   1.088   2.268  10.868  2.1859 -0.4167  0.4115
  741MOL0     H97758   1.094   2.170  10.718 -0.7132  1.4492 -1.1448
  741MOL0     H97759   0.877   2.288  10.646 -1.4043  1.2515 -0.0362
  741MOL0     H97760   0.866   2.371  10.803 -2.5022 -3.0625  3.6907
  741MOL0     H97761   0.884   2.066  10.809  0.0404 -0.3258 -1.0038
  741MOL0     H97762   0.813   2.184  10.915  0.0257  0.7128 -0.3136
  741MOL0     H97763   0.630   2.071  10.809 -1.3216  0.5966 -0.7477
  741MOL0     H97764   0.696   2.115  10.645  1.8116  1.8159 -1.0159
  741MOL0     H97765   0.604   2.301  10.972 -2.5765 -1.4245 -1.1085
  741MOL0     H97766   0.441   2.627  10.883 -1.6180  0.2682 -1.0408
  741MOL0     H97767   0.462   2.524  11.020  1.1853 -0.5801 -0.3284
  741MOL0     H97768   0.240   2.487  10.825 -0.1213  0.3510 -0.0821
  741MOL0     H97769   0.222   2.557  10.990 -0.5504 -1.6465  1.0208
  741MOL0     H97770   0.139   2.331  10.995 -0.2125 -1.2809 -1.0672
  741MOL0     H97771   0.288   2.276  10.929 -1.6978  0.4149 -1.9893
  741MOL0     H97772   0.407   2.350  11.149 -0.4819 -1.9623  2.4181
  741MOL0     H97773   0.282   2.230  11.174 -0.4831  0.0767 -1.6371
  741MOL0     H97774   0.030   2.576  11.246  0.2559 -0.3622  0.4096
  741MOL0     H97775  -0.225   2.510  11.308  0.2068 -0.1763  0.8283
  741MOL0     H97776  -0.565   2.461  11.571  1.5113 -2.0292  0.2145
  741MOL0     H97777  -0.810   2.410  11.596  1.7202  1.1429  1.5210
  741MOL0     H97778  -0.954   2.011  11.439  0.9884 -0.1076  2.3241
  741MOL0     H97779  -1.013   2.125  11.309 -0.0118  0.9625 -0.6630
  741MOL0     H97780  -1.175   2.192  11.501  1.8328 -0.7475  4.1870
  741MOL0     H97781  -1.153   2.028  11.558  2.3671 -2.4166 -0.0432
  741MOL0     H97782  -1.230   1.937  11.343 -3.1172 -2.0101  3.2355
  741MOL0     H97783  -1.241   2.106  11.280  1.9569  0.3372 -0.0599
  741MOL0     H97784  -1.402   2.030  11.533 -0.9549  1.2269  0.7609
  741MOL0     H97785  -1.400   2.176  11.434  1.1096 -0.1145 -0.7236
  741MOL0     H97786  -1.511   1.896  11.369  3.2659 -0.7232 -2.4322
  741MOL0     H97787  -1.474   2.020  11.236  1.7606  2.7508  0.4315
  741MOL0     H97788  -1.642   2.160  11.325  1.2527 -2.0177 -2.2010
  741MOL0     H97789  -1.655   2.072  11.483  2.2476 -0.0644  0.0070
  741MOL0     H97790  -1.727   1.955  11.211 -0.7825 -1.7754  0.2098
  741MOL0     H97791  -1.753   1.887  11.376 -0.7985  1.4975  2.2496
  741MOL0     H97792  -1.896   2.133  11.267  3.5944  1.0589  2.2646
  741MOL0     H97793  -1.922   2.059  11.428 -2.0113 -0.5139 -0.2979
  741MOL0     H97794  -0.769   2.092  11.310 -0.4685 -0.4108  1.1420
  741MOL0     H97795  -0.528   2.158  11.275  0.8044 -1.1488  1.0069
  741MOL0     H97796  -0.092   2.115  11.343 -0.7814  0.9084  1.2718
  741MOL0     H97797   0.128   2.165  11.260  1.8446  2.4440  0.1473
  741MOL0     H97798   1.726   2.557  10.777 -0.6533  0.5632 -0.6732
  741MOL0     H97799   1.959   2.571  10.751  0.8469  0.1509 -0.4416
  741MOL0     H97800   2.333   2.378  10.521 -2.1775 -0.3051  1.3571
  741MOL0     H97801   2.586   2.359  10.525 -1.4609 -1.7814  1.3188
  741MOL0     H97802   2.800   2.689  10.708  3.2732  1.2494  1.5341
  741MOL0     H97803   2.836   2.659  10.539 -1.2954  4.4893  1.7106
  741MOL0     H97804   2.988   2.475  10.614 -3.6866  0.8398 -0.4856
  741MOL0     H97805   3.041   2.640  10.610 -2.0524  0.5649 -2.3003
  741MOL0     H97806   2.945   2.475  10.849 -3.4613  3.5333  1.4019
  741MOL0     H97807   2.945   2.631  10.861 -1.0629  2.2511 -3.8019
  741MOL0     H97808   3.213   2.626  10.778  2.9102 -0.8192  0.9713
  741MOL0     H97809   3.172   2.623  10.946 -1.6630  1.1032 -0.1241
  741MOL0     H97810   3.284   2.223  10.856 -0.4377 -0.5834 -4.2300
  741MOL0     H97811   2.598   2.703  10.780  0.7274  0.9558 -1.3981
  741MOL0     H97812   2.356   2.714  10.782  0.7491  0.5145  0.2212
  742MOL0     O97813   0.386  11.235   5.045 -0.0537 -0.1949 -0.0621
  742MOL0     C97814   0.354  11.354   5.063  0.2824 -0.0461  0.2473
  742MOL0     O97815   0.230  11.396   5.058  0.5704  0.2672  0.0053
  742MOL0     C97816   0.121  11.321   5.023 -0.3241  0.2878 -0.1879
  742MOL0     C97817   0.114  11.215   4.930  0.5287 -0.3616  0.6904
  742MOL0     C97818  -0.005  11.165   4.890 -0.6502  0.4092  0.0450
  742MOL0     C97819  -0.129  11.211   4.940 -0.2481 -0.4955  0.5424
  742MOL0     O97820  -0.246  11.161   4.882  0.3693 -0.0818  0.9355
  742MOL0     C97821  -0.255  11.018   4.853 -0.4497 -0.0087  0.0562
  742MOL0     C97822  -0.404  10.981   4.832 -0.0992 -0.4631  0.1321
  742MOL0     C97823  -0.489  10.995   4.963  1.1214  0.1204  0.0442
  742MOL0     C97824  -0.635  10.960   4.915 -0.7977  0.2297  0.1173
  742MOL0     C97825  -0.751  10.986   5.006  0.9890  0.4971 -0.3013
  742MOL0     C97826  -0.872  10.895   4.960  0.1031  0.3557  0.5911
  742MOL0     C97827  -1.000  10.902   5.050  0.1756 -0.0612  0.5009
  742MOL0     C97828  -0.972  10.886   5.200 -0.9012 -0.2565  0.0642
  742MOL0     N97829  -1.096  10.861   5.275  0.4820 -0.3128 -0.0268
  742MOL0     C97830  -1.191  10.760   5.254  0.3532  0.2255  0.6610
  742MOL0     C97831  -1.307  10.800   5.313 -0.6346  0.5600  0.2282
  742MOL0     C97832  -1.445  10.734   5.304  0.1925  0.2966 -0.5153
  742MOL0     C97833  -1.504  10.697   5.448 -0.9100  0.0067  0.1303
  742MOL0     C97834  -1.637  10.640   5.436  0.2654  1.0378 -0.1480
  742MOL0     C97835  -1.744  10.740   5.400  0.0234 -0.5984  0.3943
  742MOL0     O97836  -1.855  10.651   5.372 -0.2146  0.2765 -0.0055
  742MOL0     C97837  -1.975  10.683   5.434  0.1706  0.0647 -0.7205
  742MOL0     C97838  -1.987  10.670   5.569 -0.4321  0.7239  0.0061
  742MOL0     C97839  -2.107  10.685   5.635 -0.1282 -0.1571  0.2401
  742MOL0     C97840  -2.219  10.724   5.559  0.5402  1.0486 -0.1858
  742MOL0     C97841  -2.352  10.742   5.626  0.6698  0.0774 -0.4048
  742MOL0     O97842  -2.456  10.791   5.541 -0.3542  0.4478  0.4957
  742MOL0     C97843  -2.582  10.807   5.584 -0.3178 -0.5473 -0.9717
  742MOL0     C97844  -2.677  10.728   5.539  0.0453  0.8477  0.0417
  742MOL0     C97845  -2.805  10.753   5.585  0.2347  0.2832  0.2479
  742MOL0     C97846  -2.834  10.854   5.671  0.0717  0.4139  0.1784
  742MOL0     O97847  -2.963  10.859   5.723  0.1837  0.2985 -0.2112
  742MOL0     C97848  -2.995  10.986   5.781  0.7074 -0.6104  1.0602
  742MOL0     C97849  -3.151  10.984   5.796 -0.0788 -0.6671  0.2834
  742MOL0     C97850  -3.189  10.933   5.935  0.1891  0.5055  0.9072
  742MOL0     C97851  -3.330  10.903   5.970  0.2512  0.5099 -0.4823
  742MOL0     C97852  -3.397  11.032   6.031 -0.0921 -0.2131  0.2742
  742MOL0     C97853  -3.549  11.022   6.016  0.1781  0.8429 -0.9119
  742MOL0     C97854  -3.621  10.891   6.073  0.4099  0.8944  0.3328
  742MOL0     C97855  -3.773  10.910   6.086 -0.1703  0.3221  0.0328
  742MOL0    Cl97856  -3.837  10.752   6.152  0.2142  0.0839 -0.2995
  742MOL0     C97857  -2.736  10.943   5.704 -0.5201 -0.1570  0.3100
  742MOL0     C97858  -2.606  10.923   5.658  0.6095 -0.6099  0.7105
  742MOL0     O97859  -2.368  10.720   5.746  0.1974 -0.0123  0.3519
  742MOL0     C97860  -2.216  10.721   5.421 -0.2552  0.2242 -0.1271
  742MOL0     C97861  -2.089  10.708   5.360 -0.2350 -1.1276 -0.2178
  742MOL0     N97862  -1.287  10.923   5.372 -0.8934 -0.2343 -0.0490
  742MOL0     N97863  -1.162  10.957   5.347 -0.5049  0.6362  0.7162
  742MOL0     C97864  -0.133  11.304   5.037  0.9953 -0.4382  0.1104
  742MOL0     C97865  -0.010  11.358   5.080  0.0602 -0.5407 -0.6318
  742MOL0     C97866   0.459  11.456   5.082  0.3911  0.1276 -0.2219
  742MOL0     C97867   0.587  11.415   5.058 -0.1198 -0.1820  0.4500
  742MOL0     C97868   0.698  11.498   5.060 -0.1563 -0.1132 -0.0351
  742MOL0     C97869   0.677  11.632   5.084  0.1884  0.4225 -0.2264
  742MOL0     O97870   0.780  11.727   5.081  0.2824 -0.3141  0.2084
  742MOL0     C97871   0.903  11.682   5.027 -0.3366  0.2992  0.1102
  742MOL0     C97872   1.003  11.802   5.025 -0.2773 -0.1875  0.4769
  742MOL0     C97873   0.980  11.884   4.892 -0.3059 -0.8889  0.3828
  742MOL0     C97874   1.062  12.022   4.890 -0.7030 -0.1680 -0.1370
  742MOL0     C97875   1.020  12.092   5.010  0.0480  0.2696 -0.3846
  742MOL0     C97876   0.985  12.148   5.110  1.0182 -0.0554 -0.3581
  742MOL0     C97877   0.548  11.681   5.110 -0.2139 -0.3098 -0.6643
  742MOL0     C97878   0.441  11.592   5.118 -0.1999  0.4737  0.9318
  742MOL0     H97879   0.200  11.173   4.879 -0.8432 -1.1700 -1.0599
  742MOL0     H97880  -0.000  11.083   4.820 -0.1298 -1.0100  1.6647
  742MOL0     H97881  -0.223  10.952   4.934 -0.1520  0.1981  0.1111
  742MOL0     H97882  -0.198  10.985   4.765 -0.8243  0.0413 -0.2060
  742MOL0     H97883  -0.398  10.880   4.791 -0.4076 -0.2995 -0.3149
  742MOL0     H97884  -0.443  11.044   4.752  1.5306 -0.4192 -0.6684
  742MOL0     H97885  -0.491  11.100   4.995  1.0591  0.3828 -0.7920
  742MOL0     H97886  -0.451  10.928   5.041  2.7337  1.7543  0.7151
  742MOL0     H97887  -0.646  11.025   4.827  0.4693  1.4927  0.8538
  742MOL0     H97888  -0.632  10.857   4.879  3.4257  0.3736 -0.4197
  742MOL0     H97889  -0.784  11.088   4.984  1.0367  0.5139 -0.2927
  742MOL0     H97890  -0.716  10.975   5.109  1.3685  1.4536 -0.3194
  742MOL0     H97891  -0.849  10.788   4.966  1.5567  0.5240 -1.2209
  742MOL0     H97892  -0.885  10.912   4.853  1.2388 -0.3627  0.3250
  742MOL0     H97893  -1.051  10.997   5.033  3.1470  1.0862 -3.6528
  742MOL0     H97894  -1.071  10.826   5.016  0.8209 -1.3905  1.9722
  742MOL0     H97895  -0.912  10.966   5.243 -1.5983  0.2618  0.1042
  742MOL0     H97896  -0.910  10.799   5.221 -0.2865  0.7291  2.7899
  742MOL0     H97897  -1.177  10.664   5.205 -1.7729 -0.4951  1.3481
  742MOL0     H97898  -1.440  10.643   5.244 -0.9660  1.0414 -1.8047
  742MOL0     H97899  -1.501  10.810   5.249  1.6069 -0.4624 -3.2289
  742MOL0     H97900  -1.510  10.790   5.505  1.4769  0.4488 -0.2250
  742MOL0     H97901  -1.437  10.628   5.500 -1.2435  0.4175  1.1276
  742MOL0     H97902  -1.639  10.547   5.378 -0.1952  1.1213 -0.2735
  742MOL0     H97903  -1.670  10.610   5.536 -0.1108  0.8951 -0.3137
  742MOL0     H97904  -1.726  10.793   5.306 -0.4645 -2.3483 -0.7425
  742MOL0     H97905  -1.758  10.807   5.485  4.0841  0.6482  0.2967
  742MOL0     H97906  -1.903  10.640   5.631 -3.2083 -2.2465  2.7294
  742MOL0     H97907  -2.116  10.676   5.743  0.7618  0.7614  0.3982
  742MOL0     H97908  -2.633  10.663   5.464  4.2246  0.6314  2.3824
  742MOL0     H97909  -2.889  10.700   5.541 -1.4091  0.7593  2.6344
  742MOL0     H97910  -2.974  11.065   5.707 -2.9686 -0.9501 -0.5851
  742MOL0     H97911  -2.954  11.000   5.881  3.5151 -1.5183  0.1077
  742MOL0     H97912  -3.212  10.930   5.723  1.1882 -1.5521 -0.1577
  742MOL0     H97913  -3.186  11.088   5.791 -0.2326 -0.7829 -2.1198
  742MOL0     H97914  -3.158  10.991   6.022 -0.0697 -2.2223  2.9686
  742MOL0     H97915  -3.135  10.838   5.940  1.9118  1.4112  0.2304
  742MOL0     H97916  -3.389  10.875   5.881  1.6262  0.0069 -1.2694
  742MOL0     H97917  -3.338  10.818   6.039 -0.9734  0.4113 -0.7251
  742MOL0     H97918  -3.370  11.119   5.972 -0.1458  0.4532  1.2181
  742MOL0     H97919  -3.358  11.058   6.129 -0.1080 -0.8578  0.4560
  742MOL0     H97920  -3.586  11.026   5.913  0.6109 -2.0345 -1.2733
  742MOL0     H97921  -3.584  11.103   6.081 -3.1778 -2.6767  2.2384
  742MOL0     H97922  -3.598  10.815   5.998 -1.5810  0.8700 -0.3016
  742MOL0     H97923  -3.584  10.863   6.173  2.2099 -1.1480 -0.8121
  742MOL0     H97924  -3.826  10.940   5.995  0.0648  0.5346 -0.0318
  742MOL0     H97925  -3.784  10.993   6.156 -1.4163 -0.8128  1.2429
  742MOL0     H97926  -2.758  11.028   5.767  2.4566  0.9105  0.0953
  742MOL0     H97927  -2.536  11.005   5.672 -0.8884  0.9057 -0.2311
  742MOL0     H97928  -2.306  10.720   5.361 -0.0193  1.6208 -0.5418
  742MOL0     H97929  -2.073  10.714   5.252 -1.5308  2.2579 -0.3589
  742MOL0     H97930  -0.232  11.336   5.066 -0.2444 -1.4986 -2.6221
  742MOL0     H97931  -0.015  11.439   5.152  0.4251 -0.2260 -0.9654
  742MOL0     H97932   0.603  11.319   5.010 -0.1798 -0.1685  0.4020
  742MOL0     H97933   0.798  11.465   5.036  0.5754  1.1425  1.1401
  742MOL0     H97934   0.894  11.650   4.923 -0.6561  0.6662  0.0251
  742MOL0     H97935   0.944  11.607   5.097 -0.6343  2.5314  2.8508
  742MOL0     H97936   0.980  11.858   5.116 -2.7895 -3.1801  1.9037
  742MOL0     H97937   1.105  11.763   5.029  1.1043  2.9820 -0.8529
  742MOL0     H97938   0.874  11.909   4.885 -0.3488 -1.3834 -5.3848
  742MOL0     H97939   1.013  11.817   4.812  1.2228  0.3545 -0.0673
  742MOL0     H97940   1.170  12.009   4.890 -1.0263 -3.6010  0.9185
  742MOL0     H97941   1.032  12.088   4.807  2.0915  0.6460 -0.6163
  742MOL0     H97942   0.950  12.191   5.201 -1.6565 -3.7413  0.6270
  742MOL0     H97943   0.522  11.786   5.118 -0.0006 -0.2991 -0.0187
  742MOL0     H97944   0.337  11.615   5.137 -0.8446 -2.7836  2.0190
  743MOL0     O97945   0.523  10.240   0.351  0.9330  0.1342 -0.1094
  743MOL0     C97946   0.541  10.350   0.389  0.1326  0.0298 -0.7965
  743MOL0     O97947   0.448  10.450   0.386  0.1608 -0.4303 -0.4166
  743MOL0     C97948   0.328  10.434   0.320  0.3621 -0.0624 -0.2693
  743MOL0     C97949   0.317  10.487   0.191 -0.2819  0.2186  0.0830
  743MOL0     C97950   0.204  10.466   0.114 -0.2187  0.6749  0.4018
  743MOL0     C97951   0.088  10.397   0.158  0.1632 -1.4621 -0.3319
  743MOL0     O97952  -0.026  10.393   0.084  0.1940 -0.1338  0.1064
  743MOL0     C97953  -0.148  10.326   0.122 -0.2987  0.4530 -0.5255
  743MOL0     C97954  -0.257  10.336   0.012  0.3099  0.2273  0.0771
  743MOL0     C97955  -0.382  10.251   0.045  0.2538 -0.2375  0.5613
  743MOL0     C97956  -0.498  10.280  -0.058 -0.4841  0.2511 -0.5908
  743MOL0     C97957  -0.592  10.155  -0.054  0.5857 -0.0879 -0.1491
  743MOL0     C97958  -0.696  10.174  -0.161  0.6423  0.1082  0.1838
  743MOL0     C97959  -0.794  10.063  -0.174  0.3290 -0.3297  0.2038
  743MOL0     C97960  -0.851  10.016  -0.033  0.3866  0.2218 -0.3140
  743MOL0     N97961  -0.961   9.917  -0.027 -0.3826 -0.6976 -1.0646
  743MOL0     C97962  -0.981   9.811  -0.105  0.3518  0.2848  0.4768
  743MOL0     C97963  -1.087   9.746  -0.041  0.5522 -0.3299  0.1351
  743MOL0     C97964  -1.157   9.629  -0.104  0.6527  0.0385 -0.5544
  743MOL0     C97965  -1.213   9.527   0.005 -0.2089 -0.2683 -0.5332
  743MOL0     C97966  -1.332   9.579   0.093 -0.1960  0.5038  0.7278
  743MOL0     C97967  -1.378   9.461   0.194  0.1396 -0.0218 -0.1752
  743MOL0     O97968  -1.492   9.506   0.278  0.3480  0.3516  0.4270
  743MOL0     C97969  -1.619   9.480   0.229  0.8215  0.2787 -0.4270
  743MOL0     C97970  -1.657   9.430   0.102  1.0149 -0.8061 -0.3131
  743MOL0     C97971  -1.796   9.427   0.058  0.1299  0.3106 -0.0870
  743MOL0     C97972  -1.896   9.478   0.149 -0.0668  0.0596  0.4223
  743MOL0     C97973  -2.033   9.473   0.110  1.1622 -0.0715 -0.4342
  743MOL0     O97974  -2.118   9.484   0.217 -0.2780  0.4842 -0.0497
  743MOL0     C97975  -2.257   9.484   0.202 -0.8263  0.6220  0.3151
  743MOL0     C97976  -2.326   9.418   0.094  0.6483 -0.1314  0.1164
  743MOL0     C97977  -2.471   9.425   0.095 -0.9874  0.1654 -0.8370
  743MOL0     C97978  -2.537   9.483   0.205  1.1331  0.6233  0.7370
  743MOL0     O97979  -2.675   9.478   0.188  0.5235 -0.7715 -0.0350
  743MOL0     C97980  -2.750   9.448   0.306  0.1125 -0.4472  1.5626
  743MOL0     C97981  -2.895   9.450   0.254 -0.0064 -0.5798  1.3929
  743MOL0     C97982  -3.009   9.468   0.359 -0.6621  0.3317  0.7303
  743MOL0     C97983  -3.011   9.349   0.446  0.4008 -0.5180 -0.0368
  743MOL0     C97984  -3.122   9.361   0.551  0.3012 -0.4925 -0.1895
  743MOL0     C97985  -3.269   9.379   0.511  1.0490  0.1686  0.9246
  743MOL0     C97986  -3.313   9.248   0.436  0.3767 -0.9754  0.7260
  743MOL0     C97987  -3.468   9.234   0.454 -0.0689 -0.3262  0.1440
  743MOL0    Cl97988  -3.564   9.362   0.372 -0.2508 -0.1028 -0.1154
  743MOL0     C97989  -2.470   9.551   0.303  0.4152 -0.5974  0.0941
  743MOL0     C97990  -2.330   9.554   0.298 -0.7959 -0.1013 -0.0037
  743MOL0     O97991  -2.067   9.469  -0.009  0.4798  0.5117 -0.6680
  743MOL0     C97992  -1.856   9.526   0.269 -0.3936  0.1623 -0.1538
  743MOL0     C97993  -1.722   9.520   0.313 -0.0150  0.1900 -0.0255
  743MOL0     N97994  -1.131   9.826   0.062 -0.2634  0.1163  0.1505
  743MOL0     N97995  -1.056   9.932   0.067  0.3149  0.0416 -0.6759
  743MOL0     C97996   0.103  10.350   0.295  1.1378  0.3954 -0.1323
  743MOL0     C97997   0.220  10.358   0.370  0.7407 -0.7037  0.1411
  743MOL0     C97998   0.676  10.362   0.455 -0.3335 -0.2944 -0.5974
  743MOL0     C97999   0.708  10.485   0.511  0.5545  0.1829  0.3110
  743MOL0     C98000   0.827  10.518   0.571 -0.3487 -0.7226  0.4248
  743MOL0     C98001   0.926  10.421   0.584  0.4479 -0.2959  0.3649
  743MOL0     O98002   1.041  10.463   0.640 -0.2939  0.0321 -0.3497
  743MOL0     C98003   1.160  10.376   0.642 -0.2305  0.7317 -0.3195
  743MOL0     C98004   1.257  10.422   0.749 -0.0516 -0.4055 -0.8590
  743MOL0     C98005   1.385  10.335   0.759 -0.3005  0.5932  0.3370
  743MOL0     C98006   1.478  10.392   0.864 -0.1653 -0.1246  0.4850
  743MOL0     C98007   1.583  10.482   0.805 -0.1239  0.2234  0.3119
  743MOL0     C98008   1.664  10.557   0.769  0.2986  0.0171 -0.4943
  743MOL0     C98009   0.894  10.292   0.529 -0.7145  0.3143  0.4642
  743MOL0     C98010   0.760  10.261   0.482 -0.0653  0.0776 -0.1528
  743MOL0     H98011   0.393  10.539   0.132 -2.1880 -0.9489 -3.6927
  743MOL0     H98012   0.198  10.517   0.019 -1.3924  2.5389  1.4192
  743MOL0     H98013  -0.188  10.370   0.214  1.1733 -1.6334  1.2044
  743MOL0     H98014  -0.121  10.222   0.138  1.7035  1.1479  1.0623
  743MOL0     H98015  -0.217  10.308  -0.086 -0.3950  0.9652 -0.4235
  743MOL0     H98016  -0.288  10.440   0.012 -0.4153  0.0228  0.4641
  743MOL0     H98017  -0.414  10.260   0.149 -2.4417 -2.0673 -0.0261
  743MOL0     H98018  -0.364  10.145   0.027 -3.2401 -1.0088  1.0357
  743MOL0     H98019  -0.559  10.365  -0.025 -1.1214 -0.9688  1.6095
  743MOL0     H98020  -0.456  10.299  -0.157  1.6361  1.4121  0.4624
  743MOL0     H98021  -0.641  10.146   0.043 -0.8151 -2.3363 -0.9905
  743MOL0     H98022  -0.541  10.062  -0.082 -1.5129 -1.5090  0.5683
  743MOL0     H98023  -0.657  10.197  -0.261  0.5126 -2.0891 -0.4353
  743MOL0     H98024  -0.756  10.263  -0.141  4.1096  1.9982  3.5786
  743MOL0     H98025  -0.880  10.091  -0.236  1.6688 -1.1291 -2.1334
  743MOL0     H98026  -0.747   9.975  -0.219 -1.1726 -1.6685  1.1151
  743MOL0     H98027  -0.888  10.111   0.008 -1.8871  0.1211 -1.9541
  743MOL0     H98028  -0.764   9.972   0.016  0.6176 -0.3763 -1.2376
  743MOL0     H98029  -0.938   9.789  -0.202 -0.1665  0.9058  0.0953
  743MOL0     H98030  -1.083   9.566  -0.153  0.2963 -0.9158  0.1034
  743MOL0     H98031  -1.236   9.660  -0.173  0.9198  0.5125 -0.6493
  743MOL0     H98032  -1.131   9.488   0.065  1.1894  0.8063 -1.6773
  743MOL0     H98033  -1.245   9.438  -0.050  1.1270 -1.2102  0.1711
  743MOL0     H98034  -1.309   9.674   0.142 -1.0720  0.9348  0.3251
  743MOL0     H98035  -1.419   9.601   0.031 -0.2733 -0.7852  0.3490
  743MOL0     H98036  -1.294   9.448   0.264  2.2310  2.1170 -2.1334
  743MOL0     H98037  -1.394   9.364   0.145  1.4561 -0.1686 -0.3590
  743MOL0     H98038  -1.577   9.395   0.038  0.4925 -0.8240 -0.9654
  743MOL0     H98039  -1.817   9.387  -0.041  1.3476 -1.0291  0.1515
  743MOL0     H98040  -2.277   9.367   0.012  0.4676  0.3489 -0.2902
  743MOL0     H98041  -2.527   9.384   0.011 -0.9376 -0.7807 -0.4185
  743MOL0     H98042  -2.730   9.521   0.385  2.0086  2.1421 -1.1078
  743MOL0     H98043  -2.739   9.349   0.351  1.3999  1.0352  4.8562
  743MOL0     H98044  -2.907   9.357   0.199 -2.3544  0.7703 -0.6090
  743MOL0     H98045  -2.917   9.523   0.176 -1.6248 -2.4263  0.0401
  743MOL0     H98046  -3.108   9.479   0.313  0.9209  2.6444 -2.5803
  743MOL0     H98047  -2.988   9.563   0.409  2.5337 -0.0870  0.4051
  743MOL0     H98048  -3.045   9.269   0.380 -1.6763  2.3827 -2.7301
  743MOL0     H98049  -2.916   9.325   0.496  2.1332  1.1054 -2.3306
  743MOL0     H98050  -3.095   9.445   0.616 -0.4567 -0.7097  0.4241
  743MOL0     H98051  -3.124   9.277   0.621 -1.3900  0.8224  1.4485
  743MOL0     H98052  -3.288   9.473   0.459 -0.8658 -0.4920  0.3494
  743MOL0     H98053  -3.329   9.389   0.602 -2.7702 -1.4116 -1.1681
  743MOL0     H98054  -3.284   9.232   0.332 -2.3941 -4.4779  0.2988
  743MOL0     H98055  -3.261   9.169   0.491  1.8086 -0.5499  0.0238
  743MOL0     H98056  -3.505   9.251   0.555  1.0105  2.2880  0.1936
  743MOL0     H98057  -3.504   9.138   0.415  1.6099 -1.1358  0.4739
  743MOL0     H98058  -2.510   9.617   0.379  2.6220  0.4685  0.4221
  743MOL0     H98059  -2.279   9.613   0.373 -0.0678  0.7360 -1.1373
  743MOL0     H98060  -1.934   9.566   0.332  0.1165  0.7951  0.0896
  743MOL0     H98061  -1.694   9.570   0.405  0.3957  1.9133 -1.0288
  743MOL0     H98062   0.020  10.293   0.336  1.1850  0.8674  0.6415
  743MOL0     H98063   0.230  10.314   0.468 -2.5084  0.8971  1.3100
  743MOL0     H98064   0.634  10.564   0.503 -2.3039 -2.4865 -2.2204
  743MOL0     H98065   0.842  10.614   0.618 -1.4038 -0.9291  1.2192
  743MOL0     H98066   1.204  10.378   0.541  1.1422 -4.0647 -0.0735
  743MOL0     H98067   1.129  10.278   0.679  0.2837  0.8440  0.4354
  743MOL0     H98068   1.281  10.527   0.730  1.4691 -0.3341  1.1930
  743MOL0     H98069   1.209  10.421   0.847  3.0865 -1.2391  0.7848
  743MOL0     H98070   1.437  10.326   0.663  1.9223 -0.2707  1.5456
  743MOL0     H98071   1.356  10.233   0.786  0.2458  0.3407 -0.0070
  743MOL0     H98072   1.429  10.433   0.952  0.9144 -0.0376  1.0718
  743MOL0     H98073   1.534  10.307   0.905  1.9979  0.0893 -1.7839
  743MOL0     H98074   1.749  10.619   0.750  0.4701 -0.0092  0.1575
  743MOL0     H98075   0.971  10.216   0.537 -0.2683  0.5501 -1.2178
  743MOL0     H98076   0.737  10.167   0.434 -1.8194  1.8065 -3.0477
  744MOL0     O98077   8.353   8.259   3.540  0.0308  1.0736 -0.2981
  744MOL0     C98078   8.350   8.144   3.581  0.3590  0.4810  0.2877
  744MOL0     O98079   8.247   8.054   3.556  0.2348  0.6473  0.2477
  744MOL0     C98080   8.138   8.084   3.477 -0.1610  0.4935  0.2380
  744MOL0     C98081   8.020   8.017   3.510  0.3929  0.7647  0.3147
  744MOL0     C98082   7.900   8.041   3.435  0.3741  0.1712 -0.1242
  744MOL0     C98083   7.895   8.122   3.321  0.0666 -1.1315 -1.0882
  744MOL0     O98084   7.781   8.138   3.251  0.6189  0.4900 -0.2468
  744MOL0     C98085   7.775   8.191   3.118  0.0463  0.2428  0.5146
  744MOL0     C98086   7.637   8.210   3.046 -0.1582 -1.0925 -0.5597
  744MOL0     C98087   7.565   8.082   3.015  0.4413  0.5307  0.1952
  744MOL0     C98088   7.432   8.112   2.944  0.8567  0.6538  0.2548
  744MOL0     C98089   7.376   7.989   2.877  1.0718 -0.1657  0.1382
  744MOL0     C98090   7.263   8.029   2.777  0.2397  0.6613  0.2967
  744MOL0     C98091   7.297   8.082   2.634 -0.0952 -0.3585  0.4871
  744MOL0     C98092   7.322   7.970   2.542  0.2261 -0.1668 -1.3700
  744MOL0     N98093   7.312   8.022   2.402 -0.1702  0.0490 -0.2155
  744MOL0     C98094   7.205   8.072   2.332  0.4208 -1.0122 -1.0309
  744MOL0     C98095   7.255   8.063   2.210 -0.0257  0.7912 -0.1009
  744MOL0     C98096   7.179   8.121   2.083 -0.3983  0.5525  0.1454
  744MOL0     C98097   7.025   8.100   2.083 -0.2772  0.1852  0.2083
  744MOL0     C98098   6.990   7.952   2.110 -0.3981  0.3874 -0.7437
  744MOL0     C98099   6.838   7.921   2.103  0.0658 -0.3313 -0.1552
  744MOL0     O98100   6.788   7.976   2.226 -0.1409  0.1785  0.3343
  744MOL0     C98101   6.651   7.982   2.247 -0.3132  0.2292 -0.2108
  744MOL0     C98102   6.628   8.069   2.357  0.1084  0.6639 -0.5009
  744MOL0     C98103   6.497   8.113   2.384  1.2911  0.6783  0.8480
  744MOL0     C98104   6.380   8.059   2.312 -1.1609 -0.0714  0.7659
  744MOL0     C98105   6.253   8.106   2.337  0.0506 -0.6294  0.1420
  744MOL0     O98106   6.166   8.124   2.233 -0.0507  0.4305  1.2454
  744MOL0     C98107   6.045   8.181   2.256  0.0413  0.2244 -0.2696
  744MOL0     C98108   5.940   8.092   2.272 -0.4600 -0.8046 -0.0450
  744MOL0     C98109   5.826   8.153   2.315  0.4353  0.5362 -0.7451
  744MOL0     C98110   5.807   8.290   2.325  0.7549 -1.1509  0.6200
  744MOL0     O98111   5.684   8.346   2.361  0.0932  0.1492  0.1916
  744MOL0     C98112   5.637   8.450   2.276  0.6232 -1.0337 -0.7088
  744MOL0     C98113   5.486   8.476   2.296 -0.2802 -0.4068  0.4493
  744MOL0     C98114   5.436   8.586   2.203 -0.0163 -1.0242  0.0154
  744MOL0     C98115   5.293   8.601   2.224  0.4030 -0.1941  0.1798
  744MOL0     C98116   5.233   8.694   2.121  0.1465  0.2708 -1.6383
  744MOL0     C98117   5.073   8.706   2.139 -0.9318  0.2895  0.6618
  744MOL0     C98118   5.028   8.823   2.058  0.5463  0.8226 -1.0234
  744MOL0     C98119   5.001   8.951   2.149 -0.0784 -0.0199 -0.7128
  744MOL0    Cl98120   5.153   9.008   2.242  0.2178  0.6134 -0.1574
  744MOL0     C98121   5.915   8.373   2.291  0.8916  0.0897  0.0805
  744MOL0     C98122   6.041   8.319   2.274  0.7185  0.2680 -0.1524
  744MOL0     O98123   6.241   8.157   2.448 -0.4398  0.1390 -0.5246
  744MOL0     C98124   6.414   7.984   2.194 -0.2823 -0.3351  0.1060
  744MOL0     C98125   6.549   7.942   2.169 -0.3542 -0.3213  1.2322
  744MOL0     N98126   7.383   8.017   2.206  0.4089 -0.0528 -0.0953
  744MOL0     N98127   7.419   7.998   2.322  0.0952  0.8977 -0.5566
  744MOL0     C98128   8.013   8.186   3.293  0.0222  0.6198 -0.1158
  744MOL0     C98129   8.128   8.167   3.363 -1.3636 -0.3121 -0.6773
  744MOL0     C98130   8.463   8.081   3.655 -0.3634 -0.0446  0.2023
  744MOL0     C98131   8.589   8.148   3.665 -0.1466  0.6224  0.8986
  744MOL0     C98132   8.694   8.087   3.734  0.3239  0.7443 -0.5932
  744MOL0     C98133   8.696   7.960   3.782  0.2739  0.1569  0.3835
  744MOL0     O98134   8.785   7.890   3.855 -0.4092 -0.0399 -0.6988
  744MOL0     C98135   8.905   7.952   3.886  0.3224  0.7386  0.4491
  744MOL0     C98136   8.986   7.857   3.983 -0.6094 -0.8539  0.3679
  744MOL0     C98137   9.133   7.896   3.991  0.1898 -0.3911 -0.1863
  744MOL0     C98138   9.149   8.031   4.068  0.4993  0.1324  0.3202
  744MOL0     C98139   9.283   8.090   4.044  0.3454  0.5493 -0.2723
  744MOL0     C98140   9.395   8.137   4.008 -0.7196  0.4303 -1.0152
  744MOL0     C98141   8.575   7.889   3.760  0.7638 -0.1707  0.0668
  744MOL0     C98142   8.462   7.951   3.705 -0.6534  0.3409 -0.2568
  744MOL0     H98143   8.016   7.953   3.597  2.2944  1.5834  1.0632
  744MOL0     H98144   7.810   7.989   3.467 -1.9843  1.9614 -3.1889
  744MOL0     H98145   7.824   8.131   3.041 -0.2385 -0.7220  1.0637
  744MOL0     H98146   7.814   8.293   3.115 -1.7988  1.1025  2.7004
  744MOL0     H98147   7.666   8.270   2.959 -2.7633  0.3360 -0.5275
  744MOL0     H98148   7.571   8.273   3.106  0.4003  0.6897 -1.7515
  744MOL0     H98149   7.562   8.010   3.098 -4.2288  0.8657  0.5705
  744MOL0     H98150   7.630   8.028   2.946 -0.5021  0.9241 -1.0235
  744MOL0     H98151   7.363   8.154   3.018  1.7257  2.2247  0.2184
  744MOL0     H98152   7.444   8.196   2.874  2.4199 -0.1923 -0.5403
  744MOL0     H98153   7.332   7.922   2.951  2.2604 -2.0108 -0.7458
  744MOL0     H98154   7.454   7.929   2.828  2.2849 -0.8144  2.6960
  744MOL0     H98155   7.197   8.104   2.821 -1.7465 -1.7801  1.7083
  744MOL0     H98156   7.186   7.952   2.768 -1.4203  2.2390  0.5256
  744MOL0     H98157   7.209   8.139   2.602  1.1754  0.6852 -1.3314
  744MOL0     H98158   7.385   8.146   2.632  0.6775 -1.4066 -0.7214
  744MOL0     H98159   7.248   7.891   2.563 -2.1721  2.3155  0.1448
  744MOL0     H98160   7.425   7.941   2.562  0.2943 -0.2541 -1.8411
  744MOL0     H98161   7.109   8.114   2.361  0.1104 -0.3528 -2.9022
  744MOL0     H98162   7.201   8.071   1.987  0.2436  1.3724 -0.1518
  744MOL0     H98163   7.205   8.225   2.065  3.0738 -0.0712  0.7135
  744MOL0     H98164   6.993   8.135   1.984  1.5846  2.6635  0.3959
  744MOL0     H98165   6.973   8.154   2.163  2.7073 -0.3837  2.7198
  744MOL0     H98166   7.043   7.901   2.030  1.9285  3.1111 -1.1017
  744MOL0     H98167   7.024   7.914   2.207 -1.1449  0.5750 -0.3935
  744MOL0     H98168   6.817   7.815   2.093 -3.9704  0.2732  0.1562
  744MOL0     H98169   6.789   7.977   2.022  0.8086  1.0029  0.2975
  744MOL0     H98170   6.719   8.113   2.397  0.7558 -0.9101 -0.1895
  744MOL0     H98171   6.479   8.180   2.467 -1.5313  1.6084 -0.3922
  744MOL0     H98172   5.959   7.987   2.254  1.9793 -0.3503 -0.4762
  744MOL0     H98173   5.741   8.091   2.341  2.3136 -1.9236 -0.0844
  744MOL0     H98174   5.651   8.426   2.171 -0.1509  4.0662 -2.2631
  744MOL0     H98175   5.686   8.548   2.286 -1.0332 -0.1525 -0.8689
  744MOL0     H98176   5.465   8.490   2.402 -0.3451 -1.7143  0.6249
  744MOL0     H98177   5.437   8.383   2.268  0.2126  0.2785 -3.1605
  744MOL0     H98178   5.457   8.570   2.097 -0.8125  0.7783 -0.4603
  744MOL0     H98179   5.483   8.683   2.226  0.6803 -1.4939  0.6298
  744MOL0     H98180   5.243   8.504   2.215  3.1960 -1.6604 -0.8306
  744MOL0     H98181   5.265   8.642   2.321  1.0588  1.4705 -0.2989
  744MOL0     H98182   5.275   8.665   2.024  3.6691 -1.9659  0.3210
  744MOL0     H98183   5.274   8.791   2.150  1.4610 -0.7700  0.1716
  744MOL0     H98184   5.044   8.714   2.244 -2.0666  0.4208  0.3541
  744MOL0     H98185   5.044   8.608   2.101  2.6805 -0.5214 -0.3769
  744MOL0     H98186   5.100   8.832   1.976  0.2846 -1.6719 -1.6076
  744MOL0     H98187   4.934   8.801   2.006  0.3514  1.2664 -0.8600
  744MOL0     H98188   4.914   8.922   2.209 -0.7167  0.4012 -1.4217
  744MOL0     H98189   4.957   9.031   2.090 -1.0214 -1.4606 -2.0510
  744MOL0     H98190   5.900   8.480   2.300 -1.3203 -0.0017 -1.8333
  744MOL0     H98191   6.133   8.375   2.260  3.1888 -2.9792  1.6653
  744MOL0     H98192   6.332   7.943   2.135 -2.2940 -0.6339  2.8828
  744MOL0     H98193   6.581   7.870   2.094  0.7335  0.4592  0.9174
  744MOL0     H98194   8.023   8.262   3.216  2.0467 -0.1671 -0.6845
  744MOL0     H98195   8.218   8.213   3.324 -1.6325  0.4687 -0.3857
  744MOL0     H98196   8.602   8.251   3.634 -1.4674  0.9520  1.3645
  744MOL0     H98197   8.789   8.136   3.752  0.0861  1.0125 -0.0550
  744MOL0     H98198   8.883   8.052   3.926  2.8363  1.1436  0.9742
  744MOL0     H98199   8.961   7.974   3.794 -4.0422  0.4804 -2.5540
  744MOL0     H98200   8.939   7.853   4.082  1.2337 -2.4533  1.2665
  744MOL0     H98201   8.979   7.757   3.941 -1.3234 -0.3386 -0.7911
  744MOL0     H98202   9.173   7.910   3.891  0.0456  0.8692 -0.0830
  744MOL0     H98203   9.188   7.822   4.051  0.4491  2.3227  3.2649
  744MOL0     H98204   9.074   8.111   4.062  1.5630  1.1283 -0.2455
  744MOL0     H98205   9.151   8.001   4.173  0.3376 -1.3251 -0.0816
  744MOL0     H98206   9.495   8.173   3.994 -0.3412 -0.2426 -0.1144
  744MOL0     H98207   8.580   7.783   3.784  2.0354  0.2699  1.9276
  744MOL0     H98208   8.378   7.889   3.674 -3.3857  2.7960  1.7044
  745MOL0     O98209   5.834   9.001   3.049 -0.5471  0.3770 -0.5047
  745MOL0     C98210   5.772   9.052   3.140  0.5880  1.5110  0.3920
  745MOL0     O98211   5.823   9.114   3.253  0.6578 -0.4313 -0.0239
  745MOL0     C98212   5.955   9.120   3.277 -0.5688 -0.1424  0.3810
  745MOL0     C98213   5.978   9.123   3.409 -0.2626  0.2443 -0.6183
  745MOL0     C98214   6.113   9.102   3.456  0.5045  0.0157 -0.1701
  745MOL0     C98215   6.217   9.085   3.362 -0.1386  0.0860  0.2178
  745MOL0     O98216   6.344   9.056   3.403 -0.7606 -0.0651  0.4230
  745MOL0     C98217   6.401   9.176   3.461 -0.4642 -0.7740 -0.3142
  745MOL0     C98218   6.550   9.189   3.442  0.2999  0.0681  0.8907
  745MOL0     C98219   6.609   9.328   3.494 -0.2657 -0.3052 -0.6807
  745MOL0     C98220   6.618   9.346   3.646 -0.3596 -0.6019  0.3262
  745MOL0     C98221   6.662   9.482   3.694 -0.2786 -0.3701  0.0935
  745MOL0     C98222   6.577   9.604   3.630  0.3524  0.5254  0.0020
  745MOL0     C98223   6.624   9.734   3.701 -0.2224  1.2623 -0.3278
  745MOL0     C98224   6.773   9.755   3.669  0.4733 -0.4361 -0.1155
  745MOL0     N98225   6.796   9.777   3.523 -0.4659 -0.4169  0.0106
  745MOL0     C98226   6.728   9.860   3.431  1.1793 -0.4308 -0.5752
  745MOL0     C98227   6.750   9.809   3.309  0.5808  0.7438  0.4777
  745MOL0     C98228   6.690   9.859   3.173  1.0737 -0.6845  0.1206
  745MOL0     C98229   6.612   9.986   3.198 -0.3734 -0.4405  0.8061
  745MOL0     C98230   6.543  10.031   3.065 -1.0971  0.2509 -0.0472
  745MOL0     C98231   6.392  10.006   3.078  0.4012 -0.7925  0.5974
  745MOL0     O98232   6.331  10.091   3.169 -0.8558  0.4570  0.4021
  745MOL0     C98233   6.197  10.080   3.177 -0.2805 -0.2749  0.5408
  745MOL0     C98234   6.117  10.196   3.214 -1.2380 -0.2550  0.2633
  745MOL0     C98235   5.979  10.212   3.188 -0.8373  0.0191 -0.5822
  745MOL0     C98236   5.908  10.103   3.150  0.4301  0.2686  0.3372
  745MOL0     C98237   5.770  10.121   3.124  1.2627  0.4978 -1.3549
  745MOL0     O98238   5.694  10.005   3.110  0.6730  0.4319 -0.3042
  745MOL0     C98239   5.561  10.000   3.090  0.3113 -0.6877 -0.1676
  745MOL0     C98240   5.468  10.092   3.141 -0.9333  0.1812 -0.0208
  745MOL0     C98241   5.328  10.081   3.112 -0.0011 -0.7035 -0.5574
  745MOL0     C98242   5.284   9.978   3.026  0.1768 -0.6059  0.4476
  745MOL0     O98243   5.151   9.948   3.004 -0.1242  0.0422  1.2116
  745MOL0     C98244   5.118   9.923   2.869 -0.2259  0.5805 -0.0895
  745MOL0     C98245   5.012  10.019   2.813 -0.6472  0.1509  0.1362
  745MOL0     C98246   4.896  10.051   2.903 -0.1219  0.5651  0.3483
  745MOL0     C98247   4.782  10.133   2.839  0.5233  0.1416  0.5228
  745MOL0     C98248   4.650  10.134   2.915 -0.1317  0.6838 -0.1035
  745MOL0     C98249   4.552  10.233   2.844 -1.1012  0.1054  0.6756
  745MOL0     C98250   4.430  10.247   2.928  0.0042  1.1191  0.0117
  745MOL0     C98251   4.306  10.167   2.877  0.2189  0.3612  0.0989
  745MOL0    Cl98252   4.193  10.180   3.015 -0.0090 -0.1658  0.2989
  745MOL0     C98253   5.378   9.880   2.984 -0.4312 -0.2949 -0.2177
  745MOL0     C98254   5.513   9.894   3.020 -0.6024  0.6680  0.2581
  745MOL0     O98255   5.718  10.239   3.106  0.2063 -0.8472 -0.2354
  745MOL0     C98256   5.974   9.987   3.118  0.2474  0.0318 -0.2547
  745MOL0     C98257   6.114   9.970   3.127 -0.4462 -0.2037 -0.8038
  745MOL0     N98258   6.818   9.692   3.325 -0.7036  0.1912 -0.5504
  745MOL0     N98259   6.854   9.671   3.448 -0.0964 -0.6204 -0.0725
  745MOL0     C98260   6.187   9.084   3.224  0.7658  0.4753  0.1118
  745MOL0     C98261   6.055   9.096   3.180 -0.9540  0.5904  0.6838
  745MOL0     C98262   5.627   9.052   3.124 -1.2643  0.5446  0.1732
  745MOL0     C98263   5.554   9.009   3.013 -0.0431  0.3621 -0.1579
  745MOL0     C98264   5.423   9.040   2.992  0.8149 -0.3658 -0.0755
  745MOL0     C98265   5.345   9.105   3.085 -0.0648 -0.1032  0.1642
  745MOL0     O98266   5.209   9.121   3.074  0.3959  0.0032  0.4958
  745MOL0     C98267   5.138   9.069   2.957  0.3799  0.5657 -0.6875
  745MOL0     C98268   4.996   9.071   2.983 -0.1425 -0.4171  0.0414
  745MOL0     C98269   4.916   9.026   2.867 -1.2289 -0.2618 -0.4083
  745MOL0     C98270   4.766   9.056   2.877 -0.2259  0.8268  1.1287
  745MOL0     C98271   4.739   9.199   2.843 -0.1899 -0.1337  0.3176
  745MOL0     C98272   4.728   9.312   2.797  0.6945 -0.1232 -0.7605
  745MOL0     C98273   5.417   9.134   3.203  0.0267 -0.5647  0.3720
  745MOL0     C98274   5.551   9.120   3.221 -0.3360  0.7204  0.4783
  745MOL0     H98275   5.899   9.151   3.478  0.7614  1.8569 -0.0398
  745MOL0     H98276   6.135   9.098   3.563 -1.0068  2.5287  0.3146
  745MOL0     H98277   6.379   9.184   3.567  0.2278 -1.8126 -0.0786
  745MOL0     H98278   6.358   9.263   3.411 -1.0475 -0.9587 -0.1441
  745MOL0     H98279   6.560   9.187   3.333 -2.2919  3.5673  0.4286
  745MOL0     H98280   6.612   9.104   3.473  2.0330  2.0398  3.2395
  745MOL0     H98281   6.548   9.413   3.461  0.1014  1.4846  2.7488
  745MOL0     H98282   6.710   9.339   3.452  0.3805 -0.8504  0.6650
  745MOL0     H98283   6.516   9.326   3.680 -1.1709  0.6362 -1.2015
  745MOL0     H98284   6.692   9.280   3.693  2.5034  1.5429 -0.9045
  745MOL0     H98285   6.768   9.481   3.667 -0.1585  1.2129  0.4624
  745MOL0     H98286   6.648   9.495   3.802 -4.8682  2.5020 -0.5589
  745MOL0     H98287   6.469   9.595   3.648  0.2506  2.1710  0.4259
  745MOL0     H98288   6.595   9.613   3.522  3.1482 -1.3861  0.2011
  745MOL0     H98289   6.563   9.818   3.668 -0.2106  0.4963 -2.4309
  745MOL0     H98290   6.613   9.730   3.810  0.7548 -3.6080 -0.1810
  745MOL0     H98291   6.838   9.674   3.703 -0.0100 -1.3333 -1.2442
  745MOL0     H98292   6.809   9.836   3.733  1.2499 -2.6836  2.4532
  745MOL0     H98293   6.663   9.940   3.466  1.7829  0.4555 -1.4434
  745MOL0     H98294   6.630   9.777   3.134  0.1208 -0.2231  0.5990
  745MOL0     H98295   6.774   9.883   3.106 -0.1828 -2.2529 -2.1165
  745MOL0     H98296   6.689  10.057   3.228  1.4315 -2.3158  0.8624
  745MOL0     H98297   6.541   9.980   3.281  0.5979 -1.1516  1.6182
  745MOL0     H98298   6.577  10.135   3.053  0.2634 -0.0082  1.2298
  745MOL0     H98299   6.574   9.973   2.977  1.5273  0.5682  0.5729
  745MOL0     H98300   6.382   9.899   3.102  2.1370 -1.4439 -1.2815
  745MOL0     H98301   6.346  10.021   2.980  1.0994  0.0611  0.3876
  745MOL0     H98302   6.172  10.288   3.234  2.7027 -1.9790 -1.4390
  745MOL0     H98303   5.948  10.313   3.214 -1.3437 -1.3992  6.0481
  745MOL0     H98304   5.498  10.177   3.201  0.4832 -0.4137  0.1508
  745MOL0     H98305   5.266  10.162   3.149 -0.3693  0.0101 -2.5959
  745MOL0     H98306   5.071   9.826   2.850 -2.4304  2.1169 -3.5072
  745MOL0     H98307   5.209   9.939   2.811 -0.0232 -1.5781 -0.4582
  745MOL0     H98308   4.993   9.974   2.715 -1.5885 -3.6306  1.8508
  745MOL0     H98309   5.051  10.119   2.793 -1.3146  0.2234 -0.8761
  745MOL0     H98310   4.934  10.106   2.990 -0.9609 -1.6012  2.1693
  745MOL0     H98311   4.864   9.956   2.946  1.6583  0.7197  2.1500
  745MOL0     H98312   4.816  10.233   2.813 -0.4223 -0.0560 -1.7765
  745MOL0     H98313   4.762  10.083   2.744 -1.9739  0.2966  0.9002
  745MOL0     H98314   4.663  10.174   3.015  0.2408  2.2544 -0.7592
  745MOL0     H98315   4.617  10.033   2.944  0.4270  0.0138 -1.6578
  745MOL0     H98316   4.524  10.201   2.743  1.6674  0.1556 -0.1752
  745MOL0     H98317   4.594  10.333   2.838  1.8356 -0.8707  2.6555
  745MOL0     H98318   4.450  10.228   3.034  0.5616  1.3939 -0.0418
  745MOL0     H98319   4.393  10.350   2.920 -0.0751  1.2303  1.4689
  745MOL0     H98320   4.325  10.061   2.859  0.9026  0.4841  0.0823
  745MOL0     H98321   4.251  10.220   2.799  3.4280  2.0322 -1.2128
  745MOL0     H98322   5.351   9.787   2.934 -0.2825  0.9550 -2.7084
  745MOL0     H98323   5.592   9.828   2.985 -2.2548 -1.2867  0.0722
  745MOL0     H98324   5.909   9.909   3.079 -0.1449  1.0030 -1.5908
  745MOL0     H98325   6.147   9.869   3.101  0.5539  0.0172 -0.4421
  745MOL0     H98326   6.260   9.070   3.145 -0.5919  2.3187 -1.5584
  745MOL0     H98327   6.042   9.093   3.073 -0.9642  0.5492  0.6861
  745MOL0     H98328   5.610   8.957   2.936  1.1654 -1.1852  1.6533
  745MOL0     H98329   5.393   9.007   2.892  5.7519 -0.8257 -1.6763
  745MOL0     H98330   5.169   8.966   2.934  2.1168  1.1878 -1.3515
  745MOL0     H98331   5.165   9.118   2.863  0.6823 -0.8608 -1.3751
  745MOL0     H98332   4.958   9.017   3.071 -1.0351  0.4586  0.2053
  745MOL0     H98333   4.976   9.176   3.006 -0.1682 -0.8389  2.1909
  745MOL0     H98334   4.925   8.918   2.855 -1.0377 -0.4077  0.8612
  745MOL0     H98335   4.963   9.064   2.776  1.7024  0.2061  1.1968
  745MOL0     H98336   4.711   8.990   2.809 -1.6917  1.3778  1.7218
  745MOL0     H98337   4.722   9.021   2.970 -0.1295 -1.3954  0.3853
  745MOL0     H98338   4.712   9.412   2.761  0.8495  0.6280  1.1398
  745MOL0     H98339   5.354   9.172   3.283  3.0052  0.5791  2.3391
  745MOL0     H98340   5.589   9.148   3.318 -1.5044 -2.4754  2.0050
  746MOL0     O98341   6.702   4.982   8.212 -0.1024  0.5945 -0.3945
  746MOL0     C98342   6.619   5.067   8.250  0.0273 -0.5222 -0.2907
  746MOL0     O98343   6.636   5.147   8.361 -0.0312  0.4708 -0.3397
  746MOL0     C98344   6.766   5.187   8.399 -0.1840 -0.1192 -0.5971
  746MOL0     C98345   6.802   5.313   8.369 -0.0315 -0.6858  0.1805
  746MOL0     C98346   6.922   5.370   8.420 -0.8034 -0.2599  0.6138
  746MOL0     C98347   7.008   5.294   8.492 -0.0686  0.4059  0.6560
  746MOL0     O98348   7.123   5.352   8.525 -0.6115 -0.5002 -0.0605
  746MOL0     C98349   7.241   5.277   8.523 -0.4289  0.3040 -0.5980
  746MOL0     C98350   7.349   5.376   8.542 -0.3947 -0.6404 -0.1611
  746MOL0     C98351   7.366   5.434   8.682  0.4763  0.2971 -0.7690
  746MOL0     C98352   7.497   5.507   8.679  0.2088 -0.8654  0.1959
  746MOL0     C98353   7.545   5.529   8.822  0.2415  0.4212  0.7336
  746MOL0     C98354   7.649   5.637   8.845 -0.8085  0.3755  0.1255
  746MOL0     C98355   7.684   5.657   8.988  0.9145  0.7570 -0.3693
  746MOL0     C98356   7.572   5.731   9.058 -0.3486 -0.3288 -0.5567
  746MOL0     N98357   7.617   5.771   9.191 -0.6677 -0.2192 -0.1955
  746MOL0     C98358   7.670   5.892   9.216 -0.4028  1.1280  1.0920
  746MOL0     C98359   7.659   5.899   9.343  0.5343 -0.9214 -0.2219
  746MOL0     C98360   7.693   6.029   9.410 -0.4725  0.0069 -0.7478
  746MOL0     C98361   7.571   6.113   9.432 -0.2831  0.1209  0.5461
  746MOL0     C98362   7.511   6.167   9.306  0.6351  0.3765 -0.1314
  746MOL0     C98363   7.426   6.296   9.345  0.8951 -0.4786  0.2975
  746MOL0     O98364   7.503   6.417   9.315 -0.4038  0.0091 -0.2382
  746MOL0     C98365   7.441   6.540   9.280  1.0131  0.7355 -0.2506
  746MOL0     C98366   7.520   6.639   9.241  0.0954 -0.4094  0.2701
  746MOL0     C98367   7.465   6.766   9.205  0.4635  0.7798 -0.2635
  746MOL0     C98368   7.334   6.790   9.211  0.2340  0.5654 -0.5463
  746MOL0     C98369   7.276   6.928   9.179  0.7515 -0.6750 -0.8943
  746MOL0     O98370   7.136   6.929   9.150 -0.4888 -0.2861  0.2785
  746MOL0     C98371   7.078   7.049   9.116 -0.3822  0.4328 -0.9248
  746MOL0     C98372   6.945   7.052   9.156  0.2897 -0.8573 -0.3982
  746MOL0     C98373   6.867   7.167   9.129  0.3401  1.3109  0.4515
  746MOL0     C98374   6.910   7.273   9.042 -0.3914 -0.3969 -0.1512
  746MOL0     O98375   6.831   7.376   9.004  0.2638  0.1228  0.6830
  746MOL0     C98376   6.758   7.339   8.888  0.1380 -0.3912  0.4632
  746MOL0     C98377   6.686   7.467   8.854 -0.9842  0.0141 -0.2725
  746MOL0     C98378   6.612   7.443   8.721 -0.2792 -0.2743 -0.0261
  746MOL0     C98379   6.532   7.563   8.676 -0.4025 -0.3987  0.1065
  746MOL0     C98380   6.625   7.655   8.596 -0.2462  0.1296 -0.0881
  746MOL0     C98381   6.557   7.751   8.501  0.5507  0.7423 -0.0051
  746MOL0     C98382   6.468   7.698   8.390 -0.5115  0.5616 -0.2538
  746MOL0     C98383   6.545   7.591   8.307 -0.9596  0.1434 -0.6354
  746MOL0    Cl98384   6.475   7.542   8.151  0.4777 -0.3938 -0.1215
  746MOL0     C98385   7.046   7.265   9.010 -0.6182  0.2672  0.0791
  746MOL0     C98386   7.136   7.156   9.045  0.2624  0.0545  0.5396
  746MOL0     O98387   7.342   7.024   9.183  0.5812 -0.2428  0.5656
  746MOL0     C98388   7.251   6.680   9.252 -0.1201 -0.7191  0.2053
  746MOL0     C98389   7.303   6.558   9.287 -0.1184  0.3891  0.7129
  746MOL0     N98390   7.610   5.787   9.405  0.9733  0.3225  0.4350
  746MOL0     N98391   7.569   5.712   9.307 -0.3821 -0.0368 -0.2130
  746MOL0     C98392   6.970   5.157   8.521 -1.0730  0.0164  0.2707
  746MOL0     C98393   6.847   5.111   8.480 -0.7823 -0.3179  0.5636
  746MOL0     C98394   6.487   5.072   8.190  1.3531  0.8798  0.8599
  746MOL0     C98395   6.456   4.977   8.102 -0.1534  0.4262 -0.3215
  746MOL0     C98396   6.332   4.964   8.044  0.5071  0.5058  0.1087
  746MOL0     C98397   6.234   5.065   8.074 -0.6488  0.0116  0.2229
  746MOL0     O98398   6.103   5.063   8.021 -0.5304  0.0396  0.1787
  746MOL0     C98399   6.069   5.009   7.893  0.0918 -0.7213  0.3207
  746MOL0     C98400   5.939   5.067   7.848  0.1610  0.7035  1.1382
  746MOL0     C98401   5.950   5.222   7.823  1.4958 -0.2054  0.3216
  746MOL0     C98402   5.805   5.296   7.819  0.7537  0.8953  0.0663
  746MOL0     C98403   5.744   5.303   7.957  0.9322 -0.4825  0.2894
  746MOL0     C98404   5.708   5.319   8.068 -0.6230 -0.3256 -0.5414
  746MOL0     C98405   6.263   5.168   8.167 -0.1065 -0.2273  0.2272
  746MOL0     C98406   6.395   5.178   8.213 -1.4507  0.6997  0.8310
  746MOL0     H98407   6.733   5.380   8.319 -0.9052  0.5480  2.8280
  746MOL0     H98408   6.957   5.472   8.410 -0.5374 -0.3165  0.9704
  746MOL0     H98409   7.248   5.217   8.432 -1.3587 -0.2044 -0.3485
  746MOL0     H98410   7.251   5.209   8.608  1.1374  1.0973 -0.1169
  746MOL0     H98411   7.334   5.449   8.462  5.1439  0.7104 -0.3742
  746MOL0     H98412   7.447   5.334   8.520  2.0448  2.6286  3.1008
  746MOL0     H98413   7.372   5.353   8.755 -2.3855 -0.3489 -1.1145
  746MOL0     H98414   7.284   5.503   8.708 -0.5885 -1.6535  1.4375
  746MOL0     H98415   7.581   5.450   8.638  0.8355 -1.1059  1.7370
  746MOL0     H98416   7.502   5.602   8.627  1.3725 -0.7323  0.5265
  746MOL0     H98417   7.576   5.428   8.851  0.7702  1.2135  3.0997
  746MOL0     H98418   7.454   5.546   8.879  0.7022  3.1383  0.7954
  746MOL0     H98419   7.614   5.728   8.795 -1.8015 -0.0479  0.0219
  746MOL0     H98420   7.737   5.599   8.792 -1.0061  0.2079 -0.0880
  746MOL0     H98421   7.709   5.566   9.043 -0.7937  0.9248  0.7686
  746MOL0     H98422   7.776   5.714   9.002  1.8922 -0.9782  0.6826
  746MOL0     H98423   7.477   5.678   9.054 -1.1071  1.0586 -1.5896
  746MOL0     H98424   7.556   5.822   9.001 -4.1362 -2.5297 -3.4682
  746MOL0     H98425   7.718   5.972   9.161  1.5643 -0.6606  0.0642
  746MOL0     H98426   7.775   6.081   9.359  0.1139 -2.0616 -2.0213
  746MOL0     H98427   7.734   6.010   9.510 -0.6182  1.6273 -0.3606
  746MOL0     H98428   7.599   6.188   9.506 -0.1043 -0.3847  0.9963
  746MOL0     H98429   7.498   6.053   9.487 -0.0173  0.1609  0.9469
  746MOL0     H98430   7.572   6.199   9.221 -0.9468 -1.6316 -2.1343
  746MOL0     H98431   7.431   6.100   9.274 -0.7622  2.0169 -0.2170
  746MOL0     H98432   7.398   6.296   9.450 -0.8194  1.9807 -0.0840
  746MOL0     H98433   7.331   6.285   9.292  1.8723  0.4687 -1.7646
  746MOL0     H98434   7.627   6.627   9.229  0.0015  0.1725 -1.4440
  746MOL0     H98435   7.537   6.843   9.183 -1.5877  3.0524  0.5525
  746MOL0     H98436   6.902   6.970   9.213  1.9873 -1.5984 -0.1189
  746MOL0     H98437   6.767   7.175   9.172  0.8996 -0.6776  2.3082
  746MOL0     H98438   6.686   7.260   8.911 -1.0158  0.6516  0.5455
  746MOL0     H98439   6.829   7.308   8.811 -0.5579  3.0984 -1.8346
  746MOL0     H98440   6.756   7.550   8.840 -4.8818  3.5435 -0.9954
  746MOL0     H98441   6.621   7.488   8.940  1.5408  0.3628  1.6746
  746MOL0     H98442   6.538   7.362   8.729  0.3980 -1.4890 -3.9170
  746MOL0     H98443   6.677   7.401   8.643 -0.9805 -2.6730  0.5902
  746MOL0     H98444   6.455   7.535   8.603 -1.4500  2.0679  0.1701
  746MOL0     H98445   6.471   7.617   8.749 -1.0359 -0.0113 -0.6894
  746MOL0     H98446   6.698   7.599   8.537 -1.1685  1.0830 -2.2258
  746MOL0     H98447   6.681   7.706   8.674  1.4648  0.9239 -1.7487
  746MOL0     H98448   6.627   7.826   8.463  1.1469  0.3992  0.3928
  746MOL0     H98449   6.497   7.818   8.564  0.2102 -0.9699  1.5797
  746MOL0     H98450   6.379   7.654   8.434  1.3277 -1.3124  1.8224
  746MOL0     H98451   6.430   7.773   8.320 -0.8265 -1.6213 -2.5552
  746MOL0     H98452   6.556   7.504   8.371 -1.8668  0.6902  0.2900
  746MOL0     H98453   6.645   7.633   8.291 -0.9536  1.0135  1.4410
  746MOL0     H98454   7.081   7.359   8.967  1.4162  1.3707  3.7298
  746MOL0     H98455   7.236   7.177   9.008 -0.4014  2.9694  0.1113
  746MOL0     H98456   7.144   6.697   9.253  0.1906  1.4597 -0.0963
  746MOL0     H98457   7.239   6.472   9.303 -0.4657  0.5346  0.1601
  746MOL0     H98458   7.046   5.101   8.575  0.2254 -3.0745 -4.1909
  746MOL0     H98459   6.812   5.011   8.503 -0.5324 -0.6309 -0.3969
  746MOL0     H98460   6.528   4.900   8.079 -1.5269 -1.0189  0.0914
  746MOL0     H98461   6.304   4.897   7.963  2.2960  1.4719 -1.3813
  746MOL0     H98462   6.063   4.900   7.892 -1.1846 -0.6644 -0.3227
  746MOL0     H98463   6.143   5.036   7.817 -0.0786 -0.1595  0.3519
  746MOL0     H98464   5.909   5.024   7.753 -1.3308  0.6906  1.5870
  746MOL0     H98465   5.873   5.035   7.930  0.1169 -2.0052  0.1406
  746MOL0     H98466   5.991   5.236   7.723  2.0231 -2.0894  0.2373
  746MOL0     H98467   6.006   5.271   7.903 -0.4399  1.2772  0.8550
  746MOL0     H98468   5.803   5.396   7.776 -1.3913  0.4896 -0.9058
  746MOL0     H98469   5.740   5.238   7.753  0.5370  1.0874  0.1100
  746MOL0     H98470   5.677   5.325   8.171  0.8815 -0.2568 -0.0749
  746MOL0     H98471   6.190   5.242   8.197  0.8991  1.6301 -1.6721
  746MOL0     H98472   6.422   5.250   8.291  3.3365  0.8396 -0.6025
  747MOL0     O98473   9.680   3.813   0.056  0.8104 -0.0081  0.5388
  747MOL0     C98474   9.726   3.889  -0.027 -0.6052  0.2083  0.2635
  747MOL0     O98475   9.694   3.887  -0.167 -0.3641  0.1636 -0.9530
  747MOL0     C98476   9.623   3.777  -0.208  0.1739 -0.3128 -0.1316
  747MOL0     C98477   9.527   3.802  -0.306 -0.6640  0.6414 -0.1220
  747MOL0     C98478   9.454   3.695  -0.363  0.4799 -0.0090  0.0407
  747MOL0     C98479   9.494   3.563  -0.340  0.0813 -0.4934  0.1759
  747MOL0     O98480   9.432   3.456  -0.399 -0.1258  0.0640 -0.5473
  747MOL0     C98481   9.291   3.453  -0.397  0.0653  0.0964  1.0586
  747MOL0     C98482   9.229   3.493  -0.535  0.7422  0.0401  1.3592
  747MOL0     C98483   9.073   3.465  -0.530 -0.8957 -0.4890 -0.6645
  747MOL0     C98484   9.032   3.323  -0.561  0.0035  0.1162  0.1470
  747MOL0     C98485   8.879   3.292  -0.578  0.1041  0.2270  1.1649
  747MOL0     C98486   8.806   3.371  -0.692 -0.8371 -0.7389 -0.3044
  747MOL0     C98487   8.853   3.342  -0.835  0.0912 -0.1263 -0.0009
  747MOL0     C98488   8.812   3.201  -0.888  0.3038 -0.3877  0.4819
  747MOL0     N98489   8.667   3.192  -0.905  0.1408  0.5126  0.6159
  747MOL0     C98490   8.582   3.289  -0.943  0.5372  0.6559  0.3671
  747MOL0     C98491   8.465   3.217  -0.954 -0.0475 -0.1324 -0.1092
  747MOL0     C98492   8.343   3.282  -1.013 -0.5502  0.4071 -0.3320
  747MOL0     C98493   8.221   3.257  -0.925  1.0747 -0.1065 -0.4994
  747MOL0     C98494   8.090   3.311  -0.968 -0.2334 -0.1901 -0.8079
  747MOL0     C98495   7.976   3.244  -0.897  0.4511 -1.1519  0.2605
  747MOL0     O98496   7.848   3.311  -0.931 -0.2919 -0.0320  0.5712
  747MOL0     C98497   7.730   3.240  -0.919 -0.3536 -0.5084 -1.0096
  747MOL0     C98498   7.716   3.127  -0.839  0.8572  0.8791 -0.0748
  747MOL0     C98499   7.599   3.053  -0.839 -0.4788  0.1552  0.4642
  747MOL0     C98500   7.491   3.099  -0.914  0.1966  0.0021 -0.1756
  747MOL0     C98501   7.361   3.032  -0.903  0.0175  1.0270  0.1229
  747MOL0     O98502   7.258   3.081  -0.977 -0.2009 -0.1955  0.7200
  747MOL0     C98503   7.151   3.004  -1.021  0.4820  0.2001 -0.0805
  747MOL0     C98504   7.119   3.027  -1.153 -1.1495  0.3823 -0.4213
  747MOL0     C98505   7.010   2.962  -1.204  1.0966 -0.3259  0.6711
  747MOL0     C98506   6.943   2.870  -1.127 -0.0603 -0.2413  0.1986
  747MOL0     O98507   6.837   2.820  -1.203 -0.0500 -0.1485 -0.0008
  747MOL0     C98508   6.727   2.766  -1.125 -0.1555 -0.7793 -0.0341
  747MOL0     C98509   6.605   2.760  -1.221  0.3343 -0.0044 -0.1357
  747MOL0     C98510   6.522   2.626  -1.203  0.3108  1.0974 -0.8795
  747MOL0     C98511   6.386   2.628  -1.284 -0.3287 -0.0014 -0.9365
  747MOL0     C98512   6.296   2.508  -1.263 -0.0048 -0.1147  0.4759
  747MOL0     C98513   6.163   2.528  -1.342 -0.2303 -0.6412 -0.2631
  747MOL0     C98514   6.054   2.407  -1.342 -0.3414  0.4251 -0.0645
  747MOL0     C98515   5.980   2.413  -1.473 -0.0577 -0.0931 -0.7593
  747MOL0    Cl98516   6.091   2.404  -1.600 -0.0428  0.7022 -0.4289
  747MOL0     C98517   6.985   2.844  -1.003  0.0953  0.4701 -0.8367
  747MOL0     C98518   7.085   2.912  -0.937 -1.0253  0.7206 -0.0972
  747MOL0     O98519   7.365   2.920  -0.853  0.1571  0.2879 -0.0872
  747MOL0     C98520   7.501   3.210  -0.998  0.0169 -0.4376 -0.2351
  747MOL0     C98521   7.621   3.278  -1.001 -1.1405  0.0027  1.1565
  747MOL0     N98522   8.484   3.083  -0.917 -1.0406  0.5833 -0.0720
  747MOL0     N98523   8.609   3.068  -0.899 -0.1839  0.2581 -0.1011
  747MOL0     C98524   9.595   3.538  -0.249 -0.3592 -0.1456 -0.4026
  747MOL0     C98525   9.662   3.639  -0.188 -0.2258 -1.2065 -0.5268
  747MOL0     C98526   9.845   3.981  -0.007 -0.6878  0.1647 -0.0589
  747MOL0     C98527   9.893   4.075  -0.110  0.4651  0.2159  0.6300
  747MOL0     C98528  10.005   4.153  -0.089  0.5477  0.4201 -0.2250
  747MOL0     C98529  10.068   4.155   0.037 -0.6164 -0.2386 -0.8498
  747MOL0     O98530  10.168   4.240   0.045  0.6003  0.1371  0.3762
  747MOL0     C98531  10.217   4.283   0.171  0.0526  0.6845 -0.8843
  747MOL0     C98532  10.327   4.402   0.156  0.0388  0.4147  0.3674
  747MOL0     C98533  10.386   4.448   0.290  0.2196  0.2519  0.2577
  747MOL0     C98534  10.306   4.566   0.365 -0.1959 -0.0415 -0.7778
  747MOL0     C98535  10.297   4.697   0.297 -0.6102  0.2445 -0.9201
  747MOL0     C98536  10.277   4.794   0.231 -0.4502  0.6838  0.0682
  747MOL0     C98537  10.023   4.067   0.136  0.3193 -0.8539  0.8184
  747MOL0     C98538   9.913   3.985   0.114  0.2989 -0.2056 -0.9863
  747MOL0     H98539   9.525   3.901  -0.353 -1.8502 -0.4683 -2.6242
  747MOL0     H98540   9.375   3.738  -0.424  0.8065  0.3713 -0.1146
  747MOL0     H98541   9.256   3.519  -0.318 -0.6895  3.4700 -1.8548
  747MOL0     H98542   9.249   3.356  -0.370 -0.1646 -1.7145 -4.4577
  747MOL0     H98543   9.259   3.421  -0.612 -3.7617 -2.2849  1.4822
  747MOL0     H98544   9.248   3.598  -0.562 -2.5728  0.0446 -1.5711
  747MOL0     H98545   9.037   3.542  -0.598 -0.5588  0.9473  0.7146
  747MOL0     H98546   9.024   3.497  -0.438 -0.0622  3.5309 -1.4208
  747MOL0     H98547   9.070   3.297  -0.661 -2.0831 -3.5035  0.1443
  747MOL0     H98548   9.072   3.262  -0.479  1.9682  1.5286  0.3308
  747MOL0     H98549   8.834   3.304  -0.479 -1.0796  0.8221  0.5766
  747MOL0     H98550   8.859   3.188  -0.604 -1.9840  0.5956  1.1093
  747MOL0     H98551   8.835   3.476  -0.686  0.2920 -0.9261 -1.8208
  747MOL0     H98552   8.698   3.359  -0.678 -0.3993 -1.8272  2.5630
  747MOL0     H98553   8.815   3.417  -0.904  0.9141 -0.1697 -0.5082
  747MOL0     H98554   8.959   3.366  -0.844  0.2555 -0.9168 -0.2902
  747MOL0     H98555   8.835   3.133  -0.805 -0.7177  1.5209  2.4200
  747MOL0     H98556   8.857   3.192  -0.987 -1.4029  0.4151 -0.4093
  747MOL0     H98557   8.602   3.395  -0.959  2.7377  0.8115  3.2590
  747MOL0     H98558   8.323   3.239  -1.112 -2.2010  1.0898 -0.3348
  747MOL0     H98559   8.356   3.390  -1.017  2.3517  0.1251 -0.4374
  747MOL0     H98560   8.234   3.283  -0.819  3.4727  2.9024 -1.3989
  747MOL0     H98561   8.197   3.152  -0.942  0.1594  0.2116 -1.3043
  747MOL0     H98562   8.082   3.420  -0.967 -2.8221 -0.3104  1.4909
  747MOL0     H98563   8.075   3.296  -1.075 -1.4313 -1.0207 -0.5476
  747MOL0     H98564   7.976   3.244  -0.788 -2.4911 -0.2542  0.3675
  747MOL0     H98565   7.973   3.139  -0.927  0.9489 -0.7439 -1.3351
  747MOL0     H98566   7.795   3.093  -0.774  0.4654  1.5845  0.7938
  747MOL0     H98567   7.597   2.968  -0.772 -0.1198  1.7905  2.6983
  747MOL0     H98568   7.178   3.106  -1.199 -4.2751  2.5222 -1.0989
  747MOL0     H98569   6.974   2.997  -1.300  1.9437 -2.1855 -0.3847
  747MOL0     H98570   6.694   2.834  -1.047  0.1781 -0.3285 -0.2775
  747MOL0     H98571   6.756   2.666  -1.090  0.8541 -1.1499 -1.7501
  747MOL0     H98572   6.644   2.762  -1.323 -0.4417 -2.2086 -0.5290
  747MOL0     H98573   6.551   2.854  -1.208  1.7317  0.8125  0.0410
  747MOL0     H98574   6.496   2.613  -1.097 -0.0221  1.0542 -0.9687
  747MOL0     H98575   6.576   2.534  -1.225 -0.1553  0.1357  1.6510
  747MOL0     H98576   6.342   2.726  -1.263  2.5331  1.1272  0.3430
  747MOL0     H98577   6.408   2.617  -1.391 -2.6928 -2.1535 -1.2952
  747MOL0     H98578   6.272   2.513  -1.157 -0.0042  1.1027  0.4367
  747MOL0     H98579   6.348   2.417  -1.291 -1.7476 -1.7514  2.2710
  747MOL0     H98580   6.202   2.561  -1.440  2.1199  4.3227  1.9797
  747MOL0     H98581   6.121   2.614  -1.290 -0.4961  0.3352 -1.9828
  747MOL0     H98582   6.101   2.308  -1.340  1.1184  0.9805 -2.6083
  747MOL0     H98583   5.988   2.416  -1.256 -3.6789  0.7669 -2.4665
  747MOL0     H98584   5.925   2.507  -1.481  2.1248  1.5045  1.7158
  747MOL0     H98585   5.902   2.336  -1.481 -0.1341 -0.8801  4.3665
  747MOL0     H98586   6.933   2.769  -0.944 -0.4368  1.1232 -0.4485
  747MOL0     H98587   7.116   2.881  -0.837  0.7386  0.8315 -0.5756
  747MOL0     H98588   7.408   3.244  -1.043 -0.9468 -4.3281 -1.6467
  747MOL0     H98589   7.622   3.366  -1.065 -1.4348 -1.2785 -0.6629
  747MOL0     H98590   9.611   3.432  -0.229  0.9061  0.0346 -0.3572
  747MOL0     H98591   9.748   3.612  -0.128  1.0459  0.6156 -1.4471
  747MOL0     H98592   9.851   4.078  -0.210  0.8222  0.7537  0.4946
  747MOL0     H98593  10.030   4.223  -0.168 -0.3402  1.1264  0.1023
  747MOL0     H98594  10.266   4.201   0.224  1.9002  2.5707  0.5352
  747MOL0     H98595  10.133   4.314   0.234  1.1124 -1.5027  1.8086
  747MOL0     H98596  10.417   4.366   0.106  0.1277  0.7761  0.2673
  747MOL0     H98597  10.293   4.494   0.109 -2.3334  0.1997  1.5168
  747MOL0     H98598  10.494   4.465   0.288  0.3820 -0.7179 -0.8902
  747MOL0     H98599  10.371   4.354   0.344  0.2002 -0.1301 -0.3942
  747MOL0     H98600  10.205   4.538   0.395  0.8129 -0.7743  2.2419
  747MOL0     H98601  10.359   4.573   0.460  2.1113  0.5446 -2.0249
  747MOL0     H98602  10.252   4.879   0.170  1.4446  1.6966  0.5988
  747MOL0     H98603  10.059   4.066   0.238 -2.2306 -0.8103  1.8086
  747MOL0     H98604   9.875   3.933   0.202  0.3067  2.5096  0.7262
  748MOL0     O98605   9.773   1.667   8.574 -0.6423  1.2469 -0.7903
  748MOL0     C98606   9.736   1.593   8.665 -0.4251  0.0955  0.4156
  748MOL0     O98607   9.822   1.514   8.746  1.0601 -0.0818  0.1730
  748MOL0     C98608   9.958   1.530   8.757  0.2942 -0.3190 -0.0305
  748MOL0     C98609  10.022   1.433   8.837  0.1920 -0.6285 -0.0026
  748MOL0     C98610  10.164   1.436   8.848  0.0640  0.5644 -0.6682
  748MOL0     C98611  10.242   1.548   8.806  0.1674  0.1878  0.2861
  748MOL0     O98612  10.379   1.547   8.820  1.1171 -0.1031  0.9249
  748MOL0     C98613  10.414   1.539   8.954 -0.7301  1.0119 -0.5043
  748MOL0     C98614  10.568   1.547   8.962  0.1662  0.1166 -1.1389
  748MOL0     C98615  10.638   1.429   8.906 -0.3501  0.8332  0.9122
  748MOL0     C98616  10.586   1.284   8.934  0.5219 -0.6722 -0.5939
  748MOL0     C98617  10.693   1.178   8.928  0.7909  0.0219 -0.0104
  748MOL0     C98618  10.720   1.132   8.784  0.5134 -0.3966  0.2092
  748MOL0     C98619  10.805   0.999   8.779  0.1051 -0.0247 -0.1027
  748MOL0     C98620  10.952   1.030   8.745 -0.4927  0.6242 -1.3236
  748MOL0     N98621  11.024   1.120   8.831  0.3670 -0.5020 -0.4689
  748MOL0     C98622  11.041   1.104   8.972  0.2899  0.3896  0.8165
  748MOL0     C98623  11.092   1.218   9.014  0.7574 -0.7120 -0.2835
  748MOL0     C98624  11.103   1.262   9.162 -0.4255 -0.0185  0.0114
  748MOL0     C98625  10.978   1.334   9.214 -0.0623 -1.0545  0.7739
  748MOL0     C98626  10.976   1.316   9.363  0.0163 -0.2683  0.1041
  748MOL0     C98627  10.846   1.376   9.418  0.2120 -0.2917  0.1644
  748MOL0     O98628  10.804   1.310   9.532  0.1931 -0.2711  0.2712
  748MOL0     C98629  10.693   1.363   9.601  0.5455  2.1246 -0.8308
  748MOL0     C98630  10.608   1.460   9.548 -0.6358 -0.0422 -0.6013
  748MOL0     C98631  10.485   1.503   9.619  0.4702  0.8273  0.0189
  748MOL0     C98632  10.468   1.451   9.751 -0.2678 -0.2995  0.0414
  748MOL0     C98633  10.360   1.493   9.833  0.2264  0.0249  0.6372
  748MOL0     O98634  10.261   1.562   9.774 -0.1926  0.2778  0.2302
  748MOL0     C98635  10.155   1.593   9.854 -0.1410  0.5157  0.0620
  748MOL0     C98636  10.177   1.694   9.945  0.5532  0.3193  0.2635
  748MOL0     C98637  10.079   1.715  10.035  0.7554 -0.3080  0.3175
  748MOL0     C98638   9.975   1.621  10.053 -0.1268 -0.2064  0.1420
  748MOL0     O98639   9.886   1.629  10.164 -0.8658 -0.3397 -0.4590
  748MOL0     C98640   9.755   1.572  10.170  0.4422 -0.4442  0.2310
  748MOL0     C98641   9.705   1.596  10.310 -0.0427 -0.0314  0.1509
  748MOL0     C98642   9.562   1.531  10.326 -0.3800  0.2682 -0.2868
  748MOL0     C98643   9.451   1.618  10.289  0.2492 -1.0063  0.6308
  748MOL0     C98644   9.319   1.563  10.320 -0.2992 -0.1847 -0.2859
  748MOL0     C98645   9.272   1.482  10.201 -0.3430  1.0872  0.2848
  748MOL0     C98646   9.121   1.432  10.212 -0.1250 -0.0858 -0.4359
  748MOL0     C98647   9.070   1.343  10.091 -1.4097  0.1137  0.2998
  748MOL0    Cl98648   9.125   1.385   9.924  0.1620 -0.1021  0.0858
  748MOL0     C98649   9.957   1.520   9.954  0.5967  0.0211 -0.5590
  748MOL0     C98650  10.048   1.502   9.853  0.8845  0.2224 -0.8905
  748MOL0     O98651  10.370   1.462   9.948 -0.0344 -0.4763  0.3520
  748MOL0     C98652  10.558   1.352   9.791  0.3788  0.1635  0.1192
  748MOL0     C98653  10.669   1.307   9.722  0.0349 -0.1433 -0.6210
  748MOL0     N98654  11.102   1.304   8.905 -0.6686 -0.4532  0.7603
  748MOL0     N98655  11.071   1.245   8.798  0.1074  0.1388  0.3972
  748MOL0     C98656  10.171   1.658   8.758 -0.5964  0.9445 -0.4795
  748MOL0     C98657  10.039   1.646   8.724  0.2971  0.7248  0.9719
  748MOL0     C98658   9.593   1.580   8.680 -0.0599 -0.1339 -0.9182
  748MOL0     C98659   9.495   1.659   8.618 -0.3007  0.4133 -0.2847
  748MOL0     C98660   9.358   1.634   8.630 -0.7683  0.1159 -0.2756
  748MOL0     C98661   9.319   1.516   8.700  0.4181  0.7303  0.5202
  748MOL0     O98662   9.180   1.481   8.706 -0.3711  0.1752 -0.0672
  748MOL0     C98663   9.102   1.584   8.750  0.1236 -0.5831 -0.1504
  748MOL0     C98664   9.118   1.606   8.902  0.0724 -0.7610 -0.6381
  748MOL0     C98665   9.085   1.483   8.991  0.8279 -0.3557 -0.0662
  748MOL0     C98666   9.120   1.518   9.138 -1.3803  0.4102 -0.3255
  748MOL0     C98667   9.261   1.550   9.161  0.8464 -0.5730  0.7410
  748MOL0     C98668   9.378   1.585   9.172 -0.9830  0.7262 -0.4795
  748MOL0     C98669   9.414   1.430   8.758  0.0532  0.8161  0.8747
  748MOL0     C98670   9.553   1.469   8.763  0.8735  1.0211  0.7549
  748MOL0     H98671   9.964   1.355   8.885 -2.6595  2.2981  1.7624
  748MOL0     H98672  10.223   1.356   8.892 -0.4032  0.7066  0.2505
  748MOL0     H98673  10.390   1.445   9.003 -1.2664  2.1393  1.4776
  748MOL0     H98674  10.366   1.621   9.008  1.1616  3.0153 -1.6890
  748MOL0     H98675  10.599   1.563   9.066  4.0613  0.7670 -2.2137
  748MOL0     H98676  10.605   1.637   8.911  1.5949  0.7105  0.8156
  748MOL0     H98677  10.743   1.434   8.935  0.4044 -0.5704 -1.2889
  748MOL0     H98678  10.618   1.444   8.799  0.5195  3.0242  1.0188
  748MOL0     H98679  10.542   1.279   9.034 -1.2199 -1.1492 -1.3379
  748MOL0     H98680  10.504   1.270   8.863 -1.5211  1.9174  1.0285
  748MOL0     H98681  10.653   1.096   8.988  1.2910  1.3688  2.2597
  748MOL0     H98682  10.789   1.206   8.972  1.1353 -2.9000  1.3569
  748MOL0     H98683  10.774   1.213   8.734 -1.1935  0.0359 -0.9990
  748MOL0     H98684  10.626   1.105   8.737 -0.3451  2.4808  0.1102
  748MOL0     H98685  10.798   0.945   8.874 -2.0816  1.6365  0.7601
  748MOL0     H98686  10.773   0.929   8.701  0.3912 -0.9435  0.5834
  748MOL0     H98687  10.946   1.062   8.641 -2.6930  1.6225 -0.9466
  748MOL0     H98688  11.006   0.936   8.756 -0.7229  0.6595  0.4463
  748MOL0     H98689  11.021   1.019   9.036  2.1256 -0.5428  0.2345
  748MOL0     H98690  11.188   1.331   9.155 -0.3301 -0.2096 -0.8650
  748MOL0     H98691  11.127   1.171   9.218 -4.6704 -0.2496  1.8112
  748MOL0     H98692  10.888   1.285   9.177 -0.0625 -0.2844 -0.2645
  748MOL0     H98693  10.995   1.437   9.184  1.2022 -1.5598 -0.3227
  748MOL0     H98694  10.960   1.208   9.369  1.3648 -0.6483 -2.0917
  748MOL0     H98695  11.062   1.345   9.424  0.1454 -0.6781  0.1222
  748MOL0     H98696  10.766   1.375   9.343  1.1075 -0.8609 -0.8067
  748MOL0     H98697  10.864   1.483   9.435 -0.2914 -0.0838 -0.5754
  748MOL0     H98698  10.625   1.509   9.453 -0.1038 -0.5549 -0.7797
  748MOL0     H98699  10.423   1.568   9.558  0.3810 -0.0431 -0.8457
  748MOL0     H98700  10.256   1.768   9.936  0.6030  0.1786 -0.4900
  748MOL0     H98701  10.075   1.798  10.106  0.5861 -0.4888  0.5216
  748MOL0     H98702   9.749   1.465  10.149 -0.6505 -0.3852  0.1849
  748MOL0     H98703   9.685   1.619  10.099  0.8655 -1.1332 -0.6556
  748MOL0     H98704   9.711   1.700  10.344  1.0683 -0.1137  0.2409
  748MOL0     H98705   9.774   1.538  10.372  1.1126  0.2304 -0.8634
  748MOL0     H98706   9.549   1.499  10.430  4.2187  1.1029  0.7896
  748MOL0     H98707   9.550   1.445  10.258  1.7793 -0.1804 -0.1683
  748MOL0     H98708   9.453   1.710  10.349  0.3217 -0.9071  0.4776
  748MOL0     H98709   9.454   1.650  10.184  3.5675 -0.6853  0.7173
  748MOL0     H98710   9.247   1.643  10.335 -1.1523 -0.7023 -1.4831
  748MOL0     H98711   9.326   1.513  10.417 -1.1113 -0.2844 -0.2752
  748MOL0     H98712   9.339   1.396  10.198 -0.3061  1.1409 -1.0451
  748MOL0     H98713   9.287   1.543  10.112  4.0468  3.5628  2.3484
  748MOL0     H98714   9.130   1.365  10.298  2.2005 -0.5358 -0.9573
  748MOL0     H98715   9.053   1.512  10.242 -1.7071 -0.8078 -1.9103
  748MOL0     H98716   8.961   1.339  10.080 -1.3047  1.0908 -1.3990
  748MOL0     H98717   9.104   1.243  10.119  0.5620  0.0566 -1.9765
  748MOL0     H98718   9.874   1.451   9.960  0.9369 -0.2905  0.8398
  748MOL0     H98719  10.036   1.418   9.786 -2.7776 -1.3693  1.4397
  748MOL0     H98720  10.540   1.306   9.888  1.6209  0.5760  0.5764
  748MOL0     H98721  10.731   1.231   9.768 -1.8767 -0.8438  0.9300
  748MOL0     H98722  10.212   1.756   8.733 -4.7478  3.0886  0.1135
  748MOL0     H98723   9.987   1.724   8.669 -1.7162 -0.5484  0.9656
  748MOL0     H98724   9.537   1.740   8.560 -3.0847  0.0376 -3.1155
  748MOL0     H98725   9.294   1.709   8.583  1.1850  1.2676 -1.1920
  748MOL0     H98726   9.000   1.545   8.753  0.1143 -0.5243  0.5897
  748MOL0     H98727   9.101   1.671   8.685 -0.5189 -1.5289 -1.4449
  748MOL0     H98728   9.219   1.644   8.921 -1.1454  1.5064  2.0241
  748MOL0     H98729   9.061   1.696   8.928  0.0208 -0.6169 -1.2213
  748MOL0     H98730   9.150   1.400   8.960 -1.0723 -0.9750 -2.7960
  748MOL0     H98731   8.985   1.443   8.974  1.0031 -1.1218  0.6254
  748MOL0     H98732   9.049   1.592   9.175 -0.1813  2.1989 -1.4614
  748MOL0     H98733   9.107   1.426   9.196  1.4042 -0.2914 -0.6611
  748MOL0     H98734   9.481   1.613   9.172 -0.8768  0.4265 -2.0670
  748MOL0     H98735   9.378   1.339   8.804 -0.6836 -0.0317 -1.2864
  748MOL0     H98736   9.629   1.413   8.816  1.1830  2.5258  1.9792
  749MOL0     O98737  10.572  10.401  10.466  0.3400  0.0892 -0.1602
  749MOL0     C98738  10.613  10.329  10.562  0.0504 -0.1352  0.3609
  749MOL0     O98739  10.543  10.237  10.629 -0.1053  0.4887 -0.1426
  749MOL0     C98740  10.405  10.219  10.610 -0.3849 -0.5632 -0.8698
  749MOL0     C98741  10.354  10.116  10.686 -0.6755  0.0062  0.6651
  749MOL0     C98742  10.222  10.081  10.691  0.1246 -0.6528 -0.4918
  749MOL0     C98743  10.131  10.147  10.602  0.6407 -0.2316  0.7975
  749MOL0     O98744   9.997  10.112  10.583 -0.5212  0.6083  0.3742
  749MOL0     C98745   9.962   9.986  10.541 -0.1475  0.8740  1.1345
  749MOL0     C98746   9.807   9.991  10.501 -0.4743 -0.0739  0.3186
  749MOL0     C98747   9.730  10.008  10.629  0.5517 -0.7340 -0.8430
  749MOL0     C98748   9.585   9.985  10.614 -0.4776 -0.0818 -0.6666
  749MOL0     C98749   9.509  10.103  10.545  0.3445  0.2255 -0.2847
  749MOL0     C98750   9.360  10.057  10.533  0.3315 -0.4076 -0.0510
  749MOL0     C98751   9.275  10.151  10.438  0.1382 -0.2523 -0.1809
  749MOL0     C98752   9.118  10.158  10.463  0.6016 -0.3213  0.4442
  749MOL0     N98753   9.065  10.025  10.465  0.0760  0.2124 -0.5504
  749MOL0     C98754   9.048   9.951  10.354 -0.5995 -0.4304  0.3242
  749MOL0     C98755   9.006   9.834  10.406  0.2524  0.0141 -0.3519
  749MOL0     C98756   8.976   9.708  10.324  0.6058 -0.7056  0.6155
  749MOL0     C98757   8.831   9.708  10.278 -0.1031 -0.8281  0.9833
  749MOL0     C98758   8.719   9.705  10.398 -0.4010  0.8934  0.1055
  749MOL0     C98759   8.579   9.752  10.360 -0.2361  0.3935 -0.2187
  749MOL0     O98760   8.526   9.660  10.266 -0.1584 -0.4982 -0.1275
  749MOL0     C98761   8.413   9.697  10.209  0.5119 -0.4372 -0.1061
  749MOL0     C98762   8.348   9.811  10.223 -0.3284 -0.2215  0.5523
  749MOL0     C98763   8.218   9.837  10.167 -0.3523 -0.0968 -1.0162
  749MOL0     C98764   8.163   9.745  10.088 -0.9196 -0.5040 -0.2054
  749MOL0     C98765   8.046   9.792  10.013 -1.0179  0.1531 -0.1199
  749MOL0     O98766   7.961   9.875  10.085  0.0854 -0.3182 -0.1462
  749MOL0     C98767   7.828   9.907  10.046 -0.4517  0.2012 -0.3893
  749MOL0     C98768   7.736   9.821   9.991 -0.2407  0.0883 -0.1377
  749MOL0     C98769   7.619   9.871   9.958 -0.2341 -0.3639  0.0510
  749MOL0     C98770   7.588  10.005   9.969  0.7086  0.6210 -0.1309
  749MOL0     O98771   7.476  10.057   9.909 -0.8132 -0.2829 -0.0810
  749MOL0     C98772   7.358  10.009   9.961 -0.4822  0.2414  0.6833
  749MOL0     C98773   7.247  10.051   9.870 -0.7897 -0.1373  0.6339
  749MOL0     C98774   7.185  10.197   9.891 -0.9237 -1.0235 -0.1022
  749MOL0     C98775   7.107  10.238   9.766  0.8061 -0.2001  0.4889
  749MOL0     C98776   7.055  10.382   9.735 -0.5481 -0.0202  0.2234
  749MOL0     C98777   7.009  10.470   9.859  0.5861  0.2260  0.4493
  749MOL0     C98778   6.873  10.425   9.924 -1.0363  0.4724 -0.0215
  749MOL0     C98779   6.766  10.374   9.821 -0.2889  0.6323 -0.0811
  749MOL0    Cl98780   6.596  10.359   9.889 -0.4832 -0.4328 -0.0580
  749MOL0     C98781   7.677  10.092  10.030 -0.2436 -0.5283 -0.2001
  749MOL0     C98782   7.798  10.041  10.074 -0.9486 -0.2121  0.2199
  749MOL0     O98783   8.023   9.739   9.907 -0.0744 -0.3080  0.0538
  749MOL0     C98784   8.227   9.624  10.072  0.1420 -0.4372 -0.0078
  749MOL0     C98785   8.350   9.597  10.129  0.3624 -0.6000  0.3870
  749MOL0     N98786   9.003   9.838  10.543 -0.1702 -0.4943  0.3335
  749MOL0     N98787   9.029   9.953  10.575  0.4951  0.2829 -0.1455
  749MOL0     C98788  10.178  10.259  10.527 -0.2430 -0.2844 -0.2162
  749MOL0     C98789  10.316  10.286  10.529  0.2127 -0.5277 -0.0610
  749MOL0     C98790  10.761  10.354  10.598 -0.3138  0.4873 -0.1260
  749MOL0     C98791  10.834  10.275  10.690  1.1000 -0.6514  0.4143
  749MOL0     C98792  10.961  10.290  10.719 -0.0770 -0.9297 -0.4833
  749MOL0     C98793  11.030  10.403  10.664 -0.8698  0.2127  0.9076
  749MOL0     O98794  11.159  10.429  10.705  0.2849  0.6251  0.1206
  749MOL0     C98795  11.227  10.328  10.783  0.2713 -1.1426  0.3172
  749MOL0     C98796  11.364  10.390  10.835  0.8611 -0.2494  0.6163
  749MOL0     C98797  11.457  10.274  10.874  0.3621  0.0101 -0.4698
  749MOL0     C98798  11.588  10.324  10.955 -0.0789  0.4378 -0.7723
  749MOL0     C98799  11.696  10.217  10.958  0.7949  0.4819 -0.7312
  749MOL0     C98800  11.780  10.124  10.958 -0.3285 -0.5099 -0.2482
  749MOL0     C98801  10.967  10.490  10.573  0.0619  0.1390  0.5471
  749MOL0     C98802  10.835  10.461  10.542  0.0281 -1.0810 -0.2627
  749MOL0     H98803  10.424  10.050  10.736 -0.2976  0.6519  0.9992
  749MOL0     H98804  10.180  10.004  10.755  0.2065  0.0192  0.4023
  749MOL0     H98805   9.978   9.906  10.614 -0.2137 -0.4957 -0.2959
  749MOL0     H98806  10.021   9.967  10.451 -2.8053  1.2850 -0.8440
  749MOL0     H98807   9.782   9.901  10.442  0.5980 -0.2227  0.0626
  749MOL0     H98808   9.783  10.077  10.439  2.9793  0.1718 -0.8801
  749MOL0     H98809   9.762  10.103  10.673 -0.7132 -0.7345  0.1318
  749MOL0     H98810   9.766   9.931  10.697  2.3902  0.4878 -0.3593
  749MOL0     H98811   9.569   9.900  10.547 -0.2039  0.0777 -0.9441
  749MOL0     H98812   9.542   9.973  10.713  0.9476  2.3152  0.3461
  749MOL0     H98813   9.554  10.130  10.449 -1.5914  1.9734 -0.7683
  749MOL0     H98814   9.516  10.195  10.603 -0.8023  0.2287 -0.1234
  749MOL0     H98815   9.311  10.061  10.630  0.5967 -0.1947  0.0768
  749MOL0     H98816   9.351   9.952  10.505 -1.6014 -0.0370 -1.0174
  749MOL0     H98817   9.309  10.254  10.453 -2.0571  0.3394  1.2365
  749MOL0     H98818   9.286  10.119  10.335 -1.4703 -0.1113 -0.4209
  749MOL0     H98819   9.057  10.210  10.389  1.1073  1.6211  1.3413
  749MOL0     H98820   9.108  10.215  10.556 -1.0840 -1.4864  1.0374
  749MOL0     H98821   9.076   9.960  10.250  1.0794 -1.3136  0.6622
  749MOL0     H98822   9.014   9.617  10.371 -0.2968 -2.2480 -1.4663
  749MOL0     H98823   9.038   9.717  10.234  0.2104  2.4248  0.5507
  749MOL0     H98824   8.831   9.611  10.226  2.5535 -1.0597  1.2523
  749MOL0     H98825   8.819   9.796  10.215  2.1835 -0.7286  0.5881
  749MOL0     H98826   8.721   9.602  10.437 -2.0917  2.1134  3.9024
  749MOL0     H98827   8.747   9.767  10.484  1.4157 -0.0610  0.2472
  749MOL0     H98828   8.588   9.855  10.323 -2.5196  1.0121  0.7439
  749MOL0     H98829   8.516   9.761  10.450 -2.2551  2.8786 -1.7216
  749MOL0     H98830   8.389   9.885  10.291  0.1140  0.9366 -0.9167
  749MOL0     H98831   8.176   9.936  10.182  0.3884  0.7320 -3.7746
  749MOL0     H98832   7.764   9.716   9.983 -2.1509 -0.5824  1.2420
  749MOL0     H98833   7.555   9.793   9.920  0.4828  0.3083 -2.7259
  749MOL0     H98834   7.348  10.040  10.066  0.3302  0.7124  0.6298
  749MOL0     H98835   7.360   9.899   9.964 -3.0618 -0.0991 -3.1307
  749MOL0     H98836   7.169   9.975   9.877  0.0332 -1.3200 -1.8477
  749MOL0     H98837   7.280  10.053   9.765  0.0220  1.3546  0.8896
  749MOL0     H98838   7.266  10.261   9.924 -0.7190 -0.6414 -1.3012
  749MOL0     H98839   7.119  10.191   9.979 -2.1040  3.1615 -0.4971
  749MOL0     H98840   7.171  10.215   9.681  0.5071  2.3757 -0.5071
  749MOL0     H98841   7.022  10.168   9.768 -0.3151  1.1201  0.3380
  749MOL0     H98842   6.985  10.385   9.651 -1.5175  2.0146  1.0299
  749MOL0     H98843   7.148  10.428   9.699 -0.6474 -0.3516 -0.4755
  749MOL0     H98844   6.996  10.570   9.818  2.4394  0.7761  1.1290
  749MOL0     H98845   7.091  10.460   9.931  0.0944 -0.1834  0.9651
  749MOL0     H98846   6.895  10.351  10.002 -0.0880  1.2681  0.4844
  749MOL0     H98847   6.842  10.513   9.982 -3.2574  0.3914 -0.9617
  749MOL0     H98848   6.804  10.283   9.773  2.6895  1.6280  0.1573
  749MOL0     H98849   6.761  10.439   9.734 -1.3408 -0.8044 -1.1506
  749MOL0     H98850   7.648  10.193  10.059  0.1782 -0.9474  1.8295
  749MOL0     H98851   7.863  10.104  10.135 -0.2172 -0.5691 -0.1753
  749MOL0     H98852   8.170   9.554  10.012 -1.8434  2.2559 -1.4815
  749MOL0     H98853   8.401   9.501  10.127  2.8255  0.5846 -2.0662
  749MOL0     H98854  10.127  10.337  10.471  3.4728  3.9796  1.6554
  749MOL0     H98855  10.345  10.359  10.454 -1.2745 -2.6545 -2.9148
  749MOL0     H98856  10.787  10.186  10.731  0.8281 -1.2426 -1.1041
  749MOL0     H98857  11.003  10.216  10.787 -4.4256 -1.0977  2.3799
  749MOL0     H98858  11.258  10.244  10.721  2.1104  1.9613 -3.4662
  749MOL0     H98859  11.175  10.294  10.873  0.1428 -0.3890  0.5363
  749MOL0     H98860  11.409  10.451  10.756 -2.0768 -1.0022 -1.8625
  749MOL0     H98861  11.344  10.443  10.929 -0.2154 -0.4433  0.5090
  749MOL0     H98862  11.470  10.211  10.785 -0.7510  0.4152 -0.9318
  749MOL0     H98863  11.399  10.224  10.952  1.9395 -1.1027  0.0541
  749MOL0     H98864  11.634  10.408  10.903  0.4555  0.5134 -0.1909
  749MOL0     H98865  11.565  10.353  11.058 -0.6351 -2.5626  0.0394
  749MOL0     H98866  11.853  10.046  10.957  1.4088  1.0251  0.9157
  749MOL0     H98867  11.025  10.565  10.520 -0.4428 -0.8425 -1.4616
  749MOL0     H98868  10.793  10.524  10.464  0.9602 -0.9780 -0.6995
  750MOL0     O98869   9.391   2.679   4.266  0.1584  0.3520 -0.2613
  750MOL0     C98870   9.499   2.745   4.254 -0.0122  0.2926 -0.2316
  750MOL0     O98871   9.604   2.724   4.335 -0.2185 -0.2143  0.6221
  750MOL0     C98872   9.592   2.604   4.400 -0.0642 -0.0959 -0.3747
  750MOL0     C98873   9.553   2.611   4.536 -0.2291  0.2809  0.2382
  750MOL0     C98874   9.525   2.482   4.603 -0.6014  0.6484  0.0276
  750MOL0     C98875   9.547   2.362   4.537  0.6863  0.3878  0.4521
  750MOL0     O98876   9.515   2.239   4.593 -1.7187  0.9522  0.1409
  750MOL0     C98877   9.606   2.212   4.698 -0.6336 -0.4058  0.0547
  750MOL0     C98878   9.565   2.107   4.798 -0.8521  0.3317 -0.0886
  750MOL0     C98879   9.486   2.174   4.907  0.4386  0.2464 -0.0802
  750MOL0     C98880   9.347   2.223   4.860 -0.7090  0.0251 -0.3013
  750MOL0     C98881   9.261   2.111   4.841 -0.6538  0.4698  0.8378
  750MOL0     C98882   9.123   2.156   4.803 -0.4222  0.3640  0.6263
  750MOL0     C98883   9.040   2.038   4.758 -0.0616  0.4173  0.7632
  750MOL0     C98884   9.022   1.928   4.861  0.2122  0.3138  0.2232
  750MOL0     N98885   8.905   1.955   4.947  0.5281 -0.0543  0.4994
  750MOL0     C98886   8.780   1.905   4.905  0.4689 -0.3689 -0.1641
  750MOL0     C98887   8.695   1.994   4.974 -0.2770  0.2180 -0.0404
  750MOL0     C98888   8.546   2.006   4.950  0.3300  1.0244 -0.0865
  750MOL0     C98889   8.468   1.955   5.074  0.0962 -0.0830 -0.3016
  750MOL0     C98890   8.314   1.969   5.058  0.1811  0.8462  0.5552
  750MOL0     C98891   8.239   1.908   5.175 -0.7954  0.5995  0.5793
  750MOL0     O98892   8.112   1.968   5.184  0.1088  0.3841 -0.2037
  750MOL0     C98893   8.022   1.895   5.256  0.6926  0.0245  0.4853
  750MOL0     C98894   7.891   1.879   5.212  0.5071 -0.4771 -0.1638
  750MOL0     C98895   7.806   1.800   5.290  0.2005 -0.3843 -0.6843
  750MOL0     C98896   7.842   1.746   5.414 -0.5377  0.5547 -0.4194
  750MOL0     C98897   7.741   1.701   5.512 -0.0027  0.5764 -0.5629
  750MOL0     O98898   7.622   1.670   5.460 -0.2274  0.9573  0.3194
  750MOL0     C98899   7.519   1.640   5.555 -0.7232  0.0062  0.7364
  750MOL0     C98900   7.391   1.683   5.523  0.1592  0.2230  0.7098
  750MOL0     C98901   7.290   1.658   5.619  0.4970 -0.2407 -0.8188
  750MOL0     C98902   7.308   1.580   5.731 -0.2497 -0.7794 -0.8049
  750MOL0     O98903   7.197   1.538   5.803  0.4085 -0.2714  0.6867
  750MOL0     C98904   7.195   1.553   5.952  0.5817  1.4742  0.4860
  750MOL0     C98905   7.108   1.670   6.004  0.3712  0.2479  0.1009
  750MOL0     C98906   6.963   1.627   6.024  0.9866  0.7515 -0.6689
  750MOL0     C98907   6.888   1.562   5.904  0.0093 -0.7926 -0.5849
  750MOL0     C98908   6.736   1.539   5.925 -0.1821 -0.0290  0.0367
  750MOL0     C98909   6.671   1.474   5.801  0.0847  0.9499  0.1604
  750MOL0     C98910   6.529   1.417   5.828  1.0922  0.8202 -0.0827
  750MOL0     C98911   6.468   1.373   5.694 -0.0243  0.2723 -0.8112
  750MOL0    Cl98912   6.568   1.254   5.599  0.0539  0.2512 -0.0468
  750MOL0     C98913   7.432   1.528   5.755 -0.1548  0.3914  0.6761
  750MOL0     C98914   7.539   1.554   5.665  0.0958 -0.2993  0.2307
  750MOL0     O98915   7.767   1.725   5.632  0.3138  0.7068 -0.2208
  750MOL0     C98916   7.977   1.756   5.454  0.8762 -0.6312  0.4158
  750MOL0     C98917   8.062   1.833   5.377 -0.4602 -0.3739  0.0641
  750MOL0     N98918   8.768   2.072   5.064  1.0716  0.1475  1.0019
  750MOL0     N98919   8.897   2.054   5.032  0.9034 -0.4187 -0.5844
  750MOL0     C98920   9.575   2.359   4.400 -0.0028 -0.3092 -0.0633
  750MOL0     C98921   9.604   2.482   4.334 -1.1594  0.5264 -0.2576
  750MOL0     C98922   9.475   2.869   4.170 -0.4237  0.2630 -0.7483
  750MOL0     C98923   9.352   2.898   4.098  0.0659  0.5886 -0.7183
  750MOL0     C98924   9.344   3.010   4.020  0.8954  0.2769 -0.0101
  750MOL0     C98925   9.442   3.108   4.015 -0.1164 -0.4899  0.6158
  750MOL0     O98926   9.420   3.212   3.929  0.2283 -0.0264 -0.4183
  750MOL0     C98927   9.516   3.320   3.929 -0.3581 -0.2979  1.2153
  750MOL0     C98928   9.466   3.439   3.843 -0.3475 -0.5947  0.2007
  750MOL0     C98929   9.589   3.530   3.812 -0.8338 -0.1142  0.5663
  750MOL0     C98930   9.673   3.489   3.687 -0.0365  0.0032 -0.2977
  750MOL0     C98931   9.605   3.499   3.560 -0.3301 -0.4105  0.2159
  750MOL0     C98932   9.549   3.529   3.460  0.3960  0.4227 -0.3037
  750MOL0     C98933   9.558   3.082   4.080  0.3217  0.0863  0.0847
  750MOL0     C98934   9.578   2.963   4.152 -0.2103 -0.7013  0.1074
  750MOL0     H98935   9.537   2.708   4.583  0.0781 -0.3725  1.7673
  750MOL0     H98936   9.478   2.487   4.701 -1.1038  0.4145 -0.1985
  750MOL0     H98937   9.645   2.296   4.757  3.2578  0.0112 -2.7724
  750MOL0     H98938   9.696   2.177   4.648  0.4227 -1.4544  2.5251
  750MOL0     H98939   9.654   2.063   4.845 -1.2427  1.3274  1.6481
  750MOL0     H98940   9.510   2.029   4.745 -0.1361  1.1841 -2.2333
  750MOL0     H98941   9.542   2.260   4.945 -1.2140  0.6202  1.6612
  750MOL0     H98942   9.466   2.105   4.990  0.3140  0.6725  0.2429
  750MOL0     H98943   9.302   2.297   4.928 -0.0218 -1.4591  1.8985
  750MOL0     H98944   9.364   2.274   4.765  2.2226  1.1259  0.6899
  750MOL0     H98945   9.255   2.067   4.941  1.5326  1.5054  1.4842
  750MOL0     H98946   9.305   2.037   4.773  0.1015  0.6965  1.0685
  750MOL0     H98947   9.126   2.235   4.727 -0.2627 -0.1628  0.0773
  750MOL0     H98948   9.080   2.205   4.890 -2.0848  2.4760 -1.2457
  750MOL0     H98949   8.941   2.076   4.731 -0.2582  1.1026  2.3095
  750MOL0     H98950   9.074   1.988   4.667  1.1700  1.6956  0.4945
  750MOL0     H98951   9.115   1.900   4.911 -0.7225 -0.3415  1.6766
  750MOL0     H98952   9.003   1.832   4.813 -0.7062  0.2449  0.6992
  750MOL0     H98953   8.749   1.824   4.839  0.1034 -0.8855  0.6238
  750MOL0     H98954   8.518   1.941   4.867 -0.3430 -0.2348  1.0930
  750MOL0     H98955   8.514   2.108   4.926  1.5151  2.0067  2.1391
  750MOL0     H98956   8.501   2.013   5.160  3.6503  0.3594 -1.7940
  750MOL0     H98957   8.491   1.849   5.093 -0.0320 -0.2148 -0.8592
  750MOL0     H98958   8.278   2.072   5.051  0.4958  0.9053 -0.3283
  750MOL0     H98959   8.287   1.925   4.962  1.5107  0.9822  0.0984
  750MOL0     H98960   8.298   1.936   5.263 -0.4733 -1.4779  1.0942
  750MOL0     H98961   8.237   1.799   5.164  0.4780  0.4764  1.3458
  750MOL0     H98962   7.848   1.927   5.125 -1.4230 -2.2147 -0.2651
  750MOL0     H98963   7.703   1.783   5.259 -0.0887 -1.6896  0.8680
  750MOL0     H98964   7.378   1.751   5.440  1.7745  1.6167  1.5239
  750MOL0     H98965   7.200   1.715   5.597  0.8600  0.7831  0.2899
  750MOL0     H98966   7.300   1.574   5.976  1.5288  0.2679 -2.2536
  750MOL0     H98967   7.183   1.457   6.003  1.2853  0.9772 -0.2572
  750MOL0     H98968   7.106   1.756   5.937  0.2381 -1.3708 -2.0764
  750MOL0     H98969   7.150   1.698   6.101 -1.1989 -1.0794  1.2405
  750MOL0     H98970   6.902   1.706   6.069 -0.2523  0.6242 -2.0182
  750MOL0     H98971   6.978   1.546   6.095 -0.3498  1.3211  0.3087
  750MOL0     H98972   6.895   1.628   5.817  0.7095 -3.2576 -2.4987
  750MOL0     H98973   6.932   1.468   5.871  0.3137 -1.0598  0.5510
  750MOL0     H98974   6.690   1.636   5.948  1.4435  1.1236 -1.3146
  750MOL0     H98975   6.707   1.482   6.014 -3.2835  2.0684  0.5585
  750MOL0     H98976   6.743   1.399   5.768 -0.6164  0.2268  0.2376
  750MOL0     H98977   6.671   1.542   5.715  1.0884  0.6391 -0.0993
  750MOL0     H98978   6.542   1.333   5.897 -0.6768  0.2188 -0.4230
  750MOL0     H98979   6.466   1.495   5.871  1.7111  2.0768 -1.3916
  750MOL0     H98980   6.461   1.462   5.631 -0.0107  0.4167 -0.6066
  750MOL0     H98981   6.367   1.336   5.714  0.3632 -0.6212 -0.4478
  750MOL0     H98982   7.449   1.477   5.848 -1.6172  3.5308  2.8451
  750MOL0     H98983   7.638   1.518   5.688  0.8363  1.6827  0.3424
  750MOL0     H98984   8.019   1.721   5.548  1.1348  2.5426  1.6171
  750MOL0     H98985   8.165   1.848   5.406  0.2649  1.2374 -2.8864
  750MOL0     H98986   9.573   2.268   4.342 -1.5492  0.7698 -1.7819
  750MOL0     H98987   9.605   2.484   4.225 -1.4532  3.1621 -0.2687
  750MOL0     H98988   9.268   2.828   4.092 -1.4239  2.3708 -1.6845
  750MOL0     H98989   9.257   3.022   3.958  0.1769 -0.2736  0.8578
  750MOL0     H98990   9.613   3.289   3.888 -0.5522 -0.0427  0.5403
  750MOL0     H98991   9.523   3.356   4.032 -0.8703 -0.3764  1.2780
  750MOL0     H98992   9.416   3.402   3.753  2.6430  0.1490 -1.9275
  750MOL0     H98993   9.397   3.489   3.911  2.3124  1.6244  1.4789
  750MOL0     H98994   9.644   3.531   3.906 -1.5243 -0.1124  0.9757
  750MOL0     H98995   9.564   3.636   3.797  2.3674  0.4009 -2.4617
  750MOL0     H98996   9.755   3.561   3.676 -0.4002  0.4387 -0.2128
  750MOL0     H98997   9.705   3.385   3.696  0.4633  0.2114  0.3833
  750MOL0     H98998   9.503   3.550   3.365 -0.0270 -0.8149 -0.3857
  750MOL0     H98999   9.643   3.148   4.071 -0.7119  1.3813 -0.4099
  750MOL0     H99000   9.674   2.945   4.199 -0.0398  1.4567  0.6669
  751MOL0     O99001   2.595   2.022  10.902 -0.2032 -0.2433  0.2315
  751MOL0     C99002   2.662   2.004  11.002  0.5718 -0.6810  0.7628
  751MOL0     O99003   2.797   2.002  10.999 -1.1279  0.7072 -0.2748
  751MOL0     C99004   2.864   1.999  10.882 -0.5261 -0.3315 -0.2970
  751MOL0     C99005   2.940   1.887  10.842 -0.4081 -0.6191  0.3483
  751MOL0     C99006   3.022   1.890  10.722  0.0685 -0.4026  0.3656
  751MOL0     C99007   3.008   2.003  10.634 -0.0223 -0.4918 -0.0764
  751MOL0     O99008   3.058   1.999  10.507 -0.7940 -0.1716  0.0599
  751MOL0     C99009   3.184   1.937  10.481  0.3826  0.5657  0.7982
  751MOL0     C99010   3.186   1.928  10.325 -0.0119  0.7340 -0.2964
  751MOL0     C99011   3.188   2.061  10.254 -0.3706 -0.3873  0.1044
  751MOL0     C99012   3.247   2.029  10.114  0.1628 -0.5191  0.0867
  751MOL0     C99013   3.219   2.132  10.014  0.5346  0.0655  0.7554
  751MOL0     C99014   3.078   2.197  10.008  0.0357  0.0095  0.1161
  751MOL0     C99015   2.963   2.100   9.984  0.9692  0.2775 -1.3887
  751MOL0     C99016   2.960   2.049   9.843  0.3407  0.2996  0.5995
  751MOL0     N99017   2.845   1.962   9.822  0.4789  0.0116 -0.7154
  751MOL0     C99018   2.709   2.001   9.841 -0.1052  0.4142 -0.4965
  751MOL0     C99019   2.653   1.874   9.836  0.2644 -0.5284  0.3422
  751MOL0     C99020   2.509   1.852   9.839 -0.4281  0.2090  0.2389
  751MOL0     C99021   2.434   1.976   9.899  0.1809  0.5807 -0.0542
  751MOL0     C99022   2.283   1.935   9.929  0.0964 -0.1851 -0.9904
  751MOL0     C99023   2.193   2.048   9.980 -0.9013 -0.5173  0.7376
  751MOL0     O99024   2.067   1.985   9.996 -0.4848  0.5735 -0.1857
  751MOL0     C99025   1.951   2.056  10.016 -0.9916  0.4636  0.1699
  751MOL0     C99026   1.834   1.980  10.012 -0.2870 -0.6591  0.3476
  751MOL0     C99027   1.721   2.045  10.053 -0.7703 -0.5970  0.0592
  751MOL0     C99028   1.723   2.182  10.094 -0.0658 -0.4887 -0.7195
  751MOL0     C99029   1.593   2.249  10.125  0.2021  0.8472  1.1038
  751MOL0     O99030   1.476   2.198  10.078  0.6818 -0.4116  0.7124
  751MOL0     C99031   1.366   2.278  10.103 -1.4675  0.4639 -1.4214
  751MOL0     C99032   1.277   2.230  10.203 -0.4544 -0.5980 -0.3785
  751MOL0     C99033   1.161   2.303  10.233  0.9703  0.0290 -0.3481
  751MOL0     C99034   1.138   2.432  10.174 -0.4458 -0.0466 -0.6761
  751MOL0     O99035   1.044   2.522  10.205  0.3932  0.1975 -0.7795
  751MOL0     C99036   0.931   2.477  10.274  0.7730 -0.1016  0.1542
  751MOL0     C99037   0.826   2.590  10.294 -0.4717 -0.3731 -0.3033
  751MOL0     C99038   0.839   2.695  10.407  0.4299  0.2446 -0.9696
  751MOL0     C99039   0.867   2.621  10.541 -0.0751  0.5153  0.8153
  751MOL0     C99040   0.876   2.724  10.657 -0.1481  0.4982  0.6467
  751MOL0     C99041   1.006   2.802  10.669  0.2417 -0.0363  0.4808
  751MOL0     C99042   0.984   2.912  10.775  0.0664  0.1599 -0.2823
  751MOL0     C99043   1.099   2.906  10.865 -0.0340 -0.2583  0.6220
  751MOL0    Cl99044   1.240   2.945  10.769 -0.4268 -0.0164  0.1367
  751MOL0     C99045   1.235   2.484  10.100 -0.0505  0.0015 -0.5395
  751MOL0     C99046   1.348   2.410  10.061 -0.4197  0.2056  0.2269
  751MOL0     O99047   1.603   2.354  10.185 -0.4322 -0.1567 -0.1872
  751MOL0     C99048   1.834   2.261  10.081 -0.8541  0.3282 -0.3867
  751MOL0     C99049   1.952   2.198  10.045 -0.1371  0.1999  0.7763
  751MOL0     N99050   2.742   1.772   9.819 -0.2630  0.3299 -0.5891
  751MOL0     N99051   2.855   1.827   9.806 -0.8249  0.6308 -0.5013
  751MOL0     C99052   2.925   2.105  10.681 -0.2505  0.1285  0.6119
  751MOL0     C99053   2.863   2.113  10.803 -0.0350 -0.2925 -0.9827
  751MOL0     C99054   2.600   2.023  11.133 -0.4233  0.0777 -0.1595
  751MOL0     C99055   2.670   2.063  11.245  0.0532  1.5328 -0.1084
  751MOL0     C99056   2.600   2.079  11.365 -0.2216  0.0908 -0.6367
  751MOL0     C99057   2.465   2.055  11.381  0.5955 -0.0261  0.5431
  751MOL0     O99058   2.409   2.065  11.505 -0.1550  0.1139 -0.0872
  751MOL0     C99059   2.268   2.074  11.533 -1.1090 -0.3395 -0.0569
  751MOL0     C99060   2.206   1.931  11.542 -0.1455 -0.2964 -0.2158
  751MOL0     C99061   2.270   1.848  11.653  0.1891  0.4063  0.3074
  751MOL0     C99062   2.161   1.777  11.739  0.3256  0.0521 -0.4073
  751MOL0     C99063   2.083   1.881  11.813 -0.3374 -0.5023  0.8857
  751MOL0     C99064   2.031   1.970  11.876  0.3900 -0.0503 -1.0199
  751MOL0     C99065   2.389   2.038  11.261  0.1911  0.3083  0.1862
  751MOL0     C99066   2.458   2.024  11.139 -0.5754  0.2071  0.5714
  751MOL0     H99067   2.950   1.795  10.899 -0.2799 -2.4131 -2.3387
  751MOL0     H99068   3.086   1.808  10.691  2.0224  0.4869  1.8447
  751MOL0     H99069   3.184   1.839  10.531 -0.8933 -0.5952 -1.3069
  751MOL0     H99070   3.262   2.007  10.512 -0.4135  1.9693 -0.2641
  751MOL0     H99071   3.093   1.877  10.298 -0.5687  2.4777 -1.8181
  751MOL0     H99072   3.271   1.869  10.291 -1.5122  0.1139 -3.2775
  751MOL0     H99073   3.262   2.122  10.307 -0.2989 -2.8705  3.1494
  751MOL0     H99074   3.091   2.111  10.260 -0.2559 -0.2642  1.0579
  751MOL0     H99075   3.355   2.016  10.114  0.2091 -0.1729 -0.7796
  751MOL0     H99076   3.207   1.934  10.077 -0.3818  0.0253 -0.7594
  751MOL0     H99077   3.260   2.112   9.914  3.4201  0.3454  1.7777
  751MOL0     H99078   3.282   2.219  10.038  1.4523 -0.5631  0.6953
  751MOL0     H99079   3.073   2.285   9.943 -0.6286  2.2372  3.0005
  751MOL0     H99080   3.058   2.248  10.103 -1.5971 -1.3778  0.5709
  751MOL0     H99081   2.963   2.009  10.043  1.3483  0.9593 -0.3050
  751MOL0     H99082   2.873   2.159  10.004  1.2219  0.2743 -0.1615
  751MOL0     H99083   3.051   1.999   9.811  0.3126  1.3362 -1.2495
  751MOL0     H99084   2.954   2.132   9.771  3.5083 -1.2176 -1.6133
  751MOL0     H99085   2.683   2.105   9.855 -0.1695  0.6214 -1.9399
  751MOL0     H99086   2.477   1.772   9.906  0.1446  1.8981  2.6462
  751MOL0     H99087   2.477   1.834   9.736  0.0206  1.1033 -0.0724
  751MOL0     H99088   2.408   2.060   9.835 -0.4244  2.3012  2.3185
  751MOL0     H99089   2.482   2.020   9.986 -0.9678 -0.0893  0.9544
  751MOL0     H99090   2.238   1.893   9.838 -0.3810 -1.2649 -0.2857
  751MOL0     H99091   2.290   1.853  10.001  0.3686 -0.4969 -1.3661
  751MOL0     H99092   2.184   2.125   9.903 -0.9555 -0.4081  0.8530
  751MOL0     H99093   2.230   2.094  10.071  1.6704 -0.1956 -0.3907
  751MOL0     H99094   1.832   1.876   9.981 -0.0340 -0.4190 -0.4779
  751MOL0     H99095   1.627   1.991  10.050 -0.8462 -0.4494 -0.3864
  751MOL0     H99096   1.319   2.139  10.245  2.6000  0.1056 -1.6593
  751MOL0     H99097   1.088   2.261  10.302  1.3224 -0.2378 -0.1352
  751MOL0     H99098   0.949   2.435  10.373  1.3506  0.4085  0.2733
  751MOL0     H99099   0.872   2.401  10.222 -2.4911  3.0348 -1.2259
  751MOL0     H99100   0.735   2.537  10.322  0.3542 -0.8030  1.7748
  751MOL0     H99101   0.806   2.635  10.197  0.7448 -1.0243 -0.8836
  751MOL0     H99102   0.745   2.750  10.410  1.4915  2.2039 -1.4590
  751MOL0     H99103   0.909   2.773  10.374 -0.8660  1.1536 -1.6405
  751MOL0     H99104   0.785   2.553  10.567 -0.1306  0.1786 -0.1941
  751MOL0     H99105   0.964   2.572  10.545 -0.7940 -0.9085  3.0736
  751MOL0     H99106   0.870   2.672  10.753 -3.5024  0.0288  0.3183
  751MOL0     H99107   0.790   2.791  10.648 -0.3360  0.0024 -3.0448
  751MOL0     H99108   1.026   2.849  10.572  1.1461 -0.0946  0.6366
  751MOL0     H99109   1.088   2.734  10.690  0.4074 -0.3452 -1.0374
  751MOL0     H99110   0.979   3.006  10.719  0.4792  1.1938  1.3469
  751MOL0     H99111   0.891   2.906  10.833  0.3403 -0.6993  0.0736
  751MOL0     H99112   1.117   2.808  10.911 -3.4459 -1.6633 -0.7481
  751MOL0     H99113   1.099   2.983  10.943  1.2421  2.3590 -1.7750
  751MOL0     H99114   1.219   2.585  10.063  1.2734  1.3424  2.2361
  751MOL0     H99115   1.408   2.453   9.982  3.3042 -1.1916  2.0407
  751MOL0     H99116   1.831   2.369  10.099 -0.3294  0.0394  1.7199
  751MOL0     H99117   2.047   2.251  10.047  1.1879 -2.0182  0.2104
  751MOL0     H99118   2.917   2.185  10.609  1.2132 -1.9099 -1.9748
  751MOL0     H99119   2.810   2.196  10.848  0.1438 -0.8561  0.2996
  751MOL0     H99120   2.777   2.081  11.249  0.1522  0.8138  0.7829
  751MOL0     H99121   2.658   2.107  11.452  0.9648 -1.4315 -0.8876
  751MOL0     H99122   2.200   2.117  11.458 -1.5371 -1.0005 -0.0591
  751MOL0     H99123   2.255   2.129  11.626  0.5928  0.5082 -0.2967
  751MOL0     H99124   2.097   1.938  11.547 -0.1937 -1.5057  1.1085
  751MOL0     H99125   2.237   1.884  11.447  2.0484 -1.2118  0.8856
  751MOL0     H99126   2.339   1.916  11.705 -1.1203  2.8002 -0.9223
  751MOL0     H99127   2.330   1.775  11.599  1.9037  2.7764 -1.1928
  751MOL0     H99128   2.104   1.697  11.692  0.9818 -1.4617  1.2378
  751MOL0     H99129   2.206   1.710  11.813  1.5374  0.2505 -0.9292
  751MOL0     H99130   1.968   2.035  11.933  1.3287 -1.3508  1.7127
  751MOL0     H99131   2.281   2.026  11.248  0.3352  1.8041 -4.1702
  751MOL0     H99132   2.401   2.015  11.048 -1.9134 -1.3879  1.5078
  752MOL0     O99133  10.870   4.252   9.094 -0.5642 -0.7286 -0.3302
  752MOL0     C99134  10.865   4.210   9.211 -0.0337  0.6697  0.7418
  752MOL0     O99135  10.769   4.129   9.260 -0.3714 -0.7104 -0.4838
  752MOL0     C99136  10.660   4.078   9.184  0.5207  0.0998 -0.4410
  752MOL0     C99137  10.681   3.964   9.103  0.0330  0.2503  0.2052
  752MOL0     C99138  10.564   3.912   9.042 -0.2867 -0.5659  0.7181
  752MOL0     C99139  10.439   3.961   9.071  0.6647  1.0882 -0.0312
  752MOL0     O99140  10.320   3.887   9.041 -0.0081 -1.0576  0.0012
  752MOL0     C99141  10.331   3.799   8.923 -0.6821  0.1271  0.0527
  752MOL0     C99142  10.211   3.719   8.904  0.6330  0.7335 -0.5511
  752MOL0     C99143  10.081   3.804   8.883  0.2755  1.2014  0.2552
  752MOL0     C99144   9.953   3.701   8.881 -0.7109  0.5800 -0.7414
  752MOL0     C99145   9.818   3.777   8.896 -0.4284 -0.1130 -0.6672
  752MOL0     C99146   9.702   3.695   8.864  0.2736 -0.0626  0.2355
  752MOL0     C99147   9.577   3.776   8.830 -0.0526 -0.4297 -0.3562
  752MOL0     C99148   9.523   3.838   8.963  0.0351  0.4914 -0.4374
  752MOL0     N99149   9.388   3.880   8.925 -0.5473 -0.4088  0.2532
  752MOL0     C99150   9.283   3.797   8.953 -1.1969  0.3902  0.7631
  752MOL0     C99151   9.180   3.857   8.890 -0.2241  0.1506 -0.2570
  752MOL0     C99152   9.036   3.815   8.899  0.4550  0.0053 -0.0459
  752MOL0     C99153   8.976   3.770   8.765  1.0650  0.0924  0.3044
  752MOL0     C99154   8.821   3.752   8.787  0.0000  0.8176  0.9722
  752MOL0     C99155   8.752   3.698   8.659 -0.0014  0.6879  0.1596
  752MOL0     O99156   8.622   3.649   8.688 -0.6715 -0.6654 -0.1886
  752MOL0     C99157   8.550   3.641   8.573 -0.0215 -0.0084  0.1726
  752MOL0     C99158   8.475   3.751   8.526 -0.3554  0.1661 -0.5271
  752MOL0     C99159   8.376   3.737   8.422  0.1522  0.0348  0.3985
  752MOL0     C99160   8.366   3.610   8.358  0.6503  0.0644  0.5634
  752MOL0     C99161   8.265   3.573   8.259 -0.8519  0.0764 -0.3426
  752MOL0     O99162   8.259   3.443   8.206  0.4220 -0.2726 -0.2525
  752MOL0     C99163   8.148   3.424   8.130  0.3689 -0.4376 -1.2507
  752MOL0     C99164   8.170   3.404   7.999 -0.3328  0.2123 -0.5878
  752MOL0     C99165   8.063   3.359   7.925 -0.7152  0.0386  0.8903
  752MOL0     C99166   7.929   3.357   7.968  0.3832 -0.0497  0.1124
  752MOL0     O99167   7.834   3.336   7.872 -0.3444 -0.2604 -0.6326
  752MOL0     C99168   7.714   3.270   7.905  0.1744  1.0092 -0.7424
  752MOL0     C99169   7.751   3.117   7.903 -0.6542 -0.7935  0.5039
  752MOL0     C99170   7.659   3.026   7.980 -0.5273 -0.1945  0.1352
  752MOL0     C99171   7.516   3.036   7.930  0.7155 -0.0351  0.5291
  752MOL0     C99172   7.432   2.927   7.998  0.2718  0.2328 -0.7734
  752MOL0     C99173   7.289   2.926   7.938  0.2577  0.0270  1.0351
  752MOL0     C99174   7.223   3.059   7.923  0.0927  0.0004  0.6686
  752MOL0     C99175   7.067   3.053   7.914  0.1374  0.7658 -0.1665
  752MOL0    Cl99176   7.006   2.973   7.763 -0.3952 -0.0676 -0.0163
  752MOL0     C99177   7.914   3.383   8.105  0.7446  0.4516  0.3395
  752MOL0     C99178   8.021   3.419   8.184  0.6367 -0.2181 -0.0169
  752MOL0     O99179   8.187   3.664   8.228 -0.1356 -0.0450  0.0489
  752MOL0     C99180   8.452   3.506   8.399 -0.1071  0.1440 -1.2711
  752MOL0     C99181   8.545   3.521   8.501  0.4563 -0.2097  0.4687
  752MOL0     N99182   9.227   3.979   8.846  0.1431  0.1886  0.4941
  752MOL0     N99183   9.349   3.986   8.855  0.1319 -0.2887  0.4268
  752MOL0     C99184  10.418   4.078   9.143 -0.4975 -0.8063  0.3760
  752MOL0     C99185  10.535   4.130   9.205 -0.3336  0.1380 -0.3976
  752MOL0     C99186  10.972   4.263   9.300 -0.0861 -0.3985  0.3572
  752MOL0     C99187  10.955   4.252   9.438 -0.3083  0.2491 -0.7077
  752MOL0     C99188  11.052   4.306   9.526 -0.9086  0.6532  0.0535
  752MOL0     C99189  11.175   4.350   9.484 -0.4946 -0.4395  0.0698
  752MOL0     O99190  11.260   4.401   9.578 -0.2103 -0.2845  0.3329
  752MOL0     C99191  11.391   4.445   9.538  0.2964 -0.0341 -1.0151
  752MOL0     C99192  11.481   4.499   9.656  0.0337  0.9267 -0.4177
  752MOL0     C99193  11.626   4.523   9.606  0.2541  0.1407  0.0292
  752MOL0     C99194  11.728   4.540   9.721  0.2051 -0.1318  1.0852
  752MOL0     C99195  11.738   4.423   9.810 -0.2223 -0.8477  0.5611
  752MOL0     C99196  11.752   4.335   9.887 -0.1694  0.4910  0.0514
  752MOL0     C99197  11.194   4.341   9.343 -0.0216 -0.9815  0.2036
  752MOL0     C99198  11.093   4.306   9.253  0.9210 -0.6825  0.4554
  752MOL0     H99199  10.781   3.921   9.102 -0.1188 -0.1442  0.9622
  752MOL0     H99200  10.578   3.824   8.980  1.6112 -0.5684  1.0927
  752MOL0     H99201  10.413   3.728   8.938  0.8218  2.2596  3.0732
  752MOL0     H99202  10.343   3.861   8.834  0.8363  1.4805  1.1486
  752MOL0     H99203  10.195   3.651   8.989  0.7337  4.7758  3.0239
  752MOL0     H99204  10.221   3.670   8.807 -2.4674  1.3988 -1.2916
  752MOL0     H99205  10.103   3.868   8.797 -2.4829  2.2968  0.2553
  752MOL0     H99206  10.065   3.874   8.966  0.7153  1.0455  0.4765
  752MOL0     H99207   9.955   3.645   8.787  1.0497 -0.5749 -0.0540
  752MOL0     H99208   9.964   3.631   8.963  2.5070  1.9585  0.1584
  752MOL0     H99209   9.809   3.866   8.834 -0.9025  0.8079  0.6909
  752MOL0     H99210   9.810   3.810   9.000 -2.2056 -1.6717 -0.2383
  752MOL0     H99211   9.689   3.620   8.943  2.0111 -1.2881 -0.5820
  752MOL0     H99212   9.730   3.628   8.783  0.7395  1.0116 -0.5219
  752MOL0     H99213   9.599   3.861   8.764  1.6640  1.5427  2.5129
  752MOL0     H99214   9.509   3.702   8.786 -1.0878 -1.0668  2.1619
  752MOL0     H99215   9.574   3.924   9.008  0.6137  1.3519 -2.5923
  752MOL0     H99216   9.508   3.760   9.038 -2.2790  0.5995 -0.7262
  752MOL0     H99217   9.275   3.709   9.015 -3.9002  0.2765  0.3643
  752MOL0     H99218   8.985   3.902   8.943 -0.9545 -1.2499  0.9181
  752MOL0     H99219   9.019   3.725   8.959  0.2638 -0.9633 -1.5178
  752MOL0     H99220   9.023   3.682   8.720  0.7940  0.6182 -1.0601
  752MOL0     H99221   8.998   3.846   8.690 -3.1781  0.2531 -1.0829
  752MOL0     H99222   8.804   3.688   8.874 -2.2552  2.0200  1.4833
  752MOL0     H99223   8.784   3.852   8.808 -0.1754  0.5523  1.9858
  752MOL0     H99224   8.815   3.622   8.611 -1.2687 -0.8176  0.8079
  752MOL0     H99225   8.736   3.784   8.592 -1.2792 -0.2381 -0.7684
  752MOL0     H99226   8.482   3.846   8.578  2.6844 -1.8021  3.1686
  752MOL0     H99227   8.313   3.816   8.385  0.6226  0.0990 -0.2831
  752MOL0     H99228   8.270   3.424   7.961 -1.2120  3.6288 -1.3676
  752MOL0     H99229   8.078   3.349   7.818  1.2217  0.9582  1.0183
  752MOL0     H99230   7.645   3.287   7.822  0.3559  0.3115 -1.0366
  752MOL0     H99231   7.676   3.303   8.002 -0.3980 -0.6940 -0.3641
  752MOL0     H99232   7.842   3.096   7.960 -1.1412 -0.4768  1.4341
  752MOL0     H99233   7.750   3.094   7.796  1.0274  1.6585 -0.1271
  752MOL0     H99234   7.662   3.050   8.086 -4.4036  0.0884  0.3309
  752MOL0     H99235   7.692   2.923   7.969 -1.9499 -0.7186  0.4758
  752MOL0     H99236   7.475   3.126   7.976 -2.1740 -0.5025 -0.9145
  752MOL0     H99237   7.513   3.036   7.820  3.5688  1.0793  0.3666
  752MOL0     H99238   7.414   2.954   8.102  1.6075 -2.6922  0.3438
  752MOL0     H99239   7.481   2.829   7.992 -0.2397  0.0241 -1.9081
  752MOL0     H99240   7.235   2.860   8.007 -1.0014 -0.5338 -0.4266
  752MOL0     H99241   7.285   2.872   7.843 -0.0987 -3.4719  2.8528
  752MOL0     H99242   7.249   3.130   8.002 -2.4082 -0.9463  2.4844
  752MOL0     H99243   7.253   3.094   7.824  0.7759 -2.5446 -0.1127
  752MOL0     H99244   7.033   3.156   7.917 -1.0444  0.3871 -0.1170
  752MOL0     H99245   7.021   2.996   7.996 -0.6408  0.1787 -0.9813
  752MOL0     H99246   7.815   3.376   8.150 -0.2022  0.8261 -1.5838
  752MOL0     H99247   8.010   3.442   8.290  0.2301  2.3930 -0.5505
  752MOL0     H99248   8.435   3.403   8.371 -0.8359 -0.1993  0.3361
  752MOL0     H99249   8.608   3.442   8.541  1.8567  2.2671  3.5050
  752MOL0     H99250  10.317   4.112   9.164 -0.5706 -0.0663 -1.0276
  752MOL0     H99251  10.526   4.213   9.275  3.5231 -0.5384  1.1342
  752MOL0     H99252  10.871   4.193   9.472 -0.6893  0.8079 -0.6719
  752MOL0     H99253  11.032   4.309   9.633 -0.0353 -1.2852  0.3186
  752MOL0     H99254  11.391   4.515   9.454  1.1626 -1.9073 -2.6517
  752MOL0     H99255  11.441   4.359   9.493  2.0840  2.2659 -3.7767
  752MOL0     H99256  11.437   4.594   9.686  0.0392  1.8011 -2.9272
  752MOL0     H99257  11.476   4.423   9.735 -0.2226 -0.7452 -1.9603
  752MOL0     H99258  11.622   4.621   9.558  2.9052  0.5125  0.3749
  752MOL0     H99259  11.652   4.460   9.521 -1.7092  0.4415 -0.8486
  752MOL0     H99260  11.826   4.554   9.674 -0.9415 -1.8139 -2.1719
  752MOL0     H99261  11.719   4.634   9.776 -3.0761  1.1058 -1.2170
  752MOL0     H99262  11.777   4.255   9.954  0.7999 -0.1114 -0.9936
  752MOL0     H99263  11.289   4.361   9.296 -1.0354  3.7708 -0.2969
  752MOL0     H99264  11.117   4.306   9.147 -2.4045  0.7784 -0.4229
  753MOL0     O99265   9.423   2.065   0.820 -0.0219  0.4565 -0.3412
  753MOL0     C99266   9.404   2.166   0.879  0.5879 -0.8092 -0.4937
  753MOL0     O99267   9.286   2.204   0.936  0.4443  0.0543 -0.5300
  753MOL0     C99268   9.167   2.133   0.934  0.5612  0.4867  0.6634
  753MOL0     C99269   9.072   2.164   1.029  0.1479  0.6000 -0.2788
  753MOL0     C99270   8.962   2.080   1.051 -0.2956 -0.1471  0.1793
  753MOL0     C99271   8.941   1.972   0.972  0.2030 -0.8713 -0.9979
  753MOL0     O99272   8.838   1.890   1.015 -0.4844  0.8348  0.1107
  753MOL0     C99273   8.811   1.772   0.942 -0.3171  0.8899 -0.4844
  753MOL0     C99274   8.697   1.676   0.998 -0.1731 -0.1652  0.7474
  753MOL0     C99275   8.550   1.704   0.958 -0.5560  0.4445 -0.5735
  753MOL0     C99276   8.536   1.673   0.803 -0.0004 -0.3402  0.8167
  753MOL0     C99277   8.383   1.676   0.762 -0.0551 -0.6278 -0.7887
  753MOL0     C99278   8.372   1.667   0.609  0.7739  0.6131  0.0645
  753MOL0     C99279   8.229   1.709   0.545 -0.2368  0.0685 -0.2045
  753MOL0     C99280   8.201   1.854   0.555  0.3018  0.5451  1.2204
  753MOL0     N99281   8.077   1.875   0.484 -0.0086 -0.5822  0.4299
  753MOL0     C99282   8.060   1.881   0.351 -0.0356 -1.4279 -0.4715
  753MOL0     C99283   7.931   1.931   0.344  0.5500 -0.2261 -0.1752
  753MOL0     C99284   7.868   2.005   0.230  0.2518  0.2774  0.8378
  753MOL0     C99285   7.845   1.909   0.109 -1.0145 -0.5246  0.4033
  753MOL0     C99286   7.752   1.792   0.147 -0.2340  0.5386 -0.2986
  753MOL0     C99287   7.602   1.825   0.170 -0.4256  0.0098 -0.9330
  753MOL0     O99288   7.554   1.901   0.056  0.1888 -0.0933 -0.2778
  753MOL0     C99289   7.420   1.918   0.048  0.3613 -0.2223  0.2567
  753MOL0     C99290   7.325   1.848   0.127  0.9846 -1.1872  0.1622
  753MOL0     C99291   7.193   1.879   0.107 -0.0594  0.8153  0.4018
  753MOL0     C99292   7.156   1.982   0.024  1.0156  0.6781  0.7054
  753MOL0     C99293   7.012   2.037   0.029 -0.7214  0.8148 -0.8538
  753MOL0     O99294   6.980   2.150  -0.047  0.2891  0.9732  0.2316
  753MOL0     C99295   6.879   2.222   0.003  0.8160  0.2968  0.6942
  753MOL0     C99296   6.773   2.222  -0.080 -0.3302  0.2575 -0.2501
  753MOL0     C99297   6.650   2.290  -0.054 -0.4965 -0.4309  0.3540
  753MOL0     C99298   6.642   2.364   0.062 -0.4116  0.4983  0.2667
  753MOL0     O99299   6.528   2.424   0.100 -0.0681 -0.1374 -0.2971
  753MOL0     C99300   6.403   2.341   0.101 -0.4610 -0.3868  0.4129
  753MOL0     C99301   6.278   2.417   0.158  0.8763  0.2041  0.1542
  753MOL0     C99302   6.157   2.326   0.180 -0.1768  0.7989 -0.1531
  753MOL0     C99303   6.027   2.398   0.204  0.3448  0.5828 -0.1818
  753MOL0     C99304   5.898   2.310   0.189 -1.2867 -0.4449  0.7581
  753MOL0     C99305   5.770   2.393   0.209 -0.2705  0.1384 -0.0784
  753MOL0     C99306   5.628   2.318   0.234 -0.0294  0.1173  0.7298
  753MOL0     C99307   5.512   2.397   0.176 -0.1246 -0.1792 -0.1078
  753MOL0    Cl99308   5.349   2.309   0.208 -0.0980 -0.5048 -0.2494
  753MOL0     C99309   6.752   2.372   0.146  0.4180  1.1098  0.1612
  753MOL0     C99310   6.872   2.304   0.120 -0.4957 -0.0282  0.4427
  753MOL0     O99311   6.939   1.980   0.110  1.0777 -0.4430 -0.7381
  753MOL0     C99312   7.255   2.048  -0.061  0.5206  0.1771 -0.1100
  753MOL0     C99313   7.385   2.012  -0.051 -0.7895 -0.2944 -0.4149
  753MOL0     N99314   7.876   1.951   0.468 -0.7549 -0.4462 -0.0642
  753MOL0     N99315   7.967   1.913   0.552 -0.0709 -0.1772 -0.4427
  753MOL0     C99316   9.021   1.948   0.860  0.6007 -0.8788 -0.0322
  753MOL0     C99317   9.138   2.024   0.841  0.0724  0.1980  0.3122
  753MOL0     C99318   9.519   2.266   0.869  0.3736  0.0627  0.0812
  753MOL0     C99319   9.636   2.236   0.792 -0.2727 -0.2747 -0.4110
  753MOL0     C99320   9.755   2.306   0.813  0.1440 -0.2278 -0.5527
  753MOL0     C99321   9.768   2.411   0.909 -0.6387  0.4302 -0.1509
  753MOL0     O99322   9.876   2.495   0.948  0.2973 -0.4246 -0.4956
  753MOL0     C99323   9.934   2.568   0.846 -0.0865 -0.6295  0.2162
  753MOL0     C99324  10.064   2.492   0.802 -1.0296 -0.2103  0.0970
  753MOL0     C99325  10.188   2.530   0.882  0.0784  0.7488 -0.5606
  753MOL0     C99326  10.304   2.454   0.809  0.6126  0.7241 -0.8448
  753MOL0     C99327  10.419   2.485   0.896 -0.4657  0.5825 -0.0376
  753MOL0     C99328  10.507   2.539   0.954 -0.6305  0.4575  0.2815
  753MOL0     C99329   9.647   2.438   0.986  0.1312 -0.1180  0.8834
  753MOL0     C99330   9.526   2.370   0.960 -0.7627  0.2046  0.8273
  753MOL0     H99331   9.090   2.244   1.101 -2.6393 -0.3220  1.6044
  753MOL0     H99332   8.909   2.090   1.145 -0.4395 -0.8311  0.1758
  753MOL0     H99333   8.903   1.712   0.946 -1.0433 -0.4360 -2.3130
  753MOL0     H99334   8.795   1.793   0.836 -0.6250 -1.3917 -0.9441
  753MOL0     H99335   8.702   1.654   1.105 -1.3476 -0.2488  0.8018
  753MOL0     H99336   8.724   1.582   0.949  1.6011 -0.1277  1.5627
  753MOL0     H99337   8.515   1.805   0.981 -1.1777  0.4344 -1.4056
  753MOL0     H99338   8.480   1.638   1.010 -1.0596 -0.1984 -2.0025
  753MOL0     H99339   8.587   1.750   0.744  1.3571 -1.4759  0.4415
  753MOL0     H99340   8.570   1.572   0.778  0.8339  0.2114 -0.3760
  753MOL0     H99341   8.332   1.767   0.792  2.3879  0.1156  1.4849
  753MOL0     H99342   8.327   1.598   0.815  1.7745 -2.4383 -1.3412
  753MOL0     H99343   8.399   1.563   0.586 -1.0783  0.2557 -0.6667
  753MOL0     H99344   8.451   1.717   0.553  0.0942  1.4274 -0.1801
  753MOL0     H99345   8.228   1.674   0.441 -1.6758 -1.5092  0.3006
  753MOL0     H99346   8.153   1.647   0.592  1.1606 -1.0861  0.6059
  753MOL0     H99347   8.282   1.904   0.502 -1.1191  0.0532 -1.5722
  753MOL0     H99348   8.202   1.898   0.655 -0.3013  2.3244  0.4852
  753MOL0     H99349   8.126   1.866   0.266 -0.6556  0.1776 -1.2847
  753MOL0     H99350   7.933   2.086   0.198 -0.0159 -0.4737 -1.9345
  753MOL0     H99351   7.768   2.040   0.256 -0.7379 -1.3083 -0.5518
  753MOL0     H99352   7.943   1.870   0.079 -1.3443 -0.8407 -0.2761
  753MOL0     H99353   7.806   1.974   0.031  3.2309  1.5188 -0.3319
  753MOL0     H99354   7.755   1.723   0.062  0.1097  0.0426  0.1101
  753MOL0     H99355   7.801   1.734   0.226  0.2687  1.8301  0.3665
  753MOL0     H99356   7.590   1.870   0.270 -0.9001  2.4334 -2.0079
  753MOL0     H99357   7.552   1.729   0.178 -2.1053  0.8813 -0.4728
  753MOL0     H99358   7.359   1.765   0.188  1.0220 -0.9720  0.4351
  753MOL0     H99359   7.114   1.831   0.163 -0.5265 -0.1097 -1.0083
  753MOL0     H99360   6.777   2.178  -0.179 -3.6300 -0.7895 -0.0402
  753MOL0     H99361   6.572   2.269  -0.126 -2.0724  0.9287  1.5751
  753MOL0     H99362   6.425   2.250   0.157  2.1748 -0.3771 -0.4749
  753MOL0     H99363   6.378   2.306   0.000 -0.0354 -0.4134  0.3155
  753MOL0     H99364   6.248   2.495   0.087 -3.2530 -0.9596  0.3530
  753MOL0     H99365   6.301   2.445   0.262  0.4588 -1.4758  0.7360
  753MOL0     H99366   6.178   2.259   0.264  0.8739  2.6475  1.1243
  753MOL0     H99367   6.144   2.276   0.084  1.0398 -1.5718  0.8236
  753MOL0     H99368   6.022   2.435   0.307 -1.2430  1.3031 -0.4826
  753MOL0     H99369   6.016   2.486   0.140 -2.0969 -1.2928 -2.5787
  753MOL0     H99370   5.896   2.233   0.267 -1.8757 -1.2202  0.0006
  753MOL0     H99371   5.902   2.261   0.091 -0.4518  1.5313 -0.2479
  753MOL0     H99372   5.762   2.452   0.117  0.6263  1.4584  0.6497
  753MOL0     H99373   5.794   2.477   0.275  3.1139  2.5560 -3.9304
  753MOL0     H99374   5.635   2.214   0.200 -2.4854 -1.1602  3.6130
  753MOL0     H99375   5.612   2.306   0.342  2.0812  1.6101  1.2736
  753MOL0     H99376   5.536   2.397   0.069  1.0633 -1.3767  0.1321
  753MOL0     H99377   5.513   2.497   0.220  0.9213 -0.7128  1.1085
  753MOL0     H99378   6.728   2.433   0.232 -0.0364  1.5719 -0.2853
  753MOL0     H99379   6.950   2.310   0.195  1.2408  1.7226 -1.3439
  753MOL0     H99380   7.225   2.128  -0.129  1.9644  0.3906 -0.5126
  753MOL0     H99381   7.460   2.069  -0.104 -1.4755  2.7604  1.6699
  753MOL0     H99382   9.000   1.869   0.789 -0.9005  1.0927 -1.9200
  753MOL0     H99383   9.197   2.009   0.751 -2.3057  0.7773 -1.4653
  753MOL0     H99384   9.635   2.153   0.722  2.1733 -1.9938  1.4059
  753MOL0     H99385   9.839   2.281   0.749 -0.4582 -1.2483 -0.9689
  753MOL0     H99386   9.945   2.674   0.868  0.4400 -0.8412  1.0238
  753MOL0     H99387   9.866   2.573   0.760  0.5044 -1.2861 -0.3091
  753MOL0     H99388  10.050   2.384   0.818 -0.1258 -0.4212 -0.3960
  753MOL0     H99389  10.089   2.517   0.698 -3.2668 -1.8964 -0.9385
  753MOL0     H99390  10.169   2.500   0.985  3.3065 -0.2846 -0.1559
  753MOL0     H99391  10.215   2.636   0.879 -0.8056  1.1282  2.1583
  753MOL0     H99392  10.288   2.346   0.814  0.5619  0.7233 -1.0323
  753MOL0     H99393  10.314   2.477   0.703  2.5131 -0.8393 -1.0633
  753MOL0     H99394  10.579   2.592   1.012  0.8037  3.2272 -3.6058
  753MOL0     H99395   9.653   2.529   1.045  1.0323  0.1931  0.3374
  753MOL0     H99396   9.445   2.402   1.025 -2.0697 -0.8939 -0.2142
  754MOL0     O99397   2.858   9.004   7.667 -0.6247 -0.2469 -0.7636
  754MOL0     C99398   2.877   9.113   7.612  0.8614 -0.6213  0.1276
  754MOL0     O99399   2.794   9.221   7.628  0.4502  0.3782  0.6557
  754MOL0     C99400   2.663   9.193   7.665 -0.9043 -0.4944 -0.2005
  754MOL0     C99401   2.611   9.219   7.792 -0.8557 -0.0546 -0.3439
  754MOL0     C99402   2.487   9.173   7.829 -0.7906  0.2414 -0.4557
  754MOL0     C99403   2.399   9.130   7.730  0.3333 -0.9032 -0.1354
  754MOL0     O99404   2.266   9.109   7.753  1.2283  0.1334  0.4717
  754MOL0     C99405   2.201   8.988   7.709  0.4505 -0.1716  0.4397
  754MOL0     C99406   2.049   9.029   7.752  0.0042  0.1068 -0.2741
  754MOL0     C99407   1.950   8.920   7.718  0.4345 -0.1336 -0.4075
  754MOL0     C99408   1.809   8.950   7.782 -0.0038 -0.1308 -0.6914
  754MOL0     C99409   1.711   8.842   7.746  0.0284 -0.0728  0.8804
  754MOL0     C99410   1.588   8.853   7.840 -1.2423 -0.2181  0.0881
  754MOL0     C99411   1.482   8.746   7.807  0.2183  0.0432 -1.0703
  754MOL0     C99412   1.361   8.749   7.907  0.5281  0.5893  0.7953
  754MOL0     N99413   1.317   8.611   7.928  0.9520 -0.4390  0.2765
  754MOL0     C99414   1.335   8.535   8.037 -0.0870 -0.7236 -0.4899
  754MOL0     C99415   1.276   8.411   8.002  0.3100 -0.0249 -0.2618
  754MOL0     C99416   1.306   8.277   8.070  0.6649  1.2369 -0.7900
  754MOL0     C99417   1.185   8.196   8.113 -0.0736  0.1611 -0.0265
  754MOL0     C99418   1.097   8.257   8.219 -0.1481 -0.4275  0.1954
  754MOL0     C99419   0.976   8.185   8.268  0.3197  0.7904  0.0800
  754MOL0     O99420   1.017   8.070   8.342  0.2035  0.6053 -0.0461
  754MOL0     C99421   0.922   8.018   8.434 -1.0520 -0.1895  0.0460
  754MOL0     C99422   0.789   8.054   8.440 -0.1773  0.5915 -0.3744
  754MOL0     C99423   0.703   8.007   8.542  0.1898 -0.6980 -0.4976
  754MOL0     C99424   0.746   7.924   8.641 -0.2950 -0.1144  0.6640
  754MOL0     C99425   0.647   7.869   8.737 -0.0209 -0.0377  0.1756
  754MOL0     O99426   0.692   7.768   8.813 -0.3720  0.4420  0.3775
  754MOL0     C99427   0.603   7.696   8.894 -0.5137 -0.6938  0.5034
  754MOL0     C99428   0.663   7.577   8.936  0.6951 -0.4222 -0.0815
  754MOL0     C99429   0.585   7.490   9.013  0.0752 -0.9566  0.6498
  754MOL0     C99430   0.456   7.525   9.061  0.0618 -0.3985  0.9381
  754MOL0     O99431   0.409   7.444   9.159  0.5496  1.3575  0.0254
  754MOL0     C99432   0.305   7.485   9.240 -0.2135 -0.4685  0.2504
  754MOL0     C99433   0.284   7.383   9.350  0.4206  0.8426  0.2309
  754MOL0     C99434   0.402   7.347   9.440  0.5331  0.0407  0.5505
  754MOL0     C99435   0.408   7.461   9.539 -0.1377  0.0425 -0.3730
  754MOL0     C99436   0.449   7.408   9.683  0.6081 -0.0973 -0.9489
  754MOL0     C99437   0.338   7.337   9.753  0.6074 -0.2450  0.1155
  754MOL0     C99438   0.356   7.329   9.893  0.7112  0.4089  0.2243
  754MOL0     C99439   0.241   7.246   9.955  0.3396  0.5300  0.0816
  754MOL0    Cl99440   0.293   7.210  10.124 -0.0884  0.1180  0.2232
  754MOL0     C99441   0.408   7.651   9.025  0.2473  0.0781 -0.5208
  754MOL0     C99442   0.477   7.733   8.948  0.0833  0.4529 -0.3954
  754MOL0     O99443   0.533   7.919   8.743  0.1365 -0.3890 -0.4727
  754MOL0     C99444   0.886   7.893   8.643  0.1278 -0.3231 -0.1084
  754MOL0     C99445   0.969   7.929   8.534 -0.9427  1.0925 -0.1915
  754MOL0     N99446   1.224   8.421   7.869 -0.2203 -0.9722 -0.8840
  754MOL0     N99447   1.249   8.542   7.832  1.1061 -0.1417  0.3369
  754MOL0     C99448   2.451   9.120   7.594 -0.2714 -0.4570 -1.4659
  754MOL0     C99449   2.588   9.149   7.566 -0.3810 -0.6861  0.4767
  754MOL0     C99450   2.994   9.125   7.518 -0.8330 -0.0081  0.3478
  754MOL0     C99451   3.028   9.247   7.468 -0.5381  0.7802  0.1500
  754MOL0     C99452   3.131   9.262   7.372 -0.3967  0.8348  0.6940
  754MOL0     C99453   3.216   9.146   7.334  0.0128 -0.1732  0.0354
  754MOL0     O99454   3.301   9.167   7.231  1.0327  0.0212 -0.8194
  754MOL0     C99455   3.382   9.056   7.189  0.2899  0.1301  0.1983
  754MOL0     C99456   3.532   9.052   7.243  0.8121  0.4076 -0.2794
  754MOL0     C99457   3.600   9.192   7.253 -0.2024 -0.3302 -0.3628
  754MOL0     C99458   3.658   9.227   7.112  0.5592 -0.1163 -0.0858
  754MOL0     C99459   3.729   9.351   7.121  0.4556  0.4128  0.9695
  754MOL0     C99460   3.781   9.459   7.123  1.2705  0.2363  0.2456
  754MOL0     C99461   3.191   9.028   7.402  0.7089 -0.1259 -0.5760
  754MOL0     C99462   3.075   9.011   7.494  0.3227  0.2768  0.3640
  754MOL0     H99463   2.665   9.259   7.877 -2.2796 -1.2043  1.1767
  754MOL0     H99464   2.461   9.181   7.934 -1.6995 -1.0469 -0.5501
  754MOL0     H99465   2.238   8.901   7.763 -2.6993 -0.6672  2.0255
  754MOL0     H99466   2.209   8.971   7.601 -0.2981  2.4993 -0.1122
  754MOL0     H99467   2.008   9.112   7.694 -2.5482  0.5203  1.9449
  754MOL0     H99468   2.038   9.062   7.856  0.1614 -1.7988  0.3766
  754MOL0     H99469   1.992   8.835   7.771  2.3246  0.6182 -0.6427
  754MOL0     H99470   1.958   8.899   7.611  1.3281 -0.1930 -0.3302
  754MOL0     H99471   1.821   8.934   7.890  3.8000 -2.6332 -1.2935
  754MOL0     H99472   1.767   9.050   7.766  0.5533  0.3962  0.9114
  754MOL0     H99473   1.758   8.745   7.766  1.2555  0.5296  1.0256
  754MOL0     H99474   1.685   8.862   7.642 -1.8534  0.6642  1.4418
  754MOL0     H99475   1.549   8.955   7.836  0.3665  0.5770  2.7383
  754MOL0     H99476   1.618   8.832   7.943  0.7722 -0.2543 -0.4622
  754MOL0     H99477   1.451   8.756   7.702  3.6760  0.9759 -2.1458
  754MOL0     H99478   1.534   8.651   7.822  0.8432  0.6596  0.9690
  754MOL0     H99479   1.292   8.825   7.870 -1.0214 -0.1162  2.1238
  754MOL0     H99480   1.396   8.778   8.007  2.0725  0.4872  0.3173
  754MOL0     H99481   1.375   8.566   8.133  0.5850 -1.3900 -0.5472
  754MOL0     H99482   1.373   8.306   8.151  1.9974  0.0878 -1.4414
  754MOL0     H99483   1.364   8.208   8.007  0.2128 -0.8182  0.9160
  754MOL0     H99484   1.205   8.097   8.154 -0.1842  0.7031  1.3972
  754MOL0     H99485   1.124   8.186   8.022  0.8361 -0.0117 -0.6266
  754MOL0     H99486   1.167   8.265   8.303 -0.3137  1.6669  0.1938
  754MOL0     H99487   1.073   8.359   8.187  0.5577 -1.2063 -3.2004
  754MOL0     H99488   0.899   8.159   8.195  0.1271  0.6199  0.3428
  754MOL0     H99489   0.929   8.259   8.332  0.6037  1.5646 -0.5859
  754MOL0     H99490   0.739   8.124   8.374  0.1939  1.9845  0.7688
  754MOL0     H99491   0.598   8.034   8.536  0.9709  2.5838 -2.3228
  754MOL0     H99492   0.769   7.556   8.926  1.8824  3.4996  2.2268
  754MOL0     H99493   0.628   7.395   9.041  0.1350 -0.4241  2.4335
  754MOL0     H99494   0.210   7.505   9.189 -1.5849  1.2144  3.2076
  754MOL0     H99495   0.336   7.581   9.283 -4.2779  2.1140 -1.8931
  754MOL0     H99496   0.254   7.289   9.302 -1.3374  2.0746 -1.2766
  754MOL0     H99497   0.189   7.394   9.404 -0.7719  0.9654 -1.7556
  754MOL0     H99498   0.494   7.349   9.381 -0.4772  0.4511 -1.0817
  754MOL0     H99499   0.378   7.247   9.477  3.3044 -0.9992 -0.2118
  754MOL0     H99500   0.493   7.524   9.509 -0.0460 -0.2975 -0.8300
  754MOL0     H99501   0.315   7.519   9.535  0.4427  0.9681 -0.9209
  754MOL0     H99502   0.488   7.489   9.745  1.6678  1.7607 -3.8049
  754MOL0     H99503   0.526   7.330   9.679 -1.9550 -2.9700  1.1141
  754MOL0     H99504   0.322   7.237   9.712  0.8140  0.3365 -1.4575
  754MOL0     H99505   0.246   7.394   9.737  1.1267  0.2504 -1.2281
  754MOL0     H99506   0.445   7.270   9.914 -0.0023 -1.7477 -2.3128
  754MOL0     H99507   0.369   7.424   9.946  1.5152  0.9628 -0.9327
  754MOL0     H99508   0.221   7.154   9.899 -2.3149  3.6553 -4.7505
  754MOL0     H99509   0.148   7.303   9.957 -0.0149 -0.0423  0.4057
  754MOL0     H99510   0.307   7.670   9.061  1.1594  1.9969  1.2533
  754MOL0     H99511   0.427   7.827   8.923  0.6596  0.2533 -2.4664
  754MOL0     H99512   0.919   7.823   8.720 -0.0796  0.6751  0.9243
  754MOL0     H99513   1.072   7.893   8.535 -0.9932  0.9500 -0.1535
  754MOL0     H99514   2.385   9.077   7.520 -2.4846  1.1188 -0.4996
  754MOL0     H99515   2.624   9.129   7.466 -1.8158  0.1079 -0.2309
  754MOL0     H99516   2.978   9.339   7.496  0.5662  2.3375 -2.5987
  754MOL0     H99517   3.155   9.362   7.336  6.3615 -0.3486  0.6308
  754MOL0     H99518   3.374   9.051   7.080  3.0951 -1.2569 -0.0219
  754MOL0     H99519   3.345   8.954   7.208 -0.7818  1.0478  4.0117
  754MOL0     H99520   3.518   9.011   7.343 -2.8215  1.6828 -0.1205
  754MOL0     H99521   3.591   8.992   7.173 -0.0279  0.0147 -0.6579
  754MOL0     H99522   3.671   9.177   7.335  0.4623  2.2231 -0.3784
  754MOL0     H99523   3.535   9.273   7.287  1.9081  1.9575 -1.5007
  754MOL0     H99524   3.726   9.148   7.075 -0.0335 -1.0803  0.8165
  754MOL0     H99525   3.579   9.228   7.036 -1.5934 -0.8559  2.0249
  754MOL0     H99526   3.817   9.557   7.147  2.3744 -0.6646  2.6151
  754MOL0     H99527   3.246   8.936   7.386 -2.9607 -1.9436 -4.8157
  754MOL0     H99528   3.062   8.916   7.546  5.2483  0.6561  2.9162
  755MOL0     O99529   8.814   5.090   9.405  1.0939 -1.1216  0.1708
  755MOL0     C99530   8.810   5.207   9.463  0.1885  1.0254 -0.6776
  755MOL0     O99531   8.713   5.239   9.552  0.8115  0.2726  0.5481
  755MOL0     C99532   8.598   5.161   9.540 -1.0025  0.0324 -0.1776
  755MOL0     C99533   8.592   5.031   9.606 -0.3820  0.2310 -0.5051
  755MOL0     C99534   8.471   4.960   9.605  0.0683  0.5779 -1.6476
  755MOL0     C99535   8.358   5.009   9.532  0.0270 -0.5313 -0.1099
  755MOL0     O99536   8.244   4.942   9.531 -0.1107 -0.3972  0.0705
  755MOL0     C99537   8.196   4.913   9.397  0.6471  0.1481  0.2792
  755MOL0     C99538   8.065   4.833   9.394 -0.1467  0.7175  0.4342
  755MOL0     C99539   7.946   4.926   9.426 -0.9743 -0.0535 -0.1094
  755MOL0     C99540   7.816   4.846   9.434 -0.2210  0.4376  0.6880
  755MOL0     C99541   7.715   4.932   9.502 -0.1788 -0.4960  1.8187
  755MOL0     C99542   7.572   4.872   9.493  0.1921  0.1959 -0.5160
  755MOL0     C99543   7.460   4.971   9.542  0.7921  0.5822 -0.3692
  755MOL0     C99544   7.323   4.919   9.485 -0.0257 -0.1942 -0.7241
  755MOL0     N99545   7.206   4.986   9.541 -0.6957 -0.8117 -0.6407
  755MOL0     C99546   7.108   4.932   9.623  0.3973 -1.0993  0.5328
  755MOL0     C99547   7.023   5.045   9.635  0.6052  0.3784 -0.7891
  755MOL0     C99548   6.902   5.068   9.723 -0.0756  0.3204  0.0565
  755MOL0     C99549   6.775   5.051   9.649  0.5849 -1.3269 -0.6670
  755MOL0     C99550   6.663   5.145   9.711 -0.7521  0.2911 -0.1745
  755MOL0     C99551   6.527   5.137   9.643  0.0665 -0.5392 -0.0145
  755MOL0     O99552   6.448   5.253   9.691 -0.3611  0.6952 -0.7575
  755MOL0     C99553   6.315   5.262   9.658 -0.4883  0.0143 -0.2318
  755MOL0     C99554   6.262   5.387   9.660 -0.5046  0.6752 -0.3059
  755MOL0     C99555   6.131   5.403   9.644  0.8071 -0.4559  0.2605
  755MOL0     C99556   6.040   5.298   9.614 -1.2987 -0.1332 -0.2932
  755MOL0     C99557   5.902   5.325   9.574  0.1868  0.3739  0.5730
  755MOL0     O99558   5.809   5.223   9.574 -0.0443 -0.3498 -0.3626
  755MOL0     C99559   5.677   5.238   9.536  0.3496 -0.7309  0.4664
  755MOL0     C99560   5.611   5.361   9.545  0.6200  0.9585 -1.1481
  755MOL0     C99561   5.473   5.370   9.519 -1.2312 -0.7879 -0.0620
  755MOL0     C99562   5.402   5.258   9.473 -0.2970 -0.0384 -0.2789
  755MOL0     O99563   5.274   5.288   9.423 -0.0545  0.0095  0.3603
  755MOL0     C99564   5.191   5.180   9.371  0.1770 -0.2287 -0.8966
  755MOL0     C99565   5.042   5.231   9.371 -0.2855 -0.2468 -0.0362
  755MOL0     C99566   4.946   5.126   9.319  0.4308 -0.0600  0.3959
  755MOL0     C99567   4.924   5.021   9.430  0.3552  0.2205 -0.8969
  755MOL0     C99568   4.772   4.998   9.466 -0.2904 -1.1148  0.2291
  755MOL0     C99569   4.697   4.924   9.352 -0.3646  0.7445  0.6130
  755MOL0     C99570   4.585   4.836   9.400  0.5255  0.6892  0.3038
  755MOL0     C99571   4.461   4.923   9.448 -0.2896 -0.2148 -0.3679
  755MOL0    Cl99572   4.365   5.018   9.322 -0.0468 -0.1114 -0.3534
  755MOL0     C99573   5.474   5.138   9.459  0.5506 -0.1529  0.0406
  755MOL0     C99574   5.603   5.122   9.501  1.2837  0.7815 -0.4617
  755MOL0     O99575   5.884   5.441   9.530 -0.2685 -0.4391  0.5980
  755MOL0     C99576   6.095   5.172   9.598  0.2361 -0.1953 -1.5864
  755MOL0     C99577   6.235   5.153   9.625 -0.0153 -0.0355  0.0408
  755MOL0     N99578   7.063   5.157   9.564 -0.7284  0.2058  0.6073
  755MOL0     N99579   7.174   5.115   9.502  0.9591 -0.1891  0.5271
  755MOL0     C99580   8.371   5.141   9.474 -0.3111  0.1674 -1.2450
  755MOL0     C99581   8.487   5.219   9.482  0.6054  0.3520 -0.2492
  755MOL0     C99582   8.909   5.300   9.414 -0.7282  1.4053  0.8799
  755MOL0     C99583   8.893   5.431   9.452  0.9440 -0.7291 -0.1098
  755MOL0     C99584   8.965   5.530   9.389 -0.0521 -0.4948 -0.3028
  755MOL0     C99585   9.058   5.505   9.282 -0.2517 -0.2134  0.1934
  755MOL0     O99586   9.132   5.609   9.221 -0.1096  0.3321  0.2157
  755MOL0     C99587   9.214   5.592   9.102 -0.1690  0.2710 -0.0162
  755MOL0     C99588   9.332   5.683   9.091 -0.3236 -0.9975 -0.4559
  755MOL0     C99589   9.454   5.636   9.180 -0.0150  0.3007 -0.0738
  755MOL0     C99590   9.560   5.750   9.214  0.8995  0.1991  0.1191
  755MOL0     C99591   9.578   5.774   9.359 -0.7383  0.0921  0.6889
  755MOL0     C99592   9.568   5.777   9.477 -0.7528  0.4308  0.1026
  755MOL0     C99593   9.070   5.367   9.241  0.0728 -0.9034 -0.3300
  755MOL0     C99594   9.000   5.274   9.306 -0.0892 -0.3374  0.2684
  755MOL0     H99595   8.669   4.979   9.663 -1.4936  0.1918  1.0325
  755MOL0     H99596   8.467   4.865   9.659 -0.3026  2.2919  1.6297
  755MOL0     H99597   8.266   4.837   9.360  0.0656 -0.7048  0.9000
  755MOL0     H99598   8.202   4.998   9.329  1.8482 -0.9375 -1.0407
  755MOL0     H99599   8.073   4.745   9.458  0.9462  0.5576  0.0898
  755MOL0     H99600   8.062   4.805   9.288 -2.2332 -1.0827  0.9057
  755MOL0     H99601   7.932   5.002   9.349 -1.0051 -0.9625 -1.0196
  755MOL0     H99602   7.971   4.973   9.521  3.3902  1.3957 -1.7287
  755MOL0     H99603   7.794   4.817   9.331  2.0416 -0.0656  0.2895
  755MOL0     H99604   7.834   4.752   9.487  0.6590  0.1279 -0.1247
  755MOL0     H99605   7.731   5.032   9.460  3.8610 -0.9985  1.7149
  755MOL0     H99606   7.746   4.943   9.607  1.3522  3.2945  1.1283
  755MOL0     H99607   7.563   4.775   9.543  0.0712 -1.6740 -3.8786
  755MOL0     H99608   7.540   4.859   9.389  1.7979 -2.0387 -0.8050
  755MOL0     H99609   7.450   4.974   9.650  1.9842 -2.9039 -0.0299
  755MOL0     H99610   7.481   5.075   9.513  2.9593  1.4718  3.6060
  755MOL0     H99611   7.305   4.813   9.503 -1.5510  0.3286  1.1417
  755MOL0     H99612   7.325   4.936   9.377 -1.3433 -1.9637 -1.0658
  755MOL0     H99613   7.100   4.835   9.670 -0.5733 -1.8086 -1.0163
  755MOL0     H99614   6.899   5.167   9.770 -2.3486 -0.4965  1.8227
  755MOL0     H99615   6.898   4.991   9.801 -3.1953  0.3502  0.0627
  755MOL0     H99616   6.734   4.950   9.642 -4.2414  0.4563 -1.7666
  755MOL0     H99617   6.781   5.090   9.547  2.8350 -1.6657 -0.7267
  755MOL0     H99618   6.652   5.130   9.819 -0.7998 -0.9486 -0.3373
  755MOL0     H99619   6.700   5.248   9.705 -4.2201  1.6211 -1.7502
  755MOL0     H99620   6.482   5.044   9.679  0.9342 -0.5153  1.2038
  755MOL0     H99621   6.530   5.143   9.534 -2.5215  1.2723 -0.0823
  755MOL0     H99622   6.326   5.471   9.685  0.6930 -0.2729 -0.1392
  755MOL0     H99623   6.091   5.503   9.652 -1.3498 -1.4126  2.7416
  755MOL0     H99624   5.659   5.456   9.569 -0.0500  0.9454  0.4214
  755MOL0     H99625   5.430   5.470   9.517  1.1277  0.3076  0.4316
  755MOL0     H99626   5.175   5.092   9.434 -0.1649  1.6271  1.7868
  755MOL0     H99627   5.217   5.160   9.267 -2.5044  1.0639 -1.9213
  755MOL0     H99628   5.047   5.315   9.302 -0.0952  1.3561  1.8451
  755MOL0     H99629   5.003   5.275   9.463 -4.4646  1.4774 -2.3388
  755MOL0     H99630   4.987   5.073   9.232 -0.9145 -1.4920  0.5913
  755MOL0     H99631   4.851   5.167   9.285 -0.8536 -3.0748  0.0480
  755MOL0     H99632   4.975   4.929   9.399  1.7288  0.1393  1.3807
  755MOL0     H99633   4.985   5.043   9.518 -1.2448  0.5812  0.1666
  755MOL0     H99634   4.731   5.089   9.510  1.1202  1.5817 -3.5425
  755MOL0     H99635   4.776   4.923   9.546  2.0924 -0.4919  0.7787
  755MOL0     H99636   4.775   4.864   9.304 -0.2480  3.0046 -2.3043
  755MOL0     H99637   4.655   4.995   9.279 -1.5877 -2.5421 -2.1232
  755MOL0     H99638   4.541   4.783   9.315 -3.7490 -1.5971  3.5585
  755MOL0     H99639   4.623   4.757   9.465 -1.3752 -0.5051  0.0657
  755MOL0     H99640   4.503   5.001   9.511  0.2133  0.9399 -2.0733
  755MOL0     H99641   4.384   4.855   9.487 -1.5471 -0.4541 -3.0155
  755MOL0     H99642   5.425   5.049   9.421 -1.6384  1.6117 -1.5581
  755MOL0     H99643   5.646   5.023   9.513  1.2376  1.0003  1.9373
  755MOL0     H99644   6.032   5.090   9.563 -0.6897  0.9115 -2.5780
  755MOL0     H99645   6.270   5.051   9.612  0.0803  0.3203 -3.5186
  755MOL0     H99646   8.282   5.186   9.434 -1.1265 -1.6469 -1.5984
  755MOL0     H99647   8.498   5.314   9.431 -0.6683  0.7552  0.1776
  755MOL0     H99648   8.826   5.467   9.529 -2.5147  0.4466 -3.3272
  755MOL0     H99649   8.944   5.636   9.401 -1.7348 -0.7257 -1.0107
  755MOL0     H99650   9.157   5.625   9.015 -0.4452  1.2588  0.5267
  755MOL0     H99651   9.249   5.490   9.079 -2.2296 -0.1696 -1.4725
  755MOL0     H99652   9.360   5.688   8.986 -1.8595 -1.3293 -0.9161
  755MOL0     H99653   9.303   5.787   9.108 -0.1758 -0.9794 -0.3118
  755MOL0     H99654   9.509   5.554   9.133 -1.3107  0.3313 -1.7138
  755MOL0     H99655   9.411   5.609   9.277 -1.1830  2.6581  0.1335
  755MOL0     H99656   9.656   5.738   9.163  0.1861  0.1076 -1.2526
  755MOL0     H99657   9.520   5.843   9.173 -1.0121 -0.0212  1.3300
  755MOL0     H99658   9.565   5.770   9.584  0.2738  0.2907  0.1310
  755MOL0     H99659   9.152   5.331   9.179  0.7478 -0.0052  0.0260
  755MOL0     H99660   9.019   5.170   9.283 -3.2797 -0.5636 -2.0800
  756MOL0     O99661   2.839   1.455   6.983 -0.0810 -0.0174 -0.5334
  756MOL0     C99662   2.793   1.564   7.011 -0.0980 -0.3903  0.3783
  756MOL0     O99663   2.675   1.613   6.975  0.0074  0.4577 -0.0747
  756MOL0     C99664   2.596   1.520   6.909 -0.1695 -0.4691 -0.2244
  756MOL0     C99665   2.523   1.427   6.981 -0.6601 -1.0785  0.3654
  756MOL0     C99666   2.450   1.337   6.910  0.3429 -0.0665 -0.1788
  756MOL0     C99667   2.453   1.331   6.773  0.3854 -0.5513  0.0175
  756MOL0     O99668   2.378   1.237   6.705  0.3383 -0.9536 -0.3813
  756MOL0     C99669   2.245   1.265   6.673  0.1997 -0.1313  0.3866
  756MOL0     C99670   2.146   1.148   6.728 -0.4278  0.0095  0.0202
  756MOL0     C99671   2.003   1.178   6.696 -0.2540 -0.7086 -0.2385
  756MOL0     C99672   1.956   1.298   6.781 -0.3309 -0.2559 -0.6045
  756MOL0     C99673   1.800   1.315   6.768  0.1174  0.3197 -0.9806
  756MOL0     C99674   1.748   1.334   6.626 -0.1345 -0.1966 -1.1321
  756MOL0     C99675   1.598   1.371   6.624  0.8703  0.0162 -0.1990
  756MOL0     C99676   1.517   1.243   6.661 -0.6444  0.3694 -0.2911
  756MOL0     N99677   1.377   1.273   6.675 -0.2981  0.2874 -0.2716
  756MOL0     C99678   1.309   1.353   6.768  0.8034 -0.7917  0.5800
  756MOL0     C99679   1.175   1.317   6.765 -0.2754  0.3140  1.1551
  756MOL0     C99680   1.056   1.358   6.853 -0.1554 -0.4776  0.0241
  756MOL0     C99681   1.065   1.331   7.001 -0.0830  0.0204  0.6081
  756MOL0     C99682   1.113   1.181   7.033 -0.1664  0.2065 -0.1807
  756MOL0     C99683   1.264   1.149   7.015 -0.1705  0.2178 -0.9649
  756MOL0     O99684   1.293   1.039   7.103  0.0887 -0.1740 -0.7245
  756MOL0     C99685   1.375   1.074   7.215  0.1347  0.1336  0.2221
  756MOL0     C99686   1.384   1.197   7.271  0.2175 -0.3051 -0.1190
  756MOL0     C99687   1.476   1.230   7.374 -0.0236 -0.6535 -0.7834
  756MOL0     C99688   1.552   1.124   7.426  0.5033 -0.3596 -0.6375
  756MOL0     C99689   1.645   1.149   7.536  0.3370 -0.5158 -0.5212
  756MOL0     O99690   1.648   1.050   7.632 -0.3595  0.2058  0.2204
  756MOL0     C99691   1.740   1.070   7.733 -0.0034  0.6015 -0.5239
  756MOL0     C99692   1.883   1.097   7.709  0.1658 -0.7638 -0.9141
  756MOL0     C99693   1.970   1.105   7.822 -0.3374 -0.5347  0.2812
  756MOL0     C99694   1.921   1.085   7.945 -0.0628 -0.5935 -0.2275
  756MOL0     O99695   1.987   1.089   8.068 -0.2832  0.3716  0.4123
  756MOL0     C99696   2.124   1.125   8.092  0.2310 -0.1169 -0.5054
  756MOL0     C99697   2.153   1.119   8.246  0.5290 -0.5747 -0.1982
  756MOL0     C99698   2.286   1.197   8.273  0.3388  0.7039  0.4249
  756MOL0     C99699   2.345   1.178   8.410  0.4751 -0.5703  0.0001
  756MOL0     C99700   2.484   1.242   8.431  0.7659 -0.9141  0.5341
  756MOL0     C99701   2.542   1.239   8.570  0.6290 -0.2612 -0.6125
  756MOL0     C99702   2.681   1.307   8.585  1.0888  0.1787  0.0953
  756MOL0     C99703   2.791   1.233   8.509  0.1068 -0.5668 -0.3000
  756MOL0    Cl99704   2.930   1.345   8.523 -0.4468 -0.0759 -0.3932
  756MOL0     C99705   1.781   1.077   7.966 -0.2079 -0.0254  0.4855
  756MOL0     C99706   1.692   1.064   7.864  0.1977  0.5993  0.3909
  756MOL0     O99707   1.700   1.260   7.536 -0.0777 -0.2988  0.5308
  756MOL0     C99708   1.532   0.993   7.379 -0.1186  0.2172 -0.0089
  756MOL0     C99709   1.452   0.975   7.270  0.5797  0.9830  0.3977
  756MOL0     N99710   1.173   1.214   6.668 -0.7511 -0.0615  0.7376
  756MOL0     N99711   1.291   1.184   6.625 -0.7397  0.1997 -0.7713
  756MOL0     C99712   2.534   1.424   6.699 -0.4171 -1.2745 -0.7117
  756MOL0     C99713   2.608   1.521   6.773  0.2902 -0.3147  0.5344
  756MOL0     C99714   2.887   1.659   7.073  0.8879 -0.3271 -1.0475
  756MOL0     C99715   2.847   1.794   7.105 -0.4119  0.2745 -0.0917
  756MOL0     C99716   2.936   1.891   7.170 -0.0866  0.4495  1.0423
  756MOL0     C99717   3.065   1.851   7.197 -0.3342 -0.0246  0.4891
  756MOL0     O99718   3.154   1.939   7.256 -0.1404  0.0814  0.6848
  756MOL0     C99719   3.108   2.046   7.336  0.9358 -0.3140 -0.3974
  756MOL0     C99720   3.214   2.126   7.404 -0.1004 -0.4097  0.3633
  756MOL0     C99721   3.325   2.188   7.324  0.2847  0.9543  0.0292
  756MOL0     C99722   3.256   2.285   7.228  1.0642  0.1400 -0.1041
  756MOL0     C99723   3.362   2.364   7.164  0.7163  0.0599  0.2257
  756MOL0     C99724   3.454   2.425   7.119  0.2873  0.0855  0.0389
  756MOL0     C99725   3.101   1.722   7.161  0.0622 -0.6935  0.2743
  756MOL0     C99726   3.017   1.632   7.094 -0.0677  0.2056 -0.2347
  756MOL0     H99727   2.514   1.417   7.089 -2.5747 -4.7936 -0.0037
  756MOL0     H99728   2.393   1.265   6.968 -0.1816  2.4067  2.6367
  756MOL0     H99729   2.242   1.267   6.564 -0.5682  1.7482  0.4087
  756MOL0     H99730   2.215   1.365   6.705 -0.6556  0.0755 -0.9748
  756MOL0     H99731   2.157   1.130   6.835 -2.0819 -4.5143 -0.3489
  756MOL0     H99732   2.160   1.053   6.676 -1.3354  0.7627 -1.6917
  756MOL0     H99733   1.939   1.090   6.710 -1.7184  0.3164 -0.2849
  756MOL0     H99734   1.997   1.200   6.589 -1.4882 -0.4894 -0.1376
  756MOL0     H99735   1.993   1.301   6.884 -0.6433 -0.5104 -0.4834
  756MOL0     H99736   2.005   1.386   6.737  0.6126 -1.1009 -1.2792
  756MOL0     H99737   1.762   1.402   6.823  0.7806  1.0513 -1.6726
  756MOL0     H99738   1.755   1.224   6.809 -0.6865  1.0302 -0.2354
  756MOL0     H99739   1.783   1.241   6.580 -0.6468 -1.6066  1.1132
  756MOL0     H99740   1.816   1.412   6.590  0.4778 -0.5552 -0.7886
  756MOL0     H99741   1.585   1.451   6.697 -0.6771 -2.8176  2.8870
  756MOL0     H99742   1.575   1.403   6.522 -0.9830 -0.1311  0.1435
  756MOL0     H99743   1.541   1.182   6.748 -3.8447  0.3521  0.7071
  756MOL0     H99744   1.534   1.180   6.573  1.0682  2.2916 -1.4407
  756MOL0     H99745   1.347   1.420   6.845 -2.8819  1.6340  0.5888
  756MOL0     H99746   0.971   1.296   6.821 -0.3584 -0.6170  0.8230
  756MOL0     H99747   1.024   1.462   6.837 -1.1062 -0.6822  0.5056
  756MOL0     H99748   0.964   1.341   7.042 -0.3417 -1.7253  0.4728
  756MOL0     H99749   1.129   1.404   7.051  0.4611 -1.4379  2.1097
  756MOL0     H99750   1.101   1.169   7.141 -3.0232  0.3588 -0.4155
  756MOL0     H99751   1.056   1.098   6.989 -2.1468  0.9723  0.8115
  756MOL0     H99752   1.331   1.234   7.028 -3.0189  2.1931  3.3108
  756MOL0     H99753   1.281   1.103   6.917  0.2148 -1.2733 -0.2293
  756MOL0     H99754   1.321   1.280   7.242 -0.4490  0.3536  2.8328
  756MOL0     H99755   1.485   1.325   7.425  0.1231 -1.5724  0.9781
  756MOL0     H99756   1.906   1.103   7.603 -0.8595 -0.7371 -1.1514
  756MOL0     H99757   2.075   1.108   7.796 -0.9184  1.5631 -2.2256
  756MOL0     H99758   2.150   1.222   8.048  2.3763 -0.9515 -1.1927
  756MOL0     H99759   2.185   1.056   8.033 -0.9973 -3.4452  1.8358
  756MOL0     H99760   2.166   1.014   8.272  0.5612 -0.7254 -0.7990
  756MOL0     H99761   2.080   1.173   8.306  1.1405 -1.2538  1.1860
  756MOL0     H99762   2.277   1.304   8.256  1.8087  1.2841  2.8137
  756MOL0     H99763   2.362   1.153   8.208  0.5637  0.1124  1.0741
  756MOL0     H99764   2.277   1.226   8.482  1.4888  0.8049  0.0842
  756MOL0     H99765   2.352   1.070   8.427  1.8293 -0.2671  1.5824
  756MOL0     H99766   2.491   1.342   8.388  3.3962 -1.7692 -1.3035
  756MOL0     H99767   2.539   1.171   8.368 -0.3250 -2.1590  0.9267
  756MOL0     H99768   2.551   1.135   8.602 -1.3328  0.1883  1.7133
  756MOL0     H99769   2.466   1.279   8.637  0.0826  1.1854 -2.0146
  756MOL0     H99770   2.664   1.411   8.554 -0.5835 -0.4368 -1.2072
  756MOL0     H99771   2.718   1.310   8.688  2.7788 -3.0171 -0.3009
  756MOL0     H99772   2.758   1.233   8.405 -0.8838  2.3768 -0.1032
  756MOL0     H99773   2.805   1.137   8.558  1.6610 -0.4608 -0.5035
  756MOL0     H99774   1.738   1.059   8.064  2.5441 -0.3347  1.7355
  756MOL0     H99775   1.589   1.044   7.891 -0.7289  2.8209 -1.1545
  756MOL0     H99776   1.587   0.910   7.423 -1.0349  0.8367  2.4738
  756MOL0     H99777   1.444   0.878   7.221  0.0078  0.3368  1.7282
  756MOL0     H99778   2.526   1.421   6.590  1.0571 -0.5520 -0.8622
  756MOL0     H99779   2.662   1.599   6.721  0.9632  0.3469  2.1667
  756MOL0     H99780   2.742   1.822   7.104 -0.2809  1.0532 -3.1267
  756MOL0     H99781   2.893   1.987   7.195 -0.8736  1.4249 -3.2055
  756MOL0     H99782   3.038   2.009   7.412 -0.7019  0.3152 -1.5409
  756MOL0     H99783   3.054   2.118   7.273  0.8622  1.2121  1.3391
  756MOL0     H99784   3.171   2.214   7.453  2.4684  2.0164 -1.4651
  756MOL0     H99785   3.256   2.063   7.483  0.5004  0.6177  0.8801
  756MOL0     H99786   3.389   2.118   7.269  1.1113  0.0659  1.9824
  756MOL0     H99787   3.396   2.233   7.395  0.3688  2.1761 -0.8104
  756MOL0     H99788   3.202   2.227   7.152 -0.8931 -0.1440  1.4136
  756MOL0     H99789   3.187   2.346   7.287 -0.2514 -0.8653 -0.5643
  756MOL0     H99790   3.538   2.469   7.069  1.9524 -1.9024  0.9504
  756MOL0     H99791   3.201   1.684   7.175  0.3728  0.2284  0.6384
  756MOL0     H99792   3.052   1.531   7.075 -3.5018 -0.8430 -1.7955
  757MOL0     O99793   9.374   3.710   2.564  0.7698  0.3700  0.6668
  757MOL0     C99794   9.373   3.602   2.624 -0.2634 -0.1113 -0.1916
  757MOL0     O99795   9.269   3.535   2.683 -0.3889  0.0337  0.8964
  757MOL0     C99796   9.140   3.575   2.673  0.5761  0.0594 -0.0709
  757MOL0     C99797   9.049   3.470   2.658  0.5317 -0.5837  0.5567
  757MOL0     C99798   8.910   3.489   2.630 -0.0295 -0.4517 -0.5807
  757MOL0     C99799   8.860   3.621   2.637 -0.0301 -0.1766 -0.3912
  757MOL0     O99800   8.730   3.646   2.635  0.6220 -0.2729 -0.6038
  757MOL0     C99801   8.636   3.553   2.574 -0.5492 -0.9294 -0.5751
  757MOL0     C99802   8.501   3.621   2.558 -0.1514  0.3008 -0.3270
  757MOL0     C99803   8.392   3.538   2.491 -0.3312 -0.0372 -0.8483
  757MOL0     C99804   8.257   3.601   2.506  0.6092  0.7293 -0.5386
  757MOL0     C99805   8.143   3.538   2.415 -1.0038  0.7417 -0.0676
  757MOL0     C99806   8.124   3.385   2.442 -1.0250 -0.0162  0.1651
  757MOL0     C99807   7.981   3.342   2.436 -0.2693 -0.0241  0.4636
  757MOL0     C99808   7.931   3.361   2.289 -0.2846 -0.1850 -0.2954
  757MOL0     N99809   7.793   3.405   2.277 -0.1998 -0.0111 -0.1725
  757MOL0     C99810   7.683   3.332   2.295 -0.0160  0.7781  0.3435
  757MOL0     C99811   7.592   3.422   2.271  0.1288 -0.2062  0.1835
  757MOL0     C99812   7.447   3.395   2.252  0.5097 -0.0660  0.4014
  757MOL0     C99813   7.359   3.512   2.292 -0.2628 -0.4909  0.0994
  757MOL0     C99814   7.211   3.515   2.249 -0.8926  0.5718 -0.3746
  757MOL0     C99815   7.121   3.413   2.325 -0.4580 -1.2274 -0.6499
  757MOL0     O99816   6.988   3.455   2.298  0.3630  0.6294 -0.2467
  757MOL0     C99817   6.885   3.405   2.376  0.3626  0.1417  0.8270
  757MOL0     C99818   6.895   3.295   2.465 -0.6092  0.1866 -0.3155
  757MOL0     C99819   6.786   3.261   2.546 -0.5084 -0.3653 -0.7273
  757MOL0     C99820   6.663   3.342   2.547  0.0179 -0.6466  0.2926
  757MOL0     C99821   6.542   3.317   2.629  0.8785  0.4158  0.1270
  757MOL0     O99822   6.463   3.428   2.653 -0.2813  0.3513  0.7557
  757MOL0     C99823   6.350   3.429   2.729  0.7152  0.9600  0.4915
  757MOL0     C99824   6.312   3.556   2.774 -0.1107  0.2077  0.2345
  757MOL0     C99825   6.196   3.564   2.846  0.0310 -0.7237 -0.1596
  757MOL0     C99826   6.100   3.456   2.863  0.3607 -0.6666  0.2319
  757MOL0     O99827   5.995   3.475   2.937  0.3722  0.5316  0.6383
  757MOL0     C99828   5.902   3.367   2.953 -0.4411  0.5343  0.2642
  757MOL0     C99829   5.773   3.420   2.999  0.0599 -0.4587 -0.5435
  757MOL0     C99830   5.713   3.540   2.926  0.1053 -0.1424  0.4305
  757MOL0     C99831   5.594   3.601   2.998  0.0151  0.5129  0.0476
  757MOL0     C99832   5.480   3.502   2.996  0.2516 -0.0715 -0.2620
  757MOL0     C99833   5.353   3.542   3.077  0.5153 -0.0123 -0.4762
  757MOL0     C99834   5.234   3.450   3.021  0.7485 -0.0061 -0.1716
  757MOL0     C99835   5.104   3.535   3.020  0.0215  0.1839  0.5807
  757MOL0    Cl99836   4.962   3.440   2.963  0.4307  0.6253 -0.4552
  757MOL0     C99837   6.141   3.331   2.805  0.0474  0.1854 -0.2036
  757MOL0     C99838   6.265   3.319   2.749 -0.1844 -0.0036 -0.0423
  757MOL0     O99839   6.523   3.205   2.677 -0.1435 -0.0184  0.1669
  757MOL0     C99840   6.662   3.453   2.458  0.5121  0.6749 -0.8483
  757MOL0     C99841   6.770   3.475   2.373  0.4046 -0.4670 -0.4492
  757MOL0     N99842   7.635   3.542   2.254  0.1443 -0.0613 -0.1805
  757MOL0     N99843   7.763   3.535   2.259 -0.1362  0.0586  0.8791
  757MOL0     C99844   8.954   3.723   2.668  0.8640 -0.2386  0.1514
  757MOL0     C99845   9.092   3.702   2.684  0.7248  0.3940  0.2815
  757MOL0     C99846   9.497   3.530   2.622 -0.0167  0.1445  0.3599
  757MOL0     C99847   9.615   3.609   2.614  0.8310 -0.0390  0.8555
  757MOL0     C99848   9.738   3.548   2.625  0.2587  0.5452 -0.7482
  757MOL0     C99849   9.750   3.406   2.633 -0.8177  0.7458 -0.5478
  757MOL0     O99850   9.868   3.334   2.635 -0.2984  0.4300 -0.1339
  757MOL0     C99851   9.991   3.399   2.677  0.2208  0.4258  0.6524
  757MOL0     C99852  10.049   3.446   2.542 -0.0332 -1.2353  0.2867
  757MOL0     C99853  10.186   3.513   2.544 -0.8001 -0.6675  0.7424
  757MOL0     C99854  10.287   3.456   2.644  0.9463  0.5227  0.2027
  757MOL0     C99855  10.328   3.317   2.610 -1.3086  0.2037  0.1012
  757MOL0     C99856  10.358   3.196   2.587 -0.5229 -0.4248  0.6340
  757MOL0     C99857   9.622   3.328   2.624 -0.2418 -0.4043 -0.5291
  757MOL0     C99858   9.505   3.398   2.642  0.4379 -1.4311 -0.1978
  757MOL0     H99859   9.098   3.373   2.660  1.2096 -0.2363  1.9000
  757MOL0     H99860   8.850   3.406   2.596 -0.4219 -0.4583  0.0995
  757MOL0     H99861   8.620   3.459   2.628 -1.4925 -0.3172  0.2429
  757MOL0     H99862   8.673   3.505   2.482 -1.7164  1.4345 -2.3849
  757MOL0     H99863   8.507   3.706   2.489 -1.6581 -0.8623 -1.9822
  757MOL0     H99864   8.477   3.656   2.658  3.9814 -1.6816  1.6328
  757MOL0     H99865   8.402   3.436   2.529  2.0217  0.3759 -0.1524
  757MOL0     H99866   8.418   3.537   2.384  0.1024  2.5653 -0.8210
  757MOL0     H99867   8.222   3.597   2.610  0.0432  3.8649 -0.5107
  757MOL0     H99868   8.263   3.705   2.473 -2.3325  0.3183 -2.7701
  757MOL0     H99869   8.165   3.542   2.307  3.1072 -2.6977  0.3876
  757MOL0     H99870   8.054   3.600   2.429 -0.0849  1.7426  1.6042
  757MOL0     H99871   8.156   3.352   2.541 -3.3060 -0.2476  0.8707
  757MOL0     H99872   8.178   3.333   2.363  1.0533 -2.1399  2.7895
  757MOL0     H99873   7.976   3.234   2.454  0.5458 -0.3121 -0.9304
  757MOL0     H99874   7.930   3.415   2.500  0.6466  3.8583 -2.7961
  757MOL0     H99875   7.926   3.262   2.242 -2.1910 -1.2639  1.9683
  757MOL0     H99876   8.001   3.428   2.239  0.8573 -0.6002  0.6957
  757MOL0     H99877   7.670   3.224   2.302  0.4950  0.5748 -1.4482
  757MOL0     H99878   7.410   3.305   2.302 -4.6968  0.9138 -1.0852
  757MOL0     H99879   7.427   3.384   2.145 -1.1023  0.0691  0.6693
  757MOL0     H99880   7.407   3.604   2.257  2.4643 -1.1161  1.9473
  757MOL0     H99881   7.352   3.525   2.400  1.8564  0.9701  0.1122
  757MOL0     H99882   7.169   3.613   2.275  2.6207  1.7403  1.6607
  757MOL0     H99883   7.216   3.490   2.143  3.3378  1.7744 -0.6756
  757MOL0     H99884   7.145   3.415   2.432 -1.8532 -0.8212 -0.3264
  757MOL0     H99885   7.130   3.308   2.295  1.0523 -1.3603  0.1536
  757MOL0     H99886   6.982   3.230   2.458  1.8671  3.3447 -1.7964
  757MOL0     H99887   6.781   3.174   2.610 -1.1034 -0.6755 -1.1846
  757MOL0     H99888   6.371   3.645   2.758 -1.3433  0.7901 -1.2784
  757MOL0     H99889   6.158   3.659   2.882  1.5101 -0.4853  0.8842
  757MOL0     H99890   5.940   3.289   3.021  0.6010  0.0284 -0.8477
  757MOL0     H99891   5.883   3.327   2.853  1.7934 -1.6920  0.6021
  757MOL0     H99892   5.788   3.450   3.103 -2.3677 -0.4047 -0.1676
  757MOL0     H99893   5.696   3.344   3.010 -0.4081  0.1903  0.8380
  757MOL0     H99894   5.687   3.514   2.823 -1.9644  0.8941  0.6420
  757MOL0     H99895   5.791   3.617   2.927 -0.2837  0.2815 -0.5364
  757MOL0     H99896   5.610   3.632   3.102 -1.3165 -3.4184  1.6107
  757MOL0     H99897   5.565   3.689   2.940 -2.5706 -1.3498 -1.6639
  757MOL0     H99898   5.496   3.405   3.044  0.0090 -0.6328 -1.2570
  757MOL0     H99899   5.460   3.488   2.889  4.4500  1.2016 -1.3878
  757MOL0     H99900   5.349   3.651   3.065 -1.4553 -0.2424 -2.4322
  757MOL0     H99901   5.377   3.515   3.180 -0.6926 -1.3283 -0.5169
  757MOL0     H99902   5.262   3.410   2.923  6.3707  2.7544 -0.1050
  757MOL0     H99903   5.213   3.363   3.085  0.9592  1.7019  2.3424
  757MOL0     H99904   5.118   3.622   2.955  0.5741 -0.2210  0.1377
  757MOL0     H99905   5.077   3.579   3.116 -0.5251 -1.7156  1.3481
  757MOL0     H99906   6.070   3.250   2.794 -0.0273  0.3572 -0.9644
  757MOL0     H99907   6.295   3.230   2.694  0.9860 -1.9263  3.3698
  757MOL0     H99908   6.568   3.506   2.445  0.6402  0.5841 -2.3099
  757MOL0     H99909   6.767   3.562   2.309 -3.0108  1.4734  2.0426
  757MOL0     H99910   8.933   3.827   2.694  1.0401 -0.1071 -0.2291
  757MOL0     H99911   9.158   3.788   2.687  0.3389  0.9597 -3.2578
  757MOL0     H99912   9.614   3.714   2.587 -0.2018  0.0589  1.2420
  757MOL0     H99913   9.830   3.606   2.621  1.1489 -0.4565  2.4415
  757MOL0     H99914  10.055   3.322   2.721 -0.4792 -1.8787 -1.9963
  757MOL0     H99915   9.973   3.478   2.750  0.8675 -0.2498  1.5674
  757MOL0     H99916  10.063   3.357   2.480 -1.1006 -0.0989 -1.6976
  757MOL0     H99917   9.982   3.513   2.487 -1.1104  1.4092  4.3814
  757MOL0     H99918  10.185   3.618   2.575  1.7563 -1.1880  2.9055
  757MOL0     H99919  10.230   3.508   2.444 -1.9626 -3.8352  0.2580
  757MOL0     H99920  10.372   3.524   2.647 -1.6674  4.0323  3.3983
  757MOL0     H99921  10.263   3.448   2.751  0.8073 -3.2752  0.0523
  757MOL0     H99922  10.349   3.090   2.571 -0.1715 -0.7412  2.4030
  757MOL0     H99923   9.623   3.220   2.614 -1.4612 -0.3414 -1.5994
  757MOL0     H99924   9.414   3.342   2.663 -1.1877  2.0706  3.1312
  758MOL0     O99925   8.392   3.977   0.792  0.7115 -0.1880 -0.1903
  758MOL0     C99926   8.390   3.876   0.869  0.2796  0.8733 -0.0021
  758MOL0     O99927   8.297   3.838   0.959  0.8559 -0.2233 -0.2023
  758MOL0     C99928   8.197   3.922   0.971  0.6417 -0.4579  0.6354
  758MOL0     C99929   8.066   3.889   0.944  0.6339  0.1055  0.3889
  758MOL0     C99930   7.950   3.969   0.972 -0.7042  0.8615 -0.1087
  758MOL0     C99931   7.971   4.092   1.037 -0.4384 -0.7307  0.2363
  758MOL0     O99932   7.889   4.192   1.050  0.4789 -0.3052 -0.2805
  758MOL0     C99933   7.748   4.177   1.009 -0.1867  0.1285 -1.1462
  758MOL0     C99934   7.698   4.320   1.028  0.4639 -0.5747 -0.6725
  758MOL0     C99935   7.549   4.339   1.005 -0.7930  0.8466 -1.2303
  758MOL0     C99936   7.466   4.246   1.091  0.0014  0.5049 -0.1802
  758MOL0     C99937   7.321   4.293   1.089 -0.1089 -0.8208  0.1128
  758MOL0     C99938   7.246   4.273   0.954 -0.0705  0.1460  0.3307
  758MOL0     C99939   7.096   4.308   0.973 -0.1259 -0.1129 -0.3873
  758MOL0     C99940   7.069   4.459   0.978  0.7710  0.5979  0.3808
  758MOL0     N99941   6.927   4.494   0.983 -0.2847  0.2292 -0.3702
  758MOL0     C99942   6.809   4.429   0.939 -0.0987 -0.4362  0.7646
  758MOL0     C99943   6.710   4.516   0.972  0.2013  0.1980  0.3639
  758MOL0     C99944   6.555   4.490   0.984  0.3288  1.1276  0.6583
  758MOL0     C99945   6.478   4.516   0.853 -1.0726  0.5603 -0.4518
  758MOL0     C99946   6.440   4.663   0.828 -0.4663  0.0007  0.8108
  758MOL0     C99947   6.323   4.708   0.929 -0.5243  0.2641 -0.9529
  758MOL0     O99948   6.248   4.808   0.859 -0.4259 -0.6312  0.9006
  758MOL0     C99949   6.129   4.851   0.904  0.2406  0.7342  0.0118
  758MOL0     C99950   6.069   4.952   0.831  0.3223 -0.6407 -0.0828
  758MOL0     C99951   5.951   5.008   0.874 -0.0947  0.2235  0.5633
  758MOL0     C99952   5.874   4.946   0.977 -0.5182  0.0614  0.2940
  758MOL0     C99953   5.737   5.003   1.010  0.8777  0.0426  0.7674
  758MOL0     O99954   5.705   5.116   0.935  0.1398 -0.4500 -0.2960
  758MOL0     C99955   5.579   5.170   0.969 -0.1011  1.1644  0.2626
  758MOL0     C99956   5.459   5.106   0.911 -0.5980  0.0395  0.2664
  758MOL0     C99957   5.335   5.154   0.932 -0.2386  0.1230  0.2781
  758MOL0     C99958   5.320   5.276   1.003  0.0346  0.4384 -0.1144
  758MOL0     O99959   5.193   5.321   1.020  0.1917  0.4173 -0.0147
  758MOL0     C99960   5.167   5.403   1.128  0.4708  0.4368  0.9229
  758MOL0     C99961   5.031   5.472   1.111 -0.4421 -1.2861 -0.6506
  758MOL0     C99962   5.023   5.564   0.989 -0.3002  0.5116 -0.2687
  758MOL0     C99963   4.891   5.638   0.980  0.2796 -1.2560 -0.4145
  758MOL0     C99964   4.882   5.712   0.846  0.2852  1.4068  0.3463
  758MOL0     C99965   4.760   5.806   0.839 -0.1504 -0.5075 -0.7784
  758MOL0     C99966   4.733   5.885   0.706 -0.4546 -0.0706 -0.2381
  758MOL0     C99967   4.716   5.784   0.585 -0.7359 -0.9024 -0.2912
  758MOL0    Cl99968   4.883   5.759   0.500  0.0383 -0.1936  0.0343
  758MOL0     C99969   5.439   5.342   1.056  0.2627 -0.7140  0.5818
  758MOL0     C99970   5.566   5.284   1.049 -0.1226  0.2831  0.9276
  758MOL0     O99971   5.663   4.950   1.095  0.0332 -0.0623 -0.8332
  758MOL0     C99972   5.933   4.833   1.051  0.6338 -0.2561 -0.7552
  758MOL0     C99973   6.056   4.781   1.014  0.4047 -0.3702  0.4907
  758MOL0     N99974   6.768   4.629   1.038  0.7632 -0.5726 -0.0971
  758MOL0     N99975   6.896   4.604   1.046  0.5223  0.1153 -0.2990
  758MOL0     C99976   8.104   4.121   1.084  0.0271  0.1635  0.9764
  758MOL0     C99977   8.213   4.041   1.047 -0.6571 -0.2290 -0.5998
  758MOL0     C99978   8.503   3.777   0.847  0.8694 -0.3666 -0.0354
  758MOL0     C99979   8.507   3.660   0.927  0.1220 -0.4111  0.4852
  758MOL0     C99980   8.617   3.589   0.940  0.2217  0.1917  0.0721
  758MOL0     C99981   8.720   3.604   0.848  0.6278 -0.7370  0.3892
  758MOL0     O99982   8.823   3.519   0.863 -1.1267  0.1836  1.1492
  758MOL0     C99983   8.938   3.539   0.782  0.2222 -0.5185 -0.0988
  758MOL0     C99984   9.039   3.425   0.803 -0.7549 -0.2035 -0.5352
  758MOL0     C99985   9.098   3.421   0.946  0.1916  0.1162  0.0380
  758MOL0     C99986   9.201   3.313   0.957  0.3697  0.1363 -0.0262
  758MOL0     C99987   9.145   3.180   0.946  0.3586 -0.4499 -0.5668
  758MOL0     C99988   9.098   3.072   0.913  0.5242 -0.3363 -0.6167
  758MOL0     C99989   8.704   3.707   0.744  0.3008 -0.6069 -1.0769
  758MOL0     C99990   8.601   3.798   0.756 -0.4739 -0.0924 -0.2101
  758MOL0     H99991   8.051   3.798   0.887  2.2448  0.9286 -1.4853
  758MOL0     H99992   7.850   3.937   0.947  0.2785 -1.8344 -0.9668
  758MOL0     H99993   7.702   4.106   1.077 -1.9794  0.8861 -1.5155
  758MOL0     H99994   7.735   4.148   0.904 -1.1041 -3.4622 -0.1724
  758MOL0     H99995   7.756   4.387   0.963 -2.1247  1.6527 -0.8335
  758MOL0     H99996   7.725   4.361   1.126  0.9176  1.2078 -1.5130
  758MOL0     H99997   7.538   4.322   0.897 -1.1442  1.2741 -1.2621
  758MOL0     H99998   7.524   4.445   1.017 -0.2142  0.8745 -0.1439
  758MOL0     H99999   7.473   4.144   1.050 -0.9146  1.0506 -1.7612
  758MOL0     H    0   7.515   4.244   1.189  2.7579  1.2949 -1.4512
  758MOL0     H    1   7.320   4.402   1.098  3.4600 -0.5848 -0.8490
  758MOL0     H    2   7.263   4.242   1.166 -0.4492 -1.5154 -0.5956
  758MOL0     H    3   7.269   4.169   0.930 -2.0327 -0.0789 -0.7769
  758MOL0     H    4   7.288   4.333   0.873  0.1190  2.3257  1.9297
  758MOL0     H    5   7.027   4.259   0.903 -1.1215  2.5967 -1.4122
  758MOL0     H    6   7.058   4.272   1.069 -0.6786 -0.3433 -0.6863
  758MOL0     H    7   7.108   4.516   0.893  3.3121  1.3694  1.9683
  758MOL0     H    8   7.106   4.494   1.074  0.8984 -0.3456  0.6836
  758MOL0     H    9   6.812   4.335   0.886  2.4096 -0.5849  1.0256
  758MOL0     H   10   6.501   4.541   1.065 -2.8806 -1.2534  0.2083
  758MOL0     H   11   6.546   4.382   0.999 -1.6107  1.5783  3.7100
  758MOL0     H   12   6.392   4.449   0.854 -2.3432  1.9952  3.7076
  758MOL0     H   13   6.542   4.491   0.768 -0.5093 -2.3184  0.7043
  758MOL0     H   14   6.528   4.725   0.846  1.6322 -2.9636  1.5549
  758MOL0     H   15   6.414   4.667   0.722  0.4024 -0.9491  0.5402
  758MOL0     H   16   6.357   4.741   1.027 -0.3345 -1.9541 -0.2129
  758MOL0     H   17   6.258   4.620   0.941 -0.2023  0.3735  2.6820
  758MOL0     H   18   6.127   5.006   0.757 -0.2554  3.4475  2.1641
  758MOL0     H   19   5.914   5.097   0.826  4.1217  1.7914 -0.2420
  758MOL0     H   20   5.473   5.015   0.854 -0.0513 -0.9040  1.8389
  758MOL0     H   21   5.252   5.096   0.892  0.7946 -0.8192 -0.5875
  758MOL0     H   22   5.242   5.483   1.131  0.1854  0.7951 -0.4970
  758MOL0     H   23   5.169   5.331   1.210 -2.4986 -2.0540 -0.9545
  758MOL0     H   24   5.001   5.534   1.196 -1.5703 -1.9247 -0.5593
  758MOL0     H   25   4.964   5.386   1.098  0.3804 -1.8618 -1.1634
  758MOL0     H   26   5.038   5.506   0.897  3.0421  1.4231 -0.4138
  758MOL0     H   27   5.106   5.635   0.988  1.5813 -1.5681 -1.2023
  758MOL0     H   28   4.802   5.577   0.995 -0.5930 -0.6268 -2.6530
  758MOL0     H   29   4.901   5.710   1.062 -2.0013 -1.1006 -0.2164
  758MOL0     H   30   4.895   5.648   0.758 -2.8027  2.9751 -1.4223
  758MOL0     H   31   4.973   5.773   0.836  0.7834  0.3165 -3.4851
  758MOL0     H   32   4.768   5.875   0.924  0.2707 -0.0829 -1.1546
  758MOL0     H   33   4.674   5.741   0.859  0.3621 -0.7764  0.6906
  758MOL0     H   34   4.641   5.939   0.729 -0.3539 -0.5493  1.4269
  758MOL0     H   35   4.816   5.952   0.681 -1.2372  0.6808 -0.8539
  758MOL0     H   36   4.646   5.830   0.516 -1.4281 -2.7323 -0.8739
  758MOL0     H   37   4.673   5.687   0.612 -0.3832 -1.0513 -0.2524
  758MOL0     H   38   5.432   5.442   1.097  0.1773 -0.2759 -0.4725
  758MOL0     H   39   5.655   5.333   1.088 -0.4631 -0.4989  2.7926
  758MOL0     H   40   5.895   4.801   1.147  0.7657 -0.9342 -0.9257
  758MOL0     H   41   6.106   4.708   1.077  0.6107 -0.4570  0.2264
  758MOL0     H   42   8.130   4.213   1.134 -0.6795  1.2551 -0.5865
  758MOL0     H   43   8.318   4.059   1.069 -0.3776 -2.1347 -0.1461
  758MOL0     H   44   8.424   3.650   0.996  1.0935  1.3377  2.0184
  758MOL0     H   45   8.632   3.513   1.017 -3.0522 -0.6062  0.0559
  758MOL0     H   46   8.987   3.636   0.799  0.8344 -0.8634  0.1422
  758MOL0     H   47   8.910   3.536   0.676  1.8397 -0.8047 -0.5489
  758MOL0     H   48   8.988   3.330   0.787  1.5653 -2.3462  3.2761
  758MOL0     H   49   9.117   3.435   0.728 -0.0655 -1.8319 -0.0832
  758MOL0     H   50   9.024   3.417   1.026  0.6092 -2.0080  0.3840
  758MOL0     H   51   9.145   3.520   0.943  2.2775 -0.7971  0.8784
  758MOL0     H   52   9.274   3.324   0.876  0.5462 -4.7381 -0.7798
  758MOL0     H   53   9.262   3.325   1.047  0.6505  1.5928 -0.3710
  758MOL0     H   54   9.051   2.977   0.896  0.3212 -0.3713  0.1075
  758MOL0     H   55   8.777   3.712   0.663  1.6042 -4.0670 -0.3079
  758MOL0     H   56   8.604   3.890   0.699  0.3439 -0.7041 -1.1922
  759MOL0     O   57  10.124   8.857  10.188  0.1186 -0.6052  0.6939
  759MOL0     C   58  10.166   8.778  10.269  0.0360  1.2374 -0.2273
  759MOL0     O   59  10.092   8.712  10.367  0.4383 -0.2661 -0.0626
  759MOL0     C   60   9.955   8.706  10.344 -0.4703 -1.0988 -0.5797
  759MOL0     C   61   9.920   8.613  10.236  0.4857 -0.8288  0.2529
  759MOL0     C   62   9.783   8.599  10.201 -0.2694 -0.4136  0.0938
  759MOL0     C   63   9.691   8.679  10.257 -0.2444 -0.4869  0.0181
  759MOL0     O   64   9.555   8.656  10.224  0.3171  0.2955 -0.1071
  759MOL0     C   65   9.457   8.719  10.301  0.5316  0.3049  0.9296
  759MOL0     C   66   9.319   8.711  10.232  1.6372  0.9624 -0.5423
  759MOL0     C   67   9.217   8.830  10.271  0.3693 -0.0331  0.1466
  759MOL0     C   68   9.090   8.799  10.187 -0.6206  0.4662  0.0004
  759MOL0     C   69   8.977   8.886  10.240  0.3440  0.0207 -1.3349
  759MOL0     C   70   8.864   8.891  10.141  0.1882  0.7009  0.0221
  759MOL0     C   71   8.728   8.925  10.210 -0.6540  0.9217  0.2808
  759MOL0     C   72   8.736   9.057  10.291 -1.2534  0.3479  0.1850
  759MOL0     N   73   8.609   9.100  10.340  0.5631 -0.1592 -0.1679
  759MOL0     C   74   8.556   9.063  10.465 -0.7448 -0.3100  0.2407
  759MOL0     C   75   8.444   9.135  10.484 -0.6572 -0.3859 -0.3059
  759MOL0     C   76   8.352   9.125  10.608 -0.4426  0.7427 -0.3904
  759MOL0     C   77   8.228   9.034  10.570 -0.8791 -0.1811 -0.7952
  759MOL0     C   78   8.138   8.982  10.684 -0.3040  0.2305 -0.3394
  759MOL0     C   79   8.061   9.102  10.738 -0.1276 -0.3020  0.8488
  759MOL0     O   80   7.954   9.052  10.824 -0.0791 -0.1473 -0.0447
  759MOL0     C   81   7.875   9.142  10.902  1.1527  0.3265  0.5837
  759MOL0     C   82   7.773   9.084  10.983 -0.5378 -0.0212 -0.2336
  759MOL0     C   83   7.693   9.167  11.066  0.1462  0.5007  0.1994
  759MOL0     C   84   7.722   9.301  11.073  0.2709  0.2328  1.0993
  759MOL0     C   85   7.621   9.380  11.150 -0.0212 -0.7684  0.3102
  759MOL0     O   86   7.500   9.325  11.166 -0.6719  0.2642 -0.0097
  759MOL0     C   87   7.407   9.395  11.231 -0.1083 -0.7134  1.1793
  759MOL0     C   88   7.401   9.383  11.369  0.2586  0.5557 -0.0714
  759MOL0     C   89   7.320   9.462  11.452  0.1975 -0.0635  0.3398
  759MOL0     C   90   7.228   9.548  11.394  0.3961  0.3223  0.9522
  759MOL0     O   91   7.128   9.614  11.461 -0.0839 -0.5643 -0.7608
  759MOL0     C   92   7.065   9.544  11.570 -0.2961  0.8665  0.8330
  759MOL0     C   93   7.096   9.584  11.716  0.0781 -0.3126 -0.7215
  759MOL0     C   94   7.033   9.481  11.812  0.0198 -0.7022 -0.3136
  759MOL0     C   95   6.894   9.432  11.778  0.1412  0.3331  0.6711
  759MOL0     C   96   6.825   9.327  11.862 -0.4267 -0.1121 -0.4149
  759MOL0     C   97   6.795   9.379  12.003 -0.1060 -0.4103 -0.8053
  759MOL0     C   98   6.726   9.273  12.085  0.0229  0.0310 -1.1603
  759MOL0     C   99   6.779   9.127  12.068 -0.0817 -0.2704  0.1158
  759MOL0    Cl  100   6.952   9.100  12.132  0.4312  0.0144  0.3153
  759MOL0     C  101   7.235   9.567  11.261 -0.4449  0.2692 -1.2193
  759MOL0     C  102   7.327   9.495  11.178 -0.4303 -0.8596 -0.3510
  759MOL0     O  103   7.650   9.494  11.182  0.6364  0.5716 -0.1391
  759MOL0     C  104   7.815   9.359  10.985  0.2921 -0.5153  0.2546
  759MOL0     C  105   7.888   9.274  10.902  1.0834 -0.8686  0.2607
  759MOL0     N  106   8.436   9.227  10.382  0.5282 -0.5940 -0.4800
  759MOL0     N  107   8.530   9.203  10.294  0.1382  0.1226 -0.5807
  759MOL0     C  108   9.734   8.770  10.350  0.3201  0.3741 -0.9906
  759MOL0     C  109   9.860   8.778  10.406 -0.0369 -0.5713 -1.3622
  759MOL0     C  110  10.315   8.774  10.296 -0.2263 -0.5540  0.3317
  759MOL0     C  111  10.399   8.885  10.262  0.2028 -0.9248  0.2859
  759MOL0     C  112  10.537   8.874  10.275  0.2457  0.0257 -1.1331
  759MOL0     C  113  10.589   8.747  10.314  0.0972 -0.6661  0.1088
  759MOL0     O  114  10.722   8.721  10.345 -1.1643 -0.2743 -0.0481
  759MOL0     C  115  10.814   8.836  10.346  0.1509  0.2749 -1.1451
  759MOL0     C  116  10.961   8.791  10.355  0.1452 -0.1888  0.0066
  759MOL0     C  117  11.024   8.696  10.248  0.1765  0.5767  0.7105
  759MOL0     C  118  11.159   8.632  10.287  0.3154  0.5330  0.3239
  759MOL0     C  119  11.246   8.619  10.172  0.2142 -1.1907  0.3162
  759MOL0     C  120  11.320   8.601  10.083  0.4427  0.2166  0.5370
  759MOL0     C  121  10.507   8.639  10.346  0.1736 -0.5703  0.2789
  759MOL0     C  122  10.368   8.654  10.351 -0.6728 -0.5420  0.0582
  759MOL0     H  123   9.993   8.551  10.184  0.5090 -2.1781  1.8080
  759MOL0     H  124   9.742   8.532  10.126  1.2851  0.2265 -1.4126
  759MOL0     H  125   9.486   8.823  10.315  0.2046  0.0527  4.2313
  759MOL0     H  126   9.461   8.678  10.403  1.2710 -0.9328  0.4217
  759MOL0     H  127   9.271   8.618  10.263 -0.1824  2.4592  1.5005
  759MOL0     H  128   9.323   8.708  10.123 -1.5811  0.3586 -0.7432
  759MOL0     H  129   9.252   8.931  10.249 -0.0756  0.2349  0.6417
  759MOL0     H  130   9.198   8.823  10.378  0.3460  0.7731  0.1967
  759MOL0     H  131   9.104   8.823  10.081  0.1001 -0.3692 -0.1121
  759MOL0     H  132   9.059   8.696  10.207 -1.6013  0.7941  0.2302
  759MOL0     H  133   9.017   8.984  10.266  0.4412 -0.7943  2.2452
  759MOL0     H  134   8.937   8.835  10.328 -2.7399  3.3196 -0.6107
  759MOL0     H  135   8.851   8.793  10.094 -0.9219 -0.3728  2.3956
  759MOL0     H  136   8.888   8.964  10.062 -0.0878 -1.1425 -1.8713
  759MOL0     H  137   8.659   8.942  10.126  0.8026  3.6869 -0.4765
  759MOL0     H  138   8.692   8.847  10.278 -2.5535  1.2624 -0.2744
  759MOL0     H  139   8.782   9.134  10.229 -1.9144 -1.0603 -2.1713
  759MOL0     H  140   8.799   9.038  10.378 -1.3690 -4.8095 -0.5340
  759MOL0     H  141   8.599   8.995  10.539  0.2271  2.9937  3.0179
  759MOL0     H  142   8.329   9.229  10.633  0.2828  0.7648  0.2174
  759MOL0     H  143   8.415   9.080  10.684  3.7104  4.9549 -0.8501
  759MOL0     H  144   8.263   8.941  10.523 -0.0960  0.0881 -0.7554
  759MOL0     H  145   8.173   9.088  10.492 -0.6319 -0.3190 -1.0703
  759MOL0     H  146   8.076   8.898  10.650  0.3798 -1.5726  2.4727
  759MOL0     H  147   8.207   8.939  10.757 -0.4639  1.6373  0.6813
  759MOL0     H  148   8.019   9.145  10.647  1.1630 -1.6564 -0.4400
  759MOL0     H  149   8.122   9.179  10.787 -1.8679  2.4252 -0.9997
  759MOL0     H  150   7.747   8.979  10.980 -2.0260  0.1852  2.4019
  759MOL0     H  151   7.620   9.114  11.127  1.8403 -1.4818  0.5997
  759MOL0     H  152   7.468   9.314  11.420  1.4182  0.9330 -1.0259
  759MOL0     H  153   7.310   9.427  11.555 -0.7024 -1.7032 -0.2670
  759MOL0     H  154   7.083   9.438  11.550 -3.0550  0.5155 -0.3004
  759MOL0     H  155   6.958   9.541  11.549 -0.1727 -1.0957  0.3079
  759MOL0     H  156   7.055   9.684  11.736 -0.4383 -0.2011 -2.2579
  759MOL0     H  157   7.202   9.599  11.737  0.5045 -1.6100 -1.8203
  759MOL0     H  158   7.044   9.537  11.906 -0.5453  1.3598 -1.4286
  759MOL0     H  159   7.096   9.392  11.825 -0.1465 -0.6443  1.0555
  759MOL0     H  160   6.830   9.519  11.764  1.3592  0.9659 -1.4154
  759MOL0     H  161   6.905   9.394  11.676  4.7554  1.5921  0.4976
  759MOL0     H  162   6.900   9.247  11.870 -0.8440 -0.5071 -0.4306
  759MOL0     H  163   6.736   9.291  11.810 -0.5575 -1.3370  0.6222
  759MOL0     H  164   6.742   9.474  11.999  2.1868  0.9966  0.6054
  759MOL0     H  165   6.893   9.396  12.047 -0.4111 -0.1356 -0.2352
  759MOL0     H  166   6.734   9.302  12.190 -1.4591  1.6845 -1.4607
  759MOL0     H  167   6.618   9.275  12.065 -0.6542  0.6112  2.0425
  759MOL0     H  168   6.759   9.087  11.968 -0.6644 -1.6730  0.7776
  759MOL0     H  169   6.713   9.063  12.126 -2.5895  0.5894 -1.6260
  759MOL0     H  170   7.170   9.630  11.202 -0.9667  0.2564 -0.6636
  759MOL0     H  171   7.357   9.523  11.078  2.8285  0.8188  0.9482
  759MOL0     H  172   7.818   9.468  10.985  0.3254 -0.4844 -1.4877
  759MOL0     H  173   7.970   9.320  10.848  1.9546 -1.3928  1.1154
  759MOL0     H  174   9.660   8.832  10.400 -0.8229  0.9170 -3.2139
  759MOL0     H  175   9.886   8.856  10.477  2.3070 -1.0548 -1.5854
  759MOL0     H  176  10.349   8.970  10.217  1.2471 -2.2056 -3.7631
  759MOL0     H  177  10.602   8.954  10.241 -1.4300  1.6697 -0.5708
  759MOL0     H  178  10.788   8.904  10.429 -1.2863 -2.0169  0.4042
  759MOL0     H  179  10.796   8.899  10.259 -1.6028 -0.6162 -1.4684
  759MOL0     H  180  11.016   8.886  10.354  2.9126 -1.6734 -0.5203
  759MOL0     H  181  10.972   8.744  10.454 -1.0499  2.3348  1.4336
  759MOL0     H  182  11.050   8.760  10.163 -0.7365 -1.2926 -1.0879
  759MOL0     H  183  10.948   8.626  10.212 -0.0574  1.0115  0.3485
  759MOL0     H  184  11.205   8.682  10.373  0.9644 -2.4731  1.8388
  759MOL0     H  185  11.139   8.530  10.320  0.2381  1.1727  2.3412
  759MOL0     H  186  11.392   8.607  10.004  0.9935  2.8475  1.1396
  759MOL0     H  187  10.557   8.544  10.363  0.9717 -0.0573  0.8265
  759MOL0     H  188  10.299   8.574  10.377 -1.5097  0.2983  0.4416
  760MOL0     O  189   8.928   1.990   9.039  0.1758 -0.2458 -0.2312
  760MOL0     C  190   8.913   2.071   9.129 -0.0693 -0.6303 -0.0372
  760MOL0     O  191   8.797   2.139   9.157  0.3373 -0.5082  0.4722
  760MOL0     C  192   8.698   2.127   9.059 -0.1487  0.5899  0.7672
  760MOL0     C  193   8.698   2.197   8.931 -0.1388  0.1656  0.7807
  760MOL0     C  194   8.599   2.171   8.831 -0.5302  0.0742 -0.6653
  760MOL0     C  195   8.497   2.092   8.866  0.8235  0.2340 -0.4073
  760MOL0     O  196   8.400   2.058   8.773 -0.4185  0.4363  0.2968
  760MOL0     C  197   8.283   2.130   8.798  0.1221 -0.3692  0.5147
  760MOL0     C  198   8.155   2.045   8.778 -0.2385  0.2746 -0.1469
  760MOL0     C  199   8.031   2.128   8.822 -0.8842 -0.0887 -0.6419
  760MOL0     C  200   7.918   2.030   8.849 -0.7099  0.5817 -0.6417
  760MOL0     C  201   7.796   2.090   8.916 -0.0158  0.5414  0.1580
  760MOL0     C  202   7.703   1.976   8.942 -0.7619 -0.5688  0.2610
  760MOL0     C  203   7.563   2.016   8.958 -0.0766  0.5203  0.3112
  760MOL0     C  204   7.491   2.060   8.823  0.2777 -0.2065 -0.7226
  760MOL0     N  205   7.343   2.040   8.833 -0.6381  0.4548 -0.7328
  760MOL0     C  206   7.271   1.924   8.820 -0.2849  0.1787 -0.3768
  760MOL0     C  207   7.146   1.953   8.867  0.6066  0.7672  0.0265
  760MOL0     C  208   7.035   1.853   8.857 -0.4583 -0.8118 -0.2559
  760MOL0     C  209   6.914   1.935   8.910  0.5009 -0.8984  1.0989
  760MOL0     C  210   6.780   1.863   8.917 -0.2933  0.0892  0.0583
  760MOL0     C  211   6.662   1.946   8.953 -0.2632 -0.2035 -0.2517
  760MOL0     O  212   6.546   1.875   8.941 -0.0937  0.3538 -0.6067
  760MOL0     C  213   6.431   1.923   9.005 -0.1549 -0.4333 -0.4015
  760MOL0     C  214   6.398   2.062   9.010  0.1095 -0.8237  0.0652
  760MOL0     C  215   6.282   2.097   9.080 -0.1902  0.2883  0.0967
  760MOL0     C  216   6.184   2.011   9.127  0.1395  1.5786 -0.4596
  760MOL0     C  217   6.053   2.052   9.193 -0.6646 -0.0170  0.3473
  760MOL0     O  218   6.015   2.174   9.172 -0.0706  0.4383 -0.2177
  760MOL0     C  219   5.901   2.208   9.236  0.3435  0.4767  0.7911
  760MOL0     C  220   5.780   2.181   9.175  0.4235  0.7772  0.1014
  760MOL0     C  221   5.652   2.215   9.241 -0.8573  0.3597  0.5162
  760MOL0     C  222   5.660   2.263   9.368 -0.6196 -0.5964  0.6846
  760MOL0     O  223   5.539   2.314   9.416 -0.0678  0.3245  0.1186
  760MOL0     C  224   5.527   2.338   9.559  1.0745  0.4747  0.4717
  760MOL0     C  225   5.385   2.374   9.605  0.3738 -0.0031  0.4275
  760MOL0     C  226   5.318   2.478   9.510 -0.3766  0.4707 -0.0893
  760MOL0     C  227   5.185   2.527   9.561 -0.1254 -0.2806 -0.3877
  760MOL0     C  228   5.072   2.446   9.486  0.2164  0.5776  0.4471
  760MOL0     C  229   4.936   2.440   9.558 -0.2901  0.1260  0.1745
  760MOL0     C  230   4.834   2.338   9.496 -0.3891 -0.5532  0.3939
  760MOL0     C  231   4.799   2.376   9.351  0.5226  0.9661 -1.2395
  760MOL0    Cl  232   4.710   2.540   9.358 -0.0083  0.3205 -0.3294
  760MOL0     C  233   5.788   2.299   9.425  0.1442 -0.3490  0.2207
  760MOL0     C  234   5.910   2.259   9.360  0.1794 -0.0802 -0.7052
  760MOL0     O  235   5.988   1.965   9.253  0.1113 -1.3974 -0.8578
  760MOL0     C  236   6.214   1.869   9.103  0.4732  0.1846  0.5115
  760MOL0     C  237   6.332   1.829   9.039  0.9284 -0.4670  0.1315
  760MOL0     N  238   7.145   2.083   8.904  0.4161 -1.5958 -0.1550
  760MOL0     N  239   7.262   2.134   8.881 -0.1758 -0.3841  0.4015
  760MOL0     C  240   8.501   2.011   8.982 -0.0248 -0.2866 -0.0913
  760MOL0     C  241   8.599   2.027   9.078 -0.9424 -0.2084 -0.7161
  760MOL0     C  242   9.025   2.065   9.229  0.5990  0.8932 -0.3187
  760MOL0     C  243   9.110   1.949   9.244 -0.4181  0.1941  0.0418
  760MOL0     C  244   9.230   1.963   9.319 -0.4851 -0.0973  0.3428
  760MOL0     C  245   9.256   2.068   9.403  0.2409 -0.0813  0.0182
  760MOL0     O  246   9.381   2.075   9.449 -0.1476 -0.8691  0.1206
  760MOL0     C  247   9.405   2.140   9.571 -0.4279 -0.1563  0.0240
  760MOL0     C  248   9.403   2.047   9.691 -0.0001 -0.7842 -0.1034
  760MOL0     C  249   9.496   1.926   9.683 -0.4838  0.1854 -0.2256
  760MOL0     C  250   9.484   1.853   9.820  0.2624 -0.1959  0.5076
  760MOL0     C  251   9.563   1.921   9.922  0.1854  0.9298 -0.4300
  760MOL0     C  252   9.635   1.972  10.008 -0.1149  0.4943  0.2283
  760MOL0     C  253   9.159   2.171   9.411 -0.5331  0.0268 -0.2372
  760MOL0     C  254   9.049   2.177   9.318  0.1558  0.0696 -0.4558
  760MOL0     H  255   8.772   2.276   8.927 -1.0406  1.0054  0.2124
  760MOL0     H  256   8.592   2.219   8.734 -0.7832 -0.7374 -1.0595
  760MOL0     H  257   8.265   2.217   8.734 -2.2275 -1.0761  0.1286
  760MOL0     H  258   8.284   2.165   8.902  3.1834  0.6105  0.2480
  760MOL0     H  259   8.164   1.957   8.843 -2.6595  0.4699  0.5662
  760MOL0     H  260   8.143   2.021   8.672  1.6390  1.0549 -0.5747
  760MOL0     H  261   8.000   2.195   8.742 -1.9448  1.1442  0.7288
  760MOL0     H  262   8.049   2.188   8.912  0.8253  0.4975 -1.3576
  760MOL0     H  263   7.894   1.971   8.760  1.0114 -1.3269  0.0588
  760MOL0     H  264   7.957   1.956   8.920 -0.3483  2.0447  0.7357
  760MOL0     H  265   7.739   2.162   8.855 -0.3298  2.4428  2.5566
  760MOL0     H  266   7.819   2.140   9.010  1.7943 -0.0624  0.0696
  760MOL0     H  267   7.757   1.937   9.028  1.4572  0.2052 -0.6965
  760MOL0     H  268   7.702   1.899   8.863 -0.5417  1.2700 -1.6305
  760MOL0     H  269   7.522   1.919   8.988 -3.7489  1.6095 -0.7370
  760MOL0     H  270   7.549   2.088   9.040 -2.6754  0.1772  0.2386
  760MOL0     H  271   7.534   2.004   8.740  1.0759 -0.1516 -0.3560
  760MOL0     H  272   7.501   2.167   8.802  3.1234 -0.2775 -0.1844
  760MOL0     H  273   7.325   1.835   8.789 -2.1962 -0.3952 -2.3586
  760MOL0     H  274   7.045   1.759   8.912  0.0731 -0.9345 -0.5579
  760MOL0     H  275   7.022   1.812   8.757  2.7729 -2.3197 -0.2008
  760MOL0     H  276   6.893   2.019   8.843 -0.4028 -0.3278  2.0744
  760MOL0     H  277   6.936   1.978   9.008  1.1923  1.2644  0.0656
  760MOL0     H  278   6.755   1.815   8.822 -1.7990 -1.6317  1.2577
  760MOL0     H  279   6.793   1.783   8.989  0.2221  1.0898  1.1038
  760MOL0     H  280   6.652   2.023   8.876 -0.4542  0.7449  0.6968
  760MOL0     H  281   6.671   1.989   9.054 -1.4176 -1.9978  0.6698
  760MOL0     H  282   6.462   2.137   8.964  0.6458 -2.0706 -1.2840
  760MOL0     H  283   6.264   2.204   9.091  2.0892  0.6365  1.2765
  760MOL0     H  284   5.768   2.140   9.075  2.2804  0.8175 -0.1662
  760MOL0     H  285   5.560   2.188   9.191  0.9646 -0.9869 -2.3873
  760MOL0     H  286   5.594   2.422   9.580 -0.3087  2.2011 -1.6461
  760MOL0     H  287   5.567   2.262   9.628  1.6764  1.9126  1.7722
  760MOL0     H  288   5.374   2.418   9.705  0.0748  1.5935 -0.2744
  760MOL0     H  289   5.330   2.280   9.606  0.3094 -0.0022 -0.8452
  760MOL0     H  290   5.321   2.433   9.410  2.1636 -0.1648  0.2019
  760MOL0     H  291   5.394   2.555   9.503  0.4354 -0.1048  1.7884
  760MOL0     H  292   5.169   2.521   9.669  1.4213 -0.6002 -0.1579
  760MOL0     H  293   5.183   2.635   9.544 -2.3339 -0.3742 -1.0392
  760MOL0     H  294   5.101   2.341   9.471  1.3553  0.6202  2.1343
  760MOL0     H  295   5.060   2.484   9.384  0.1841  0.9356  0.5833
  760MOL0     H  296   4.891   2.540   9.558 -0.4787  0.0628 -1.1216
  760MOL0     H  297   4.969   2.403   9.655  0.8131 -0.7894 -0.5104
  760MOL0     H  298   4.855   2.231   9.498 -3.4084 -1.2803 -0.9618
  760MOL0     H  299   4.742   2.349   9.555 -0.6282  0.0033 -0.0674
  760MOL0     H  300   4.725   2.305   9.314 -1.7123  3.6689 -2.3385
  760MOL0     H  301   4.884   2.379   9.281  0.3164 -0.2424 -1.5489
  760MOL0     H  302   5.797   2.355   9.517 -0.7957  1.5123 -0.7729
  760MOL0     H  303   6.005   2.292   9.400  0.4834  1.3004 -2.4399
  760MOL0     H  304   6.142   1.790   9.121 -1.0426  1.3402 -0.2287
  760MOL0     H  305   6.354   1.725   9.016 -1.1457 -1.1251  0.9183
  760MOL0     H  306   8.425   1.935   8.993  2.3490 -2.7753  0.1351
  760MOL0     H  307   8.593   1.974   9.172  0.1503  0.0471 -0.4837
  760MOL0     H  308   9.096   1.871   9.170  1.5965 -1.5899  1.4306
  760MOL0     H  309   9.305   1.885   9.310  0.0239  0.1097  2.1940
  760MOL0     H  310   9.336   2.223   9.591 -1.3464 -0.3929 -1.8434
  760MOL0     H  311   9.505   2.181   9.555 -0.0615 -0.7209  0.8579
  760MOL0     H  312   9.416   2.094   9.788 -3.0727 -2.6062  1.3374
  760MOL0     H  313   9.298   2.016   9.694 -0.4644  0.6249 -0.7715
  760MOL0     H  314   9.597   1.968   9.672  0.6672 -1.7068  2.1539
  760MOL0     H  315   9.466   1.861   9.601  1.8984 -1.5437  0.1617
  760MOL0     H  316   9.378   1.848   9.845 -1.0073  3.1727 -3.1241
  760MOL0     H  317   9.526   1.752   9.816  1.3137  0.0751  3.1004
  760MOL0     H  318   9.687   2.038  10.074 -1.0175 -0.9739  2.5113
  760MOL0     H  319   9.170   2.267   9.460 -0.1934  0.4574 -1.1280
  760MOL0     H  320   8.997   2.272   9.305  0.6228  0.4566  0.4047
  761MOL0     O  321   0.450  11.106   0.967 -0.9478 -0.7580  0.7014
  761MOL0     C  322   0.434  11.113   0.843 -0.1905 -0.4855 -0.1393
  761MOL0     O  323   0.329  11.062   0.777  0.3290  0.3283  0.4233
  761MOL0     C  324   0.225  10.992   0.847 -0.5632 -0.7909  0.0918
  761MOL0     C  325   0.258  10.891   0.939  0.4951  0.3897 -0.8453
  761MOL0     C  326   0.154  10.819   1.008 -0.2888 -0.1666 -0.3504
  761MOL0     C  327   0.026  10.850   0.981  0.7506  0.2617 -0.7775
  761MOL0     O  328  -0.071  10.787   1.060  0.3034 -0.8063  0.5789
  761MOL0     C  329  -0.197  10.761   0.989  0.2324  0.3584 -0.8124
  761MOL0     C  330  -0.279  10.650   1.054 -0.2008  0.5669  0.7701
  761MOL0     C  331  -0.269  10.640   1.210 -1.1213 -0.1107  0.5501
  761MOL0     C  332  -0.376  10.548   1.268  0.6657  0.4792 -0.0567
  761MOL0     C  333  -0.351  10.526   1.419 -0.7413 -0.7722  0.1930
  761MOL0     C  334  -0.400  10.395   1.467  0.1260 -0.7563  0.2112
  761MOL0     C  335  -0.296  10.289   1.512  0.1825 -0.8572  0.2544
  761MOL0     C  336  -0.235  10.219   1.383  1.0214  0.0145 -0.5626
  761MOL0     N  337  -0.119  10.278   1.330  0.1066  0.2714 -0.4861
  761MOL0     C  338  -0.008  10.308   1.402 -0.6038  0.4599 -0.0386
  761MOL0     C  339   0.083  10.344   1.307  1.6533  0.3286  0.9883
  761MOL0     C  340   0.227  10.373   1.330  0.2673  0.1560 -0.6508
  761MOL0     C  341   0.269  10.505   1.248  0.0532  0.0398 -0.8454
  761MOL0     C  342   0.419  10.492   1.240  0.1881  0.7353 -0.1791
  761MOL0     C  343   0.467  10.616   1.187 -0.1117  0.2862  0.0715
  761MOL0     O  344   0.612  10.601   1.198  0.5372  0.3712 -0.4934
  761MOL0     C  345   0.691  10.645   1.097  0.6890  0.1965  0.1981
  761MOL0     C  346   0.808  10.580   1.073 -0.4485  0.3570  0.5276
  761MOL0     C  347   0.893  10.634   0.973 -0.3408  1.0171 -0.2605
  761MOL0     C  348   0.878  10.757   0.913  0.1698 -0.9092  0.7008
  761MOL0     C  349   0.973  10.821   0.815  0.0226 -0.2464 -0.0539
  761MOL0     O  350   1.106  10.780   0.825  0.6164 -0.7786  0.0763
  761MOL0     C  351   1.201  10.817   0.730  0.3340 -0.0486  0.3906
  761MOL0     C  352   1.182  10.833   0.594  0.7009 -0.0380  0.6205
  761MOL0     C  353   1.291  10.850   0.507  0.8654  0.0848  1.0292
  761MOL0     C  354   1.416  10.861   0.551 -0.2808  0.2610 -0.8355
  761MOL0     O  355   1.532  10.886   0.480 -0.3297 -0.7745 -0.0905
  761MOL0     C  356   1.533  10.863   0.332  0.7909  0.0019  0.7585
  761MOL0     C  357   1.681  10.875   0.281  0.1206  0.1666 -0.4636
  761MOL0     C  358   1.772  10.757   0.325 -0.7243  0.5263 -0.2164
  761MOL0     C  359   1.914  10.771   0.267 -0.7689 -0.2769 -0.0329
  761MOL0     C  360   1.919  10.776   0.118  0.2168  0.2825  0.4923
  761MOL0     C  361   2.058  10.723   0.083 -0.4374  0.1314 -0.2022
  761MOL0     C  362   2.087  10.751  -0.057  0.7221  0.2788 -0.0402
  761MOL0     C  363   2.210  10.688  -0.111  0.4406 -0.0164 -0.7871
  761MOL0    Cl  364   2.180  10.509  -0.132 -0.1600 -0.0099 -0.3730
  761MOL0     C  365   1.443  10.838   0.694 -0.2168  0.0524  0.6102
  761MOL0     C  366   1.331  10.810   0.779  0.2207 -0.2694  0.4733
  761MOL0     O  367   0.917  10.879   0.721 -0.1604  0.4113 -0.0166
  761MOL0     C  368   0.747  10.813   0.933  0.1155  0.7944 -0.2767
  761MOL0     C  369   0.657  10.759   1.023 -0.4276  0.6469 -0.5610
  761MOL0     N  370   0.024  10.331   1.183  0.7315 -0.6548 -0.0178
  761MOL0     N  371  -0.090  10.291   1.198  0.1649  0.7252  0.5745
  761MOL0     C  372  -0.009  10.951   0.894 -0.2647 -0.0094 -0.1621
  761MOL0     C  373   0.091  11.019   0.822  0.7321  0.4396 -0.5046
  761MOL0     C  374   0.528  11.192   0.766 -0.5374  0.0755  0.0148
  761MOL0     C  375   0.663  11.174   0.798  0.1314  0.1368  0.1577
  761MOL0     C  376   0.759  11.233   0.718 -0.5236 -0.0797  0.2397
  761MOL0     C  377   0.714  11.314   0.607 -0.3112 -0.1554 -0.2420
  761MOL0     O  378   0.812  11.367   0.522  0.0961 -0.2542 -0.0678
  761MOL0     C  379   0.938  11.406   0.574 -0.3009  0.1996 -0.3799
  761MOL0     C  380   1.007  11.495   0.471 -0.5074 -0.0397  0.5172
  761MOL0     C  381   0.920  11.613   0.440  0.8353 -0.8660 -0.2598
  761MOL0     C  382   1.011  11.739   0.427  0.2086 -0.3979  0.5537
  761MOL0     C  383   1.049  11.790   0.557 -0.2675 -1.1123  0.2841
  761MOL0     C  384   1.073  11.849   0.659  0.8591 -1.2907  0.0113
  761MOL0     C  385   0.580  11.325   0.583  0.6196 -0.1237 -0.7605
  761MOL0     C  386   0.483  11.268   0.660  0.3824 -0.0787  0.3784
  761MOL0     H  387   0.363  10.867   0.956  1.5338  1.0089 -5.1822
  761MOL0     H  388   0.165  10.756   1.096 -1.3720  2.3143  1.6705
  761MOL0     H  389  -0.187  10.724   0.886 -1.3485 -0.6540 -0.6363
  761MOL0     H  390  -0.254  10.854   0.989 -0.9968 -0.3693  0.5156
  761MOL0     H  391  -0.238  10.554   1.021 -0.3338  0.6378  0.3969
  761MOL0     H  392  -0.381  10.656   1.015  0.7397  2.3289 -1.6901
  761MOL0     H  393  -0.298  10.741   1.240 -2.8322 -0.5881  0.5963
  761MOL0     H  394  -0.169  10.608   1.243 -1.5236 -0.0166  1.9138
  761MOL0     H  395  -0.476  10.588   1.252  0.7405  0.6099 -0.1989
  761MOL0     H  396  -0.353  10.458   1.210 -1.7356  0.1346 -0.5725
  761MOL0     H  397  -0.404  10.599   1.480  2.3306  1.0933  0.8419
  761MOL0     H  398  -0.244  10.537   1.440 -1.2890  1.0321  2.2777
  761MOL0     H  399  -0.467  10.347   1.395 -1.3201  1.7969 -0.2570
  761MOL0     H  400  -0.477  10.409   1.545 -1.3331 -3.1696 -0.6674
  761MOL0     H  401  -0.225  10.344   1.575 -0.7664  0.6117  0.1149
  761MOL0     H  402  -0.345  10.215   1.575  1.0669 -1.3367  0.3869
  761MOL0     H  403  -0.317  10.213   1.310  0.3057  3.1737 -0.1331
  761MOL0     H  404  -0.204  10.122   1.423  0.5682  0.3567  0.6897
  761MOL0     H  405   0.004  10.311   1.510  1.4576  1.3571 -0.2616
  761MOL0     H  406   0.291  10.295   1.288 -0.3674  0.0984 -1.5228
  761MOL0     H  407   0.233  10.394   1.438  0.5527  1.0606 -0.8331
  761MOL0     H  408   0.232  10.600   1.288 -3.6252 -2.1462  1.6430
  761MOL0     H  409   0.225  10.509   1.148 -0.0378 -0.2089 -0.8187
  761MOL0     H  410   0.455  10.478   1.343  1.2182 -1.5748 -0.7718
  761MOL0     H  411   0.451  10.401   1.188  1.9092  0.9263  0.4523
  761MOL0     H  412   0.428  10.702   1.242 -0.8013  0.0573 -0.0527
  761MOL0     H  413   0.437  10.618   1.081  0.5111 -0.0650 -0.1170
  761MOL0     H  414   0.826  10.488   1.128 -0.0437  1.2011  1.8515
  761MOL0     H  415   0.979  10.569   0.959 -0.1113  1.6734 -2.2088
  761MOL0     H  416   1.085  10.825   0.547  1.3309  1.6589 -1.0878
  761MOL0     H  417   1.270  10.837   0.401  1.1712 -1.6700  1.1539
  761MOL0     H  418   1.476  10.938   0.278 -1.3167  0.7126  3.7093
  761MOL0     H  419   1.491  10.763   0.314  0.9790 -0.2546  1.6686
  761MOL0     H  420   1.728  10.969   0.312  4.5190 -1.3409 -1.7786
  761MOL0     H  421   1.672  10.873   0.172  0.3666 -1.9377 -0.4793
  761MOL0     H  422   1.724  10.665   0.289 -1.3294  1.3961 -1.6851
  761MOL0     H  423   1.784  10.756   0.434  2.2076 -0.0223 -0.4781
  761MOL0     H  424   1.966  10.858   0.308  1.7098 -1.6563 -0.0725
  761MOL0     H  425   1.975  10.687   0.302  1.1398 -0.2085 -2.7987
  761MOL0     H  426   1.897  10.879   0.088  0.6077  1.1252  2.8244
  761MOL0     H  427   1.856  10.700   0.070 -0.6658  0.2796  1.6072
  761MOL0     H  428   2.067  10.616   0.103  0.5065  0.4738  1.4159
  761MOL0     H  429   2.118  10.784   0.151 -0.6431  1.5426 -1.2514
  761MOL0     H  430   2.001  10.728  -0.121  0.9821  0.7197 -0.5531
  761MOL0     H  431   2.094  10.860  -0.059 -4.2227  0.9047  2.0806
  761MOL0     H  432   2.293  10.699  -0.041 -2.7664 -1.7045  3.7720
  761MOL0     H  433   2.222  10.737  -0.208 -2.4027 -2.3893 -2.5307
  761MOL0     H  434   1.543  10.839   0.736  1.0071  0.7412 -2.1039
  761MOL0     H  435   1.350  10.797   0.885 -0.0733  1.2083  0.7364
  761MOL0     H  436   0.713  10.904   0.886  1.0670  0.7005 -1.1997
  761MOL0     H  437   0.558  10.801   1.030 -0.5386  0.1864  0.9793
  761MOL0     H  438  -0.108  10.992   0.876  0.1647  1.0170 -0.2413
  761MOL0     H  439   0.066  11.090   0.745  1.3931 -1.2629 -2.3936
  761MOL0     H  440   0.692  11.120   0.888 -2.4142 -0.2943  0.7834
  761MOL0     H  441   0.863  11.227   0.745 -0.9769  0.1039  2.1369
  761MOL0     H  442   1.003  11.320   0.593 -2.7416 -2.3943 -2.9680
  761MOL0     H  443   0.930  11.463   0.667  2.5991  2.3791 -1.3043
  761MOL0     H  444   1.103  11.534   0.506  0.2845 -0.7451 -0.7963
  761MOL0     H  445   1.037  11.432   0.388 -1.2252 -0.0830  0.2876
  761MOL0     H  446   0.861  11.632   0.530  2.0767  4.4715 -0.2956
  761MOL0     H  447   0.856  11.591   0.354 -1.1438 -0.9919  1.1623
  761MOL0     H  448   1.103  11.732   0.368  1.1119  1.3938  1.6758
  761MOL0     H  449   0.953  11.811   0.368  1.5411 -1.8536 -2.8001
  761MOL0     H  450   1.096  11.917   0.740 -0.6585  0.4803 -0.9651
  761MOL0     H  451   0.555  11.381   0.493 -2.1967  0.3792  0.2325
  761MOL0     H  452   0.376  11.270   0.642  0.1137  2.2483  1.7724
  762MOL0     O  453  10.567   6.748   4.808 -0.3960 -0.4964  0.3721
  762MOL0     C  454  10.657   6.795   4.738  0.5844  0.5396 -0.7055
  762MOL0     O  455  10.723   6.735   4.643  0.3304  0.9428 -0.0233
  762MOL0     C  456  10.666   6.609   4.595  0.8993  0.3950  0.2624
  762MOL0     C  457  10.627   6.502   4.673  0.8972  0.7852  0.1929
  762MOL0     C  458  10.595   6.380   4.603 -0.1770 -0.5653  0.1526
  762MOL0     C  459  10.596   6.369   4.462 -0.2338  0.1797  0.1311
  762MOL0     O  460  10.559   6.247   4.403 -0.4051 -0.6491  0.1969
  762MOL0     C  461  10.488   6.147   4.478  0.6649 -0.4241  0.1828
  762MOL0     C  462  10.459   6.041   4.369 -0.9680  0.1827 -0.2595
  762MOL0     C  463  10.392   6.074   4.231 -0.7073 -0.4753 -0.2111
  762MOL0     C  464  10.283   6.184   4.246 -0.3809 -0.1752  0.1526
  762MOL0     C  465  10.243   6.217   4.104 -0.0872 -0.3805  0.3041
  762MOL0     C  466  10.130   6.320   4.100 -0.0914  0.0366  0.9914
  762MOL0     C  467   9.996   6.270   4.159 -0.3465  0.5515 -0.9582
  762MOL0     C  468   9.891   6.370   4.113  0.1126 -0.6010  0.3210
  762MOL0     N  469   9.777   6.398   4.208  0.3401  0.0392  0.8574
  762MOL0     C  470   9.701   6.315   4.280 -0.2830 -0.7591 -0.2921
  762MOL0     C  471   9.628   6.393   4.371  0.4211 -0.2066  1.0436
  762MOL0     C  472   9.535   6.355   4.482 -0.0784  0.9058 -0.2189
  762MOL0     C  473   9.409   6.282   4.434 -1.0909  0.2394 -0.5680
  762MOL0     C  474   9.320   6.254   4.551 -0.0985  0.7810 -0.2792
  762MOL0     C  475   9.265   6.369   4.628 -0.9255 -0.6645 -0.2336
  762MOL0     O  476   9.182   6.446   4.538  0.4881  0.0291 -0.1036
  762MOL0     C  477   9.058   6.395   4.501 -1.1035 -0.7174  0.1741
  762MOL0     C  478   9.010   6.420   4.369  0.7424  0.4106  0.2580
  762MOL0     C  479   8.886   6.372   4.329 -0.1847 -0.4216  0.2798
  762MOL0     C  480   8.799   6.304   4.414  0.7257  0.5565  0.0194
  762MOL0     C  481   8.667   6.256   4.370 -0.1762 -0.2764 -0.5629
  762MOL0     O  482   8.603   6.187   4.463  0.6875  0.5544 -0.1470
  762MOL0     C  483   8.472   6.185   4.455 -0.0576 -0.4410 -0.2593
  762MOL0     C  484   8.421   6.059   4.466 -0.0395  0.5196 -0.1622
  762MOL0     C  485   8.278   6.046   4.468  0.0123  0.1077  0.4656
  762MOL0     C  486   8.194   6.147   4.501  0.5083 -1.7094  0.0717
  762MOL0     O  487   8.056   6.148   4.505  0.1994 -0.1767  0.4407
  762MOL0     C  488   8.003   6.027   4.570 -0.0363  0.7599 -0.7226
  762MOL0     C  489   7.857   6.053   4.571 -0.2149  0.7944 -0.4086
  762MOL0     C  490   7.783   5.962   4.666  0.1733  1.1043 -0.3342
  762MOL0     C  491   7.630   5.937   4.630  0.7837 -0.4361  0.4032
  762MOL0     C  492   7.562   5.829   4.712 -0.5389  0.0130  0.0525
  762MOL0     C  493   7.410   5.814   4.689 -0.2269 -0.0058  0.5563
  762MOL0     C  494   7.367   5.706   4.789  0.0910  0.0371  0.3771
  762MOL0     C  495   7.422   5.562   4.773  0.3138 -0.3235  0.0017
  762MOL0    Cl  496   7.332   5.466   4.889 -0.2136  0.0809 -0.3217
  762MOL0     C  497   8.242   6.278   4.491  0.9178  0.9236  0.6982
  762MOL0     C  498   8.383   6.299   4.485 -0.2136 -0.8511 -0.1721
  762MOL0     O  499   8.621   6.293   4.262 -0.3957  0.1747  0.1939
  762MOL0     C  500   8.840   6.289   4.550  0.0182  0.2649  0.2371
  762MOL0     C  501   8.969   6.328   4.589  0.6659  0.0745  0.4880
  762MOL0     N  502   9.649   6.530   4.340  0.1284  0.2586  0.3208
  762MOL0     N  503   9.741   6.522   4.250  0.0391  0.0327 -0.0571
  762MOL0     C  504  10.626   6.478   4.388  0.4739 -0.5597  0.1055
  762MOL0     C  505  10.656   6.598   4.459  0.1426 -0.4435  0.6597
  762MOL0     C  506  10.692   6.928   4.780 -0.5331  0.0092 -0.9254
  762MOL0     C  507  10.758   7.012   4.688  0.0608  0.3064 -0.7639
  762MOL0     C  508  10.798   7.146   4.720 -0.3741 -0.5179 -0.8357
  762MOL0     C  509  10.783   7.196   4.856  0.1554 -0.1718  0.5849
  762MOL0     O  510  10.827   7.324   4.872 -0.2050 -0.3755  0.0397
  762MOL0     C  511  10.826   7.375   5.002  0.4563 -0.2027  0.5229
  762MOL0     C  512  10.904   7.506   4.996  0.0007  0.7474 -0.6207
  762MOL0     C  513  10.959   7.558   5.134  0.1785  0.1897 -0.1855
  762MOL0     C  514  10.984   7.709   5.135  0.1766  0.8905  0.0277
  762MOL0     C  515  10.951   7.765   5.264 -0.5983 -0.6329  0.5309
  762MOL0     C  516  10.919   7.837   5.356  0.5101 -0.1245  0.3916
  762MOL0     C  517  10.720   7.117   4.958 -0.1032  0.4867  0.6397
  762MOL0     C  518  10.676   6.988   4.916 -0.2630 -0.1312 -0.4056
  762MOL0     H  519  10.622   6.514   4.781 -2.3795  0.0998  0.2292
  762MOL0     H  520  10.581   6.288   4.659  2.5397  0.0415  2.0358
  762MOL0     H  521  10.392   6.186   4.513 -0.4181 -2.0215 -0.9322
  762MOL0     H  522  10.553   6.108   4.557  3.0647  0.2500 -1.3505
  762MOL0     H  523  10.404   5.956   4.410 -2.3683  1.8425  1.4683
  762MOL0     H  524  10.559   6.003   4.343  0.2461  1.9318  1.5696
  762MOL0     H  525  10.354   5.988   4.175 -1.1489 -2.1604  2.5354
  762MOL0     H  526  10.473   6.121   4.174 -0.1840 -0.6286  0.3987
  762MOL0     H  527  10.198   6.143   4.302 -0.3442 -0.6085 -0.1045
  762MOL0     H  528  10.318   6.273   4.299  1.6215  1.3990 -3.4985
  762MOL0     H  529  10.217   6.125   4.050  1.0654 -1.4210  1.4357
  762MOL0     H  530  10.330   6.259   4.054 -0.6061  1.1787  0.6612
  762MOL0     H  531  10.115   6.327   3.992  1.9996  1.1880  0.7435
  762MOL0     H  532  10.138   6.423   4.136  0.6274  0.6282 -0.7836
  762MOL0     H  533   9.970   6.169   4.128 -0.6624  0.5898 -0.8195
  762MOL0     H  534   9.999   6.273   4.268 -0.7348  2.1918 -0.9721
  762MOL0     H  535   9.856   6.335   4.016  2.0103 -3.3837  0.5448
  762MOL0     H  536   9.937   6.468   4.092  0.6191 -0.7549  0.6850
  762MOL0     H  537   9.720   6.208   4.282  2.2166 -0.3790  1.9029
  762MOL0     H  538   9.517   6.442   4.546 -3.3431 -0.8801  1.5755
  762MOL0     H  539   9.593   6.286   4.544 -0.6976  1.1577  0.6588
  762MOL0     H  540   9.438   6.186   4.390  1.2131 -0.2063  1.7034
  762MOL0     H  541   9.365   6.355   4.365  1.5069  2.6789  0.1455
  762MOL0     H  542   9.238   6.199   4.505 -1.1360  1.6988  0.4490
  762MOL0     H  543   9.358   6.181   4.624 -1.4175 -0.2542 -0.5918
  762MOL0     H  544   9.346   6.438   4.656  1.3463 -3.1997 -0.1143
  762MOL0     H  545   9.213   6.347   4.721  0.0555  2.1728  1.1170
  762MOL0     H  546   9.071   6.465   4.292  0.8113 -1.7218 -1.0252
  762MOL0     H  547   8.855   6.392   4.227  0.8989 -2.4716 -0.5208
  762MOL0     H  548   8.472   5.963   4.461  0.4174  0.7894 -3.3372
  762MOL0     H  549   8.240   5.945   4.478 -1.5691  0.4812 -1.0918
  762MOL0     H  550   8.036   6.012   4.673 -1.1935 -1.6891 -0.6359
  762MOL0     H  551   8.012   5.932   4.516 -2.1968 -1.0863  1.9259
  762MOL0     H  552   7.805   6.045   4.475  0.0012 -0.0020 -0.4618
  762MOL0     H  553   7.844   6.153   4.614 -2.3274  0.6150 -0.5529
  762MOL0     H  554   7.789   5.996   4.770 -0.5912 -1.0929  0.4806
  762MOL0     H  555   7.828   5.863   4.660 -1.0248  0.4535  0.9044
  762MOL0     H  556   7.576   6.031   4.643  0.3093 -0.6268 -0.1415
  762MOL0     H  557   7.629   5.909   4.524  0.3189  0.1737  0.2433
  762MOL0     H  558   7.585   5.847   4.817  0.5265 -0.6085 -0.0581
  762MOL0     H  559   7.621   5.739   4.692  1.0989  0.3916  2.7429
  762MOL0     H  560   7.393   5.784   4.586 -0.7348  0.6583  0.4424
  762MOL0     H  561   7.354   5.906   4.704 -4.0351 -1.1249 -4.3819
  762MOL0     H  562   7.395   5.745   4.887  0.4819  1.3174 -0.2240
  762MOL0     H  563   7.260   5.685   4.796 -0.1144 -0.5810 -3.0231
  762MOL0     H  564   7.529   5.555   4.797  0.4113  1.4386  0.1965
  762MOL0     H  565   7.410   5.521   4.672  0.1290 -0.7622  0.1997
  762MOL0     H  566   8.175   6.360   4.511  1.3849  1.1903  1.2156
  762MOL0     H  567   8.416   6.402   4.477  0.7411 -1.2438 -1.6714
  762MOL0     H  568   8.778   6.229   4.616 -0.1064  0.7157  0.5388
  762MOL0     H  569   8.992   6.293   4.689 -1.9551  2.3129  2.0480
  762MOL0     H  570  10.649   6.473   4.282  0.4498  3.1001 -0.1866
  762MOL0     H  571  10.680   6.682   4.396  2.0491 -1.1439  0.3821
  762MOL0     H  572  10.789   6.983   4.588  3.4767 -0.8879  0.5239
  762MOL0     H  573  10.851   7.220   4.660 -2.3009  1.5714 -0.0858
  762MOL0     H  574  10.871   7.307   5.075 -1.5658 -0.4919  1.5887
  762MOL0     H  575  10.724   7.405   5.028 -0.7333  0.3097 -3.8496
  762MOL0     H  576  10.990   7.498   4.928 -0.3524 -0.1468 -0.9773
  762MOL0     H  577  10.835   7.575   4.947 -1.3351  0.8449  1.3096
  762MOL0     H  578  11.051   7.505   5.162  0.5777  1.0376  0.1435
  762MOL0     H  579  10.891   7.533   5.216  0.2792  1.6757  0.3824
  762MOL0     H  580  11.089   7.709   5.104  0.0879 -3.5112 -1.0499
  762MOL0     H  581  10.921   7.760   5.061 -0.7045  0.4207  0.4405
  762MOL0     H  582  10.901   7.874   5.455 -1.3793  1.5387 -0.4966
  762MOL0     H  583  10.707   7.152   5.059  0.2268 -1.1889  1.3037
  762MOL0     H  584  10.614   6.921   4.975 -0.5643 -0.8124 -1.4576
  763MOL0     O  585   4.041   9.584   5.243  0.0755  0.5520  0.3156
  763MOL0     C  586   3.980   9.526   5.332 -0.2663 -0.6047  0.0215
  763MOL0     O  587   4.033   9.436   5.424  0.1605  0.3378 -0.6309
  763MOL0     C  588   4.164   9.397   5.414 -0.4694  0.2638 -0.1171
  763MOL0     C  589   4.208   9.328   5.306 -0.1124  0.1840  0.1596
  763MOL0     C  590   4.341   9.285   5.311  0.5640 -0.3758 -0.3602
  763MOL0     C  591   4.421   9.305   5.430 -0.0081 -0.2145  0.4799
  763MOL0     O  592   4.545   9.263   5.416 -0.7371  0.3439 -0.2319
  763MOL0     C  593   4.604   9.183   5.521  0.3052 -0.1363  1.0166
  763MOL0     C  594   4.721   9.100   5.475  1.4218  0.8859 -0.5187
  763MOL0     C  595   4.760   8.993   5.577  0.3941 -0.4584 -0.0968
  763MOL0     C  596   4.886   8.914   5.524 -0.3414  0.3500  0.0739
  763MOL0     C  597   4.972   8.873   5.649 -0.0609  0.7337  0.3122
  763MOL0     C  598   5.075   8.975   5.685 -1.1026 -0.1421  0.0386
  763MOL0     C  599   5.153   8.918   5.803  0.1872  0.1308  0.1363
  763MOL0     C  600   5.277   8.993   5.845 -0.2862 -0.5570 -0.3084
  763MOL0     N  601   5.365   8.921   5.942  0.3749  0.2221 -0.4200
  763MOL0     C  602   5.336   8.882   6.069 -0.1577  0.3195  0.3720
  763MOL0     C  603   5.447   8.849   6.134 -0.0847  0.1590  0.0686
  763MOL0     C  604   5.461   8.796   6.277 -0.5353  0.4235  0.2165
  763MOL0     C  605   5.449   8.919   6.370  0.9649  0.6279 -0.2620
  763MOL0     C  606   5.412   8.867   6.510 -0.6356 -0.2377  0.1557
  763MOL0     C  607   5.403   8.970   6.621 -0.2707  0.3041  0.8107
  763MOL0     O  608   5.318   9.084   6.598  0.1061  0.9042  0.1273
  763MOL0     C  609   5.187   9.057   6.563  0.4452 -0.5219 -0.2806
  763MOL0     C  610   5.132   9.119   6.456  0.0039 -0.3781  0.2446
  763MOL0     C  611   4.995   9.106   6.414  0.0203 -0.3084 -0.4043
  763MOL0     C  612   4.911   9.020   6.491  1.1395  0.3068  0.7479
  763MOL0     C  613   4.765   9.000   6.452 -0.3696 -0.2672 -0.5303
  763MOL0     O  614   4.686   8.922   6.539 -0.0628  0.1587  0.1068
  763MOL0     C  615   4.553   8.916   6.514  0.6539 -0.1158  0.5326
  763MOL0     C  616   4.461   9.002   6.570 -0.4281  1.0351 -0.4785
  763MOL0     C  617   4.326   9.006   6.527  0.0901 -0.3563  0.1874
  763MOL0     C  618   4.285   8.925   6.418  0.2875  0.0760 -0.0150
  763MOL0     O  619   4.149   8.941   6.380 -0.5926  0.1460 -0.2496
  763MOL0     C  620   4.092   8.872   6.266  0.2722 -0.5017 -0.4312
  763MOL0     C  621   3.941   8.868   6.272 -0.6860  0.9634 -0.3940
  763MOL0     C  622   3.887   8.791   6.397 -0.1664  0.2606 -0.3397
  763MOL0     C  623   3.740   8.789   6.414 -0.1558 -0.3433  0.2784
  763MOL0     C  624   3.671   8.931   6.399 -0.4708  0.4341  0.2004
  763MOL0     C  625   3.521   8.921   6.437 -0.2707 -0.9020 -0.6774
  763MOL0     C  626   3.462   9.060   6.465  0.3324 -0.5023 -0.0793
  763MOL0     C  627   3.329   9.038   6.525  0.2933  0.2031 -0.5116
  763MOL0    Cl  628   3.231   9.187   6.476  0.3603  0.5747 -0.2005
  763MOL0     C  629   4.382   8.830   6.359  0.2112 -0.6082  0.0593
  763MOL0     C  630   4.515   8.830   6.405  0.0098 -0.3850 -0.2424
  763MOL0     O  631   4.730   9.067   6.359 -0.2235 -0.3022 -0.1493
  763MOL0     C  632   4.966   8.958   6.601  0.4018 -0.0280 -0.3175
  763MOL0     C  633   5.098   8.987   6.638 -0.4222 -0.2558  0.7932
  763MOL0     N  634   5.546   8.853   6.034  0.1373  0.6678 -0.4705
  763MOL0     N  635   5.500   8.885   5.921 -0.0577 -0.0354  0.4824
  763MOL0     C  636   4.368   9.365   5.537 -0.3004  0.0466  0.0542
  763MOL0     C  637   4.242   9.412   5.531 -1.0295  0.5717  0.1889
  763MOL0     C  638   3.843   9.570   5.342 -0.6270  0.0130 -0.3205
  763MOL0     C  639   3.779   9.569   5.467  1.2232  0.5513 -0.5421
  763MOL0     C  640   3.645   9.609   5.485 -0.1422  0.6011  0.0680
  763MOL0     C  641   3.576   9.648   5.370 -0.2098  0.9425 -0.5823
  763MOL0     O  642   3.447   9.689   5.379  0.7542 -0.1351  0.3244
  763MOL0     C  643   3.348   9.592   5.333  0.5199 -0.4244  1.2852
  763MOL0     C  644   3.358   9.469   5.419  0.4835  0.6817 -0.7771
  763MOL0     C  645   3.237   9.374   5.400  0.0150  0.5455  0.0402
  763MOL0     C  646   3.214   9.313   5.261  0.4690  0.4108  0.4375
  763MOL0     C  647   3.311   9.210   5.234  0.0107 -0.3029  0.1776
  763MOL0     C  648   3.390   9.124   5.210  0.1809 -0.4643  0.1445
  763MOL0     C  649   3.638   9.649   5.244  0.5200  1.6105 -0.0006
  763MOL0     C  650   3.770   9.615   5.231 -0.1934  0.1523  0.9764
  763MOL0     H  651   4.143   9.314   5.220 -2.4487  0.0963  1.8161
  763MOL0     H  652   4.397   9.235   5.233  0.4914 -0.3452 -0.4322
  763MOL0     H  653   4.531   9.107   5.551 -1.6125 -0.2008 -3.1788
  763MOL0     H  654   4.624   9.241   5.612 -1.8188 -2.1321  2.8859
  763MOL0     H  655   4.805   9.168   5.458  2.7195 -0.5508 -0.0753
  763MOL0     H  656   4.694   9.050   5.381  1.8210 -1.2843  0.4668
  763MOL0     H  657   4.680   8.923   5.605  2.3469 -1.4903  3.4343
  763MOL0     H  658   4.788   9.047   5.668  0.6941  1.2332 -1.1512
  763MOL0     H  659   4.845   8.821   5.484  1.1625 -2.3231  4.1191
  763MOL0     H  660   4.931   8.969   5.440 -0.8623  1.7149  0.6637
  763MOL0     H  661   5.025   8.783   5.616 -1.5516  1.0909 -3.6502
  763MOL0     H  662   4.912   8.850   5.737 -0.9599  2.9355  0.3286
  763MOL0     H  663   5.023   9.068   5.707 -2.1788 -1.0276  1.3648
  763MOL0     H  664   5.146   8.990   5.602  3.1504 -0.5839  3.2555
  763MOL0     H  665   5.084   8.912   5.888 -2.2999 -1.8772 -1.8865
  763MOL0     H  666   5.181   8.816   5.773  0.1149 -0.3072  1.4536
  763MOL0     H  667   5.243   9.083   5.896  0.1482 -1.4303  1.6372
  763MOL0     H  668   5.341   9.017   5.760  2.4696 -0.3329  1.6706
  763MOL0     H  669   5.234   8.881   6.105  0.0846 -0.6640  1.0645
  763MOL0     H  670   5.558   8.749   6.291  0.5420  2.6302  0.5646
  763MOL0     H  671   5.388   8.716   6.286  1.2344 -1.6336 -2.2374
  763MOL0     H  672   5.372   8.985   6.329  1.2494  0.6406 -0.7910
  763MOL0     H  673   5.546   8.968   6.366  1.3030 -0.0874 -1.4409
  763MOL0     H  674   5.313   8.821   6.501 -1.9182  2.4133 -0.1245
  763MOL0     H  675   5.485   8.791   6.540  0.2420  0.7796  0.6482
  763MOL0     H  676   5.504   9.009   6.638  0.5146 -0.5490 -1.6303
  763MOL0     H  677   5.372   8.919   6.713 -0.6600 -2.5500 -0.7800
  763MOL0     H  678   5.207   9.179   6.405 -2.4458  1.3707 -1.5537
  763MOL0     H  679   4.955   9.156   6.327 -1.0838 -0.6332 -0.0897
  763MOL0     H  680   4.485   9.075   6.647  1.8440 -1.2948  1.2109
  763MOL0     H  681   4.255   9.060   6.588  2.7132  0.4894  2.7732
  763MOL0     H  682   4.130   8.770   6.261 -1.4745 -1.4005  2.4851
  763MOL0     H  683   4.122   8.922   6.173  2.7244  2.6759  1.8235
  763MOL0     H  684   3.900   8.821   6.182 -3.2814 -2.8123  2.4170
  763MOL0     H  685   3.913   8.974   6.279  0.5900  1.1924  4.1661
  763MOL0     H  686   3.921   8.844   6.487 -0.3475  0.0508 -0.1467
  763MOL0     H  687   3.926   8.690   6.406 -1.5074 -0.1150  2.1810
  763MOL0     H  688   3.694   8.717   6.345 -1.8606  0.2559  0.7543
  763MOL0     H  689   3.714   8.740   6.508 -1.9074  1.8190  1.0086
  763MOL0     H  690   3.676   8.958   6.293 -1.5286  2.4306  0.5977
  763MOL0     H  691   3.725   9.002   6.462  1.5104  1.6813 -2.7142
  763MOL0     H  692   3.513   8.866   6.531 -2.2112 -0.6191 -0.6342
  763MOL0     H  693   3.463   8.860   6.368 -0.3601 -1.5712 -0.0102
  763MOL0     H  694   3.528   9.116   6.531 -1.4324  0.6445  0.7862
  763MOL0     H  695   3.459   9.105   6.366 -1.0552  2.9676  1.3860
  763MOL0     H  696   3.337   9.036   6.635 -1.7396 -0.2922 -0.3318
  763MOL0     H  697   3.284   8.946   6.486  0.9053 -0.0585 -0.6089
  763MOL0     H  698   4.355   8.774   6.270 -3.1979  0.5482  0.1986
  763MOL0     H  699   4.586   8.763   6.359  2.7335  1.5864  0.8386
  763MOL0     H  700   4.909   8.897   6.671 -1.9872  3.0404  0.6419
  763MOL0     H  701   5.141   8.947   6.729  0.6711 -1.6630 -0.2830
  763MOL0     H  702   4.431   9.368   5.626  1.4853 -4.2705 -0.7693
  763MOL0     H  703   4.194   9.462   5.614 -1.2852  0.0896  0.3384
  763MOL0     H  704   3.832   9.520   5.548 -0.8657  2.2184  2.0118
  763MOL0     H  705   3.605   9.605   5.586 -0.4990  0.7926 -0.0624
  763MOL0     H  706   3.351   9.564   5.227 -4.2179 -1.6268  1.2515
  763MOL0     H  707   3.251   9.641   5.342  0.1140 -0.5421 -1.4942
  763MOL0     H  708   3.456   9.422   5.410  0.3853  0.7603 -2.8352
  763MOL0     H  709   3.353   9.496   5.524 -0.9422  3.5748 -1.4768
  763MOL0     H  710   3.144   9.431   5.405 -0.6685 -0.3728 -1.4440
  763MOL0     H  711   3.245   9.296   5.476  2.1201  0.0903 -0.5945
  763MOL0     H  712   3.123   9.252   5.260  0.7793 -0.1000 -1.4366
  763MOL0     H  713   3.208   9.380   5.175 -1.1549 -0.1368  0.0819
  763MOL0     H  714   3.456   9.044   5.184  0.8563  1.0677 -3.4742
  763MOL0     H  715   3.576   9.687   5.163  1.9771  1.2170 -1.3729
  763MOL0     H  716   3.818   9.615   5.133  0.1424 -0.9391  1.1219
  764MOL0     O  717   4.262  10.584   1.847 -0.8493  0.5113  0.7274
  764MOL0     C  718   4.214  10.535   1.950  1.0878 -0.3145  0.3437
  764MOL0     O  719   4.078  10.508   1.975  0.9959 -0.4196  0.2830
  764MOL0     C  720   3.990  10.517   1.869  0.7652  0.2293 -0.9147
  764MOL0     C  721   3.924  10.637   1.843  0.6747  1.0840 -1.2764
  764MOL0     C  722   3.826  10.640   1.741 -0.2392 -0.6287  0.1710
  764MOL0     C  723   3.807  10.528   1.659  0.5025 -0.7839 -0.3017
  764MOL0     O  724   3.710  10.517   1.562 -0.2064 -0.8734 -0.7187
  764MOL0     C  725   3.650  10.640   1.522  0.7917  0.2739  0.0889
  764MOL0     C  726   3.543  10.596   1.421 -0.1097 -0.2277  0.8117
  764MOL0     C  727   3.602  10.553   1.287 -0.1686  0.2089 -0.7662
  764MOL0     C  728   3.486  10.489   1.205 -0.7093  0.5354  0.1084
  764MOL0     C  729   3.533  10.438   1.073  1.2566 -0.4774 -0.4648
  764MOL0     C  730   3.416  10.418   0.984  1.1596 -0.4338 -0.2726
  764MOL0     C  731   3.352  10.275   1.003  0.2060  0.3580 -0.1366
  764MOL0     C  732   3.250  10.269   0.897 -0.3899 -0.2245  0.4805
  764MOL0     N  733   3.124  10.335   0.932 -0.2464 -0.3076 -0.7819
  764MOL0     C  734   3.097  10.401   1.049 -0.2932  0.3250  0.2165
  764MOL0     C  735   2.964  10.421   1.046  0.2382 -0.6698 -0.0860
  764MOL0     C  736   2.876  10.495   1.140  0.7879  0.6115  1.3146
  764MOL0     C  737   2.727  10.436   1.141  0.2251 -1.1335 -0.0218
  764MOL0     C  738   2.626  10.493   1.243 -0.6996 -0.2721 -0.7815
  764MOL0     C  739   2.542  10.627   1.201 -0.3583  0.5604 -0.9202
  764MOL0     O  740   2.438  10.646   1.298 -0.2046  0.0816  0.4377
  764MOL0     C  741   2.306  10.604   1.277 -0.4422 -0.9852  0.6207
  764MOL0     C  742   2.262  10.517   1.179 -1.7146  0.6490  0.0001
  764MOL0     C  743   2.128  10.514   1.145  0.1532 -0.0795 -0.3225
  764MOL0     C  744   2.039  10.595   1.216  0.0388  1.2454  0.2732
  764MOL0     C  745   1.896  10.581   1.194  0.1020  0.8529 -0.2516
  764MOL0     O  746   1.821  10.690   1.245 -1.0067  0.5167 -0.2796
  764MOL0     C  747   1.689  10.709   1.222  0.5343  0.3906  0.3784
  764MOL0     C  748   1.627  10.797   1.313 -0.2018 -0.2527 -0.2481
  764MOL0     C  749   1.493  10.825   1.306  0.3317 -0.6428  0.7362
  764MOL0     C  750   1.412  10.762   1.207 -0.7162 -0.4420  0.4793
  764MOL0     O  751   1.280  10.784   1.204  0.5181  1.1176  0.2676
  764MOL0     C  752   1.196  10.678   1.155  0.4971  0.2437  0.5202
  764MOL0     C  753   1.207  10.539   1.231  0.7348 -0.9017  0.0851
  764MOL0     C  754   1.084  10.458   1.223 -1.0288 -0.4784 -0.3839
  764MOL0     C  755   1.099  10.325   1.306  0.0100 -0.4349  0.2047
  764MOL0     C  756   0.974  10.241   1.315  0.4373  0.3059 -0.0147
  764MOL0     C  757   0.924  10.200   1.183  0.1111  0.4107 -0.4111
  764MOL0     C  758   0.827  10.076   1.176 -0.3830 -0.3933  0.0289
  764MOL0     C  759   0.678  10.129   1.189  0.7690 -0.2596 -1.7852
  764MOL0    Cl  760   0.622  10.200   1.346 -0.9158 -0.6059 -0.3459
  764MOL0     C  761   1.478  10.691   1.113 -0.3525 -0.2767 -0.0338
  764MOL0     C  762   1.613  10.655   1.118  0.2233  1.2146 -0.0522
  764MOL0     O  763   1.858  10.484   1.120  0.1454 -0.1792 -0.1610
  764MOL0     C  764   2.091  10.685   1.317  0.9320  0.4317 -0.5448
  764MOL0     C  765   2.221  10.675   1.352  0.8451  0.4654 -0.3267
  764MOL0     N  766   2.909  10.365   0.928 -0.1928 -0.5818  0.0945
  764MOL0     N  767   3.011  10.313   0.865  0.9029  0.8924 -0.0470
  764MOL0     C  768   3.866  10.412   1.691  0.0174  0.4481 -0.4701
  764MOL0     C  769   3.964  10.400   1.789  0.6031 -0.9454 -0.9676
  764MOL0     C  770   4.306  10.493   2.049 -0.0369 -0.2984  0.1821
  764MOL0     C  771   4.296  10.369   2.112 -0.6414  0.0339  0.0222
  764MOL0     C  772   4.390  10.339   2.213  0.5216  0.0825  0.2375
  764MOL0     C  773   4.492  10.425   2.257 -0.3639 -0.3022  0.3038
  764MOL0     O  774   4.562  10.395   2.370 -0.3571 -0.3767  0.9416
  764MOL0     C  775   4.698  10.450   2.384 -0.1072 -0.5800  0.2953
  764MOL0     C  776   4.753  10.371   2.495  0.2029  1.1794 -0.1370
  764MOL0     C  777   4.782  10.218   2.459  0.3866  0.3339  1.0705
  764MOL0     C  778   4.905  10.194   2.371  0.5247 -0.8713  0.0539
  764MOL0     C  779   4.848  10.165   2.240  0.4171  1.2376  0.1294
  764MOL0     C  780   4.800  10.118   2.139  0.1387 -0.3237 -0.0184
  764MOL0     C  781   4.507  10.537   2.175  0.6413  0.5796 -0.0510
  764MOL0     C  782   4.417  10.574   2.076 -0.1471 -0.8519 -0.1770
  764MOL0     H  783   3.960  10.724   1.898  1.6485 -0.3496  0.4398
  764MOL0     H  784   3.768  10.732   1.736 -0.1632 -0.3496  2.8760
  764MOL0     H  785   3.725  10.701   1.471  1.2753 -0.8697 -0.5991
  764MOL0     H  786   3.599  10.692   1.604  0.5345 -1.9081  1.3988
  764MOL0     H  787   3.480  10.685   1.411  0.3974  0.1200  0.6628
  764MOL0     H  788   3.484  10.519   1.471 -2.2220  0.7220 -0.0804
  764MOL0     H  789   3.687  10.485   1.291 -0.3449  0.0012 -0.5197
  764MOL0     H  790   3.643  10.636   1.229  0.3825 -0.3855 -1.2428
  764MOL0     H  791   3.444  10.417   1.275 -5.0708  5.3148  3.1358
  764MOL0     H  792   3.410  10.566   1.192  0.2939  1.0941 -3.3765
  764MOL0     H  793   3.577  10.339   1.087 -0.8685 -1.4242 -0.1688
  764MOL0     H  794   3.605  10.515   1.042  0.6999  0.7672  1.1316
  764MOL0     H  795   3.460  10.413   0.884  3.6978 -1.4282  0.8204
  764MOL0     H  796   3.336  10.493   0.992  0.6043 -1.0699  0.1816
  764MOL0     H  797   3.428  10.198   0.995  0.9096  0.8804  1.1634
  764MOL0     H  798   3.305  10.268   1.102 -2.1691  1.6574 -1.0603
  764MOL0     H  799   3.235  10.164   0.872  1.1219 -0.1353 -0.9634
  764MOL0     H  800   3.285  10.305   0.800 -1.2393  1.1500  0.6548
  764MOL0     H  801   3.165  10.443   1.121 -1.9314  2.9840  0.3473
  764MOL0     H  802   2.880  10.605   1.135  0.1241  0.7231  2.7965
  764MOL0     H  803   2.926  10.475   1.235 -0.0843  0.5949  1.7813
  764MOL0     H  804   2.744  10.329   1.150 -0.2447 -1.1396  1.0561
  764MOL0     H  805   2.683  10.446   1.041  1.2465 -2.2599 -0.6037
  764MOL0     H  806   2.554  10.412   1.253 -1.0128 -0.5080 -3.9294
  764MOL0     H  807   2.681  10.516   1.334  2.4763 -0.8984 -2.3767
  764MOL0     H  808   2.501  10.611   1.100 -0.7784  1.1619 -0.8491
  764MOL0     H  809   2.607  10.715   1.191 -0.5091  0.7352 -0.3558
  764MOL0     H  810   2.336  10.453   1.131 -0.8738 -0.5112  2.6775
  764MOL0     H  811   2.100  10.445   1.066 -2.4498  1.4586 -0.8535
  764MOL0     H  812   1.677  10.853   1.391 -1.7947  2.5113 -1.0866
  764MOL0     H  813   1.441  10.891   1.375 -1.6313 -0.5297 -0.7456
  764MOL0     H  814   1.194  10.653   1.049 -0.6035  1.7068  0.1566
  764MOL0     H  815   1.093  10.712   1.170 -0.0333 -0.6256 -0.9489
  764MOL0     H  816   1.240  10.557   1.334  1.8771 -0.4243 -0.3444
  764MOL0     H  817   1.295  10.496   1.183  1.1302 -0.1889  0.1598
  764MOL0     H  818   1.078  10.426   1.119  2.6981 -1.0390 -0.5532
  764MOL0     H  819   0.997  10.519   1.249 -0.0059  0.1597  1.8157
  764MOL0     H  820   1.180  10.268   1.261  0.2132  0.6058 -0.7940
  764MOL0     H  821   1.121  10.357   1.409  0.4237  1.9731 -0.5607
  764MOL0     H  822   0.893  10.296   1.366  1.9821  1.6539  1.0891
  764MOL0     H  823   0.990  10.151   1.374 -2.9095 -0.9921 -0.8401
  764MOL0     H  824   1.014  10.185   1.123  1.1868  4.4133 -0.1053
  764MOL0     H  825   0.873  10.286   1.139 -0.1329  0.9019  0.8048
  764MOL0     H  826   0.836  10.026   1.079 -0.3735 -0.2173 -0.0625
  764MOL0     H  827   0.852  10.003   1.253  1.5552 -0.5542 -0.7055
  764MOL0     H  828   0.621  10.038   1.171  1.2492 -1.0437  0.3743
  764MOL0     H  829   0.654  10.209   1.118  0.0426  2.1125  0.9364
  764MOL0     H  830   1.423  10.634   1.039  2.5177 -0.7653 -1.9555
  764MOL0     H  831   1.651  10.584   1.045  1.5408  2.6050 -0.7576
  764MOL0     H  832   2.029  10.755   1.372 -0.1086 -0.9478  0.1376
  764MOL0     H  833   2.266  10.739   1.427  2.0905  0.9538 -1.4392
  764MOL0     H  834   3.833  10.318   1.648 -0.3130  0.6976 -0.7625
  764MOL0     H  835   4.017  10.307   1.811 -4.3009 -4.0907 -0.8895
  764MOL0     H  836   4.226  10.289   2.090  1.3848 -1.7851 -0.1376
  764MOL0     H  837   4.388  10.241   2.259  2.6936  0.5366  1.4561
  764MOL0     H  838   4.686  10.552   2.422 -1.3555 -0.2148 -0.9723
  764MOL0     H  839   4.756  10.448   2.291 -0.7924 -2.8306 -0.1341
  764MOL0     H  840   4.841  10.422   2.534  0.5570  1.0663 -0.7777
  764MOL0     H  841   4.673  10.381   2.569 -1.5693  2.1330 -2.0666
  764MOL0     H  842   4.690  10.176   2.419  0.4187 -1.0655  2.3662
  764MOL0     H  843   4.819  10.172   2.552  6.7801  1.1729 -0.5860
  764MOL0     H  844   4.974  10.278   2.371  2.2644 -2.2457  0.0306
  764MOL0     H  845   4.952  10.104   2.411  0.4967 -1.2890 -0.8206
  764MOL0     H  846   4.752  10.067   2.058  2.2570 -2.1015 -0.2306
  764MOL0     H  847   4.587  10.608   2.197 -0.9316  1.9249  1.6479
  764MOL0     H  848   4.428  10.658   2.008 -0.5044  0.2247  1.0327
  765MOL0     O  849   7.397   1.287   9.155 -0.3120  0.1874 -1.0544
  765MOL0     C  850   7.390   1.236   9.050  0.2033 -0.0364 -0.6664
  765MOL0     O  851   7.274   1.201   8.978  0.0906 -0.4064 -0.8737
  765MOL0     C  852   7.151   1.192   9.042  1.0274  1.4645  0.2131
  765MOL0     C  853   7.046   1.196   8.952  0.8173 -0.2205 -0.3717
  765MOL0     C  854   6.917   1.180   8.984 -1.1770  1.0221 -0.4567
  765MOL0     C  855   6.887   1.160   9.116  0.3421  0.2866  0.1030
  765MOL0     O  856   6.757   1.129   9.141 -0.2547  0.4703  1.0570
  765MOL0     C  857   6.731   1.013   9.227 -0.8369 -0.5054  0.1892
  765MOL0     C  858   6.634   0.932   9.139 -0.1259 -0.1000  0.2744
  765MOL0     C  859   6.487   0.977   9.142 -0.9120  0.0956  0.2927
  765MOL0     C  860   6.399   0.870   9.073  0.0265  0.4500 -1.1024
  765MOL0     C  861   6.247   0.885   9.103 -1.2258 -0.1182  0.0627
  765MOL0     C  862   6.165   0.765   9.048  0.0306  0.3448 -0.0393
  765MOL0     C  863   6.021   0.779   9.078  0.2215  0.1089 -0.5485
  765MOL0     C  864   5.943   0.664   9.018 -0.1605 -0.2263 -0.0642
  765MOL0     N  865   5.827   0.634   9.098 -0.0074  0.4637 -0.4961
  765MOL0     C  866   5.707   0.700   9.089 -0.1923 -0.5793  0.4331
  765MOL0     C  867   5.619   0.646   9.174 -0.0490 -1.0124  0.1343
  765MOL0     C  868   5.481   0.682   9.213 -0.3812  0.6104 -1.5491
  765MOL0     C  869   5.484   0.769   9.337 -0.4150  0.1706 -0.5622
  765MOL0     C  870   5.556   0.905   9.311  0.2902  0.0941 -0.5027
  765MOL0     C  871   5.473   1.028   9.347  0.1695 -0.1915 -0.4745
  765MOL0     O  872   5.433   1.013   9.484 -0.6896 -0.1391  0.3457
  765MOL0     C  873   5.344   1.107   9.529  0.1876  0.6976 -0.0421
  765MOL0     C  874   5.380   1.234   9.562 -1.2327  0.5101  0.1409
  765MOL0     C  875   5.286   1.333   9.599 -0.2004  0.3178 -0.6523
  765MOL0     C  876   5.146   1.294   9.599  0.0167 -0.7161  0.4931
  765MOL0     C  877   5.042   1.399   9.637  0.3853 -0.5881  0.1090
  765MOL0     O  878   4.913   1.346   9.633  0.2481 -0.0298 -0.6535
  765MOL0     C  879   4.806   1.433   9.588  0.3831  0.7071 -0.0453
  765MOL0     C  880   4.819   1.536   9.504  0.8268 -0.3198  0.0795
  765MOL0     C  881   4.706   1.617   9.458  0.1691 -0.4378  0.0263
  765MOL0     C  882   4.582   1.597   9.521  0.3684 -0.6270  0.5619
  765MOL0     O  883   4.482   1.687   9.494  0.5816  0.6686 -0.7498
  765MOL0     C  884   4.413   1.747   9.615 -0.1179 -0.2643  0.5569
  765MOL0     C  885   4.289   1.836   9.578 -0.7511 -0.0574 -0.6558
  765MOL0     C  886   4.173   1.757   9.515 -0.4384 -0.4336  0.1986
  765MOL0     C  887   4.205   1.681   9.389  0.7353  0.1824 -0.4690
  765MOL0     C  888   4.075   1.658   9.314 -0.5865  0.0035 -0.0850
  765MOL0     C  889   4.079   1.542   9.207  0.9311 -0.4238 -0.4008
  765MOL0     C  890   3.942   1.507   9.138  0.1968  0.2440  0.1563
  765MOL0     C  891   3.954   1.417   9.009 -0.0605  1.0469 -0.2904
  765MOL0    Cl  892   3.960   1.239   9.036 -0.6240  0.0739  0.3739
  765MOL0     C  893   4.567   1.488   9.606 -0.6640  0.2242 -0.5080
  765MOL0     C  894   4.672   1.405   9.638  0.2368  0.1031  0.1019
  765MOL0     O  895   5.067   1.512   9.656 -0.2001  0.3129 -0.4036
  765MOL0     C  896   5.099   1.163   9.562  0.3877 -0.4792  0.3497
  765MOL0     C  897   5.207   1.066   9.530 -0.3085 -0.3022  0.3638
  765MOL0     N  898   5.675   0.532   9.212 -0.8462  1.0895 -0.4671
  765MOL0     N  899   5.800   0.526   9.166  0.7258 -0.0917  0.4775
  765MOL0     C  900   6.986   1.144   9.212  0.1951 -0.5600 -0.0083
  765MOL0     C  901   7.127   1.162   9.175  0.5783 -0.1715  0.0594
  765MOL0     C  902   7.525   1.202   8.993 -0.9628  1.1746 -0.4306
  765MOL0     C  903   7.646   1.249   9.049 -0.5527 -0.5523 -0.3746
  765MOL0     C  904   7.774   1.206   9.001 -0.2328  0.0323 -0.3206
  765MOL0     C  905   7.782   1.113   8.895  0.6501  0.5424  0.0103
  765MOL0     O  906   7.905   1.073   8.854 -0.0348  0.1043 -0.2460
  765MOL0     C  907   7.912   0.955   8.779 -0.7388 -0.0970  0.1444
  765MOL0     C  908   7.895   0.832   8.862 -0.4241  0.2240 -1.1929
  765MOL0     C  909   8.004   0.816   8.972  0.3931  0.2683 -0.6220
  765MOL0     C  910   7.992   0.678   9.054 -1.2078 -0.5860  1.1172
  765MOL0     C  911   8.058   0.689   9.183  0.5165  0.1981  0.3586
  765MOL0     C  912   8.131   0.677   9.278 -0.1378  0.2330 -0.2475
  765MOL0     C  913   7.660   1.071   8.839  0.3201  0.1820  0.3050
  765MOL0     C  914   7.541   1.111   8.882  1.0964 -0.0567  0.0321
  765MOL0     H  915   7.064   1.209   8.846 -1.6739 -1.1077 -0.9709
  765MOL0     H  916   6.834   1.185   8.914 -2.8815  2.0962  1.5386
  765MOL0     H  917   6.695   1.056   9.321  0.6307  2.8176 -0.6352
  765MOL0     H  918   6.814   0.945   9.251  0.0105  0.1006 -0.9529
  765MOL0     H  919   6.649   0.826   9.162 -0.0062  0.0358  0.8283
  765MOL0     H  920   6.677   0.950   9.040  0.1084  1.0094  0.5679
  765MOL0     H  921   6.467   1.068   9.086 -0.1986 -0.9954 -1.8663
  765MOL0     H  922   6.464   0.995   9.248  0.0437  0.2057  0.4943
  765MOL0     H  923   6.418   0.872   8.965 -1.2371 -1.2290 -1.4175
  765MOL0     H  924   6.423   0.768   9.107 -0.9522 -0.4052 -2.8307
  765MOL0     H  925   6.207   0.979   9.064 -2.6906 -1.1033 -0.8998
  765MOL0     H  926   6.224   0.890   9.210 -3.4803  0.8749 -0.4152
  765MOL0     H  927   6.208   0.673   9.087  2.1373  1.2363 -0.1165
  765MOL0     H  928   6.180   0.754   8.941  0.1410 -1.4711  0.1357
  765MOL0     H  929   6.022   0.782   9.187 -0.8282  0.7117 -0.5404
  765MOL0     H  930   5.982   0.878   9.049 -0.2533 -0.2666 -1.2189
  765MOL0     H  931   6.006   0.577   9.033  0.9631  0.8915  2.2913
  765MOL0     H  932   5.922   0.667   8.911 -1.6210 -1.7914  0.1431
  765MOL0     H  933   5.683   0.779   9.019 -0.4169  0.9579  2.1527
  765MOL0     H  934   5.432   0.586   9.234 -1.0143  1.4730  1.3562
  765MOL0     H  935   5.427   0.733   9.132  2.3819  3.1433 -1.9531
  765MOL0     H  936   5.531   0.715   9.420  0.4304  0.7582 -0.6484
  765MOL0     H  937   5.385   0.804   9.368 -1.5626 -0.8194 -2.9082
  765MOL0     H  938   5.648   0.903   9.369 -1.6135 -0.5687  2.7878
  765MOL0     H  939   5.584   0.922   9.207 -1.4277  1.6893 -0.7526
  765MOL0     H  940   5.386   1.040   9.283 -0.7956  1.3780  1.0380
  765MOL0     H  941   5.539   1.114   9.335  0.7514 -0.2378  1.8436
  765MOL0     H  942   5.485   1.258   9.575 -1.6718  1.9512  1.5291
  765MOL0     H  943   5.317   1.432   9.631 -0.9565 -0.0363  1.3326
  765MOL0     H  944   4.917   1.549   9.460  2.0432 -0.9615  2.4371
  765MOL0     H  945   4.709   1.690   9.379 -3.4978 -0.6821 -0.5518
  765MOL0     H  946   4.482   1.811   9.670 -2.0049  0.8669  1.7125
  765MOL0     H  947   4.379   1.664   9.678  3.0800 -0.3726  2.3517
  765MOL0     H  948   4.327   1.907   9.504  1.9734  0.1116  0.7905
  765MOL0     H  949   4.253   1.873   9.674  0.6154 -2.8663  1.0489
  765MOL0     H  950   4.084   1.819   9.500  0.0564 -0.1901 -2.0873
  765MOL0     H  951   4.153   1.684   9.594  1.1191  0.1225  1.1644
  765MOL0     H  952   4.274   1.743   9.330  1.1700  1.0981  0.9621
  765MOL0     H  953   4.252   1.585   9.414 -0.7047 -0.4495 -0.1053
  765MOL0     H  954   4.036   1.753   9.276 -0.4126  0.7018  1.4082
  765MOL0     H  955   4.005   1.619   9.389  1.4716  0.5575  2.2452
  765MOL0     H  956   4.104   1.445   9.249 -2.9713 -2.9130 -3.0812
  765MOL0     H  957   4.156   1.565   9.133  2.3165 -2.1962  0.4340
  765MOL0     H  958   3.871   1.462   9.208 -1.2078 -1.6894 -2.3221
  765MOL0     H  959   3.896   1.601   9.106 -0.2556 -0.4099 -1.1907
  765MOL0     H  960   4.051   1.434   8.963 -0.4129  0.7622 -1.1511
  765MOL0     H  961   3.870   1.437   8.941  0.6925 -1.6527 -2.1838
  765MOL0     H  962   4.468   1.460   9.642 -0.8353  1.6768  0.2321
  765MOL0     H  963   4.640   1.328   9.707 -2.4637 -0.5823 -1.7469
  765MOL0     H  964   4.997   1.128   9.572  0.6478 -2.2953 -2.4176
  765MOL0     H  965   5.192   0.963   9.500 -1.0283 -0.1290  0.1135
  765MOL0     H  966   6.957   1.115   9.313  0.3058 -0.2053  0.1255
  765MOL0     H  967   7.206   1.149   9.248  0.4704  0.4626  0.2973
  765MOL0     H  968   7.647   1.321   9.130 -0.7241 -1.3904  0.3810
  765MOL0     H  969   7.863   1.244   9.049  0.5999 -0.8929 -1.0932
  765MOL0     H  970   8.001   0.962   8.715 -2.2616 -0.1952 -2.1021
  765MOL0     H  971   7.838   0.958   8.699  0.0968  1.3493 -0.6323
  765MOL0     H  972   7.806   0.849   8.923 -0.9579 -2.4498 -1.1441
  765MOL0     H  973   7.867   0.746   8.801 -0.1340 -0.0725 -0.9092
  765MOL0     H  974   7.999   0.908   9.032  0.3382  0.9971 -1.7210
  765MOL0     H  975   8.104   0.811   8.929  0.4698  0.6444 -0.4908
  765MOL0     H  976   7.888   0.651   9.071 -1.8606  1.1416  0.2035
  765MOL0     H  977   8.048   0.607   8.993 -0.3522  1.0868 -0.1456
  765MOL0     H  978   8.186   0.668   9.370  0.0333 -1.4899 -0.4781
  765MOL0     H  979   7.660   1.006   8.753 -2.4150 -2.1481  1.9030
  765MOL0     H  980   7.450   1.074   8.835  1.4132  1.7968 -2.1928
  766MOL0     O  981   2.942  11.115  11.050  0.3666 -0.4001  0.2510
  766MOL0     C  982   2.858  11.073  11.121  0.0187 -0.9981  0.5888
  766MOL0     O  983   2.877  11.018  11.251  0.0483 -0.2025 -0.2175
  766MOL0     C  984   3.012  11.002  11.285  0.2809  0.0395 -0.5069
  766MOL0     C  985   3.085  10.900  11.228  0.2044  0.6152  0.3492
  766MOL0     C  986   3.222  10.882  11.250 -0.6965 -0.3230 -0.9525
  766MOL0     C  987   3.290  10.976  11.334 -0.1771  1.3760 -0.2401
  766MOL0     O  988   3.424  10.974  11.370  0.1948  0.1391 -0.5304
  766MOL0     C  989   3.515  10.911  11.286 -0.8028  0.2927  0.4700
  766MOL0     C  990   3.659  10.957  11.296  0.4464  1.3150 -0.2834
  766MOL0     C  991   3.743  10.867  11.203 -0.8080 -0.2532  0.6681
  766MOL0     C  992   3.876  10.939  11.163  0.0364  0.7037 -0.1460
  766MOL0     C  993   3.969  10.960  11.288 -0.5325  0.6492  0.4236
  766MOL0     C  994   4.094  11.038  11.249 -0.1178  0.5984  0.1710
  766MOL0     C  995   4.176  11.080  11.382 -0.5067 -0.4844  0.0781
  766MOL0     C  996   4.303  11.159  11.345  0.1802  0.8538  0.0703
  766MOL0     N  997   4.283  11.298  11.314  1.2048 -0.6820 -0.1397
  766MOL0     C  998   4.230  11.354  11.200 -1.0145  0.5551 -0.0786
  766MOL0     C  999   4.244  11.482  11.208 -0.1914  0.2513  0.0778
  766MOL0     C 1000   4.197  11.577  11.102  0.4557 -0.2291 -0.1176
  766MOL0     C 1001   4.046  11.605  11.107 -0.2368 -0.4936  0.0315
  766MOL0     C 1002   4.008  11.652  11.247 -0.5027 -0.0062  0.2654
  766MOL0     C 1003   3.850  11.666  11.264  0.0562  0.3192 -0.3132
  766MOL0     O 1004   3.819  11.803  11.228 -0.0366  0.1451 -0.8046
  766MOL0     C 1005   3.695  11.847  11.246  0.4216 -0.5787  0.5174
  766MOL0     C 1006   3.599  11.764  11.316 -1.1925 -0.7669  0.7490
  766MOL0     C 1007   3.476  11.822  11.329 -0.1698  0.8053  0.2039
  766MOL0     C 1008   3.443  11.955  11.286  0.1123 -0.4821 -0.1802
  766MOL0     C 1009   3.303  12.006  11.302 -0.8014  0.2053 -0.0132
  766MOL0     O 1010   3.205  11.926  11.364 -0.0375 -0.5482  0.1825
  766MOL0     C 1011   3.071  11.974  11.371  0.0053 -0.6749 -0.7922
  766MOL0     C 1012   2.968  11.879  11.365 -0.5921 -0.3403 -0.0880
  766MOL0     C 1013   2.839  11.913  11.357  0.2206  0.1341 -1.1576
  766MOL0     C 1014   2.795  12.046  11.370 -0.3680 -1.2056  0.1636
  766MOL0     O 1015   2.670  12.096  11.377 -0.0412 -0.0301  0.2233
  766MOL0     C 1016   2.569  12.011  11.317 -0.1643  0.2426  0.2201
  766MOL0     C 1017   2.453  12.107  11.302 -0.2649 -0.7978  1.0113
  766MOL0     C 1018   2.328  12.033  11.256  0.0529  0.1425  0.0933
  766MOL0     C 1019   2.343  11.936  11.132  0.6371  0.0787 -0.4583
  766MOL0     C 1020   2.217  11.875  11.096  0.8285 -0.1856  0.8144
  766MOL0     C 1021   2.237  11.787  10.970 -0.4325  0.3928 -0.2632
  766MOL0     C 1022   2.102  11.756  10.904 -0.1568 -0.2052  0.2081
  766MOL0     C 1023   2.097  11.639  10.817 -1.1875  0.2413  0.2977
  766MOL0    Cl 1024   2.125  11.494  10.915  0.3412 -0.2881  0.2490
  766MOL0     C 1025   2.898  12.143  11.396 -0.4884 -1.0210  0.5543
  766MOL0     C 1026   3.040  12.107  11.407  1.1292 -0.4114  0.6995
  766MOL0     O 1027   3.280  12.106  11.236  0.4396  0.0089 -0.2171
  766MOL0     C 1028   3.544  12.037  11.218  0.8734  0.2735 -0.6933
  766MOL0     C 1029   3.667  11.979  11.205 -0.2873  0.7715  0.0709
  766MOL0     N 1030   4.296  11.513  11.332 -0.2734  0.6118 -0.5648
  766MOL0     N 1031   4.314  11.402  11.396 -0.2970 -0.3117 -0.6760
  766MOL0     C 1032   3.215  11.076  11.404  0.1614 -0.0979  0.3844
  766MOL0     C 1033   3.077  11.084  11.378 -0.3928 -0.5471 -0.0539
  766MOL0     C 1034   2.713  11.084  11.091  0.2772 -0.9151 -0.3409
  766MOL0     C 1035   2.611  11.029  11.176 -0.2684  0.6930 -0.0280
  766MOL0     C 1036   2.474  11.037  11.161 -0.0690 -0.1550 -0.6640
  766MOL0     C 1037   2.429  11.085  11.040  0.2508 -0.9663 -0.2271
  766MOL0     O 1038   2.284  11.079  11.014 -0.1800  0.1112 -0.0165
  766MOL0     C 1039   2.217  11.132  10.901 -0.8654 -1.2214  0.3098
  766MOL0     C 1040   2.236  11.038  10.783 -0.6734 -0.1438  0.4948
  766MOL0     C 1041   2.183  10.893  10.793  0.2282  0.4119  0.4812
  766MOL0     C 1042   2.033  10.887  10.832 -0.5615 -0.6256 -0.2348
  766MOL0     C 1043   1.946  10.966  10.745 -0.0093  0.1060  0.9049
  766MOL0     C 1044   1.880  11.018  10.660  0.2187  0.3986 -0.3078
  766MOL0     C 1045   2.520  11.151  10.952  0.9982 -0.3465 -0.2011
  766MOL0     C 1046   2.656  11.150  10.971  0.1302  0.3185 -0.2888
  766MOL0     H 1047   3.034  10.828  11.164  1.1771 -0.3263  0.6067
  766MOL0     H 1048   3.273  10.792  11.218 -2.9378 -0.8421 -3.4324
  766MOL0     H 1049   3.501  10.930  11.179  1.4938 -3.7915 -0.7814
  766MOL0     H 1050   3.505  10.802  11.298  0.1284  0.3671  2.2190
  766MOL0     H 1051   3.682  10.922  11.397 -1.1089 -2.7309 -1.1001
  766MOL0     H 1052   3.668  11.064  11.277  0.9383  1.6831  1.7345
  766MOL0     H 1053   3.689  10.862  11.108 -1.4042  0.7460  0.9375
  766MOL0     H 1054   3.749  10.766  11.244  2.1077 -0.7777 -0.8246
  766MOL0     H 1055   3.934  10.872  11.098  1.8382 -0.2616  2.2983
  766MOL0     H 1056   3.849  11.032  11.111 -0.1314  0.2109 -0.9633
  766MOL0     H 1057   4.000  10.863  11.326  0.8588  1.2825  0.9856
  766MOL0     H 1058   3.914  10.995  11.376 -3.8637 -2.6221 -0.1435
  766MOL0     H 1059   4.072  11.132  11.198 -0.7772  0.6312  0.5062
  766MOL0     H 1060   4.160  10.984  11.181  2.7635  2.7706  0.9952
  766MOL0     H 1061   4.117  11.139  11.453 -0.7591 -0.0209 -0.5090
  766MOL0     H 1062   4.204  10.986  11.430 -1.3446 -0.8420 -0.1119
  766MOL0     H 1063   4.355  11.111  11.261 -2.0478  1.6802 -1.8831
  766MOL0     H 1064   4.371  11.159  11.431 -1.7690  1.4549  1.6971
  766MOL0     H 1065   4.198  11.298  11.112 -0.0893 -0.3852  0.1602
  766MOL0     H 1066   4.221  11.539  11.003  0.4511 -2.6279  0.7239
  766MOL0     H 1067   4.260  11.666  11.110  2.8807 -1.9192  0.5180
  766MOL0     H 1068   3.992  11.514  11.080  1.4178 -1.7294  0.7414
  766MOL0     H 1069   4.035  11.681  11.029  3.1319 -0.4012 -0.5098
  766MOL0     H 1070   4.042  11.575  11.316 -0.3747  0.4487  0.7161
  766MOL0     H 1071   4.068  11.739  11.276  0.6233  0.0938 -2.1131
  766MOL0     H 1072   3.827  11.658  11.371  0.2144 -3.1210 -0.4101
  766MOL0     H 1073   3.796  11.586  11.213  0.1674 -0.2045  0.3657
  766MOL0     H 1074   3.611  11.658  11.336  0.7184 -0.8002 -0.3217
  766MOL0     H 1075   3.408  11.763  11.389 -1.2075  1.8006  0.0218
  766MOL0     H 1076   2.997  11.776  11.351  1.3193  0.1172  0.2039
  766MOL0     H 1077   2.760  11.839  11.361 -0.1536  0.5724 -0.0242
  766MOL0     H 1078   2.539  11.931  11.386 -1.8334 -0.5711 -1.3610
  766MOL0     H 1079   2.589  11.979  11.215 -2.6676  1.8882 -0.8935
  766MOL0     H 1080   2.478  12.177  11.221 -0.1293 -0.8815  0.9801
  766MOL0     H 1081   2.418  12.166  11.387 -2.1081 -0.1332 -0.1631
  766MOL0     H 1082   2.258  12.112  11.226  0.5284 -0.6115 -3.4651
  766MOL0     H 1083   2.292  11.976  11.341  0.0122 -0.0800 -0.0727
  766MOL0     H 1084   2.389  11.995  11.051 -0.2062  1.6870  0.1794
  766MOL0     H 1085   2.412  11.855  11.156 -0.2087 -0.4107  0.3262
  766MOL0     H 1086   2.151  11.961  11.080  0.0257 -0.3451  2.9231
  766MOL0     H 1087   2.157  11.823  11.171  2.0011 -1.0334  1.1793
  766MOL0     H 1088   2.287  11.700  11.015  1.6939  2.7581  2.3639
  766MOL0     H 1089   2.305  11.833  10.898 -1.5565 -1.9885 -3.0505
  766MOL0     H 1090   2.033  11.726  10.983 -1.1250 -0.7604 -0.8168
  766MOL0     H 1091   2.061  11.843  10.852  1.1496 -0.8253 -1.9601
  766MOL0     H 1092   2.168  11.649  10.735 -0.3876 -1.6051  0.7280
  766MOL0     H 1093   1.999  11.632  10.768 -1.5840 -0.4181  1.1679
  766MOL0     H 1094   2.863  12.246  11.394  0.2754 -0.7304 -1.7908
  766MOL0     H 1095   3.109  12.188  11.429  0.9079 -0.1225  0.3422
  766MOL0     H 1096   3.527  12.138  11.182  2.5784 -0.5043 -4.0602
  766MOL0     H 1097   3.742  12.032  11.147  0.8489 -1.1808 -0.3483
  766MOL0     H 1098   3.257  11.138  11.482  1.0156 -2.1055  1.5911
  766MOL0     H 1099   3.016  11.153  11.435 -0.5336 -1.1122  0.4894
  766MOL0     H 1100   2.646  10.973  11.262  2.1270 -0.0840 -1.4099
  766MOL0     H 1101   2.412  10.984  11.233 -0.9037  2.2220  0.4679
  766MOL0     H 1102   2.249  11.233  10.875 -2.0996 -0.7095  0.6843
  766MOL0     H 1103   2.110  11.155  10.910 -1.1250 -1.3210 -1.9681
  766MOL0     H 1104   2.181  11.077  10.697  2.7012 -1.0107 -2.2603
  766MOL0     H 1105   2.341  11.036  10.753 -1.5638 -2.3112 -2.9924
  766MOL0     H 1106   2.239  10.844  10.873  0.0195  1.8783  1.5669
  766MOL0     H 1107   2.197  10.846  10.695 -2.1358 -0.6247  0.5781
  766MOL0     H 1108   2.006  10.781  10.824 -3.5612  0.0856 -0.6394
  766MOL0     H 1109   2.009  10.922  10.933  1.6701  2.1145 -0.5190
  766MOL0     H 1110   1.824  11.042  10.572  1.2970 -0.4518 -1.2471
  766MOL0     H 1111   2.477  11.208  10.870  1.7846  0.8889  0.2136
  766MOL0     H 1112   2.712  11.199  10.892 -1.2870 -1.0674 -2.2228
  767MOL0     O 1113   5.419   5.750   9.087 -0.7679 -0.6287  0.3766
  767MOL0     C 1114   5.442   5.706   8.976  0.7549 -0.0979  0.1432
  767MOL0     O 1115   5.564   5.697   8.909  0.6071  0.2933 -0.9233
  767MOL0     C 1116   5.683   5.730   8.965  0.5539  0.1390 -0.6172
  767MOL0     C 1117   5.711   5.724   9.110 -0.3023  0.4906 -0.0652
  767MOL0     C 1118   5.836   5.756   9.159  0.3678  0.0764  0.1814
  767MOL0     C 1119   5.949   5.769   9.072 -0.0508 -0.1057 -0.5075
  767MOL0     O 1120   6.073   5.782   9.121  0.1265 -0.8395  0.2065
  767MOL0     C 1121   6.162   5.874   9.045  0.1656  0.1712  0.4712
  767MOL0     C 1122   6.306   5.852   9.093  0.1135  0.5312  0.0380
  767MOL0     C 1123   6.404   5.934   9.000  0.7280 -0.4103  0.9343
  767MOL0     C 1124   6.542   5.888   9.041  0.2279 -0.4654  1.1489
  767MOL0     C 1125   6.609   5.962   9.155  0.3109  0.3128 -0.9233
  767MOL0     C 1126   6.753   5.938   9.147 -0.4781  0.0741  0.1091
  767MOL0     C 1127   6.831   5.994   9.255  0.5795 -1.3352  0.2345
  767MOL0     C 1128   6.981   5.954   9.249 -0.6807  0.3479 -0.4490
  767MOL0     N 1129   7.062   6.004   9.360  0.0939 -0.6047 -0.0621
  767MOL0     C 1130   7.040   5.995   9.499  0.7766 -0.2957 -1.5442
  767MOL0     C 1131   7.150   6.047   9.556  0.7984  1.0072  0.1636
  767MOL0     C 1132   7.186   6.037   9.704  0.1667  0.1060 -0.1950
  767MOL0     C 1133   7.071   6.089   9.782  0.0832 -0.1526 -0.3117
  767MOL0     C 1134   7.032   6.225   9.741  0.3631  0.4077 -0.1236
  767MOL0     C 1135   6.909   6.286   9.793 -0.3319 -0.5207  0.0688
  767MOL0     O 1136   6.785   6.229   9.753  0.3155 -0.6883  0.9390
  767MOL0     C 1137   6.665   6.291   9.768  0.4532  1.1112 -0.2207
  767MOL0     C 1138   6.551   6.219   9.727 -0.6783  0.0935 -0.3263
  767MOL0     C 1139   6.416   6.272   9.735  0.5388 -0.0299  0.5645
  767MOL0     C 1140   6.413   6.409   9.769  0.1770 -1.1268  0.0397
  767MOL0     C 1141   6.282   6.485   9.777  0.8070  0.7860 -0.4443
  767MOL0     O 1142   6.257   6.575   9.874  0.4036 -0.6837  0.1284
  767MOL0     C 1143   6.131   6.630   9.893 -1.2754 -0.0639 -0.1160
  767MOL0     C 1144   6.014   6.563   9.921 -0.6058  0.0648  0.1039
  767MOL0     C 1145   5.883   6.629   9.929 -0.3911  0.3928  0.1790
  767MOL0     C 1146   5.874   6.759   9.903 -0.9259 -1.2223 -1.2601
  767MOL0     O 1147   5.748   6.810   9.906 -0.4715  0.7962  0.2835
  767MOL0     C 1148   5.727   6.919   9.821  0.2655  0.2498  0.4882
  767MOL0     C 1149   5.570   6.947   9.827  0.0785 -0.5146 -0.3896
  767MOL0     C 1150   5.525   7.055   9.727  0.1563  0.5046 -0.4428
  767MOL0     C 1151   5.375   7.086   9.750 -0.6603  0.8183  0.3288
  767MOL0     C 1152   5.318   7.141   9.608  0.7463 -0.7113 -0.4560
  767MOL0     C 1153   5.160   7.155   9.604  0.2631 -0.2276 -0.7922
  767MOL0     C 1154   5.091   7.235   9.718 -0.2174  1.7332 -0.8374
  767MOL0     C 1155   4.932   7.215   9.709  0.0892 -0.3705 -0.0548
  767MOL0    Cl 1156   4.859   7.356   9.618  0.2316  0.1503  0.0494
  767MOL0     C 1157   5.990   6.834   9.884 -0.1344  0.5009  0.0131
  767MOL0     C 1158   6.116   6.771   9.875 -0.6480  0.3746  0.2831
  767MOL0     O 1159   6.198   6.447   9.695  0.0510  0.9616 -0.8425
  767MOL0     C 1160   6.527   6.478   9.808  0.6886 -0.9181 -0.4630
  767MOL0     C 1161   6.649   6.420   9.813 -0.1349  0.8651  0.4407
  767MOL0     N 1162   7.236   6.091   9.456  0.5667  0.0036 -0.0560
  767MOL0     N 1163   7.180   6.056   9.345 -0.5544 -0.9403  0.5178
  767MOL0     C 1164   5.927   5.764   8.930 -1.0726  0.3317  0.4371
  767MOL0     C 1165   5.798   5.736   8.877  0.4400  0.3206  0.5080
  767MOL0     C 1166   5.320   5.660   8.916  0.0715  0.5899  0.6603
  767MOL0     C 1167   5.194   5.673   8.990  0.2916  0.7760  0.4643
  767MOL0     C 1168   5.074   5.649   8.929  0.2691  0.8001  0.1161
  767MOL0     C 1169   5.072   5.607   8.795  0.5614 -0.4261 -0.1795
  767MOL0     O 1170   4.958   5.557   8.738 -0.3832  0.5178 -0.1051
  767MOL0     C 1171   4.896   5.615   8.627 -0.9921 -0.8357 -0.1011
  767MOL0     C 1172   4.791   5.700   8.678  0.7231 -0.3390  0.2706
  767MOL0     C 1173   4.715   5.674   8.810 -0.4381 -0.6431  0.0820
  767MOL0     C 1174   4.585   5.760   8.830  0.3409 -0.3368  0.2835
  767MOL0     C 1175   4.525   5.734   8.963  0.2273  0.1335 -0.7049
  767MOL0     C 1176   4.472   5.718   9.071 -0.4800  0.2285  0.3451
  767MOL0     C 1177   5.187   5.588   8.726 -0.3777  0.4977  0.3119
  767MOL0     C 1178   5.317   5.618   8.782  0.4403 -0.4812 -0.1962
  767MOL0     H 1179   5.626   5.699   9.172 -2.8219 -0.0935 -3.4288
  767MOL0     H 1180   5.849   5.769   9.266 -0.9917  0.1225  0.3503
  767MOL0     H 1181   6.131   5.976   9.067  1.5496  0.8023 -0.3329
  767MOL0     H 1182   6.170   5.859   8.937  0.5165 -0.3701  0.5649
  767MOL0     H 1183   6.334   5.746   9.096 -0.9021  0.2150  4.2668
  767MOL0     H 1184   6.319   5.895   9.192  1.2263  1.2651 -0.4044
  767MOL0     H 1185   6.372   6.039   9.008 -1.6953 -0.9481 -0.6224
  767MOL0     H 1186   6.393   5.899   8.897  0.2223 -2.0113  1.5134
  767MOL0     H 1187   6.547   5.782   9.068  1.0657 -0.4523  1.0867
  767MOL0     H 1188   6.615   5.896   8.959  1.3394 -0.6846  2.0798
  767MOL0     H 1189   6.584   5.936   9.259  2.7526  1.4364  0.0165
  767MOL0     H 1190   6.585   6.068   9.148  0.3713  0.3626 -0.4379
  767MOL0     H 1191   6.780   5.998   9.060 -0.5277  0.7389  0.5422
  767MOL0     H 1192   6.759   5.830   9.129  1.3847  0.3664 -1.3013
  767MOL0     H 1193   6.815   6.102   9.251  1.1546 -1.2777 -1.0801
  767MOL0     H 1194   6.786   5.963   9.350 -4.0694  0.6256 -1.0362
  767MOL0     H 1195   7.016   5.986   9.151  0.4621  2.0788  0.4587
  767MOL0     H 1196   6.992   5.847   9.267 -0.0744  0.3170 -0.9823
  767MOL0     H 1197   6.970   5.931   9.552  0.3239  3.1139  2.5594
  767MOL0     H 1198   7.277   6.093   9.726 -1.0535  1.5759  1.2949
  767MOL0     H 1199   7.194   5.930   9.728  1.6878  0.6604  2.0435
  767MOL0     H 1200   7.109   6.086   9.884 -0.9273 -0.1204  0.0689
  767MOL0     H 1201   6.993   6.013   9.773  1.8761 -2.1450  0.1645
  767MOL0     H 1202   7.112   6.293   9.771  0.7226  0.2213 -0.6598
  767MOL0     H 1203   7.034   6.232   9.632  2.3493 -0.6392 -0.1986
  767MOL0     H 1204   6.915   6.390   9.760  2.1344 -0.8650 -0.7988
  767MOL0     H 1205   6.922   6.282   9.902 -0.3366  3.4192  0.3696
  767MOL0     H 1206   6.577   6.121   9.689 -0.2736 -1.0852  2.7410
  767MOL0     H 1207   6.329   6.211   9.713 -1.3090  0.6399  5.0525
  767MOL0     H 1208   6.027   6.458   9.948 -0.6085  0.7497  3.1674
  767MOL0     H 1209   5.789   6.579   9.950 -1.5183  1.7491 -1.3442
  767MOL0     H 1210   5.761   6.913   9.717 -0.3801 -0.9613  0.3199
  767MOL0     H 1211   5.768   7.008   9.869  0.1277  1.0450 -0.8188
  767MOL0     H 1212   5.531   6.991   9.919 -0.1202  2.3812 -1.7468
  767MOL0     H 1213   5.512   6.858   9.802 -3.1575  1.7913 -1.8265
  767MOL0     H 1214   5.541   7.011   9.628 -2.7307  0.4501 -0.9576
  767MOL0     H 1215   5.593   7.139   9.744 -0.4071  1.3461 -2.2025
  767MOL0     H 1216   5.331   6.987   9.766  2.5658 -0.8796 -0.2198
  767MOL0     H 1217   5.354   7.158   9.829  2.4976  0.9370  1.2030
  767MOL0     H 1218   5.349   7.085   9.519  1.0019  1.9618 -2.1687
  767MOL0     H 1219   5.361   7.239   9.588  0.2837 -0.0705  1.5266
  767MOL0     H 1220   5.124   7.051   9.606  2.1942 -0.9510  1.3920
  767MOL0     H 1221   5.132   7.198   9.508 -2.2265  1.0066  0.4038
  767MOL0     H 1222   5.128   7.197   9.813 -3.3484  0.3808 -0.0040
  767MOL0     H 1223   5.104   7.343   9.719 -0.9560  1.9055  2.3658
  767MOL0     H 1224   4.876   7.209   9.803  0.0106 -1.0825 -0.1489
  767MOL0     H 1225   4.901   7.125   9.657  2.8250 -1.3549 -0.1546
  767MOL0     H 1226   5.969   6.939   9.871 -0.9788  0.1862 -1.4111
  767MOL0     H 1227   6.203   6.826   9.841  0.7225 -1.2441  1.0480
  767MOL0     H 1228   6.515   6.576   9.852 -3.6982 -0.4892 -2.1397
  767MOL0     H 1229   6.732   6.487   9.830 -0.1991  1.0940 -0.1207
  767MOL0     H 1230   6.016   5.758   8.868 -0.9137  1.8780  0.4555
  767MOL0     H 1231   5.773   5.723   8.773 -2.6954 -1.5806  1.3802
  767MOL0     H 1232   5.192   5.682   9.099 -2.9484 -2.8657  0.9467
  767MOL0     H 1233   4.983   5.652   8.988 -0.5077  0.2893 -1.0183
  767MOL0     H 1234   4.852   5.538   8.563  1.6578 -0.8542 -2.0863
  767MOL0     H 1235   4.968   5.677   8.572 -1.4404  0.6573  0.9269
  767MOL0     H 1236   4.832   5.798   8.705 -1.3563  0.2834  1.3954
  767MOL0     H 1237   4.717   5.716   8.600 -0.2327 -0.4050  1.1424
  767MOL0     H 1238   4.772   5.669   8.903 -2.9496 -0.5893  1.7105
  767MOL0     H 1239   4.672   5.573   8.800 -3.2813  0.3916  0.9039
  767MOL0     H 1240   4.608   5.866   8.832  0.7365 -0.4260  1.6053
  767MOL0     H 1241   4.515   5.747   8.747 -2.1450 -0.1188  2.2228
  767MOL0     H 1242   4.440   5.695   9.171  1.2101 -0.0330  0.8438
  767MOL0     H 1243   5.197   5.546   8.626  0.2282 -2.6532  1.5842
  767MOL0     H 1244   5.407   5.603   8.723  0.3135 -1.8166 -0.0902
  768MOL0     O 1245   2.204   2.176   5.985  0.2451 -0.3527 -0.0943
  768MOL0     C 1246   2.219   2.078   6.060  0.2271 -0.8460 -0.6635
  768MOL0     O 1247   2.121   1.977   6.070 -0.2986 -0.6440 -0.0294
  768MOL0     C 1248   2.018   1.974   5.982  0.3068 -0.3329 -0.7535
  768MOL0     C 1249   1.899   1.997   6.037 -0.4767 -0.9223  0.5770
  768MOL0     C 1250   1.780   2.034   5.964 -0.4538 -0.1065 -0.7015
  768MOL0     C 1251   1.787   2.024   5.821  0.6703  0.1692 -0.1346
  768MOL0     O 1252   1.691   2.069   5.735  0.0388  0.5410  0.3459
  768MOL0     C 1253   1.637   1.967   5.644 -0.0086 -0.4173 -0.2251
  768MOL0     C 1254   1.503   2.014   5.585  0.1378 -0.1953  0.4789
  768MOL0     C 1255   1.385   1.993   5.676  0.6519  0.6205  0.0821
  768MOL0     C 1256   1.257   2.019   5.586 -1.6161 -1.2016  0.4790
  768MOL0     C 1257   1.132   1.992   5.665  0.2948  0.2073 -0.6752
  768MOL0     C 1258   1.000   2.047   5.584  0.0406 -0.4168  0.6814
  768MOL0     C 1259   0.872   1.977   5.629  0.1263  0.2532 -0.5746
  768MOL0     C 1260   0.738   2.039   5.595  0.3408 -1.4246 -0.2644
  768MOL0     N 1261   0.619   1.966   5.626  0.2869 -0.2700  0.2470
  768MOL0     C 1262   0.560   1.867   5.549 -0.3265 -0.1368 -0.0945
  768MOL0     C 1263   0.434   1.862   5.590  0.1204 -0.1544 -0.7014
  768MOL0     C 1264   0.310   1.792   5.525 -0.3070 -0.5006 -0.6670
  768MOL0     C 1265   0.299   1.637   5.540  0.6268 -0.2397 -0.4279
  768MOL0     C 1266   0.416   1.564   5.468 -0.4889  0.5584  0.6603
  768MOL0     C 1267   0.399   1.414   5.485  0.3841 -0.0169  0.2688
  768MOL0     O 1268   0.277   1.374   5.423  0.4954  0.1774 -0.4964
  768MOL0     C 1269   0.198   1.296   5.499 -0.5332  0.5710  0.3345
  768MOL0     C 1270   0.233   1.163   5.543 -0.4865 -0.6463 -0.0316
  768MOL0     C 1271   0.149   1.094   5.636  0.2933 -0.1951 -0.1876
  768MOL0     C 1272   0.022   1.155   5.668 -1.1570  1.1220 -0.0953
  768MOL0     C 1273  -0.072   1.076   5.755  0.4344 -0.5358  0.4172
  768MOL0     O 1274  -0.205   1.081   5.728 -0.2426  0.1178 -0.6157
  768MOL0     C 1275  -0.287   1.014   5.813  1.1050  0.0041 -0.2759
  768MOL0     C 1276  -0.296   1.024   5.950 -0.3733 -0.4955  0.1782
  768MOL0     C 1277  -0.363   0.934   6.032 -0.5001 -0.2394 -0.2898
  768MOL0     C 1278  -0.458   0.854   5.970  0.7804 -0.5684 -0.2847
  768MOL0     O 1279  -0.545   0.765   6.025 -0.1206 -0.5036 -0.4879
  768MOL0     C 1280  -0.517   0.734   6.164 -0.3384 -0.3143 -0.2294
  768MOL0     C 1281  -0.588   0.597   6.196  0.2365 -0.3654 -0.2892
  768MOL0     C 1282  -0.545   0.539   6.334 -0.6680 -0.1418  0.6004
  768MOL0     C 1283  -0.625   0.422   6.385 -0.4674  0.6430 -0.7150
  768MOL0     C 1284  -0.632   0.412   6.546  0.2913 -0.7877  0.4082
  768MOL0     C 1285  -0.716   0.292   6.594  0.0949 -0.5340  0.3823
  768MOL0     C 1286  -0.870   0.306   6.579  0.4146 -0.0103  0.1906
  768MOL0     C 1287  -0.937   0.195   6.660  0.8726  0.0953 -0.0270
  768MOL0    Cl 1288  -0.847   0.039   6.646  0.0027  0.2678 -0.5568
  768MOL0     C 1289  -0.472   0.867   5.837 -0.7629  0.2780 -0.2654
  768MOL0     C 1290  -0.382   0.937   5.748 -0.1495  0.9406 -0.4008
  768MOL0     O 1291  -0.019   1.011   5.837 -1.1455  0.4384 -0.5035
  768MOL0     C 1292  -0.013   1.269   5.604  0.6451  0.2390 -0.3676
  768MOL0     C 1293   0.072   1.343   5.532 -0.2151  0.3939  0.2854
  768MOL0     N 1294   0.412   1.952   5.700 -0.0835 -0.3203  0.3000
  768MOL0     N 1295   0.528   2.008   5.720 -0.2210  0.6766  0.2569
  768MOL0     C 1296   1.909   1.982   5.765 -0.0996  0.4173  1.1657
  768MOL0     C 1297   2.019   1.955   5.844 -0.3089  0.4166 -0.6629
  768MOL0     C 1298   2.340   2.057   6.138 -0.3664 -0.0570  0.3114
  768MOL0     C 1299   2.453   2.142   6.124  0.6625 -0.1458  0.2883
  768MOL0     C 1300   2.556   2.137   6.210  0.0665 -0.2977 -0.5792
  768MOL0     C 1301   2.561   2.051   6.317  0.7755 -0.5643  0.0685
  768MOL0     O 1302   2.665   2.054   6.396  0.2084  0.8343 -0.1491
  768MOL0     C 1303   2.767   1.959   6.371  0.3398  0.0898  0.7188
  768MOL0     C 1304   2.905   2.045   6.363 -0.0363 -0.1454 -0.0742
  768MOL0     C 1305   3.031   1.967   6.383  0.1634 -0.4801 -0.5270
  768MOL0     C 1306   3.154   2.061   6.419 -0.1712 -0.2156 -0.5439
  768MOL0     C 1307   3.280   1.974   6.412  0.3513  0.2930  0.4545
  768MOL0     C 1308   3.378   1.902   6.398  0.8599 -0.6871  0.4952
  768MOL0     C 1309   2.453   1.963   6.331  1.0502  0.7386  0.0851
  768MOL0     C 1310   2.350   1.952   6.230 -0.2228  1.3791  0.0555
  768MOL0     H 1311   1.890   2.003   6.145  0.6055 -1.2237  0.6911
  768MOL0     H 1312   1.691   2.080   6.007 -0.9447 -2.3194  0.7985
  768MOL0     H 1313   1.629   1.868   5.689  0.3805 -2.4828 -4.2404
  768MOL0     H 1314   1.703   1.969   5.557 -0.9879 -1.8792 -1.0333
  768MOL0     H 1315   1.486   1.954   5.495 -1.2598  0.1772  0.4611
  768MOL0     H 1316   1.503   2.120   5.557 -0.8108  0.3541  2.3287
  768MOL0     H 1317   1.382   2.057   5.766 -0.6848  1.3706 -0.4632
  768MOL0     H 1318   1.387   1.891   5.715 -0.5912  0.3978 -0.3754
  768MOL0     H 1319   1.260   2.127   5.573 -0.7747 -1.5391 -3.0615
  768MOL0     H 1320   1.260   1.973   5.487  1.4785  0.6907 -0.4435
  768MOL0     H 1321   1.135   2.025   5.770 -0.6059  0.3593 -0.6848
  768MOL0     H 1322   1.121   1.885   5.682  0.1863  0.5465  1.7454
  768MOL0     H 1323   1.012   2.044   5.475 -0.7848  2.2891  0.4519
  768MOL0     H 1324   0.983   2.154   5.599 -1.4488 -0.3542 -1.0422
  768MOL0     H 1325   0.894   1.880   5.582 -0.3713  0.0495 -0.3920
  768MOL0     H 1326   0.884   1.963   5.737  0.0202  2.2289 -0.2701
  768MOL0     H 1327   0.739   2.071   5.490  0.9620  0.5553  0.3184
  768MOL0     H 1328   0.741   2.136   5.644  2.4871 -1.9161  0.6815
  768MOL0     H 1329   0.603   1.826   5.458 -0.0601 -2.0130  0.8417
  768MOL0     H 1330   0.312   1.821   5.419 -0.8463  0.1649 -0.5071
  768MOL0     H 1331   0.213   1.822   5.566 -1.3033 -3.4985 -0.5707
  768MOL0     H 1332   0.203   1.598   5.505  0.6168 -0.3395 -0.2889
  768MOL0     H 1333   0.317   1.623   5.647 -0.2131  0.6495 -0.1485
  768MOL0     H 1334   0.418   1.596   5.363 -2.2160 -1.2764  0.0164
  768MOL0     H 1335   0.510   1.580   5.523 -0.7796 -1.3884  1.8346
  768MOL0     H 1336   0.391   1.386   5.590 -2.6818 -2.3564 -0.4158
  768MOL0     H 1337   0.479   1.356   5.439 -1.8926 -2.2934 -1.0998
  768MOL0     H 1338   0.327   1.122   5.507  0.3869 -0.2439  1.6718
  768MOL0     H 1339   0.162   0.993   5.673 -1.8081 -1.3393 -2.3042
  768MOL0     H 1340  -0.218   1.089   5.991 -0.9883  0.7039 -0.5139
  768MOL0     H 1341  -0.337   0.930   6.137 -0.2196 -0.2041 -0.3570
  768MOL0     H 1342  -0.561   0.811   6.228  1.9515  1.4665 -0.6522
  768MOL0     H 1343  -0.410   0.728   6.186 -0.2698 -0.4451 -0.5996
  768MOL0     H 1344  -0.564   0.522   6.120 -0.8075  0.2694 -1.2880
  768MOL0     H 1345  -0.697   0.608   6.198  0.4541  2.5538  1.6058
  768MOL0     H 1346  -0.566   0.623   6.401 -0.0551  0.8569 -0.4367
  768MOL0     H 1347  -0.440   0.510   6.346 -1.4577 -2.2572  3.7874
  768MOL0     H 1348  -0.727   0.453   6.363  1.0418  4.1892 -3.6651
  768MOL0     H 1349  -0.592   0.329   6.338 -1.9458  0.7073 -1.9396
  768MOL0     H 1350  -0.664   0.508   6.588  0.2626 -1.1905  1.3389
  768MOL0     H 1351  -0.532   0.401   6.588  1.0448 -0.6349 -1.2745
  768MOL0     H 1352  -0.691   0.275   6.699 -3.8111  0.1265  1.5720
  768MOL0     H 1353  -0.673   0.207   6.538  1.5510  0.9103 -0.8039
  768MOL0     H 1354  -0.909   0.405   6.601  0.1543 -0.1390  0.3203
  768MOL0     H 1355  -0.891   0.305   6.472  0.1809 -1.7959  0.2220
  768MOL0     H 1356  -1.043   0.179   6.637  0.8862 -0.6682  0.3881
  768MOL0     H 1357  -0.930   0.231   6.762 -1.8002  1.0848 -0.1047
  768MOL0     H 1358  -0.558   0.817   5.794 -3.8446  4.4460  0.4111
  768MOL0     H 1359  -0.396   0.920   5.642 -0.0523  0.0942 -0.2886
  768MOL0     H 1360  -0.118   1.296   5.608  0.0532 -1.4675 -2.5831
  768MOL0     H 1361   0.033   1.434   5.488 -1.9066 -2.0363 -3.8201
  768MOL0     H 1362   1.908   1.977   5.657  0.1738 -0.0784  1.1825
  768MOL0     H 1363   2.107   1.915   5.795  0.9066  0.0671  1.6786
  768MOL0     H 1364   2.446   2.214   6.044 -2.0975 -0.0340  0.5305
  768MOL0     H 1365   2.638   2.202   6.181 -1.1620  0.4652 -2.5893
  768MOL0     H 1366   2.757   1.900   6.280  1.9797  1.0567 -0.1590
  768MOL0     H 1367   2.776   1.889   6.454 -0.7609 -1.8500 -0.7138
  768MOL0     H 1368   2.910   2.079   6.259  1.3322  0.6642  0.2295
  768MOL0     H 1369   2.897   2.135   6.426  1.8867 -0.7613  1.1230
  768MOL0     H 1370   3.042   1.911   6.290 -3.8824  0.0453 -1.5384
  768MOL0     H 1371   3.017   1.903   6.470 -0.3433 -0.0383 -0.2767
  768MOL0     H 1372   3.164   2.149   6.354  3.8999 -1.0374 -1.3439
  768MOL0     H 1373   3.138   2.092   6.523 -0.4549  0.6977 -0.8474
  768MOL0     H 1374   3.468   1.846   6.387  0.1373 -1.5866 -1.3819
  768MOL0     H 1375   2.445   1.892   6.413 -0.0356  0.7108 -0.0302
  768MOL0     H 1376   2.264   1.895   6.263  1.0178 -0.4689  0.2648
  769MOL0     O 1377   0.273   7.823   8.060  0.0071 -0.6475 -0.7371
  769MOL0     C 1378   0.296   7.842   7.942 -0.5501  0.5229 -0.3348
  769MOL0     O 1379   0.209   7.817   7.837  0.4711 -0.0044 -0.0953
  769MOL0     C 1380   0.114   7.721   7.844  0.4604  0.6767  0.4320
  769MOL0     C 1381   0.038   7.683   7.958  0.3289 -0.1578  0.4480
  769MOL0     C 1382  -0.068   7.591   7.957 -1.0123 -0.4244 -0.8905
  769MOL0     C 1383  -0.095   7.527   7.839 -0.1431 -1.1376  0.0283
  769MOL0     O 1384  -0.174   7.418   7.843 -0.2714  0.1474 -0.5389
  769MOL0     C 1385  -0.266   7.407   7.735  0.7920 -0.2943 -0.5721
  769MOL0     C 1386  -0.388   7.333   7.787 -0.3734  0.4015 -1.1489
  769MOL0     C 1387  -0.469   7.265   7.680 -0.3948  1.0462  0.0485
  769MOL0     C 1388  -0.604   7.230   7.740  0.1530  0.2159 -0.1568
  769MOL0     C 1389  -0.713   7.166   7.638 -0.1378  0.6722 -0.0316
  769MOL0     C 1390  -0.853   7.138   7.696  0.3187  0.1678 -0.0989
  769MOL0     C 1391  -0.957   7.116   7.577 -0.4414 -0.1195 -0.6521
  769MOL0     C 1392  -1.096   7.087   7.629 -0.2238 -0.0187  0.0812
  769MOL0     N 1393  -1.099   6.960   7.709 -0.1820 -0.1337  0.5361
  769MOL0     C 1394  -1.086   6.831   7.652 -0.4149 -0.1190  0.6454
  769MOL0     C 1395  -1.082   6.746   7.756  0.3438 -0.0678 -0.6815
  769MOL0     C 1396  -1.102   6.591   7.734  0.1552  0.0636 -0.1483
  769MOL0     C 1397  -1.236   6.532   7.771  0.8079  0.7537 -0.3668
  769MOL0     C 1398  -1.328   6.553   7.654  0.3160 -0.5402  0.5162
  769MOL0     C 1399  -1.463   6.481   7.664 -0.2359 -0.0603 -0.7779
  769MOL0     O 1400  -1.548   6.532   7.772  0.1757 -0.5363  0.0976
  769MOL0     C 1401  -1.651   6.461   7.812  0.1432  0.9309  0.4987
  769MOL0     C 1402  -1.701   6.477   7.935  0.1992  1.3315 -1.2832
  769MOL0     C 1403  -1.811   6.409   7.982 -0.0896  0.0980  0.7385
  769MOL0     C 1404  -1.870   6.311   7.901  0.1793 -0.1190 -0.1314
  769MOL0     C 1405  -1.979   6.223   7.950 -0.6531  1.3805 -0.5087
  769MOL0     O 1406  -2.063   6.273   8.049  0.9629 -0.3044  0.5114
  769MOL0     C 1407  -2.163   6.199   8.102 -0.1908 -0.1711  0.1510
  769MOL0     C 1408  -2.218   6.251   8.224  0.0619  0.0487  0.3338
  769MOL0     C 1409  -2.340   6.198   8.261 -1.1381  0.1668  0.8209
  769MOL0     C 1410  -2.400   6.085   8.204 -0.0887  0.3491 -0.8691
  769MOL0     O 1411  -2.524   6.057   8.251 -0.1357 -0.0880 -0.2876
  769MOL0     C 1412  -2.601   5.951   8.181  0.2673  0.3483  0.3742
  769MOL0     C 1413  -2.726   5.930   8.248 -0.2859  0.3029 -0.6502
  769MOL0     C 1414  -2.807   5.817   8.190  0.2252  0.3210  1.1241
  769MOL0     C 1415  -2.944   5.817   8.243  0.9262 -0.3627  0.0257
  769MOL0     C 1416  -3.036   5.715   8.175 -0.3287 -0.0894 -0.7500
  769MOL0     C 1417  -3.180   5.740   8.230  0.3258 -0.5194 -0.0952
  769MOL0     C 1418  -3.268   5.619   8.186 -0.9800 -0.4891 -0.2734
  769MOL0     C 1419  -3.353   5.562   8.301 -0.4107  0.3903 -0.1069
  769MOL0    Cl 1420  -3.433   5.416   8.226  0.0038 -0.1421  0.6076
  769MOL0     C 1421  -2.335   6.024   8.098  0.1506  0.5712  0.0635
  769MOL0     C 1422  -2.221   6.081   8.049  0.6424  0.8769 -0.4501
  769MOL0     O 1423  -1.985   6.112   7.893  0.4519 -0.1838  0.0542
  769MOL0     C 1424  -1.810   6.279   7.779  0.7606  0.3548  0.2259
  769MOL0     C 1425  -1.697   6.351   7.742  0.5637 -0.5397 -0.2694
  769MOL0     N 1426  -1.069   6.815   7.875 -0.3605  0.8486  1.1217
  769MOL0     N 1427  -1.078   6.945   7.844  0.6433 -0.0474 -0.1140
  769MOL0     C 1428  -0.022   7.562   7.719  0.4704  0.3877 -0.6296
  769MOL0     C 1429   0.078   7.656   7.727 -0.4550 -0.2414 -0.3872
  769MOL0     C 1430   0.433   7.897   7.915 -0.4307 -0.3129 -0.3696
  769MOL0     C 1431   0.501   7.893   7.790 -0.4491 -0.6870 -0.2781
  769MOL0     C 1432   0.629   7.953   7.773  0.2496  0.3350 -0.0628
  769MOL0     C 1433   0.699   8.026   7.875  0.2378  0.4259  0.0018
  769MOL0     O 1434   0.825   8.064   7.850 -0.2697  0.2923 -0.0132
  769MOL0     C 1435   0.840   8.197   7.814 -0.0185 -0.5898 -0.2343
  769MOL0     C 1436   0.857   8.205   7.667  0.6408 -0.7523 -0.1476
  769MOL0     C 1437   0.870   8.352   7.635 -0.2637  0.2462 -0.0687
  769MOL0     C 1438   0.874   8.358   7.483 -0.0447 -0.0050 -0.0002
  769MOL0     C 1439   0.738   8.353   7.415  0.0074  0.7853  0.2786
  769MOL0     C 1440   0.634   8.347   7.354  0.4479 -0.6134 -0.8204
  769MOL0     C 1441   0.638   8.026   7.998  0.1438 -0.9879  0.1071
  769MOL0     C 1442   0.515   7.963   8.016  0.6230 -0.0008 -0.0595
  769MOL0     H 1443   0.061   7.722   8.057  0.0293  1.1791  0.0132
  769MOL0     H 1444  -0.128   7.573   8.046 -2.5383  0.1292 -1.7618
  769MOL0     H 1445  -0.218   7.348   7.657 -0.0912 -0.3951 -1.0485
  769MOL0     H 1446  -0.297   7.506   7.699 -0.7432 -0.3631  0.4820
  769MOL0     H 1447  -0.450   7.411   7.833 -1.2761 -0.2782 -1.1799
  769MOL0     H 1448  -0.369   7.260   7.866 -1.9785 -2.0694 -2.9085
  769MOL0     H 1449  -0.416   7.177   7.643 -0.4652  1.9583 -2.4267
  769MOL0     H 1450  -0.485   7.328   7.592  0.3367  0.9746 -0.1468
  769MOL0     H 1451  -0.601   7.170   7.831  1.3149  0.9738  0.3244
  769MOL0     H 1452  -0.652   7.326   7.762 -2.1012 -0.0431 -3.1841
  769MOL0     H 1453  -0.676   7.069   7.605 -1.3414 -0.2800  1.3078
  769MOL0     H 1454  -0.722   7.228   7.548  1.6799 -0.7388 -1.2554
  769MOL0     H 1455  -0.892   7.217   7.761  1.8950  1.3788 -0.5492
  769MOL0     H 1456  -0.847   7.043   7.749 -1.7508  0.3032  0.4460
  769MOL0     H 1457  -0.956   7.205   7.514 -1.0382  0.1446 -0.2969
  769MOL0     H 1458  -0.921   7.039   7.508 -2.6323  0.4873 -2.6087
  769MOL0     H 1459  -1.170   7.085   7.549 -0.2341  0.8775  0.0508
  769MOL0     H 1460  -1.118   7.177   7.687  1.7531  0.7325 -0.2482
  769MOL0     H 1461  -1.090   6.809   7.546  1.3140  0.3815  0.4552
  769MOL0     H 1462  -1.019   6.539   7.783  0.5761  0.2832 -0.6192
  769MOL0     H 1463  -1.078   6.565   7.631  3.3162 -2.4531  1.0443
  769MOL0     H 1464  -1.271   6.575   7.865 -1.4126 -0.1208 -0.7220
  769MOL0     H 1465  -1.233   6.423   7.784  2.6498  0.9782  1.5065
  769MOL0     H 1466  -1.343   6.661   7.646  1.8433 -0.3098  0.4192
  769MOL0     H 1467  -1.292   6.524   7.555 -4.5374  0.4167 -1.8332
  769MOL0     H 1468  -1.444   6.375   7.685  0.8203  0.6234  2.2297
  769MOL0     H 1469  -1.518   6.487   7.570  0.5633 -1.1906 -1.3413
  769MOL0     H 1470  -1.678   6.558   8.004 -5.6002  2.8038 -0.6123
  769MOL0     H 1471  -1.846   6.427   8.083  0.4105 -1.7253  1.2649
  769MOL0     H 1472  -2.185   6.346   8.264 -0.8742 -0.1021  1.5369
  769MOL0     H 1473  -2.380   6.251   8.347 -0.3097  1.8981  0.1800
  769MOL0     H 1474  -2.551   5.856   8.199 -3.5851 -1.8330  0.5498
  769MOL0     H 1475  -2.604   5.963   8.073  0.7516  1.6227  0.4834
  769MOL0     H 1476  -2.783   6.024   8.242 -1.0422 -0.1357 -0.5147
  769MOL0     H 1477  -2.706   5.906   8.352 -0.0689  0.4799 -0.6506
  769MOL0     H 1478  -2.753   5.724   8.208 -1.7426 -0.9445  0.8406
  769MOL0     H 1479  -2.817   5.821   8.081  0.3767  2.4417  1.1413
  769MOL0     H 1480  -2.951   5.789   8.349 -2.0434 -0.3821 -0.0946
  769MOL0     H 1481  -2.975   5.921   8.230  2.9185  0.5818  2.1903
  769MOL0     H 1482  -3.007   5.612   8.196 -0.2470 -0.4981 -2.6754
  769MOL0     H 1483  -3.039   5.715   8.065  0.7337  1.3608 -0.8140
  769MOL0     H 1484  -3.217   5.837   8.196 -1.3859 -0.4479  1.8202
  769MOL0     H 1485  -3.162   5.742   8.338 -1.5422 -1.2669  0.2681
  769MOL0     H 1486  -3.329   5.641   8.098  0.9952  0.7854 -1.4150
  769MOL0     H 1487  -3.212   5.530   8.154  0.6947 -0.3275  1.9844
  769MOL0     H 1488  -3.437   5.626   8.330 -0.2171 -0.0192  1.4449
  769MOL0     H 1489  -3.296   5.548   8.393  1.8806  2.5727 -1.0851
  769MOL0     H 1490  -2.370   5.930   8.055 -0.1690 -0.1459  1.7833
  769MOL0     H 1491  -2.196   6.015   7.966  0.4202  0.8316 -0.4827
  769MOL0     H 1492  -1.849   6.208   7.706  1.2103 -0.5819  0.8744
  769MOL0     H 1493  -1.665   6.327   7.641  1.6229  0.6979 -0.2451
  769MOL0     H 1494  -0.059   7.516   7.628  0.6031  0.0002 -0.4902
  769MOL0     H 1495   0.142   7.693   7.648  0.8445  1.7201  1.4435
  769MOL0     H 1496   0.459   7.847   7.701  2.5499 -1.5134 -1.4022
  769MOL0     H 1497   0.681   7.930   7.680  0.8665  0.6077  0.2048
  769MOL0     H 1498   0.927   8.242   7.863 -0.7420  1.0936 -0.4104
  769MOL0     H 1499   0.752   8.254   7.846  0.2721 -0.1001 -0.2900
  769MOL0     H 1500   0.941   8.146   7.629 -0.0209 -4.3214  3.2420
  769MOL0     H 1501   0.771   8.168   7.610  0.7744 -2.1631  0.5311
  769MOL0     H 1502   0.965   8.381   7.680 -0.0485  0.3930 -0.6084
  769MOL0     H 1503   0.791   8.410   7.683  0.8396  0.6157  1.3547
  769MOL0     H 1504   0.925   8.453   7.466 -0.1080 -0.2734 -1.8111
  769MOL0     H 1505   0.930   8.279   7.433 -0.5188  0.2784 -0.9885
  769MOL0     H 1506   0.549   8.332   7.290  0.3689  1.5452 -1.3163
  769MOL0     H 1507   0.681   8.084   8.080  0.1550 -0.9550  0.0781
  769MOL0     H 1508   0.479   7.964   8.119  0.2683  3.6845 -0.0856
  770MOL0     O 1509   7.084   0.858   5.520 -0.3732 -0.2349  0.8259
  770MOL0     C 1510   7.149   0.833   5.621  0.4409 -0.1171  0.0275
  770MOL0     O 1511   7.098   0.816   5.743  0.3715 -0.6063  0.0055
  770MOL0     C 1512   6.967   0.863   5.777 -0.1187 -0.1407  1.2772
  770MOL0     C 1513   6.868   0.765   5.792  0.3288  0.5110 -0.3192
  770MOL0     C 1514   6.739   0.807   5.823  0.5202 -0.6728  0.4481
  770MOL0     C 1515   6.706   0.939   5.835  0.6489 -0.5775  0.1107
  770MOL0     O 1516   6.576   0.983   5.847 -0.7180 -1.6375  0.5028
  770MOL0     C 1517   6.486   0.922   5.938  0.4219  0.7199 -0.6823
  770MOL0     C 1518   6.356   0.996   5.943 -0.6666  0.1274 -0.4280
  770MOL0     C 1519   6.306   1.039   5.805  0.2254 -0.3587 -1.0228
  770MOL0     C 1520   6.167   1.107   5.812 -0.6475  0.7068 -0.7269
  770MOL0     C 1521   6.120   1.164   5.674 -0.5983 -0.1147  0.5755
  770MOL0     C 1522   5.968   1.185   5.677  0.0207 -0.3012 -0.2162
  770MOL0     C 1523   5.926   1.220   5.541  0.6407  0.1930  0.2071
  770MOL0     C 1524   5.780   1.261   5.527 -0.2082 -0.2237 -0.4673
  770MOL0     N 1525   5.689   1.147   5.528 -0.4617  0.7429  0.7797
  770MOL0     C 1526   5.683   1.053   5.426  0.2939 -0.2019  0.8787
  770MOL0     C 1527   5.612   0.946   5.483 -0.1509 -0.0792 -0.2796
  770MOL0     C 1528   5.592   0.809   5.415 -0.4489  0.1896  0.0365
  770MOL0     C 1529   5.492   0.796   5.297 -0.0917  0.2405 -0.0036
  770MOL0     C 1530   5.350   0.835   5.342  0.3251 -0.1872  0.0099
  770MOL0     C 1531   5.231   0.783   5.249  0.0555 -0.1550 -0.1372
  770MOL0     O 1532   5.241   0.640   5.227 -0.1286 -0.3733 -0.3934
  770MOL0     C 1533   5.141   0.592   5.139 -0.0646 -1.2099  0.0234
  770MOL0     C 1534   5.138   0.455   5.128  0.2867  0.2046 -0.4332
  770MOL0     C 1535   5.042   0.381   5.048 -0.2407 -0.1657 -0.3035
  770MOL0     C 1536   4.928   0.459   4.999 -0.7165  0.2479  0.4683
  770MOL0     C 1537   4.821   0.391   4.913  0.1494  0.8779 -0.5976
  770MOL0     O 1538   4.699   0.423   4.940 -0.0234 -0.2374  0.2062
  770MOL0     C 1539   4.597   0.377   4.855 -0.3428 -0.0777  0.3557
  770MOL0     C 1540   4.597   0.379   4.709 -0.2684 -0.9584  0.4812
  770MOL0     C 1541   4.472   0.358   4.650 -0.1797 -0.2073  0.7410
  770MOL0     C 1542   4.359   0.312   4.724  0.1265 -0.2114 -1.0564
  770MOL0     O 1543   4.247   0.301   4.652 -0.2184 -0.0235 -0.0255
  770MOL0     C 1544   4.134   0.235   4.705  0.0614  0.3105 -0.1539
  770MOL0     C 1545   4.016   0.240   4.606  0.0300  0.1892 -0.1381
  770MOL0     C 1546   3.902   0.149   4.660 -0.9956  0.5002  0.6991
  770MOL0     C 1547   3.774   0.164   4.577  0.4875  0.4881 -0.4741
  770MOL0     C 1548   3.653   0.116   4.655 -0.0875 -0.2969  0.1616
  770MOL0     C 1549   3.524   0.154   4.595 -0.2866  0.2631 -0.4891
  770MOL0     C 1550   3.409   0.123   4.692 -0.2975 -0.4870 -0.1150
  770MOL0     C 1551   3.282   0.184   4.636  1.2830 -0.2051 -0.9607
  770MOL0    Cl 1552   3.160   0.091   4.532 -0.1037 -0.2712  0.5115
  770MOL0     C 1553   4.370   0.299   4.863 -0.1494 -0.0601 -0.4444
  770MOL0     C 1554   4.483   0.344   4.939 -0.4033 -0.4258  0.3806
  770MOL0     O 1555   4.860   0.314   4.825  0.3619 -0.1284  0.1893
  770MOL0     C 1556   4.926   0.597   5.015 -0.4248  0.3071 -0.1412
  770MOL0     C 1557   5.036   0.667   5.077  0.1125  0.8097 -1.3222
  770MOL0     N 1558   5.580   0.975   5.617  0.2703  0.2643 -0.3310
  770MOL0     N 1559   5.628   1.096   5.639 -0.1611  0.2589  0.0649
  770MOL0     C 1560   6.808   1.040   5.816  1.1621 -0.4061 -0.2899
  770MOL0     C 1561   6.939   0.993   5.789  0.1928 -1.3459  0.4200
  770MOL0     C 1562   7.301   0.808   5.627 -0.2947  0.8654  0.3470
  770MOL0     C 1563   7.380   0.856   5.523 -0.3341  0.9218  0.0857
  770MOL0     C 1564   7.523   0.841   5.524 -0.3291 -0.0546 -0.0380
  770MOL0     C 1565   7.576   0.770   5.635 -0.9832 -0.1566 -0.4304
  770MOL0     O 1566   7.716   0.740   5.642  1.0169  0.3739 -0.0609
  770MOL0     C 1567   7.809   0.779   5.541  0.5435 -0.0993 -0.1602
  770MOL0     C 1568   7.942   0.694   5.550 -0.4744 -0.4643  0.2754
  770MOL0     C 1569   8.011   0.724   5.677 -0.4728 -0.7303 -0.6381
  770MOL0     C 1570   8.079   0.875   5.684  0.2816 -0.4181 -0.7052
  770MOL0     C 1571   8.010   0.959   5.783 -0.2225  0.3821  0.0863
  770MOL0     C 1572   7.954   1.044   5.849  0.5014  0.5530 -1.3131
  770MOL0     C 1573   7.498   0.720   5.735  0.1254 -0.6066 -0.0419
  770MOL0     C 1574   7.358   0.737   5.735  0.4376  1.0364 -0.3243
  770MOL0     H 1575   6.897   0.660   5.790 -1.4776 -0.0137 -1.6957
  770MOL0     H 1576   6.672   0.723   5.838  0.8652 -0.8755  0.8884
  770MOL0     H 1577   6.535   0.921   6.035 -1.7644  1.3223  0.5050
  770MOL0     H 1578   6.474   0.817   5.911  0.1382  1.0770 -2.0328
  770MOL0     H 1579   6.371   1.091   5.995 -0.2211  0.0391 -0.3910
  770MOL0     H 1580   6.271   0.942   5.986 -1.1980 -2.4968 -4.2473
  770MOL0     H 1581   6.299   0.966   5.723  1.2806 -0.8087 -0.7386
  770MOL0     H 1582   6.379   1.114   5.773  0.3000  0.0600  0.0899
  770MOL0     H 1583   6.101   1.024   5.839  0.7291 -0.0825  0.3318
  770MOL0     H 1584   6.168   1.183   5.890  0.1326 -1.2807  1.3070
  770MOL0     H 1585   6.161   1.106   5.590  1.4019 -0.1392  1.4993
  770MOL0     H 1586   6.173   1.258   5.653 -1.9339  0.3052 -1.1056
  770MOL0     H 1587   5.934   1.253   5.756 -2.0309  0.1513 -1.4144
  770MOL0     H 1588   5.916   1.092   5.698  0.2418 -0.2217  0.7496
  770MOL0     H 1589   5.963   1.317   5.508 -1.3450  0.7262 -0.5836
  770MOL0     H 1590   5.944   1.140   5.468 -1.8288 -2.6905  2.4939
  770MOL0     H 1591   5.751   1.328   5.445  2.1370 -0.1056 -1.2943
  770MOL0     H 1592   5.752   1.311   5.620 -0.3639  0.7542 -1.0262
  770MOL0     H 1593   5.742   1.049   5.335  0.5785 -0.4273  1.0739
  770MOL0     H 1594   5.560   0.728   5.480  0.8684 -1.0893 -0.8309
  770MOL0     H 1595   5.695   0.784   5.386 -0.1243  1.8619 -0.3550
  770MOL0     H 1596   5.484   0.692   5.263 -1.6920  0.0565  0.8711
  770MOL0     H 1597   5.527   0.870   5.225  1.2962 -1.3719 -1.0910
  770MOL0     H 1598   5.321   0.793   5.439  0.1120  0.1258  0.0837
  770MOL0     H 1599   5.329   0.943   5.343 -1.2208 -0.4698 -0.5258
  770MOL0     H 1600   5.236   0.833   5.153  0.6660 -0.9953 -0.5545
  770MOL0     H 1601   5.143   0.815   5.306  1.9867  1.1725  2.2937
  770MOL0     H 1602   5.214   0.400   5.181 -1.6796 -1.4354  0.8539
  770MOL0     H 1603   5.049   0.274   5.034 -1.8906 -0.7136  2.3476
  770MOL0     H 1604   4.684   0.402   4.649 -1.3787  1.0323 -0.4758
  770MOL0     H 1605   4.460   0.367   4.542  1.3405 -2.4930  0.2925
  770MOL0     H 1606   4.113   0.292   4.797  0.4781  3.2965 -1.7692
  770MOL0     H 1607   4.154   0.132   4.736  2.0045 -0.0899 -2.4643
  770MOL0     H 1608   4.038   0.190   4.512 -2.6011 -0.2040 -0.6231
  770MOL0     H 1609   3.995   0.347   4.602  2.4693  0.8728  2.3413
  770MOL0     H 1610   3.886   0.175   4.765 -0.6388 -0.1998  0.9320
  770MOL0     H 1611   3.908   0.040   4.654 -2.2269  0.4773 -0.9445
  770MOL0     H 1612   3.741   0.268   4.571  0.0156  0.3966  0.3582
  770MOL0     H 1613   3.772   0.118   4.477  0.7717 -0.9763  0.1701
  770MOL0     H 1614   3.665   0.167   4.751  1.0418  2.5065 -1.3612
  770MOL0     H 1615   3.659   0.007   4.670 -3.0758 -0.5655 -0.0153
  770MOL0     H 1616   3.498   0.092   4.509 -3.4349 -0.7297  1.0359
  770MOL0     H 1617   3.513   0.262   4.582 -1.3670  0.6030  2.5042
  770MOL0     H 1618   3.398   0.014   4.700 -1.7149 -0.3932 -0.5040
  770MOL0     H 1619   3.435   0.160   4.792  1.0507  1.3987 -1.1093
  770MOL0     H 1620   3.301   0.274   4.576 -0.5910 -0.2782 -1.7516
  770MOL0     H 1621   3.223   0.217   4.722  1.9398 -0.6130 -0.3460
  770MOL0     H 1622   4.291   0.265   4.929 -0.8230  0.9042 -0.7169
  770MOL0     H 1623   4.487   0.337   5.047 -0.7565  1.9567  0.6063
  770MOL0     H 1624   4.844   0.659   4.981 -0.3409  1.5797  1.7872
  770MOL0     H 1625   5.031   0.775   5.076 -4.2061  0.7911 -2.6015
  770MOL0     H 1626   6.779   1.144   5.819  1.0086 -0.4661  0.4247
  770MOL0     H 1627   7.021   1.064   5.782 -0.0042 -1.2872 -3.1461
  770MOL0     H 1628   7.335   0.904   5.437  3.1846  0.2858 -2.3431
  770MOL0     H 1629   7.590   0.886   5.452  2.3540 -3.2484  0.2073
  770MOL0     H 1630   7.836   0.884   5.529 -1.6554  0.6118  0.7652
  770MOL0     H 1631   7.758   0.749   5.449 -1.1046  0.9031  0.3884
  770MOL0     H 1632   7.906   0.590   5.544 -1.2974 -0.1684 -0.1383
  770MOL0     H 1633   8.007   0.701   5.463 -0.7834 -0.8378  0.0077
  770MOL0     H 1634   8.092   0.654   5.700 -2.0729 -2.3980  0.2121
  770MOL0     H 1635   7.933   0.711   5.752 -0.8528 -0.0369 -0.9062
  770MOL0     H 1636   8.185   0.871   5.710  0.1509  0.6668  0.0693
  770MOL0     H 1637   8.070   0.919   5.584  1.7920  0.8155 -0.3496
  770MOL0     H 1638   7.899   1.095   5.925  1.2126 -3.3652  2.2471
  770MOL0     H 1639   7.546   0.677   5.822  1.6027  0.8187 -0.1120
  770MOL0     H 1640   7.297   0.688   5.810  0.2098 -0.3029 -1.3364
  771MOL0     O 1641   8.065   8.886   0.105 -0.0727 -0.3385  0.5838
  771MOL0     C 1642   8.036   8.857  -0.008 -0.7254 -0.4587 -0.5934
  771MOL0     O 1643   7.914   8.873  -0.065  0.5750 -0.1448 -0.1219
  771MOL0     C 1644   7.821   8.934   0.018 -0.2106 -0.3769  0.2858
  771MOL0     C 1645   7.812   9.073   0.046  0.1322 -0.1267 -0.4482
  771MOL0     C 1646   7.708   9.122   0.124  0.2872 -0.2149  0.3223
  771MOL0     C 1647   7.615   9.038   0.183 -0.4496 -0.0744  0.8281
  771MOL0     O 1648   7.525   9.096   0.264 -0.0479  0.4826 -0.7814
  771MOL0     C 1649   7.413   9.009   0.312  0.6814 -0.2355 -0.3616
  771MOL0     C 1650   7.344   9.111   0.409  0.5811 -0.0721  0.7692
  771MOL0     C 1651   7.367   9.095   0.558  0.1390  0.1898  0.3133
  771MOL0     C 1652   7.293   9.201   0.642  0.9939  1.1086  0.0991
  771MOL0     C 1653   7.339   9.199   0.789 -0.0613  0.2684  0.1947
  771MOL0     C 1654   7.266   9.322   0.847 -0.0702 -0.2281 -0.2027
  771MOL0     C 1655   7.273   9.336   0.998  0.8597 -0.5868 -0.6663
  771MOL0     C 1656   7.194   9.456   1.031  0.1796 -0.2109  0.1763
  771MOL0     N 1657   7.206   9.468   1.180 -1.1236 -0.0461 -0.5258
  771MOL0     C 1658   7.305   9.541   1.245 -0.7211  0.3618 -0.3447
  771MOL0     C 1659   7.271   9.523   1.380  0.8828  0.1192 -0.4534
  771MOL0     C 1660   7.351   9.587   1.490 -0.2697 -0.0749  0.6344
  771MOL0     C 1661   7.481   9.516   1.537 -0.0536 -0.1035  0.3029
  771MOL0     C 1662   7.569   9.622   1.613 -0.2844  0.4011  0.2441
  771MOL0     C 1663   7.708   9.564   1.654 -0.6094 -0.0924  0.3808
  771MOL0     O 1664   7.801   9.677   1.681 -0.4806  0.1486  0.7684
  771MOL0     C 1665   7.935   9.648   1.686 -0.3999 -0.1476 -0.0041
  771MOL0     C 1666   7.988   9.520   1.684  0.6652 -0.3297  0.7820
  771MOL0     C 1667   8.119   9.493   1.688  0.2860 -0.5874 -1.1917
  771MOL0     C 1668   8.209   9.592   1.673  1.0707  0.3820 -0.5870
  771MOL0     C 1669   8.345   9.568   1.673 -0.7016  1.3201 -0.2172
  771MOL0     O 1670   8.437   9.667   1.647  0.2332 -0.3223  0.3585
  771MOL0     C 1671   8.569   9.633   1.662  0.0660 -0.8119  0.4147
  771MOL0     C 1672   8.642   9.704   1.753 -0.1826  0.8719  0.1460
  771MOL0     C 1673   8.784   9.694   1.744 -0.3351  0.4458 -0.1249
  771MOL0     C 1674   8.844   9.591   1.671 -0.3743 -0.2989 -0.7102
  771MOL0     O 1675   8.979   9.567   1.666 -0.4176 -0.4950 -0.5050
  771MOL0     C 1676   9.065   9.633   1.761 -0.2388 -0.0210 -0.0432
  771MOL0     C 1677   9.082   9.565   1.893  0.2019 -0.1265  0.1435
  771MOL0     C 1678   9.165   9.666   1.981 -0.2419 -0.7635 -0.3696
  771MOL0     C 1679   9.207   9.598   2.110 -0.2773 -0.3656 -0.4849
  771MOL0     C 1680   9.306   9.689   2.189  0.1506 -0.4184 -0.5943
  771MOL0     C 1681   9.346   9.640   2.328 -0.0981 -0.9425  0.1782
  771MOL0     C 1682   9.452   9.725   2.402  0.3891  0.8452 -0.0487
  771MOL0     C 1683   9.476   9.670   2.543 -0.3018  0.5994 -0.6658
  771MOL0    Cl 1684   9.617   9.751   2.626 -0.0883  0.1995  0.4483
  771MOL0     C 1685   8.769   9.514   1.592 -0.6139  0.1483  0.4415
  771MOL0     C 1686   8.634   9.540   1.582 -0.0573 -0.3590  0.0375
  771MOL0     O 1687   8.372   9.459   1.725 -0.1026  0.0752  0.3025
  771MOL0     C 1688   8.167   9.724   1.691 -0.7056 -0.4731 -0.5992
  771MOL0     C 1689   8.025   9.755   1.696 -1.4147  0.3779  0.5663
  771MOL0     N 1690   7.161   9.448   1.391  0.4250  0.2049  0.5202
  771MOL0     N 1691   7.121   9.415   1.277 -1.0682  0.0656  0.1263
  771MOL0     C 1692   7.620   8.897   0.162  0.0923 -0.7553  0.4623
  771MOL0     C 1693   7.724   8.854   0.073  0.5105 -0.0911 -0.0036
  771MOL0     C 1694   8.144   8.806  -0.089  0.7357  0.6682  0.3059
  771MOL0     C 1695   8.278   8.842  -0.073 -0.4837  0.7049  0.4934
  771MOL0     C 1696   8.377   8.782  -0.152 -0.4864 -0.0923 -0.1400
  771MOL0     C 1697   8.342   8.701  -0.255 -0.9612 -0.3027  0.3834
  771MOL0     O 1698   8.427   8.640  -0.338 -0.1283  0.2136  0.5051
  771MOL0     C 1699   8.547   8.598  -0.268 -0.5374  0.6415  0.4372
  771MOL0     C 1700   8.664   8.689  -0.308 -0.3433  0.6703  0.9909
  771MOL0     C 1701   8.802   8.677  -0.247 -1.0349 -0.6014 -0.6985
  771MOL0     C 1702   8.845   8.534  -0.231  0.1367 -0.1581 -0.9279
  771MOL0     C 1703   8.989   8.537  -0.188  1.8163  0.2032  0.2836
  771MOL0     C 1704   9.111   8.533  -0.169  0.6480  0.4480 -0.6835
  771MOL0     C 1705   8.212   8.671  -0.268 -0.3531  0.3791  1.0213
  771MOL0     C 1706   8.111   8.721  -0.190 -0.0001 -0.3713  0.1750
  771MOL0     H 1707   7.882   9.141  -0.002 -0.9056 -0.1461 -2.0539
  771MOL0     H 1708   7.703   9.226   0.154 -4.6858 -0.5598  1.6673
  771MOL0     H 1709   7.443   8.924   0.373  0.1723 -0.1034  0.0748
  771MOL0     H 1710   7.356   8.972   0.226 -1.4961  1.4857  0.2446
  771MOL0     H 1711   7.238   9.101   0.385  0.9318 -1.5306 -0.3079
  771MOL0     H 1712   7.376   9.212   0.381  0.4012  0.1144  1.2245
  771MOL0     H 1713   7.474   9.108   0.579 -0.1418 -0.0532  2.0461
  771MOL0     H 1714   7.346   9.003   0.612 -2.2002 -1.0579 -2.4840
  771MOL0     H 1715   7.315   9.302   0.607  2.3520  1.9144  2.9882
  771MOL0     H 1716   7.188   9.171   0.632  1.2779 -0.4669  1.5116
  771MOL0     H 1717   7.447   9.202   0.809  0.0021 -0.7501  0.0440
  771MOL0     H 1718   7.300   9.106   0.830 -3.4890  0.2678 -2.6220
  771MOL0     H 1719   7.162   9.315   0.813  0.5500 -1.5830 -1.9806
  771MOL0     H 1720   7.304   9.413   0.801  0.0314 -1.2876 -2.3553
  771MOL0     H 1721   7.218   9.253   1.044 -0.0473  1.3191  1.9224
  771MOL0     H 1722   7.376   9.327   1.034  0.0380  0.6956  2.3280
  771MOL0     H 1723   7.091   9.434   1.002  0.5485  0.9861 -2.2365
  771MOL0     H 1724   7.240   9.542   0.982 -0.3430 -1.4313 -2.6104
  771MOL0     H 1725   7.381   9.605   1.202  1.1247 -1.8387 -0.5814
  771MOL0     H 1726   7.295   9.602   1.583  2.9120  0.1705  2.6766
  771MOL0     H 1727   7.372   9.689   1.456 -2.3934  0.8883  2.0263
  771MOL0     H 1728   7.534   9.489   1.445 -0.7154  5.2466 -1.9750
  771MOL0     H 1729   7.448   9.437   1.606 -3.1825 -0.0391 -0.9431
  771MOL0     H 1730   7.597   9.696   1.538 -2.7529  0.7124 -0.4494
  771MOL0     H 1731   7.514   9.672   1.693 -1.6546  2.1215 -1.6836
  771MOL0     H 1732   7.734   9.496   1.573 -1.2173 -1.8857  1.6310
  771MOL0     H 1733   7.721   9.507   1.746 -0.1639 -1.0346 -0.2463
  771MOL0     H 1734   7.923   9.434   1.697 -0.1152  0.4853  2.6492
  771MOL0     H 1735   8.151   9.389   1.697 -0.1550 -0.5454  2.8772
  771MOL0     H 1736   8.600   9.772   1.826 -0.0828 -1.4251  2.4539
  771MOL0     H 1737   8.849   9.758   1.802 -0.8799 -0.7711  1.9340
  771MOL0     H 1738   9.052   9.742   1.764  2.8576  0.4290  1.4652
  771MOL0     H 1739   9.159   9.637   1.704  0.3154  0.4740  0.8804
  771MOL0     H 1740   9.131   9.470   1.873  0.0570 -0.0921 -0.4019
  771MOL0     H 1741   8.985   9.542   1.940 -0.6637  0.0257 -1.4869
  771MOL0     H 1742   9.095   9.749   1.996  1.5290  0.9954 -1.4437
  771MOL0     H 1743   9.243   9.704   1.916 -1.4013 -0.2154 -1.4837
  771MOL0     H 1744   9.117   9.594   2.172 -0.3898  0.2390 -0.5981
  771MOL0     H 1745   9.255   9.504   2.082  0.4086  0.2789 -1.5145
  771MOL0     H 1746   9.260   9.783   2.220  1.0557 -0.4689  0.9940
  771MOL0     H 1747   9.395   9.705   2.129  2.3179  0.3298  2.5483
  771MOL0     H 1748   9.393   9.544   2.305  0.3264 -0.9079  0.8626
  771MOL0     H 1749   9.255   9.628   2.387  0.8205 -1.0902  1.6354
  771MOL0     H 1750   9.546   9.710   2.348  1.8076 -0.1269  2.4769
  771MOL0     H 1751   9.415   9.828   2.403  0.3407  0.8952  2.8506
  771MOL0     H 1752   9.488   9.562   2.542  0.2084  0.6497 -0.4171
  771MOL0     H 1753   9.393   9.685   2.613  2.0421 -0.2376  2.4997
  771MOL0     H 1754   8.808   9.422   1.549  0.2371 -0.3217  2.1349
  771MOL0     H 1755   8.570   9.471   1.527  1.5574 -2.3778  0.5663
  771MOL0     H 1756   8.241   9.803   1.693  1.4993 -2.4082 -0.6494
  771MOL0     H 1757   7.999   9.860   1.692 -0.1602  0.7034  0.6080
  771MOL0     H 1758   7.558   8.831   0.222 -0.5765  2.5076  3.7403
  771MOL0     H 1759   7.735   8.746   0.066 -2.8092 -0.4713 -0.6855
  771MOL0     H 1760   8.293   8.918   0.002  1.0056  0.4713  0.4612
  771MOL0     H 1761   8.478   8.820  -0.147 -1.0151  1.8616 -2.0762
  771MOL0     H 1762   8.575   8.495  -0.292 -1.9792  0.5003 -0.7837
  771MOL0     H 1763   8.527   8.602  -0.161 -2.4509  1.7619  0.0830
  771MOL0     H 1764   8.681   8.680  -0.415  0.3318 -0.4527  1.1786
  771MOL0     H 1765   8.626   8.790  -0.290 -1.0789  0.2631  1.8274
  771MOL0     H 1766   8.793   8.705  -0.141  0.4887 -0.3093 -0.6133
  771MOL0     H 1767   8.880   8.737  -0.294 -0.3337 -2.0325 -1.4175
  771MOL0     H 1768   8.797   8.487  -0.144  1.8798 -1.2062 -0.4823
  771MOL0     H 1769   8.840   8.469  -0.318 -0.6510 -0.3353 -0.7558
  771MOL0     H 1770   9.214   8.511  -0.147  0.2227 -1.3074 -0.3129
  771MOL0     H 1771   8.175   8.606  -0.346 -0.7474 -0.2942  1.7540
  771MOL0     H 1772   8.005   8.700  -0.203  0.0054 -2.6619  2.7925
  772MOL0     O 1773   8.959   3.025   5.006 -0.1705  0.8328 -0.4020
  772MOL0     C 1774   9.044   2.936   5.031  0.0612 -0.2901  0.0590
  772MOL0     O 1775   9.011   2.817   5.094 -0.5703  0.0145 -0.1134
  772MOL0     C 1776   8.904   2.821   5.173  0.2413 -0.0472 -0.1142
  772MOL0     C 1777   8.777   2.808   5.126 -0.8459  0.4951 -0.0595
  772MOL0     C 1778   8.666   2.818   5.206  0.7889  0.2838  0.2326
  772MOL0     C 1779   8.691   2.842   5.345 -0.4877  0.3433 -0.4666
  772MOL0     O 1780   8.583   2.849   5.435 -0.2286  0.5200 -0.2724
  772MOL0     C 1781   8.584   2.973   5.518  0.1349  0.7003  0.1690
  772MOL0     C 1782   8.515   3.083   5.434 -0.8344 -0.8062 -0.1497
  772MOL0     C 1783   8.396   3.046   5.349  0.5003 -0.3797  0.0524
  772MOL0     C 1784   8.289   2.975   5.431  0.1614 -1.1796  0.3662
  772MOL0     C 1785   8.175   2.953   5.330  0.4855  0.8942 -0.6659
  772MOL0     C 1786   8.045   2.906   5.390 -0.3875  0.2086 -0.1595
  772MOL0     C 1787   7.919   2.927   5.289 -0.6222  0.2586  0.2316
  772MOL0     C 1788   7.922   2.812   5.181  0.0111  0.4743 -0.2873
  772MOL0     N 1789   7.914   2.680   5.238  0.1270  0.7368  0.1820
  772MOL0     C 1790   7.799   2.599   5.218  0.2635 -0.4879  0.3268
  772MOL0     C 1791   7.845   2.474   5.247  1.1423  0.7433  0.3646
  772MOL0     C 1792   7.777   2.339   5.239  0.2325 -0.2481 -0.4078
  772MOL0     C 1793   7.861   2.246   5.151  0.5958 -0.3778  0.1425
  772MOL0     C 1794   7.883   2.296   5.005 -0.4972 -0.3725  0.2060
  772MOL0     C 1795   7.749   2.315   4.933 -0.4187  0.2513  0.5765
  772MOL0     O 1796   7.683   2.187   4.928 -0.5342  0.4046 -0.1172
  772MOL0     C 1797   7.543   2.189   4.905 -0.5299 -0.2160 -0.4931
  772MOL0     C 1798   7.460   2.308   4.899  0.6528  0.7348  0.3362
  772MOL0     C 1799   7.318   2.301   4.894 -0.0203  0.2801 -0.7273
  772MOL0     C 1800   7.255   2.177   4.877  0.0667 -0.7345  0.3427
  772MOL0     C 1801   7.107   2.173   4.856  0.5400  0.1086 -0.0020
  772MOL0     O 1802   7.044   2.293   4.841  1.0483 -0.3748  0.1319
  772MOL0     C 1803   6.906   2.293   4.851  0.6317  0.5878 -0.7723
  772MOL0     C 1804   6.820   2.349   4.748 -0.2505 -0.3471  0.2308
  772MOL0     C 1805   6.682   2.340   4.767 -0.4423 -0.5340  0.3064
  772MOL0     C 1806   6.623   2.284   4.873 -0.6573  0.4611 -0.4394
  772MOL0     O 1807   6.486   2.264   4.874 -0.5092  0.3658  0.2194
  772MOL0     C 1808   6.430   2.200   4.989 -0.3696  0.6230 -0.3755
  772MOL0     C 1809   6.299   2.146   4.943 -0.1064 -0.6419 -0.0645
  772MOL0     C 1810   6.309   2.015   4.874  0.2536  0.2011  0.4288
  772MOL0     C 1811   6.170   1.956   4.828  0.7098 -0.7666 -0.0975
  772MOL0     C 1812   6.098   2.052   4.730 -0.5406  0.3732 -0.1977
  772MOL0     C 1813   5.990   1.978   4.662 -0.3281  0.2115  0.2517
  772MOL0     C 1814   5.863   1.953   4.749 -0.7938  0.2913 -0.5809
  772MOL0     C 1815   5.785   2.073   4.781  0.1230  0.2848 -0.4091
  772MOL0    Cl 1816   5.686   2.025   4.916 -0.6417 -0.0610 -0.0494
  772MOL0     C 1817   6.705   2.249   4.988  0.0509 -0.1315 -0.1971
  772MOL0     C 1818   6.843   2.244   4.971  0.2072 -0.0629  0.1588
  772MOL0     O 1819   7.047   2.065   4.852 -0.9518 -0.0827  0.0596
  772MOL0     C 1820   7.338   2.062   4.874 -0.3742  0.7891  0.0522
  772MOL0     C 1821   7.475   2.071   4.889 -0.3581  0.2111 -0.0269
  772MOL0     N 1822   7.980   2.486   5.283  0.1066 -0.0511  0.3783
  772MOL0     N 1823   8.015   2.608   5.277  1.6504  0.3988 -0.4390
  772MOL0     C 1824   8.824   2.860   5.398 -0.4515  0.4654 -0.4961
  772MOL0     C 1825   8.929   2.846   5.308 -0.5834 -1.1457 -0.0726
  772MOL0     C 1826   9.172   2.947   4.963  0.7641 -0.1830 -0.3516
  772MOL0     C 1827   9.206   3.067   4.898  0.1923  1.0022 -0.2136
  772MOL0     C 1828   9.337   3.079   4.852 -0.5391 -0.2400 -0.8267
  772MOL0     C 1829   9.425   2.962   4.855  0.3888 -0.4338 -0.0407
  772MOL0     O 1830   9.547   2.952   4.801  0.1856 -0.3746 -0.0838
  772MOL0     C 1831   9.632   3.069   4.787 -0.0989 -0.0623 -0.1661
  772MOL0     C 1832   9.638   3.122   4.638 -0.1508  0.0037  0.4131
  772MOL0     C 1833   9.690   3.026   4.533 -0.5895  0.6679  0.4395
  772MOL0     C 1834   9.841   2.993   4.540 -0.9432 -0.2935  0.8871
  772MOL0     C 1835   9.904   2.968   4.411  0.4416  2.0048  0.9469
  772MOL0     C 1836   9.927   2.953   4.290 -0.1371 -0.1757 -0.0230
  772MOL0     C 1837   9.379   2.843   4.913  0.0067 -0.4286 -0.3807
  772MOL0     C 1838   9.254   2.839   4.972  0.4397 -0.3559 -0.7124
  772MOL0     H 1839   8.761   2.790   5.020  0.0981  2.3705 -0.5439
  772MOL0     H 1840   8.567   2.799   5.166  1.9049 -1.4944 -1.8853
  772MOL0     H 1841   8.684   3.007   5.546  1.0867  0.7107 -2.8102
  772MOL0     H 1842   8.521   2.945   5.602 -0.2446 -0.4675 -0.4768
  772MOL0     H 1843   8.588   3.126   5.365 -0.2843 -0.6749  0.5125
  772MOL0     H 1844   8.487   3.161   5.506  0.9442 -1.7859  1.7018
  772MOL0     H 1845   8.428   2.988   5.262 -1.9877  0.6434 -1.6587
  772MOL0     H 1846   8.357   3.135   5.300  0.5825 -0.0127  0.6380
  772MOL0     H 1847   8.333   2.878   5.452 -0.9255 -1.3201  2.2685
  772MOL0     H 1848   8.260   3.021   5.526  0.3956  2.4720 -1.1760
  772MOL0     H 1849   8.200   2.884   5.250  0.4758 -1.6445  1.3884
  772MOL0     H 1850   8.153   3.051   5.286  1.8585  0.5439 -2.2011
  772MOL0     H 1851   8.023   2.975   5.472 -2.6823 -0.6617  0.0243
  772MOL0     H 1852   8.055   2.802   5.422  1.5548  0.3682 -0.1300
  772MOL0     H 1853   7.830   2.912   5.349 -0.4417  3.2698  1.4452
  772MOL0     H 1854   7.926   3.016   5.225 -2.4546  0.5456  0.3769
  772MOL0     H 1855   8.020   2.816   5.132  0.8604  1.0463  1.3780
  772MOL0     H 1856   7.848   2.817   5.101  1.9190  1.8935 -2.0997
  772MOL0     H 1857   7.703   2.642   5.191 -0.2029 -0.7795  1.4412
  772MOL0     H 1858   7.676   2.362   5.204 -0.4196  1.3280  2.2557
  772MOL0     H 1859   7.764   2.294   5.338 -0.1607 -0.4775 -0.5626
  772MOL0     H 1860   7.817   2.146   5.144 -2.2317  0.7511  0.2905
  772MOL0     H 1861   7.956   2.230   5.203  1.5698 -1.3842 -1.8555
  772MOL0     H 1862   7.934   2.392   5.007  1.3670 -1.3306  0.6774
  772MOL0     H 1863   7.950   2.234   4.945  1.1535  1.7161 -0.2299
  772MOL0     H 1864   7.772   2.348   4.831  1.1696 -2.9338 -0.2528
  772MOL0     H 1865   7.697   2.388   4.995 -0.8710  0.0188  0.4759
  772MOL0     H 1866   7.509   2.404   4.903  1.7711  0.1436  1.5436
  772MOL0     H 1867   7.248   2.384   4.896 -3.4266 -2.3264  1.5559
  772MOL0     H 1868   6.875   2.389   4.663  1.6254 -0.8402  1.1638
  772MOL0     H 1869   6.623   2.375   4.683  0.2278  3.0435  1.1476
  772MOL0     H 1870   6.425   2.270   5.074  0.0163 -0.6261  0.7035
  772MOL0     H 1871   6.486   2.118   5.033 -0.2577  0.2932 -1.1249
  772MOL0     H 1872   6.264   2.223   4.874  0.7410  0.4292  0.6581
  772MOL0     H 1873   6.232   2.138   5.029  1.0762 -1.1101  0.8425
  772MOL0     H 1874   6.346   1.945   4.949  0.7712 -0.0494 -0.0477
  772MOL0     H 1875   6.380   2.012   4.790 -0.5734  1.1089 -0.3376
  772MOL0     H 1876   6.199   1.864   4.777  3.7433  0.9769 -1.8410
  772MOL0     H 1877   6.110   1.948   4.919 -0.4618  0.8434 -0.6794
  772MOL0     H 1878   6.165   2.094   4.653 -0.1560  0.4031  0.1488
  772MOL0     H 1879   6.064   2.143   4.780 -3.5412  0.4477 -2.1092
  772MOL0     H 1880   6.040   1.890   4.620 -0.6348  0.7255 -1.2614
  772MOL0     H 1881   5.958   2.036   4.575 -0.8654 -0.9127 -0.3039
  772MOL0     H 1882   5.797   1.877   4.707 -0.5459 -1.3130  1.7535
  772MOL0     H 1883   5.897   1.899   4.837  1.2938  1.0092 -0.8731
  772MOL0     H 1884   5.715   2.107   4.704 -0.4800  0.2204  0.1014
  772MOL0     H 1885   5.852   2.155   4.806  0.9969  0.8056 -3.8897
  772MOL0     H 1886   6.666   2.183   5.066 -0.9810 -1.3946 -1.7020
  772MOL0     H 1887   6.890   2.196   5.056 -2.0474 -0.2394  1.3781
  772MOL0     H 1888   7.289   1.966   4.861  2.4223 -0.8613  0.9703
  772MOL0     H 1889   7.539   1.983   4.892 -0.5941  0.0646  0.9128
  772MOL0     H 1890   8.853   2.881   5.501 -0.2766  1.2241 -0.6935
  772MOL0     H 1891   9.029   2.865   5.347 -0.4418 -0.2351 -0.8580
  772MOL0     H 1892   9.143   3.155   4.889  2.0489  2.2232 -2.2449
  772MOL0     H 1893   9.378   3.174   4.819  1.9334 -0.4009  1.4142
  772MOL0     H 1894   9.734   3.037   4.806 -0.4341 -1.7681 -1.0688
  772MOL0     H 1895   9.596   3.148   4.853 -1.5202 -0.7211 -0.1138
  772MOL0     H 1896   9.538   3.155   4.608 -0.6443  0.3153  2.3167
  772MOL0     H 1897   9.694   3.216   4.642 -0.4163  0.2788 -1.3774
  772MOL0     H 1898   9.669   3.063   4.433 -0.3351  0.8010  0.4354
  772MOL0     H 1899   9.633   2.934   4.551 -1.6538  0.7135 -2.3042
  772MOL0     H 1900   9.893   3.077   4.586  0.0192 -1.3649  1.8196
  772MOL0     H 1901   9.841   2.903   4.603  0.2327 -0.4154  0.7321
  772MOL0     H 1902   9.921   2.953   4.183 -1.0623  0.4279  0.0106
  772MOL0     H 1903   9.448   2.761   4.893 -0.6489 -1.7203  2.2750
  772MOL0     H 1904   9.215   2.746   5.012 -0.4210  0.0285 -0.6486
  773MOL0     O 1905   0.714   5.645   0.023 -0.4464 -0.4602 -0.2628
  773MOL0     C 1906   0.675   5.761   0.019  0.3365  0.1877 -0.3754
  773MOL0     O 1907   0.759   5.873   0.027  0.6091  0.3608  0.0963
  773MOL0     C 1908   0.891   5.856   0.028 -0.3239  0.3413  0.1858
  773MOL0     C 1909   0.936   5.784   0.134 -0.2211 -0.0952 -0.0368
  773MOL0     C 1910   1.067   5.745   0.140  0.4725  1.2600  0.2620
  773MOL0     C 1911   1.163   5.787   0.046 -0.2749 -0.1498  0.1499
  773MOL0     O 1912   1.299   5.754   0.052  0.2076  0.0939 -0.0076
  773MOL0     C 1913   1.383   5.862   0.074 -0.7536  0.6580 -0.2325
  773MOL0     C 1914   1.534   5.818   0.075 -0.2049 -0.6849 -0.4380
  773MOL0     C 1915   1.575   5.757  -0.054 -0.4718  0.2015 -0.2013
  773MOL0     C 1916   1.721   5.732  -0.071  1.1857 -1.0694 -0.1463
  773MOL0     C 1917   1.733   5.674  -0.218  0.6276 -0.1047 -0.1918
  773MOL0     C 1918   1.882   5.636  -0.250  0.3414  0.0883 -0.3533
  773MOL0     C 1919   1.933   5.506  -0.173  0.1799 -1.0633 -0.3368
  773MOL0     C 1920   2.079   5.468  -0.210 -0.3297 -1.0455 -0.1812
  773MOL0     N 1921   2.175   5.588  -0.215 -0.0334  0.8674  0.3513
  773MOL0     C 1922   2.200   5.676  -0.110 -0.5059 -0.2887 -0.1460
  773MOL0     C 1923   2.310   5.745  -0.142 -1.0084 -0.1826 -0.4647
  773MOL0     C 1924   2.380   5.848  -0.052  0.4555 -0.0413  0.2826
  773MOL0     C 1925   2.367   5.993  -0.095  0.7702  0.5535  0.4993
  773MOL0     C 1926   2.388   6.099   0.020 -0.5722 -0.8658  0.5357
  773MOL0     C 1927   2.274   6.124   0.114  0.5257  0.3498 -0.9061
  773MOL0     O 1928   2.188   6.219   0.053  0.3863 -0.2886  0.1906
  773MOL0     C 1929   2.055   6.236   0.099  0.5081 -0.1030  0.4041
  773MOL0     C 1930   1.934   6.169   0.045  0.3786 -0.5178  0.0537
  773MOL0     C 1931   1.808   6.175   0.115  0.0194 -0.2314 -0.0365
  773MOL0     C 1932   1.796   6.237   0.237  1.0218  0.4237  0.7135
  773MOL0     C 1933   1.667   6.228   0.317 -0.4982 -0.0164  0.4783
  773MOL0     O 1934   1.649   6.332   0.406 -0.6094  0.1219 -0.0727
  773MOL0     C 1935   1.529   6.338   0.471  0.1892  0.1520  0.4758
  773MOL0     C 1936   1.409   6.293   0.412  1.1211 -0.7046  0.3623
  773MOL0     C 1937   1.286   6.331   0.469  0.3281  0.0404  0.3684
  773MOL0     C 1938   1.276   6.421   0.573 -0.2800 -0.4549  0.1689
  773MOL0     O 1939   1.164   6.474   0.632 -0.6170  1.6807  0.1873
  773MOL0     C 1940   1.036   6.427   0.571  0.5758 -0.0049 -0.6182
  773MOL0     C 1941   0.942   6.471   0.676 -0.0188 -0.6427 -0.5465
  773MOL0     C 1942   0.801   6.430   0.635 -0.2586  0.4345 -0.1031
  773MOL0     C 1943   0.714   6.476   0.751  1.1976 -0.4879 -0.0711
  773MOL0     C 1944   0.580   6.398   0.760 -0.4858 -0.0868  0.3646
  773MOL0     C 1945   0.504   6.430   0.881 -0.2319 -0.4675 -0.5883
  773MOL0     C 1946   0.377   6.350   0.896 -0.1205  0.4762  0.3494
  773MOL0     C 1947   0.409   6.202   0.935 -0.0157 -0.0069  0.2869
  773MOL0    Cl 1948   0.262   6.096   0.948 -0.4732  0.4103  0.2884
  773MOL0     C 1949   1.392   6.458   0.644  0.1022  1.2257  0.1440
  773MOL0     C 1950   1.520   6.411   0.587 -0.3244  0.3273  0.0820
  773MOL0     O 1951   1.606   6.128   0.321 -0.0820  0.6681 -0.9235
  773MOL0     C 1952   1.902   6.329   0.274  0.0288 -0.3166 -0.7222
  773MOL0     C 1953   2.023   6.314   0.214  1.0156  0.4724 -0.0408
  773MOL0     N 1954   2.347   5.710  -0.265  0.0031 -0.8139 -0.0788
  773MOL0     N 1955   2.268   5.617  -0.309  0.2877 -0.0485  0.9719
  773MOL0     C 1956   1.110   5.851  -0.065  0.5857  0.2913  0.0529
  773MOL0     C 1957   0.974   5.878  -0.078 -0.6367  0.2664  0.5909
  773MOL0     C 1958   0.533   5.792   0.040  0.1069  1.1204 -0.3302
  773MOL0     C 1959   0.434   5.698   0.004 -0.4696  0.2172  0.2254
  773MOL0     C 1960   0.297   5.735   0.020  0.6097 -1.0027  0.1900
  773MOL0     C 1961   0.261   5.856   0.074  0.2775  0.2833 -0.3320
  773MOL0     O 1962   0.133   5.896   0.100  0.6147 -0.5683  0.5253
  773MOL0     C 1963   0.023   5.809   0.065  0.4269  0.4038  0.0380
  773MOL0     C 1964  -0.101   5.878   0.111 -0.5346  0.0932  0.0133
  773MOL0     C 1965  -0.224   5.792   0.078  0.4761  0.4277  0.7968
  773MOL0     C 1966  -0.362   5.870   0.084 -0.2614 -0.0870  0.3828
  773MOL0     C 1967  -0.476   5.778   0.087  0.4648  0.3237 -1.1775
  773MOL0     C 1968  -0.585   5.717   0.089 -0.5916 -0.1754 -0.7654
  773MOL0     C 1969   0.360   5.938   0.125 -0.3253  0.4684 -0.7305
  773MOL0     C 1970   0.499   5.904   0.111  0.8798  0.0918 -0.3922
  773MOL0     H 1971   0.883   5.759   0.225 -0.5396 -1.6659 -0.6296
  773MOL0     H 1972   1.091   5.680   0.224  0.5798  0.4315 -0.3988
  773MOL0     H 1973   1.360   5.906   0.171 -1.0863  1.2649 -0.5838
  773MOL0     H 1974   1.362   5.931  -0.008 -1.8911  0.4049 -0.1739
  773MOL0     H 1975   1.564   5.749   0.154 -0.9573 -1.7545 -1.0653
  773MOL0     H 1976   1.597   5.907   0.088  0.8355 -1.7978  3.0063
  773MOL0     H 1977   1.539   5.820  -0.136 -0.0896 -1.0620 -1.3961
  773MOL0     H 1978   1.526   5.659  -0.052 -1.2160  0.5541 -0.6038
  773MOL0     H 1979   1.769   5.831  -0.070  0.9544 -0.9539  1.1039
  773MOL0     H 1980   1.755   5.668   0.010  1.6702  2.4033  2.6591
  773MOL0     H 1981   1.716   5.751  -0.294 -0.4994  2.0855  2.1468
  773MOL0     H 1982   1.680   5.580  -0.238  1.1306 -0.1054 -1.6478
  773MOL0     H 1983   1.940   5.724  -0.220 -1.1867  0.1719  2.6431
  773MOL0     H 1984   1.882   5.608  -0.356  0.4055  1.3970 -0.7197
  773MOL0     H 1985   1.925   5.512  -0.064 -0.4785 -2.1033 -0.3184
  773MOL0     H 1986   1.878   5.414  -0.193 -1.0144 -1.8919  5.1719
  773MOL0     H 1987   2.083   5.423  -0.309  4.0853  0.7490 -1.0157
  773MOL0     H 1988   2.127   5.396  -0.142 -0.1071  0.8102  1.7120
  773MOL0     H 1989   2.148   5.695  -0.016  0.6140  2.8072 -0.0340
  773MOL0     H 1990   2.489   5.833  -0.054  0.2717 -1.4264 -0.0848
  773MOL0     H 1991   2.349   5.834   0.052  1.6392  1.2137  0.8483
  773MOL0     H 1992   2.270   6.009  -0.142  0.0873 -2.5754  0.6259
  773MOL0     H 1993   2.432   6.012  -0.181  0.1244 -1.2219 -0.4266
  773MOL0     H 1994   2.476   6.077   0.082  1.0903  3.1144 -0.1377
  773MOL0     H 1995   2.406   6.191  -0.036  0.0030 -1.1403  0.2570
  773MOL0     H 1996   2.302   6.165   0.212 -1.3349  2.2380 -1.0761
  773MOL0     H 1997   2.219   6.035   0.146  0.3861  0.1935 -1.5707
  773MOL0     H 1998   1.939   6.110  -0.046  0.8033  1.3331 -1.1806
  773MOL0     H 1999   1.728   6.115   0.073 -0.1410  0.1611 -0.3021
  773MOL0     H 2000   1.401   6.232   0.323  0.2171  0.3360 -0.2963
  773MOL0     H 2001   1.203   6.285   0.415 -1.5051  1.6774  1.6644
  773MOL0     H 2002   1.033   6.318   0.562  0.2741 -0.0930  0.4733
  773MOL0     H 2003   1.018   6.482   0.478  1.3086  2.1914  0.4675
  773MOL0     H 2004   0.962   6.578   0.685  0.3879 -0.9157  3.8349
  773MOL0     H 2005   0.964   6.433   0.776 -2.3387 -1.4746 -0.2818
  773MOL0     H 2006   0.810   6.321   0.626 -1.3100  0.3344 -0.1042
  773MOL0     H 2007   0.770   6.476   0.541  0.5493  0.3791 -0.4099
  773MOL0     H 2008   0.753   6.455   0.851  1.6701  0.7367  0.0327
  773MOL0     H 2009   0.709   6.586   0.756 -0.9776 -0.5845  0.7412
  773MOL0     H 2010   0.601   6.292   0.743 -1.2094 -0.3056  0.8142
  773MOL0     H 2011   0.526   6.443   0.676  1.6476 -0.7524 -1.4583
  773MOL0     H 2012   0.480   6.537   0.883  0.9833 -0.1823 -0.5115
  773MOL0     H 2013   0.563   6.411   0.971 -2.3664  0.2826  1.0545
  773MOL0     H 2014   0.313   6.384   0.977  0.6269 -1.4977  1.8538
  773MOL0     H 2015   0.315   6.344   0.806 -1.1588  0.6416  1.0472
  773MOL0     H 2016   0.450   6.203   1.036  3.1553  1.4040 -0.8578
  773MOL0     H 2017   0.483   6.156   0.868  0.1906  1.4172 -0.5235
  773MOL0     H 2018   1.379   6.503   0.742  2.3150 -1.2967  1.7371
  773MOL0     H 2019   1.613   6.437   0.636 -0.0733  2.7921 -1.5696
  773MOL0     H 2020   1.902   6.376   0.372 -1.8590 -2.5536  0.4497
  773MOL0     H 2021   2.107   6.373   0.248  0.5021  0.6240  1.0133
  773MOL0     H 2022   1.181   5.874  -0.143 -0.4910 -0.1229 -1.0905
  773MOL0     H 2023   0.937   5.936  -0.161 -2.2640 -1.1547  0.2585
  773MOL0     H 2024   0.453   5.602  -0.043  0.1290  1.1367 -1.5061
  773MOL0     H 2025   0.222   5.663  -0.013  0.0097 -0.9195  1.3390
  773MOL0     H 2026   0.035   5.712   0.114 -1.2854  1.1696  2.1831
  773MOL0     H 2027   0.023   5.787  -0.042  0.7169 -1.2206  0.3395
  773MOL0     H 2028  -0.082   5.892   0.218  0.4617 -0.7381 -0.0408
  773MOL0     H 2029  -0.117   5.967   0.050 -2.4061 -2.1581 -3.1245
  773MOL0     H 2030  -0.223   5.714   0.154 -0.2708 -0.2789  0.0975
  773MOL0     H 2031  -0.219   5.752  -0.024  1.4789  2.5739 -0.0552
  773MOL0     H 2032  -0.354   5.925   0.178  1.2994 -0.5922  0.5788
  773MOL0     H 2033  -0.373   5.940   0.000 -3.1862  0.2189  0.9229
  773MOL0     H 2034  -0.685   5.681   0.088  0.0022 -1.8889 -1.6501
  773MOL0     H 2035   0.336   6.019   0.194 -1.1261  0.5949 -1.1462
  773MOL0     H 2036   0.573   5.972   0.151 -1.1649 -1.4555  7.8286
  774MOL0     O 2037   6.139   0.149   7.596 -0.2511 -0.1854 -0.0303
  774MOL0     C 2038   6.261   0.163   7.611  0.3837 -0.0641 -0.5703
  774MOL0     O 2039   6.368   0.096   7.561 -0.0489  0.0409  0.7007
  774MOL0     C 2040   6.338  -0.010   7.475 -0.2860  0.1196 -0.0557
  774MOL0     C 2041   6.237  -0.103   7.489 -0.0045  0.6159 -0.1456
  774MOL0     C 2042   6.224  -0.210   7.394 -0.6397  0.2196 -0.0200
  774MOL0     C 2043   6.313  -0.211   7.286  0.2486 -0.0044 -0.5151
  774MOL0     O 2044   6.279  -0.290   7.180  0.5944 -0.0915 -0.6137
  774MOL0     C 2045   6.352  -0.414   7.184 -0.5823  0.0510  0.6971
  774MOL0     C 2046   6.310  -0.503   7.074 -0.0699  0.4133 -0.3752
  774MOL0     C 2047   6.407  -0.624   7.090  0.3403  0.9345  0.1780
  774MOL0     C 2048   6.383  -0.733   6.979 -0.7944 -0.3057 -0.0985
  774MOL0     C 2049   6.508  -0.834   6.966  0.1886  0.0800 -0.0873
  774MOL0     C 2050   6.483  -0.930   6.859  0.3517 -0.1330  0.2130
  774MOL0     C 2051   6.337  -0.992   6.858 -1.1897  0.1305 -0.4483
  774MOL0     C 2052   6.314  -1.117   6.765 -0.5369 -0.8346 -0.6240
  774MOL0     N 2053   6.176  -1.167   6.768  0.4275 -1.2816 -0.5065
  774MOL0     C 2054   6.058  -1.097   6.796  0.3091 -0.3160 -0.0568
  774MOL0     C 2055   5.961  -1.190   6.786 -0.5802 -0.2944 -0.4352
  774MOL0     C 2056   5.820  -1.165   6.823  0.7228 -0.3355 -0.0171
  774MOL0     C 2057   5.723  -1.138   6.706 -0.1034 -0.6038  0.2164
  774MOL0     C 2058   5.708  -1.254   6.605  0.1733 -1.0861 -0.4137
  774MOL0     C 2059   5.628  -1.209   6.481 -0.5227  1.0218  0.8597
  774MOL0     O 2060   5.502  -1.177   6.531  0.3488  0.6104  0.2011
  774MOL0     C 2061   5.402  -1.157   6.446  0.5821  0.3951  0.3179
  774MOL0     C 2062   5.267  -1.155   6.489  0.5364  0.7191  0.5721
  774MOL0     C 2063   5.159  -1.162   6.407  0.3325 -0.2442 -0.2313
  774MOL0     C 2064   5.173  -1.170   6.271 -0.1794 -0.5503  0.5698
  774MOL0     C 2065   5.054  -1.179   6.185 -0.4706  0.0189  0.5892
  774MOL0     O 2066   5.082  -1.192   6.045  0.8751 -1.2525 -1.2271
  774MOL0     C 2067   4.980  -1.248   5.962 -0.6607  0.3909  0.0687
  774MOL0     C 2068   5.026  -1.322   5.856 -0.0846  0.4600 -0.2534
  774MOL0     C 2069   4.932  -1.395   5.780  0.0436 -0.1412  0.9429
  774MOL0     C 2070   4.791  -1.388   5.803 -1.1996 -0.5321  0.1810
  774MOL0     O 2071   4.707  -1.465   5.735 -0.1295  0.3092 -0.1715
  774MOL0     C 2072   4.572  -1.433   5.729  0.1387 -0.9396 -0.1169
  774MOL0     C 2073   4.503  -1.560   5.674  0.1840  0.4554  0.1633
  774MOL0     C 2074   4.377  -1.523   5.594 -0.2075 -1.0522 -0.4268
  774MOL0     C 2075   4.275  -1.444   5.686  0.0353 -0.6499 -0.2435
  774MOL0     C 2076   4.132  -1.440   5.613 -0.2422  0.2859 -0.1913
  774MOL0     C 2077   4.134  -1.384   5.476 -0.8132 -0.0231  0.7367
  774MOL0     C 2078   3.991  -1.391   5.409 -0.2416 -0.4852  0.5085
  774MOL0     C 2079   3.996  -1.322   5.280  0.0545  0.3364  0.4417
  774MOL0    Cl 2080   3.830  -1.283   5.227 -0.5483 -0.1419  0.4439
  774MOL0     C 2081   4.748  -1.278   5.884  0.1371 -0.2388 -0.6675
  774MOL0     C 2082   4.845  -1.214   5.966 -0.1798 -0.2473  0.7621
  774MOL0     O 2083   4.945  -1.197   6.239 -0.0979 -0.0862 -0.4404
  774MOL0     C 2084   5.300  -1.170   6.217 -0.0665 -0.9464  0.0683
  774MOL0     C 2085   5.415  -1.160   6.300 -0.3792  0.1331 -0.6897
  774MOL0     N 2086   6.011  -1.308   6.749  0.0616  0.3060  0.3388
  774MOL0     N 2087   6.139  -1.291   6.737 -0.6180 -0.0668  0.5600
  774MOL0     C 2088   6.422  -0.125   7.275 -0.7594  0.8349  0.5030
  774MOL0     C 2089   6.426  -0.018   7.364  0.5312  0.4691 -1.2240
  774MOL0     C 2090   6.299   0.276   7.694  0.1736  0.3378 -0.8962
  774MOL0     C 2091   6.193   0.372   7.723 -1.0521 -0.6488 -0.0056
  774MOL0     C 2092   6.222   0.466   7.829  0.8097 -0.7200 -0.4313
  774MOL0     C 2093   6.341   0.472   7.903  0.1247 -0.1288  0.2315
  774MOL0     O 2094   6.354   0.569   8.001  0.5907  0.7318  0.3490
  774MOL0     C 2095   6.479   0.591   8.082  0.0323  0.7396  0.1420
  774MOL0     C 2096   6.578   0.690   8.011 -0.5812  0.8762 -0.5948
  774MOL0     C 2097   6.711   0.688   8.080 -0.9336  0.0253  0.4075
  774MOL0     C 2098   6.831   0.721   7.992  0.7075 -1.4831 -0.7537
  774MOL0     C 2099   6.964   0.682   8.040 -0.2688  0.2476  0.6008
  774MOL0     C 2100   7.078   0.643   8.052  1.2136 -0.8680 -0.2452
  774MOL0     C 2101   6.438   0.382   7.861 -0.3809  0.3545  0.2837
  774MOL0     C 2102   6.421   0.297   7.757  0.4173  0.0393 -0.6810
  774MOL0     H 2103   6.161  -0.094   7.566  0.5436 -0.1539  0.5023
  774MOL0     H 2104   6.132  -0.267   7.404 -1.3327  1.0216 -1.5092
  774MOL0     H 2105   6.351  -0.463   7.282  0.2245  0.1908  0.7811
  774MOL0     H 2106   6.459  -0.395   7.168 -0.5754  0.0298  0.7207
  774MOL0     H 2107   6.332  -0.452   6.980 -0.6884  0.7731 -0.3251
  774MOL0     H 2108   6.203  -0.523   7.078  0.0022 -0.0060 -0.4640
  774MOL0     H 2109   6.381  -0.677   7.182 -1.8113  3.3230  1.0536
  774MOL0     H 2110   6.514  -0.608   7.099  1.0832 -2.8802 -0.0492
  774MOL0     H 2111   6.288  -0.782   7.001 -1.3024 -0.5781 -2.6127
  774MOL0     H 2112   6.380  -0.676   6.885 -1.1798  3.1353  1.8312
  774MOL0     H 2113   6.509  -0.892   7.058  0.4564  3.7871  2.4518
  774MOL0     H 2114   6.605  -0.786   6.950 -0.3364  0.4893 -2.5728
  774MOL0     H 2115   6.550  -1.017   6.865  0.0442 -0.2822  2.4155
  774MOL0     H 2116   6.502  -0.881   6.764  0.3549  0.1201  0.3442
  774MOL0     H 2117   6.303  -1.007   6.961  2.1757  1.2852  0.9805
  774MOL0     H 2118   6.270  -0.914   6.819 -0.7295  1.2872  0.9965
  774MOL0     H 2119   6.379  -1.200   6.794 -1.0359 -1.0910 -0.2383
  774MOL0     H 2120   6.348  -1.086   6.665  2.1688  0.8789  0.7028
  774MOL0     H 2121   6.037  -0.996   6.829 -2.9159 -1.5881  2.3153
  774MOL0     H 2122   5.819  -1.075   6.886  1.3305  0.2432 -0.8134
  774MOL0     H 2123   5.776  -1.251   6.874 -0.2173  1.6056  2.7121
  774MOL0     H 2124   5.764  -1.055   6.647  4.6029 -0.4900  3.1561
  774MOL0     H 2125   5.626  -1.111   6.749 -0.2309 -1.1328  0.2647
  774MOL0     H 2126   5.804  -1.293   6.571 -0.0667 -1.4000 -0.7404
  774MOL0     H 2127   5.658  -1.334   6.661 -2.8058 -0.3818 -1.8560
  774MOL0     H 2128   5.625  -1.291   6.408  1.2554  2.9729 -1.5874
  774MOL0     H 2129   5.668  -1.119   6.434 -0.0583  0.5826  0.3941
  774MOL0     H 2130   5.255  -1.151   6.596 -0.7783 -0.2975  0.4894
  774MOL0     H 2131   5.058  -1.164   6.448 -0.8042  0.9874 -2.7468
  774MOL0     H 2132   5.133  -1.329   5.844 -0.1254  0.6783 -0.7543
  774MOL0     H 2133   4.975  -1.465   5.709 -0.2987  2.0839 -1.6348
  774MOL0     H 2134   4.548  -1.345   5.668 -1.2052  0.8779  2.8129
  774MOL0     H 2135   4.518  -1.415   5.822 -2.7396  0.1473 -1.8766
  774MOL0     H 2136   4.466  -1.619   5.758 -2.5815  0.0041 -1.2520
  774MOL0     H 2137   4.567  -1.615   5.604  0.0096 -0.3290  0.6116
  774MOL0     H 2138   4.337  -1.618   5.555 -0.2231 -2.1769  2.1038
  774MOL0     H 2139   4.397  -1.454   5.512  2.2750 -1.6103 -0.3459
  774MOL0     H 2140   4.267  -1.488   5.786  1.1273 -1.1842 -0.3703
  774MOL0     H 2141   4.322  -1.349   5.713  3.2277 -2.6074  1.8146
  774MOL0     H 2142   4.059  -1.390   5.677 -1.5676 -1.3951 -0.3174
  774MOL0     H 2143   4.085  -1.538   5.599  1.9033 -1.0088  1.0416
  774MOL0     H 2144   4.203  -1.434   5.408 -0.4493  1.1015  0.2485
  774MOL0     H 2145   4.162  -1.278   5.486  1.0554 -0.4969  1.0236
  774MOL0     H 2146   3.965  -1.497   5.398  1.7630 -0.7892 -2.1766
  774MOL0     H 2147   3.916  -1.346   5.476  1.0246 -1.1002  2.4382
  774MOL0     H 2148   4.059  -1.376   5.208  1.5544  0.8335  1.3507
  774MOL0     H 2149   4.039  -1.222   5.275  0.4355  0.1932  0.8100
  774MOL0     H 2150   4.645  -1.247   5.898 -0.2340 -1.6466 -0.1412
  774MOL0     H 2151   4.809  -1.143   6.040 -1.4966  0.9348 -0.9202
  774MOL0     H 2152   5.317  -1.179   6.111 -3.1641  2.5175 -0.9097
  774MOL0     H 2153   5.515  -1.162   6.257  2.6979 -2.8980  5.2785
  774MOL0     H 2154   6.494  -0.133   7.195  0.0668  0.2742  1.2853
  774MOL0     H 2155   6.514   0.046   7.360  2.5288 -1.9784  0.5111
  774MOL0     H 2156   6.099   0.371   7.668 -1.6868 -2.1142  1.0240
  774MOL0     H 2157   6.138   0.530   7.855  0.4166 -0.9408 -1.1615
  774MOL0     H 2158   6.521   0.491   8.096 -0.9078  0.2110 -0.6074
  774MOL0     H 2159   6.453   0.634   8.179 -0.3169 -1.2382  0.9682
  774MOL0     H 2160   6.591   0.645   7.912  0.5054 -1.3950  0.5006
  774MOL0     H 2161   6.536   0.790   7.997 -1.6438  0.2383 -2.2439
  774MOL0     H 2162   6.731   0.586   8.116 -1.7614  0.3751  1.9702
  774MOL0     H 2163   6.715   0.745   8.174  1.2721 -2.0749  1.7198
  774MOL0     H 2164   6.823   0.677   7.892 -1.2339 -1.6214 -0.5732
  774MOL0     H 2165   6.819   0.827   7.970 -0.8679 -1.7950 -1.5130
  774MOL0     H 2166   7.181   0.622   8.072  1.3694  0.8845  1.0866
  774MOL0     H 2167   6.536   0.385   7.908  0.1894 -2.8521 -0.5081
  774MOL0     H 2168   6.500   0.226   7.732  2.4234  1.5973  0.8663
  775MOL0     O 2169   2.866   4.195   8.488  0.3831  0.1163  0.1865
  775MOL0     C 2170   2.928   4.298   8.512 -0.2139  0.6197 -0.4447
  775MOL0     O 2171   2.879   4.413   8.550 -0.1727  0.2313  0.1099
  775MOL0     C 2172   2.744   4.410   8.545  1.6116 -0.4256  0.2391
  775MOL0     C 2173   2.672   4.418   8.430  0.5256  0.2285  0.2549
  775MOL0     C 2174   2.535   4.442   8.424  0.2834  0.0247  0.5482
  775MOL0     C 2175   2.467   4.457   8.543  0.7505  1.2626 -0.5313
  775MOL0     O 2176   2.332   4.480   8.549 -0.1140 -0.0291  0.6704
  775MOL0     C 2177   2.243   4.412   8.448 -0.3865  0.8930 -0.5937
  775MOL0     C 2178   2.151   4.318   8.525 -0.1366  0.1911 -0.4213
  775MOL0     C 2179   2.219   4.180   8.566 -0.1759 -1.1047  0.0671
  775MOL0     C 2180   2.126   4.068   8.585 -0.4242  0.5196  0.2096
  775MOL0     C 2181   2.020   4.040   8.464 -0.2642 -0.3319 -0.9158
  775MOL0     C 2182   1.965   3.902   8.472  0.3018 -0.2040 -0.5195
  775MOL0     C 2183   1.881   3.864   8.348 -0.1280  0.8473 -0.6197
  775MOL0     C 2184   1.834   3.718   8.363  0.2470 -0.5083  0.0701
  775MOL0     N 2185   1.698   3.698   8.302 -0.0040  1.2930 -0.3059
  775MOL0     C 2186   1.615   3.592   8.333 -0.4800  0.4495  0.1555
  775MOL0     C 2187   1.523   3.590   8.230 -0.0443 -0.9313 -0.2969
  775MOL0     C 2188   1.434   3.481   8.209  0.3617 -0.1507  0.1329
  775MOL0     C 2189   1.301   3.504   8.277  0.6145  0.8949  0.2916
  775MOL0     C 2190   1.223   3.371   8.301 -1.1527  0.4100 -0.5363
  775MOL0     C 2191   1.077   3.399   8.353 -0.0778  0.9733  0.6316
  775MOL0     O 2192   0.992   3.289   8.322 -0.2966 -0.1443  0.8333
  775MOL0     C 2193   0.855   3.313   8.316  0.2699 -0.4179  0.2828
  775MOL0     C 2194   0.770   3.234   8.395 -0.4003 -0.0120 -0.5281
  775MOL0     C 2195   0.636   3.283   8.420  0.6391 -0.7965 -0.2984
  775MOL0     C 2196   0.583   3.391   8.361 -1.1146  0.5092  0.0945
  775MOL0     C 2197   0.440   3.434   8.390 -0.4834  0.2248  0.6461
  775MOL0     O 2198   0.414   3.557   8.329  0.0524  0.0723 -0.1896
  775MOL0     C 2199   0.278   3.570   8.301 -0.6292  1.0188  0.4877
  775MOL0     C 2200   0.188   3.653   8.369  0.3504  0.1088 -0.2263
  775MOL0     C 2201   0.047   3.660   8.358 -0.3428  0.6977  0.7931
  775MOL0     C 2202   0.000   3.592   8.243 -0.3200  0.0755  0.0106
  775MOL0     O 2203  -0.127   3.626   8.199 -0.2895  0.7515 -0.4869
  775MOL0     C 2204  -0.140   3.655   8.059  0.8399  0.0191  0.5189
  775MOL0     C 2205  -0.285   3.610   8.020  0.0655 -0.8204  0.3392
  775MOL0     C 2206  -0.327   3.569   7.870  0.7426 -0.0598 -0.7825
  775MOL0     C 2207  -0.280   3.665   7.769  0.3013  0.8390 -0.3229
  775MOL0     C 2208  -0.311   3.615   7.630 -0.4991 -0.6904  0.1487
  775MOL0     C 2209  -0.240   3.713   7.534 -0.5441 -0.4488  0.4275
  775MOL0     C 2210  -0.288   3.674   7.394 -0.2373 -1.0056 -0.0979
  775MOL0     C 2211  -0.163   3.666   7.310 -0.1341  0.3336 -0.4520
  775MOL0    Cl 2212  -0.125   3.841   7.265 -0.4261 -0.2004  0.3610
  775MOL0     C 2213   0.085   3.508   8.172 -0.4180 -0.2165 -0.0755
  775MOL0     C 2214   0.225   3.497   8.199  0.2753  0.3150  0.1106
  775MOL0     O 2215   0.367   3.365   8.461  0.0946  0.3072  0.4008
  775MOL0     C 2216   0.662   3.447   8.256  0.2773  0.7423 -0.1464
  775MOL0     C 2217   0.793   3.416   8.243 -0.9739 -0.5176 -0.7180
  775MOL0     N 2218   1.546   3.693   8.143  0.0869  0.4262  0.0077
  775MOL0     N 2219   1.649   3.758   8.191 -0.6028 -0.0273 -0.1132
  775MOL0     C 2220   2.526   4.440   8.660 -0.7282 -0.2589  0.9395
  775MOL0     C 2221   2.669   4.420   8.665  0.3670  0.0513  0.5555
  775MOL0     C 2222   3.076   4.293   8.482  0.0202 -0.9153 -0.1383
  775MOL0     C 2223   3.142   4.169   8.497 -0.2244 -0.7013 -0.1090
  775MOL0     C 2224   3.286   4.163   8.493 -0.2233  0.1367  0.3883
  775MOL0     C 2225   3.362   4.279   8.471 -0.6950 -0.1734 -0.3566
  775MOL0     O 2226   3.503   4.264   8.467  0.2504 -0.3952 -0.4253
  775MOL0     C 2227   3.584   4.385   8.452 -0.3154 -0.2434 -0.6473
  775MOL0     C 2228   3.742   4.347   8.443  0.8371  1.2441 -0.7185
  775MOL0     C 2229   3.788   4.364   8.295 -0.5574 -0.1371 -0.4272
  775MOL0     C 2230   3.729   4.272   8.195  0.4899 -0.0078 -0.3107
  775MOL0     C 2231   3.767   4.306   8.065  0.1430 -0.4179  0.6404
  775MOL0     C 2232   3.792   4.342   7.954  0.2782  0.6848  0.5338
  775MOL0     C 2233   3.294   4.406   8.467  0.2805 -0.5927  0.5756
  775MOL0     C 2234   3.155   4.409   8.466  0.4520 -0.3967  0.6473
  775MOL0     H 2235   2.726   4.418   8.335 -0.7783  0.3860 -0.5203
  775MOL0     H 2236   2.497   4.435   8.323 -2.6491  1.0245  1.4835
  775MOL0     H 2237   2.286   4.359   8.363  0.3706 -2.9725  1.9230
  775MOL0     H 2238   2.181   4.494   8.410 -1.0262  1.1191  0.8641
  775MOL0     H 2239   2.064   4.301   8.461 -0.3506 -6.2882  0.8752
  775MOL0     H 2240   2.121   4.361   8.621  0.4011  2.4137 -1.1980
  775MOL0     H 2241   2.285   4.199   8.651 -1.1540  0.9553  0.4364
  775MOL0     H 2242   2.275   4.155   8.475  2.0196 -1.9990  1.5867
  775MOL0     H 2243   2.187   3.978   8.599 -1.0000  0.1702  0.5248
  775MOL0     H 2244   2.068   4.089   8.675  1.8848  1.1527  1.6117
  775MOL0     H 2245   2.063   4.049   8.364  1.3953 -2.2629 -0.4451
  775MOL0     H 2246   1.935   4.105   8.488  1.3216  1.8998 -0.9453
  775MOL0     H 2247   1.907   3.889   8.563  0.4910  0.1170 -0.3487
  775MOL0     H 2248   2.048   3.831   8.472  1.2494  0.8695 -0.8480
  775MOL0     H 2249   1.795   3.931   8.336 -0.0909  1.0014 -0.0549
  775MOL0     H 2250   1.946   3.862   8.260 -0.6957 -1.3113 -1.0463
  775MOL0     H 2251   1.837   3.672   8.462  2.2149  2.7868  1.7178
  775MOL0     H 2252   1.910   3.653   8.317 -0.6468 -0.4136 -1.6102
  775MOL0     H 2253   1.607   3.511   8.405 -0.0600 -0.9169 -1.2681
  775MOL0     H 2254   1.491   3.397   8.252  0.7249 -0.1106 -0.2634
  775MOL0     H 2255   1.420   3.451   8.105  0.8007  1.0189 -0.2750
  775MOL0     H 2256   1.237   3.576   8.225 -0.3164  0.4114  0.7398
  775MOL0     H 2257   1.320   3.549   8.375  1.8751 -0.5475  0.7456
  775MOL0     H 2258   1.208   3.325   8.203 -0.3147  0.7581 -0.8412
  775MOL0     H 2259   1.274   3.311   8.376 -1.2207  1.5637  0.4649
  775MOL0     H 2260   1.046   3.489   8.297 -0.9003 -0.3885 -1.2133
  775MOL0     H 2261   1.066   3.427   8.458  0.8267  0.9062  0.7518
  775MOL0     H 2262   0.825   3.159   8.452  1.0265  1.3170 -0.0993
  775MOL0     H 2263   0.588   3.237   8.505  2.6464  1.8570  2.5048
  775MOL0     H 2264   0.232   3.733   8.427  2.2156 -1.7100  0.9925
  775MOL0     H 2265  -0.017   3.734   8.407 -1.3884 -0.5563  1.3939
  775MOL0     H 2266  -0.063   3.625   7.987  1.6934  2.3709  0.3518
  775MOL0     H 2267  -0.126   3.764   8.054  2.2358 -0.1501  0.2572
  775MOL0     H 2268  -0.363   3.673   8.064 -2.5318 -2.2024 -2.0118
  775MOL0     H 2269  -0.297   3.526   8.089  0.1195  1.1647  2.9097
  775MOL0     H 2270  -0.436   3.570   7.878  0.7529  0.7553 -0.6059
  775MOL0     H 2271  -0.287   3.470   7.847  0.3736 -0.4187  0.0913
  775MOL0     H 2272  -0.322   3.760   7.801  2.5380  0.3933  4.8128
  775MOL0     H 2273  -0.172   3.678   7.776  0.0429  2.3867  1.4079
  775MOL0     H 2274  -0.417   3.626   7.607 -0.4977  4.0058  1.3508
  775MOL0     H 2275  -0.269   3.515   7.615  1.0780 -0.0920  0.3414
  775MOL0     H 2276  -0.132   3.698   7.540 -0.4210 -0.3235 -1.0134
  775MOL0     H 2277  -0.260   3.818   7.560  0.9174  0.3950 -1.5412
  775MOL0     H 2278  -0.355   3.588   7.388 -0.4907 -0.8142 -0.0671
  775MOL0     H 2279  -0.348   3.763   7.371 -0.1152 -0.6224  0.9848
  775MOL0     H 2280  -0.180   3.609   7.218  1.1372 -1.0774  0.1293
  775MOL0     H 2281  -0.083   3.611   7.362  1.0513 -0.9420 -3.3705
  775MOL0     H 2282   0.054   3.463   8.078 -0.7537 -1.6418  0.6854
  775MOL0     H 2283   0.278   3.430   8.133 -0.6013  0.1482 -0.4471
  775MOL0     H 2284   0.623   3.534   8.204 -1.1121 -0.6278 -1.4821
  775MOL0     H 2285   0.862   3.469   8.178 -2.9715 -0.0250 -2.5272
  775MOL0     H 2286   2.466   4.462   8.748 -0.9009  1.6271  0.4015
  775MOL0     H 2287   2.716   4.429   8.762 -0.0948 -0.9184  0.8934
  775MOL0     H 2288   3.088   4.080   8.529  1.4145 -0.2907  4.6545
  775MOL0     H 2289   3.321   4.061   8.490  0.4669  0.3827 -2.2653
  775MOL0     H 2290   3.571   4.445   8.543  2.3961 -3.5142  2.1838
  775MOL0     H 2291   3.554   4.436   8.361  3.6913  0.9427 -1.5130
  775MOL0     H 2292   3.796   4.415   8.509  1.7819 -0.2594  0.1378
  775MOL0     H 2293   3.756   4.244   8.479 -2.2868  0.5665 -1.1414
  775MOL0     H 2294   3.893   4.333   8.297 -1.2158 -2.5579  2.1347
  775MOL0     H 2295   3.780   4.466   8.257  0.3512  0.2181  0.2973
  775MOL0     H 2296   3.767   4.173   8.225 -1.3917 -1.4981 -2.5043
  775MOL0     H 2297   3.620   4.264   8.199  0.3232  2.0803  1.0701
  775MOL0     H 2298   3.812   4.372   7.853 -1.1114  2.3907  0.7048
  775MOL0     H 2299   3.335   4.505   8.449  0.3344 -0.1869  2.6585
  775MOL0     H 2300   3.109   4.507   8.454  1.0226 -0.2267 -0.2490
  776MOL0     O 2301   7.739   2.712   2.753  0.3705 -0.2375  0.7761
  776MOL0     C 2302   7.719   2.670   2.859 -0.0323  0.0636  0.0769
  776MOL0     O 2303   7.596   2.659   2.907  0.3215 -0.2238  0.3714
  776MOL0     C 2304   7.485   2.639   2.825 -0.3895 -0.2823  0.3498
  776MOL0     C 2305   7.485   2.589   2.693 -0.1204  0.5971  0.7005
  776MOL0     C 2306   7.370   2.568   2.609  0.1597  0.3334 -0.2712
  776MOL0     C 2307   7.246   2.585   2.666  0.0919  0.3487  0.1596
  776MOL0     O 2308   7.125   2.559   2.596  0.2521 -0.0726 -0.9610
  776MOL0     C 2309   7.128   2.456   2.494  0.2147  0.0381  0.5222
  776MOL0     C 2310   6.985   2.405   2.474 -0.5495 -0.7247  0.2023
  776MOL0     C 2311   6.891   2.513   2.429 -0.7291 -0.5837  0.3234
  776MOL0     C 2312   6.755   2.453   2.411  0.2641  0.3420  0.4771
  776MOL0     C 2313   6.648   2.566   2.364 -0.7236  0.3616  0.4222
  776MOL0     C 2314   6.507   2.530   2.403  0.6669  0.6794 -0.2256
  776MOL0     C 2315   6.460   2.568   2.551  0.5367  0.1917  0.2176
  776MOL0     C 2316   6.351   2.468   2.600 -0.1795 -0.7150  0.3941
  776MOL0     N 2317   6.219   2.509   2.554  0.3513 -0.0797 -0.4359
  776MOL0     C 2318   6.141   2.610   2.611 -0.5345  0.7625 -0.7197
  776MOL0     C 2319   6.040   2.640   2.534  0.4914 -0.5531  0.7273
  776MOL0     C 2320   5.922   2.729   2.563 -0.4679  0.1497  0.2248
  776MOL0     C 2321   5.821   2.721   2.440  0.7151  0.4329 -0.3009
  776MOL0     C 2322   5.696   2.799   2.472  0.5986  0.0211 -0.4649
  776MOL0     C 2323   5.597   2.776   2.353  0.3147 -0.1195 -0.3066
  776MOL0     O 2324   5.475   2.845   2.372 -0.4878  0.1302 -0.4017
  776MOL0     C 2325   5.362   2.802   2.299  0.2540 -0.1239  0.1999
  776MOL0     C 2326   5.241   2.831   2.356 -0.1889 -1.0082  0.2770
  776MOL0     C 2327   5.129   2.803   2.292  0.0408 -0.0520  0.9699
  776MOL0     C 2328   5.126   2.744   2.160 -0.4219  0.0182 -0.8367
  776MOL0     C 2329   4.996   2.718   2.092 -0.2969  0.3340 -0.3616
  776MOL0     O 2330   4.894   2.807   2.124  0.6599 -0.4262  0.3472
  776MOL0     C 2331   4.771   2.787   2.062  0.4352  0.6869  0.1377
  776MOL0     C 2332   4.646   2.796   2.128  0.0442 -0.3817  0.5950
  776MOL0     C 2333   4.521   2.788   2.055 -0.3339  0.4086  0.3027
  776MOL0     C 2334   4.522   2.769   1.918 -0.0858  0.2777 -0.3083
  776MOL0     O 2335   4.393   2.774   1.867  0.3020 -0.5281 -0.4260
  776MOL0     C 2336   4.363   2.757   1.730  0.6854 -0.9666 -0.4080
  776MOL0     C 2337   4.215   2.725   1.705 -0.7226  0.2810 -0.3261
  776MOL0     C 2338   4.136   2.859   1.709  0.1406 -0.3769 -0.3485
  776MOL0     C 2339   3.980   2.843   1.710 -0.6568 -0.8108  0.0415
  776MOL0     C 2340   3.915   2.972   1.760  0.4261  0.5391  0.6882
  776MOL0     C 2341   3.773   2.982   1.797 -0.1460 -0.0356 -0.6196
  776MOL0     C 2342   3.753   3.131   1.832  1.4945  0.2576  0.1991
  776MOL0     C 2343   3.596   3.151   1.852 -0.4175  0.5122 -0.1572
  776MOL0    Cl 2344   3.528   3.044   1.973  0.0324  0.5443  0.3921
  776MOL0     C 2345   4.638   2.770   1.851 -0.3801 -0.8228  0.1492
  776MOL0     C 2346   4.760   2.779   1.919 -0.6691  0.0089 -0.0983
  776MOL0     O 2347   4.991   2.629   2.014  0.4089  0.1156 -0.7206
  776MOL0     C 2348   5.252   2.725   2.101  0.3683 -0.5812  0.0335
  776MOL0     C 2349   5.368   2.757   2.166 -0.0688 -0.4537  0.0446
  776MOL0     N 2350   6.060   2.564   2.416  0.3549 -0.0914 -0.3164
  776MOL0     N 2351   6.157   2.482   2.432  0.3753 -0.4150  0.3524
  776MOL0     C 2352   7.241   2.623   2.800 -0.2090 -0.9139 -0.3749
  776MOL0     C 2353   7.359   2.668   2.866 -0.1762  0.7032  0.0970
  776MOL0     C 2354   7.831   2.651   2.954 -0.0396 -0.6225  0.1606
  776MOL0     C 2355   7.817   2.631   3.090  0.5199  0.3363 -0.9417
  776MOL0     C 2356   7.931   2.596   3.173 -0.7394  0.1647 -0.2365
  776MOL0     C 2357   8.061   2.595   3.121 -0.1517 -0.1103 -0.5420
  776MOL0     O 2358   8.168   2.577   3.205  0.5474  0.5306  0.5422
  776MOL0     C 2359   8.300   2.580   3.162  0.0499  0.2670 -0.6825
  776MOL0     C 2360   8.385   2.574   3.296  0.2858  0.1471 -0.3389
  776MOL0     C 2361   8.416   2.423   3.347 -0.2626 -0.2174 -0.1784
  776MOL0     C 2362   8.490   2.439   3.488  0.3418  0.0702  0.4484
  776MOL0     C 2363   8.624   2.472   3.473  0.3175  1.1535  0.2560
  776MOL0     C 2364   8.742   2.486   3.444 -0.5851 -0.8601  0.4587
  776MOL0     C 2365   8.081   2.635   2.985 -0.7593  0.3890 -0.5048
  776MOL0     C 2366   7.962   2.659   2.901 -1.3067 -0.3481 -0.3035
  776MOL0     H 2367   7.579   2.577   2.640  0.3005 -0.3305  1.6340
  776MOL0     H 2368   7.367   2.550   2.502  0.6727  1.7487 -0.5428
  776MOL0     H 2369   7.196   2.376   2.525 -1.4776 -1.4611  0.5809
  776MOL0     H 2370   7.155   2.491   2.394 -1.2049 -2.3672 -0.8026
  776MOL0     H 2371   6.960   2.344   2.561  3.5220 -1.7443  0.8872
  776MOL0     H 2372   7.000   2.343   2.385  2.3066  0.2838 -0.1405
  776MOL0     H 2373   6.923   2.572   2.342 -3.2793  0.4084 -0.0401
  776MOL0     H 2374   6.880   2.588   2.509  1.5218  4.2908 -3.3909
  776MOL0     H 2375   6.767   2.379   2.331  4.4743  1.8112 -0.5568
  776MOL0     H 2376   6.710   2.413   2.502 -1.4615 -0.8012 -0.8333
  776MOL0     H 2377   6.656   2.585   2.257  0.5887  0.5370  0.5264
  776MOL0     H 2378   6.675   2.660   2.414  0.2826 -0.1755  0.9232
  776MOL0     H 2379   6.489   2.423   2.390 -2.8595  1.1649 -0.1943
  776MOL0     H 2380   6.430   2.573   2.340  1.2699 -2.2352 -3.2521
  776MOL0     H 2381   6.540   2.562   2.625  2.8674  1.6922 -1.9696
  776MOL0     H 2382   6.438   2.675   2.540  0.6994  0.1842 -0.2013
  776MOL0     H 2383   6.350   2.478   2.709 -3.4051 -0.2645  0.4354
  776MOL0     H 2384   6.370   2.362   2.586 -0.7399 -0.8578  0.6831
  776MOL0     H 2385   6.151   2.656   2.709  0.3901 -1.8000  0.4644
  776MOL0     H 2386   5.974   2.823   2.581 -2.7732  1.2290  1.7600
  776MOL0     H 2387   5.874   2.703   2.658 -2.1151 -2.4039 -1.1884
  776MOL0     H 2388   5.793   2.616   2.424 -2.5611  0.5138  3.3241
  776MOL0     H 2389   5.873   2.763   2.354  1.1524  3.0013  1.1265
  776MOL0     H 2390   5.644   2.753   2.557 -0.1647 -2.9858 -2.4333
  776MOL0     H 2391   5.721   2.904   2.496  3.0021 -0.5311 -0.2385
  776MOL0     H 2392   5.575   2.669   2.346 -0.2139 -0.1256  1.1972
  776MOL0     H 2393   5.642   2.809   2.259 -0.4988  2.0519  0.0087
  776MOL0     H 2394   5.228   2.878   2.453 -2.4483 -3.6356  1.4053
  776MOL0     H 2395   5.043   2.838   2.349 -1.1967  2.6862 -2.2372
  776MOL0     H 2396   4.652   2.829   2.231 -0.4811  2.9691 -0.3306
  776MOL0     H 2397   4.427   2.786   2.110 -1.1348 -0.5510 -1.0367
  776MOL0     H 2398   4.428   2.678   1.691 -0.2554 -0.8377 -2.3420
  776MOL0     H 2399   4.385   2.852   1.681  0.2143  1.4496  3.6654
  776MOL0     H 2400   4.175   2.659   1.782 -1.4296  0.6892 -0.3360
  776MOL0     H 2401   4.205   2.680   1.606  0.3374 -0.1200 -0.2655
  776MOL0     H 2402   4.176   2.923   1.629 -0.7244 -0.0118 -0.5020
  776MOL0     H 2403   4.173   2.903   1.802 -1.0028 -1.1140  0.4735
  776MOL0     H 2404   3.955   2.820   1.606  1.4203  0.5683 -0.8302
  776MOL0     H 2405   3.949   2.760   1.775  1.3433 -0.4584  1.5235
  776MOL0     H 2406   3.930   3.038   1.674 -0.1728 -2.9967 -2.3349
  776MOL0     H 2407   3.972   2.997   1.850  2.5983  0.2722 -0.5575
  776MOL0     H 2408   3.756   2.918   1.884 -0.9716  0.9363 -0.0474
  776MOL0     H 2409   3.712   2.944   1.715 -0.7554 -0.0939 -0.1421
  776MOL0     H 2410   3.798   3.153   1.929  1.2931 -2.0127  0.8582
  776MOL0     H 2411   3.795   3.195   1.754  0.9325 -0.2022 -0.4882
  776MOL0     H 2412   3.542   3.128   1.759  0.0927 -0.8220 -0.1381
  776MOL0     H 2413   3.567   3.256   1.868  1.2971  0.9701  0.1513
  776MOL0     H 2414   4.646   2.789   1.744  1.5483 -0.2325  0.3682
  776MOL0     H 2415   4.851   2.792   1.862  2.4259 -1.3793  4.0435
  776MOL0     H 2416   5.255   2.686   2.000  6.8549  3.3408 -1.8890
  776MOL0     H 2417   5.466   2.766   2.120  1.0559 -4.1637  1.3837
  776MOL0     H 2418   7.149   2.626   2.857 -0.0792  3.0531 -0.0940
  776MOL0     H 2419   7.340   2.702   2.968 -1.0361 -3.7416  1.6708
  776MOL0     H 2420   7.719   2.641   3.134  1.1611 -0.8859  0.8920
  776MOL0     H 2421   7.916   2.584   3.280  0.8065  0.7665  0.0819
  776MOL0     H 2422   8.328   2.673   3.110  2.2782  1.9310  3.0382
  776MOL0     H 2423   8.334   2.496   3.101  2.1505 -0.1515  0.9180
  776MOL0     H 2424   8.480   2.630   3.293  1.6540 -2.0080  0.5197
  776MOL0     H 2425   8.340   2.621   3.384  1.8558 -2.3735  1.9733
  776MOL0     H 2426   8.476   2.376   3.268 -0.3163 -0.7717  0.1107
  776MOL0     H 2427   8.328   2.362   3.369  0.8785 -0.5547  4.6130
  776MOL0     H 2428   8.432   2.521   3.532  0.1380  0.2922 -0.2180
  776MOL0     H 2429   8.469   2.363   3.564  0.9787  2.7445  3.5114
  776MOL0     H 2430   8.844   2.492   3.412 -0.8099 -0.8686 -0.2822
  776MOL0     H 2431   8.178   2.652   2.940  0.3351 -1.7279  0.8927
  776MOL0     H 2432   7.974   2.677   2.794 -0.3904 -0.2137 -0.1851
  777MOL0     O 2433   3.381   7.514   0.726 -0.3602  0.8617 -0.5508
  777MOL0     C 2434   3.415   7.555   0.621 -0.3581  1.0246 -0.4474
  777MOL0     O 2435   3.330   7.598   0.522 -0.1837 -0.1597  1.0667
  777MOL0     C 2436   3.195   7.569   0.522  0.2479  0.1547  0.3308
  777MOL0     C 2437   3.132   7.449   0.529 -0.4047  0.7787  0.2723
  777MOL0     C 2438   2.986   7.446   0.537 -1.6525 -0.2005  0.8546
  777MOL0     C 2439   2.912   7.557   0.500  0.1780 -0.1545  1.0570
  777MOL0     O 2440   2.777   7.559   0.491  0.1600  0.0475 -0.1324
  777MOL0     C 2441   2.690   7.442   0.497 -0.4639  0.2459  1.0343
  777MOL0     C 2442   2.572   7.459   0.405  0.3522  0.0751  0.9971
  777MOL0     C 2443   2.502   7.332   0.380  1.0092 -0.2100  0.5624
  777MOL0     C 2444   2.422   7.279   0.497 -0.4090  0.1892  0.1633
  777MOL0     C 2445   2.282   7.341   0.510 -0.0123  0.1977 -0.6472
  777MOL0     C 2446   2.205   7.261   0.609  0.8669  0.0207  0.1793
  777MOL0     C 2447   2.061   7.314   0.617 -0.0477 -0.0804 -0.6762
  777MOL0     C 2448   2.006   7.248   0.745 -0.1495  0.0255  0.0716
  777MOL0     N 2449   1.862   7.276   0.780 -0.5192  0.6375 -0.5001
  777MOL0     C 2450   1.759   7.241   0.699  0.2272  0.6409 -0.1809
  777MOL0     C 2451   1.644   7.320   0.737 -0.7938  0.4342  0.6208
  777MOL0     C 2452   1.523   7.317   0.653 -0.5535  0.5203 -0.1437
  777MOL0     C 2453   1.387   7.357   0.720 -0.7577 -0.6178 -0.5425
  777MOL0     C 2454   1.355   7.282   0.853 -0.2650 -0.1184 -0.2549
  777MOL0     C 2455   1.289   7.150   0.831  0.3558 -0.6516  0.2732
  777MOL0     O 2456   1.258   7.095   0.962  1.0836  0.3642  0.5253
  777MOL0     C 2457   1.132   7.123   1.018 -1.4359  0.6888 -1.1886
  777MOL0     C 2458   1.100   7.057   1.134  0.1953 -0.5281 -0.4084
  777MOL0     C 2459   0.970   7.068   1.194 -1.0269  0.3012  0.3483
  777MOL0     C 2460   0.874   7.154   1.129 -0.3240 -0.0970 -0.5156
  777MOL0     C 2461   0.745   7.173   1.198  0.4137 -0.8619  0.6157
  777MOL0     O 2462   0.677   7.295   1.160  0.3150  0.5555 -0.1072
  777MOL0     C 2463   0.546   7.300   1.222 -0.0217 -0.0219  0.6335
  777MOL0     C 2464   0.537   7.393   1.325 -0.3310  0.7595  0.1525
  777MOL0     C 2465   0.417   7.420   1.399  0.9338  0.5720 -0.3454
  777MOL0     C 2466   0.301   7.340   1.384 -0.5707  0.6251  0.3430
  777MOL0     O 2467   0.195   7.347   1.469  0.0486 -0.7855  0.3108
  777MOL0     C 2468   0.073   7.274   1.439 -0.7111 -0.6691 -0.1529
  777MOL0     C 2469  -0.019   7.288   1.558  0.6204  0.3470 -0.0276
  777MOL0     C 2470  -0.155   7.218   1.528 -0.0745  0.0337 -0.7579
  777MOL0     C 2471  -0.232   7.178   1.660  0.1950 -0.9544 -0.2241
  777MOL0     C 2472  -0.362   7.108   1.608  0.0473 -0.0187 -0.1629
  777MOL0     C 2473  -0.439   7.064   1.735  0.1663 -0.9389 -0.3877
  777MOL0     C 2474  -0.571   6.995   1.691 -0.2986 -0.2502  0.4665
  777MOL0     C 2475  -0.687   7.027   1.783  0.0059 -0.0839  0.8963
  777MOL0    Cl 2476  -0.654   6.939   1.936  0.2665  0.4131  0.0634
  777MOL0     C 2477   0.315   7.248   1.277  0.8792 -1.1752  0.1467
  777MOL0     C 2478   0.427   7.231   1.194  0.0916 -1.3139  0.2681
  777MOL0     O 2479   0.700   7.083   1.269 -0.0327 -0.2280 -0.1420
  777MOL0     C 2480   0.915   7.228   1.015  0.1960 -0.1239 -0.3056
  777MOL0     C 2481   1.037   7.209   0.960 -0.0542  0.7540 -0.1354
  777MOL0     N 2482   1.694   7.405   0.835  0.0399 -1.4430 -0.3352
  777MOL0     N 2483   1.816   7.372   0.857 -0.5649 -0.4764 -0.2999
  777MOL0     C 2484   2.986   7.680   0.479  0.1017 -0.2744  0.4259
  777MOL0     C 2485   3.129   7.686   0.494 -0.3547 -0.1763 -0.7311
  777MOL0     C 2486   3.560   7.549   0.595 -0.1297  0.0463  0.6673
  777MOL0     C 2487   3.652   7.495   0.685 -1.0135  0.2336 -0.0968
  777MOL0     C 2488   3.782   7.478   0.639  0.1565  0.0063 -0.2340
  777MOL0     C 2489   3.826   7.523   0.508  0.1628  0.2616 -0.2079
  777MOL0     O 2490   3.959   7.524   0.469  0.4376 -0.8924 -0.1512
  777MOL0     C 2491   4.058   7.533   0.576 -0.2872  0.1704 -0.7935
  777MOL0     C 2492   4.182   7.601   0.534  0.7241  1.7845  0.6261
  777MOL0     C 2493   4.289   7.499   0.482  0.2820  0.2452 -0.5717
  777MOL0     C 2494   4.417   7.566   0.456  0.5360 -1.3328  0.1837
  777MOL0     C 2495   4.530   7.477   0.459 -0.3588 -0.2601 -0.9387
  777MOL0     C 2496   4.635   7.419   0.472  0.3915 -0.4513 -1.2567
  777MOL0     C 2497   3.734   7.581   0.423  0.3519  0.4105 -0.3210
  777MOL0     C 2498   3.604   7.591   0.468  0.3594 -0.4566  0.5154
  777MOL0     H 2499   3.183   7.355   0.546 -1.8218 -0.7028 -2.8108
  777MOL0     H 2500   2.935   7.355   0.567  4.4872 -3.7366  2.2779
  777MOL0     H 2501   2.653   7.435   0.600 -0.0809  2.8920  1.4126
  777MOL0     H 2502   2.751   7.356   0.465 -0.0378  0.5796  0.9352
  777MOL0     H 2503   2.615   7.499   0.313  3.5633  0.8278  2.6642
  777MOL0     H 2504   2.504   7.539   0.437 -1.5003 -1.2981  0.6324
  777MOL0     H 2505   2.583   7.268   0.346  1.0752  1.0422 -1.7797
  777MOL0     H 2506   2.432   7.338   0.297 -0.1871 -0.9960  1.4691
  777MOL0     H 2507   2.421   7.171   0.481 -0.9458  0.3163 -0.7236
  777MOL0     H 2508   2.478   7.304   0.588  0.1188  1.6374 -0.5325
  777MOL0     H 2509   2.241   7.331   0.409 -2.5843  1.2176  0.2242
  777MOL0     H 2510   2.286   7.443   0.550  0.7470 -0.0578 -0.0496
  777MOL0     H 2511   2.256   7.277   0.704  1.3920 -0.1296 -0.0727
  777MOL0     H 2512   2.204   7.157   0.576  0.3049 -0.1610  0.7518
  777MOL0     H 2513   2.059   7.422   0.633 -0.6501 -0.2642  0.6170
  777MOL0     H 2514   2.000   7.294   0.528 -0.5348 -1.4453 -0.0761
  777MOL0     H 2515   2.057   7.300   0.827 -2.1584  1.9597  0.1669
  777MOL0     H 2516   2.020   7.139   0.747  0.4414  0.0443  3.8626
  777MOL0     H 2517   1.767   7.163   0.625  0.5536  0.2287  0.2841
  777MOL0     H 2518   1.512   7.210   0.632 -0.2327 -0.1574  2.6724
  777MOL0     H 2519   1.533   7.374   0.560  1.1713  1.9197  0.8425
  777MOL0     H 2520   1.309   7.326   0.650 -0.2047  1.1300 -2.0171
  777MOL0     H 2521   1.374   7.465   0.728  1.9267 -0.2360 -0.3958
  777MOL0     H 2522   1.449   7.262   0.907  0.6370  4.0513  0.0275
  777MOL0     H 2523   1.284   7.346   0.906 -0.3335 -0.9395  0.6988
  777MOL0     H 2524   1.350   7.083   0.769  1.9989 -0.4991  1.6556
  777MOL0     H 2525   1.198   7.158   0.771 -0.0613 -0.7834  0.8816
  777MOL0     H 2526   1.166   6.981   1.176  0.6877 -0.6001 -1.2968
  777MOL0     H 2527   0.938   7.003   1.274  1.2999 -0.7516  0.5034
  777MOL0     H 2528   0.625   7.452   1.347 -0.6506  0.3463  2.8342
  777MOL0     H 2529   0.419   7.491   1.482 -1.4363  1.7034 -1.1475
  777MOL0     H 2530   0.096   7.171   1.413  0.2992  0.1142 -2.7004
  777MOL0     H 2531   0.025   7.319   1.352 -1.4694  2.4785  1.7210
  777MOL0     H 2532  -0.037   7.390   1.593 -0.1146 -0.0889  0.9047
  777MOL0     H 2533   0.027   7.237   1.643  1.3309 -0.8447 -1.0889
  777MOL0     H 2534  -0.136   7.120   1.484 -0.3771 -0.9998  1.3111
  777MOL0     H 2535  -0.212   7.288   1.466  5.0777  4.3237 -1.4166
  777MOL0     H 2536  -0.170   7.121   1.729 -0.0944  0.2704  1.0883
  777MOL0     H 2537  -0.254   7.271   1.713  1.1911  0.1794 -1.6863
  777MOL0     H 2538  -0.324   7.017   1.560 -2.0389 -0.4315 -1.1584
  777MOL0     H 2539  -0.432   7.164   1.545 -1.5200 -1.9576 -0.2388
  777MOL0     H 2540  -0.462   7.149   1.800 -1.5937 -1.9094  0.3208
  777MOL0     H 2541  -0.375   6.992   1.787  1.7737 -0.0498 -1.0577
  777MOL0     H 2542  -0.601   7.033   1.593 -1.2270 -2.6946 -0.2674
  777MOL0     H 2543  -0.539   6.894   1.667  2.3678  1.4583 -4.6384
  777MOL0     H 2544  -0.777   6.996   1.730  0.8225 -0.6884 -0.1702
  777MOL0     H 2545  -0.694   7.133   1.807 -2.0434  0.5528 -2.0236
  777MOL0     H 2546   0.233   7.181   1.254 -1.9347  2.2795 -0.8319
  777MOL0     H 2547   0.439   7.155   1.118  0.6998 -1.1991  0.2435
  777MOL0     H 2548   0.846   7.298   0.968  0.9688  0.8240 -0.0803
  777MOL0     H 2549   1.055   7.277   0.877  1.1984  2.2730  1.2982
  777MOL0     H 2550   2.922   7.767   0.463 -0.6375 -0.9408 -0.3309
  777MOL0     H 2551   3.183   7.776   0.468  0.5108 -0.5253 -0.1644
  777MOL0     H 2552   3.609   7.462   0.780 -0.7440 -0.6445 -0.2662
  777MOL0     H 2553   3.861   7.444   0.705  0.9521  2.7769  0.3945
  777MOL0     H 2554   4.084   7.436   0.620  2.2826  0.3475 -1.7898
  777MOL0     H 2555   4.003   7.593   0.649 -2.2820 -1.2279 -1.0446
  777MOL0     H 2556   4.149   7.669   0.455 -2.0518 -0.4981 -0.3426
  777MOL0     H 2557   4.228   7.667   0.608  1.8279  4.0729 -1.9051
  777MOL0     H 2558   4.253   7.458   0.387 -0.2538  1.0531 -0.7249
  777MOL0     H 2559   4.305   7.416   0.551 -3.9108 -1.6796 -1.5871
  777MOL0     H 2560   4.422   7.608   0.355  0.2262 -1.0683  0.2775
  777MOL0     H 2561   4.420   7.656   0.518 -1.0135  2.3162 -4.3821
  777MOL0     H 2562   4.731   7.372   0.483  0.1734 -0.4241  1.4047
  777MOL0     H 2563   3.785   7.629   0.340  5.0293 -1.5359  1.0784
  777MOL0     H 2564   3.537   7.650   0.407  1.6558  0.1903 -0.3362
  778MOL0     O 2565   3.875   1.322   0.501  0.8108  0.2123 -0.2531
  778MOL0     C 2566   3.903   1.437   0.525 -0.0961 -0.4020  0.1616
  778MOL0     O 2567   3.818   1.542   0.527  0.4499 -0.2099  0.1239
  778MOL0     C 2568   3.680   1.547   0.520  0.1432 -0.3209 -0.9035
  778MOL0     C 2569   3.629   1.670   0.483 -0.4201  0.1941 -0.2447
  778MOL0     C 2570   3.490   1.687   0.467  0.1818 -0.5993 -0.1028
  778MOL0     C 2571   3.402   1.578   0.474 -0.1540 -1.3785  0.1069
  778MOL0     O 2572   3.274   1.618   0.451  0.1932 -0.2694 -0.0727
  778MOL0     C 2573   3.166   1.529   0.419  0.3089 -0.0887 -0.4042
  778MOL0     C 2574   3.096   1.497   0.551 -0.2659  0.2743  0.3696
  778MOL0     C 2575   3.019   1.618   0.611 -0.1144  0.0398  0.7465
  778MOL0     C 2576   2.955   1.571   0.744 -0.5600  1.0088 -0.4263
  778MOL0     C 2577   2.834   1.653   0.791 -0.9402 -0.4067 -0.0608
  778MOL0     C 2578   2.783   1.618   0.931  0.1313  0.3393 -0.1086
  778MOL0     C 2579   2.750   1.473   0.966 -0.4859  0.2333 -0.4652
  778MOL0     C 2580   2.620   1.447   0.884  0.6868  0.2058  0.4712
  778MOL0     N 2581   2.558   1.331   0.937 -0.7711 -0.1238 -0.7071
  778MOL0     C 2582   2.478   1.328   1.044 -0.0299  0.4704 -0.1729
  778MOL0     C 2583   2.459   1.202   1.080 -0.4706  0.4144 -0.4543
  778MOL0     C 2584   2.375   1.164   1.199 -0.7058 -0.1884 -0.2193
  778MOL0     C 2585   2.249   1.105   1.136  0.7661  0.8087  0.1068
  778MOL0     C 2586   2.115   1.138   1.217 -0.4875 -0.6711 -0.0522
  778MOL0     C 2587   1.989   1.118   1.137 -1.0244 -0.3435 -0.4411
  778MOL0     O 2588   1.956   1.230   1.047 -0.2864 -0.9104 -0.1667
  778MOL0     C 2589   1.828   1.258   1.013  0.2101  0.5911 -0.4598
  778MOL0     C 2590   1.713   1.188   1.057 -0.9698 -0.2409 -0.0234
  778MOL0     C 2591   1.589   1.217   1.008  0.3880 -0.1303  0.0133
  778MOL0     C 2592   1.572   1.327   0.917  0.1616 -0.1598  0.8398
  778MOL0     C 2593   1.437   1.385   0.889  0.5165  1.2389  0.1660
  778MOL0     O 2594   1.335   1.315   0.953  0.2963 -0.2779 -0.5905
  778MOL0     C 2595   1.199   1.343   0.936 -0.0902  2.0304  0.4736
  778MOL0     C 2596   1.119   1.300   1.045  0.3743  0.2824  0.5541
  778MOL0     C 2597   0.982   1.305   1.036  0.1962 -0.6541 -0.4290
  778MOL0     C 2598   0.918   1.364   0.924  0.0207  0.5428  0.5750
  778MOL0     O 2599   0.784   1.371   0.901  0.9834  0.5811  0.1023
  778MOL0     C 2600   0.684   1.327   0.997 -0.1391  0.5680  0.8848
  778MOL0     C 2601   0.544   1.329   0.929 -0.2021 -0.0740 -0.9779
  778MOL0     C 2602   0.526   1.230   0.817  0.5150 -0.7258  0.5619
  778MOL0     C 2603   0.502   1.085   0.865  0.6439  0.3557  0.4662
  778MOL0     C 2604   0.433   1.019   0.738  0.5857  0.2462 -0.1155
  778MOL0     C 2605   0.401   0.867   0.762 -0.3180 -1.4937  0.3057
  778MOL0     C 2606   0.263   0.844   0.828  0.3712 -0.8560 -0.4262
  778MOL0     C 2607   0.236   0.702   0.865 -0.0355  1.0218 -0.2844
  778MOL0    Cl 2608   0.370   0.643   0.973  0.3987 -0.2624 -0.0992
  778MOL0     C 2609   0.996   1.409   0.818 -0.5211 -0.4741  0.3959
  778MOL0     C 2610   1.133   1.397   0.821  0.4708  0.1469  0.1326
  778MOL0     O 2611   1.418   1.485   0.818 -0.8384  0.5100 -0.4182
  778MOL0     C 2612   1.682   1.391   0.868 -0.2593  0.2074  0.1931
  778MOL0     C 2613   1.803   1.364   0.922 -0.4366 -0.2639 -0.6238
  778MOL0     N 2614   2.515   1.118   0.987  0.0773  0.0605  0.6703
  778MOL0     N 2615   2.577   1.198   0.901  0.4013  0.3261  0.2845
  778MOL0     C 2616   3.456   1.452   0.512 -0.6296  0.2770 -1.0892
  778MOL0     C 2617   3.593   1.436   0.523  0.0233  0.3011  0.3332
  778MOL0     C 2618   4.050   1.461   0.509  0.4017 -0.9987  0.0679
  778MOL0     C 2619   4.144   1.356   0.532 -0.1988  1.0950 -0.3266
  778MOL0     C 2620   4.280   1.390   0.526  0.5840 -0.2390  0.6326
  778MOL0     C 2621   4.329   1.517   0.494  0.4980 -0.6561 -0.3239
  778MOL0     O 2622   4.468   1.543   0.488  1.3106 -0.2673 -0.2173
  778MOL0     C 2623   4.535   1.522   0.618 -0.0225 -0.6644  0.3908
  778MOL0     C 2624   4.673   1.584   0.613  0.3875  0.2173 -0.5048
  778MOL0     C 2625   4.756   1.551   0.745  0.0665  0.6221 -0.1344
  778MOL0     C 2626   4.862   1.660   0.765  0.3042 -0.4692  0.8970
  778MOL0     C 2627   4.807   1.789   0.792  0.4978  0.2955  0.1672
  778MOL0     C 2628   4.748   1.892   0.814  0.3163 -0.0247 -0.4065
  778MOL0     C 2629   4.234   1.623   0.474 -0.3592  0.0182  0.7370
  778MOL0     C 2630   4.097   1.591   0.477 -0.3469  0.1112  0.0114
  778MOL0     H 2631   3.684   1.763   0.476 -3.0927  2.0828  1.4815
  778MOL0     H 2632   3.463   1.786   0.433  1.6091  0.5528  1.9211
  778MOL0     H 2633   3.198   1.438   0.368 -0.6116 -1.9418  2.1260
  778MOL0     H 2634   3.096   1.578   0.350 -1.1184  0.6194  1.4510
  778MOL0     H 2635   3.170   1.457   0.620 -0.9433 -1.8646 -0.0827
  778MOL0     H 2636   3.029   1.411   0.544  0.0275  0.0512  0.3031
  778MOL0     H 2637   2.949   1.657   0.536 -1.7618 -1.7856  1.2617
  778MOL0     H 2638   3.089   1.700   0.629 -1.3223  1.1595  0.4434
  778MOL0     H 2639   2.916   1.472   0.722 -2.7388  2.1309 -1.9983
  778MOL0     H 2640   3.034   1.547   0.815 -2.1520 -1.4212  0.6385
  778MOL0     H 2641   2.752   1.638   0.720 -0.4432  2.3433 -1.3818
  778MOL0     H 2642   2.851   1.760   0.777 -1.1702 -0.5112 -1.2390
  778MOL0     H 2643   2.696   1.679   0.957  0.3143  0.8650 -0.6951
  778MOL0     H 2644   2.863   1.651   0.998  0.4823 -2.1713  0.7916
  778MOL0     H 2645   2.828   1.401   0.937 -0.2043 -1.7305  4.1683
  778MOL0     H 2646   2.738   1.458   1.074  0.8452 -1.9587 -0.5552
  778MOL0     H 2647   2.645   1.424   0.780  1.5139 -0.8235  0.8827
  778MOL0     H 2648   2.558   1.537   0.875  2.0652  1.0271 -1.4630
  778MOL0     H 2649   2.434   1.419   1.085  0.2900  1.0370 -1.0447
  778MOL0     H 2650   2.347   1.260   1.243 -2.1450  0.1844 -1.8548
  778MOL0     H 2651   2.432   1.105   1.272 -2.4936  0.6452  1.9806
  778MOL0     H 2652   2.255   0.996   1.134 -2.7324  0.4807 -3.1130
  778MOL0     H 2653   2.232   1.146   1.036 -0.0621  0.0346 -0.0799
  778MOL0     H 2654   2.118   1.077   1.308 -0.9498 -0.8726 -0.1687
  778MOL0     H 2655   2.131   1.245   1.231 -1.2550 -0.6905  1.0494
  778MOL0     H 2656   1.926   1.106   1.226 -0.2405 -0.2619  0.1289
  778MOL0     H 2657   1.991   1.027   1.076  0.0547 -1.0007  0.5299
  778MOL0     H 2658   1.731   1.109   1.129 -0.5957  0.6296  0.8555
  778MOL0     H 2659   1.500   1.167   1.047  0.7426  0.7707  2.1287
  778MOL0     H 2660   1.165   1.273   1.140 -1.1335  2.4451  1.9894
  778MOL0     H 2661   0.933   1.270   1.126 -1.7980  0.6916 -0.9203
  778MOL0     H 2662   0.683   1.389   1.087 -1.4530  1.7416  0.1064
  778MOL0     H 2663   0.708   1.222   1.018 -2.8748 -0.8528 -2.1937
  778MOL0     H 2664   0.528   1.433   0.900 -3.8498 -0.6110 -1.3376
  778MOL0     H 2665   0.472   1.306   1.008 -0.1303 -2.4027 -1.5306
  778MOL0     H 2666   0.600   1.250   0.738 -2.6628 -0.6727 -2.6442
  778MOL0     H 2667   0.437   1.270   0.768  2.7960 -0.4200 -3.8433
  778MOL0     H 2668   0.597   1.038   0.889  0.5336  0.7071  1.6488
  778MOL0     H 2669   0.434   1.093   0.950  0.0373  4.0296 -0.1824
  778MOL0     H 2670   0.513   1.014   0.663  1.1020  3.8363  0.0263
  778MOL0     H 2671   0.342   1.071   0.706  0.7022  0.1409 -0.6303
  778MOL0     H 2672   0.479   0.809   0.813  0.0019  0.4828  2.2390
  778MOL0     H 2673   0.389   0.820   0.664  2.1935  2.4985 -2.2053
  778MOL0     H 2674   0.246   0.902   0.919 -0.8045  0.1370 -1.2382
  778MOL0     H 2675   0.191   0.872   0.750  0.1413  0.1621  0.1309
  778MOL0     H 2676   0.235   0.650   0.768 -3.3124  1.4415 -0.5690
  778MOL0     H 2677   0.140   0.694   0.915  1.3578 -1.4591  2.2166
  778MOL0     H 2678   0.952   1.442   0.725 -0.8369 -3.6001 -0.6790
  778MOL0     H 2679   1.190   1.416   0.731  1.6021 -1.4829  0.4562
  778MOL0     H 2680   1.667   1.470   0.795  0.0601  0.3638  0.2961
  778MOL0     H 2681   1.892   1.421   0.896 -1.2442  0.5710 -1.5961
  778MOL0     H 2682   3.382   1.374   0.521 -0.8871  0.5366 -0.9350
  778MOL0     H 2683   3.631   1.336   0.545  1.4448  1.0374  1.3591
  778MOL0     H 2684   4.121   1.257   0.570  2.4612  1.0578  1.3837
  778MOL0     H 2685   4.360   1.319   0.544  0.7072 -0.0460  0.8549
  778MOL0     H 2686   4.532   1.415   0.640 -0.7372 -0.6542  0.3556
  778MOL0     H 2687   4.481   1.573   0.698  0.5191  1.2094 -0.3658
  778MOL0     H 2688   4.728   1.534   0.532 -1.5146 -1.2524 -0.9768
  778MOL0     H 2689   4.651   1.689   0.591 -3.1643 -0.6045 -1.4525
  778MOL0     H 2690   4.811   1.458   0.731  0.0774  0.5939  0.0892
  778MOL0     H 2691   4.692   1.538   0.833  2.1138 -1.5480  1.1648
  778MOL0     H 2692   4.927   1.636   0.849  1.1513  2.2318  1.1130
  778MOL0     H 2693   4.922   1.665   0.673  1.8205 -1.0388  1.8191
  778MOL0     H 2694   4.687   1.978   0.833 -0.8845 -0.8661 -0.3052
  778MOL0     H 2695   4.261   1.726   0.450 -2.5068  0.3212 -0.5616
  778MOL0     H 2696   4.027   1.672   0.461  0.0724 -0.0067 -3.1839
  779MOL0     O 2697   0.054   2.899   4.703 -0.5038  0.5331  0.2450
  779MOL0     C 2698   0.097   2.818   4.789 -0.1519  0.5706  1.1114
  779MOL0     O 2699   0.048   2.696   4.812  0.5622  0.2676 -0.1741
  779MOL0     C 2700  -0.063   2.660   4.743  0.1070 -0.4813 -0.6431
  779MOL0     C 2701  -0.049   2.583   4.625  0.2891  0.3794  0.9054
  779MOL0     C 2702  -0.166   2.533   4.565 -0.0741  0.2449  0.3687
  779MOL0     C 2703  -0.288   2.577   4.599  0.8604 -0.1238  0.0413
  779MOL0     O 2704  -0.405   2.549   4.533  0.6095 -0.4379 -0.4053
  779MOL0     C 2705  -0.416   2.545   4.397 -0.2282  0.1375 -0.4816
  779MOL0     C 2706  -0.559   2.552   4.347  0.5316  0.1930 -0.2402
  779MOL0     C 2707  -0.634   2.678   4.393  0.1448  0.1801  0.0555
  779MOL0     C 2708  -0.784   2.655   4.370  0.3132 -0.0030 -0.1402
  779MOL0     C 2709  -0.876   2.765   4.411  0.5839 -0.2648  0.8553
  779MOL0     C 2710  -0.889   2.880   4.312 -0.6958 -0.3143 -0.4097
  779MOL0     C 2711  -0.998   2.981   4.350 -0.9452 -0.1432 -0.0332
  779MOL0     C 2712  -0.948   3.086   4.451 -0.7983  0.2651 -0.1026
  779MOL0     N 2713  -1.061   3.161   4.502  0.5630  0.0658 -0.2032
  779MOL0     C 2714  -1.140   3.241   4.428 -0.6315 -0.8122 -0.5117
  779MOL0     C 2715  -1.236   3.278   4.519  0.6131 -0.0037 -1.1331
  779MOL0     C 2716  -1.352   3.374   4.480 -0.0556  0.2178 -0.0977
  779MOL0     C 2717  -1.378   3.487   4.580 -0.4475  0.1079 -0.4779
  779MOL0     C 2718  -1.456   3.441   4.710 -0.2146  0.2426 -0.1424
  779MOL0     C 2719  -1.431   3.541   4.822 -0.1268 -0.1234 -0.7425
  779MOL0     O 2720  -1.514   3.502   4.933  0.1466  0.1835 -0.6103
  779MOL0     C 2721  -1.649   3.536   4.917 -0.6841 -0.0160 -0.1704
  779MOL0     C 2722  -1.736   3.430   4.944  0.1935  0.7525 -0.3696
  779MOL0     C 2723  -1.875   3.457   4.941 -0.1006  0.2593 -0.7289
  779MOL0     C 2724  -1.921   3.585   4.908  0.5980  0.0265 -0.6654
  779MOL0     C 2725  -2.064   3.604   4.916  0.2365 -0.4398  0.7672
  779MOL0     O 2726  -2.133   3.537   5.009  0.3576  0.0968  0.1995
  779MOL0     C 2727  -2.271   3.549   5.002 -0.2831  0.2481 -0.2904
  779MOL0     C 2728  -2.333   3.656   5.060 -0.0139  0.4801  0.6480
  779MOL0     C 2729  -2.467   3.678   5.039  0.3790 -0.0453 -0.4892
  779MOL0     C 2730  -2.552   3.585   4.975  0.7394  0.9339 -0.2038
  779MOL0     O 2731  -2.689   3.614   4.982 -0.2544  0.8117 -0.5790
  779MOL0     C 2732  -2.774   3.512   4.923  0.3739 -0.3103 -0.5434
  779MOL0     C 2733  -2.926   3.546   4.929 -0.3789  0.5072 -0.8127
  779MOL0     C 2734  -3.012   3.417   4.948 -0.5627 -0.5228  0.1922
  779MOL0     C 2735  -3.165   3.433   4.933  0.1149  0.2698 -0.0398
  779MOL0     C 2736  -3.221   3.512   5.045 -0.4588 -0.3548 -0.8763
  779MOL0     C 2737  -3.371   3.520   5.020 -0.3358 -0.6900 -0.3707
  779MOL0     C 2738  -3.410   3.592   4.887 -0.9771  0.4747  1.2620
  779MOL0     C 2739  -3.553   3.627   4.897 -0.2882  0.4360  0.3453
  779MOL0    Cl 2740  -3.669   3.497   4.861 -0.3790  0.2247  0.1403
  779MOL0     C 2741  -2.488   3.475   4.913  0.6256  1.0490  0.3255
  779MOL0     C 2742  -2.346   3.460   4.922 -0.4249 -0.4683 -0.4450
  779MOL0     O 2743  -2.111   3.694   4.850 -0.2469 -1.0483  0.3639
  779MOL0     C 2744  -1.839   3.695   4.880  1.3369  1.7774  1.1041
  779MOL0     C 2745  -1.702   3.667   4.883 -0.7113  0.7129 -0.1892
  779MOL0     N 2746  -1.215   3.231   4.646 -0.3703  0.0235  0.0574
  779MOL0     N 2747  -1.105   3.158   4.636  0.1158 -0.4658 -0.2541
  779MOL0     C 2748  -0.304   2.656   4.714 -0.7039  0.5202  0.2563
  779MOL0     C 2749  -0.193   2.702   4.791 -0.3509  0.1845  1.3378
  779MOL0     C 2750   0.227   2.854   4.854  1.1451  0.1659  0.3819
  779MOL0     C 2751   0.260   2.987   4.854 -0.4420 -0.5162  0.0657
  779MOL0     C 2752   0.386   3.018   4.908  0.0086 -0.6104 -0.2829
  779MOL0     C 2753   0.471   2.927   4.960 -1.2569  0.7363 -0.4112
  779MOL0     O 2754   0.589   2.977   5.018  0.3430  0.1655 -0.2913
  779MOL0     C 2755   0.671   2.912   5.114  1.0378 -0.1325  0.0336
  779MOL0     C 2756   0.734   3.022   5.196  0.2529  0.0103 -0.5689
  779MOL0     C 2757   0.814   3.135   5.126  0.2367  0.2685 -0.1974
  779MOL0     C 2758   0.920   3.070   5.044  0.4311 -0.0534  0.0469
  779MOL0     C 2759   1.026   3.174   5.018  0.4118 -0.5214 -0.3504
  779MOL0     C 2760   1.122   3.249   5.011  0.0843 -0.5221 -0.0792
  779MOL0     C 2761   0.433   2.791   4.964  0.0089 -0.6527 -0.2434
  779MOL0     C 2762   0.317   2.748   4.897 -0.2779 -0.2585 -0.1122
  779MOL0     H 2763   0.047   2.567   4.577  0.6423 -0.5632  1.8783
  779MOL0     H 2764  -0.162   2.453   4.492  1.7306 -1.1995  1.9401
  779MOL0     H 2765  -0.367   2.455   4.357 -0.0695  1.4411 -3.4463
  779MOL0     H 2766  -0.353   2.623   4.354 -1.4361  0.4896 -1.6914
  779MOL0     H 2767  -0.614   2.470   4.396 -2.8215 -1.0208 -5.2557
  779MOL0     H 2768  -0.571   2.528   4.241 -1.1211  0.5126 -0.1492
  779MOL0     H 2769  -0.594   2.757   4.328 -1.1633 -0.7044 -1.9236
  779MOL0     H 2770  -0.622   2.713   4.496 -1.9888  0.4622  0.2589
  779MOL0     H 2771  -0.811   2.631   4.267  1.0530 -0.7913 -0.1614
  779MOL0     H 2772  -0.814   2.567   4.427 -0.9961 -0.3659 -1.3256
  779MOL0     H 2773  -0.843   2.805   4.507  0.4666 -0.8539  1.1451
  779MOL0     H 2774  -0.973   2.716   4.422  0.6441 -1.1983 -1.9022
  779MOL0     H 2775  -0.905   2.847   4.209  0.2521  0.8208 -0.9498
  779MOL0     H 2776  -0.792   2.930   4.319 -0.2797 -1.3569  2.5061
  779MOL0     H 2777  -1.027   3.031   4.257 -1.0823 -0.8863 -0.4017
  779MOL0     H 2778  -1.096   2.938   4.373 -1.5039  1.3877  0.6213
  779MOL0     H 2779  -0.864   3.145   4.415  0.1241 -1.6487 -1.2556
  779MOL0     H 2780  -0.906   3.027   4.533  0.5434 -0.2279 -1.1098
  779MOL0     H 2781  -1.137   3.278   4.326  0.6559  1.2564  0.2081
  779MOL0     H 2782  -1.443   3.314   4.464 -0.3585  0.1280  1.6980
  779MOL0     H 2783  -1.322   3.424   4.387  1.8630 -1.5180 -0.4887
  779MOL0     H 2784  -1.436   3.569   4.538  0.5760  1.9674  1.5109
  779MOL0     H 2785  -1.280   3.524   4.615  0.1003 -0.0721 -1.7853
  779MOL0     H 2786  -1.563   3.430   4.687 -0.2440  4.6298 -3.5787
  779MOL0     H 2787  -1.406   3.347   4.734  2.6735  1.8568  0.6987
  779MOL0     H 2788  -1.455   3.645   4.796 -0.2111  0.3702  1.1631
  779MOL0     H 2789  -1.326   3.525   4.849 -0.7727 -1.6552  1.1558
  779MOL0     H 2790  -1.706   3.328   4.966 -2.0502  0.2225  0.5428
  779MOL0     H 2791  -1.937   3.370   4.964  0.7502 -1.0401 -3.0471
  779MOL0     H 2792  -2.269   3.733   5.101  0.2542  0.9006 -0.5188
  779MOL0     H 2793  -2.517   3.768   5.074 -0.1890 -0.6393  0.2832
  779MOL0     H 2794  -2.758   3.417   4.975 -1.0575  0.4354  1.3769
  779MOL0     H 2795  -2.756   3.493   4.817  1.4005  0.7002 -0.5692
  779MOL0     H 2796  -2.948   3.609   4.842 -1.0670  2.3480  0.6168
  779MOL0     H 2797  -2.937   3.611   5.016  2.7322  0.3166 -0.1815
  779MOL0     H 2798  -2.984   3.385   5.049  4.1160  0.9717 -0.3796
  779MOL0     H 2799  -2.969   3.347   4.875  0.6173 -3.1551  3.1812
  779MOL0     H 2800  -3.168   3.480   4.835 -0.3169 -0.8140 -0.5566
  779MOL0     H 2801  -3.211   3.337   4.909  1.6316 -0.4032 -0.3982
  779MOL0     H 2802  -3.185   3.615   5.034 -0.2726 -0.3397 -0.1703
  779MOL0     H 2803  -3.192   3.469   5.141 -2.7052 -0.9233 -0.3916
  779MOL0     H 2804  -3.414   3.572   5.106  1.7284  0.0034  0.2985
  779MOL0     H 2805  -3.421   3.424   5.033 -1.5261 -0.2665 -1.5839
  779MOL0     H 2806  -3.340   3.672   4.862  0.4258 -0.7605  1.0362
  779MOL0     H 2807  -3.403   3.512   4.813  2.6501  1.3784  0.4150
  779MOL0     H 2808  -3.566   3.694   4.812  1.5281 -0.1218 -0.4252
  779MOL0     H 2809  -3.582   3.669   4.994  2.3475  0.4008  1.2074
  779MOL0     H 2810  -2.548   3.416   4.844  1.4981  0.1385  0.3318
  779MOL0     H 2811  -2.303   3.387   4.855  0.6195 -1.0383  0.8156
  779MOL0     H 2812  -1.884   3.788   4.845 -0.2114  0.4446 -0.6747
  779MOL0     H 2813  -1.626   3.742   4.864 -1.1166  1.2375  0.2159
  779MOL0     H 2814  -0.396   2.689   4.760 -1.3038  0.3318 -0.7797
  779MOL0     H 2815  -0.206   2.767   4.876  4.1323  2.4289  0.5938
  779MOL0     H 2816   0.189   3.060   4.818 -0.6455 -0.5343  0.4261
  779MOL0     H 2817   0.414   3.123   4.903  1.7967 -1.0253  0.1971
  779MOL0     H 2818   0.737   2.844   5.060 -1.4043 -1.7499 -1.0825
  779MOL0     H 2819   0.607   2.853   5.180  0.1662  2.1012  1.3141
  779MOL0     H 2820   0.657   3.078   5.250 -1.3683 -3.6863  1.3019
  779MOL0     H 2821   0.809   2.978   5.262  0.8785  0.9943 -0.6063
  779MOL0     H 2822   0.852   3.202   5.204 -3.4140 -0.7719  2.7728
  779MOL0     H 2823   0.739   3.189   5.068 -2.2775 -1.9564  0.7823
  779MOL0     H 2824   0.972   2.995   5.104  1.6886  0.8639  0.1473
  779MOL0     H 2825   0.886   3.012   4.958  2.2210 -0.1865 -0.6121
  779MOL0     H 2826   1.208   3.310   4.989  0.2041  0.0247  1.6790
  779MOL0     H 2827   0.482   2.710   5.017 -2.3562  0.0771  3.4882
  779MOL0     H 2828   0.291   2.643   4.895  4.2106 -1.6014  0.2254
  780MOL0     O 2829   2.550   3.841   7.245 -0.5418 -0.0919 -0.0584
  780MOL0     C 2830   2.553   3.960   7.282 -0.5234  0.4001 -0.3816
  780MOL0     O 2831   2.445   4.030   7.313  0.8281 -0.1455 -0.0092
  780MOL0     C 2832   2.324   3.996   7.262 -0.0687  0.3289  0.0582
  780MOL0     C 2833   2.309   3.955   7.127  0.4816  0.1324  0.0061
  780MOL0     C 2834   2.178   3.949   7.066  0.1484 -0.2741  0.2307
  780MOL0     C 2835   2.066   3.970   7.151 -0.2892  0.0100  0.5178
  780MOL0     O 2836   1.932   3.966   7.115 -0.1035  0.5573 -0.0873
  780MOL0     C 2837   1.904   3.956   6.975  0.0609  0.2980 -0.3534
  780MOL0     C 2838   1.750   3.944   6.958 -0.0038  0.1036 -0.5022
  780MOL0     C 2839   1.730   3.954   6.805 -0.0391  0.8807  0.3455
  780MOL0     C 2840   1.575   3.937   6.770  0.4044 -0.1792  1.3298
  780MOL0     C 2841   1.571   3.894   6.623  1.0953  1.5023  0.0969
  780MOL0     C 2842   1.426   3.853   6.581 -0.3602  0.5852  0.2422
  780MOL0     C 2843   1.338   3.975   6.571 -0.0176 -0.1604  0.9190
  780MOL0     C 2844   1.195   3.947   6.516  0.7470  0.1351 -0.1320
  780MOL0     N 2845   1.124   4.067   6.540  0.7506  0.3263 -0.1504
  780MOL0     C 2846   1.142   4.180   6.460 -1.3050 -0.4122  0.4357
  780MOL0     C 2847   1.073   4.280   6.525 -0.8472 -0.1279 -0.7393
  780MOL0     C 2848   1.068   4.415   6.473  0.6753 -0.3959  0.2753
  780MOL0     C 2849   0.972   4.416   6.353  0.3254  0.5211 -0.5069
  780MOL0     C 2850   0.823   4.406   6.385  0.5383  0.5772  0.1693
  780MOL0     C 2851   0.765   4.283   6.449 -0.4325  0.4077  0.5107
  780MOL0     O 2852   0.636   4.239   6.400 -0.4576 -0.7540  0.1655
  780MOL0     C 2853   0.565   4.138   6.462 -1.6140  0.1412 -0.4813
  780MOL0     C 2854   0.435   4.108   6.429  0.5779 -1.0467  0.1840
  780MOL0     C 2855   0.358   4.014   6.500 -0.5389 -0.4140 -0.2947
  780MOL0     C 2856   0.415   3.935   6.600  0.0653  0.2944 -0.0977
  780MOL0     C 2857   0.339   3.846   6.694 -0.3487  0.2649 -0.5791
  780MOL0     O 2858   0.379   3.831   6.828 -0.8281 -0.5199  0.0256
  780MOL0     C 2859   0.317   3.730   6.890 -0.4738  0.1061 -0.0416
  780MOL0     C 2860   0.205   3.764   6.970  1.0748 -0.3172  1.0356
  780MOL0     C 2861   0.130   3.664   7.027  0.8252  0.4465  0.2255
  780MOL0     C 2862   0.164   3.532   7.004 -0.2066  1.0327 -0.1288
  780MOL0     O 2863   0.101   3.428   7.083  0.2957 -0.2316  0.0078
  780MOL0     C 2864   0.098   3.289   7.044  1.0212 -0.1185  0.3422
  780MOL0     C 2865  -0.004   3.211   7.127  1.1017 -0.0033 -0.5114
  780MOL0     C 2866  -0.144   3.251   7.085 -0.1237  0.3812  0.3554
  780MOL0     C 2867  -0.251   3.162   7.169  0.7515 -1.1116 -0.2952
  780MOL0     C 2868  -0.236   3.191   7.320  0.5418 -0.5280  0.2675
  780MOL0     C 2869  -0.348   3.103   7.375 -0.6148  0.1788 -1.1090
  780MOL0     C 2870  -0.341   3.114   7.530 -0.0691 -0.0817  0.4893
  780MOL0     C 2871  -0.463   3.049   7.596 -0.5213 -0.6662  0.7636
  780MOL0    Cl 2872  -0.613   3.138   7.566 -0.4024 -0.4861  0.6045
  780MOL0     C 2873   0.266   3.492   6.921  0.0622 -0.3451  0.3760
  780MOL0     C 2874   0.349   3.594   6.863  0.4587 -0.2467 -0.3516
  780MOL0     O 2875   0.245   3.783   6.641  0.1833  0.2944 -0.1518
  780MOL0     C 2876   0.550   3.958   6.624  0.0016 -0.9538 -1.1743
  780MOL0     C 2877   0.627   4.049   6.551 -0.2910 -1.3344  0.7912
  780MOL0     N 2878   1.018   4.232   6.643 -0.4108 -0.1022  0.3424
  780MOL0     N 2879   1.041   4.106   6.640 -0.3973  0.9544 -0.1568
  780MOL0     C 2880   2.080   3.988   7.285 -0.6191 -0.3518 -0.1282
  780MOL0     C 2881   2.203   4.001   7.340  0.2772 -0.1997  1.1168
  780MOL0     C 2882   2.680   4.001   7.340  0.6090 -0.0383 -0.1296
  780MOL0     C 2883   2.804   3.942   7.292 -0.3603 -0.1220  0.7397
  780MOL0     C 2884   2.920   3.963   7.360  0.1462 -0.5646  0.5354
  780MOL0     C 2885   2.925   4.046   7.474  0.0790 -0.0232  0.9647
  780MOL0     O 2886   3.037   4.074   7.544  0.3042  0.6632 -0.3015
  780MOL0     C 2887   3.151   3.995   7.516 -0.7301 -0.2344 -0.1618
  780MOL0     C 2888   3.265   4.003   7.627  0.0069  0.2418 -0.2845
  780MOL0     C 2889   3.318   4.151   7.634  0.6567  0.6622  0.2964
  780MOL0     C 2890   3.403   4.175   7.761 -0.3597 -0.7061  0.7290
  780MOL0     C 2891   3.530   4.110   7.736 -0.3411  0.0130  0.5559
  780MOL0     C 2892   3.647   4.067   7.719  1.7566  0.3480 -0.0576
  780MOL0     C 2893   2.808   4.103   7.519 -0.4161 -0.1896  0.5980
  780MOL0     C 2894   2.695   4.085   7.452  0.4863  0.0845 -0.5905
  780MOL0     H 2895   2.392   3.944   7.058  1.7096 -0.3446  1.4933
  780MOL0     H 2896   2.170   3.939   6.958  1.6165 -1.4709  0.1941
  780MOL0     H 2897   1.955   3.861   6.958  2.3008  1.1895  0.9596
  780MOL0     H 2898   1.948   4.032   6.910  2.0890  1.0346  1.7440
  780MOL0     H 2899   1.689   4.024   7.001  0.0670  0.6316 -1.3693
  780MOL0     H 2900   1.713   3.847   6.993 -1.9365  1.1503  0.5399
  780MOL0     H 2901   1.788   3.874   6.758  2.1600  0.9461  2.7402
  780MOL0     H 2902   1.763   4.054   6.774 -1.8536  1.8386  1.3430
  780MOL0     H 2903   1.515   3.875   6.837 -0.6016 -0.6193  0.0662
  780MOL0     H 2904   1.514   4.028   6.769 -0.2683 -0.5667 -1.4552
  780MOL0     H 2905   1.625   3.800   6.606 -2.7040 -0.5452 -1.9792
  780MOL0     H 2906   1.619   3.972   6.563  1.3858  0.1024 -1.5497
  780MOL0     H 2907   1.385   3.783   6.654 -1.3124  2.4406  1.5617
  780MOL0     H 2908   1.431   3.809   6.481  0.6534  4.4929 -1.6339
  780MOL0     H 2909   1.319   4.020   6.669 -1.9395  2.2398 -0.4485
  780MOL0     H 2910   1.387   4.045   6.503  1.4635 -0.8455  1.2341
  780MOL0     H 2911   1.157   3.860   6.570 -0.4549 -0.2229 -1.4939
  780MOL0     H 2912   1.198   3.906   6.415  0.2200 -2.3070  0.7763
  780MOL0     H 2913   1.201   4.186   6.369 -0.1309  0.1309  1.2047
  780MOL0     H 2914   1.170   4.449   6.452  1.1271 -1.5018  0.5747
  780MOL0     H 2915   1.037   4.492   6.543  2.4612  2.3360 -1.7146
  780MOL0     H 2916   1.001   4.335   6.285 -3.1057  1.2101 -3.1217
  780MOL0     H 2917   0.998   4.511   6.305  4.2442 -1.2875 -2.4364
  780MOL0     H 2918   0.789   4.495   6.439 -1.9201 -0.5841  0.6958
  780MOL0     H 2919   0.772   4.418   6.289 -0.4411 -1.7729  0.3099
  780MOL0     H 2920   0.755   4.312   6.554 -1.5694 -0.2528  0.5922
  780MOL0     H 2921   0.839   4.203   6.433 -1.8878 -1.1647  1.3615
  780MOL0     H 2922   0.386   4.176   6.361  1.5414  1.6462  2.0132
  780MOL0     H 2923   0.254   3.991   6.477 -1.3095 -1.4710  3.5459
  780MOL0     H 2924   0.186   3.868   6.995 -0.9329 -0.8053  1.6906
  780MOL0     H 2925   0.049   3.688   7.094 -0.7631 -0.4688 -1.2861
  780MOL0     H 2926   0.194   3.238   7.054  1.1239  0.2851  1.4912
  780MOL0     H 2927   0.062   3.283   6.941  1.0690 -2.2481  0.4078
  780MOL0     H 2928  -0.001   3.243   7.231  3.8499  3.8298 -1.5576
  780MOL0     H 2929   0.005   3.103   7.113  2.0235  0.3067 -2.7083
  780MOL0     H 2930  -0.154   3.247   6.977 -0.7644 -1.5081  0.4502
  780MOL0     H 2931  -0.150   3.355   7.117 -0.9028  1.0163 -1.6927
  780MOL0     H 2932  -0.354   3.182   7.138  0.6438 -2.0838 -0.5991
  780MOL0     H 2933  -0.232   3.057   7.146  4.3919 -0.8061  0.7314
  780MOL0     H 2934  -0.243   3.299   7.336 -0.7799 -0.5371 -0.1472
  780MOL0     H 2935  -0.145   3.157   7.371 -1.1186  0.7124  4.4547
  780MOL0     H 2936  -0.335   3.000   7.339 -1.0051 -0.7001  1.1102
  780MOL0     H 2937  -0.447   3.134   7.343 -0.8167  1.1398  0.3488
  780MOL0     H 2938  -0.251   3.066   7.570  2.1863  4.0461  0.9006
  780MOL0     H 2939  -0.340   3.216   7.570 -0.7105  0.3284 -0.4954
  780MOL0     H 2940  -0.461   3.038   7.705  0.5962 -0.3471  0.7876
  780MOL0     H 2941  -0.478   2.945   7.565  1.6040 -0.7202 -0.2027
  780MOL0     H 2942   0.289   3.388   6.898  3.1936  0.4494 -0.5551
  780MOL0     H 2943   0.433   3.566   6.799  1.0390 -3.5423  1.6005
  780MOL0     H 2944   0.595   3.901   6.705  0.7072 -0.0430 -0.9062
  780MOL0     H 2945   0.731   4.061   6.580  0.3166  1.9150 -2.0082
  780MOL0     H 2946   1.996   3.996   7.354 -1.2441 -0.6151 -0.8466
  780MOL0     H 2947   2.204   4.037   7.442 -4.2155 -0.5509  1.4745
  780MOL0     H 2948   2.804   3.866   7.214  0.6031 -0.8017  1.3951
  780MOL0     H 2949   2.998   3.891   7.337  0.0380 -0.0942 -1.5176
  780MOL0     H 2950   3.201   4.025   7.423 -0.9746  0.4030 -0.0948
  780MOL0     H 2951   3.119   3.891   7.510 -2.4858  0.3747 -3.2718
  780MOL0     H 2952   3.227   3.976   7.726 -1.5309 -4.2780 -1.8285
  780MOL0     H 2953   3.346   3.931   7.608 -1.1419 -0.5748 -2.4411
  780MOL0     H 2954   3.227   4.210   7.646 -0.8255 -1.6180  0.8574
  780MOL0     H 2955   3.375   4.191   7.550  2.6437  0.9525  1.7224
  780MOL0     H 2956   3.416   4.283   7.776  1.1218 -0.8898  0.9088
  780MOL0     H 2957   3.352   4.136   7.849 -6.5227  2.0023 -1.1195
  780MOL0     H 2958   3.746   4.043   7.684  1.3498 -1.7714  0.0810
  780MOL0     H 2959   2.801   4.177   7.598 -2.0674  0.0639  0.2485
  780MOL0     H 2960   2.605   4.131   7.491  0.0660 -0.4606 -0.9090
  781MOL0     O 2961   5.250   7.630   7.637  0.4094  0.7688  0.0461
  781MOL0     C 2962   5.325   7.719   7.663 -0.4691 -0.3102  0.1316
  781MOL0     O 2963   5.288   7.853   7.693 -0.2593 -0.1003  0.5306
  781MOL0     C 2964   5.164   7.896   7.666 -0.6164  0.9972 -0.0710
  781MOL0     C 2965   5.057   7.859   7.742  0.5005  0.7466 -0.5487
  781MOL0     C 2966   4.930   7.909   7.722  0.0770 -0.4407 -0.3185
  781MOL0     C 2967   4.909   8.017   7.623 -0.3502 -0.2142  0.3683
  781MOL0     O 2968   4.791   8.078   7.606 -1.0791  0.0368  0.2788
  781MOL0     C 2969   4.686   8.072   7.696 -0.1224  1.0895  0.3081
  781MOL0     C 2970   4.573   8.163   7.665  0.6144  0.6014  0.3430
  781MOL0     C 2971   4.447   8.123   7.745 -0.3394 -0.4053  0.1813
  781MOL0     C 2972   4.327   8.190   7.669  0.0247 -0.2284  0.1320
  781MOL0     C 2973   4.195   8.143   7.728  0.6660 -0.6227  0.3663
  781MOL0     C 2974   4.076   8.194   7.653  0.5330 -0.0992  0.4049
  781MOL0     C 2975   3.948   8.135   7.716 -0.3006 -0.0017 -0.6389
  781MOL0     C 2976   3.829   8.124   7.623  0.2632 -0.0036  0.3541
  781MOL0     N 2977   3.710   8.063   7.683  0.5275 -0.1332  0.4020
  781MOL0     C 2978   3.673   8.059   7.817 -0.4247  0.3353  0.0242
  781MOL0     C 2979   3.572   7.961   7.820 -0.4116 -0.1588  0.0457
  781MOL0     C 2980   3.514   7.928   7.955 -0.2309  1.2700  0.1028
  781MOL0     C 2981   3.390   8.008   7.989  1.0450 -0.0183  1.0909
  781MOL0     C 2982   3.277   7.946   8.073  0.1729  0.6251  0.7388
  781MOL0     C 2983   3.202   7.833   8.004 -0.1667 -0.4949  1.1096
  781MOL0     O 2984   3.067   7.810   8.054 -0.3857  0.4403 -0.5371
  781MOL0     C 2985   3.048   7.698   8.141 -0.0653 -0.7127 -0.0210
  781MOL0     C 2986   3.147   7.610   8.189 -0.9388 -0.1583 -0.5540
  781MOL0     C 2987   3.104   7.490   8.247 -0.2365 -0.4052 -0.2147
  781MOL0     C 2988   2.973   7.475   8.291  0.4194  0.0285  0.7718
  781MOL0     C 2989   2.947   7.363   8.384 -0.2113  0.2299 -0.2692
  781MOL0     O 2990   2.837   7.379   8.455  0.1496  0.3544  0.5714
  781MOL0     C 2991   2.775   7.278   8.517  0.4598  0.2190  0.5787
  781MOL0     C 2992   2.653   7.219   8.474  0.3968  0.0497 -0.5113
  781MOL0     C 2993   2.593   7.122   8.552 -0.3540  0.8988 -0.6826
  781MOL0     C 2994   2.644   7.079   8.676 -0.1404  0.3011 -0.0596
  781MOL0     O 2995   2.580   6.983   8.752 -0.0921 -0.0067 -0.5252
  781MOL0     C 2996   2.442   7.011   8.784 -0.1433 -0.4331 -0.0188
  781MOL0     C 2997   2.343   6.905   8.724  0.4922  0.2714 -0.9790
  781MOL0     C 2998   2.372   6.761   8.768 -0.6060  0.1291 -0.1896
  781MOL0     C 2999   2.344   6.728   8.915 -0.5782 -0.1277 -0.2477
  781MOL0     C 3000   2.421   6.605   8.964  0.1943 -0.7111 -0.1605
  781MOL0     C 3001   2.388   6.551   9.104  0.0090  0.1397 -0.6447
  781MOL0     C 3002   2.440   6.650   9.212 -0.0037 -0.3081  0.8815
  781MOL0     C 3003   2.394   6.614   9.360  0.6926  0.2885 -0.0347
  781MOL0    Cl 3004   2.216   6.647   9.373  0.5723 -0.2460  0.0295
  781MOL0     C 3005   2.762   7.137   8.717 -0.1458 -0.7918 -0.7526
  781MOL0     C 3006   2.824   7.231   8.638  0.1663  0.0693 -0.1145
  781MOL0     O 3007   3.021   7.262   8.396 -0.7216 -0.5522  0.1373
  781MOL0     C 3008   2.876   7.568   8.259 -0.4859  0.7170 -1.4296
  781MOL0     C 3009   2.918   7.675   8.173 -0.3971  0.4512  0.6689
  781MOL0     N 3010   3.556   7.909   7.689  0.0500  0.8254  0.2058
  781MOL0     N 3011   3.633   7.978   7.613  0.1975  0.2184 -0.1137
  781MOL0     C 3012   5.028   8.066   7.561 -0.6223 -1.0437  0.7103
  781MOL0     C 3013   5.157   8.002   7.581  0.3433  0.3399  0.4074
  781MOL0     C 3014   5.461   7.676   7.688 -0.0844 -0.0656 -0.1561
  781MOL0     C 3015   5.493   7.547   7.643 -0.0005 -0.0653 -0.3329
  781MOL0     C 3016   5.618   7.499   7.674 -0.0230 -0.5971  0.0569
  781MOL0     C 3017   5.717   7.581   7.732  0.8191  0.4461  0.3873
  781MOL0     O 3018   5.839   7.517   7.754 -0.4837  0.0522 -0.0339
  781MOL0     C 3019   5.959   7.595   7.778 -0.4210 -0.5133  0.3932
  781MOL0     C 3020   6.063   7.536   7.870  0.5672 -1.1639 -1.4432
  781MOL0     C 3021   6.095   7.389   7.850 -0.2798  0.2395  0.7271
  781MOL0     C 3022   6.166   7.331   7.973 -0.1554 -0.0661  0.4111
  781MOL0     C 3023   6.058   7.281   8.056  0.1675  0.6402  0.4840
  781MOL0     C 3024   5.967   7.213   8.110 -0.4298 -0.0068  0.0762
  781MOL0     C 3025   5.683   7.718   7.761 -0.2308  0.5045 -0.0135
  781MOL0     C 3026   5.558   7.761   7.735 -0.3360 -0.2937 -0.2786
  781MOL0     H 3027   5.074   7.774   7.807 -4.3566 -0.6375 -0.7428
  781MOL0     H 3028   4.847   7.867   7.777  0.8584 -1.1435  0.3465
  781MOL0     H 3029   4.713   8.102   7.798 -0.0859  0.1004  0.6069
  781MOL0     H 3030   4.647   7.970   7.699  1.1112  0.3053 -3.7233
  781MOL0     H 3031   4.553   8.166   7.557 -0.3320 -0.0290  0.4918
  781MOL0     H 3032   4.610   8.262   7.692 -1.5446  2.1329 -1.8612
  781MOL0     H 3033   4.465   8.166   7.844  1.5320 -0.1214 -0.2399
  781MOL0     H 3034   4.422   8.017   7.749  1.0373 -0.7080  1.8086
  781MOL0     H 3035   4.332   8.299   7.673 -0.8015 -0.2258  2.2822
  781MOL0     H 3036   4.326   8.170   7.562 -1.3631  0.0080  0.0821
  781MOL0     H 3037   4.182   8.182   7.829 -2.4734  2.6955 -1.0821
  781MOL0     H 3038   4.194   8.034   7.724 -2.5379 -0.6885  0.1309
  781MOL0     H 3039   4.077   8.171   7.546  0.1627 -2.2710  0.8178
  781MOL0     H 3040   4.073   8.303   7.653 -1.2165 -0.1223  0.3758
  781MOL0     H 3041   3.969   8.042   7.771 -1.2056  0.4518  0.5216
  781MOL0     H 3042   3.924   8.214   7.788  2.9653  0.2796  0.3188
  781MOL0     H 3043   3.843   8.071   7.529  0.5791  2.8267 -1.2962
  781MOL0     H 3044   3.800   8.227   7.601  1.3640  0.1500 -0.4015
  781MOL0     H 3045   3.698   8.120   7.903  1.3228  2.2788 -1.7290
  781MOL0     H 3046   3.584   7.928   8.039  2.5962  0.3849 -2.0660
  781MOL0     H 3047   3.480   7.825   7.941 -0.1260  0.9323  2.1232
  781MOL0     H 3048   3.348   8.051   7.897 -0.5681 -0.6979  1.4712
  781MOL0     H 3049   3.431   8.094   8.043  0.8903  1.5644 -1.1634
  781MOL0     H 3050   3.328   7.914   8.164  0.1176 -1.2764  0.1500
  781MOL0     H 3051   3.209   8.021   8.113  1.3612  1.1068  1.9484
  781MOL0     H 3052   3.261   7.740   8.007 -0.4730 -0.6753  1.6232
  781MOL0     H 3053   3.190   7.871   7.902  1.1266  1.8025  1.7445
  781MOL0     H 3054   3.255   7.622   8.179 -0.1887 -0.6963  4.4289
  781MOL0     H 3055   3.174   7.411   8.273 -0.4427 -0.1195  1.2695
  781MOL0     H 3056   2.613   7.260   8.382  2.8634  1.6408 -0.9659
  781MOL0     H 3057   2.490   7.097   8.527 -0.1342 -1.2786  0.3490
  781MOL0     H 3058   2.405   7.100   8.732  2.1053 -0.7795 -2.4579
  781MOL0     H 3059   2.426   7.029   8.891 -0.9258  0.8638 -0.3290
  781MOL0     H 3060   2.354   6.905   8.615  0.1575 -2.0271 -1.0638
  781MOL0     H 3061   2.242   6.925   8.761  1.5167  0.9025  1.6788
  781MOL0     H 3062   2.471   6.725   8.741 -0.0057 -0.0792  2.0841
  781MOL0     H 3063   2.307   6.699   8.706 -0.3136  1.4230 -1.8780
  781MOL0     H 3064   2.379   6.812   8.975 -0.2630  1.7762 -2.8915
  781MOL0     H 3065   2.237   6.717   8.932 -0.1578  0.6232  3.7692
  781MOL0     H 3066   2.527   6.632   8.967  0.8004 -2.9513  2.7871
  781MOL0     H 3067   2.406   6.523   8.894 -0.2855  0.3842 -1.3931
  781MOL0     H 3068   2.442   6.458   9.123  1.0323  1.0243  1.0355
  781MOL0     H 3069   2.281   6.539   9.123  0.3816 -0.9358  0.9805
  781MOL0     H 3070   2.548   6.666   9.216 -0.1713  1.3795 -0.4499
  781MOL0     H 3071   2.399   6.750   9.195 -1.6670 -1.4144 -2.4319
  781MOL0     H 3072   2.433   6.686   9.432 -1.7786  0.0381  1.7067
  781MOL0     H 3073   2.413   6.511   9.389 -0.7213  0.3809  1.3043
  781MOL0     H 3074   2.807   7.096   8.807  1.1837 -1.6533 -1.7851
  781MOL0     H 3075   2.924   7.264   8.666 -0.5270  2.3073 -0.0854
  781MOL0     H 3076   2.778   7.555   8.302 -1.0121 -1.1366 -3.0291
  781MOL0     H 3077   2.837   7.738   8.138  0.4915  0.7022 -1.0421
  781MOL0     H 3078   5.012   8.144   7.487  1.7916 -0.5853  0.5892
  781MOL0     H 3079   5.254   8.031   7.542  0.8770  0.7477  1.9595
  781MOL0     H 3080   5.428   7.468   7.608 -1.4597  1.7709 -2.0096
  781MOL0     H 3081   5.643   7.395   7.656  2.9513 -0.2288  1.5565
  781MOL0     H 3082   5.932   7.696   7.811  4.3377  1.5237 -1.1184
  781MOL0     H 3083   6.020   7.614   7.690  1.2637  4.3411  2.2724
  781MOL0     H 3084   6.157   7.590   7.873  0.8506 -1.6769 -0.3742
  781MOL0     H 3085   6.018   7.546   7.970  1.2226 -3.2051 -0.8923
  781MOL0     H 3086   6.167   7.382   7.768  0.1425 -0.6731  1.1515
  781MOL0     H 3087   6.005   7.334   7.821  0.0125 -0.6574  1.4432
  781MOL0     H 3088   6.244   7.255   7.959 -0.4988 -0.3330 -0.0770
  781MOL0     H 3089   6.213   7.408   8.035  3.3944 -1.0012 -0.8576
  781MOL0     H 3090   5.887   7.155   8.151 -1.3909  0.2557 -1.3559
  781MOL0     H 3091   5.758   7.791   7.788 -0.1697  0.5644 -0.3447
  781MOL0     H 3092   5.528   7.861   7.766 -0.3318 -1.0202  2.3505
  782MOL0     O 3093   8.798   8.863   0.687  0.3942 -0.7854  0.7079
  782MOL0     C 3094   8.862   8.757   0.695  0.0342  0.0338 -0.2927
  782MOL0     O 3095   8.819   8.639   0.742 -0.7310  0.1229  0.5094
  782MOL0     C 3096   8.690   8.595   0.761 -0.5657 -0.6310  0.7159
  782MOL0     C 3097   8.666   8.485   0.841  0.0869  0.1364  0.7317
  782MOL0     C 3098   8.540   8.427   0.853  1.0316 -0.4606 -0.4643
  782MOL0     C 3099   8.423   8.484   0.799  0.3344  0.1933 -0.5704
  782MOL0     O 3100   8.305   8.426   0.815  0.5534  0.5182 -0.2703
  782MOL0     C 3101   8.195   8.519   0.814  0.2227  0.2842 -0.4068
  782MOL0     C 3102   8.079   8.456   0.882  0.1035 -0.6505 -0.7705
  782MOL0     C 3103   7.957   8.546   0.895 -0.5049 -1.0438  0.2964
  782MOL0     C 3104   7.831   8.514   0.984 -0.4958  0.2429 -0.4906
  782MOL0     C 3105   7.742   8.417   0.918  0.1022 -0.7787  0.1684
  782MOL0     C 3106   7.650   8.367   1.022 -0.8372 -0.4625  0.5666
  782MOL0     C 3107   7.541   8.276   0.954  0.5385  0.5953 -0.1708
  782MOL0     C 3108   7.423   8.258   1.048 -0.2737  0.8206 -0.1100
  782MOL0     N 3109   7.301   8.215   0.985  0.1149  0.4123 -0.2041
  782MOL0     C 3110   7.177   8.285   0.965 -0.6815 -0.0777  0.1342
  782MOL0     C 3111   7.105   8.197   0.891 -0.9163 -0.1755  0.1109
  782MOL0     C 3112   6.984   8.231   0.812 -0.0862  0.3128 -0.6666
  782MOL0     C 3113   6.864   8.236   0.898  0.5790  0.4535 -0.1719
  782MOL0     C 3114   6.738   8.201   0.825 -0.9943  0.2846 -0.5487
  782MOL0     C 3115   6.729   8.261   0.677  0.3433 -0.0688  0.4116
  782MOL0     O 3116   6.633   8.194   0.591 -0.2840  0.1242  0.0137
  782MOL0     C 3117   6.589   8.270   0.485  0.4998 -1.1211 -0.4673
  782MOL0     C 3118   6.462   8.263   0.450  0.2490 -0.1091 -0.2460
  782MOL0     C 3119   6.396   8.357   0.376 -0.0665  0.2221  0.7508
  782MOL0     C 3120   6.470   8.458   0.304 -0.5173 -0.4756 -0.0551
  782MOL0     C 3121   6.398   8.556   0.224  0.8533  1.0390  0.6072
  782MOL0     O 3122   6.257   8.543   0.213  0.4838 -0.5056 -0.3012
  782MOL0     C 3123   6.192   8.623   0.125  0.1132 -0.0661  0.5038
  782MOL0     C 3124   6.063   8.660   0.152  0.7218 -0.0557 -1.1620
  782MOL0     C 3125   5.981   8.733   0.061 -0.6657  0.4756 -0.2159
  782MOL0     C 3126   6.037   8.748  -0.073  0.3831  1.0294 -0.3656
  782MOL0     O 3127   5.963   8.815  -0.172  0.0382 -0.3150 -0.2103
  782MOL0     C 3128   5.833   8.764  -0.194 -0.0862 -0.9506 -0.3793
  782MOL0     C 3129   5.762   8.840  -0.313  0.5057  0.4540 -0.0934
  782MOL0     C 3130   5.620   8.798  -0.338  0.1568 -0.5673 -0.2323
  782MOL0     C 3131   5.563   8.891  -0.440  0.0379  0.4896  0.8197
  782MOL0     C 3132   5.417   8.854  -0.473  0.6256 -0.3487  0.4754
  782MOL0     C 3133   5.335   8.960  -0.546  0.4993 -1.3997  1.0048
  782MOL0     C 3134   5.190   8.899  -0.574 -1.1278 -0.3176 -0.6253
  782MOL0     C 3135   5.093   9.007  -0.638  0.3180  0.3979 -0.2215
  782MOL0    Cl 3136   5.071   9.146  -0.521 -0.6169  0.2560 -0.0878
  782MOL0     C 3137   6.166   8.707  -0.100 -0.3737 -0.4212  0.4244
  782MOL0     C 3138   6.249   8.654  -0.003  0.5268  0.5177 -0.5623
  782MOL0     O 3139   6.471   8.647   0.175 -0.4466  0.9938 -0.4409
  782MOL0     C 3140   6.609   8.456   0.325 -0.1361  0.3518  0.3665
  782MOL0     C 3141   6.670   8.364   0.413 -0.1267  0.8377  0.2721
  782MOL0     N 3142   7.176   8.080   0.872  0.7294  0.2423  1.0082
  782MOL0     N 3143   7.290   8.098   0.916  0.1356  0.5460  0.2581
  782MOL0     C 3144   8.453   8.600   0.725 -0.1803 -0.2027  0.1086
  782MOL0     C 3145   8.580   8.656   0.701 -0.7396 -0.4990 -0.1948
  782MOL0     C 3146   9.001   8.752   0.647 -0.3907  0.2437 -0.0162
  782MOL0     C 3147   9.066   8.868   0.606  0.5524 -0.3897 -0.0057
  782MOL0     C 3148   9.185   8.871   0.552 -0.4503  0.0287  0.6841
  782MOL0     C 3149   9.264   8.751   0.563 -0.8616 -0.3639  0.1018
  782MOL0     O 3150   9.392   8.756   0.519 -1.7506 -0.0689  0.3467
  782MOL0     C 3151   9.477   8.636   0.492  0.1303  0.3471  0.0560
  782MOL0     C 3152   9.611   8.683   0.481 -1.6861  0.3977 -0.5209
  782MOL0     C 3153   9.724   8.572   0.483 -0.2681  0.1778 -0.4818
  782MOL0     C 3154   9.704   8.463   0.374 -0.2980  0.8920 -0.6937
  782MOL0     C 3155   9.824   8.376   0.372  0.0834 -0.6336  0.3211
  782MOL0     C 3156   9.916   8.286   0.363 -0.0693 -0.8085 -1.3584
  782MOL0     C 3157   9.205   8.635   0.617 -1.2360  0.3127  0.4759
  782MOL0     C 3158   9.078   8.634   0.661  0.0161  0.6856  0.1847
  782MOL0     H 3159   8.751   8.443   0.893 -0.4435 -0.1836  1.3430
  782MOL0     H 3160   8.532   8.326   0.891 -1.9283 -1.0545 -2.3287
  782MOL0     H 3161   8.171   8.542   0.710  1.7239 -1.1583 -1.1201
  782MOL0     H 3162   8.210   8.616   0.863 -1.9794  0.9314 -0.8664
  782MOL0     H 3163   8.109   8.432   0.984 -3.3051 -1.5380  0.1545
  782MOL0     H 3164   8.038   8.365   0.836  2.3757 -0.9829 -2.2983
  782MOL0     H 3165   7.926   8.565   0.792 -0.7400  0.3718  0.6115
  782MOL0     H 3166   8.004   8.641   0.923  4.4727 -2.4370 -2.1935
  782MOL0     H 3167   7.865   8.474   1.080  0.2487  1.5567 -0.1892
  782MOL0     H 3168   7.768   8.603   0.995  0.5042  0.9752 -0.6230
  782MOL0     H 3169   7.792   8.327   0.883  2.2412 -0.5096  2.2816
  782MOL0     H 3170   7.683   8.452   0.833  1.0371  0.4308 -0.0119
  782MOL0     H 3171   7.600   8.449   1.074  1.2560  1.7063 -0.6796
  782MOL0     H 3172   7.710   8.315   1.098  0.4222 -0.9225 -0.6957
  782MOL0     H 3173   7.506   8.327   0.863 -0.5375 -1.2237 -0.8079
  782MOL0     H 3174   7.571   8.174   0.930 -0.5431  0.4787 -1.0943
  782MOL0     H 3175   7.397   8.350   1.102 -2.1223  1.7405 -2.3671
  782MOL0     H 3176   7.459   8.184   1.120  2.1678 -2.6764 -4.4369
  782MOL0     H 3177   7.143   8.386   0.986  0.3916  0.8978 -2.4089
  782MOL0     H 3178   6.977   8.162   0.727  2.0604  1.8467 -2.2099
  782MOL0     H 3179   6.996   8.329   0.766  0.3740  0.1993 -0.7902
  782MOL0     H 3180   6.852   8.334   0.945  1.5125  1.9049 -2.7064
  782MOL0     H 3181   6.865   8.160   0.976 -0.8458  1.0094  0.4151
  782MOL0     H 3182   6.745   8.092   0.828  3.2525  0.4087  1.3755
  782MOL0     H 3183   6.651   8.226   0.887 -0.9967 -0.3169 -0.2982
  782MOL0     H 3184   6.817   8.260   0.612  0.2678  0.4809  0.2973
  782MOL0     H 3185   6.698   8.363   0.701  2.6324  0.2493  2.3710
  782MOL0     H 3186   6.409   8.189   0.508 -2.1546  0.7020 -1.2549
  782MOL0     H 3187   6.288   8.348   0.378 -0.0337 -0.0925  2.2135
  782MOL0     H 3188   6.031   8.636   0.253 -0.2622  2.5813 -0.7621
  782MOL0     H 3189   5.881   8.759   0.094 -0.0949  2.4627  0.0592
  782MOL0     H 3190   5.768   8.773  -0.106  0.7084  1.1324  0.0592
  782MOL0     H 3191   5.852   8.657  -0.210  2.3157 -0.7379  0.6433
  782MOL0     H 3192   5.832   8.839  -0.397  2.3802 -2.5587  1.3348
  782MOL0     H 3193   5.758   8.942  -0.275  1.6709  0.2086  0.7202
  782MOL0     H 3194   5.558   8.807  -0.249  0.7971  0.5590  0.1242
  782MOL0     H 3195   5.620   8.694  -0.372 -0.6758 -0.5761 -0.2354
  782MOL0     H 3196   5.563   8.992  -0.400 -1.8094  0.7955  0.1824
  782MOL0     H 3197   5.624   8.893  -0.531 -0.9311  1.5414  0.1629
  782MOL0     H 3198   5.364   8.832  -0.380 -0.1443  1.7180  0.5864
  782MOL0     H 3199   5.408   8.764  -0.535 -1.5415 -0.1820  0.4743
  782MOL0     H 3200   5.389   8.995  -0.634  0.9968  0.7905  2.1123
  782MOL0     H 3201   5.324   9.045  -0.478  0.9106 -2.8434  2.9815
  782MOL0     H 3202   5.186   8.823  -0.652  1.1782  0.1744 -1.2890
  782MOL0     H 3203   5.142   8.863  -0.482 -0.9365  2.9537  0.8935
  782MOL0     H 3204   4.996   8.962  -0.660  0.0216  1.5749 -1.4475
  782MOL0     H 3205   5.136   9.055  -0.727 -0.4402 -2.3037 -2.1967
  782MOL0     H 3206   6.199   8.699  -0.203  0.7329  1.1717  0.6152
  782MOL0     H 3207   6.352   8.637  -0.034 -0.1159 -2.5627 -1.2946
  782MOL0     H 3208   6.673   8.515   0.260  0.3734 -0.5027  0.0776
  782MOL0     H 3209   6.777   8.368   0.427  0.0258 -1.7575  0.3734
  782MOL0     H 3210   8.377   8.660   0.677  0.0757  0.2431  0.2558
  782MOL0     H 3211   8.587   8.746   0.641  0.4046 -0.8527 -0.6042
  782MOL0     H 3212   9.003   8.957   0.609  1.2069  0.0565  0.7105
  782MOL0     H 3213   9.211   8.963   0.502  1.6093  1.0438  3.3994
  782MOL0     H 3214   9.442   8.562   0.419  2.1863 -2.7815  1.9645
  782MOL0     H 3215   9.475   8.582   0.588 -1.5170  0.6894  0.2317
  782MOL0     H 3216   9.620   8.743   0.390 -0.6509  1.4217  0.2160
  782MOL0     H 3217   9.646   8.739   0.568 -1.4145  0.7888 -0.8792
  782MOL0     H 3218   9.723   8.519   0.578  0.1830 -0.8376 -1.0244
  782MOL0     H 3219   9.822   8.620   0.471  0.7879 -1.6083  0.5574
  782MOL0     H 3220   9.614   8.403   0.386 -0.1043  1.0358  2.0290
  782MOL0     H 3221   9.696   8.503   0.273  0.1957 -0.0842 -1.1413
  782MOL0     H 3222   9.979   8.202   0.380  1.3227  0.8747  3.4360
  782MOL0     H 3223   9.273   8.551   0.627  3.8087  3.6734 -1.1325
  782MOL0     H 3224   9.037   8.542   0.701 -1.4038  0.2360 -2.1415
  783MOL0     O 3225   6.716   4.405   3.462 -0.0159 -0.2508  0.1533
  783MOL0     C 3226   6.788   4.481   3.406  0.4700  0.3682  0.2617
  783MOL0     O 3227   6.745   4.603   3.366 -0.0673 -0.0429  0.0974
  783MOL0     C 3228   6.623   4.649   3.394 -0.6796 -0.1025 -0.6297
  783MOL0     C 3229   6.578   4.672   3.526 -0.3361 -0.7642  0.4061
  783MOL0     C 3230   6.444   4.718   3.545 -0.1337  0.4996 -0.0016
  783MOL0     C 3231   6.376   4.765   3.436 -0.4099 -0.0720 -0.0856
  783MOL0     O 3232   6.270   4.834   3.463 -0.0671 -0.3774  0.2646
  783MOL0     C 3233   6.154   4.802   3.381  0.1496 -0.3241  0.2054
  783MOL0     C 3234   6.018   4.840   3.448  0.0062 -1.5462  0.0630
  783MOL0     C 3235   5.995   4.746   3.568 -0.0250 -0.1034  0.6238
  783MOL0     C 3236   5.851   4.726   3.594  0.1652 -1.2530  0.1507
  783MOL0     C 3237   5.780   4.852   3.660  0.3493  0.1506 -0.9617
  783MOL0     C 3238   5.621   4.848   3.678 -0.2530  0.4512 -0.2804
  783MOL0     C 3239   5.546   4.878   3.540 -1.5718 -0.4373  0.5296
  783MOL0     C 3240   5.407   4.838   3.557 -0.4337  0.0403 -0.2434
  783MOL0     N 3241   5.332   4.832   3.431  0.3293 -0.6824 -0.5747
  783MOL0     C 3242   5.231   4.917   3.399  0.1529 -0.2124  0.0707
  783MOL0     C 3243   5.186   4.868   3.279 -0.3567  0.2391 -0.1288
  783MOL0     C 3244   5.060   4.906   3.205 -0.1160 -0.2050 -0.1619
  783MOL0     C 3245   4.929   4.828   3.231  0.2140  0.4484 -0.7645
  783MOL0     C 3246   4.804   4.860   3.152 -0.0616  0.4990  1.0578
  783MOL0     C 3247   4.774   5.009   3.137  0.1945 -0.0284 -0.3834
  783MOL0     O 3248   4.659   5.026   3.055 -0.1645  1.4256  0.2387
  783MOL0     C 3249   4.602   5.151   3.045 -0.0132 -0.1955 -0.2437
  783MOL0     C 3250   4.639   5.264   3.123 -0.2090  0.8940  0.2676
  783MOL0     C 3251   4.577   5.381   3.105  0.6096 -0.3808  0.9940
  783MOL0     C 3252   4.463   5.397   3.011  0.2083 -0.1859  0.3028
  783MOL0     C 3253   4.385   5.528   3.005 -0.2729  0.1092 -0.0866
  783MOL0     O 3254   4.409   5.615   3.108  0.3139 -0.5335 -0.1045
  783MOL0     C 3255   4.317   5.718   3.110 -0.6152 -0.6178  0.4312
  783MOL0     C 3256   4.366   5.852   3.122  0.4180  0.1565  0.4459
  783MOL0     C 3257   4.284   5.958   3.137  0.2345  0.2447  0.2356
  783MOL0     C 3258   4.140   5.943   3.147 -0.2271 -0.4769 -0.4234
  783MOL0     O 3259   4.054   6.044   3.163  0.3407  0.0236 -0.0320
  783MOL0     C 3260   4.102   6.167   3.107 -0.4334  0.1282 -0.7377
  783MOL0     C 3261   3.981   6.252   3.078 -0.2640  0.5705 -0.0851
  783MOL0     C 3262   3.871   6.260   3.189  0.7486 -0.7116  0.9487
  783MOL0     C 3263   3.780   6.369   3.148  1.2224 -0.0796 -0.3526
  783MOL0     C 3264   3.688   6.409   3.263  0.7893  0.6694 -0.2695
  783MOL0     C 3265   3.758   6.511   3.358  0.9831 -0.1630 -0.5311
  783MOL0     C 3266   3.660   6.534   3.470  1.0341  0.0064 -0.7348
  783MOL0     C 3267   3.729   6.623   3.570  0.1081  0.5196  0.4223
  783MOL0    Cl 3268   3.613   6.639   3.725 -0.6873 -0.3586  0.5907
  783MOL0     C 3269   4.092   5.812   3.141  0.0910  0.5744 -0.0818
  783MOL0     C 3270   4.178   5.701   3.129 -0.1663  0.1330  0.4070
  783MOL0     O 3271   4.300   5.541   2.919 -0.2825 -0.3579  0.7665
  783MOL0     C 3272   4.430   5.280   2.941 -0.4966  0.8623  0.0780
  783MOL0     C 3273   4.499   5.164   2.959 -0.0970  0.6773 -0.6908
  783MOL0     N 3274   5.258   4.755   3.250  0.1397 -0.1500  0.3105
  783MOL0     N 3275   5.346   4.733   3.344 -0.4250  0.5084  0.0373
  783MOL0     C 3276   6.425   4.746   3.303 -0.7503 -0.7712  0.3234
  783MOL0     C 3277   6.549   4.693   3.287  0.1544  0.5798 -0.2886
  783MOL0     C 3278   6.926   4.426   3.380  0.6248 -0.3900  0.0369
  783MOL0     C 3279   7.000   4.497   3.280  0.1173 -0.8087  0.1887
  783MOL0     C 3280   7.127   4.447   3.249  0.0712 -0.9681 -0.3268
  783MOL0     C 3281   7.179   4.333   3.312  0.0638  0.1452 -0.3286
  783MOL0     O 3282   7.297   4.290   3.286  0.2764  0.8868  0.4441
  783MOL0     C 3283   7.396   4.388   3.246  0.6264 -0.6577  0.2492
  783MOL0     C 3284   7.530   4.337   3.283  0.6289 -0.7983  0.5402
  783MOL0     C 3285   7.636   4.451   3.273 -0.8402 -0.0076 -0.1000
  783MOL0     C 3286   7.778   4.391   3.267  0.0877 -0.3634  0.8067
  783MOL0     C 3287   7.886   4.492   3.256 -0.1289  0.3939 -0.0245
  783MOL0     C 3288   7.974   4.580   3.250  0.7700 -0.2116 -0.1710
  783MOL0     C 3289   7.109   4.269   3.408  0.2531 -0.1385  0.7588
  783MOL0     C 3290   6.986   4.318   3.440  0.0529  0.0713 -0.6071
  783MOL0     H 3291   6.640   4.657   3.614 -0.0253 -3.0301 -0.1428
  783MOL0     H 3292   6.407   4.723   3.647  0.2361  1.4200  0.0985
  783MOL0     H 3293   6.160   4.696   3.354  0.1457 -0.5241  0.9634
  783MOL0     H 3294   6.153   4.854   3.285 -1.0391 -3.2403 -1.4958
  783MOL0     H 3295   5.943   4.830   3.369  0.2683 -1.3431 -0.2153
  783MOL0     H 3296   6.017   4.943   3.487 -0.6284 -1.6177  0.2443
  783MOL0     H 3297   6.030   4.783   3.664 -0.3475  0.2823  0.5930
  783MOL0     H 3298   6.044   4.649   3.552 -0.9148 -0.5534  0.5638
  783MOL0     H 3299   5.808   4.698   3.498  1.5315  2.4972 -1.7953
  783MOL0     H 3300   5.833   4.639   3.657 -0.1693 -0.5873  0.9858
  783MOL0     H 3301   5.787   4.944   3.601 -3.0902  0.5952 -0.9031
  783MOL0     H 3302   5.833   4.867   3.754 -0.1722  0.2423 -0.6790
  783MOL0     H 3303   5.581   4.907   3.761  0.6371  1.7504 -0.7373
  783MOL0     H 3304   5.601   4.742   3.698  1.2618 -0.2399 -2.0680
  783MOL0     H 3305   5.548   4.983   3.508  0.2129 -1.1301 -1.9831
  783MOL0     H 3306   5.586   4.815   3.460 -3.5243 -1.9540  0.6598
  783MOL0     H 3307   5.354   4.899   3.631 -0.6832 -1.4942  0.8935
  783MOL0     H 3308   5.416   4.738   3.601  0.5149  0.1259 -0.2233
  783MOL0     H 3309   5.182   5.000   3.449 -3.3064 -2.0343 -0.0023
  783MOL0     H 3310   5.079   4.901   3.097 -2.3791 -1.5547 -0.5641
  783MOL0     H 3311   5.047   5.009   3.238  0.2146 -0.3952  0.5761
  783MOL0     H 3312   4.908   4.832   3.339  0.0309 -0.5985 -0.7552
  783MOL0     H 3313   4.954   4.723   3.211  1.2803  1.0065 -2.5721
  783MOL0     H 3314   4.832   4.812   3.057  4.6198 -1.8765  3.2739
  783MOL0     H 3315   4.725   4.802   3.200 -0.9325 -0.3814 -1.2982
  783MOL0     H 3316   4.863   5.064   3.107 -0.2141  1.2625  0.6581
  783MOL0     H 3317   4.765   5.055   3.236  2.0552  2.1694 -1.1438
  783MOL0     H 3318   4.724   5.269   3.191  0.7765  3.3715 -1.0202
  783MOL0     H 3319   4.599   5.471   3.161  0.2308  2.0134 -2.3992
  783MOL0     H 3320   4.473   5.869   3.129  0.4703 -0.2824  0.8248
  783MOL0     H 3321   4.334   6.054   3.130 -1.6627  1.2687 -0.2696
  783MOL0     H 3322   4.158   6.157   3.014  0.3035  1.1618 -0.4270
  783MOL0     H 3323   4.173   6.215   3.176  1.0690 -1.3146 -1.2305
  783MOL0     H 3324   3.947   6.213   2.982  0.8701  0.6838 -0.5542
  783MOL0     H 3325   4.018   6.352   3.055  0.3265  0.7344  1.4399
  783MOL0     H 3326   3.913   6.284   3.288  3.8873  1.1366 -0.6457
  783MOL0     H 3327   3.817   6.165   3.189  0.8612 -0.7847 -0.2309
  783MOL0     H 3328   3.829   6.463   3.119 -3.0883  2.1773 -1.0697
  783MOL0     H 3329   3.728   6.349   3.055  2.3475  0.8075 -1.2056
  783MOL0     H 3330   3.654   6.326   3.325 -1.1613 -0.1005 -2.2313
  783MOL0     H 3331   3.599   6.451   3.215 -0.3641 -1.9509 -0.5925
  783MOL0     H 3332   3.774   6.603   3.301 -3.5414 -0.9261 -3.5297
  783MOL0     H 3333   3.852   6.476   3.401  0.2753 -2.2907 -0.6282
  783MOL0     H 3334   3.565   6.583   3.447  0.8207  0.4399  0.8862
  783MOL0     H 3335   3.650   6.437   3.521  1.5878  0.7086  0.7845
  783MOL0     H 3336   3.768   6.717   3.531 -0.1067 -0.2697 -1.7941
  783MOL0     H 3337   3.816   6.567   3.604 -0.7902 -0.4484  1.2211
  783MOL0     H 3338   3.984   5.799   3.147 -0.3399  3.9873  2.6632
  783MOL0     H 3339   4.136   5.601   3.130 -1.9883  0.8594 -0.2321
  783MOL0     H 3340   4.352   5.295   2.868  0.1118  1.2672 -0.4908
  783MOL0     H 3341   4.486   5.065   2.917  1.8153 -0.8781  2.0981
  783MOL0     H 3342   6.380   4.801   3.221  2.3622  1.1418 -0.2460
  783MOL0     H 3343   6.592   4.684   3.187  1.0679 -0.4593  0.1712
  783MOL0     H 3344   6.966   4.587   3.232  1.6934 -1.3628 -2.1417
  783MOL0     H 3345   7.185   4.513   3.185 -2.2605  2.2965  0.6958
  783MOL0     H 3346   7.377   4.493   3.271  0.1292 -0.7702  0.3544
  783MOL0     H 3347   7.400   4.393   3.137  1.8321 -0.5747  0.2907
  783MOL0     H 3348   7.527   4.307   3.388  0.1653 -0.1162  0.7346
  783MOL0     H 3349   7.554   4.252   3.220  0.9195 -1.4172  1.4654
  783MOL0     H 3350   7.632   4.525   3.354  0.2023  0.4270 -0.4197
  783MOL0     H 3351   7.610   4.501   3.179  1.3569  0.8006 -0.3446
  783MOL0     H 3352   7.814   4.344   3.359 -1.4235  1.7744  2.6046
  783MOL0     H 3353   7.779   4.319   3.184  2.6926  2.0061 -1.4138
  783MOL0     H 3354   8.054   4.651   3.254  0.3979  0.1473  1.6999
  783MOL0     H 3355   7.142   4.175   3.451 -1.7419 -0.9361  0.6616
  783MOL0     H 3356   6.929   4.258   3.510 -1.1616  1.6261 -0.2029
  784MOL0     O 3357   5.843   6.710   4.078 -0.0747 -0.5102 -0.5491
  784MOL0     C 3358   5.771   6.608   4.083 -0.3059  0.0023 -0.4331
  784MOL0     O 3359   5.821   6.484   4.107 -0.2224  0.5257 -0.1185
  784MOL0     C 3360   5.952   6.464   4.147 -0.7839 -0.7266 -0.2569
  784MOL0     C 3361   5.986   6.489   4.276  0.8471  0.2302 -0.5392
  784MOL0     C 3362   6.116   6.461   4.316 -0.4545  0.0046  0.2873
  784MOL0     C 3363   6.210   6.414   4.224  0.0420  0.1949  0.4880
  784MOL0     O 3364   6.332   6.365   4.269  0.2629 -0.6260  0.1494
  784MOL0     C 3365   6.440   6.457   4.225  0.1505  0.5629  0.0627
  784MOL0     C 3366   6.584   6.409   4.282 -0.8386 -0.0586  0.2854
  784MOL0     C 3367   6.690   6.518   4.243 -0.5562  0.1064 -0.0453
  784MOL0     C 3368   6.826   6.477   4.305  1.3194  0.7415 -0.9132
  784MOL0     C 3369   6.927   6.552   4.234 -0.8456 -0.7296  1.3284
  784MOL0     C 3370   7.069   6.539   4.279 -0.4765  1.0243  0.2362
  784MOL0     C 3371   7.168   6.607   4.186  0.1327  0.6273  0.0810
  784MOL0     C 3372   7.306   6.575   4.245 -0.1528  0.0443 -0.5310
  784MOL0     N 3373   7.323   6.661   4.363 -0.4889 -0.4261  0.0957
  784MOL0     C 3374   7.325   6.804   4.376  0.1458  0.6480 -0.0571
  784MOL0     C 3375   7.357   6.828   4.503 -0.2606 -0.8683  0.1065
  784MOL0     C 3376   7.360   6.970   4.550  0.1910  0.6492 -0.0848
  784MOL0     C 3377   7.497   7.033   4.535 -0.7852  0.2225  0.3615
  784MOL0     C 3378   7.611   6.955   4.606  0.3351 -0.0426  0.3741
  784MOL0     C 3379   7.694   6.873   4.494  0.6700  0.7862 -0.5907
  784MOL0     O 3380   7.758   6.964   4.402  0.1272  1.0479  0.3298
  784MOL0     C 3381   7.870   7.037   4.424  0.4033  0.6160  0.3297
  784MOL0     C 3382   7.907   7.132   4.333 -0.6172  0.5672  0.3539
  784MOL0     C 3383   8.029   7.199   4.352 -0.2065  1.4480 -0.1044
  784MOL0     C 3384   8.118   7.165   4.464  0.3121  0.5424  0.4245
  784MOL0     C 3385   8.249   7.233   4.475  0.1878  0.5252 -0.7080
  784MOL0     O 3386   8.297   7.243   4.605 -0.2899 -0.0692 -1.0053
  784MOL0     C 3387   8.409   7.320   4.643 -0.3027 -0.0952  0.0284
  784MOL0     C 3388   8.518   7.342   4.557 -0.2656 -0.3983 -0.8582
  784MOL0     C 3389   8.628   7.427   4.587  0.9405 -1.4380  0.1757
  784MOL0     C 3390   8.627   7.493   4.709 -0.0043 -0.8751  0.4996
  784MOL0     O 3391   8.713   7.589   4.757  0.8709  0.3120  0.1280
  784MOL0     C 3392   8.850   7.583   4.720  1.0102 -0.1256  1.5075
  784MOL0     C 3393   8.919   7.472   4.788  1.2436 -0.6405  0.4661
  784MOL0     C 3394   9.068   7.476   4.772  0.0686  0.9759 -0.7271
  784MOL0     C 3395   9.144   7.350   4.813  0.5486 -0.0846 -0.5200
  784MOL0     C 3396   9.304   7.359   4.814  0.6517  0.0996 -0.4184
  784MOL0     C 3397   9.352   7.329   4.682 -0.8173  0.0901  0.0645
  784MOL0     C 3398   9.502   7.275   4.691  0.4338 -0.5257  0.6509
  784MOL0     C 3399   9.594   7.325   4.570 -0.5329  0.3500 -0.6635
  784MOL0    Cl 3400   9.555   7.237   4.433 -0.6317  0.1668 -0.4398
  784MOL0     C 3401   8.521   7.465   4.798 -0.1211 -0.3743 -0.5095
  784MOL0     C 3402   8.418   7.382   4.763  0.6694 -0.5498 -1.0098
  784MOL0     O 3403   8.304   7.267   4.373 -0.3392 -0.0202 -0.2716
  784MOL0     C 3404   8.079   7.068   4.554  0.5226 -0.8708 -0.0071
  784MOL0     C 3405   7.956   7.005   4.528 -0.7957  0.5205 -0.8182
  784MOL0     N 3406   7.357   6.711   4.570  0.5734  0.7312  0.8443
  784MOL0     N 3407   7.342   6.612   4.493 -0.2320  0.6737 -0.4980
  784MOL0     C 3408   6.175   6.399   4.094 -0.2127 -0.6413  0.4016
  784MOL0     C 3409   6.046   6.419   4.053  0.2846  0.2031 -0.2975
  784MOL0     C 3410   5.634   6.620   4.043  0.6190 -0.5273 -1.1531
  784MOL0     C 3411   5.585   6.749   4.012 -0.0931  0.3606  0.4312
  784MOL0     C 3412   5.449   6.760   3.972  1.0256 -0.6679 -0.5775
  784MOL0     C 3413   5.363   6.648   3.978  0.6948  1.0527  0.5350
  784MOL0     O 3414   5.231   6.657   3.950  1.2187  0.2693 -0.1441
  784MOL0     C 3415   5.203   6.711   3.826  0.0180  0.5487 -0.4328
  784MOL0     C 3416   5.063   6.675   3.779  0.6002  0.2146 -0.7585
  784MOL0     C 3417   4.949   6.739   3.867  0.2213 -0.0253  0.8850
  784MOL0     C 3418   4.906   6.890   3.837 -0.7017 -0.0944  0.3338
  784MOL0     C 3419   5.006   6.995   3.833  0.3285  0.4417 -0.2719
  784MOL0     C 3420   5.075   7.090   3.811 -0.1007 -0.2235 -0.1621
  784MOL0     C 3421   5.415   6.528   4.018  0.3545  0.4170  0.0792
  784MOL0     C 3422   5.554   6.515   4.040 -0.2638  0.9290  0.8929
  784MOL0     H 3423   5.918   6.522   4.353  1.1434 -0.3455 -0.0180
  784MOL0     H 3424   6.158   6.493   4.411  0.4482  1.3867 -0.5363
  784MOL0     H 3425   6.408   6.554   4.264 -0.9234  0.5375 -0.7112
  784MOL0     H 3426   6.445   6.438   4.117  1.6283 -2.2740  0.5235
  784MOL0     H 3427   6.607   6.308   4.246 -0.9570 -0.4866  1.3825
  784MOL0     H 3428   6.568   6.397   4.389  0.3442 -0.5137  0.4217
  784MOL0     H 3429   6.656   6.617   4.276 -1.8340 -0.1614 -0.4835
  784MOL0     H 3430   6.693   6.504   4.134  0.1439  0.9779 -0.1467
  784MOL0     H 3431   6.831   6.506   4.410 -0.5551 -2.7978  0.2980
  784MOL0     H 3432   6.832   6.369   4.288 -3.7830 -0.0135  0.5253
  784MOL0     H 3433   6.900   6.658   4.223 -1.0694 -0.8320  0.8776
  784MOL0     H 3434   6.923   6.499   4.139  2.7548 -2.0081  1.7558
  784MOL0     H 3435   7.104   6.435   4.284  0.6889  1.4388  1.4398
  784MOL0     H 3436   7.066   6.577   4.382 -1.1083  0.0583  0.5886
  784MOL0     H 3437   7.180   6.560   4.088  2.6700  0.0469  0.5932
  784MOL0     H 3438   7.140   6.712   4.176  0.5669  0.8707  1.2009
  784MOL0     H 3439   7.374   6.612   4.167 -1.5206  1.1985 -1.2219
  784MOL0     H 3440   7.330   6.472   4.271  1.3034  0.8844  1.7874
  784MOL0     H 3441   7.301   6.876   4.298  1.3364  0.8042 -0.3071
  784MOL0     H 3442   7.309   6.964   4.647 -1.8600  0.0198 -1.1440
  784MOL0     H 3443   7.283   7.022   4.491 -0.4112  0.1781  0.2737
  784MOL0     H 3444   7.495   7.136   4.571  1.0099  0.8397 -1.1331
  784MOL0     H 3445   7.525   7.042   4.429  2.2520 -2.2921  0.8244
  784MOL0     H 3446   7.685   7.022   4.652  0.5627  1.1115 -1.5992
  784MOL0     H 3447   7.570   6.885   4.680  2.4768  0.2563  1.9646
  784MOL0     H 3448   7.629   6.809   4.434 -1.1545  0.6790  1.3608
  784MOL0     H 3449   7.764   6.803   4.542 -0.8315  1.3650  2.7670
  784MOL0     H 3450   7.842   7.144   4.247 -2.8200 -5.1061  0.7544
  784MOL0     H 3451   8.060   7.271   4.277  3.7553  2.0111  1.8117
  784MOL0     H 3452   8.537   7.278   4.472  2.2543 -0.0506 -0.6539
  784MOL0     H 3453   8.716   7.438   4.524  0.0021 -1.8596 -1.2537
  784MOL0     H 3454   8.896   7.681   4.736 -1.2597  1.3745 -0.3910
  784MOL0     H 3455   8.861   7.562   4.614 -2.4252  1.5835  0.6466
  784MOL0     H 3456   8.895   7.378   4.737  1.5464  0.1164 -1.1141
  784MOL0     H 3457   8.887   7.473   4.893 -1.8303  1.9716 -0.3410
  784MOL0     H 3458   9.093   7.570   4.822 -0.8603  1.6961 -1.5793
  784MOL0     H 3459   9.096   7.488   4.667  4.3923  1.5973  0.3176
  784MOL0     H 3460   9.115   7.328   4.917  2.2689  1.3669  0.3260
  784MOL0     H 3461   9.108   7.275   4.742 -0.6461  1.4544 -1.6118
  784MOL0     H 3462   9.344   7.301   4.898  0.8859  1.6574  0.5766
  784MOL0     H 3463   9.317   7.464   4.840 -2.4453  0.0514  1.9558
  784MOL0     H 3464   9.345   7.413   4.613 -3.1306 -0.3849 -0.3667
  784MOL0     H 3465   9.298   7.255   4.621 -0.3143  0.7722 -1.2438
  784MOL0     H 3466   9.554   7.286   4.787 -0.4170  0.3312  1.0325
  784MOL0     H 3467   9.498   7.165   4.685  0.3658 -0.4721 -0.2882
  784MOL0     H 3468   9.699   7.313   4.598 -1.0655  1.0961  1.9461
  784MOL0     H 3469   9.585   7.431   4.544 -1.8928  0.6769  0.9442
  784MOL0     H 3470   8.513   7.520   4.892 -0.8362 -1.8259  0.3006
  784MOL0     H 3471   8.342   7.377   4.841  2.2308  2.5351  0.9069
  784MOL0     H 3472   8.149   7.038   4.631  0.6708 -2.5171 -0.7456
  784MOL0     H 3473   7.933   6.922   4.594 -2.0495  1.6804  0.2577
  784MOL0     H 3474   6.250   6.359   4.026 -0.9041  1.3512 -1.6693
  784MOL0     H 3475   6.020   6.426   3.948 -3.0159 -0.9498  0.3253
  784MOL0     H 3476   5.646   6.838   4.007 -1.7754  1.6812  2.0499
  784MOL0     H 3477   5.409   6.856   3.940  2.1929  0.1750  0.3738
  784MOL0     H 3478   5.276   6.691   3.747  0.5806  0.4306  0.1097
  784MOL0     H 3479   5.200   6.820   3.837 -1.2177  0.6412 -1.4130
  784MOL0     H 3480   5.036   6.700   3.676 -0.6889  0.4664 -0.3787
  784MOL0     H 3481   5.064   6.565   3.778 -2.3802  0.0953  0.0547
  784MOL0     H 3482   4.982   6.744   3.971  1.1043  1.5290  0.5580
  784MOL0     H 3483   4.857   6.681   3.853  1.3996 -1.2253 -3.4725
  784MOL0     H 3484   4.869   6.881   3.735 -0.1818 -0.2829  0.1548
  784MOL0     H 3485   4.835   6.923   3.913 -2.0178 -0.0386 -0.8775
  784MOL0     H 3486   5.134   7.176   3.783  1.4985 -1.0759  0.4478
  784MOL0     H 3487   5.359   6.437   4.033 -0.8144  1.4029  2.2233
  784MOL0     H 3488   5.590   6.414   4.058  1.4732  0.2410 -4.6459
  785MOL0     O 3489   5.863   6.995  10.314 -0.2679 -0.6337 -0.3439
  785MOL0     C 3490   5.954   7.061  10.361  0.5572  0.1603  0.0038
  785MOL0     O 3491   5.943   7.158  10.462  0.4290 -0.1317  0.5689
  785MOL0     C 3492   5.818   7.164  10.530 -0.1703  0.1085  0.0105
  785MOL0     C 3493   5.812   7.099  10.651  0.2750  0.5716 -0.2737
  785MOL0     C 3494   5.691   7.110  10.724  0.1769 -0.0996 -0.6206
  785MOL0     C 3495   5.583   7.190  10.681  0.3764  0.6670  0.3266
  785MOL0     O 3496   5.468   7.188  10.766 -0.1679  0.3570  0.6341
  785MOL0     C 3497   5.395   7.308  10.766  0.0876  0.1374  0.3314
  785MOL0     C 3498   5.313   7.321  10.892 -0.1262  0.4175  0.0305
  785MOL0     C 3499   5.211   7.444  10.894 -0.0191  0.6849  0.3461
  785MOL0     C 3500   5.108   7.420  11.005  0.0281  1.0979  0.7086
  785MOL0     C 3501   4.986   7.510  10.986  0.7457 -0.2945  0.4861
  785MOL0     C 3502   4.906   7.525  11.122 -0.6805 -0.1038 -0.6177
  785MOL0     C 3503   4.847   7.389  11.162 -0.1041  0.6695 -0.5042
  785MOL0     C 3504   4.743   7.402  11.266 -0.3186 -0.6190  0.4510
  785MOL0     N 3505   4.802   7.455  11.389  0.0370  0.9735 -0.1242
  785MOL0     C 3506   4.908   7.403  11.460 -0.4562 -0.3230 -1.1243
  785MOL0     C 3507   4.938   7.487  11.553  0.0233 -0.2199  0.0597
  785MOL0     C 3508   5.038   7.454  11.664 -0.2611 -0.3761  0.9672
  785MOL0     C 3509   5.175   7.434  11.608  0.0372 -0.3370 -0.5932
  785MOL0     C 3510   5.218   7.561  11.532 -0.5581 -0.0121  0.6107
  785MOL0     C 3511   5.367   7.545  11.478 -0.0693 -0.0388  0.5285
  785MOL0     O 3512   5.369   7.442  11.379 -0.0159  0.4515  0.3651
  785MOL0     C 3513   5.496   7.395  11.343 -0.4534 -0.3820 -0.1977
  785MOL0     C 3514   5.624   7.437  11.380 -0.5056  0.4753 -0.3944
  785MOL0     C 3515   5.737   7.367  11.318 -0.2981 -0.8474 -0.4977
  785MOL0     C 3516   5.728   7.265  11.220 -0.1983  0.1993 -0.1850
  785MOL0     C 3517   5.847   7.194  11.183 -0.0617  1.2882 -0.2609
  785MOL0     O 3518   5.977   7.242  11.218  0.0106 -0.3287  0.1927
  785MOL0     C 3519   6.095   7.181  11.182 -0.4025  0.6445  0.3138
  785MOL0     C 3520   6.127   7.138  11.053 -0.4981  0.1599  0.4664
  785MOL0     C 3521   6.255   7.087  11.018  0.1245 -0.1745  0.1286
  785MOL0     C 3522   6.361   7.087  11.113  0.3093 -0.2744 -0.3094
  785MOL0     O 3523   6.494   7.054  11.098 -0.3761  0.2354 -0.8418
  785MOL0     C 3524   6.536   7.022  10.963  0.3972 -0.3762 -0.2360
  785MOL0     C 3525   6.674   6.961  10.981  0.2869 -0.5890  0.1442
  785MOL0     C 3526   6.765   7.061  11.047  0.2017 -0.3008  0.7690
  785MOL0     C 3527   6.894   6.993  11.059 -1.0831 -0.1176  0.0924
  785MOL0     C 3528   7.000   7.081  11.124 -0.1815 -0.3495 -0.3965
  785MOL0     C 3529   7.143   7.030  11.100 -0.1173  0.5053  0.3025
  785MOL0     C 3530   7.242   7.142  11.120  0.3751  0.2445  1.0962
  785MOL0     C 3531   7.391   7.085  11.117 -0.1272  0.5856  0.0027
  785MOL0    Cl 3532   7.516   7.209  11.102 -0.4161  0.0026 -0.0902
  785MOL0     C 3533   6.329   7.135  11.237 -0.1049  0.0216 -0.0607
  785MOL0     C 3534   6.199   7.179  11.268 -1.1631  0.6933  0.8000
  785MOL0     O 3535   5.831   7.094  11.110 -0.2515 -0.4372 -0.0743
  785MOL0     C 3536   5.601   7.240  11.184  0.6373  0.6173  0.3026
  785MOL0     C 3537   5.485   7.292  11.247 -1.1068 -0.2679  0.4086
  785MOL0     N 3538   4.854   7.601  11.536 -0.2525  0.0731 -0.2521
  785MOL0     N 3539   4.776   7.577  11.437 -0.4714  0.2208 -0.1815
  785MOL0     C 3540   5.590   7.249  10.551  0.1135 -0.3655 -0.0125
  785MOL0     C 3541   5.714   7.233  10.479 -0.6288  0.4055 -0.5316
  785MOL0     C 3542   6.091   7.052  10.306 -0.5668  0.5250  0.4386
  785MOL0     C 3543   6.199   7.060  10.390  0.1718  0.9035 -0.1687
  785MOL0     C 3544   6.327   7.074  10.332  0.7140  0.1907 -0.5786
  785MOL0     C 3545   6.351   7.069  10.195  0.4062 -0.0442 -0.7958
  785MOL0     O 3546   6.488   7.075  10.157 -0.6917  0.6894 -0.0066
  785MOL0     C 3547   6.532   7.059  10.021  0.1175  0.7026 -1.0606
  785MOL0     C 3548   6.514   6.917   9.984  0.3620  0.2022  0.5740
  785MOL0     C 3549   6.549   6.814  10.095  0.0404  0.2324 -0.4221
  785MOL0     C 3550   6.698   6.802  10.119 -0.9165 -0.4082  0.3548
  785MOL0     C 3551   6.785   6.753  10.019  0.0839 -0.1969  1.0984
  785MOL0     C 3552   6.854   6.711   9.926  0.9446  0.4478  1.3486
  785MOL0     C 3553   6.241   7.069  10.109  0.2121  0.0986 -0.1890
  785MOL0     C 3554   6.112   7.053  10.165  0.3772  0.9062  0.3956
  785MOL0     H 3555   5.888   7.032  10.688  0.3859  0.7057 -0.2548
  785MOL0     H 3556   5.676   7.056  10.817 -0.5065 -2.7385 -2.1471
  785MOL0     H 3557   5.334   7.315  10.675 -0.6868  0.9677  0.8824
  785MOL0     H 3558   5.473   7.385  10.762  2.9766 -2.5206  1.5832
  785MOL0     H 3559   5.370   7.323  10.986 -0.9693 -0.8608  0.5949
  785MOL0     H 3560   5.249   7.233  10.879 -1.1882  1.4813 -2.7977
  785MOL0     H 3561   5.171   7.438  10.792  0.7343  0.8444  0.0328
  785MOL0     H 3562   5.262   7.540  10.907 -1.7306  1.5534  0.9812
  785MOL0     H 3563   5.081   7.314  11.007 -1.3809  1.2956 -2.1504
  785MOL0     H 3564   5.159   7.438  11.099 -1.4727  1.7502  1.4364
  785MOL0     H 3565   4.912   7.480  10.911  0.0196  1.2961  0.5365
  785MOL0     H 3566   5.031   7.603  10.952  2.8300 -1.4017  0.0402
  785MOL0     H 3567   4.821   7.593  11.114 -0.1575  0.4513 -1.7980
  785MOL0     H 3568   4.967   7.558  11.207 -3.0822  2.5427  0.2295
  785MOL0     H 3569   4.792   7.355  11.074 -1.0931  0.8304  0.0367
  785MOL0     H 3570   4.928   7.323  11.196  0.2275  0.5056 -1.5603
  785MOL0     H 3571   4.700   7.303  11.283 -1.2000 -0.3795 -0.3050
  785MOL0     H 3572   4.663   7.465  11.228  1.3961 -0.7874 -3.9967
  785MOL0     H 3573   4.955   7.306  11.448  1.3176 -0.3287  3.6791
  785MOL0     H 3574   4.995   7.370  11.718 -0.2212 -1.7879 -1.1010
  785MOL0     H 3575   5.037   7.542  11.730 -0.8925 -0.5114  1.1396
  785MOL0     H 3576   5.177   7.355  11.533  1.2591  0.9147 -1.9460
  785MOL0     H 3577   5.243   7.415  11.691 -1.5114  0.3011  0.8998
  785MOL0     H 3578   5.166   7.574  11.437 -0.2060  1.3969  0.6014
  785MOL0     H 3579   5.203   7.658  11.580  0.0563  0.3605  0.0688
  785MOL0     H 3580   5.445   7.527  11.553  0.1177 -1.6448 -0.0130
  785MOL0     H 3581   5.386   7.642  11.432  2.7362 -0.3199  0.9188
  785MOL0     H 3582   5.643   7.511  11.457 -2.4167  0.7677 -0.1632
  785MOL0     H 3583   5.827   7.419  11.350 -2.4825  1.6970  1.9698
  785MOL0     H 3584   6.042   7.140  10.986 -1.5592  0.6232  1.7768
  785MOL0     H 3585   6.276   7.066  10.914 -2.6157  0.3908 -0.6192
  785MOL0     H 3586   6.541   7.111  10.900  1.6377 -2.5090 -3.3730
  785MOL0     H 3587   6.492   6.941  10.904 -1.0499  1.4242 -1.7370
  785MOL0     H 3588   6.705   6.942  10.878  0.0841  0.3970 -0.1097
  785MOL0     H 3589   6.664   6.867  11.035  3.9113 -2.7769 -2.5327
  785MOL0     H 3590   6.729   7.081  11.149  1.4943 -0.2518  1.2365
  785MOL0     H 3591   6.776   7.152  10.988 -0.4692  0.4078  1.6862
  785MOL0     H 3592   6.883   6.908  11.127 -0.8831  0.2463  0.5890
  785MOL0     H 3593   6.920   6.958  10.959 -1.1917 -0.9299  0.3476
  785MOL0     H 3594   6.981   7.096  11.231  1.7711 -1.2997  0.1464
  785MOL0     H 3595   6.996   7.175  11.069 -1.6221 -0.3351 -0.2912
  785MOL0     H 3596   7.154   7.003  10.994 -0.8668  0.3519  0.2579
  785MOL0     H 3597   7.156   6.946  11.168  1.4747 -1.0528 -1.7844
  785MOL0     H 3598   7.233   7.217  11.041 -0.2650 -0.3784  0.5643
  785MOL0     H 3599   7.217   7.193  11.214 -1.2409 -0.0134  0.8354
  785MOL0     H 3600   7.404   7.023  11.027  3.3502  0.1265  0.6840
  785MOL0     H 3601   7.408   7.022  11.204  0.8582 -1.0748 -1.3258
  785MOL0     H 3602   6.410   7.149  11.308  3.9951 -2.1071 -3.8854
  785MOL0     H 3603   6.180   7.223  11.365 -0.3245 -0.8922  1.7263
  785MOL0     H 3604   5.576   7.161  11.114  1.7001  0.2043  0.3584
  785MOL0     H 3605   5.385   7.268  11.212 -2.6524  1.0155  3.6315
  785MOL0     H 3606   5.512   7.304  10.499  1.4527  2.6383  0.9234
  785MOL0     H 3607   5.728   7.291  10.388 -0.7389  0.8644 -0.2595
  785MOL0     H 3608   6.200   7.059  10.498 -0.2542 -0.1202 -0.1620
  785MOL0     H 3609   6.415   7.075  10.395  1.1659  0.0169 -1.1912
  785MOL0     H 3610   6.639   7.078  10.022 -0.3192  3.7445 -0.9383
  785MOL0     H 3611   6.492   7.141   9.959  2.5448  2.6234 -0.2536
  785MOL0     H 3612   6.410   6.888   9.969  1.4862 -3.7712 -1.0054
  785MOL0     H 3613   6.566   6.896   9.889 -0.6916  0.8265 -0.1560
  785MOL0     H 3614   6.513   6.713  10.074  2.5314 -0.6278 -0.7775
  785MOL0     H 3615   6.506   6.853  10.187 -2.0716  0.1169 -1.2981
  785MOL0     H 3616   6.740   6.899  10.146  1.0273 -1.1393  0.1969
  785MOL0     H 3617   6.719   6.749  10.213  0.0038  1.1927  1.1014
  785MOL0     H 3618   6.930   6.695   9.853 -0.8274  1.2704 -0.7957
  785MOL0     H 3619   6.239   7.065  10.001 -1.9335 -0.7900 -0.1787
  785MOL0     H 3620   6.026   7.050  10.099  0.9838 -0.7403 -0.3738
  786MOL0     O 3621   2.162   4.307   7.480  0.2088  0.4105 -0.2879
  786MOL0     C 3622   2.228   4.395   7.424  0.3351  0.2584  0.0914
  786MOL0     O 3623   2.187   4.478   7.316  0.3934 -0.0179 -0.0819
  786MOL0     C 3624   2.066   4.450   7.269 -0.2208  0.0747 -0.4360
  786MOL0     C 3625   2.036   4.355   7.170 -0.8632  0.7869  0.4518
  786MOL0     C 3626   1.903   4.336   7.127 -0.2753 -0.5963  0.0787
  786MOL0     C 3627   1.801   4.426   7.167 -0.2571  0.0252 -1.2760
  786MOL0     O 3628   1.676   4.415   7.119  0.5563 -0.0576  0.7510
  786MOL0     C 3629   1.655   4.409   6.976  1.1207  0.5191 -0.3006
  786MOL0     C 3630   1.500   4.411   6.929 -0.4393  0.1534 -0.1585
  786MOL0     C 3631   1.411   4.498   7.035 -0.2250 -0.2005  0.9752
  786MOL0     C 3632   1.269   4.533   6.978  0.2668 -0.7376  0.5419
  786MOL0     C 3633   1.170   4.412   6.990  0.1939 -0.3763  0.4449
  786MOL0     C 3634   1.028   4.476   6.966  0.7334 -0.5598 -0.0258
  786MOL0     C 3635   0.962   4.488   7.102  0.2159 -0.0304 -0.9070
  786MOL0     C 3636   0.851   4.601   7.115 -0.3925 -0.3321  0.5617
  786MOL0     N 3637   0.711   4.551   7.130  0.7533 -0.6951  0.4538
  786MOL0     C 3638   0.645   4.496   7.020  0.3094 -0.9300 -0.4908
  786MOL0     C 3639   0.526   4.448   7.069  0.2788  0.6187 -0.1740
  786MOL0     C 3640   0.410   4.379   6.992 -0.4707 -0.4647  0.2781
  786MOL0     C 3641   0.433   4.350   6.841 -0.8746 -0.2181 -0.8375
  786MOL0     C 3642   0.316   4.272   6.792  0.5008 -0.3588  0.2644
  786MOL0     C 3643   0.281   4.139   6.863  0.1422  0.1067 -0.0628
  786MOL0     O 3644   0.184   4.147   6.966  0.7604 -0.5606 -0.1408
  786MOL0     C 3645   0.051   4.160   6.940 -0.2120  0.9608  0.6176
  786MOL0     C 3646  -0.007   4.151   6.816  0.0643  0.1730 -0.0040
  786MOL0     C 3647  -0.140   4.159   6.811  1.0093 -0.1799  0.0216
  786MOL0     C 3648  -0.224   4.133   6.914 -0.0666 -0.6420  0.9782
  786MOL0     C 3649  -0.365   4.137   6.901  0.0918 -1.0375 -0.7626
  786MOL0     O 3650  -0.427   4.097   7.014 -0.5531  0.2671 -0.3489
  786MOL0     C 3651  -0.562   4.106   7.020  0.4100 -0.5151  0.7560
  786MOL0     C 3652  -0.644   4.026   6.935  0.3403  0.2496 -0.4135
  786MOL0     C 3653  -0.781   4.047   6.930  0.5827  0.0983 -0.8906
  786MOL0     C 3654  -0.839   4.150   7.001  0.3944 -0.3791  0.1224
  786MOL0     O 3655  -0.968   4.184   7.002 -0.0815  0.2635 -0.1372
  786MOL0     C 3656  -1.052   4.080   7.070  0.0561 -0.5236 -0.4923
  786MOL0     C 3657  -1.205   4.093   7.040 -0.1697 -0.6478  0.0802
  786MOL0     C 3658  -1.266   4.196   7.141 -0.2944 -0.1313  1.3142
  786MOL0     C 3659  -1.418   4.226   7.107  0.0163 -0.1107  0.5603
  786MOL0     C 3660  -1.499   4.108   7.045  0.0045  0.1795 -0.3532
  786MOL0     C 3661  -1.645   4.151   7.029 -0.6125  0.4196 -1.0223
  786MOL0     C 3662  -1.717   4.073   6.918 -0.2180  0.3263  0.0493
  786MOL0     C 3663  -1.839   3.996   6.954 -0.3442 -0.3688  0.0335
  786MOL0    Cl 3664  -1.874   3.898   6.800 -0.1974 -0.1500 -0.1463
  786MOL0     C 3665  -0.759   4.224   7.080  0.1577  0.4716 -0.5525
  786MOL0     C 3666  -0.625   4.198   7.100 -0.1111 -0.0756 -0.3630
  786MOL0     O 3667  -0.431   4.176   6.800  0.4495  0.0012  0.0359
  786MOL0     C 3668  -0.164   4.122   7.040 -0.5330 -0.6916  0.3604
  786MOL0     C 3669  -0.025   4.125   7.054 -0.4663 -0.4109 -0.4477
  786MOL0     N 3670   0.533   4.466   7.205  0.2211  0.0630 -0.5054
  786MOL0     N 3671   0.640   4.533   7.241 -0.2211 -0.6647 -0.9611
  786MOL0     C 3672   1.829   4.506   7.272  0.4549 -0.4235  0.2094
  786MOL0     C 3673   1.959   4.527   7.331  0.2862  1.0578  0.1239
  786MOL0     C 3674   2.357   4.430   7.487 -0.1875 -0.3268  0.0414
  786MOL0     C 3675   2.429   4.539   7.446 -0.8489 -0.1394 -0.4611
  786MOL0     C 3676   2.558   4.572   7.503 -0.0106 -0.5201  0.2455
  786MOL0     C 3677   2.619   4.490   7.598 -0.5308  0.3664 -0.6406
  786MOL0     O 3678   2.741   4.501   7.658  0.1261  1.1658  0.3752
  786MOL0     C 3679   2.827   4.609   7.628 -0.7998  0.5006  0.6860
  786MOL0     C 3680   2.952   4.626   7.709 -0.0028  0.6016 -0.5120
  786MOL0     C 3681   3.027   4.495   7.738  0.8054  0.1704 -0.1970
  786MOL0     C 3682   3.169   4.525   7.787 -0.5339  0.8102  0.3954
  786MOL0     C 3683   3.258   4.546   7.676  0.2642  0.2977 -0.0678
  786MOL0     C 3684   3.332   4.580   7.588  0.6507 -0.6009 -0.3361
  786MOL0     C 3685   2.547   4.384   7.642 -0.4593  0.0473  0.1424
  786MOL0     C 3686   2.419   4.358   7.596 -0.7174 -0.0354  0.4313
  786MOL0     H 3687   2.113   4.286   7.139 -1.1356 -0.2285  1.9308
  786MOL0     H 3688   1.876   4.257   7.058  1.0031  0.3932 -1.6297
  786MOL0     H 3689   1.701   4.325   6.925  2.5984  2.8107 -3.0199
  786MOL0     H 3690   1.698   4.506   6.949  1.5954  0.3508 -0.1521
  786MOL0     H 3691   1.465   4.308   6.941  0.8744 -0.4172 -0.9858
  786MOL0     H 3692   1.506   4.450   6.827  2.3009  0.1212 -0.0920
  786MOL0     H 3693   1.458   4.597   7.029  0.6897 -0.7006 -1.7313
  786MOL0     H 3694   1.402   4.468   7.140  0.1666 -0.7095  0.8680
  786MOL0     H 3695   1.238   4.630   7.018  2.2537  0.4502 -0.6044
  786MOL0     H 3696   1.267   4.565   6.873 -4.5113 -0.0226  0.6697
  786MOL0     H 3697   1.172   4.359   7.085  2.7800 -1.0132  0.0937
  786MOL0     H 3698   1.177   4.349   6.901 -2.0762  1.7557 -1.4135
  786MOL0     H 3699   0.960   4.404   6.920  1.9181 -1.6239 -0.1712
  786MOL0     H 3700   1.028   4.568   6.907 -2.1017 -0.4157  0.0476
  786MOL0     H 3701   0.905   4.397   7.120 -1.8979  1.1672 -1.2188
  786MOL0     H 3702   1.033   4.508   7.183  0.6798  1.1975 -1.5814
  786MOL0     H 3703   0.855   4.661   7.024  2.8538  0.2741  0.9810
  786MOL0     H 3704   0.874   4.655   7.208  0.8380 -1.0204  0.6830
  786MOL0     H 3705   0.673   4.502   6.915  2.5971  2.6351  0.1824
  786MOL0     H 3706   0.326   4.444   7.017  0.2234  0.3125  0.6347
  786MOL0     H 3707   0.390   4.284   7.042  3.3416 -1.9902 -0.6959
  786MOL0     H 3708   0.523   4.289   6.838 -0.4550  0.4175 -1.6391
  786MOL0     H 3709   0.444   4.441   6.781 -0.5540 -0.6178 -1.3896
  786MOL0     H 3710   0.230   4.338   6.791 -1.1809 -2.4500 -0.3305
  786MOL0     H 3711   0.337   4.242   6.689 -0.7052 -0.5795  0.0693
  786MOL0     H 3712   0.372   4.086   6.894  0.1543  1.1228  1.8000
  786MOL0     H 3713   0.247   4.075   6.780  1.7358 -0.1794 -0.5280
  786MOL0     H 3714   0.055   4.145   6.727  2.1399  3.9572  0.9797
  786MOL0     H 3715  -0.189   4.171   6.715 -2.3934 -1.3170  1.4309
  786MOL0     H 3716  -0.598   3.954   6.869  1.5360  0.8070 -0.2033
  786MOL0     H 3717  -0.828   3.985   6.854  1.8478 -4.3638  1.5861
  786MOL0     H 3718  -1.030   4.095   7.176 -0.8278 -1.0496 -0.2183
  786MOL0     H 3719  -1.018   3.984   7.030  2.0955 -0.3467  0.7014
  786MOL0     H 3720  -1.255   3.996   7.027 -1.5835  0.1857 -1.0158
  786MOL0     H 3721  -1.215   4.143   6.943  1.4984  3.3600  1.7789
  786MOL0     H 3722  -1.211   4.290   7.138  4.2518 -2.4559 -3.5077
  786MOL0     H 3723  -1.263   4.146   7.238 -0.5461  1.4974  2.1778
  786MOL0     H 3724  -1.466   4.281   7.189 -0.7747 -0.5126  0.3731
  786MOL0     H 3725  -1.412   4.304   7.030 -2.2397 -0.4306 -0.0074
  786MOL0     H 3726  -1.485   4.022   7.111  0.4880  0.8148  0.3954
  786MOL0     H 3727  -1.450   4.085   6.950 -1.0074 -2.2163 -0.3765
  786MOL0     H 3728  -1.640   4.258   7.009  2.9049  0.3075 -1.2241
  786MOL0     H 3729  -1.691   4.137   7.128 -4.1473  0.8466 -2.4430
  786MOL0     H 3730  -1.747   4.145   6.841  2.1184  0.0725 -1.2112
  786MOL0     H 3731  -1.655   4.006   6.858 -0.3019  0.6433 -0.3975
  786MOL0     H 3732  -1.925   4.059   6.977  2.1842  2.5350  2.3183
  786MOL0     H 3733  -1.822   3.929   7.038 -0.7377 -0.6454 -0.1058
  786MOL0     H 3734  -0.791   4.312   7.136 -0.2377  0.6106 -0.9875
  786MOL0     H 3735  -0.572   4.251   7.179 -1.7042 -0.2053  0.8550
  786MOL0     H 3736  -0.215   4.103   7.134 -0.3253  3.0420  1.3682
  786MOL0     H 3737   0.031   4.108   7.146  0.0833 -0.3108 -0.7599
  786MOL0     H 3738   1.739   4.551   7.314  2.5525  4.5985  0.0616
  786MOL0     H 3739   1.973   4.602   7.409 -0.8805 -1.3096  2.7774
  786MOL0     H 3740   2.378   4.609   7.380 -2.3494  0.6043  1.4107
  786MOL0     H 3741   2.603   4.664   7.466  0.4909 -0.4122  1.0867
  786MOL0     H 3742   2.773   4.703   7.645 -1.2987  0.3375  0.0650
  786MOL0     H 3743   2.859   4.609   7.524  0.8127  0.3467  1.1550
  786MOL0     H 3744   3.012   4.699   7.654 -1.5504  1.1962 -1.4863
  786MOL0     H 3745   2.918   4.664   7.805 -2.5465 -0.4293 -0.9202
  786MOL0     H 3746   3.031   4.424   7.655 -1.5253 -1.5104  1.0043
  786MOL0     H 3747   2.972   4.435   7.812 -0.3289 -0.1215 -1.2355
  786MOL0     H 3748   3.163   4.604   7.863 -4.1937  1.3196 -0.2194
  786MOL0     H 3749   3.213   4.442   7.842 -2.1129  0.1671  0.7497
  786MOL0     H 3750   3.408   4.599   7.515  0.6714  0.4153 -0.0560
  786MOL0     H 3751   2.589   4.306   7.704 -1.4493 -0.7082 -0.1149
  786MOL0     H 3752   2.368   4.270   7.634  0.7812 -2.2235 -2.3167
  787MOL0     O 3753   1.568   1.534   1.312  0.1340  0.3614 -0.4865
  787MOL0     C 3754   1.602   1.608   1.219  0.4622 -0.1475 -0.7326
  787MOL0     O 3755   1.520   1.697   1.143 -0.2794  0.6686 -0.7661
  787MOL0     C 3756   1.393   1.698   1.192 -0.6622  0.3055  0.1037
  787MOL0     C 3757   1.351   1.749   1.310 -0.1590 -0.1334  0.6052
  787MOL0     C 3758   1.218   1.751   1.343 -0.5362  0.1780  0.0012
  787MOL0     C 3759   1.122   1.704   1.252 -0.7433 -0.1004 -0.2372
  787MOL0     O 3760   0.983   1.703   1.261 -0.3294 -0.0162  0.2302
  787MOL0     C 3761   0.935   1.774   1.376  0.2807  0.4464 -0.3200
  787MOL0     C 3762   0.789   1.806   1.367  0.0256  0.4281 -0.4365
  787MOL0     C 3763   0.712   1.681   1.313 -0.0942 -0.3650  0.4911
  787MOL0     C 3764   0.572   1.673   1.363 -0.5555 -0.2889 -0.4126
  787MOL0     C 3765   0.502   1.559   1.287 -1.0486 -0.7560  0.0073
  787MOL0     C 3766   0.355   1.590   1.296  0.8311  0.9217  0.3393
  787MOL0     C 3767   0.274   1.481   1.221  0.0144 -0.2995 -0.7498
  787MOL0     C 3768   0.130   1.497   1.191  0.4102 -0.3220  0.2368
  787MOL0     N 3769   0.122   1.623   1.112  0.0921 -0.4781  0.1277
  787MOL0     C 3770   0.126   1.634   0.979 -0.9285  0.6883  0.6097
  787MOL0     C 3771   0.125   1.774   0.963  0.3786 -0.6532 -0.9299
  787MOL0     C 3772   0.126   1.839   0.824 -1.0748  0.5823  1.1846
  787MOL0     C 3773  -0.019   1.865   0.779  0.3546  0.1775  0.7274
  787MOL0     C 3774  -0.056   2.018   0.788  0.5281  0.2424  0.2558
  787MOL0     C 3775  -0.206   2.033   0.768 -0.0374  1.1018 -0.4870
  787MOL0     O 3776  -0.240   2.049   0.628 -0.8313 -0.4313  0.0085
  787MOL0     C 3777  -0.372   2.075   0.600 -0.4030 -0.7395  0.4010
  787MOL0     C 3778  -0.419   2.075   0.469  0.3920 -0.3960  0.4048
  787MOL0     C 3779  -0.562   2.075   0.445  0.8515 -0.3278  0.9024
  787MOL0     C 3780  -0.649   2.096   0.545  0.4757 -0.4214  0.0536
  787MOL0     C 3781  -0.790   2.113   0.510  0.5378  1.1979 -1.1145
  787MOL0     O 3782  -0.860   2.216   0.565 -0.4120 -1.0109  0.2856
  787MOL0     C 3783  -0.991   2.229   0.522  0.1005 -0.3964 -0.4079
  787MOL0     C 3784  -1.083   2.139   0.573  0.2002 -0.2707 -0.0403
  787MOL0     C 3785  -1.223   2.168   0.555 -0.2315  0.0913 -0.3316
  787MOL0     C 3786  -1.270   2.283   0.492  0.3658 -0.0476  0.3286
  787MOL0     O 3787  -1.402   2.316   0.494 -0.3036 -0.3016  0.5579
  787MOL0     C 3788  -1.450   2.421   0.423  1.1675 -0.5004 -0.3152
  787MOL0     C 3789  -1.603   2.436   0.439  0.3296 -0.2859  0.1947
  787MOL0     C 3790  -1.671   2.303   0.403 -1.1778 -0.1259 -0.4143
  787MOL0     C 3791  -1.821   2.324   0.419  0.6403  0.2396  0.9661
  787MOL0     C 3792  -1.900   2.194   0.439 -0.5809  0.0795 -0.2091
  787MOL0     C 3793  -2.050   2.209   0.427 -0.4588  0.2157 -0.3707
  787MOL0     C 3794  -2.110   2.076   0.430 -0.3725 -0.1161 -0.9603
  787MOL0     C 3795  -2.263   2.083   0.467 -0.6346 -0.1599 -0.1071
  787MOL0    Cl 3796  -2.363   2.191   0.350  0.4089 -0.3822 -0.4238
  787MOL0     C 3797  -1.176   2.370   0.440  0.0203  0.8083  0.7025
  787MOL0     C 3798  -1.035   2.347   0.460 -0.2580  0.6721  0.8577
  787MOL0     O 3799  -0.834   2.029   0.433  0.1318  0.7581  0.0053
  787MOL0     C 3800  -0.595   2.108   0.673 -0.4849 -0.1057  0.1149
  787MOL0     C 3801  -0.457   2.093   0.699 -0.5473 -0.5808 -0.3949
  787MOL0     N 3802   0.096   1.837   1.079  0.4999 -0.3317 -0.2032
  787MOL0     N 3803   0.082   1.745   1.172 -1.3972  1.0854 -0.4120
  787MOL0     C 3804   1.171   1.658   1.128 -0.4791  0.2411 -0.0195
  787MOL0     C 3805   1.303   1.648   1.101  0.7081 -1.1812  0.0853
  787MOL0     C 3806   1.753   1.609   1.188  0.5913  0.1396 -0.5142
  787MOL0     C 3807   1.841   1.517   1.258 -0.6946 -0.3636 -0.0541
  787MOL0     C 3808   1.974   1.515   1.217  0.6166  0.7390 -0.3740
  787MOL0     C 3809   2.020   1.606   1.113 -0.2507 -0.2610  0.5405
  787MOL0     O 3810   2.158   1.609   1.091  0.6411 -0.6030  0.2054
  787MOL0     C 3811   2.215   1.689   0.991 -0.1000 -0.1310 -0.2427
  787MOL0     C 3812   2.241   1.829   1.060 -0.0216 -0.3286  1.0684
  787MOL0     C 3813   2.268   1.928   0.950  1.2147 -0.5404 -0.1257
  787MOL0     C 3814   2.412   1.924   0.901 -0.1408 -0.5081  0.5386
  787MOL0     C 3815   2.439   2.042   0.820  0.3805 -0.5989 -0.2385
  787MOL0     C 3816   2.484   2.128   0.735  0.3345  0.6847 -0.9118
  787MOL0     C 3817   1.927   1.691   1.051 -0.7749  0.6100 -0.4858
  787MOL0     C 3818   1.794   1.691   1.087  0.0068  0.1673  0.0540
  787MOL0     H 3819   1.418   1.796   1.382 -1.2443  1.1419  0.8066
  787MOL0     H 3820   1.198   1.791   1.442  0.2069  0.5116  0.0201
  787MOL0     H 3821   0.990   1.863   1.408  0.7952  0.1578 -0.3938
  787MOL0     H 3822   0.939   1.696   1.453  1.1756 -1.6761 -2.4132
  787MOL0     H 3823   0.765   1.884   1.294 -1.2571  0.1554 -0.3119
  787MOL0     H 3824   0.745   1.838   1.462 -2.7614 -1.3575 -1.0309
  787MOL0     H 3825   0.780   1.596   1.322  0.5506  0.0202 -0.5688
  787MOL0     H 3826   0.705   1.703   1.206  1.2629  2.4982  0.9136
  787MOL0     H 3827   0.568   1.664   1.472  0.6928 -1.6284 -0.4296
  787MOL0     H 3828   0.518   1.763   1.336 -3.9513 -2.8994 -3.2062
  787MOL0     H 3829   0.522   1.461   1.331 -0.1336 -1.6398 -2.2327
  787MOL0     H 3830   0.521   1.552   1.180 -1.1549 -1.5406  0.0350
  787MOL0     H 3831   0.339   1.682   1.239 -0.1892  2.4594  2.8802
  787MOL0     H 3832   0.320   1.600   1.399  3.1135 -1.3028  1.4520
  787MOL0     H 3833   0.328   1.462   1.128 -0.3473 -2.0058 -0.6543
  787MOL0     H 3834   0.282   1.389   1.280 -2.3477  1.1036  2.0517
  787MOL0     H 3835   0.067   1.521   1.277  1.5030 -1.6140  1.4545
  787MOL0     H 3836   0.093   1.414   1.131  1.2330 -0.2226 -0.4239
  787MOL0     H 3837   0.183   1.568   0.915  0.9067  0.0025  2.8207
  787MOL0     H 3838   0.177   1.776   0.751  1.1587  1.8229  1.5514
  787MOL0     H 3839   0.193   1.926   0.829 -1.0161  0.6585 -0.3965
  787MOL0     H 3840  -0.089   1.803   0.836 -0.2922  0.9605  0.7949
  787MOL0     H 3841  -0.028   1.831   0.675  2.3423  1.0505  0.2142
  787MOL0     H 3842  -0.035   2.070   0.881  1.4521 -1.6033  1.1148
  787MOL0     H 3843  -0.005   2.075   0.709  2.6122  1.0391  2.1003
  787MOL0     H 3844  -0.237   2.116   0.832 -0.8624  0.0201  0.5475
  787MOL0     H 3845  -0.253   1.942   0.805  1.3987 -0.0362 -1.3462
  787MOL0     H 3846  -0.347   2.071   0.387  2.4934  1.1706  2.0586
  787MOL0     H 3847  -0.593   2.065   0.341 -0.6520 -1.1045  1.4002
  787MOL0     H 3848  -1.047   2.063   0.642 -1.1932  0.3854  1.4992
  787MOL0     H 3849  -1.287   2.086   0.587  0.4458 -0.6168 -0.7687
  787MOL0     H 3850  -1.417   2.401   0.321  0.7753 -1.1461 -0.3226
  787MOL0     H 3851  -1.401   2.516   0.446  2.2139 -1.2189  0.5296
  787MOL0     H 3852  -1.633   2.519   0.375  3.8476  4.1814  3.6575
  787MOL0     H 3853  -1.632   2.452   0.543 -1.6216  1.6509 -0.5720
  787MOL0     H 3854  -1.633   2.226   0.469 -1.4485 -0.5488 -0.7462
  787MOL0     H 3855  -1.660   2.285   0.296 -2.8957  2.8050 -1.2130
  787MOL0     H 3856  -1.842   2.396   0.499 -3.5874  1.6366 -1.0575
  787MOL0     H 3857  -1.853   2.372   0.326  0.8994  0.3208  0.9204
  787MOL0     H 3858  -1.872   2.161   0.540 -1.2067  3.1094  1.0770
  787MOL0     H 3859  -1.873   2.120   0.363 -2.3152 -0.7320 -0.0792
  787MOL0     H 3860  -2.079   2.263   0.337  0.9488 -0.6018 -1.3402
  787MOL0     H 3861  -2.082   2.266   0.515  2.3138  2.2665 -0.5487
  787MOL0     H 3862  -2.105   2.028   0.332  0.8620  2.6015 -2.3354
  787MOL0     H 3863  -2.067   2.010   0.505  2.2324  3.1726  0.6526
  787MOL0     H 3864  -2.277   2.124   0.567  2.4565  2.2217 -0.4902
  787MOL0     H 3865  -2.295   1.979   0.465 -0.1844 -0.2998 -0.0890
  787MOL0     H 3866  -1.210   2.456   0.383 -1.2156 -0.8353 -1.1665
  787MOL0     H 3867  -0.961   2.417   0.421 -0.7216  0.4685 -0.4283
  787MOL0     H 3868  -0.678   2.119   0.741 -2.1802  0.5769 -1.9724
  787MOL0     H 3869  -0.437   2.101   0.806 -0.1298  1.3676 -0.5674
  787MOL0     H 3870   1.105   1.633   1.045  0.5573  1.8491 -1.4168
  787MOL0     H 3871   1.340   1.630   1.001  0.5480 -1.2516  0.0391
  787MOL0     H 3872   1.817   1.449   1.339 -1.7749  2.1162  1.8218
  787MOL0     H 3873   2.040   1.447   1.269 -0.6823  0.6000  1.1748
  787MOL0     H 3874   2.151   1.696   0.903  0.4562 -0.1312 -0.6490
  787MOL0     H 3875   2.308   1.647   0.952  0.5359 -0.0761  1.1248
  787MOL0     H 3876   2.154   1.857   1.121 -1.5655 -0.2965 -1.0238
  787MOL0     H 3877   2.326   1.821   1.128  2.8896 -0.4122 -2.3343
  787MOL0     H 3878   2.251   2.028   0.992 -0.8561 -1.0464  0.3541
  787MOL0     H 3879   2.199   1.922   0.865  0.9086 -1.2672  0.1739
  787MOL0     H 3880   2.480   1.927   0.987 -0.1996  3.0112  0.6081
  787MOL0     H 3881   2.437   1.833   0.846 -1.7685 -2.4752  2.7840
  787MOL0     H 3882   2.515   2.200   0.662 -1.7838  0.8260 -1.7311
  787MOL0     H 3883   1.944   1.760   0.969 -1.9227  2.6447  0.9099
  787MOL0     H 3884   1.734   1.743   1.014 -1.9514 -2.2917 -0.2450
  788MOL0     O 3885   6.911   5.447   9.679  0.4583  0.5959 -0.4623
  788MOL0     C 3886   6.994   5.489   9.598 -0.7661  0.3851  0.0645
  788MOL0     O 3887   6.980   5.490   9.460 -0.0925  0.4288 -0.6413
  788MOL0     C 3888   6.854   5.476   9.412  0.5734 -1.0519 -0.8404
  788MOL0     C 3889   6.760   5.574   9.457 -1.3070  0.6409  0.1651
  788MOL0     C 3890   6.634   5.566   9.400 -0.6893  0.0335 -0.5659
  788MOL0     C 3891   6.607   5.478   9.295  0.0402 -0.2061 -0.4929
  788MOL0     O 3892   6.481   5.478   9.231 -0.9366  0.5862  0.3087
  788MOL0     C 3893   6.362   5.548   9.283 -0.1185  1.1552  0.2979
  788MOL0     C 3894   6.235   5.507   9.203  0.1287  0.0924  0.1402
  788MOL0     C 3895   6.183   5.362   9.227 -0.4722  0.2441  0.0252
  788MOL0     C 3896   6.040   5.360   9.177 -0.3272  0.3051  0.6308
  788MOL0     C 3897   5.978   5.228   9.123 -0.5513  1.1331  0.3788
  788MOL0     C 3898   5.843   5.253   9.061  0.2006 -1.0285  0.8348
  788MOL0     C 3899   5.734   5.299   9.159 -0.3423  0.3115 -0.2021
  788MOL0     C 3900   5.633   5.384   9.086  0.1612 -0.9294  0.3753
  788MOL0     N 3901   5.544   5.310   8.990  0.1707 -0.5531 -0.4473
  788MOL0     C 3902   5.422   5.265   9.020  0.4620 -0.1353  0.3469
  788MOL0     C 3903   5.386   5.218   8.903 -0.0838 -0.2597 -0.1628
  788MOL0     C 3904   5.253   5.157   8.849 -1.2915 -0.4401 -0.9034
  788MOL0     C 3905   5.134   5.229   8.902  0.0155 -0.2064  1.1106
  788MOL0     C 3906   5.007   5.150   8.875  0.2355 -0.4252  0.1979
  788MOL0     C 3907   4.889   5.251   8.893  0.2326  0.9623  0.0319
  788MOL0     O 3908   4.766   5.184   8.868 -0.2008  0.1141  0.0441
  788MOL0     C 3909   4.656   5.264   8.894 -1.3004 -0.2307  0.5574
  788MOL0     C 3910   4.582   5.314   8.787 -0.3514  1.0648  0.2374
  788MOL0     C 3911   4.461   5.383   8.815 -0.6187 -0.4523 -0.3945
  788MOL0     C 3912   4.410   5.388   8.945 -0.9138 -0.1395  0.5418
  788MOL0     C 3913   4.281   5.459   8.973  0.5209  0.4157 -0.4254
  788MOL0     O 3914   4.254   5.567   8.905 -1.0414 -0.3323  0.1958
  788MOL0     C 3915   4.124   5.619   8.908  0.1675 -0.1394  0.1654
  788MOL0     C 3916   4.023   5.575   8.817 -0.4561  0.2738  0.2947
  788MOL0     C 3917   3.894   5.620   8.816 -0.1465 -0.3399 -0.6161
  788MOL0     C 3918   3.863   5.721   8.915 -0.2215 -0.6052  0.3964
  788MOL0     O 3919   3.728   5.756   8.925  0.0078  0.1770 -0.6777
  788MOL0     C 3920   3.681   5.802   9.055 -0.3570  0.5474 -1.0535
  788MOL0     C 3921   3.532   5.763   9.056 -1.3586 -0.1062  0.1244
  788MOL0     C 3922   3.467   5.811   9.180 -0.1456 -0.4539  0.6002
  788MOL0     C 3923   3.317   5.772   9.175  0.5339 -0.4361 -0.2443
  788MOL0     C 3924   3.243   5.812   9.305  0.6486 -0.0002  0.8329
  788MOL0     C 3925   3.092   5.815   9.281 -0.6334 -0.3073 -0.4247
  788MOL0     C 3926   2.999   5.869   9.396  0.2988 -0.7543 -0.0321
  788MOL0     C 3927   3.004   5.788   9.528 -0.0389  0.1572 -0.3170
  788MOL0    Cl 3928   2.903   5.903   9.643  0.1087 -0.2592  0.2694
  788MOL0     C 3929   3.968   5.772   8.993  0.5110 -0.1793  0.5566
  788MOL0     C 3930   4.094   5.718   8.997  0.5717 -0.2572 -0.2393
  788MOL0     O 3931   4.219   5.425   9.077  0.2426 -0.5100  0.4679
  788MOL0     C 3932   4.486   5.330   9.056  0.1105 -0.2680 -1.1143
  788MOL0     C 3933   4.615   5.275   9.028  0.3064  0.1569  0.0070
  788MOL0     N 3934   5.483   5.242   8.805  0.8724  0.1291  0.5792
  788MOL0     N 3935   5.581   5.295   8.865 -0.0382 -0.0960 -0.7255
  788MOL0     C 3936   6.698   5.378   9.258 -0.1361 -0.3549 -0.1245
  788MOL0     C 3937   6.824   5.375   9.321  0.8076 -0.5606  0.3153
  788MOL0     C 3938   7.126   5.548   9.655  0.5220  0.4781 -0.2332
  788MOL0     C 3939   7.216   5.604   9.571 -0.5675  0.2592 -0.8188
  788MOL0     C 3940   7.326   5.674   9.616 -0.1331  0.9857  0.7852
  788MOL0     C 3941   7.350   5.679   9.754 -0.1632  0.4625 -0.4749
  788MOL0     O 3942   7.454   5.746   9.808 -0.3398 -0.7195 -0.1015
  788MOL0     C 3943   7.503   5.858   9.730 -0.4596 -0.1492 -0.5457
  788MOL0     C 3944   7.545   5.968   9.832  0.5140 -0.7083 -0.0777
  788MOL0     C 3945   7.691   5.966   9.879 -0.0383  0.0495 -0.2507
  788MOL0     C 3946   7.708   6.066   9.992  0.0271 -0.4926  0.2615
  788MOL0     C 3947   7.678   6.015  10.129 -0.4925  0.5075 -1.0379
  788MOL0     C 3948   7.680   5.992  10.247 -1.4303  0.7865  0.3679
  788MOL0     C 3949   7.261   5.618   9.843 -0.3853 -0.1549  1.1118
  788MOL0     C 3950   7.151   5.562   9.790  0.4045 -0.0211  0.0680
  788MOL0     H 3951   6.785   5.641   9.538 -0.7038 -0.4171  0.8720
  788MOL0     H 3952   6.557   5.624   9.450  0.2089 -0.7964  1.9935
  788MOL0     H 3953   6.378   5.655   9.271  0.6231  1.2804  2.0722
  788MOL0     H 3954   6.349   5.514   9.386 -0.1029 -2.4767 -0.7569
  788MOL0     H 3955   6.264   5.532   9.101  2.5176  3.0863  1.4080
  788MOL0     H 3956   6.158   5.575   9.240  0.6270  1.2818 -0.9395
  788MOL0     H 3957   6.187   5.327   9.331  1.6877 -1.7961 -0.6550
  788MOL0     H 3958   6.252   5.302   9.167  0.1487  1.5342 -0.5876
  788MOL0     H 3959   5.975   5.391   9.259 -3.0694  1.4299 -1.8160
  788MOL0     H 3960   6.019   5.434   9.099 -3.8536 -1.8166 -0.6563
  788MOL0     H 3961   5.978   5.143   9.191  0.1185  0.2717 -0.6650
  788MOL0     H 3962   6.036   5.196   9.036 -0.1927 -2.3563  1.7454
  788MOL0     H 3963   5.804   5.165   9.009  0.5780 -0.9853  0.4717
  788MOL0     H 3964   5.859   5.338   8.994  2.7123  0.4219  3.0604
  788MOL0     H 3965   5.678   5.223   9.215  0.0788  0.0667 -0.1016
  788MOL0     H 3966   5.783   5.373   9.224 -0.1004  1.4678 -1.6425
  788MOL0     H 3967   5.686   5.456   9.024  0.4742  0.1918  1.8746
  788MOL0     H 3968   5.585   5.450   9.160 -0.1342  0.3012 -0.8741
  788MOL0     H 3969   5.371   5.262   9.115 -1.8126 -1.2363 -0.8302
  788MOL0     H 3970   5.251   5.050   8.871  0.6411 -0.5441 -1.0233
  788MOL0     H 3971   5.245   5.170   8.741 -0.6233 -0.3761 -0.9515
  788MOL0     H 3972   5.127   5.324   8.847 -1.8113 -0.8725  0.1166
  788MOL0     H 3973   5.142   5.252   9.008 -1.0957 -2.7004  1.7936
  788MOL0     H 3974   5.001   5.105   8.776 -2.2097  2.3319 -1.0643
  788MOL0     H 3975   5.004   5.079   8.958 -0.8417 -0.1684  0.3953
  788MOL0     H 3976   4.891   5.333   8.821  0.5419  0.6771 -0.2902
  788MOL0     H 3977   4.896   5.300   8.991 -0.8223  3.4713 -1.0613
  788MOL0     H 3978   4.621   5.311   8.686  3.6153  0.5141  1.5868
  788MOL0     H 3979   4.418   5.426   8.725 -2.3342  0.9378  1.0279
  788MOL0     H 3980   4.061   5.506   8.742 -0.0032 -0.0434  0.8117
  788MOL0     H 3981   3.815   5.581   8.754 -1.0611 -1.8989  1.4228
  788MOL0     H 3982   3.701   5.909   9.061 -1.8725  0.8002  0.0671
  788MOL0     H 3983   3.738   5.747   9.131  0.3329  0.1899 -1.8169
  788MOL0     H 3984   3.515   5.655   9.054 -0.5512 -0.2472  0.4890
  788MOL0     H 3985   3.479   5.801   8.968 -2.4412 -1.2296  0.2528
  788MOL0     H 3986   3.475   5.920   9.185 -1.3720 -0.3793  1.2173
  788MOL0     H 3987   3.517   5.772   9.269  1.8527 -0.9479 -0.6871
  788MOL0     H 3988   3.269   5.823   9.091 -3.2957 -3.1568  0.0053
  788MOL0     H 3989   3.311   5.663   9.165  1.6427 -0.3108 -3.2824
  788MOL0     H 3990   3.285   5.911   9.323  1.7504  0.3415 -2.7998
  788MOL0     H 3991   3.260   5.751   9.394  0.0153 -1.6318 -0.1264
  788MOL0     H 3992   3.045   5.717   9.265 -0.8324 -0.3794  0.5641
  788MOL0     H 3993   3.063   5.866   9.188 -2.1100  0.5026  0.4369
  788MOL0     H 3994   3.033   5.971   9.412  1.6732 -0.8786 -1.8068
  788MOL0     H 3995   2.893   5.875   9.368 -0.4753 -2.3980  2.2273
  788MOL0     H 3996   3.103   5.787   9.574 -0.8631  1.6894  1.6262
  788MOL0     H 3997   2.968   5.685   9.529  3.7672 -1.3465 -0.6578
  788MOL0     H 3998   3.948   5.862   9.052 -1.4764  0.1954 -0.6036
  788MOL0     H 3999   4.166   5.750   9.072 -0.2326 -0.3760  0.5902
  788MOL0     H 4000   4.448   5.347   9.157 -3.2143  4.8682 -2.8568
  788MOL0     H 4001   4.681   5.248   9.109 -1.4047  2.9222  2.5467
  788MOL0     H 4002   6.675   5.314   9.174 -1.3015  0.8524 -0.7457
  788MOL0     H 4003   6.905   5.310   9.292  0.1869 -0.8061 -0.9370
  788MOL0     H 4004   7.202   5.604   9.464 -1.4615  0.0391 -0.7047
  788MOL0     H 4005   7.389   5.712   9.536 -0.6602  0.6390  0.1997
  788MOL0     H 4006   7.427   5.900   9.663 -0.2601  0.5568 -0.3389
  788MOL0     H 4007   7.586   5.832   9.664 -0.0790 -1.5183  0.4210
  788MOL0     H 4008   7.536   6.064   9.780 -0.1911 -0.2471  0.8663
  788MOL0     H 4009   7.474   5.962   9.915 -0.9343 -1.1746 -1.3242
  788MOL0     H 4010   7.752   5.990   9.792 -0.5852 -1.4158 -1.0596
  788MOL0     H 4011   7.715   5.868   9.920 -0.3105  0.4164  0.8363
  788MOL0     H 4012   7.812   6.100   9.987  0.9481 -3.0392  0.9710
  788MOL0     H 4013   7.637   6.147   9.970 -1.4073 -2.0487 -1.1572
  788MOL0     H 4014   7.698   5.991  10.353  3.2680 -0.6275 -0.2039
  788MOL0     H 4015   7.279   5.635   9.948 -0.8132  0.9576  1.0254
  788MOL0     H 4016   7.082   5.531   9.868 -2.9942  2.0447 -1.8444
  789MOL0     O 4017   4.847   9.772   9.853  0.3833 -0.0734 -0.1623
  789MOL0     C 4018   4.956   9.792   9.807 -0.9134  0.4109 -0.3672
  789MOL0     O 4019   4.984   9.872   9.701 -0.5950  0.3375 -0.4520
  789MOL0     C 4020   4.883   9.938   9.628  0.1167 -0.0981  0.1437
  789MOL0     C 4021   4.800   9.859   9.548  0.7474  0.1081 -0.3581
  789MOL0     C 4022   4.694   9.921   9.479 -0.5783  0.4414  1.1201
  789MOL0     C 4023   4.682  10.059   9.479 -0.9458 -0.4239  0.7968
  789MOL0     O 4024   4.594  10.127   9.402 -0.3201  0.3762 -0.4931
  789MOL0     C 4025   4.493  10.058   9.328  0.4762 -0.0767 -0.0005
  789MOL0     C 4026   4.404  10.173   9.275  0.0417 -0.2659 -0.1731
  789MOL0     C 4027   4.333  10.238   9.390 -0.2110  0.0206  0.5840
  789MOL0     C 4028   4.221  10.320   9.343  0.1051 -1.0420  0.2727
  789MOL0     C 4029   4.084  10.252   9.361 -0.0324  0.0675 -1.1604
  789MOL0     C 4030   3.980  10.332   9.285 -0.2458 -1.0830 -0.5339
  789MOL0     C 4031   3.841  10.269   9.326  0.5654  0.5980 -0.9458
  789MOL0     C 4032   3.813  10.276   9.476 -0.2811  1.0333 -0.8715
  789MOL0     N 4033   3.674  10.247   9.499 -0.3653  0.3920  0.3835
  789MOL0     C 4034   3.613  10.123   9.466  0.5323 -1.0712 -0.3834
  789MOL0     C 4035   3.483  10.147   9.504 -1.0564  0.5079  0.2483
  789MOL0     C 4036   3.369  10.048   9.513 -0.4997  0.1439  0.2514
  789MOL0     C 4037   3.221  10.097   9.464  0.4864 -0.6588 -0.1671
  789MOL0     C 4038   3.111   9.986   9.457 -0.0538  0.2341 -0.4326
  789MOL0     C 4039   2.983  10.039   9.388  0.1526 -0.5710  0.9838
  789MOL0     O 4040   2.932  10.137   9.480 -0.7547  0.2141  0.3450
  789MOL0     C 4041   2.800  10.157   9.477  0.3298 -0.8583 -0.6560
  789MOL0     C 4042   2.719  10.175   9.362  0.8681  0.1269  0.7586
  789MOL0     C 4043   2.585  10.227   9.377 -1.0739 -0.4771  0.6113
  789MOL0     C 4044   2.522  10.241   9.504 -0.7119  0.8681  0.1742
  789MOL0     C 4045   2.383  10.286   9.518 -0.8464 -0.1519 -0.6700
  789MOL0     O 4046   2.341  10.299   9.644 -0.1652 -0.2075  0.2344
  789MOL0     C 4047   2.199  10.308   9.649 -0.2437 -1.0477 -0.2698
  789MOL0     C 4048   2.131  10.188   9.659 -0.3295 -0.6378 -0.5540
  789MOL0     C 4049   1.993  10.196   9.687  0.0236  0.0226  0.0327
  789MOL0     C 4050   1.926  10.322   9.673 -0.7573 -0.3807  1.1707
  789MOL0     O 4051   1.790  10.343   9.676 -0.0047 -0.6697 -0.5290
  789MOL0     C 4052   1.705  10.271   9.767  0.1967 -0.3607 -0.0001
  789MOL0     C 4053   1.552  10.324   9.772  1.0282 -0.7461  0.1011
  789MOL0     C 4054   1.454  10.216   9.815 -0.5423 -0.1468 -0.1395
  789MOL0     C 4055   1.305  10.272   9.826 -0.7513 -0.4815  0.6799
  789MOL0     C 4056   1.208  10.157   9.813 -0.4106  0.2807 -0.0518
  789MOL0     C 4057   1.087  10.181   9.905  0.0453  0.6498 -0.1703
  789MOL0     C 4058   0.987  10.280   9.858 -0.3202  0.1322  0.4284
  789MOL0     C 4059   0.933  10.235   9.719 -0.1453 -0.1222  0.1107
  789MOL0    Cl 4060   0.764  10.312   9.693 -0.1251  0.0677 -0.2841
  789MOL0     C 4061   1.996  10.440   9.641  0.3446 -0.7940 -0.1452
  789MOL0     C 4062   2.134  10.431   9.631  0.0555 -0.4487  0.5022
  789MOL0     O 4063   2.317  10.309   9.420 -0.2821 -0.2943  0.5750
  789MOL0     C 4064   2.609  10.225   9.616 -0.1089  0.6048 -0.5168
  789MOL0     C 4065   2.743  10.182   9.604  1.0337 -0.4062 -0.5161
  789MOL0     N 4066   3.468  10.285   9.534 -0.0757 -0.1899  0.7701
  789MOL0     N 4067   3.581  10.348   9.528 -0.7179  0.5638 -0.4562
  789MOL0     C 4068   4.767  10.135   9.558  0.0719 -0.3606 -0.5212
  789MOL0     C 4069   4.858  10.074   9.642 -0.3983 -0.6135  0.1944
  789MOL0     C 4070   5.068   9.705   9.848  0.2190 -0.6546 -0.2152
  789MOL0     C 4071   5.199   9.738   9.826  0.0757 -0.1064 -0.2436
  789MOL0     C 4072   5.305   9.655   9.868  0.4845  0.0073  0.4900
  789MOL0     C 4073   5.273   9.537   9.939  1.0300  0.2794 -1.1260
  789MOL0     O 4074   5.373   9.453   9.990 -0.2945  0.0448 -0.5796
  789MOL0     C 4075   5.452   9.515  10.095  0.0015 -0.5933 -0.3569
  789MOL0     C 4076   5.574   9.435  10.122  0.0431 -0.5623  0.6709
  789MOL0     C 4077   5.678   9.488  10.225  0.3797  0.4930 -0.9120
  789MOL0     C 4078   5.639   9.443  10.369  0.1539  0.8704 -0.1744
  789MOL0     C 4079   5.514   9.485  10.426  0.5420  0.0363  1.4462
  789MOL0     C 4080   5.412   9.521  10.475 -0.1042  0.3127 -0.0282
  789MOL0     C 4081   5.141   9.508   9.973  0.9454  1.0424 -0.2155
  789MOL0     C 4082   5.039   9.583   9.921  0.4456  0.3975 -0.2744
  789MOL0     H 4083   4.804   9.751   9.557  2.1884  0.1381 -0.4691
  789MOL0     H 4084   4.623   9.861   9.423 -1.1789 -0.0490  2.3767
  789MOL0     H 4085   4.429   9.988   9.381  0.4425  0.4542  0.6783
  789MOL0     H 4086   4.531   9.999   9.244 -2.8944  0.0694 -1.7777
  789MOL0     H 4087   4.339  10.125   9.202 -0.1081 -1.7425  0.8811
  789MOL0     H 4088   4.468  10.246   9.223  0.7918  0.9387  2.2695
  789MOL0     H 4089   4.405  10.296   9.448  0.9844  0.5946 -1.3535
  789MOL0     H 4090   4.293  10.162   9.457  1.2771  1.2047  2.9321
  789MOL0     H 4091   4.228  10.411   9.403  3.5088 -0.1020 -1.2648
  789MOL0     H 4092   4.243  10.344   9.238  0.9478 -0.8821  0.4757
  789MOL0     H 4093   4.065  10.234   9.467  0.8572 -1.1107 -1.1712
  789MOL0     H 4094   4.091  10.149   9.325 -1.8425 -1.2417  1.8546
  789MOL0     H 4095   4.007  10.330   9.179 -1.4024  0.7871 -0.9146
  789MOL0     H 4096   3.971  10.434   9.324 -0.2994 -1.1263 -0.4342
  789MOL0     H 4097   3.758  10.315   9.271 -0.0269 -1.8737 -2.2495
  789MOL0     H 4098   3.839  10.165   9.292 -3.9500 -0.3466  1.5398
  789MOL0     H 4099   3.856  10.369   9.515  3.7162 -1.5423  1.6086
  789MOL0     H 4100   3.865  10.200   9.535 -0.1844  2.8240  1.5081
  789MOL0     H 4101   3.649  10.028   9.427 -1.8756 -2.0108 -0.4963
  789MOL0     H 4102   3.366  10.028   9.621 -0.1188 -0.3912  0.1604
  789MOL0     H 4103   3.403   9.960   9.459  0.7480  0.3560  0.6708
  789MOL0     H 4104   3.225  10.123   9.358 -0.5199 -1.9017 -0.5434
  789MOL0     H 4105   3.192  10.184   9.523 -3.2970 -1.1934 -0.9602
  789MOL0     H 4106   3.146   9.899   9.401  0.9151  0.2034  0.2006
  789MOL0     H 4107   3.079   9.956   9.557  1.7790 -1.9447 -0.4299
  789MOL0     H 4108   2.910   9.963   9.361  1.7923 -1.7394 -0.3540
  789MOL0     H 4109   3.014  10.080   9.291 -2.0845 -3.2625 -1.0238
  789MOL0     H 4110   2.769  10.163   9.267 -0.6787  1.5460 -0.2776
  789MOL0     H 4111   2.523  10.252   9.292 -0.0225  1.9742  0.4647
  789MOL0     H 4112   2.198  10.103   9.665 -1.7596 -1.7514  0.4322
  789MOL0     H 4113   1.945  10.103   9.714  0.1521 -0.6431 -1.9001
  789MOL0     H 4114   1.746  10.269   9.868 -0.5932  0.0538  0.3412
  789MOL0     H 4115   1.689  10.169   9.729  1.0079 -0.7875  0.7632
  789MOL0     H 4116   1.528  10.365   9.673 -1.3120 -3.2724 -0.4751
  789MOL0     H 4117   1.537  10.401   9.848 -0.1230  0.8381 -1.6388
  789MOL0     H 4118   1.481  10.172   9.911  0.7394  0.2524 -0.3081
  789MOL0     H 4119   1.459  10.142   9.735 -1.2503  0.9430 -1.2421
  789MOL0     H 4120   1.303  10.317   9.925  0.7543 -0.6142  0.8055
  789MOL0     H 4121   1.273  10.338   9.744 -1.8220 -1.0616  0.6282
  789MOL0     H 4122   1.251  10.061   9.843 -2.2560 -0.8793 -0.9653
  789MOL0     H 4123   1.192  10.141   9.706  2.3827 -1.7753 -0.2636
  789MOL0     H 4124   1.129  10.217   9.999 -1.3611  1.7516  0.0678
  789MOL0     H 4125   1.051  10.078   9.915  1.5357  0.3070  2.8235
  789MOL0     H 4126   0.900  10.285   9.923 -1.6826 -0.3441 -1.2606
  789MOL0     H 4127   1.033  10.378   9.847 -1.6051  0.5605 -1.8240
  789MOL0     H 4128   0.924  10.126   9.711  0.4700 -0.1799  0.1619
  789MOL0     H 4129   0.996  10.269   9.636 -0.8660 -0.1900 -0.4684
  789MOL0     H 4130   1.957  10.537   9.613 -1.7664 -1.6408 -0.3542
  789MOL0     H 4131   2.193  10.516   9.598 -0.8616 -0.0652 -0.1946
  789MOL0     H 4132   2.572  10.250   9.715 -2.1980 -0.4224 -0.9777
  789MOL0     H 4133   2.811  10.173   9.688  1.0329  1.4433 -0.2761
  789MOL0     H 4134   4.750  10.242   9.560 -0.6738 -0.2397  5.1551
  789MOL0     H 4135   4.928  10.129   9.703  1.0929 -2.3340  0.1118
  789MOL0     H 4136   5.213   9.830   9.771  1.2670  0.4872  0.9953
  789MOL0     H 4137   5.410   9.673   9.847 -0.2677 -0.6598 -6.1588
  789MOL0     H 4138   5.393   9.515  10.187 -1.0837  1.9712 -0.9610
  789MOL0     H 4139   5.481   9.619  10.079  0.3506 -0.9564 -2.3325
  789MOL0     H 4140   5.539   9.332  10.138  0.4410 -1.0239 -1.2066
  789MOL0     H 4141   5.628   9.425  10.028 -2.0220 -1.5767 -0.4715
  789MOL0     H 4142   5.691   9.595  10.205 -0.2661  0.1524 -3.4628
  789MOL0     H 4143   5.776   9.448  10.199  0.2723  0.0413 -0.6365
  789MOL0     H 4144   5.640   9.334  10.364  0.5847  0.8726 -0.1025
  789MOL0     H 4145   5.714   9.477  10.441  0.0864 -1.1261  0.8941
  789MOL0     H 4146   5.310   9.545  10.496 -0.2787  2.4888 -2.7472
  789MOL0     H 4147   5.134   9.425  10.043 -1.1063  1.3000 -0.0600
  789MOL0     H 4148   4.937   9.553   9.941  1.3639 -3.8833 -0.9881
  790MOL0     O 4149   9.817  10.910   6.322  0.6050  0.6231 -0.3606
  790MOL0     C 4150   9.910  10.838   6.340 -0.8798  0.8799 -0.1311
  790MOL0     O 4151   9.904  10.709   6.383  0.1660  0.7687 -0.8189
  790MOL0     C 4152   9.787  10.646   6.435 -1.6870 -0.5455  0.1798
  790MOL0     C 4153   9.708  10.706   6.534 -0.6083 -0.8988  0.0280
  790MOL0     C 4154   9.587  10.641   6.570 -0.9338  0.2907  0.8931
  790MOL0     C 4155   9.542  10.529   6.499 -0.7776  1.0459  0.3518
  790MOL0     O 4156   9.430  10.460   6.525  0.3428 -0.7472  0.2955
  790MOL0     C 4157   9.340  10.518   6.622  0.0663  0.5108 -0.2525
  790MOL0     C 4158   9.219  10.441   6.661 -1.0111 -0.3669  0.0409
  790MOL0     C 4159   9.093  10.463   6.584  0.5402 -0.5385  0.6642
  790MOL0     C 4160   8.994  10.347   6.625 -0.2626  0.5610  0.2225
  790MOL0     C 4161   8.958  10.325   6.773 -0.4693 -0.2146 -0.7653
  790MOL0     C 4162   8.896  10.451   6.832 -0.1938  0.1575 -0.8410
  790MOL0     C 4163   8.855  10.405   6.970  0.3880 -0.4908 -1.0850
  790MOL0     C 4164   8.779  10.514   7.044 -0.0564 -0.1779  0.0314
  790MOL0     N 4165   8.759  10.470   7.185  0.7672  0.3756 -0.0866
  790MOL0     C 4166   8.651  10.389   7.222 -1.5088 -0.5431 -0.3265
  790MOL0     C 4167   8.673  10.368   7.351 -0.3679 -0.1632  0.4889
  790MOL0     C 4168   8.602  10.267   7.434  0.3946  0.3486  0.0342
  790MOL0     C 4169   8.557  10.145   7.357  0.1578 -0.1485  1.3906
  790MOL0     C 4170   8.523  10.026   7.442  0.1497 -0.0196 -0.6506
  790MOL0     C 4171   8.423   9.923   7.380 -0.1076  0.4621 -0.3873
  790MOL0     O 4172   8.294   9.979   7.353  0.6866  0.0532  0.5364
  790MOL0     C 4173   8.185   9.893   7.357 -0.1980  0.4755  0.9409
  790MOL0     C 4174   8.063   9.955   7.339  0.3084  0.0412  0.1465
  790MOL0     C 4175   7.938   9.891   7.337 -0.3245 -0.0611 -1.4892
  790MOL0     C 4176   7.935   9.755   7.358  0.0890  0.8268  0.1361
  790MOL0     C 4177   7.812   9.680   7.376  0.1001 -0.7385 -0.2898
  790MOL0     O 4178   7.694   9.745   7.342  0.0306  0.0783 -0.1712
  790MOL0     C 4179   7.571   9.683   7.353 -0.0686  0.4712  0.4204
  790MOL0     C 4180   7.517   9.590   7.266 -0.9550  0.3111  0.4377
  790MOL0     C 4181   7.399   9.532   7.282  0.6910  0.2565  0.2291
  790MOL0     C 4182   7.323   9.558   7.397 -0.3073 -0.2386  0.4288
  790MOL0     O 4183   7.207   9.493   7.403  0.1215 -0.0044  0.1062
  790MOL0     C 4184   7.089   9.573   7.406 -0.1307  0.3847  0.4581
  790MOL0     C 4185   6.974   9.479   7.407 -0.6563  0.2441  0.2656
  790MOL0     C 4186   6.851   9.558   7.384 -0.5314 -0.2754 -1.3856
  790MOL0     C 4187   6.731   9.469   7.397  0.8072 -0.6313 -0.1356
  790MOL0     C 4188   6.595   9.541   7.363 -0.1787 -0.5984 -0.5492
  790MOL0     C 4189   6.531   9.620   7.476 -0.0362  0.0488 -0.0731
  790MOL0     C 4190   6.393   9.679   7.420 -0.0299 -0.1409 -0.8123
  790MOL0     C 4191   6.308   9.739   7.533 -0.0235 -0.3027  0.5275
  790MOL0    Cl 4192   6.156   9.817   7.468 -0.2723  0.4026  0.0161
  790MOL0     C 4193   7.363   9.653   7.488 -0.5001 -0.1474 -0.0640
  790MOL0     C 4194   7.493   9.707   7.467  0.5358  0.6781 -0.0366
  790MOL0     O 4195   7.827   9.565   7.428 -0.3198 -0.2086 -0.6430
  790MOL0     C 4196   8.059   9.692   7.374  0.1338  0.6431  0.3802
  790MOL0     C 4197   8.184   9.752   7.383 -0.9645  0.1477  0.8925
  790MOL0     N 4198   8.798  10.422   7.386  0.8879 -0.1856  0.1913
  790MOL0     N 4199   8.851  10.486   7.286  0.2860  0.5293  0.3618
  790MOL0     C 4200   9.630  10.462   6.414 -0.2300 -0.1209  0.2760
  790MOL0     C 4201   9.756  10.519   6.384 -0.4267  0.1071  0.5924
  790MOL0     C 4202  10.038  10.900   6.308  0.9089 -0.5263 -0.1391
  790MOL0     C 4203  10.045  11.021   6.235 -0.7846 -0.8901  0.7677
  790MOL0     C 4204  10.168  11.069   6.205 -0.4861  1.3498 -1.3307
  790MOL0     C 4205  10.293  11.010   6.258  1.3162 -0.7662  0.5487
  790MOL0     O 4206  10.412  11.074   6.220  0.7738 -0.0281  0.0894
  790MOL0     C 4207  10.536  11.016   6.247  0.3222  0.2686 -0.0554
  790MOL0     C 4208  10.649  11.080   6.161  0.4357  0.4158  0.4779
  790MOL0     C 4209  10.645  11.238   6.175 -1.0085 -0.3241 -0.2268
  790MOL0     C 4210  10.772  11.296   6.128 -0.5665 -0.3447 -0.0375
  790MOL0     C 4211  10.735  11.424   6.073 -0.2224 -0.9909 -0.8247
  790MOL0     C 4212  10.705  11.531   6.023 -1.3387 -0.4941 -0.6912
  790MOL0     C 4213  10.279  10.894   6.329  0.3103  0.5588  0.5576
  790MOL0     C 4214  10.155  10.839   6.355 -0.2095  0.0276 -0.9216
  790MOL0     H 4215   9.731  10.802   6.579  1.6522 -2.4877  2.5503
  790MOL0     H 4216   9.532  10.671   6.658  0.7409 -1.2960  2.5945
  790MOL0     H 4217   9.309  10.617   6.586  1.3018 -0.1096 -3.3480
  790MOL0     H 4218   9.400  10.525   6.713 -0.1097 -1.8290  0.1049
  790MOL0     H 4219   9.215  10.472   6.766  3.6920  0.0585  0.3055
  790MOL0     H 4220   9.253  10.338   6.664  1.7500  0.4234 -1.1629
  790MOL0     H 4221   9.103  10.447   6.476 -2.9904 -2.2340  0.4497
  790MOL0     H 4222   9.054  10.563   6.605  2.3226 -0.1579  2.5067
  790MOL0     H 4223   8.902  10.367   6.569 -1.1718 -0.7176  1.1838
  790MOL0     H 4224   9.034  10.256   6.580 -2.3099  0.6236 -1.9102
  790MOL0     H 4225   9.052  10.296   6.821 -2.4241 -1.9427  2.3428
  790MOL0     H 4226   8.886  10.243   6.784 -0.5884  0.0723  0.7931
  790MOL0     H 4227   8.805  10.478   6.778 -0.1041  0.2256 -0.9579
  790MOL0     H 4228   8.960  10.540   6.835  1.3975 -0.8486 -2.4088
  790MOL0     H 4229   8.797  10.314   6.953 -0.4431  0.5491 -4.8492
  790MOL0     H 4230   8.940  10.365   7.026  0.1069 -4.1654 -3.0283
  790MOL0     H 4231   8.687  10.534   6.988 -0.6429  0.6141  1.2304
  790MOL0     H 4232   8.836  10.608   7.048 -1.0368  0.4103  0.5580
  790MOL0     H 4233   8.581  10.343   7.152  0.2860 -3.7351 -0.2009
  790MOL0     H 4234   8.512  10.316   7.473  0.3428  0.6041 -0.3939
  790MOL0     H 4235   8.655  10.231   7.523 -0.9774  0.1813  0.8013
  790MOL0     H 4236   8.635  10.109   7.289 -3.3130 -2.4297 -1.7921
  790MOL0     H 4237   8.466  10.171   7.302  0.4828  0.1539  0.9937
  790MOL0     H 4238   8.611   9.969   7.473 -0.8728 -0.1900  2.2269
  790MOL0     H 4239   8.471  10.070   7.528  1.5597  1.3728 -0.4736
  790MOL0     H 4240   8.412   9.845   7.456 -0.8453  0.0892 -0.8704
  790MOL0     H 4241   8.452   9.879   7.284 -2.4975  0.2225 -1.0586
  790MOL0     H 4242   8.073  10.063   7.330  5.0903 -0.1860  0.1306
  790MOL0     H 4243   7.848   9.949   7.320 -0.1557  1.5117  2.1428
  790MOL0     H 4244   7.588   9.550   7.195  1.3977 -4.0432  4.6489
  790MOL0     H 4245   7.357   9.461   7.211 -3.3231  1.5891  1.0136
  790MOL0     H 4246   7.092   9.631   7.314  4.1641  0.1490  0.2159
  790MOL0     H 4247   7.087   9.645   7.488  0.8203  2.1686 -1.0145
  790MOL0     H 4248   6.984   9.430   7.504  2.8606 -0.1842 -0.2076
  790MOL0     H 4249   6.983   9.406   7.327 -0.7919 -0.0311  0.4963
  790MOL0     H 4250   6.861   9.606   7.286 -2.7903  3.8559  0.1719
  790MOL0     H 4251   6.850   9.633   7.463  1.2021 -2.8787  1.2859
  790MOL0     H 4252   6.733   9.390   7.322 -1.3908 -0.1991 -0.7326
  790MOL0     H 4253   6.749   9.413   7.489  2.3695 -1.0761 -0.6781
  790MOL0     H 4254   6.526   9.463   7.328 -0.4344 -0.0362 -1.3147
  790MOL0     H 4255   6.611   9.613   7.283 -2.6200  2.6812  1.6469
  790MOL0     H 4256   6.588   9.704   7.516  1.4626  0.4949 -2.9155
  790MOL0     H 4257   6.507   9.556   7.561  0.1366 -1.2487 -0.9845
  790MOL0     H 4258   6.417   9.757   7.347 -0.5498  2.1910  1.3372
  790MOL0     H 4259   6.342   9.595   7.372  1.7172 -1.3002 -0.6903
  790MOL0     H 4260   6.374   9.803   7.594 -1.8752  2.0193  0.2171
  790MOL0     H 4261   6.278   9.652   7.593 -1.3081  0.6928  1.3724
  790MOL0     H 4262   7.315   9.658   7.585  0.8064 -2.9366  0.8357
  790MOL0     H 4263   7.533   9.780   7.537 -0.8162  2.7776 -1.3312
  790MOL0     H 4264   8.053   9.584   7.362 -1.3131  0.5244  1.7476
  790MOL0     H 4265   8.276   9.698   7.402  0.4825  2.9418  2.5354
  790MOL0     H 4266   9.599  10.362   6.385  0.8533 -0.5107  0.4279
  790MOL0     H 4267   9.832  10.469   6.323 -0.0098 -0.0579  1.2420
  790MOL0     H 4268   9.960  11.077   6.198  2.5491  2.0820 -3.3435
  790MOL0     H 4269  10.180  11.170   6.166 -3.4083  3.2235  2.0982
  790MOL0     H 4270  10.524  10.915   6.209  0.8423  0.4167 -0.6248
  790MOL0     H 4271  10.557  11.028   6.354  1.2701  3.0607 -0.4498
  790MOL0     H 4272  10.747  11.042   6.192  1.3149  1.2634 -1.1491
  790MOL0     H 4273  10.622  11.054   6.059 -2.4631  1.7079  0.8095
  790MOL0     H 4274  10.625  11.264   6.279 -1.5256 -1.0436 -0.1387
  790MOL0     H 4275  10.553  11.272   6.126 -1.2358 -1.7370 -0.8417
  790MOL0     H 4276  10.851  11.285   6.203 -0.5673 -0.8113 -0.0979
  790MOL0     H 4277  10.805  11.234   6.045  1.1526  0.8143 -0.2632
  790MOL0     H 4278  10.678  11.626   5.982 -0.0584  0.1764 -0.0485
  790MOL0     H 4279  10.367  10.837   6.360 -0.7066 -0.8592  0.9558
  790MOL0     H 4280  10.149  10.749   6.416  1.3334  0.2904 -0.3554
  791MOL0     O 4281   0.422   9.420   0.547  0.4472  0.8778  0.5700
  791MOL0     C 4282   0.306   9.432   0.504  0.1827 -0.3949  0.6223
  791MOL0     O 4283   0.187   9.432   0.581 -0.2942  0.2717 -0.0065
  791MOL0     C 4284   0.178   9.433   0.714  1.0280 -0.1467 -0.2646
  791MOL0     C 4285   0.276   9.493   0.798 -0.2682  0.4394  0.5300
  791MOL0     C 4286   0.263   9.481   0.935 -0.2614 -0.2573 -0.6860
  791MOL0     C 4287   0.161   9.419   0.992 -0.2948  0.1822 -0.1343
  791MOL0     O 4288   0.148   9.395   1.131 -0.2559  0.1643  0.0006
  791MOL0     C 4289   0.243   9.434   1.227  0.6375 -0.2657  0.2154
  791MOL0     C 4290   0.189   9.416   1.368  0.6814  0.5186  0.4581
  791MOL0     C 4291   0.137   9.277   1.403  0.2827  0.2635  0.4820
  791MOL0     C 4292   0.111   9.259   1.552  0.4551 -1.3180 -0.7712
  791MOL0     C 4293   0.076   9.117   1.600  0.5054 -0.0244  0.3554
  791MOL0     C 4294  -0.008   9.111   1.730 -0.1927  0.1853 -0.3452
  791MOL0     C 4295  -0.153   9.131   1.685  0.8711  0.2839 -0.4202
  791MOL0     C 4296  -0.265   9.074   1.769  0.1671 -0.6555 -1.0103
  791MOL0     N 4297  -0.259   9.124   1.907  0.5407 -0.3812  1.0080
  791MOL0     C 4298  -0.314   9.242   1.966  0.2329  0.5035 -0.0234
  791MOL0     C 4299  -0.298   9.220   2.099  0.5794  0.9213 -0.6967
  791MOL0     C 4300  -0.338   9.322   2.211  0.1344 -0.1213  0.0040
  791MOL0     C 4301  -0.468   9.269   2.283  0.0677 -0.2232 -0.5369
  791MOL0     C 4302  -0.584   9.323   2.198  0.6082 -0.7201  0.3982
  791MOL0     C 4303  -0.721   9.278   2.250  0.4938  0.2660 -0.7363
  791MOL0     O 4304  -0.732   9.135   2.256 -0.1467  0.1835 -0.0806
  791MOL0     C 4305  -0.854   9.084   2.301  0.3114  0.5458  0.2076
  791MOL0     C 4306  -0.973   9.168   2.307  0.3354 -0.6492 -0.3127
  791MOL0     C 4307  -1.100   9.121   2.341 -0.1897 -0.2552 -0.1369
  791MOL0     C 4308  -1.109   8.983   2.392 -0.2676 -0.6973  1.2303
  791MOL0     C 4309  -1.236   8.925   2.419 -0.0079  0.3496  0.2745
  791MOL0     O 4310  -1.336   8.989   2.358 -0.9062 -0.3369  0.0227
  791MOL0     C 4311  -1.461   8.921   2.353  0.3589 -0.4935  0.9194
  791MOL0     C 4312  -1.552   8.899   2.463  0.2753 -0.3198  0.9879
  791MOL0     C 4313  -1.680   8.848   2.436 -0.0762 -0.5058  0.8328
  791MOL0     C 4314  -1.713   8.814   2.301  0.6889 -0.5709  0.1074
  791MOL0     O 4315  -1.844   8.789   2.281 -0.2572 -0.3088 -0.3463
  791MOL0     C 4316  -1.896   8.679   2.347 -0.4260 -0.2452  0.0622
  791MOL0     C 4317  -2.030   8.710   2.400 -1.4333 -0.0741 -0.1364
  791MOL0     C 4318  -2.150   8.703   2.306 -0.0562  0.4954 -0.2761
  791MOL0     C 4319  -2.274   8.732   2.390 -0.1493 -0.3172 -0.4638
  791MOL0     C 4320  -2.409   8.693   2.319 -0.7002 -0.1419 -0.5506
  791MOL0     C 4321  -2.426   8.544   2.294  0.6837  0.0728 -0.8554
  791MOL0     C 4322  -2.579   8.511   2.292  0.5448  0.2370  0.1039
  791MOL0     C 4323  -2.651   8.555   2.167 -0.3249  0.4223  0.3073
  791MOL0    Cl 4324  -2.819   8.505   2.171  0.2699 -0.3810  0.0709
  791MOL0     C 4325  -1.640   8.851   2.198 -0.1481 -0.9774 -0.0507
  791MOL0     C 4326  -1.508   8.906   2.222 -0.2730  0.2843  0.0025
  791MOL0     O 4327  -1.250   8.830   2.495  0.0235 -0.9606 -0.4592
  791MOL0     C 4328  -0.987   8.907   2.400 -1.0950  0.9520 -0.4232
  791MOL0     C 4329  -0.867   8.959   2.362 -0.0388  0.3236 -0.4827
  791MOL0     N 4330  -0.221   9.112   2.122 -0.0422  0.2411 -0.0259
  791MOL0     N 4331  -0.188   9.061   2.009  0.3106  0.3077 -0.1900
  791MOL0     C 4332   0.057   9.365   0.910  0.4828 -0.2013 -0.2657
  791MOL0     C 4333   0.066   9.373   0.771  0.0519 -0.5593 -0.6030
  791MOL0     C 4334   0.295   9.468   0.360 -0.1693 -0.3869 -0.2838
  791MOL0     C 4335   0.404   9.526   0.286 -0.1192 -0.1707 -0.4336
  791MOL0     C 4336   0.380   9.583   0.160  0.5473  0.4434 -0.1929
  791MOL0     C 4337   0.242   9.588   0.112 -0.1810  0.0561  0.0787
  791MOL0     O 4338   0.194   9.641  -0.009  0.3889  0.3774  0.3491
  791MOL0     C 4339   0.292   9.658  -0.109  0.1023  0.1875  1.0795
  791MOL0     C 4340   0.228   9.739  -0.222  0.5273 -0.4091  0.3182
  791MOL0     C 4341   0.146   9.857  -0.174  0.4431 -0.2612  0.5079
  791MOL0     C 4342   0.071   9.928  -0.288  0.4181  0.3363 -0.3808
  791MOL0     C 4343  -0.030  10.010  -0.210 -0.0309  0.7270  0.4940
  791MOL0     C 4344  -0.102  10.063  -0.137 -1.4979  0.9210  0.0249
  791MOL0     C 4345   0.139   9.538   0.191 -0.4046 -0.3304 -0.2202
  791MOL0     C 4346   0.166   9.486   0.317  0.0349 -0.0315 -0.3955
  791MOL0     H 4347   0.363   9.542   0.756 -0.4383 -0.8318 -1.4478
  791MOL0     H 4348   0.345   9.519   0.996  0.7890 -1.0043 -1.6014
  791MOL0     H 4349   0.264   9.542   1.224 -1.8700  0.3189  1.2072
  791MOL0     H 4350   0.332   9.370   1.221  0.6133 -0.3428  0.6165
  791MOL0     H 4351   0.109   9.491   1.376  1.1765  0.9357  1.6824
  791MOL0     H 4352   0.255   9.446   1.450  0.0232  0.0212  1.1809
  791MOL0     H 4353   0.215   9.203   1.381  0.5694  0.4018  1.0251
  791MOL0     H 4354   0.060   9.230   1.341  3.3217  0.8850 -4.3218
  791MOL0     H 4355   0.197   9.285   1.614 -1.0913 -2.0163  1.8058
  791MOL0     H 4356   0.032   9.325   1.590  0.1699 -1.0679 -1.7578
  791MOL0     H 4357   0.174   9.070   1.616  1.0234  0.4692 -1.1311
  791MOL0     H 4358   0.031   9.058   1.519  0.0122 -0.3019  0.8300
  791MOL0     H 4359   0.020   9.178   1.812  0.6391  1.5486 -1.6876
  791MOL0     H 4360   0.005   9.010   1.769  2.6272 -0.6177 -2.9743
  791MOL0     H 4361  -0.183   9.236   1.678 -2.4505 -0.6864 -3.8204
  791MOL0     H 4362  -0.162   9.081   1.588  1.4203 -0.5045 -0.0784
  791MOL0     H 4363  -0.270   8.965   1.770 -1.2064 -0.7150 -3.9081
  791MOL0     H 4364  -0.358   9.108   1.724 -0.1015  0.0587  0.0498
  791MOL0     H 4365  -0.366   9.324   1.918 -1.2040 -0.2707  0.1537
  791MOL0     H 4366  -0.359   9.424   2.178 -2.9756 -0.0410  1.8472
  791MOL0     H 4367  -0.252   9.333   2.277 -1.0872  0.1555  1.6216
  791MOL0     H 4368  -0.472   9.305   2.386 -0.0148  0.2377 -0.6982
  791MOL0     H 4369  -0.475   9.160   2.287 -2.3740 -0.0999  0.0006
  791MOL0     H 4370  -0.586   9.433   2.197  3.4377 -0.4687  3.6306
  791MOL0     H 4371  -0.567   9.273   2.103  0.5892 -0.4331  0.2438
  791MOL0     H 4372  -0.799   9.327   2.192 -1.2057  1.3526  2.2219
  791MOL0     H 4373  -0.740   9.320   2.350 -1.8628  0.4439 -1.2143
  791MOL0     H 4374  -0.976   9.272   2.277 -1.7112 -0.9788 -1.4748
  791MOL0     H 4375  -1.183   9.190   2.336 -0.4975 -0.5824  0.3248
  791MOL0     H 4376  -1.508   8.924   2.559 -0.0739 -0.0647  1.0839
  791MOL0     H 4377  -1.748   8.841   2.521 -0.9586  1.7462  0.3844
  791MOL0     H 4378  -1.836   8.650   2.433 -0.3310 -0.3817 -0.0503
  791MOL0     H 4379  -1.898   8.594   2.278 -1.4262  0.8815 -1.3631
  791MOL0     H 4380  -2.034   8.803   2.458 -2.2610  0.2931 -0.7683
  791MOL0     H 4381  -2.044   8.646   2.488 -0.9761  3.1397  2.5101
  791MOL0     H 4382  -2.161   8.603   2.263 -1.4587  0.5534 -0.0997
  791MOL0     H 4383  -2.128   8.776   2.228  2.7807  1.5376  1.3588
  791MOL0     H 4384  -2.262   8.681   2.486  0.3367 -0.2891 -0.5085
  791MOL0     H 4385  -2.277   8.840   2.403  1.3461 -0.3104  0.0163
  791MOL0     H 4386  -2.433   8.759   2.235 -3.6996  0.5080  0.6986
  791MOL0     H 4387  -2.487   8.715   2.392 -2.7351  0.7644 -2.8236
  791MOL0     H 4388  -2.395   8.484   2.380 -0.8999 -1.0439 -1.0309
  791MOL0     H 4389  -2.383   8.497   2.205  1.4818 -1.3652  0.2498
  791MOL0     H 4390  -2.598   8.405   2.309  1.2369  0.5107  3.1719
  791MOL0     H 4391  -2.627   8.552   2.381  2.4316 -2.0670  2.3291
  791MOL0     H 4392  -2.611   8.514   2.074 -0.8718  2.7537 -1.0323
  791MOL0     H 4393  -2.652   8.664   2.154 -0.0879  0.4864  0.8058
  791MOL0     H 4394  -1.680   8.840   2.098  0.5406 -1.1700 -0.3143
  791MOL0     H 4395  -1.446   8.937   2.139 -1.8349 -0.1188 -1.3654
  791MOL0     H 4396  -0.986   8.801   2.421 -0.2928  0.8359 -0.9882
  791MOL0     H 4397  -0.774   8.906   2.378  0.5756  1.6544  0.6512
  791MOL0     H 4398  -0.028   9.310   0.948 -0.4264  0.5207 -1.1824
  791MOL0     H 4399  -0.004   9.316   0.711 -0.0460  1.7398 -2.8467
  791MOL0     H 4400   0.505   9.540   0.325 -0.4409 -0.9190  0.7476
  791MOL0     H 4401   0.462   9.613   0.097  0.6245 -0.6728 -0.6513
  791MOL0     H 4402   0.317   9.559  -0.150 -1.7206  0.2167 -0.2229
  791MOL0     H 4403   0.377   9.719  -0.076 -0.0303  1.5022 -0.8171
  791MOL0     H 4404   0.306   9.781  -0.286  0.4531 -1.8595 -0.7663
  791MOL0     H 4405   0.165   9.672  -0.282 -2.5757  2.4185  0.1128
  791MOL0     H 4406   0.217   9.925  -0.128 -0.2861 -0.0107  1.2862
  791MOL0     H 4407   0.063   9.821  -0.111 -2.0145  2.5131 -0.8974
  791MOL0     H 4408   0.135   9.996  -0.345 -1.4296  3.0642  0.6160
  791MOL0     H 4409   0.026   9.861  -0.362  2.3356  1.3180 -2.5584
  791MOL0     H 4410  -0.155  10.120  -0.063 -2.3885  2.6401 -1.8293
  791MOL0     H 4411   0.034   9.547   0.163 -0.4881  0.3133  0.2698
  791MOL0     H 4412   0.072   9.465   0.367  0.9062 -0.7053  1.0280
  792MOL0     O 4413   6.816   4.080   3.759  0.2548  0.5532 -0.1575
  792MOL0     C 4414   6.896   4.168   3.795 -0.4589 -0.0745  0.3080
  792MOL0     O 4415   6.858   4.285   3.840 -0.5539 -0.1717 -0.2877
  792MOL0     C 4416   6.727   4.302   3.889  0.8588  0.6534  0.1603
  792MOL0     C 4417   6.606   4.284   3.809 -0.6787 -0.2901  0.0084
  792MOL0     C 4418   6.478   4.309   3.861  0.4146  0.0984 -0.5966
  792MOL0     C 4419   6.460   4.364   3.983 -1.5346  0.7863 -0.1241
  792MOL0     O 4420   6.328   4.391   4.016 -0.3611  0.1666  0.4182
  792MOL0     C 4421   6.293   4.439   4.143 -0.2673  0.1040 -0.3099
  792MOL0     C 4422   6.148   4.475   4.154 -0.5879 -0.0642 -0.2965
  792MOL0     C 4423   6.051   4.366   4.104  0.8828 -0.1140 -0.8259
  792MOL0     C 4424   5.908   4.401   4.125  0.6551  0.5669  0.0333
  792MOL0     C 4425   5.863   4.541   4.074 -0.8025 -0.1605  0.6270
  792MOL0     C 4426   5.715   4.555   4.040 -0.0291 -0.4217 -0.8010
  792MOL0     C 4427   5.671   4.704   4.017 -0.2276 -0.0499 -0.7105
  792MOL0     C 4428   5.518   4.703   3.980 -0.3342  0.0464 -0.1350
  792MOL0     N 4429   5.456   4.841   3.999  1.3311 -0.6765 -0.2742
  792MOL0     C 4430   5.427   4.899   4.119 -0.0881  0.6194  0.2478
  792MOL0     C 4431   5.344   5.008   4.086 -0.6898  0.4560 -0.1132
  792MOL0     C 4432   5.281   5.111   4.168 -0.0911  0.6849  0.1608
  792MOL0     C 4433   5.129   5.089   4.183 -0.3134 -0.1837  0.3403
  792MOL0     C 4434   5.052   5.144   4.065 -0.2495  0.6624  0.3746
  792MOL0     C 4435   4.898   5.150   4.092 -0.6749 -0.4192  0.3917
  792MOL0     O 4436   4.861   5.290   4.122  0.2236  0.1710 -0.9371
  792MOL0     C 4437   4.725   5.307   4.118  0.2392 -0.3078 -0.3814
  792MOL0     C 4438   4.658   5.327   4.234 -0.7561  0.2196  0.8648
  792MOL0     C 4439   4.517   5.346   4.228  1.3189 -0.0630 -0.5678
  792MOL0     C 4440   4.451   5.358   4.101  1.0193  0.3513 -0.3229
  792MOL0     C 4441   4.300   5.388   4.081 -0.4159 -0.4962  1.3436
  792MOL0     O 4442   4.219   5.389   4.186 -0.1607  0.1029  0.1328
  792MOL0     C 4443   4.093   5.440   4.200 -0.0933 -0.2023  0.7955
  792MOL0     C 4444   4.031   5.534   4.119  0.2174 -0.0737 -0.2781
  792MOL0     C 4445   3.892   5.560   4.125 -0.5396  0.8017  1.2635
  792MOL0     C 4446   3.815   5.507   4.226  0.1948 -0.2316  0.9417
  792MOL0     O 4447   3.675   5.512   4.216  0.0060 -0.1437  0.4407
  792MOL0     C 4448   3.604   5.550   4.337 -0.5029  0.2238  0.4890
  792MOL0     C 4449   3.483   5.633   4.305 -0.4852 -0.5446 -0.8854
  792MOL0     C 4450   3.350   5.552   4.303  0.8458 -0.4692  0.5423
  792MOL0     C 4451   3.235   5.654   4.272 -0.2968  0.6860 -0.9827
  792MOL0     C 4452   3.114   5.595   4.208  0.0352  0.2253 -0.3079
  792MOL0     C 4453   2.998   5.690   4.219  0.2343 -0.4815 -0.9965
  792MOL0     C 4454   2.866   5.662   4.150 -1.0839  0.5675 -0.1851
  792MOL0     C 4455   2.774   5.783   4.130 -0.3770  0.1777  1.2339
  792MOL0    Cl 4456   2.650   5.811   4.260 -0.4072 -0.1817  0.3619
  792MOL0     C 4457   3.880   5.430   4.327  0.6345 -1.4355  0.5271
  792MOL0     C 4458   4.012   5.388   4.310 -0.8479  0.1408  0.1712
  792MOL0     O 4459   4.280   5.435   3.974  0.1889  0.1287 -0.2965
  792MOL0     C 4460   4.530   5.330   3.985  0.3176  0.1729  0.6732
  792MOL0     C 4461   4.667   5.309   3.992  0.2161  0.7183  0.1407
  792MOL0     N 4462   5.328   5.005   3.948 -0.3405  0.1892 -0.4372
  792MOL0     N 4463   5.381   4.900   3.898 -1.1348  0.1777  0.5033
  792MOL0     C 4464   6.575   4.394   4.060  1.2693  0.1006  0.4567
  792MOL0     C 4465   6.707   4.361   4.017  0.7551 -0.3813  0.7817
  792MOL0     C 4466   7.033   4.122   3.787 -0.0614  0.3390  0.7301
  792MOL0     C 4467   7.067   3.992   3.828 -0.4279 -0.9905 -0.3964
  792MOL0     C 4468   7.200   3.953   3.820 -0.5141  0.4443  1.5499
  792MOL0     C 4469   7.293   4.031   3.752  0.5137 -0.7995 -0.3810
  792MOL0     O 4470   7.419   3.976   3.733  0.3022  0.2154 -0.5221
  792MOL0     C 4471   7.480   4.017   3.620 -0.0965  0.0851  0.4585
  792MOL0     C 4472   7.583   3.903   3.589 -0.3649  0.7633  1.1986
  792MOL0     C 4473   7.688   3.897   3.709 -0.3826  0.3719  0.2059
  792MOL0     C 4474   7.806   3.804   3.684  0.0433 -0.2482 -0.3295
  792MOL0     C 4475   7.884   3.791   3.802 -0.7914 -0.5457 -0.0977
  792MOL0     C 4476   7.954   3.782   3.900  0.2000  0.1742 -0.0369
  792MOL0     C 4477   7.256   4.161   3.725  0.3973 -1.1404 -0.2996
  792MOL0     C 4478   7.130   4.205   3.734  0.1444  0.0253  0.1747
  792MOL0     H 4479   6.626   4.254   3.707  1.6951  0.6355  0.1227
  792MOL0     H 4480   6.387   4.301   3.803  0.4214  2.1584 -0.9955
  792MOL0     H 4481   6.355   4.529   4.149 -0.9092  0.7473 -2.5670
  792MOL0     H 4482   6.314   4.361   4.217  0.0758 -2.9156 -3.3396
  792MOL0     H 4483   6.144   4.564   4.090  1.7155 -0.7292 -1.5029
  792MOL0     H 4484   6.117   4.498   4.256  0.1170 -0.1719 -0.0516
  792MOL0     H 4485   6.069   4.274   4.159 -1.4973  1.0400  2.2084
  792MOL0     H 4486   6.065   4.346   3.997  2.5811 -1.0656 -0.4507
  792MOL0     H 4487   5.845   4.337   4.064 -0.7185  2.5499 -0.7468
  792MOL0     H 4488   5.875   4.373   4.226  0.9691  3.9391  1.2142
  792MOL0     H 4489   5.922   4.556   3.983 -2.1514  0.7325 -0.1376
  792MOL0     H 4490   5.882   4.623   4.144 -1.6366 -0.6411  1.4188
  792MOL0     H 4491   5.670   4.520   4.133  1.4166  0.2945  0.1875
  792MOL0     H 4492   5.681   4.479   3.969  3.8610 -2.1554 -1.0749
  792MOL0     H 4493   5.695   4.768   4.103  1.6032  0.3229 -1.4529
  792MOL0     H 4494   5.737   4.736   3.936  1.1245  2.6316  1.2719
  792MOL0     H 4495   5.463   4.636   4.046 -0.4536  0.7920  0.5441
  792MOL0     H 4496   5.508   4.671   3.876 -1.6843  0.6678 -0.2290
  792MOL0     H 4497   5.454   4.860   4.217 -0.9291 -2.6598 -0.7094
  792MOL0     H 4498   5.307   5.209   4.128 -1.4230 -0.5880 -4.4101
  792MOL0     H 4499   5.343   5.109   4.258  6.2196 -1.2476 -3.6451
  792MOL0     H 4500   5.094   5.139   4.274  1.0109 -2.2215  2.0916
  792MOL0     H 4501   5.109   4.982   4.193 -2.2160 -0.4394 -3.9901
  792MOL0     H 4502   5.088   5.243   4.035  1.8998 -0.0701  0.3341
  792MOL0     H 4503   5.075   5.085   3.976  0.8765  0.8404  0.5314
  792MOL0     H 4504   4.868   5.093   4.181 -3.1194 -0.5047 -0.4134
  792MOL0     H 4505   4.853   5.107   4.002 -1.0500  1.1394 -0.1924
  792MOL0     H 4506   4.708   5.315   4.330  0.8778  0.9011  0.1283
  792MOL0     H 4507   4.462   5.356   4.321  1.2108  0.7860 -0.7135
  792MOL0     H 4508   4.097   5.587   4.051 -1.0446  0.4770 -1.1220
  792MOL0     H 4509   3.842   5.623   4.053 -0.6493 -0.0330  0.5958
  792MOL0     H 4510   3.675   5.602   4.403 -0.1242 -1.3661  1.3966
  792MOL0     H 4511   3.577   5.456   4.387  1.1438  0.4719  1.9693
  792MOL0     H 4512   3.496   5.684   4.209  0.8565 -0.1495 -0.5127
  792MOL0     H 4513   3.469   5.704   4.386 -1.7973 -3.5362  1.7365
  792MOL0     H 4514   3.346   5.497   4.398  1.5809 -2.1845 -0.3762
  792MOL0     H 4515   3.358   5.470   4.230 -0.8598 -0.0970 -0.0945
  792MOL0     H 4516   3.212   5.690   4.373  1.8005  3.0828 -1.2641
  792MOL0     H 4517   3.275   5.746   4.230  3.0796  0.0636  0.4805
  792MOL0     H 4518   3.099   5.496   4.251  2.7124  0.1291  0.5594
  792MOL0     H 4519   3.142   5.582   4.103  0.8963 -0.4475 -0.0052
  792MOL0     H 4520   3.028   5.791   4.192 -0.1083  0.9314  3.1861
  792MOL0     H 4521   2.986   5.695   4.328  2.1877  3.7550 -0.8008
  792MOL0     H 4522   2.887   5.623   4.050 -1.7033  1.6928 -0.7677
  792MOL0     H 4523   2.807   5.590   4.208 -2.6427 -0.4313 -2.8262
  792MOL0     H 4524   2.713   5.760   4.042  0.0859 -1.7060  1.3580
  792MOL0     H 4525   2.840   5.868   4.109  2.3030 -1.2954  3.1362
  792MOL0     H 4526   3.821   5.401   4.413  0.7066  0.3394  1.2077
  792MOL0     H 4527   4.058   5.318   4.378 -2.1090 -1.5357 -0.6216
  792MOL0     H 4528   4.487   5.311   3.887  1.8236  1.2523 -0.2501
  792MOL0     H 4529   4.717   5.296   3.897  2.2124  2.4910  0.8637
  792MOL0     H 4530   6.550   4.448   4.151 -2.5717  1.3001 -1.1110
  792MOL0     H 4531   6.795   4.394   4.071  0.5506  1.3554  0.1232
  792MOL0     H 4532   6.987   3.929   3.866 -1.0019 -0.1034 -0.0871
  792MOL0     H 4533   7.226   3.851   3.846  0.6866 -0.1758 -1.6512
  792MOL0     H 4534   7.526   4.114   3.637  0.6709 -0.1977  0.0455
  792MOL0     H 4535   7.408   4.012   3.538 -1.6125 -1.3686  1.7888
  792MOL0     H 4536   7.538   3.807   3.563 -0.6810  1.1489  0.2799
  792MOL0     H 4537   7.632   3.937   3.497  0.0789  0.4475  1.3168
  792MOL0     H 4538   7.637   3.876   3.803 -2.3319  0.0620 -0.8748
  792MOL0     H 4539   7.732   3.997   3.715 -0.6778  0.4426  1.4235
  792MOL0     H 4540   7.775   3.709   3.639  1.5227 -1.0692  0.3307
  792MOL0     H 4541   7.864   3.848   3.602  0.0733 -1.8013 -1.1727
  792MOL0     H 4542   8.011   3.799   3.989  1.4629  2.2681 -1.1567
  792MOL0     H 4543   7.328   4.238   3.699 -0.0916  0.3831  2.4803
  792MOL0     H 4544   7.108   4.305   3.699 -2.8669 -1.1989 -1.8706
  793MOL0     O 4545   7.938   0.536   9.799  0.3254 -0.2951  0.2289
  793MOL0     C 4546   7.990   0.639   9.848 -0.6850  0.7163  0.4975
  793MOL0     O 4547   7.921   0.749   9.892 -0.9471 -0.2532 -0.0225
  793MOL0     C 4548   7.790   0.776   9.857 -0.1003  0.8847  0.8341
  793MOL0     C 4549   7.736   0.894   9.906 -0.6103  0.4906 -0.1500
  793MOL0     C 4550   7.613   0.945   9.882  0.4718  0.2161  0.6279
  793MOL0     C 4551   7.532   0.877   9.786  0.6883 -0.3672 -0.6745
  793MOL0     O 4552   7.400   0.913   9.755  0.0570  0.3806 -0.4249
  793MOL0     C 4553   7.369   1.046   9.731 -0.1351 -0.6810 -0.6803
  793MOL0     C 4554   7.256   1.068   9.630  0.6799  0.5513  0.1930
  793MOL0     C 4555   7.144   0.965   9.648 -0.0538 -0.6194  0.2748
  793MOL0     C 4556   7.027   0.995   9.555  1.1964 -0.0136 -0.2786
  793MOL0     C 4557   6.889   0.967   9.621 -0.0476  0.3853 -0.3448
  793MOL0     C 4558   6.868   0.825   9.655 -0.4141 -0.0935  0.2007
  793MOL0     C 4559   6.778   0.806   9.775 -0.7968 -0.0731 -0.0495
  793MOL0     C 4560   6.632   0.859   9.771 -1.0074  0.2563  1.0124
  793MOL0     N 4561   6.560   0.807   9.657 -0.1431 -0.2719 -0.2360
  793MOL0     C 4562   6.467   0.714   9.659  0.1662  0.2828 -0.6029
  793MOL0     C 4563   6.411   0.724   9.536  0.3306 -0.2321  0.5139
  793MOL0     C 4564   6.307   0.635   9.485 -0.4477  0.0516 -0.2903
  793MOL0     C 4565   6.158   0.676   9.526  0.1408  0.5266  0.2637
  793MOL0     C 4566   6.035   0.591   9.492  0.4396  0.1324  0.5177
  793MOL0     C 4567   6.047   0.466   9.577  0.3017 -0.1583 -1.2456
  793MOL0     O 4568   6.010   0.500   9.715 -0.1725 -0.1055  0.1532
  793MOL0     C 4569   5.878   0.494   9.758  0.3527  0.7766  0.1329
  793MOL0     C 4570   5.772   0.474   9.671 -0.2425 -0.2755 -0.7234
  793MOL0     C 4571   5.640   0.479   9.728 -0.2123 -0.1541  0.0193
  793MOL0     C 4572   5.625   0.493   9.865 -0.4196 -0.0960 -0.0343
  793MOL0     C 4573   5.490   0.489   9.921 -0.5137  0.1314 -0.2561
  793MOL0     O 4574   5.387   0.519   9.841  0.2353  0.1991 -0.5179
  793MOL0     C 4575   5.259   0.510   9.897  0.2223 -0.8084  0.7090
  793MOL0     C 4576   5.205   0.395   9.950 -0.6548 -0.1554  0.1662
  793MOL0     C 4577   5.071   0.374   9.981 -0.3276  0.1509 -0.1883
  793MOL0     C 4578   4.983   0.488   9.964 -0.7438  0.3384  0.6550
  793MOL0     O 4579   4.859   0.488  10.016  0.2947  0.8023  0.0811
  793MOL0     C 4580   4.780   0.363  10.034 -0.4437  0.1874  0.4205
  793MOL0     C 4581   4.783   0.303  10.174 -0.2140  0.2437  0.1784
  793MOL0     C 4582   4.769   0.401  10.289 -0.1611  0.0135  0.1470
  793MOL0     C 4583   4.739   0.322  10.420 -0.1593  0.3532 -0.7720
  793MOL0     C 4584   4.708   0.422  10.534  0.1695  0.5774  0.6072
  793MOL0     C 4585   4.629   0.358  10.647  0.3297  0.1028 -0.6251
  793MOL0     C 4586   4.614   0.457  10.773  0.1062  0.3035 -0.5782
  793MOL0     C 4587   4.478   0.455  10.844 -0.3460 -0.4260  0.6023
  793MOL0    Cl 4588   4.478   0.564  10.987  0.0238  0.0635  0.0081
  793MOL0     C 4589   5.040   0.607   9.919 -0.0138  0.6435 -0.0038
  793MOL0     C 4590   5.168   0.617   9.874 -0.3318 -0.3300 -0.1863
  793MOL0     O 4591   5.475   0.457  10.041 -0.4411  0.0341  1.1961
  793MOL0     C 4592   5.733   0.492   9.952  0.0961  0.2933  0.2199
  793MOL0     C 4593   5.857   0.513   9.893  0.4612 -0.5113 -0.6580
  793MOL0     N 4594   6.473   0.822   9.463 -0.3488 -1.0074  0.3581
  793MOL0     N 4595   6.561   0.877   9.541  0.9179 -0.1670 -0.0756
  793MOL0     C 4596   7.580   0.762   9.731  0.4109  0.2313 -0.4700
  793MOL0     C 4597   7.707   0.714   9.764 -0.9145 -0.2885  0.5944
  793MOL0     C 4598   8.138   0.636   9.862  0.4498  0.1196 -0.6025
  793MOL0     C 4599   8.209   0.756   9.880  0.6640 -0.5312 -0.0687
  793MOL0     C 4600   8.341   0.757   9.898 -0.1698 -0.1976  0.0183
  793MOL0     C 4601   8.415   0.638   9.878 -0.7745 -0.6426 -0.3502
  793MOL0     O 4602   8.541   0.664   9.833  0.0759  0.2194  0.7791
  793MOL0     C 4603   8.603   0.576   9.737  0.5168  0.3828 -0.5337
  793MOL0     C 4604   8.684   0.481   9.822 -0.4705 -0.6900  0.4854
  793MOL0     C 4605   8.765   0.392   9.725  0.8950  0.5593 -0.2921
  793MOL0     C 4606   8.854   0.291   9.801  0.3644  0.3239  0.0833
  793MOL0     C 4607   8.966   0.362   9.851 -0.0281 -0.6984 -0.2796
  793MOL0     C 4608   9.064   0.424   9.888 -0.5801 -0.0916  0.0132
  793MOL0     C 4609   8.348   0.518   9.863  0.7654 -0.2393  0.9260
  793MOL0     C 4610   8.210   0.520   9.860  0.1426  0.7170 -0.3492
  793MOL0     H 4611   7.791   0.943   9.985 -3.0978  1.5424  1.0463
  793MOL0     H 4612   7.568   1.023   9.942  1.1926  1.6728 -0.6576
  793MOL0     H 4613   7.459   1.102   9.704 -1.2961  0.8440 -1.5055
  793MOL0     H 4614   7.337   1.088   9.827 -0.2803  1.4302 -1.6006
  793MOL0     H 4615   7.294   1.058   9.527 -0.5329 -0.0495 -0.2134
  793MOL0     H 4616   7.222   1.171   9.642 -0.2748  0.0204  2.5356
  793MOL0     H 4617   7.121   0.959   9.755  1.4506 -1.6306  0.5782
  793MOL0     H 4618   7.181   0.863   9.632  0.6220  0.0320 -3.1848
  793MOL0     H 4619   7.028   1.100   9.526 -0.0100 -1.0068 -4.4815
  793MOL0     H 4620   7.019   0.945   9.458 -2.4399  2.3356 -1.3731
  793MOL0     H 4621   6.808   1.007   9.560  1.7061  2.3595 -1.5007
  793MOL0     H 4622   6.880   1.033   9.708 -1.6645  3.1962 -2.4761
  793MOL0     H 4623   6.961   0.778   9.685  0.1143 -0.1998 -1.5087
  793MOL0     H 4624   6.815   0.782   9.569  2.0884 -3.1618  0.0254
  793MOL0     H 4625   6.768   0.699   9.795 -2.2363  0.0207 -0.1610
  793MOL0     H 4626   6.835   0.837   9.863  1.0257 -0.8757 -0.8933
  793MOL0     H 4627   6.635   0.968   9.763 -0.5130  0.1360 -0.8231
  793MOL0     H 4628   6.582   0.826   9.863 -1.9595 -3.0328 -0.5201
  793MOL0     H 4629   6.437   0.645   9.738 -1.1254  1.3058 -0.1683
  793MOL0     H 4630   6.335   0.541   9.533  0.2200  0.6372  0.4870
  793MOL0     H 4631   6.325   0.604   9.381 -2.1133 -2.0839 -0.0145
  793MOL0     H 4632   6.153   0.774   9.477  2.7883  0.9138  0.6033
  793MOL0     H 4633   6.155   0.695   9.633 -0.8244  0.1718  0.3055
  793MOL0     H 4634   5.945   0.648   9.514  1.0644  1.4565 -0.1881
  793MOL0     H 4635   6.041   0.569   9.385  0.3253  1.5463  0.2017
  793MOL0     H 4636   6.153   0.438   9.584  1.0241  2.2316 -1.6029
  793MOL0     H 4637   5.983   0.386   9.539  0.4191  0.6703 -3.3417
  793MOL0     H 4638   5.794   0.452   9.567 -0.8679 -3.6559 -0.2373
  793MOL0     H 4639   5.547   0.462   9.674 -1.8576  3.1354  1.5259
  793MOL0     H 4640   5.283   0.323   9.969  1.1679  1.4158 -0.9990
  793MOL0     H 4641   5.035   0.278  10.015  0.4360 -0.5791 -1.3631
  793MOL0     H 4642   4.811   0.284   9.964  0.4680 -1.1082  2.1761
  793MOL0     H 4643   4.676   0.387  10.013 -0.3170  3.5302  2.8190
  793MOL0     H 4644   4.877   0.252  10.193 -1.0998 -2.1150 -1.3360
  793MOL0     H 4645   4.701   0.231  10.173  0.9049 -1.0681  0.9404
  793MOL0     H 4646   4.690   0.475  10.277  0.2650  0.7760  1.8645
  793MOL0     H 4647   4.859   0.462  10.304 -0.8025  1.0689 -0.2028
  793MOL0     H 4648   4.657   0.250  10.412  0.2138 -0.7846  3.4978
  793MOL0     H 4649   4.829   0.270  10.455  0.5391  0.2024 -2.6555
  793MOL0     H 4650   4.647   0.505  10.498 -1.7062 -0.7680  0.5177
  793MOL0     H 4651   4.806   0.452  10.574  0.3600 -0.7571  1.2126
  793MOL0     H 4652   4.671   0.262  10.678 -0.4920 -0.1694 -0.3322
  793MOL0     H 4653   4.527   0.336  10.616  0.1118  1.1424 -0.6619
  793MOL0     H 4654   4.697   0.448  10.843 -0.3683  1.3794  0.1504
  793MOL0     H 4655   4.624   0.563  10.750  1.5746  0.0491 -1.1810
  793MOL0     H 4656   4.463   0.351  10.874 -1.4934  0.6377  4.1700
  793MOL0     H 4657   4.394   0.481  10.779 -0.2146  1.8709  1.2607
  793MOL0     H 4658   4.973   0.693   9.923  0.3363  1.0153 -1.5467
  793MOL0     H 4659   5.202   0.711   9.833  2.2396 -0.8822  0.4947
  793MOL0     H 4660   5.732   0.498  10.061 -0.5570  0.6931  0.1942
  793MOL0     H 4661   5.940   0.528   9.961  0.2857 -0.7786 -0.3821
  793MOL0     H 4662   7.519   0.719   9.653 -0.0646 -0.4733  0.2837
  793MOL0     H 4663   7.734   0.624   9.711  2.7884  0.5715  0.7345
  793MOL0     H 4664   8.149   0.847   9.889 -0.4559 -1.2001 -0.5110
  793MOL0     H 4665   8.393   0.845   9.937 -0.4516 -1.0093  2.4202
  793MOL0     H 4666   8.666   0.639   9.673 -0.9268  2.2951 -0.1711
  793MOL0     H 4667   8.538   0.534   9.659  2.6582 -0.7516 -1.8024
  793MOL0     H 4668   8.734   0.542   9.897 -1.1268  2.4476 -1.4302
  793MOL0     H 4669   8.619   0.413   9.877 -0.4877 -1.6006 -0.6032
  793MOL0     H 4670   8.821   0.449   9.650  0.3715  3.3201  1.2958
  793MOL0     H 4671   8.684   0.345   9.669  0.8031  0.3673  0.0025
  793MOL0     H 4672   8.803   0.224   9.870 -0.6283 -0.3544 -1.2632
  793MOL0     H 4673   8.894   0.220   9.729  2.8081  1.7325 -0.0925
  793MOL0     H 4674   9.157   0.472   9.909  0.1282 -0.9048 -1.1499
  793MOL0     H 4675   8.407   0.427   9.851  2.7709  1.0148  0.8310
  793MOL0     H 4676   8.160   0.424   9.849  2.7226 -0.8111  0.5017
  794MOL0     O 4677   8.020   7.946   2.866  0.1380  0.5357 -0.9309
  794MOL0     C 4678   8.059   7.904   2.976 -0.1862  0.0218  0.3473
  794MOL0     O 4679   7.984   7.812   3.050  0.3277 -0.0019  0.1658
  794MOL0     C 4680   7.847   7.771   3.029 -0.3512  0.2138  0.4998
  794MOL0     C 4681   7.757   7.769   3.136  0.6136 -0.9209  0.7069
  794MOL0     C 4682   7.625   7.739   3.112  0.7403 -0.4103 -0.1320
  794MOL0     C 4683   7.575   7.683   2.994 -0.9796  0.8541 -0.1306
  794MOL0     O 4684   7.440   7.647   2.975  0.0620 -0.1128  0.4344
  794MOL0     C 4685   7.397   7.619   2.841 -0.1284 -0.1376  0.0334
  794MOL0     C 4686   7.252   7.558   2.843 -0.7027  0.5138  0.2438
  794MOL0     C 4687   7.148   7.665   2.797 -0.7126 -0.0134 -0.4469
  794MOL0     C 4688   7.003   7.627   2.820  0.3585 -0.4719  1.3246
  794MOL0     C 4689   6.923   7.751   2.842  0.4584 -0.2172  0.1361
  794MOL0     C 4690   6.780   7.722   2.898 -0.3939  0.2033  0.9715
  794MOL0     C 4691   6.676   7.821   2.845 -0.3874 -0.0402  0.3941
  794MOL0     C 4692   6.695   7.958   2.907  0.5634  0.5991  0.5750
  794MOL0     N 4693   6.584   8.047   2.864  0.0206  0.4150  0.1322
  794MOL0     C 4694   6.465   8.052   2.935  0.5022 -0.0297  0.3547
  794MOL0     C 4695   6.392   8.141   2.862  0.9548  1.1106 -1.4551
  794MOL0     C 4696   6.256   8.183   2.908  0.3295  0.9678  1.0989
  794MOL0     C 4697   6.147   8.091   2.830  0.0223  0.2047 -0.2174
  794MOL0     C 4698   6.000   8.131   2.885  0.7345 -0.3414  1.5365
  794MOL0     C 4699   5.968   8.046   3.009 -0.7095 -0.6786 -0.8101
  794MOL0     O 4700   5.897   7.930   2.972 -0.1079 -0.0699  0.4038
  794MOL0     C 4701   5.761   7.932   2.992 -0.3943 -0.2685  0.6084
  794MOL0     C 4702   5.700   7.804   2.983  0.1458  0.3800  0.8676
  794MOL0     C 4703   5.564   7.777   3.004 -0.0832  0.4882 -0.0602
  794MOL0     C 4704   5.479   7.886   3.020  0.0195  0.2718 -0.2630
  794MOL0     C 4705   5.331   7.869   3.014  0.1933  0.0857  0.0570
  794MOL0     O 4706   5.257   7.982   3.056  0.0942 -0.1151 -0.5422
  794MOL0     C 4707   5.125   7.978   3.025  0.6077  0.3291  0.6938
  794MOL0     C 4708   5.021   7.960   3.120  0.7969 -0.8110  0.3863
  794MOL0     C 4709   4.885   7.961   3.081 -0.5470 -0.7013  0.1353
  794MOL0     C 4710   4.845   7.964   2.947 -0.3069 -0.1055  0.9461
  794MOL0     O 4711   4.710   7.961   2.912  0.2148  0.3262  0.1742
  794MOL0     C 4712   4.618   7.934   3.016  0.4837 -0.7385  0.2758
  794MOL0     C 4713   4.499   7.894   2.926  0.7928  0.5120 -1.3711
  794MOL0     C 4714   4.516   7.750   2.864  0.1868  0.2957  0.5443
  794MOL0     C 4715   4.383   7.671   2.850  0.4335 -0.2862 -0.8067
  794MOL0     C 4716   4.393   7.532   2.807 -0.0951  0.7280  0.5574
  794MOL0     C 4717   4.256   7.444   2.821 -0.0630  0.4035  0.2982
  794MOL0     C 4718   4.284   7.297   2.781  0.0277 -0.5381 -0.4486
  794MOL0     C 4719   4.170   7.195   2.802 -0.5215  0.5719 -0.4225
  794MOL0    Cl 4720   4.042   7.203   2.686 -0.3594  0.3127 -0.2925
  794MOL0     C 4721   4.954   7.963   2.849 -0.7556  0.6268  0.8931
  794MOL0     C 4722   5.093   7.969   2.885 -0.5489 -0.4047 -0.9928
  794MOL0     O 4723   5.280   7.762   2.972 -0.2203  0.1848 -0.1568
  794MOL0     C 4724   5.534   8.015   3.029 -0.5008 -0.3498  0.0228
  794MOL0     C 4725   5.673   8.036   3.010 -0.6446 -0.3570 -1.2786
  794MOL0     N 4726   6.466   8.201   2.760 -0.2484  0.3091  0.1409
  794MOL0     N 4727   6.572   8.126   2.756 -0.0633  0.3303  0.0366
  794MOL0     C 4728   7.665   7.697   2.885  0.5426 -0.2217 -0.8465
  794MOL0     C 4729   7.798   7.745   2.903 -0.0419  0.0541 -0.2658
  794MOL0     C 4730   8.195   7.921   3.009 -0.4520 -0.1205  0.3202
  794MOL0     C 4731   8.294   7.965   2.912  0.6783  0.9793 -0.8060
  794MOL0     C 4732   8.420   8.001   2.965 -0.6820 -0.1109  0.0494
  794MOL0     C 4733   8.448   7.992   3.104  0.1565 -0.2261 -0.9862
  794MOL0     O 4734   8.566   8.045   3.151 -0.4118 -0.3534 -0.1162
  794MOL0     C 4735   8.593   8.046   3.299  0.4921 -1.1145  0.0170
  794MOL0     C 4736   8.722   8.110   3.344  0.2969 -0.2559 -0.5942
  794MOL0     C 4737   8.831   8.076   3.247 -0.0705 -0.1681  0.1724
  794MOL0     C 4738   8.959   8.129   3.307 -0.0022 -1.0278  0.9073
  794MOL0     C 4739   9.079   8.075   3.248  0.3199  0.1838  0.8300
  794MOL0     C 4740   9.179   8.040   3.189 -0.0946  0.0975  0.1070
  794MOL0     C 4741   8.346   7.944   3.193 -1.3728 -0.3518 -0.1225
  794MOL0     C 4742   8.221   7.908   3.146 -0.3309 -0.5207  0.5363
  794MOL0     H 4743   7.786   7.794   3.237  0.6758 -1.5361  0.8446
  794MOL0     H 4744   7.548   7.733   3.189  0.7330 -0.4596 -0.1435
  794MOL0     H 4745   7.465   7.549   2.792 -0.4857  0.6521 -1.6613
  794MOL0     H 4746   7.397   7.710   2.780  0.3922  0.7648  1.3348
  794MOL0     H 4747   7.226   7.514   2.940 -3.9035 -0.0943 -0.7796
  794MOL0     H 4748   7.243   7.477   2.769  0.2398  0.7597 -0.1467
  794MOL0     H 4749   7.166   7.687   2.692 -0.7725 -1.6078 -0.8208
  794MOL0     H 4750   7.175   7.755   2.854  0.0404 -0.7226  0.3389
  794MOL0     H 4751   6.961   7.563   2.741  2.5583  0.7444 -0.9644
  794MOL0     H 4752   6.993   7.572   2.914  1.4033 -2.6678  0.2411
  794MOL0     H 4753   6.924   7.804   2.746  1.7349 -2.4719 -1.1951
  794MOL0     H 4754   6.976   7.816   2.912  2.1017 -0.0907 -1.1570
  794MOL0     H 4755   6.787   7.720   3.007  0.5453  0.1705  0.9139
  794MOL0     H 4756   6.751   7.620   2.875 -2.0680  0.4507  1.8266
  794MOL0     H 4757   6.685   7.836   2.737 -0.1522  3.5211  0.7957
  794MOL0     H 4758   6.582   7.774   2.876  0.4826 -1.5977  0.8002
  794MOL0     H 4759   6.791   8.002   2.882  0.5549 -0.4555 -1.4973
  794MOL0     H 4760   6.688   7.939   3.015  0.5198 -1.3701  0.2730
  794MOL0     H 4761   6.434   7.998   3.024  0.2038  0.6943  0.6963
  794MOL0     H 4762   6.239   8.288   2.884 -1.6386  0.3352 -0.5767
  794MOL0     H 4763   6.247   8.168   3.016  1.6194 -0.0100  1.1046
  794MOL0     H 4764   6.164   7.985   2.851 -1.4641 -0.6569 -2.8997
  794MOL0     H 4765   6.151   8.113   2.723 -2.7353 -1.0937 -0.6676
  794MOL0     H 4766   5.987   8.237   2.911 -1.1618 -0.3414  0.7090
  794MOL0     H 4767   5.932   8.115   2.801  5.3133  2.2168 -3.2319
  794MOL0     H 4768   5.921   8.105   3.089  1.7568 -0.6336  0.6796
  794MOL0     H 4769   6.054   8.006   3.063 -1.1117  1.5613  1.7265
  794MOL0     H 4770   5.759   7.713   2.977  0.6958  0.7131  1.0452
  794MOL0     H 4771   5.520   7.678   3.014 -1.4109  0.9104 -1.3469
  794MOL0     H 4772   5.052   7.958   3.224  1.0387  3.0739  0.5510
  794MOL0     H 4773   4.809   7.964   3.158 -1.4623  0.2363 -0.7749
  794MOL0     H 4774   4.596   8.022   3.077 -1.8958 -0.4587 -0.8350
  794MOL0     H 4775   4.657   7.849   3.073  3.4872 -0.3262 -1.0183
  794MOL0     H 4776   4.494   7.971   2.849 -1.7005  1.0699 -0.7491
  794MOL0     H 4777   4.412   7.899   2.992  0.6074  1.1260 -1.6560
  794MOL0     H 4778   4.573   7.694   2.938 -1.7716 -2.2738  0.2611
  794MOL0     H 4779   4.566   7.758   2.767  4.1981 -1.9406  2.1784
  794MOL0     H 4780   4.330   7.666   2.946 -1.1825 -0.0685 -1.6576
  794MOL0     H 4781   4.318   7.718   2.775 -2.0706  0.7943  1.8047
  794MOL0     H 4782   4.467   7.487   2.873  0.5764  0.8387 -0.1178
  794MOL0     H 4783   4.437   7.525   2.708  0.2159 -0.8697  0.7827
  794MOL0     H 4784   4.177   7.484   2.757 -0.0484 -0.1425 -0.0702
  794MOL0     H 4785   4.222   7.448   2.925 -0.8723 -3.5761  0.3376
  794MOL0     H 4786   4.311   7.296   2.675 -2.0352 -0.7824 -1.0111
  794MOL0     H 4787   4.368   7.262   2.841  0.9737 -0.5259 -1.7272
  794MOL0     H 4788   4.133   7.212   2.904  3.0953 -1.0967  1.3511
  794MOL0     H 4789   4.209   7.093   2.794 -1.0554  0.1360  1.6674
  794MOL0     H 4790   4.931   7.970   2.743  3.5590 -1.0254 -0.3454
  794MOL0     H 4791   5.184   7.984   2.828  0.5685 -0.4112  0.7099
  794MOL0     H 4792   5.459   8.094   3.033 -2.1353 -1.7360 -1.3943
  794MOL0     H 4793   5.703   8.139   2.991 -1.8406 -0.2008 -2.4840
  794MOL0     H 4794   7.621   7.685   2.786  3.5625 -0.9729 -2.2081
  794MOL0     H 4795   7.858   7.761   2.814 -1.5236 -1.5276 -1.6387
  794MOL0     H 4796   8.264   7.973   2.808 -0.1423  1.7953 -0.5150
  794MOL0     H 4797   8.495   8.046   2.901 -0.2835  2.0650  1.9315
  794MOL0     H 4798   8.585   7.943   3.335 -0.4476 -2.0651 -2.6635
  794MOL0     H 4799   8.523   8.109   3.354  0.5976  0.4532 -1.5896
  794MOL0     H 4800   8.705   8.218   3.352  0.6790 -0.0042 -2.7261
  794MOL0     H 4801   8.738   8.072   3.446  0.3652  0.4448 -0.3385
  794MOL0     H 4802   8.812   8.120   3.149  3.2611  2.5301  0.5191
  794MOL0     H 4803   8.812   7.970   3.234 -2.2935 -0.2993  3.3030
  794MOL0     H 4804   8.960   8.238   3.298 -1.6951 -1.1505 -2.4959
  794MOL0     H 4805   8.966   8.098   3.411 -1.9033  0.5692  1.5807
  794MOL0     H 4806   9.264   8.011   3.131 -0.0092 -0.3293  0.4349
  794MOL0     H 4807   8.347   7.944   3.302 -0.9210 -1.0065 -0.1194
  794MOL0     H 4808   8.154   7.871   3.223 -0.5460 -0.7546  0.2378
  795MOL0     O 4809   5.143   8.167   7.022  0.4154  0.6536 -0.1553
  795MOL0     C 4810   5.043   8.170   6.954  0.6125  0.8880 -0.2450
  795MOL0     O 4811   5.039   8.156   6.817 -0.4892 -0.0746  0.2807
  795MOL0     C 4812   5.162   8.176   6.757  0.1387  0.0594  1.0548
  795MOL0     C 4813   5.240   8.068   6.734 -0.4177  0.5914  0.4687
  795MOL0     C 4814   5.352   8.081   6.646 -0.3970  0.2246 -0.2402
  795MOL0     C 4815   5.382   8.206   6.595  0.4372 -0.7459 -0.0390
  795MOL0     O 4816   5.485   8.209   6.510 -0.6309 -0.5796  0.3238
  795MOL0     C 4817   5.621   8.187   6.563 -0.3569 -0.5483 -0.3373
  795MOL0     C 4818   5.651   8.307   6.668  0.6672  0.8602 -0.2286
  795MOL0     C 4819   5.795   8.295   6.708 -0.7492 -0.9133 -0.5547
  795MOL0     C 4820   5.900   8.336   6.602 -0.1901 -1.0598  0.0745
  795MOL0     C 4821   6.036   8.358   6.664  0.4160  0.8038  0.3864
  795MOL0     C 4822   6.143   8.399   6.561 -0.8285 -0.1039 -0.6030
  795MOL0     C 4823   6.105   8.525   6.477 -0.4699  0.1092  0.1693
  795MOL0     C 4824   6.227   8.573   6.398  0.5028  0.6555  0.5365
  795MOL0     N 4825   6.343   8.600   6.472 -0.5762  0.2167  1.0361
  795MOL0     C 4826   6.367   8.704   6.555  0.5716 -0.2136  0.8460
  795MOL0     C 4827   6.481   8.672   6.620  0.0787 -0.0172  0.6097
  795MOL0     C 4828   6.537   8.747   6.736 -0.3274 -0.4429  1.4375
  795MOL0     C 4829   6.531   8.667   6.864 -0.2032 -0.1932 -0.1981
  795MOL0     C 4830   6.416   8.701   6.963 -0.5220  0.7124  0.2847
  795MOL0     C 4831   6.285   8.694   6.880  0.6490 -1.0261 -0.5229
  795MOL0     O 4832   6.176   8.683   6.975 -0.1521  0.8701  0.5208
  795MOL0     C 4833   6.051   8.689   6.941  0.0494 -0.0167  0.3957
  795MOL0     C 4834   5.957   8.609   7.006  1.0164  0.8508 -0.6213
  795MOL0     C 4835   5.814   8.617   6.986 -0.1508 -0.1117 -0.6643
  795MOL0     C 4836   5.769   8.716   6.893 -0.1869 -0.8172 -0.1068
  795MOL0     C 4837   5.632   8.708   6.845  0.0429 -1.5657 -1.0530
  795MOL0     O 4838   5.536   8.655   6.929  0.0811  0.0467 -0.4536
  795MOL0     C 4839   5.404   8.670   6.890  0.1157  0.3582  0.0405
  795MOL0     C 4840   5.352   8.619   6.771  0.9402  0.5560  0.5161
  795MOL0     C 4841   5.216   8.622   6.755 -0.1083  0.3732 -0.3830
  795MOL0     C 4842   5.134   8.685   6.842 -0.7670  0.7286  0.4162
  795MOL0     O 4843   5.011   8.707   6.791 -0.3500 -0.2024  0.0659
  795MOL0     C 4844   4.906   8.682   6.889  0.0995  1.1790 -0.1031
  795MOL0     C 4845   4.786   8.638   6.810 -0.1032 -0.1461 -0.3699
  795MOL0     C 4846   4.679   8.622   6.908  0.5487 -0.0163 -0.6845
  795MOL0     C 4847   4.557   8.598   6.821 -0.1141  1.3458 -0.2690
  795MOL0     C 4848   4.422   8.594   6.904 -0.2770 -0.2944 -0.7927
  795MOL0     C 4849   4.304   8.575   6.805  0.8245 -0.7716  0.5832
  795MOL0     C 4850   4.269   8.710   6.735  0.3491 -0.8179 -0.2106
  795MOL0     C 4851   4.139   8.687   6.654 -0.4961 -0.0600 -0.6724
  795MOL0    Cl 4852   3.999   8.599   6.729  0.2815  0.1118  0.2588
  795MOL0     C 4853   5.190   8.732   6.964 -0.1327 -0.8008  0.2292
  795MOL0     C 4854   5.318   8.719   6.986 -0.2014 -0.3483 -0.1290
  795MOL0     O 4855   5.608   8.755   6.740 -0.6339  0.1608 -0.3717
  795MOL0     C 4856   5.873   8.783   6.810 -0.2013 -0.3344  0.1325
  795MOL0     C 4857   6.006   8.774   6.836  0.3322  0.2780  0.5265
  795MOL0     N 4858   6.541   8.564   6.552  0.3511  0.0563  0.0124
  795MOL0     N 4859   6.456   8.519   6.466  0.0803 -0.2009 -0.5257
  795MOL0     C 4860   5.309   8.312   6.632  0.1935  0.2956 -0.0409
  795MOL0     C 4861   5.199   8.299   6.709  0.3728  0.2457 -0.2883
  795MOL0     C 4862   4.906   8.188   7.020  0.0431 -0.8890 -0.0291
  795MOL0     C 4863   4.883   8.179   7.157 -0.7690  0.1328  1.3193
  795MOL0     C 4864   4.761   8.202   7.213  0.4972  0.6426 -0.2963
  795MOL0     C 4865   4.650   8.235   7.137 -0.1057  0.6041 -0.6439
  795MOL0     O 4866   4.534   8.273   7.200  0.6652  0.4525 -0.9771
  795MOL0     C 4867   4.446   8.165   7.244  0.1716 -0.5783 -0.2549
  795MOL0     C 4868   4.310   8.216   7.283  0.6805 -1.1840 -0.0222
  795MOL0     C 4869   4.234   8.301   7.183  0.1359  0.2124  0.3542
  795MOL0     C 4870   4.098   8.353   7.222 -0.4589 -0.0934  0.3562
  795MOL0     C 4871   4.002   8.254   7.273  0.1426 -0.1870 -0.3666
  795MOL0     C 4872   3.938   8.157   7.305 -0.1321  0.0089  0.3098
  795MOL0     C 4873   4.667   8.246   7.001  0.0997 -0.0373  1.2508
  795MOL0     C 4874   4.797   8.227   6.939  0.1145 -0.4280  0.3320
  795MOL0     H 4875   5.222   7.968   6.774  1.4964  0.1240  0.2694
  795MOL0     H 4876   5.423   8.005   6.613 -0.1260  0.9844 -1.4802
  795MOL0     H 4877   5.683   8.195   6.473  0.5107  1.2042  0.3759
  795MOL0     H 4878   5.626   8.090   6.614  1.6672  0.3117  1.2620
  795MOL0     H 4879   5.596   8.288   6.761  2.0359  0.2015  0.4734
  795MOL0     H 4880   5.627   8.405   6.626  1.6207  2.8150  3.3591
  795MOL0     H 4881   5.801   8.190   6.737  1.2368 -0.3660  1.2578
  795MOL0     H 4882   5.812   8.355   6.798 -0.4337 -1.8681  0.0429
  795MOL0     H 4883   5.893   8.261   6.523  0.3056 -2.9437  1.7492
  795MOL0     H 4884   5.866   8.432   6.561  1.7110  1.0470  2.9950
  795MOL0     H 4885   6.055   8.266   6.720 -1.9543 -0.9885 -1.4999
  795MOL0     H 4886   6.023   8.435   6.740 -1.1097  2.8689 -1.8202
  795MOL0     H 4887   6.149   8.317   6.489 -1.4084 -4.0649  3.3668
  795MOL0     H 4888   6.240   8.406   6.611  0.1743 -1.7027 -2.2026
  795MOL0     H 4889   6.024   8.507   6.405  0.7307  1.1766 -1.5286
  795MOL0     H 4890   6.081   8.613   6.538 -1.0078  0.3281 -0.3384
  795MOL0     H 4891   6.210   8.666   6.343  1.0678 -1.0774 -2.8399
  795MOL0     H 4892   6.248   8.504   6.316  0.6023  1.7559 -0.3954
  795MOL0     H 4893   6.304   8.791   6.563 -0.0823 -0.6355  0.3796
  795MOL0     H 4894   6.469   8.831   6.754 -0.7908 -0.0231 -1.7112
  795MOL0     H 4895   6.630   8.800   6.717 -1.9935  2.8799  1.7821
  795MOL0     H 4896   6.622   8.691   6.919 -1.2642  4.0508 -0.0253
  795MOL0     H 4897   6.538   8.559   6.843 -1.1503 -0.3458  0.1893
  795MOL0     H 4898   6.429   8.638   7.052  1.3113 -2.8788 -2.2743
  795MOL0     H 4899   6.434   8.797   7.013 -0.5377 -0.5479  2.8633
  795MOL0     H 4900   6.269   8.607   6.815 -3.1367 -0.8572 -0.0797
  795MOL0     H 4901   6.274   8.787   6.823 -1.5558 -0.7564  0.2216
  795MOL0     H 4902   5.984   8.532   7.079 -1.4292  0.8784  0.3932
  795MOL0     H 4903   5.742   8.564   7.047 -0.1698 -0.6149 -1.1143
  795MOL0     H 4904   5.420   8.589   6.692  2.9688  2.1420  1.5613
  795MOL0     H 4905   5.176   8.582   6.663 -1.7117  2.7452 -0.8110
  795MOL0     H 4906   4.877   8.767   6.951  0.0507  2.4131 -1.7714
  795MOL0     H 4907   4.941   8.604   6.958 -3.5175  2.2222  3.3340
  795MOL0     H 4908   4.806   8.538   6.769 -0.8269 -0.8021  0.8273
  795MOL0     H 4909   4.764   8.709   6.730 -0.6767  0.2443  0.1358
  795MOL0     H 4910   4.653   8.701   6.979 -1.6321 -0.3569 -1.0325
  795MOL0     H 4911   4.693   8.532   6.969 -0.8091 -0.8395 -1.5401
  795MOL0     H 4912   4.544   8.680   6.750 -1.0655  2.7992  1.4886
  795MOL0     H 4913   4.568   8.503   6.769  0.3554 -0.1325  2.3229
  795MOL0     H 4914   4.410   8.692   6.952 -1.7786  0.0840 -1.8309
  795MOL0     H 4915   4.424   8.512   6.975 -1.8015 -0.4561 -0.8871
  795MOL0     H 4916   4.218   8.549   6.867  0.6494 -0.7284  0.3593
  795MOL0     H 4917   4.319   8.488   6.741  1.7319 -0.7874  0.8044
  795MOL0     H 4918   4.255   8.789   6.809  0.6165 -0.3477 -0.6518
  795MOL0     H 4919   4.346   8.745   6.666 -0.4352  0.0885 -0.6532
  795MOL0     H 4920   4.164   8.637   6.560  1.9193  1.4460 -0.9339
  795MOL0     H 4921   4.104   8.788   6.633  2.6339  1.0919 -0.9031
  795MOL0     H 4922   5.117   8.772   7.034 -1.2046  0.3122 -1.4529
  795MOL0     H 4923   5.362   8.768   7.072  0.0861  2.4141 -1.7336
  795MOL0     H 4924   5.852   8.841   6.720  0.2298 -1.3001 -0.6145
  795MOL0     H 4925   6.071   8.827   6.768  1.0257 -0.4146  0.6371
  795MOL0     H 4926   5.336   8.407   6.587 -0.6987  1.2396  1.3577
  795MOL0     H 4927   5.125   8.379   6.717  1.3494  1.0193  1.8362
  795MOL0     H 4928   4.956   8.127   7.219 -3.3883 -2.6069  2.3100
  795MOL0     H 4929   4.748   8.193   7.321 -0.0145 -2.4763 -0.5424
  795MOL0     H 4930   4.491   8.112   7.329 -3.5351 -4.3652 -0.3521
  795MOL0     H 4931   4.442   8.102   7.154 -1.3785  3.1128 -3.0416
  795MOL0     H 4932   4.250   8.129   7.308 -0.5176 -1.1951 -2.6344
  795MOL0     H 4933   4.300   8.269   7.378 -2.5639 -3.2201  0.8923
  795MOL0     H 4934   4.227   8.234   7.096  0.8334 -0.8359  1.0741
  795MOL0     H 4935   4.305   8.379   7.153  1.2970 -1.0334 -0.2785
  795MOL0     H 4936   4.099   8.428   7.302  1.1640  0.1829  0.1037
  795MOL0     H 4937   4.048   8.389   7.132  0.2720  0.0643  0.0021
  795MOL0     H 4938   3.871   8.074   7.301  0.1084 -0.1359 -1.2889
  795MOL0     H 4939   4.580   8.281   6.946 -0.0309  0.8957  2.0065
  795MOL0     H 4940   4.805   8.238   6.831  1.2636  1.1152  0.5424
  796MOL0     O 4941   5.832   6.587   4.973 -0.5733 -0.8156  0.6312
  796MOL0     C 4942   5.815   6.634   4.861 -0.4373  0.3461  0.0304
  796MOL0     O 4943   5.694   6.685   4.806  0.3242  0.2504  0.2238
  796MOL0     C 4944   5.587   6.675   4.881  0.8649  0.3740 -0.0426
  796MOL0     C 4945   5.475   6.621   4.824  0.5817 -0.3584  0.8285
  796MOL0     C 4946   5.362   6.607   4.903  0.7888 -0.2801  0.3040
  796MOL0     C 4947   5.352   6.669   5.031  0.5123 -0.4398  0.1540
  796MOL0     O 4948   5.236   6.657   5.100 -0.8817 -0.3324 -0.2106
  796MOL0     C 4949   5.111   6.674   5.032  1.0575 -0.6491  0.0434
  796MOL0     C 4950   4.992   6.721   5.126 -0.5060  0.0612 -0.2334
  796MOL0     C 4951   4.866   6.755   5.051  0.5080  0.0928  0.3025
  796MOL0     C 4952   4.763   6.791   5.156  0.2989  0.1530 -0.3226
  796MOL0     C 4953   4.627   6.808   5.098  1.0678  0.5382  0.2009
  796MOL0     C 4954   4.514   6.824   5.188  0.2366  0.8781  0.9409
  796MOL0     C 4955   4.378   6.849   5.111  0.2659 -0.8200  0.6769
  796MOL0     C 4956   4.358   6.762   4.985 -1.2774 -0.5807  0.4240
  796MOL0     N 4957   4.240   6.795   4.909 -0.3617  0.1818  0.2823
  796MOL0     C 4958   4.119   6.815   4.973 -0.2714  0.2539  0.4411
  796MOL0     C 4959   4.031   6.839   4.876  0.5493 -0.0510  0.1596
  796MOL0     C 4960   3.889   6.896   4.904 -0.1021 -0.1024  0.0599
  796MOL0     C 4961   3.782   6.797   4.868  0.9895  0.4282 -0.5341
  796MOL0     C 4962   3.694   6.828   4.746  0.0359  0.8809  0.1864
  796MOL0     C 4963   3.618   6.712   4.693  0.7130  0.2060  0.5984
  796MOL0     O 4964   3.517   6.658   4.781 -0.0938  0.4760  0.4037
  796MOL0     C 4965   3.389   6.709   4.775  0.0803 -0.6478 -0.1029
  796MOL0     C 4966   3.337   6.757   4.893 -0.9790  0.1483 -0.6883
  796MOL0     C 4967   3.216   6.824   4.903  0.4983  0.5009 -0.3133
  796MOL0     C 4968   3.138   6.839   4.782 -0.0113 -0.2061 -0.2081
  796MOL0     C 4969   3.004   6.921   4.783 -0.8175  0.5396  0.3529
  796MOL0     O 4970   2.922   6.896   4.677  0.0354 -0.0070  0.2249
  796MOL0     C 4971   2.804   6.959   4.663  0.2771 -0.5040  0.3346
  796MOL0     C 4972   2.731   7.033   4.756  0.4626  0.2173 -0.1834
  796MOL0     C 4973   2.614   7.090   4.727  0.1724 -0.7892  0.4845
  796MOL0     C 4974   2.547   7.061   4.614  0.0893 -0.3898  0.0080
  796MOL0     O 4975   2.422   7.104   4.604  0.3674  0.1476 -0.1346
  796MOL0     C 4976   2.331   6.996   4.585  0.4521 -0.2335 -0.0808
  796MOL0     C 4977   2.187   7.050   4.618 -0.3028 -0.0400 -0.0028
  796MOL0     C 4978   2.082   6.947   4.578 -0.3149  0.3452 -0.3759
  796MOL0     C 4979   2.096   6.817   4.660 -0.0677  0.1773 -0.0694
  796MOL0     C 4980   1.995   6.711   4.641  0.6697 -0.0756 -0.0790
  796MOL0     C 4981   2.031   6.637   4.517 -0.4201 -0.2936 -0.2475
  796MOL0     C 4982   1.915   6.551   4.476 -0.8905  0.3509  0.2059
  796MOL0     C 4983   1.883   6.446   4.587  0.6278 -0.2207  0.4037
  796MOL0    Cl 4984   1.770   6.330   4.521  0.0231 -0.6037  0.0839
  796MOL0     C 4985   2.613   6.989   4.512 -0.2817 -0.5884  0.1044
  796MOL0     C 4986   2.737   6.935   4.538  0.8367  0.4957  0.4370
  796MOL0     O 4987   2.981   6.999   4.876  0.0247 -0.3011 -0.0727
  796MOL0     C 4988   3.195   6.788   4.659  0.1128 -0.4812 -0.0014
  796MOL0     C 4989   3.317   6.729   4.658  0.5963 -0.1954  0.1144
  796MOL0     N 4990   4.089   6.825   4.755  0.3108 -0.3364  0.4378
  796MOL0     N 4991   4.220   6.796   4.767 -0.2222 -0.1733  0.2248
  796MOL0     C 4992   5.463   6.736   5.088  0.0368 -0.7112 -0.1249
  796MOL0     C 4993   5.585   6.735   5.007  0.0979 -0.5551  0.0836
  796MOL0     C 4994   5.933   6.663   4.775 -0.1287 -0.4916  0.2994
  796MOL0     C 4995   5.919   6.701   4.642  0.2009 -0.2226 -0.0824
  796MOL0     C 4996   6.038   6.717   4.561 -0.1972  0.2653 -0.4147
  796MOL0     C 4997   6.164   6.712   4.613 -0.0489  0.0692 -0.7908
  796MOL0     O 4998   6.257   6.755   4.524 -0.1332  0.3599 -0.0687
  796MOL0     C 4999   6.393   6.776   4.569  0.3261  0.1516  0.5147
  796MOL0     C 5000   6.480   6.820   4.454 -0.5179 -0.1454 -0.2651
  796MOL0     C 5001   6.616   6.851   4.518 -0.2264 -0.6151  0.3262
  796MOL0     C 5002   6.712   6.884   4.411  0.5778 -0.0444  0.1439
  796MOL0     C 5003   6.851   6.871   4.444  0.4301  0.0345 -0.1887
  796MOL0     C 5004   6.971   6.862   4.476 -0.7002  0.0251 -0.2303
  796MOL0     C 5005   6.175   6.690   4.751 -0.6345 -0.0714  1.4111
  796MOL0     C 5006   6.068   6.661   4.828 -0.0271 -0.2788  0.1483
  796MOL0     H 5007   5.494   6.580   4.726 -2.2060  2.1065 -0.8756
  796MOL0     H 5008   5.275   6.559   4.860 -1.0259  0.0844  3.2811
  796MOL0     H 5009   5.079   6.584   4.979 -1.6684  1.5981 -2.4374
  796MOL0     H 5010   5.122   6.754   4.959  1.7963  0.3234  1.1860
  796MOL0     H 5011   5.030   6.808   5.181  0.7085  0.1903 -1.2277
  796MOL0     H 5012   4.978   6.637   5.195 -2.1614 -1.5323 -2.3554
  796MOL0     H 5013   4.833   6.669   4.992 -0.4440 -0.6581  1.8809
  796MOL0     H 5014   4.892   6.833   4.978  3.1428 -2.9561 -2.3348
  796MOL0     H 5015   4.752   6.710   5.229  1.6551 -1.1632 -1.5061
  796MOL0     H 5016   4.786   6.889   5.198  2.3249  0.8413 -2.8085
  796MOL0     H 5017   4.612   6.710   5.051  0.6900 -0.5143  2.3628
  796MOL0     H 5018   4.628   6.889   5.025  0.6278 -0.6761 -1.2014
  796MOL0     H 5019   4.531   6.906   5.258 -3.6022  0.8326  2.1186
  796MOL0     H 5020   4.520   6.728   5.239  1.0287 -0.2858 -1.2010
  796MOL0     H 5021   4.299   6.851   5.186 -1.5444  0.3312 -1.1415
  796MOL0     H 5022   4.377   6.954   5.079  0.8901 -0.5051  1.6266
  796MOL0     H 5023   4.366   6.657   5.014 -2.7446 -0.6355  0.6899
  796MOL0     H 5024   4.446   6.770   4.919 -2.6084  0.7270 -1.3038
  796MOL0     H 5025   4.093   6.821   5.079 -0.7191  1.6115  0.2775
  796MOL0     H 5026   3.858   6.984   4.848 -0.5442 -2.2060 -3.3003
  796MOL0     H 5027   3.868   6.906   5.011 -0.4680 -0.0580 -0.0156
  796MOL0     H 5028   3.716   6.772   4.951  0.2735 -1.2211 -1.5260
  796MOL0     H 5029   3.823   6.696   4.856  1.2684  0.5129 -0.3082
  796MOL0     H 5030   3.633   6.918   4.755  0.8016  1.7469 -2.2950
  796MOL0     H 5031   3.754   6.858   4.659 -1.1389  0.8918 -0.6452
  796MOL0     H 5032   3.677   6.624   4.665 -0.6591 -2.5696  5.2478
  796MOL0     H 5033   3.569   6.741   4.600  2.7127  0.9365 -0.2950
  796MOL0     H 5034   3.397   6.750   4.983 -1.0998  1.1378 -0.5174
  796MOL0     H 5035   3.178   6.860   4.997  0.5678  4.4597 -1.6332
  796MOL0     H 5036   2.759   7.055   4.859  1.0696  0.0023 -0.2952
  796MOL0     H 5037   2.566   7.164   4.791 -0.0454  0.2725 -0.8613
  796MOL0     H 5038   2.359   6.928   4.666  0.5421  1.5633  1.4756
  796MOL0     H 5039   2.328   6.955   4.484 -0.6361  0.3302 -0.2980
  796MOL0     H 5040   2.168   7.144   4.565  3.0114  1.0384  0.4663
  796MOL0     H 5041   2.167   7.067   4.724  0.5815 -1.1069  0.3661
  796MOL0     H 5042   2.105   6.936   4.471  1.0197  3.5864 -0.5269
  796MOL0     H 5043   1.981   6.986   4.595 -0.2962  0.1041  0.2958
  796MOL0     H 5044   2.198   6.778   4.650  0.5643  1.5958  0.6303
  796MOL0     H 5045   2.083   6.858   4.760 -1.4991  0.3592 -0.3129
  796MOL0     H 5046   1.900   6.766   4.643  1.4623  1.4269 -1.2928
  796MOL0     H 5047   1.995   6.649   4.731 -3.2309  0.9340  0.8165
  796MOL0     H 5048   2.120   6.575   4.529 -1.5786 -2.3056 -1.5578
  796MOL0     H 5049   2.052   6.708   4.437 -0.9602 -2.0010 -1.9833
  796MOL0     H 5050   1.826   6.605   4.442 -0.4172  0.1491 -1.4597
  796MOL0     H 5051   1.942   6.494   4.387 -0.0636 -0.0266  0.6799
  796MOL0     H 5052   1.838   6.489   4.677 -0.9649  0.1073 -0.4939
  796MOL0     H 5053   1.977   6.398   4.614  0.8084 -2.1178 -3.0711
  796MOL0     H 5054   2.565   6.966   4.417  4.4830  1.0700 -3.0400
  796MOL0     H 5055   2.782   6.886   4.452  2.1952  0.0941  1.3521
  796MOL0     H 5056   3.136   6.790   4.569  1.3665 -0.1626 -0.8424
  796MOL0     H 5057   3.356   6.685   4.566  1.7804 -2.2021  1.4810
  796MOL0     H 5058   5.450   6.795   5.178 -2.5846 -0.5161 -0.5603
  796MOL0     H 5059   5.681   6.769   5.045  0.0277 -0.9413  0.6120
  796MOL0     H 5060   5.826   6.720   4.590  1.6379 -1.6722 -3.4588
  796MOL0     H 5061   6.036   6.753   4.458 -0.4652  3.1314  0.5106
  796MOL0     H 5062   6.423   6.685   4.622 -2.6088 -0.9479  0.4448
  796MOL0     H 5063   6.384   6.864   4.634 -5.3733 -0.7574  1.4136
  796MOL0     H 5064   6.479   6.738   4.382 -0.5160  0.7340 -1.2996
  796MOL0     H 5065   6.439   6.908   4.402  1.5682 -0.0374 -1.8706
  796MOL0     H 5066   6.654   6.769   4.580  1.3778  0.4986  0.8814
  796MOL0     H 5067   6.604   6.936   4.586 -1.5472 -1.0548  0.6618
  796MOL0     H 5068   6.686   6.831   4.319 -2.1184  2.9826 -0.9821
  796MOL0     H 5069   6.705   6.991   4.392  1.3639  0.4232  2.2464
  796MOL0     H 5070   7.068   6.831   4.508 -0.7182 -0.5983 -0.7647
  796MOL0     H 5071   6.274   6.707   4.793  1.4109 -3.5711 -1.3571
  796MOL0     H 5072   6.084   6.645   4.934  1.3893  2.4312  0.4281
  797MOL0     O 5073   5.153   7.885   8.718  0.1816 -0.6235 -0.0096
  797MOL0     C 5074   5.196   7.826   8.619 -0.5941  0.8597 -0.6594
  797MOL0     O 5075   5.124   7.774   8.516  0.0902 -0.2798 -0.2303
  797MOL0     C 5076   4.992   7.808   8.511  0.5420 -0.2710 -0.2657
  797MOL0     C 5077   4.961   7.938   8.473 -0.3443 -0.2103  0.6717
  797MOL0     C 5078   4.829   7.979   8.462 -0.2662  0.3779 -0.6937
  797MOL0     C 5079   4.724   7.892   8.499  0.1085 -0.9727 -0.8674
  797MOL0     O 5080   4.599   7.961   8.505  0.7111  0.9363  0.1821
  797MOL0     C 5081   4.481   7.882   8.535  0.9881 -0.3236 -0.1324
  797MOL0     C 5082   4.350   7.941   8.485 -0.3949  1.0283 -0.7494
  797MOL0     C 5083   4.296   8.062   8.563 -0.4850  1.6923 -0.1035
  797MOL0     C 5084   4.150   8.078   8.527  0.1323  0.1238  0.3280
  797MOL0     C 5085   4.092   8.220   8.564  0.4920  0.5272 -0.5709
  797MOL0     C 5086   4.081   8.248   8.713  0.3612 -0.2713 -0.8984
  797MOL0     C 5087   4.002   8.379   8.759 -0.0152 -0.9091 -0.4679
  797MOL0     C 5088   4.048   8.429   8.897  0.8646  0.5151  0.4914
  797MOL0     N 5089   4.031   8.330   9.008  0.2872  0.1759  0.2570
  797MOL0     C 5090   3.900   8.314   9.057 -0.0862  1.2358  0.6256
  797MOL0     C 5091   3.901   8.194   9.115 -0.5795  0.4611  0.0046
  797MOL0     C 5092   3.777   8.124   9.173 -0.5308  0.1774  0.0916
  797MOL0     C 5093   3.664   8.106   9.076  0.3434 -0.2439  0.6239
  797MOL0     C 5094   3.552   8.016   9.125  0.0034 -0.0741  0.0310
  797MOL0     C 5095   3.449   7.972   9.017 -0.1453 -0.7360 -0.0088
  797MOL0     O 5096   3.409   8.079   8.935 -0.1503 -0.0475  0.0484
  797MOL0     C 5097   3.287   8.053   8.880 -0.5791  0.2532 -0.3925
  797MOL0     C 5098   3.180   8.122   8.920  0.1501  0.1286 -0.5134
  797MOL0     C 5099   3.051   8.094   8.871  1.0241  0.5722 -0.4517
  797MOL0     C 5100   3.033   7.993   8.773 -0.1762 -0.6725  0.3070
  797MOL0     C 5101   2.910   7.995   8.698 -0.0256 -0.7203 -0.1930
  797MOL0     O 5102   2.828   8.102   8.714  0.0302 -0.0850 -0.0806
  797MOL0     C 5103   2.717   8.121   8.639  0.6573  0.1535 -0.5008
  797MOL0     C 5104   2.604   8.182   8.702  1.0508 -0.1820 -0.1955
  797MOL0     C 5105   2.479   8.207   8.630 -0.3120  0.6816  0.3407
  797MOL0     C 5106   2.487   8.181   8.491 -0.3701  0.3886  1.0678
  797MOL0     O 5107   2.393   8.218   8.395 -0.7395 -0.3411  0.2439
  797MOL0     C 5108   2.256   8.250   8.439 -0.0875 -0.2231 -0.0703
  797MOL0     C 5109   2.179   8.139   8.491  0.6078 -0.4392  0.0823
  797MOL0     C 5110   2.026   8.175   8.518 -0.5930  0.5659  0.0014
  797MOL0     C 5111   1.938   8.062   8.589 -0.8251  0.7239 -0.7154
  797MOL0     C 5112   1.792   8.111   8.593  0.3625  0.3625  0.1727
  797MOL0     C 5113   1.764   8.212   8.714 -0.2115 -0.5224 -0.2679
  797MOL0     C 5114   1.618   8.243   8.723  0.3891 -0.6265 -1.2670
  797MOL0     C 5115   1.592   8.359   8.823  0.3281  0.2456 -0.0726
  797MOL0    Cl 5116   1.416   8.377   8.833  0.3336 -0.2614  0.6425
  797MOL0     C 5117   2.594   8.111   8.430  0.2391 -0.3896 -0.8318
  797MOL0     C 5118   2.709   8.080   8.505 -0.1221 -0.3520  0.6848
  797MOL0     O 5119   2.877   7.889   8.657  0.1747  0.9934  0.5671
  797MOL0     C 5120   3.142   7.917   8.738 -0.4115 -0.0610  0.6536
  797MOL0     C 5121   3.276   7.947   8.788  0.2493  0.4614 -0.0563
  797MOL0     N 5122   4.028   8.136   9.109  0.0897  0.0675 -0.5479
  797MOL0     N 5123   4.100   8.218   9.038 -0.0688 -0.3112 -0.3376
  797MOL0     C 5124   4.754   7.763   8.545  0.2965  0.0017  1.2245
  797MOL0     C 5125   4.883   7.720   8.536 -0.7052  0.3149 -0.6995
  797MOL0     C 5126   5.334   7.772   8.623 -0.6722  0.1319 -0.5122
  797MOL0     C 5127   5.378   7.658   8.548 -0.4162 -1.6502 -1.0785
  797MOL0     C 5128   5.510   7.621   8.560  0.1754  0.1689  0.6174
  797MOL0     C 5129   5.616   7.702   8.618  0.1447  0.3429  0.7662
  797MOL0     O 5130   5.733   7.639   8.629 -0.1863 -0.1711 -0.0354
  797MOL0     C 5131   5.843   7.707   8.684 -0.1342 -0.0982  0.5319
  797MOL0     C 5132   5.974   7.655   8.617  0.0098 -0.0877  0.4787
  797MOL0     C 5133   6.097   7.698   8.711  0.4214 -0.0296 -0.0040
  797MOL0     C 5134   6.135   7.610   8.837  0.0609  0.3814 -0.0278
  797MOL0     C 5135   6.163   7.471   8.794 -0.3829  0.5736 -0.1613
  797MOL0     C 5136   6.201   7.357   8.760 -0.6688 -0.5136 -0.3702
  797MOL0     C 5137   5.569   7.814   8.682 -0.0106 -0.6928 -1.0214
  797MOL0     C 5138   5.435   7.858   8.681 -0.0609 -0.0229  0.8311
  797MOL0     H 5139   5.041   8.004   8.440  1.1875 -1.7691  1.1131
  797MOL0     H 5140   4.792   8.078   8.436 -4.0107 -0.9253 -0.9372
  797MOL0     H 5141   4.470   7.867   8.642  0.2252 -0.5081 -0.2340
  797MOL0     H 5142   4.502   7.784   8.492  5.7177  0.2669  0.2513
  797MOL0     H 5143   4.278   7.859   8.483 -1.3162  1.8058 -0.2327
  797MOL0     H 5144   4.362   7.965   8.379  1.6470 -1.7865 -1.2725
  797MOL0     H 5145   4.353   8.145   8.519  1.7530  0.0291 -0.5724
  797MOL0     H 5146   4.329   8.058   8.668 -0.2853  1.5553 -0.1703
  797MOL0     H 5147   4.137   8.062   8.420  2.0402 -1.1460  0.2403
  797MOL0     H 5148   4.088   8.001   8.573  2.9600 -1.3835  1.9262
  797MOL0     H 5149   3.992   8.219   8.519  0.4373  0.9941 -0.4662
  797MOL0     H 5150   4.154   8.297   8.518 -0.8947  1.6623 -0.6342
  797MOL0     H 5151   4.181   8.253   8.757  0.5026 -0.2905 -1.2164
  797MOL0     H 5152   4.040   8.161   8.765  1.5322 -0.8728 -0.9590
  797MOL0     H 5153   4.022   8.463   8.691  1.5235 -0.1913  0.8079
  797MOL0     H 5154   3.894   8.362   8.756 -0.5596  1.3578  2.2919
  797MOL0     H 5155   3.997   8.522   8.927 -1.4690 -2.0856  5.9109
  797MOL0     H 5156   4.153   8.455   8.885  0.5276  1.0944 -1.6162
  797MOL0     H 5157   3.806   8.369   9.060 -1.4121 -0.8855  0.0404
  797MOL0     H 5158   3.737   8.178   9.259  0.7047  1.5926 -0.1891
  797MOL0     H 5159   3.817   8.028   9.208  2.0928  0.7931 -0.9937
  797MOL0     H 5160   3.704   8.068   8.982  1.0929 -1.6167  1.4536
  797MOL0     H 5161   3.615   8.202   9.062  1.6298  0.9611  3.5329
  797MOL0     H 5162   3.596   7.926   9.170 -1.8153 -0.8693  0.3116
  797MOL0     H 5163   3.495   8.062   9.207  0.2772  0.5009 -0.0976
  797MOL0     H 5164   3.364   7.930   9.071  0.6476  0.6303  2.4477
  797MOL0     H 5165   3.493   7.896   8.952  0.9660 -1.8136  1.9164
  797MOL0     H 5166   3.200   8.215   8.971  0.1966  2.0090 -3.7180
  797MOL0     H 5167   2.968   8.152   8.909 -0.1788 -0.8016 -0.8880
  797MOL0     H 5168   2.603   8.197   8.809 -0.1684 -1.7264  0.0374
  797MOL0     H 5169   2.391   8.255   8.671  0.7992  1.2440  2.1728
  797MOL0     H 5170   2.209   8.286   8.347  3.4119  2.3728 -1.0771
  797MOL0     H 5171   2.262   8.337   8.505  0.6666 -1.0780  1.0140
  797MOL0     H 5172   2.224   8.096   8.581 -0.5334 -0.0510  0.8577
  797MOL0     H 5173   2.165   8.055   8.422 -2.3740  0.4363 -0.5100
  797MOL0     H 5174   1.986   8.193   8.418  2.1412  1.9307 -0.9300
  797MOL0     H 5175   2.019   8.268   8.575  1.3361 -0.1896  1.6010
  797MOL0     H 5176   1.937   7.965   8.538  1.9701  0.2504 -0.0075
  797MOL0     H 5177   1.969   8.037   8.691 -1.7928  0.3608 -0.4938
  797MOL0     H 5178   1.729   8.022   8.596 -2.2938  2.0966 -0.2708
  797MOL0     H 5179   1.762   8.160   8.499  0.8014  1.3535  0.5374
  797MOL0     H 5180   1.817   8.302   8.683  1.2663 -1.3517 -0.2548
  797MOL0     H 5181   1.817   8.172   8.801  0.4473  2.7707  0.9766
  797MOL0     H 5182   1.575   8.261   8.624  0.5522  0.2364 -1.1837
  797MOL0     H 5183   1.583   8.149   8.767  1.8760 -0.5251  0.2254
  797MOL0     H 5184   1.633   8.456   8.790 -1.8931  0.8208 -1.3636
  797MOL0     H 5185   1.638   8.329   8.918  1.5408 -0.2983 -0.7988
  797MOL0     H 5186   2.593   8.101   8.322  2.7460 -0.6972 -0.8791
  797MOL0     H 5187   2.797   8.033   8.462 -2.2952 -2.2346 -2.1187
  797MOL0     H 5188   3.120   7.840   8.665 -2.1687  0.2000  0.8779
  797MOL0     H 5189   3.367   7.898   8.755 -1.1294 -2.0634 -0.3609
  797MOL0     H 5190   4.686   7.687   8.583  0.1459 -0.9127 -0.7134
  797MOL0     H 5191   4.902   7.624   8.583 -3.8810 -0.3461 -0.5899
  797MOL0     H 5192   5.306   7.585   8.513 -0.3355 -1.3775 -1.8262
  797MOL0     H 5193   5.552   7.526   8.528  1.4451  1.0004 -0.2864
  797MOL0     H 5194   5.843   7.692   8.792  2.1270  0.1377  0.6078
  797MOL0     H 5195   5.834   7.812   8.658 -4.1351 -0.4155 -0.0019
  797MOL0     H 5196   5.976   7.546   8.604  0.5573 -0.0700  0.4165
  797MOL0     H 5197   5.987   7.704   8.520  1.2398 -0.4584  0.4400
  797MOL0     H 5198   6.080   7.799   8.748  1.2933 -0.6514  2.2959
  797MOL0     H 5199   6.183   7.695   8.644  0.9879  2.8139  0.4792
  797MOL0     H 5200   6.229   7.654   8.872 -0.4651  1.6789 -0.1870
  797MOL0     H 5201   6.063   7.611   8.920  1.2670 -2.8695  1.2290
  797MOL0     H 5202   6.255   7.277   8.713 -0.9277  1.1987 -3.9067
  797MOL0     H 5203   5.649   7.871   8.729 -1.5713 -1.5952  3.2194
  797MOL0     H 5204   5.412   7.948   8.736 -0.4702  0.5264 -0.2189
  798MOL0     O 5205   7.437  10.239   6.059 -0.2588  1.0886 -0.0942
  798MOL0     C 5206   7.491  10.339   6.100  0.0605 -0.3810 -0.0628
  798MOL0     O 5207   7.448  10.418   6.202 -1.2074  0.1010  0.4527
  798MOL0     C 5208   7.343  10.394   6.284  0.6820 -0.0290 -0.2741
  798MOL0     C 5209   7.277  10.506   6.346 -0.2024  0.4439 -0.1236
  798MOL0     C 5210   7.168  10.486   6.433 -0.2317 -0.9284  0.9759
  798MOL0     C 5211   7.123  10.353   6.462 -0.8102 -0.7269  0.6145
  798MOL0     O 5212   7.017  10.350   6.548  0.5405 -0.0564  0.1568
  798MOL0     C 5213   6.937  10.230   6.542  0.6033  0.0125  1.1063
  798MOL0     C 5214   6.786  10.252   6.537 -0.6280 -0.0885 -0.6419
  798MOL0     C 5215   6.712  10.121   6.509  0.1556  0.4723  0.8153
  798MOL0     C 5216   6.565  10.123   6.538  0.0730 -0.9395  0.4763
  798MOL0     C 5217   6.488  10.001   6.478  0.3122  0.9824 -0.4083
  798MOL0     C 5218   6.513   9.888   6.579  0.1752 -0.6210 -0.2155
  798MOL0     C 5219   6.435   9.764   6.544  1.3403  0.4657  0.7297
  798MOL0     C 5220   6.466   9.696   6.410 -0.4975  0.2021 -1.2165
  798MOL0     N 5221   6.607   9.648   6.421  0.0962  0.9705  0.4109
  798MOL0     C 5222   6.661   9.526   6.459 -0.3529  0.6300 -0.3264
  798MOL0     C 5223   6.793   9.528   6.452 -0.2686 -0.1742 -0.0229
  798MOL0     C 5224   6.872   9.411   6.485  0.0754 -0.4144  0.6386
  798MOL0     C 5225   7.022   9.430   6.461 -0.1204 -0.4772  0.3434
  798MOL0     C 5226   7.097   9.309   6.515  0.2644  0.7460  0.5679
  798MOL0     C 5227   7.243   9.333   6.489  1.3665 -0.1562  1.3529
  798MOL0     O 5228   7.316   9.228   6.552  0.5801  0.9242  0.7567
  798MOL0     C 5229   7.451   9.219   6.515 -0.4528 -0.0642  0.6784
  798MOL0     C 5230   7.529   9.172   6.612 -0.0730 -0.2314 -0.7913
  798MOL0     C 5231   7.673   9.183   6.602 -0.4103  0.6081 -0.1902
  798MOL0     C 5232   7.735   9.226   6.484  0.4569  0.2055  0.2641
  798MOL0     C 5233   7.880   9.229   6.469  1.4090 -0.6612  0.1496
  798MOL0     O 5234   7.924   9.264   6.347 -0.1147 -0.4555 -0.0703
  798MOL0     C 5235   8.055   9.267   6.321 -0.1991  0.1075 -0.5359
  798MOL0     C 5236   8.099   9.189   6.206  0.6698  0.3440  0.2156
  798MOL0     C 5237   8.233   9.183   6.174 -0.0063  0.4816  0.1208
  798MOL0     C 5238   8.330   9.251   6.246 -0.7092 -0.8795 -1.1696
  798MOL0     O 5239   8.461   9.250   6.207 -0.4966  0.5671  0.4181
  798MOL0     C 5240   8.538   9.369   6.243 -0.1738 -0.4511 -0.5618
  798MOL0     C 5241   8.674   9.356   6.167 -0.3102  0.5594 -0.5891
  798MOL0     C 5242   8.782   9.459   6.178 -0.8653  0.3594  0.1783
  798MOL0     C 5243   8.917   9.436   6.098 -0.0849  0.2731  0.3225
  798MOL0     C 5244   8.995   9.313   6.121  0.0937 -0.3769 -0.2190
  798MOL0     C 5245   9.095   9.295   6.013 -0.1376 -1.2358  1.0807
  798MOL0     C 5246   9.203   9.189   6.028  1.3913 -0.7338  0.0834
  798MOL0     C 5247   9.307   9.200   5.917  0.0165 -0.0137 -0.6622
  798MOL0    Cl 5248   9.258   9.111   5.778  0.4675  0.0521  0.4866
  798MOL0     C 5249   8.289   9.314   6.362  0.5221  0.4552 -0.4491
  798MOL0     C 5250   8.153   9.323   6.398 -0.3131  0.4655 -0.0448
  798MOL0     O 5251   7.945   9.192   6.567  0.7312 -0.2786 -0.7223
  798MOL0     C 5252   7.652   9.259   6.384  0.3627  0.1076  0.3249
  798MOL0     C 5253   7.512   9.260   6.394 -1.0361 -0.4691 -0.0379
  798MOL0     N 5254   6.827   9.644   6.380  0.6587  0.3421  1.1110
  798MOL0     N 5255   6.716   9.712   6.367  0.6487 -0.3599  0.6108
  798MOL0     C 5256   7.204  10.245   6.413  0.5597  0.2830 -0.1055
  798MOL0     C 5257   7.314  10.262   6.325 -0.7293 -0.8001  0.8032
  798MOL0     C 5258   7.625  10.369   6.049  1.5055  0.1686  0.5628
  798MOL0     C 5259   7.673  10.297   5.940  0.1626 -0.4255 -0.5145
  798MOL0     C 5260   7.799  10.325   5.881  0.1040 -0.1341 -0.1068
  798MOL0     C 5261   7.867  10.438   5.917 -0.4922 -0.4240 -0.2731
  798MOL0     O 5262   7.988  10.460   5.853  0.4397 -0.6490 -0.3189
  798MOL0     C 5263   8.091  10.521   5.945  0.4643  0.2464  0.0327
  798MOL0     C 5264   8.230  10.478   5.888  0.2439 -0.0797 -0.7531
  798MOL0     C 5265   8.257  10.322   5.898  0.1286 -0.3198 -0.7432
  798MOL0     C 5266   8.407  10.287   5.893 -0.3914 -1.9067  0.4528
  798MOL0     C 5267   8.475  10.356   5.780  0.1115 -0.0570  0.4827
  798MOL0     C 5268   8.533  10.404   5.685  0.9525  0.7380  0.2599
  798MOL0     C 5269   7.814  10.515   6.028  0.2064  0.9811  0.4428
  798MOL0     C 5270   7.699  10.479   6.098 -0.3244  0.0019 -1.1715
  798MOL0     H 5271   7.305  10.610   6.337  0.9048  0.4887  2.6752
  798MOL0     H 5272   7.105  10.564   6.475 -1.1668 -1.8319  1.2785
  798MOL0     H 5273   6.959  10.167   6.629  4.8221  2.1512  1.8804
  798MOL0     H 5274   6.969  10.176   6.453  0.8699 -1.5688  2.1240
  798MOL0     H 5275   6.757  10.327   6.463 -1.2317 -0.5700 -0.8995
  798MOL0     H 5276   6.757  10.300   6.631  3.6359  4.6988 -1.3167
  798MOL0     H 5277   6.743  10.037   6.573  2.8994  0.9472  0.2335
  798MOL0     H 5278   6.726  10.086   6.406  1.7884  0.0588  1.1492
  798MOL0     H 5279   6.545  10.129   6.645 -0.8809  4.0718  0.2439
  798MOL0     H 5280   6.545  10.222   6.497  1.2848  0.4155  2.9670
  798MOL0     H 5281   6.530   9.966   6.383  0.8229 -1.8764  0.7654
  798MOL0     H 5282   6.381  10.024   6.475  0.5708  2.4918  0.6799
  798MOL0     H 5283   6.480   9.919   6.679 -0.3644 -0.6243 -0.3901
  798MOL0     H 5284   6.616   9.853   6.588  1.6244  2.5371 -2.5395
  798MOL0     H 5285   6.466   9.696   6.623  3.1354  1.9409  1.3608
  798MOL0     H 5286   6.329   9.791   6.549  1.0390  0.0748 -1.8975
  798MOL0     H 5287   6.443   9.755   6.321 -2.8019  0.1537 -0.7241
  798MOL0     H 5288   6.396   9.612   6.410  0.4673 -0.7435  1.8428
  798MOL0     H 5289   6.605   9.439   6.493  1.9545 -1.0678 -0.6464
  798MOL0     H 5290   6.829   9.324   6.435 -1.8264 -0.2545  1.8945
  798MOL0     H 5291   6.866   9.396   6.593 -0.2486  0.7176  0.7955
  798MOL0     H 5292   7.060   9.514   6.519 -1.6401 -0.2700  1.0999
  798MOL0     H 5293   7.044   9.443   6.355  2.2449 -1.4277  0.6467
  798MOL0     H 5294   7.081   9.298   6.623 -0.6678 -3.7793  0.1699
  798MOL0     H 5295   7.070   9.215   6.467  1.0895  0.7214  0.1359
  798MOL0     H 5296   7.273   9.434   6.519  0.9867  0.1511  0.7167
  798MOL0     H 5297   7.247   9.349   6.381 -0.7515 -0.9181  1.1298
  798MOL0     H 5298   7.489   9.156   6.712 -2.5257  3.2304 -1.0241
  798MOL0     H 5299   7.728   9.151   6.689  1.1925  3.3724 -0.0524
  798MOL0     H 5300   8.024   9.146   6.140  0.0391 -0.1025  1.1966
  798MOL0     H 5301   8.264   9.137   6.081 -0.9466 -0.5569  0.2987
  798MOL0     H 5302   8.545   9.383   6.352 -0.6483  3.2933 -0.8878
  798MOL0     H 5303   8.479   9.452   6.204 -1.9383 -0.7121  1.3933
  798MOL0     H 5304   8.659   9.348   6.059  0.6078 -0.2820 -0.6658
  798MOL0     H 5305   8.706   9.253   6.186 -0.3045  0.3331 -1.7537
  798MOL0     H 5306   8.818   9.454   6.281  0.5858  1.4145 -0.2356
  798MOL0     H 5307   8.745   9.561   6.162  0.9747  1.4418  2.2042
  798MOL0     H 5308   8.894   9.449   5.992 -1.9214 -1.7871  0.3952
  798MOL0     H 5309   8.972   9.525   6.128 -1.1802  0.7626  0.9787
  798MOL0     H 5310   8.926   9.230   6.105 -0.8237  0.8476 -3.4901
  798MOL0     H 5311   9.034   9.313   6.223 -2.2615  0.1263  0.7557
  798MOL0     H 5312   9.149   9.389   5.997 -2.6332 -0.2062 -2.2685
  798MOL0     H 5313   9.030   9.272   5.928 -1.2322 -0.0388  1.5663
  798MOL0     H 5314   9.235   9.181   6.133 -2.1798  0.6577  1.4220
  798MOL0     H 5315   9.146   9.102   5.997  0.6970  0.6261 -2.7380
  798MOL0     H 5316   9.404   9.171   5.957 -0.5733 -1.8506 -0.4659
  798MOL0     H 5317   9.323   9.303   5.885  1.3794 -0.6961 -2.3958
  798MOL0     H 5318   8.361   9.340   6.439  0.1517 -3.2821  1.3674
  798MOL0     H 5319   8.131   9.378   6.489  0.7370  1.6784 -0.4888
  798MOL0     H 5320   7.699   9.280   6.289  0.3507 -1.4388 -0.0443
  798MOL0     H 5321   7.465   9.313   6.311  0.3639  1.5047  0.3624
  798MOL0     H 5322   7.190  10.146   6.456 -3.1034  0.6038 -0.2138
  798MOL0     H 5323   7.364  10.176   6.282 -0.2807 -1.0952  1.8795
  798MOL0     H 5324   7.611  10.218   5.898 -0.4971 -0.3214  0.2412
  798MOL0     H 5325   7.827  10.277   5.787  1.1106  3.3077 -1.7464
  798MOL0     H 5326   8.074  10.481   6.045  2.0690  3.8621  1.9552
  798MOL0     H 5327   8.080  10.630   5.952 -1.6157  0.0918 -0.1846
  798MOL0     H 5328   8.253  10.519   5.789  3.2906  2.8833  0.9541
  798MOL0     H 5329   8.299  10.536   5.950 -1.6073 -2.2174  3.7377
  798MOL0     H 5330   8.205  10.265   5.820  0.3429 -2.8742  0.8625
  798MOL0     H 5331   8.214  10.287   5.992  0.3386 -2.9372 -1.5416
  798MOL0     H 5332   8.451  10.313   5.990 -3.1946 -0.4396  1.4590
  798MOL0     H 5333   8.415  10.178   5.887  2.1073 -1.6768 -1.7024
  798MOL0     H 5334   8.571  10.457   5.599  0.7919  3.2816  1.6741
  798MOL0     H 5335   7.872  10.601   6.061  2.8640 -1.2586  2.0396
  798MOL0     H 5336   7.662  10.537   6.182 -1.7141 -1.2333 -0.8861
  799MOL0     O 5337   7.328   2.112   4.219  0.0437 -0.0931 -0.0286
  799MOL0     C 5338   7.366   2.100   4.334 -0.3223  0.8038 -0.7904
  799MOL0     O 5339   7.297   2.040   4.436  0.5715  0.1239  0.5487
  799MOL0     C 5340   7.173   2.004   4.396  0.2908  0.0664 -0.6609
  799MOL0     C 5341   7.148   1.896   4.305  0.2420 -0.0561  0.0481
  799MOL0     C 5342   7.019   1.845   4.292  1.0854  0.3407 -0.5062
  799MOL0     C 5343   6.912   1.901   4.362  0.2142 -1.0687 -0.7824
  799MOL0     O 5344   6.778   1.876   4.346  0.8557 -0.2182 -0.3826
  799MOL0     C 5345   6.743   1.751   4.283 -0.0454 -0.7091 -0.2566
  799MOL0     C 5346   6.717   1.787   4.135  0.4639 -0.5394  0.2697
  799MOL0     C 5347   6.575   1.832   4.103 -0.5838  0.1201  0.2528
  799MOL0     C 5348   6.466   1.731   4.135  0.6122 -0.6759 -0.6487
  799MOL0     C 5349   6.334   1.777   4.057 -0.6375 -0.6444  0.0679
  799MOL0     C 5350   6.211   1.685   4.083  0.6945  0.3654 -0.7814
  799MOL0     C 5351   6.101   1.705   3.977 -0.5068 -0.1088  0.4213
  799MOL0     C 5352   6.028   1.839   3.979 -0.3599 -1.3691  0.4436
  799MOL0     N 5353   5.965   1.845   4.107  1.1361 -0.4349 -0.0692
  799MOL0     C 5354   5.843   1.777   4.134 -0.1201 -0.7186 -0.1474
  799MOL0     C 5355   5.799   1.844   4.243 -0.3632 -0.1538  0.5478
  799MOL0     C 5356   5.658   1.816   4.290 -0.6171  0.2172 -0.5488
  799MOL0     C 5357   5.633   1.676   4.346  0.4694 -0.1482 -0.6186
  799MOL0     C 5358   5.479   1.649   4.353 -0.1710  0.3479  0.4019
  799MOL0     C 5359   5.418   1.635   4.218 -0.2322 -0.1919  0.2085
  799MOL0     O 5360   5.303   1.553   4.224 -0.7565 -0.1461 -0.1501
  799MOL0     C 5361   5.256   1.515   4.102  0.5556 -0.5755 -0.3914
  799MOL0     C 5362   5.151   1.417   4.108 -0.0164 -0.3450  0.0269
  799MOL0     C 5363   5.087   1.384   3.987 -0.3998  0.0092  0.4466
  799MOL0     C 5364   5.126   1.437   3.863 -0.4222 -0.0525  0.4968
  799MOL0     C 5365   5.049   1.410   3.739  0.5339 -0.4949  0.0923
  799MOL0     O 5366   4.926   1.370   3.771  0.3017 -1.2575  0.5820
  799MOL0     C 5367   4.850   1.335   3.666 -0.1290 -0.3750 -0.4498
  799MOL0     C 5368   4.831   1.200   3.637  0.4398 -0.4830  0.3394
  799MOL0     C 5369   4.750   1.160   3.534 -0.6324 -0.6235 -0.1437
  799MOL0     C 5370   4.678   1.253   3.449 -0.6514  1.0811 -0.0960
  799MOL0     O 5371   4.610   1.197   3.336  0.0591  0.3117 -1.0344
  799MOL0     C 5372   4.589   1.285   3.227 -0.0566  0.2641  0.2220
  799MOL0     C 5373   4.525   1.227   3.106  0.1813  0.1004 -0.2374
  799MOL0     C 5374   4.484   1.346   3.016 -0.7916 -0.3348 -0.4012
  799MOL0     C 5375   4.425   1.292   2.885  0.6466  0.9541  0.4491
  799MOL0     C 5376   4.349   1.401   2.820 -0.7636  0.4571 -0.3989
  799MOL0     C 5377   4.296   1.352   2.684 -0.5142  0.1008  0.1101
  799MOL0     C 5378   4.179   1.451   2.653 -0.7385 -0.1659  0.2713
  799MOL0     C 5379   4.116   1.425   2.512  0.1377  0.0043 -0.4993
  799MOL0    Cl 5380   4.015   1.564   2.466 -0.0513  0.0128 -0.2888
  799MOL0     C 5381   4.699   1.387   3.486 -0.0126 -1.3030  1.9135
  799MOL0     C 5382   4.784   1.433   3.582  0.2929 -0.2008 -0.2815
  799MOL0     O 5383   5.078   1.447   3.626 -0.4143 -0.6226  0.4554
  799MOL0     C 5384   5.231   1.533   3.856 -0.1202  0.3089 -0.7679
  799MOL0     C 5385   5.292   1.569   3.975 -0.1629 -0.0312  0.0828
  799MOL0     N 5386   5.897   1.943   4.285 -0.6897 -0.2457  0.0539
  799MOL0     N 5387   5.996   1.928   4.207 -0.6601 -1.3530  0.4358
  799MOL0     C 5388   6.938   2.008   4.447  0.1454 -0.8072 -0.1145
  799MOL0     C 5389   7.066   2.066   4.461 -0.1395 -0.2902  0.4009
  799MOL0     C 5390   7.487   2.171   4.371  0.0771 -0.3466 -0.8627
  799MOL0     C 5391   7.604   2.190   4.290 -0.0950 -0.6309 -0.7377
  799MOL0     C 5392   7.715   2.260   4.346 -0.5882 -0.0303 -0.1819
  799MOL0     C 5393   7.704   2.300   4.482 -0.1486 -0.1285 -0.5416
  799MOL0     O 5394   7.806   2.365   4.556 -0.2973 -0.1514  0.5042
  799MOL0     C 5395   7.945   2.344   4.525  0.4985  0.0970 -0.4967
  799MOL0     C 5396   7.991   2.215   4.582  0.0478  0.6343  0.4212
  799MOL0     C 5397   8.152   2.197   4.575  0.5997 -0.1369  0.3390
  799MOL0     C 5398   8.210   2.084   4.662  0.2899  0.3468 -0.0914
  799MOL0     C 5399   8.142   1.956   4.624  0.8651 -0.2091 -0.4641
  799MOL0     C 5400   8.076   1.858   4.584 -0.2287  0.6415 -0.6312
  799MOL0     C 5401   7.597   2.287   4.563  0.3861  0.7350 -0.0721
  799MOL0     C 5402   7.494   2.224   4.502  0.8511  0.8566 -0.2019
  799MOL0     H 5403   7.225   1.845   4.248  1.8435  1.6516  0.6274
  799MOL0     H 5404   7.007   1.763   4.221  1.5226  0.3021 -0.5420
  799MOL0     H 5405   6.669   1.684   4.328  1.1687 -0.6641  1.9680
  799MOL0     H 5406   6.831   1.687   4.296  2.2514  2.4536  1.1797
  799MOL0     H 5407   6.739   1.704   4.067  2.7708 -0.0658  0.3439
  799MOL0     H 5408   6.788   1.859   4.094  0.5723 -1.0436 -0.4510
  799MOL0     H 5409   6.572   1.862   3.998 -3.9817 -0.5647  0.0331
  799MOL0     H 5410   6.557   1.926   4.155  0.1489  0.1480  0.4738
  799MOL0     H 5411   6.501   1.631   4.107  0.6004 -1.5590  2.1163
  799MOL0     H 5412   6.456   1.740   4.244  3.7009  1.4800 -0.4163
  799MOL0     H 5413   6.359   1.768   3.951 -2.4007 -3.0436 -0.2327
  799MOL0     H 5414   6.317   1.881   4.087  1.5599  0.4690 -2.1526
  799MOL0     H 5415   6.170   1.695   4.183 -1.4795 -2.4106 -1.2808
  799MOL0     H 5416   6.247   1.583   4.069 -0.4969 -0.1343 -0.2301
  799MOL0     H 5417   6.141   1.689   3.876 -1.8515 -0.6112 -0.0574
  799MOL0     H 5418   6.025   1.626   3.969 -1.1865  0.4924  0.8469
  799MOL0     H 5419   5.956   1.850   3.898  1.3880 -2.0817 -1.2693
  799MOL0     H 5420   6.099   1.922   3.977 -1.6179 -0.2343  1.2462
  799MOL0     H 5421   5.792   1.692   4.091 -0.6143  0.0260 -1.0894
  799MOL0     H 5422   5.583   1.846   4.217 -2.6201  1.7672  1.9542
  799MOL0     H 5423   5.643   1.887   4.372 -1.7422 -1.2185  0.5285
  799MOL0     H 5424   5.669   1.682   4.449  0.3455 -3.4544 -0.2587
  799MOL0     H 5425   5.689   1.600   4.289  2.1560  1.8855 -1.8258
  799MOL0     H 5426   5.453   1.559   4.411  0.3840 -0.6677 -0.8727
  799MOL0     H 5427   5.434   1.725   4.418  2.3052 -1.3656  4.5670
  799MOL0     H 5428   5.496   1.585   4.159 -0.2470 -0.6553  0.5687
  799MOL0     H 5429   5.398   1.728   4.165  1.0084 -0.0806 -0.1013
  799MOL0     H 5430   5.122   1.381   4.206  0.5693  3.5474  1.8153
  799MOL0     H 5431   5.015   1.303   3.993  2.2840 -2.5502  0.2356
  799MOL0     H 5432   4.877   1.116   3.688  0.8407  0.1926  1.1092
  799MOL0     H 5433   4.744   1.055   3.504  1.3450 -0.3649 -1.6103
  799MOL0     H 5434   4.681   1.332   3.189 -0.0946  0.5974  0.5375
  799MOL0     H 5435   4.528   1.374   3.245  0.0003  0.4580 -0.5179
  799MOL0     H 5436   4.437   1.166   3.131 -0.6215 -0.4663 -3.8759
  799MOL0     H 5437   4.593   1.162   3.050 -1.3872 -1.6560 -0.2108
  799MOL0     H 5438   4.567   1.411   2.988 -0.6194 -0.7355 -0.8413
  799MOL0     H 5439   4.412   1.416   3.059 -1.0333  3.1899 -5.5622
  799MOL0     H 5440   4.511   1.260   2.824  2.4176  1.3405  2.5975
  799MOL0     H 5441   4.369   1.199   2.899  2.2601 -0.6772 -2.7609
  799MOL0     H 5442   4.413   1.489   2.809  1.4324 -0.9003  0.8642
  799MOL0     H 5443   4.268   1.422   2.891 -3.2895 -1.3250 -2.5397
  799MOL0     H 5444   4.255   1.251   2.697 -0.0907  0.0451  1.0905
  799MOL0     H 5445   4.378   1.375   2.615  0.3143 -1.2755  0.6034
  799MOL0     H 5446   4.104   1.442   2.732  0.6090  1.5672  1.8387
  799MOL0     H 5447   4.226   1.550   2.653 -0.6392 -0.2089 -0.6741
  799MOL0     H 5448   4.062   1.330   2.508 -2.8354  1.5757 -0.8685
  799MOL0     H 5449   4.207   1.427   2.451 -2.0973  1.9189 -4.1403
  799MOL0     H 5450   4.635   1.451   3.426 -0.1966 -0.9326  2.4979
  799MOL0     H 5451   4.818   1.535   3.596  0.1585  0.0860 -1.8604
  799MOL0     H 5452   5.262   1.591   3.770 -0.2756 -0.5925 -1.4419
  799MOL0     H 5453   5.366   1.647   3.959 -1.7222  0.9227 -3.3076
  799MOL0     H 5454   6.856   2.053   4.501 -0.7251  0.0433 -2.0394
  799MOL0     H 5455   7.082   2.147   4.531 -1.7338  0.1825  0.2549
  799MOL0     H 5456   7.606   2.156   4.187  0.8585 -0.2302 -0.8594
  799MOL0     H 5457   7.807   2.287   4.296  0.4756 -0.2398  1.5876
  799MOL0     H 5458   8.001   2.430   4.564 -2.0232  0.9638  1.4523
  799MOL0     H 5459   7.966   2.346   4.417 -3.1152 -1.5144 -1.3842
  799MOL0     H 5460   7.960   2.208   4.687 -1.7961  0.6623 -0.0791
  799MOL0     H 5461   7.936   2.134   4.533  2.8736  0.2389 -2.4238
  799MOL0     H 5462   8.206   2.291   4.596  0.8906  0.0753 -1.2232
  799MOL0     H 5463   8.193   2.181   4.475  1.1260  0.0895  0.5111
  799MOL0     H 5464   8.318   2.085   4.647  0.4756  4.3583  0.5634
  799MOL0     H 5465   8.199   2.096   4.770 -0.0606 -1.4360  0.1038
  799MOL0     H 5466   8.014   1.776   4.555  2.5721 -1.6710 -0.5964
  799MOL0     H 5467   7.606   2.324   4.665 -0.0475 -1.9322  1.0305
  799MOL0     H 5468   7.411   2.220   4.572  2.0395  3.7385  1.5643
  800MOL0     O 5469   1.055   9.717   3.490 -0.1849 -0.2483  0.0463
  800MOL0     C 5470   1.174   9.694   3.498  0.3692 -0.5355 -0.7809
  800MOL0     O 5471   1.231   9.571   3.481  0.0680 -0.1919  0.2915
  800MOL0     C 5472   1.141   9.478   3.435  0.3140  0.4738 -0.3858
  800MOL0     C 5473   1.104   9.378   3.526 -0.1899  0.0848  0.9410
  800MOL0     C 5474   1.014   9.276   3.488 -0.3201  0.6197  0.3086
  800MOL0     C 5475   0.962   9.273   3.348  0.7592 -0.4937  0.5145
  800MOL0     O 5476   0.870   9.175   3.319 -0.3439  0.4036  0.2007
  800MOL0     C 5477   0.821   9.089   3.416 -0.5889 -0.3580 -0.0992
  800MOL0     C 5478   0.711   9.003   3.361  0.1723 -0.1266  0.2540
  800MOL0     C 5479   0.648   8.900   3.457  0.1920 -0.3282  0.0877
  800MOL0     C 5480   0.530   8.821   3.392  0.3790  1.0409  0.4056
  800MOL0     C 5481   0.449   8.729   3.478  1.3529  0.5221 -0.0685
  800MOL0     C 5482   0.374   8.622   3.380  0.0212 -0.1337 -0.1569
  800MOL0     C 5483   0.271   8.536   3.463  0.3711 -0.9298 -0.3469
  800MOL0     C 5484   0.130   8.603   3.462 -0.4770  0.5697 -0.0550
  800MOL0     N 5485   0.038   8.520   3.541  0.0095  0.4719 -0.3623
  800MOL0     C 5486  -0.030   8.548   3.660 -0.6112 -0.2445  0.8228
  800MOL0     C 5487  -0.112   8.451   3.677  0.1828  0.7241  0.5497
  800MOL0     C 5488  -0.192   8.411   3.798 -0.7351  0.6308  0.3256
  800MOL0     C 5489  -0.238   8.541   3.875  0.1011 -0.2245  0.5763
  800MOL0     C 5490  -0.368   8.530   3.955 -0.4553  1.1809 -0.0141
  800MOL0     C 5491  -0.376   8.413   4.049 -1.3033  0.9177 -0.5570
  800MOL0     O 5492  -0.474   8.428   4.149 -0.5188  0.2479 -0.3405
  800MOL0     C 5493  -0.604   8.378   4.128  0.0437 -0.4433 -1.0134
  800MOL0     C 5494  -0.693   8.457   4.199  0.6986 -0.0346 -0.4779
  800MOL0     C 5495  -0.832   8.437   4.185  0.9502  0.1226  0.6590
  800MOL0     C 5496  -0.875   8.316   4.117  0.4961 -0.0109  0.4505
  800MOL0     C 5497  -1.013   8.278   4.126 -0.3077 -0.6938 -0.2089
  800MOL0     O 5498  -1.062   8.191   4.032 -0.4794  0.1565  0.7955
  800MOL0     C 5499  -1.193   8.141   4.050 -0.2067  0.1338 -0.1072
  800MOL0     C 5500  -1.228   8.090   4.175  0.4589  0.0530 -0.4137
  800MOL0     C 5501  -1.351   8.011   4.175  0.8095 -0.1776  0.5381
  800MOL0     C 5502  -1.436   7.984   4.065 -1.3735  0.3018 -0.5460
  800MOL0     O 5503  -1.549   7.915   4.063 -0.2379  0.6716  0.1572
  800MOL0     C 5504  -1.598   7.848   4.185  0.1979 -0.1384  0.3012
  800MOL0     C 5505  -1.726   7.773   4.135  0.1289 -0.3979 -0.1244
  800MOL0     C 5506  -1.776   7.669   4.234 -0.4203 -0.3543 -0.2164
  800MOL0     C 5507  -1.926   7.641   4.200  0.4717  0.2838  0.5260
  800MOL0     C 5508  -1.986   7.524   4.279 -1.2385 -0.4544  0.0212
  800MOL0     C 5509  -2.141   7.531   4.267 -0.1392  0.8521  0.1388
  800MOL0     C 5510  -2.173   7.476   4.129 -0.0052 -0.9569  0.0417
  800MOL0     C 5511  -2.157   7.330   4.106 -0.2430 -0.9348  0.3509
  800MOL0    Cl 5512  -2.310   7.224   4.093  0.1773 -0.5098  0.0185
  800MOL0     C 5513  -1.389   8.038   3.946 -0.9821 -0.1418  0.5912
  800MOL0     C 5514  -1.272   8.111   3.939 -0.6020 -0.5832 -0.5090
  800MOL0     O 5515  -1.082   8.326   4.217  0.3751  0.2544  0.2206
  800MOL0     C 5516  -0.786   8.246   4.040 -0.6072 -0.2242  0.2056
  800MOL0     C 5517  -0.646   8.271   4.043  0.0056  0.5229  0.3446
  800MOL0     N 5518  -0.095   8.358   3.565  0.1369 -0.3449  0.4490
  800MOL0     N 5519  -0.005   8.403   3.487 -0.0062 -0.8296  0.4090
  800MOL0     C 5520   1.003   9.374   3.259  0.1601 -0.5561  1.0950
  800MOL0     C 5521   1.089   9.476   3.299 -0.2752  0.0096 -0.5172
  800MOL0     C 5522   1.263   9.813   3.535  0.5498  0.5660 -0.1691
  800MOL0     C 5523   1.224   9.946   3.508 -0.5260  0.5387  0.2724
  800MOL0     C 5524   1.316  10.051   3.528  0.8641  0.1832 -0.3790
  800MOL0     C 5525   1.442  10.029   3.586 -0.2533 -0.6165  0.3252
  800MOL0     O 5526   1.539  10.125   3.605  0.2973 -0.3323 -0.1758
  800MOL0     C 5527   1.512  10.265   3.573  0.3453  0.7225  0.6056
  800MOL0     C 5528   1.621  10.362   3.631  0.3792  0.0035 -0.7563
  800MOL0     C 5529   1.596  10.398   3.777  0.3424 -0.6159 -1.6520
  800MOL0     C 5530   1.663  10.527   3.828  0.0703 -0.1302  0.3763
  800MOL0     C 5531   1.627  10.568   3.964 -0.2563  0.7482  0.2609
  800MOL0     C 5532   1.565  10.604   4.060  0.5010 -0.6359 -0.6585
  800MOL0     C 5533   1.479   9.901   3.617  0.2379 -0.2417 -0.1596
  800MOL0     C 5534   1.391   9.794   3.595  0.3916  0.3768 -0.3564
  800MOL0     H 5535   1.159   9.403   3.616 -1.5833 -0.5103  2.0016
  800MOL0     H 5536   0.993   9.196   3.558 -0.4890 -0.7164 -1.2097
  800MOL0     H 5537   0.784   9.140   3.506 -0.6473 -1.9820  0.8272
  800MOL0     H 5538   0.898   9.026   3.463 -1.2567  1.5266  4.0119
  800MOL0     H 5539   0.743   8.950   3.270 -1.2415  1.8070 -1.4717
  800MOL0     H 5540   0.619   9.053   3.329  1.1472  1.0227 -0.8789
  800MOL0     H 5541   0.617   8.959   3.543 -1.4385  0.9363 -1.3291
  800MOL0     H 5542   0.725   8.829   3.491 -1.8555 -1.6268  2.3442
  800MOL0     H 5543   0.464   8.886   3.335  1.2012  2.1023  0.6207
  800MOL0     H 5544   0.578   8.756   3.319  1.8209  0.7508  1.5577
  800MOL0     H 5545   0.383   8.799   3.529 -2.6268 -2.5297 -0.5392
  800MOL0     H 5546   0.519   8.668   3.536  0.8207 -0.4595 -0.4314
  800MOL0     H 5547   0.436   8.542   3.337  0.4296 -0.4412  0.9623
  800MOL0     H 5548   0.327   8.663   3.290  1.5815  0.7788 -0.6048
  800MOL0     H 5549   0.268   8.436   3.418 -0.4118 -0.9501 -0.2730
  800MOL0     H 5550   0.305   8.519   3.565 -1.0277 -1.2588  0.0864
  800MOL0     H 5551   0.091   8.608   3.360 -1.9743 -0.0636  0.4578
  800MOL0     H 5552   0.138   8.699   3.514 -3.4593  2.1069 -2.2302
  800MOL0     H 5553  -0.007   8.632   3.725  0.7566  1.3575 -1.5632
  800MOL0     H 5554  -0.137   8.338   3.859 -0.2053 -0.5570 -1.4794
  800MOL0     H 5555  -0.283   8.359   3.769 -2.3752  2.5196  1.7884
  800MOL0     H 5556  -0.260   8.615   3.798  0.9853 -1.9203 -1.3815
  800MOL0     H 5557  -0.166   8.577   3.949 -0.0058  1.4135 -0.0695
  800MOL0     H 5558  -0.392   8.626   4.002 -1.8984  0.6823  0.3157
  800MOL0     H 5559  -0.446   8.510   3.881  0.9600  0.7990 -1.4483
  800MOL0     H 5560  -0.282   8.393   4.101 -2.7259  0.4865  2.0148
  800MOL0     H 5561  -0.393   8.316   4.003 -0.7093  0.9656 -0.8856
  800MOL0     H 5562  -0.650   8.541   4.252 -1.8419  0.3520  1.1393
  800MOL0     H 5563  -0.904   8.506   4.229 -2.9281 -1.6608 -2.2348
  800MOL0     H 5564  -1.174   8.098   4.269 -0.5544  0.1421  0.1837
  800MOL0     H 5565  -1.390   7.979   4.271  1.2064 -2.5725 -0.0372
  800MOL0     H 5566  -1.641   7.929   4.244 -1.5162 -0.1783 -0.7928
  800MOL0     H 5567  -1.522   7.792   4.240 -0.9714 -1.0213  1.0846
  800MOL0     H 5568  -1.711   7.724   4.039  1.8365 -1.1246  0.4718
  800MOL0     H 5569  -1.806   7.844   4.111  0.2472 -0.8898 -2.1729
  800MOL0     H 5570  -1.774   7.708   4.337  1.3773 -0.5280 -0.1525
  800MOL0     H 5571  -1.717   7.577   4.233 -3.0780 -2.5113  4.5970
  800MOL0     H 5572  -1.997   7.721   4.223 -3.2634 -1.7426 -2.7328
  800MOL0     H 5573  -1.948   7.615   4.096 -0.9309 -0.2210  0.9251
  800MOL0     H 5574  -1.967   7.539   4.385  2.9813  0.6913 -0.6989
  800MOL0     H 5575  -1.951   7.425   4.247 -1.3246 -0.2230 -0.8290
  800MOL0     H 5576  -2.197   7.622   4.292 -1.4644  0.5162 -1.4279
  800MOL0     H 5577  -2.178   7.455   4.337  1.6488 -0.3280 -0.1558
  800MOL0     H 5578  -2.281   7.495   4.125  0.2759  0.4758 -1.7768
  800MOL0     H 5579  -2.128   7.531   4.047 -0.7195 -1.2164 -0.5377
  800MOL0     H 5580  -2.103   7.285   4.189  1.4777 -1.2975 -0.9026
  800MOL0     H 5581  -2.086   7.317   4.023 -0.1450  3.7320 -0.5908
  800MOL0     H 5582  -1.441   8.019   3.853 -0.0642  1.9984 -0.4144
  800MOL0     H 5583  -1.233   8.142   3.842  0.1223  0.0362 -0.0384
  800MOL0     H 5584  -0.820   8.175   3.964  0.7934  1.4131 -2.1026
  800MOL0     H 5585  -0.578   8.214   3.980  0.8679 -0.1604  1.8589
  800MOL0     H 5586   0.950   9.370   3.164  0.9865 -3.2539  0.6653
  800MOL0     H 5587   1.104   9.562   3.234 -1.9362  0.9535  0.2772
  800MOL0     H 5588   1.137   9.975   3.450  1.1727  2.4343 -1.4989
  800MOL0     H 5589   1.283  10.147   3.490  0.5931  1.0192  1.7981
  800MOL0     H 5590   1.413  10.298   3.605 -0.3350 -0.3449 -0.3454
  800MOL0     H 5591   1.516  10.263   3.464  2.3172 -0.7694  0.6456
  800MOL0     H 5592   1.704  10.291   3.626  0.0545 -0.3337 -1.4791
  800MOL0     H 5593   1.648  10.451   3.574 -0.5533  1.6906  1.2794
  800MOL0     H 5594   1.611  10.319   3.851 -0.7139  1.9651  1.5621
  800MOL0     H 5595   1.490  10.423   3.788  0.8968  1.7610 -1.0941
  800MOL0     H 5596   1.771  10.514   3.818 -0.3807 -2.3984 -3.4129
  800MOL0     H 5597   1.619  10.605   3.766 -0.4668  0.2744  1.2442
  800MOL0     H 5598   1.497  10.659   4.122  4.1402  2.7494  0.7441
  800MOL0     H 5599   1.572   9.888   3.673  0.7957 -0.9335 -1.2062
  800MOL0     H 5600   1.428   9.698   3.629 -3.3415 -1.7990 -1.8117
  801MOL0     O 5601   3.494  11.104   5.743 -0.5330 -0.5341 -0.0727
  801MOL0     C 5602   3.593  11.027   5.754 -0.4298 -0.0141 -0.1200
  801MOL0     O 5603   3.601  10.887   5.730 -0.5687  0.2150  0.4285
  801MOL0     C 5604   3.484  10.829   5.691 -0.8223  0.5104 -0.0402
  801MOL0     C 5605   3.498  10.731   5.597 -0.1369 -1.0842 -0.0195
  801MOL0     C 5606   3.385  10.659   5.559  0.1136  0.1505  0.9635
  801MOL0     C 5607   3.254  10.693   5.606 -0.8280 -0.8143  0.2232
  801MOL0     O 5608   3.148  10.642   5.539  0.6966 -0.1262 -0.2007
  801MOL0     C 5609   3.024  10.719   5.532  0.9231 -0.6842  0.6196
  801MOL0     C 5610   2.946  10.667   5.406  0.0908  0.7245  0.1566
  801MOL0     C 5611   2.813  10.725   5.372  0.1158 -0.9160  0.8384
  801MOL0     C 5612   2.802  10.881   5.393  0.1063 -0.0986 -0.1613
  801MOL0     C 5613   2.689  10.933   5.299 -0.2831  0.2415 -0.3355
  801MOL0     C 5614   2.557  10.906   5.356  1.3223  0.3349 -0.0927
  801MOL0     C 5615   2.442  10.984   5.295  0.7138 -0.0740 -0.9338
  801MOL0     C 5616   2.443  11.135   5.287  0.7647 -0.7490  0.0890
  801MOL0     N 5617   2.461  11.201   5.414 -0.2033  0.4145 -0.2930
  801MOL0     C 5618   2.580  11.240   5.459 -0.6085 -0.9393 -0.1291
  801MOL0     C 5619   2.555  11.305   5.578 -0.0156 -0.2584  0.8676
  801MOL0     C 5620   2.653  11.372   5.672  0.0149 -0.6483 -0.3515
  801MOL0     C 5621   2.802  11.384   5.618  0.0356 -0.6382  0.1275
  801MOL0     C 5622   2.894  11.468   5.703  0.4050  0.6255 -1.1904
  801MOL0     C 5623   3.005  11.535   5.625  0.0997 -0.3251  0.2123
  801MOL0     O 5624   3.101  11.436   5.576 -0.3044  0.8998  0.4975
  801MOL0     C 5625   3.229  11.486   5.554  0.2055  0.2002 -0.1596
  801MOL0     C 5626   3.256  11.625   5.532  0.2786 -0.2005 -0.1968
  801MOL0     C 5627   3.380  11.669   5.513 -1.0604 -0.1599  0.0628
  801MOL0     C 5628   3.492  11.590   5.532 -0.4531  0.5915  0.2091
  801MOL0     C 5629   3.629  11.646   5.539  0.2617  0.5192 -0.0808
  801MOL0     O 5630   3.720  11.580   5.612  0.1377 -0.1887  0.2854
  801MOL0     C 5631   3.851  11.627   5.611  0.2918 -0.0140 -0.6835
  801MOL0     C 5632   3.936  11.652   5.503  0.3511 -0.5667  0.2978
  801MOL0     C 5633   4.080  11.670   5.508  0.2182  1.6668  0.5880
  801MOL0     C 5634   4.139  11.658   5.642  0.4823 -0.4905  0.2012
  801MOL0     O 5635   4.273  11.675   5.653  0.3847  0.8091 -0.6661
  801MOL0     C 5636   4.340  11.654   5.782 -0.5532 -0.4284 -0.2060
  801MOL0     C 5637   4.493  11.680   5.745  0.6107  0.5928  0.0727
  801MOL0     C 5638   4.571  11.673   5.875  0.0638 -0.4054  0.1130
  801MOL0     C 5639   4.600  11.531   5.930  0.0421  0.0627  1.3569
  801MOL0     C 5640   4.690  11.512   6.050 -0.1291  0.0059 -0.1911
  801MOL0     C 5641   4.822  11.589   6.039 -0.4606 -0.7303 -0.6415
  801MOL0     C 5642   4.818  11.731   6.097  0.4049  0.9694 -0.1113
  801MOL0     C 5643   4.943  11.803   6.056 -0.1260 -0.1472 -0.8333
  801MOL0    Cl 5644   4.945  11.827   5.885 -0.5607 -0.2598  0.0184
  801MOL0     C 5645   4.059  11.624   5.752  0.5677  0.6093 -0.7625
  801MOL0     C 5646   3.914  11.610   5.728 -0.1147 -0.2611 -0.4653
  801MOL0     O 5647   3.648  11.745   5.477 -0.4501  0.8013  0.3695
  801MOL0     C 5648   3.475  11.456   5.556 -0.3445 -0.0329  0.2766
  801MOL0     C 5649   3.348  11.402   5.568  0.4386  0.5661  0.2961
  801MOL0     N 5650   2.417  11.316   5.594 -0.6501 -0.2026 -0.2296
  801MOL0     N 5651   2.363  11.245   5.494 -0.0980  0.0534  0.4725
  801MOL0     C 5652   3.240  10.790   5.702  0.4884 -0.1328  0.2946
  801MOL0     C 5653   3.358  10.849   5.754 -0.6452  1.1525 -0.0346
  801MOL0     C 5654   3.721  11.088   5.791  0.1002  0.6137  0.0001
  801MOL0     C 5655   3.842  11.026   5.756  1.2176 -1.3275  0.6056
  801MOL0     C 5656   3.960  11.079   5.796 -0.5006  0.5436  0.0432
  801MOL0     C 5657   3.974  11.202   5.854  0.4292 -0.0975  0.1329
  801MOL0     O 5658   4.097  11.234   5.904 -0.7646 -0.1616  0.2851
  801MOL0     C 5659   4.133  11.206   6.039 -0.5538 -0.3304 -0.3851
  801MOL0     C 5660   4.282  11.240   6.070  0.8138 -0.4520  0.0636
  801MOL0     C 5661   4.297  11.268   6.223  0.2625  0.6593  0.3785
  801MOL0     C 5662   4.439  11.300   6.260 -0.8385 -0.2571  0.3716
  801MOL0     C 5663   4.535  11.208   6.215 -0.6171 -0.2464  0.7122
  801MOL0     C 5664   4.629  11.132   6.179 -0.8324  0.3078  0.9509
  801MOL0     C 5665   3.855  11.272   5.878  0.3453 -0.1641  0.4840
  801MOL0     C 5666   3.728  11.216   5.851  0.3169 -0.1036  0.7890
  801MOL0     H 5667   3.594  10.712   5.551 -0.2241 -1.0077 -0.2341
  801MOL0     H 5668   3.385  10.586   5.479  0.4458  1.2056 -0.0162
  801MOL0     H 5669   3.050  10.821   5.504 -0.1445 -1.0476 -2.0227
  801MOL0     H 5670   2.966  10.704   5.623 -0.9024 -2.6389 -0.7352
  801MOL0     H 5671   2.927  10.561   5.425  1.5900  0.2409 -0.9139
  801MOL0     H 5672   3.019  10.674   5.325 -0.0611  2.3763  0.1291
  801MOL0     H 5673   2.741  10.676   5.437 -0.9302  0.2302  0.5738
  801MOL0     H 5674   2.809  10.709   5.264  0.7390 -2.9083  1.0674
  801MOL0     H 5675   2.785  10.902   5.499 -0.9235 -0.2314 -0.2920
  801MOL0     H 5676   2.889  10.937   5.357 -2.3252  1.4115 -4.3375
  801MOL0     H 5677   2.695  10.877   5.205  1.3978  0.8090 -0.5865
  801MOL0     H 5678   2.706  11.040   5.285  1.3611 -0.3029 -3.2392
  801MOL0     H 5679   2.553  10.942   5.460 -0.2001  1.1683 -0.4181
  801MOL0     H 5680   2.521  10.803   5.360 -1.4241  1.2454  1.0307
  801MOL0     H 5681   2.416  10.946   5.196 -0.7201  0.3001 -0.7266
  801MOL0     H 5682   2.363  10.959   5.366  3.2602 -2.0882  1.4174
  801MOL0     H 5683   2.340  11.162   5.261  1.2062  1.0117  0.0064
  801MOL0     H 5684   2.509  11.176   5.210 -2.6640  2.0755 -1.6224
  801MOL0     H 5685   2.675  11.200   5.426 -0.1034  0.4591 -0.3940
  801MOL0     H 5686   2.656  11.324   5.770 -1.4292  3.2654  1.8623
  801MOL0     H 5687   2.618  11.473   5.697 -1.2804 -0.5404 -2.3717
  801MOL0     H 5688   2.804  11.428   5.518  0.6998 -3.4915 -1.2017
  801MOL0     H 5689   2.850  11.286   5.607  0.7499 -0.1598 -1.1337
  801MOL0     H 5690   2.843  11.556   5.744  2.0296  2.6302 -3.2152
  801MOL0     H 5691   2.937  11.401   5.778  0.1053  1.4833 -0.2286
  801MOL0     H 5692   3.056  11.610   5.686  0.1843 -1.6004  1.7949
  801MOL0     H 5693   2.966  11.589   5.538  1.0615 -0.1233 -0.1047
  801MOL0     H 5694   3.170  11.690   5.519  0.2698 -0.5635 -2.1017
  801MOL0     H 5695   3.398  11.774   5.492  1.7277 -0.4746  0.4081
  801MOL0     H 5696   3.875  11.643   5.414  0.5632 -3.8040  0.3449
  801MOL0     H 5697   4.136  11.684   5.416  0.0902 -1.1330 -0.0314
  801MOL0     H 5698   4.324  11.553   5.820 -3.4055  0.3273  0.8321
  801MOL0     H 5699   4.321  11.720   5.867  1.5568  0.0510 -0.0341
  801MOL0     H 5700   4.499  11.779   5.699  2.1222  1.4917  2.0373
  801MOL0     H 5701   4.539  11.613   5.672  0.8235  2.5506 -1.6663
  801MOL0     H 5702   4.517  11.727   5.954 -1.3649  0.7874 -1.5859
  801MOL0     H 5703   4.662  11.729   5.852 -0.2348 -0.2854 -0.8013
  801MOL0     H 5704   4.516  11.463   5.946  0.5723 -0.4802  1.9087
  801MOL0     H 5705   4.657  11.482   5.850 -2.5110 -1.2588  0.1932
  801MOL0     H 5706   4.707  11.404   6.053 -2.0463 -0.5474 -3.5252
  801MOL0     H 5707   4.635  11.554   6.134 -0.6013 -1.7676  0.4347
  801MOL0     H 5708   4.842  11.602   5.933  2.2107  7.0134  0.1577
  801MOL0     H 5709   4.895  11.537   6.101  0.3900  0.4159 -0.6562
  801MOL0     H 5710   4.734  11.787   6.056 -0.7533 -1.2390 -0.8947
  801MOL0     H 5711   4.802  11.729   6.206 -0.9321  1.0787 -0.2947
  801MOL0     H 5712   5.031  11.749   6.094  0.8111 -0.0341 -2.7337
  801MOL0     H 5713   4.944  11.899   6.110 -0.5199 -1.3872  1.5179
  801MOL0     H 5714   4.093  11.617   5.855  0.5291  0.8988 -0.7267
  801MOL0     H 5715   3.862  11.573   5.816 -3.9725  1.0193 -1.9842
  801MOL0     H 5716   3.557  11.389   5.577 -1.4495 -0.9529  1.8208
  801MOL0     H 5717   3.340  11.294   5.574 -2.0547  0.6930  0.2036
  801MOL0     H 5718   3.146  10.826   5.741 -1.3915 -2.4977 -1.7206
  801MOL0     H 5719   3.344  10.925   5.830 -0.2594  0.6756  0.5200
  801MOL0     H 5720   3.846  10.930   5.707  2.1104 -1.0754  0.1672
  801MOL0     H 5721   4.047  11.019   5.774 -0.3643 -0.7998  3.6304
  801MOL0     H 5722   4.088  11.112   6.073 -0.7326 -1.2586 -2.9737
  801MOL0     H 5723   4.073  11.283   6.088 -1.6316 -1.9580  0.9727
  801MOL0     H 5724   4.350  11.164   6.031  0.8916 -0.8196  0.8811
  801MOL0     H 5725   4.303  11.332   6.015 -3.0334 -0.0028 -0.9343
  801MOL0     H 5726   4.271  11.175   6.275  0.3751  1.1861  1.4057
  801MOL0     H 5727   4.240  11.355   6.257  0.2255  0.6289  0.3948
  801MOL0     H 5728   4.459  11.394   6.207 -2.4833  0.6485  1.2577
  801MOL0     H 5729   4.449  11.308   6.369 -0.4520 -1.9128  0.4716
  801MOL0     H 5730   4.712  11.069   6.157 -0.0002  1.8123 -0.3944
  801MOL0     H 5731   3.845  11.357   5.945 -1.7061 -0.6954  0.9248
  801MOL0     H 5732   3.643  11.279   5.874  0.6633  2.5232 -3.9950
  802MOL0     O 5733   6.693   6.914   1.366  0.8667  0.1019 -0.3088
  802MOL0     C 5734   6.630   6.887   1.468  0.1174  0.7657  0.2125
  802MOL0     O 5735   6.502   6.920   1.493  0.2789 -0.8793 -0.6080
  802MOL0     C 5736   6.431   6.964   1.386 -0.8024 -0.2987  0.1871
  802MOL0     C 5737   6.390   7.096   1.386  0.2511  0.5651 -0.0745
  802MOL0     C 5738   6.338   7.163   1.276 -0.5880 -0.3394  0.8410
  802MOL0     C 5739   6.302   7.083   1.164 -0.2188  0.3739 -0.2053
  802MOL0     O 5740   6.234   7.151   1.065 -0.5786 -0.0332 -0.0274
  802MOL0     C 5741   6.180   7.079   0.954  0.7771 -0.2952 -0.2834
  802MOL0     C 5742   6.105   7.159   0.863  0.8565 -0.1363  0.4336
  802MOL0     C 5743   5.971   7.196   0.929  0.0486  0.3243 -0.8058
  802MOL0     C 5744   5.867   7.083   0.915 -0.3464  0.4936  0.2943
  802MOL0     C 5745   5.732   7.127   0.939  0.4421 -0.5363 -0.0418
  802MOL0     C 5746   5.692   7.135   1.089 -0.1320 -1.0480  0.1695
  802MOL0     C 5747   5.535   7.148   1.099  0.8551  0.6300 -0.0488
  802MOL0     C 5748   5.492   7.202   1.238  0.1516  0.0819  0.7778
  802MOL0     N 5749   5.350   7.238   1.238  0.4748 -0.2892 -0.2913
  802MOL0     C 5750   5.252   7.141   1.255 -0.7242 -0.9329 -0.0423
  802MOL0     C 5751   5.133   7.205   1.251 -0.0965 -0.1906  1.1362
  802MOL0     C 5752   5.004   7.124   1.268 -0.6182 -0.2414 -0.1178
  802MOL0     C 5753   4.888   7.179   1.178  0.4886  0.4978  0.6211
  802MOL0     C 5754   4.758   7.204   1.253  0.2731 -0.6026 -1.2264
  802MOL0     C 5755   4.635   7.240   1.169 -0.7047 -0.1548  0.1634
  802MOL0     O 5756   4.578   7.112   1.129 -0.6462  0.4600  0.0187
  802MOL0     C 5757   4.445   7.101   1.103 -0.2420 -1.0819 -0.0843
  802MOL0     C 5758   4.398   6.991   1.035  0.5461 -0.4604  0.2366
  802MOL0     C 5759   4.259   6.971   1.017  1.1222 -0.3564 -0.7177
  802MOL0     C 5760   4.170   7.062   1.071 -0.6630  0.1517 -0.6805
  802MOL0     C 5761   4.028   7.043   1.050 -0.6870 -0.5314 -0.8959
  802MOL0     O 5762   3.957   7.160   1.050 -0.4657  0.1591  0.0672
  802MOL0     C 5763   3.816   7.154   1.043 -0.6502 -0.4013  1.2735
  802MOL0     C 5764   3.748   7.236   0.956 -0.2735 -0.1678 -1.3903
  802MOL0     C 5765   3.607   7.219   0.939 -0.2465 -0.6733 -0.5643
  802MOL0     C 5766   3.531   7.134   1.024 -0.3484 -0.6923 -0.5759
  802MOL0     O 5767   3.394   7.115   1.007  0.1538  0.1926  0.5135
  802MOL0     C 5768   3.324   7.217   0.936 -0.2567  0.1823  0.2314
  802MOL0     C 5769   3.181   7.163   0.934 -0.2835  0.9311  0.1570
  802MOL0     C 5770   3.086   7.266   0.874  0.6701  0.1720  0.1069
  802MOL0     C 5771   2.940   7.231   0.903 -0.0107  0.5542 -0.8067
  802MOL0     C 5772   2.885   7.111   0.814  0.1115  0.1420  0.7487
  802MOL0     C 5773   2.730   7.103   0.807 -0.8801 -0.2912 -0.3881
  802MOL0     C 5774   2.687   6.976   0.742 -0.9903 -0.3629  0.3315
  802MOL0     C 5775   2.565   6.911   0.811 -0.0787  0.0334 -0.8964
  802MOL0    Cl 5776   2.443   7.038   0.823 -0.6580 -0.1356  0.3514
  802MOL0     C 5777   3.600   7.069   1.127 -0.0444 -0.5956  0.0534
  802MOL0     C 5778   3.742   7.070   1.128 -0.4892 -0.7642 -0.0780
  802MOL0     O 5779   3.978   6.935   1.027 -0.0875  0.2612  0.2980
  802MOL0     C 5780   4.220   7.170   1.140  0.3290  0.1848 -0.1510
  802MOL0     C 5781   4.351   7.196   1.153 -0.2451 -0.0233 -0.8749
  802MOL0     N 5782   5.161   7.339   1.227  0.6315  0.0404 -0.7664
  802MOL0     N 5783   5.286   7.359   1.222 -0.2326 -0.1562  0.0546
  802MOL0     C 5784   6.334   6.945   1.173  0.4489 -0.3799  0.3423
  802MOL0     C 5785   6.414   6.890   1.274 -0.2607  0.3454  0.2036
  802MOL0     C 5786   6.714   6.823   1.579 -0.1632  0.1920  0.1168
  802MOL0     C 5787   6.654   6.759   1.689 -0.7740 -0.1547  0.3051
  802MOL0     C 5788   6.737   6.714   1.795 -0.0009 -0.4984 -0.4772
  802MOL0     C 5789   6.873   6.725   1.793  0.8092  0.2438  0.2133
  802MOL0     O 5790   6.939   6.674   1.901 -0.0934  0.0381  0.0887
  802MOL0     C 5791   7.072   6.715   1.922 -0.6948  0.0795 -0.9544
  802MOL0     C 5792   7.117   6.666   2.055 -0.1664  0.1468  0.0175
  802MOL0     C 5793   7.036   6.729   2.177 -0.9188 -0.7408 -0.6466
  802MOL0     C 5794   7.106   6.859   2.234 -0.2648 -0.6014  0.3390
  802MOL0     C 5795   7.239   6.848   2.287  0.1456  1.3808  1.0616
  802MOL0     C 5796   7.342   6.841   2.352  0.5454 -0.3872  0.1631
  802MOL0     C 5797   6.929   6.782   1.674  1.1010  0.1679  0.3973
  802MOL0     C 5798   6.855   6.831   1.573  0.5444  0.5575  0.2894
  802MOL0     H 5799   6.394   7.156   1.477  4.3511  2.5338 -1.3130
  802MOL0     H 5800   6.323   7.269   1.290  0.8775 -0.2858  2.3665
  802MOL0     H 5801   6.111   7.003   0.993  0.4316  0.8376  1.4098
  802MOL0     H 5802   6.267   7.039   0.900 -0.5772 -1.5288 -1.6613
  802MOL0     H 5803   6.095   7.105   0.768  0.2384 -0.3134  0.5928
  802MOL0     H 5804   6.160   7.252   0.847  1.6474 -0.4693  1.1570
  802MOL0     H 5805   5.933   7.285   0.877 -0.8042  1.0900  1.0472
  802MOL0     H 5806   5.987   7.226   1.033  2.2363 -1.7732 -0.4651
  802MOL0     H 5807   5.877   7.043   0.814  1.2160  1.2088  0.1360
  802MOL0     H 5808   5.882   6.996   0.981 -0.7817 -1.7733 -2.4338
  802MOL0     H 5809   5.664   7.070   0.875  1.1650 -0.7877 -0.6043
  802MOL0     H 5810   5.726   7.231   0.905  0.5056 -0.9126 -1.2566
  802MOL0     H 5811   5.735   7.218   1.144 -1.6840 -1.9058  2.8783
  802MOL0     H 5812   5.721   7.036   1.127  1.3955 -1.2524 -1.4352
  802MOL0     H 5813   5.493   7.212   1.020 -2.2352 -3.0456 -1.7322
  802MOL0     H 5814   5.502   7.044   1.095  1.9739  0.0469  3.1956
  802MOL0     H 5815   5.561   7.282   1.264  1.3477 -1.7987  3.9753
  802MOL0     H 5816   5.513   7.119   1.306 -0.6941  1.2888  2.5920
  802MOL0     H 5817   5.271   7.035   1.272  0.5736 -0.6720  0.2218
  802MOL0     H 5818   4.979   7.113   1.374 -3.1434  0.4341 -0.5703
  802MOL0     H 5819   5.031   7.024   1.234  0.7674  0.1738 -0.2967
  802MOL0     H 5820   4.869   7.099   1.106  1.5206  1.4665 -0.7792
  802MOL0     H 5821   4.921   7.269   1.127  0.8226 -0.5463 -1.0776
  802MOL0     H 5822   4.743   7.115   1.314  1.3189 -0.5014 -0.7908
  802MOL0     H 5823   4.780   7.276   1.332  0.0045 -2.8262  0.9988
  802MOL0     H 5824   4.658   7.292   1.076 -3.1800  1.4591  0.3478
  802MOL0     H 5825   4.569   7.296   1.237 -0.5695 -0.2232  0.3504
  802MOL0     H 5826   4.480   6.936   0.990 -1.5327 -1.5996 -2.4815
  802MOL0     H 5827   4.238   6.873   0.974 -0.3409 -0.7092  0.6902
  802MOL0     H 5828   3.820   7.287   0.894  0.4439 -0.2538 -0.6504
  802MOL0     H 5829   3.562   7.279   0.861  0.7545 -0.2587 -0.8515
  802MOL0     H 5830   3.369   7.226   0.836  0.6418 -2.2972  0.3544
  802MOL0     H 5831   3.329   7.314   0.988 -0.6332 -1.3290  3.2747
  802MOL0     H 5832   3.154   7.129   1.034 -2.1577 -1.6110 -1.1059
  802MOL0     H 5833   3.172   7.075   0.869 -2.1673  1.4783 -0.3929
  802MOL0     H 5834   3.094   7.269   0.765 -3.8396 -1.8633 -0.4975
  802MOL0     H 5835   3.097   7.370   0.906 -0.9129  0.2865  0.3994
  802MOL0     H 5836   2.925   7.212   1.009  0.4910 -1.0139 -0.9842
  802MOL0     H 5837   2.878   7.319   0.883 -2.6981 -0.5034  2.0226
  802MOL0     H 5838   2.927   7.027   0.869 -0.4257  1.4965  3.3929
  802MOL0     H 5839   2.928   7.096   0.715  0.3564  0.1400  0.8552
  802MOL0     H 5840   2.692   7.191   0.755  1.3857 -0.9709 -3.4332
  802MOL0     H 5841   2.696   7.096   0.911  0.1875 -2.1011 -0.1162
  802MOL0     H 5842   2.662   6.982   0.635 -1.5604 -3.9794  0.1546
  802MOL0     H 5843   2.772   6.909   0.729 -1.0196 -0.2289 -0.6813
  802MOL0     H 5844   2.597   6.873   0.908 -1.2621  0.0123 -0.4918
  802MOL0     H 5845   2.524   6.824   0.760 -1.7719  0.5756 -0.5374
  802MOL0     H 5846   3.553   6.997   1.193 -1.8639 -1.8928 -2.5064
  802MOL0     H 5847   3.792   7.004   1.198 -2.2661 -1.7206  0.3473
  802MOL0     H 5848   4.150   7.241   1.183 -0.9796 -1.0809 -0.1502
  802MOL0     H 5849   4.383   7.284   1.208  2.1266  0.4477 -2.8081
  802MOL0     H 5850   6.313   6.874   1.093  3.3251  0.0434 -0.9155
  802MOL0     H 5851   6.434   6.784   1.270 -2.0322 -0.0088 -0.0754
  802MOL0     H 5852   6.547   6.763   1.708 -0.6769  3.4170  0.7128
  802MOL0     H 5853   6.699   6.661   1.882  0.7783  1.9151  1.4286
  802MOL0     H 5854   7.083   6.823   1.911 -1.9513  0.2603 -0.5337
  802MOL0     H 5855   7.139   6.675   1.845 -0.3411  1.1970 -1.2460
  802MOL0     H 5856   7.111   6.557   2.057 -1.1756  0.1358 -1.7826
  802MOL0     H 5857   7.222   6.696   2.061 -0.6431  1.6651  4.5512
  802MOL0     H 5858   7.036   6.651   2.253  1.2350 -0.9751 -0.8317
  802MOL0     H 5859   6.934   6.751   2.143 -1.3738  0.4788  1.3414
  802MOL0     H 5860   7.106   6.919   2.143 -5.0975 -0.9955 -0.1967
  802MOL0     H 5861   7.047   6.920   2.303  0.7574  0.4347  0.3175
  802MOL0     H 5862   7.440   6.840   2.395  1.0091  1.3807 -0.7562
  802MOL0     H 5863   7.037   6.795   1.670  0.8806  2.0317 -0.6088
  802MOL0     H 5864   6.905   6.864   1.483 -1.2729  0.3020 -0.8734
  803MOL0     O 5865   4.189   0.578   9.075  0.1071  0.5790  0.0246
  803MOL0     C 5866   4.124   0.505   9.147  0.1226 -0.1462  0.5113
  803MOL0     O 5867   4.161   0.381   9.189  0.0686 -0.2217 -0.3371
  803MOL0     C 5868   4.291   0.345   9.165 -0.7443  0.6900  0.1221
  803MOL0     C 5869   4.398   0.376   9.243 -0.1794  0.5679 -0.3942
  803MOL0     C 5870   4.534   0.352   9.204  0.0686  0.0228  0.0077
  803MOL0     C 5871   4.568   0.289   9.093 -0.5856  0.1783 -0.0934
  803MOL0     O 5872   4.702   0.285   9.070 -0.8821 -0.8882 -0.0146
  803MOL0     C 5873   4.748   0.257   8.936  0.1178 -0.2888  0.3448
  803MOL0     C 5874   4.899   0.243   8.940 -0.2424 -0.0138 -0.3332
  803MOL0     C 5875   4.969   0.184   8.813  0.6074  0.3226  0.1156
  803MOL0     C 5876   4.940   0.029   8.795  0.0624 -0.3037 -0.0608
  803MOL0     C 5877   5.024  -0.049   8.897 -0.0312  0.1185 -0.4215
  803MOL0     C 5878   5.011  -0.206   8.888 -0.6524  0.3527 -0.0487
  803MOL0     C 5879   4.861  -0.241   8.891 -0.0065 -0.6962 -0.3255
  803MOL0     C 5880   4.824  -0.377   8.947 -0.9339  0.0013 -0.8041
  803MOL0     N 5881   4.941  -0.471   8.945 -0.5139 -0.2655 -0.5088
  803MOL0     C 5882   5.013  -0.518   9.053 -0.0760  0.2774  0.1536
  803MOL0     C 5883   5.093  -0.615   9.009  0.2865 -0.0778  0.6196
  803MOL0     C 5884   5.179  -0.698   9.097 -0.7161  0.1920 -0.4619
  803MOL0     C 5885   5.152  -0.841   9.062 -0.7649  0.9303 -0.5836
  803MOL0     C 5886   5.266  -0.893   8.984 -0.7365  0.4157  0.0176
  803MOL0     C 5887   5.279  -0.825   8.848  0.0037 -0.3619  0.1569
  803MOL0     O 5888   5.392  -0.884   8.781 -0.2583  0.1483 -0.2057
  803MOL0     C 5889   5.520  -0.866   8.829 -0.1258  0.2293 -0.1341
  803MOL0     C 5890   5.608  -0.974   8.840 -0.1069 -0.1328  0.1494
  803MOL0     C 5891   5.741  -0.958   8.875 -0.0186 -0.3647  0.2701
  803MOL0     C 5892   5.787  -0.834   8.921 -1.0301  0.1273  0.2809
  803MOL0     C 5893   5.922  -0.833   8.975 -0.3115  0.3305  0.1196
  803MOL0     O 5894   6.008  -0.937   8.943 -0.5498 -0.8529  0.7690
  803MOL0     C 5895   6.143  -0.927   8.954 -0.0598 -0.1244 -0.0038
  803MOL0     C 5896   6.215  -1.002   8.858  0.4398 -0.2598 -1.2368
  803MOL0     C 5897   6.360  -1.011   8.867  0.4399  0.2491 -0.4323
  803MOL0     C 5898   6.424  -0.934   8.963  0.8155 -0.0511  0.1191
  803MOL0     O 5899   6.563  -0.928   8.983 -0.3617  0.2405  0.1483
  803MOL0     C 5900   6.663  -0.961   8.881  0.2181  0.2263  0.1471
  803MOL0     C 5901   6.797  -0.922   8.931  0.2363  0.4791 -0.4399
  803MOL0     C 5902   6.903  -0.959   8.835  0.7115 -0.1449 -0.5172
  803MOL0     C 5903   7.048  -0.938   8.889  0.4775  0.0847 -0.1532
  803MOL0     C 5904   7.137  -1.012   8.791  0.1832 -0.1497  0.5115
  803MOL0     C 5905   7.287  -0.976   8.827  0.0033 -0.0804 -0.1365
  803MOL0     C 5906   7.333  -1.023   8.971 -1.0500 -0.2752 -0.1793
  803MOL0     C 5907   7.478  -1.079   8.966  0.4703 -0.6487  0.6981
  803MOL0    Cl 5908   7.596  -0.952   8.934 -0.1937  0.1010  0.2581
  803MOL0     C 5909   6.356  -0.866   9.061  0.1009 -0.1470  0.0728
  803MOL0     C 5910   6.215  -0.867   9.058 -0.6933 -0.1466 -0.3728
  803MOL0     O 5911   5.956  -0.727   9.036  0.3813  0.0688 -0.5529
  803MOL0     C 5912   5.703  -0.721   8.921 -0.0112 -0.6015  0.0917
  803MOL0     C 5913   5.568  -0.736   8.870  0.0877  0.0339  0.8793
  803MOL0     N 5914   5.080  -0.611   8.870 -0.9677  0.0958 -0.1042
  803MOL0     N 5915   4.986  -0.534   8.833 -0.5003  0.6645  0.2791
  803MOL0     C 5916   4.466   0.248   9.005  0.0027  0.0783  0.0332
  803MOL0     C 5917   4.330   0.279   9.043 -0.3773 -0.6928  0.2852
  803MOL0     C 5918   3.992   0.561   9.205 -0.6327 -0.6574 -0.9978
  803MOL0     C 5919   3.912   0.474   9.277  0.7390  0.2794 -0.4419
  803MOL0     C 5920   3.785   0.524   9.323 -0.2272  0.6096  0.1233
  803MOL0     C 5921   3.744   0.657   9.300  0.7946  0.3181  0.2428
  803MOL0     O 5922   3.633   0.713   9.339 -0.3867  0.5484 -0.0927
  803MOL0     C 5923   3.610   0.749   9.480 -0.1552 -0.1397  0.3252
  803MOL0     C 5924   3.518   0.657   9.556  0.6383 -0.7842 -0.1156
  803MOL0     C 5925   3.482   0.705   9.699 -0.0854  0.0141 -0.1525
  803MOL0     C 5926   3.400   0.835   9.707 -0.3039 -0.2401  0.3178
  803MOL0     C 5927   3.332   0.848   9.832  0.7206 -0.3186 -0.5750
  803MOL0     C 5928   3.269   0.849   9.939 -0.0355 -0.8776  0.3675
  803MOL0     C 5929   3.830   0.730   9.225 -0.5534  0.1865 -0.1442
  803MOL0     C 5930   3.955   0.692   9.185  0.7823 -0.6159  0.4950
  803MOL0     H 5931   4.376   0.423   9.339 -0.5644  1.9840 -1.1492
  803MOL0     H 5932   4.618   0.397   9.256  0.5852 -1.3502  0.4186
  803MOL0     H 5933   4.729   0.332   8.859  3.4531 -1.3478 -1.7166
  803MOL0     H 5934   4.709   0.159   8.909 -0.1548  0.0865 -0.6445
  803MOL0     H 5935   4.921   0.179   9.026 -2.3069 -4.0836 -2.5279
  803MOL0     H 5936   4.945   0.341   8.954  0.3261 -0.4959  1.4304
  803MOL0     H 5937   5.076   0.193   8.832  0.7583  0.4664 -0.7406
  803MOL0     H 5938   4.950   0.241   8.721  2.9107 -0.6867 -1.0701
  803MOL0     H 5939   4.833   0.004   8.804 -0.6329  1.6349 -1.9561
  803MOL0     H 5940   4.984   0.001   8.699  1.9705  1.0325  0.3823
  803MOL0     H 5941   4.996  -0.016   8.998 -3.1300  0.0218 -1.1373
  803MOL0     H 5942   5.129  -0.026   8.876  0.5051 -0.8158  1.0852
  803MOL0     H 5943   5.073  -0.254   8.965 -1.2526 -1.7519 -0.8032
  803MOL0     H 5944   5.050  -0.232   8.789 -2.2698 -0.6250 -0.4749
  803MOL0     H 5945   4.805  -0.169   8.951  2.2389  0.7772  0.1251
  803MOL0     H 5946   4.821  -0.235   8.789  0.0338 -0.0879 -0.3058
  803MOL0     H 5947   4.744  -0.425   8.890 -0.6982 -1.4793  0.0529
  803MOL0     H 5948   4.781  -0.362   9.046  2.0968  0.2744  0.5627
  803MOL0     H 5949   5.005  -0.481   9.154  3.7447  2.4816 -0.1295
  803MOL0     H 5950   5.146  -0.677   9.199 -1.1836  1.4817 -0.8668
  803MOL0     H 5951   5.284  -0.675   9.075 -0.8820  0.8747 -0.5735
  803MOL0     H 5952   5.065  -0.852   8.997  0.5408  0.1910 -2.2853
  803MOL0     H 5953   5.143  -0.894   9.157  2.3748  1.5824  0.2012
  803MOL0     H 5954   5.359  -0.890   9.042 -1.2365  1.6238  0.7944
  803MOL0     H 5955   5.246  -1.000   8.967 -0.8285  0.3011  0.8249
  803MOL0     H 5956   5.302  -0.720   8.868 -0.6149 -0.3136  0.6440
  803MOL0     H 5957   5.182  -0.832   8.798 -0.4587  1.4661  0.7480
  803MOL0     H 5958   5.580  -1.077   8.824 -1.5022  0.5818 -2.7790
  803MOL0     H 5959   5.808  -1.043   8.866  0.4808  0.0068  0.4559
  803MOL0     H 5960   6.163  -1.061   8.783 -0.8627 -0.1223 -0.4759
  803MOL0     H 5961   6.413  -1.083   8.806  0.7210  1.1197 -1.2313
  803MOL0     H 5962   6.636  -0.902   8.793 -1.5366 -1.6248 -0.6413
  803MOL0     H 5963   6.662  -1.070   8.871  0.9093 -0.0404  2.5116
  803MOL0     H 5964   6.820  -0.961   9.030  3.8179 -0.4435 -1.4948
  803MOL0     H 5965   6.796  -0.812   8.938  0.5845  0.4232  0.6823
  803MOL0     H 5966   6.892  -0.903   8.742  0.1510  1.5587  0.5320
  803MOL0     H 5967   6.887  -1.066   8.816 -2.3538  0.0663  0.3948
  803MOL0     H 5968   7.072  -0.833   8.870 -1.6656 -0.0215 -4.7540
  803MOL0     H 5969   7.064  -0.961   8.995  3.6616  0.7831 -0.3817
  803MOL0     H 5970   7.124  -0.989   8.685  2.5313 -2.0612 -0.3085
  803MOL0     H 5971   7.135  -1.121   8.804  2.1762 -0.1490  1.3417
  803MOL0     H 5972   7.313  -0.872   8.810  4.2642 -0.8806  0.3720
  803MOL0     H 5973   7.357  -1.025   8.758  0.1793 -2.2150  1.4322
  803MOL0     H 5974   7.342  -0.932   9.031 -1.2082  0.7130 -1.5999
  803MOL0     H 5975   7.275  -1.104   9.016  1.3071 -0.5573  2.6805
  803MOL0     H 5976   7.483  -1.156   8.889  0.6454  0.0270  0.0231
  803MOL0     H 5977   7.492  -1.124   9.065 -0.7068 -2.8114 -0.0725
  803MOL0     H 5978   6.417  -0.827   9.142 -0.0753 -1.8760  1.1009
  803MOL0     H 5979   6.163  -0.812   9.135  1.6236  3.2378 -0.9994
  803MOL0     H 5980   5.743  -0.627   8.956  2.2425 -1.5346  0.1942
  803MOL0     H 5981   5.507  -0.650   8.843  2.3626  1.6358  0.5294
  803MOL0     H 5982   4.494   0.208   8.908  0.8210 -1.1822  0.7488
  803MOL0     H 5983   4.249   0.262   8.973  0.8206 -2.2175 -0.8044
  803MOL0     H 5984   3.934   0.371   9.300 -1.4096  0.0788  1.0077
  803MOL0     H 5985   3.729   0.451   9.380 -1.2505 -2.2789 -4.1329
  803MOL0     H 5986   3.565   0.849   9.485 -2.6067 -1.1370 -0.3345
  803MOL0     H 5987   3.705   0.753   9.533  0.6639  2.3334 -1.1632
  803MOL0     H 5988   3.425   0.643   9.500  1.0751  1.0260 -1.3698
  803MOL0     H 5989   3.568   0.559   9.561  1.9620 -0.3492 -3.0108
  803MOL0     H 5990   3.561   0.708   9.774  1.3688  0.4420 -1.6538
  803MOL0     H 5991   3.413   0.628   9.735  0.3454  0.5319  1.8720
  803MOL0     H 5992   3.475   0.914   9.704  1.0283 -1.4257  0.8823
  803MOL0     H 5993   3.336   0.846   9.619  0.6350  0.0226 -0.3589
  803MOL0     H 5994   3.210   0.849  10.028 -1.0410 -0.5844 -0.2857
  803MOL0     H 5995   3.787   0.830   9.218 -0.0801  0.4102  0.1089
  803MOL0     H 5996   4.025   0.763   9.142  0.4256  0.1489  1.1429
  804MOL0     O 5997   8.385   0.948   2.846 -0.6120 -0.3696 -0.2044
  804MOL0     C 5998   8.436   0.849   2.801  0.0462 -0.5573  1.0730
  804MOL0     O 5999   8.370   0.740   2.754  0.4816 -0.2668  0.3325
  804MOL0     C 6000   8.249   0.751   2.692  0.0146 -1.0534  0.1550
  804MOL0     C 6001   8.184   0.633   2.682  0.3741  0.3366 -0.3775
  804MOL0     C 6002   8.059   0.630   2.625  0.2676 -0.2362 -0.3260
  804MOL0     C 6003   8.001   0.747   2.578 -0.3503  0.4778  0.2525
  804MOL0     O 6004   7.877   0.753   2.526  0.3521 -0.1562 -0.4926
  804MOL0     C 6005   7.763   0.714   2.604  0.2230  0.0110 -0.0073
  804MOL0     C 6006   7.644   0.820   2.586 -0.3967  0.3808  0.1487
  804MOL0     C 6007   7.513   0.766   2.654 -0.2819 -0.2743  0.0126
  804MOL0     C 6008   7.397   0.874   2.632  0.1266  0.4750 -0.5838
  804MOL0     C 6009   7.271   0.811   2.675 -0.2225 -0.3589  0.2519
  804MOL0     C 6010   7.165   0.914   2.695  0.6979  0.2408  0.8178
  804MOL0     C 6011   7.109   0.967   2.562  0.7629 -0.7209 -0.0061
  804MOL0     C 6012   6.996   1.072   2.579  0.3679  0.0035 -0.3448
  804MOL0     N 6013   6.868   0.999   2.586 -0.4440  0.3317  0.6000
  804MOL0     C 6014   6.769   1.024   2.674 -0.3356 -0.4641  0.0514
  804MOL0     C 6015   6.664   0.958   2.629  0.6524 -0.4518 -0.2765
  804MOL0     C 6016   6.531   0.949   2.697 -0.6805 -0.3948  0.1651
  804MOL0     C 6017   6.430   1.040   2.635  0.0655 -0.3687  0.2327
  804MOL0     C 6018   6.411   1.180   2.696 -0.0500 -0.9995 -0.5695
  804MOL0     C 6019   6.326   1.280   2.614  0.5160  0.7077  0.6890
  804MOL0     O 6020   6.188   1.239   2.625  0.1457  0.0967 -0.4009
  804MOL0     C 6021   6.103   1.322   2.557 -0.7407 -0.2073  0.4100
  804MOL0     C 6022   6.130   1.455   2.524 -0.8321 -0.5310 -0.3812
  804MOL0     C 6023   6.043   1.544   2.459 -1.1793 -0.2275 -0.1510
  804MOL0     C 6024   5.913   1.504   2.442  0.1939  0.8603 -0.6541
  804MOL0     C 6025   5.823   1.603   2.392 -0.6572  1.1401  0.6084
  804MOL0     O 6026   5.858   1.734   2.401 -0.3370 -0.1078 -0.2699
  804MOL0     C 6027   5.769   1.827   2.345 -0.0780  0.5714  0.4508
  804MOL0     C 6028   5.825   1.921   2.258 -1.6537 -0.7609 -0.4478
  804MOL0     C 6029   5.745   2.017   2.198 -0.8620  0.2053  0.6074
  804MOL0     C 6030   5.617   2.017   2.226  0.4300 -0.2548 -0.5974
  804MOL0     O 6031   5.518   2.079   2.150 -0.4294  0.6187 -0.9188
  804MOL0     C 6032   5.544   2.164   2.030  0.2319  0.2048  0.4010
  804MOL0     C 6033   5.410   2.214   1.974  0.6604 -0.1186  0.8258
  804MOL0     C 6034   5.314   2.101   1.942  0.4058 -0.1005 -0.3564
  804MOL0     C 6035   5.187   2.168   1.911 -0.1793 -0.5447  0.3328
  804MOL0     C 6036   5.089   2.071   1.844 -1.1569  0.0557 -0.0361
  804MOL0     C 6037   4.950   2.109   1.818  0.2900 -0.2031 -0.3239
  804MOL0     C 6038   4.884   2.020   1.718  0.1056  0.1375 -0.1971
  804MOL0     C 6039   4.756   2.085   1.670  0.4390 -0.0046  0.6839
  804MOL0    Cl 6040   4.785   2.252   1.602 -0.2915 -0.1096  0.0905
  804MOL0     C 6041   5.567   1.944   2.334 -0.3003  0.1325  0.5633
  804MOL0     C 6042   5.641   1.845   2.395  0.8144 -0.5908 -0.7040
  804MOL0     O 6043   5.730   1.551   2.330 -0.4727  0.1243 -0.1610
  804MOL0     C 6044   5.882   1.371   2.475  0.1573  0.5019 -0.0126
  804MOL0     C 6045   5.977   1.279   2.530  0.9898 -0.6307 -0.8939
  804MOL0     N 6046   6.701   0.883   2.520 -0.2631  0.3325 -0.0144
  804MOL0     N 6047   6.820   0.902   2.501 -0.8905  0.5252 -0.5245
  804MOL0     C 6048   8.069   0.872   2.581  0.3719  0.1061  0.3797
  804MOL0     C 6049   8.193   0.877   2.647  0.4873 -0.7216 -0.5384
  804MOL0     C 6050   8.584   0.840   2.820 -0.2687  0.2515  0.1815
  804MOL0     C 6051   8.655   0.953   2.866 -0.0096 -1.3588  0.4824
  804MOL0     C 6052   8.798   0.952   2.892 -0.3718  0.7922 -0.6975
  804MOL0     C 6053   8.869   0.840   2.869 -0.5193  0.1811  0.4414
  804MOL0     O 6054   9.003   0.824   2.897 -0.4092 -0.3776 -0.0060
  804MOL0     C 6055   9.054   0.696   2.922 -0.0587 -0.6076 -0.0300
  804MOL0     C 6056   9.188   0.734   2.991 -0.6578 -0.1557 -0.4684
  804MOL0     C 6057   9.277   0.825   2.897 -1.0794 -0.1311  0.2417
  804MOL0     C 6058   9.361   0.920   2.985  0.4108 -0.0077  0.7140
  804MOL0     C 6059   9.447   1.012   2.907  0.5296 -0.1779 -0.6323
  804MOL0     C 6060   9.525   1.064   2.833 -0.0811 -0.9446  0.2262
  804MOL0     C 6061   8.797   0.733   2.814  0.7329  0.8990  0.7270
  804MOL0     C 6062   8.660   0.725   2.785  0.1552 -0.5704 -0.3881
  804MOL0     H 6063   8.227   0.539   2.715 -2.9431 -0.6672  1.4886
  804MOL0     H 6064   8.007   0.535   2.615 -0.9925  0.5421 -1.6805
  804MOL0     H 6065   7.790   0.708   2.710  0.0760  1.4313  0.1371
  804MOL0     H 6066   7.735   0.614   2.571  2.5331 -1.5070  2.2172
  804MOL0     H 6067   7.634   0.829   2.477  0.7841  1.5833  0.1204
  804MOL0     H 6068   7.671   0.913   2.637  0.4580 -0.8501  2.0430
  804MOL0     H 6069   7.541   0.752   2.759 -0.0833 -0.7607 -0.1026
  804MOL0     H 6070   7.491   0.670   2.607  0.1408  1.1381 -3.3899
  804MOL0     H 6071   7.416   0.960   2.698  3.5712 -0.0087 -0.7742
  804MOL0     H 6072   7.400   0.898   2.526  0.4320  0.5473 -0.5603
  804MOL0     H 6073   7.298   0.759   2.767  0.2797 -1.8724 -0.7081
  804MOL0     H 6074   7.251   0.738   2.595 -1.6013  2.3535 -2.0472
  804MOL0     H 6075   7.186   1.004   2.754  0.9214  1.2101 -0.6802
  804MOL0     H 6076   7.078   0.858   2.730 -0.1958 -0.8362 -2.7054
  804MOL0     H 6077   7.190   1.026   2.518 -0.5413  1.9413  0.9483
  804MOL0     H 6078   7.076   0.896   2.486 -2.7950  2.2310 -1.5414
  804MOL0     H 6079   6.989   1.144   2.497 -0.5576  1.5536  1.0177
  804MOL0     H 6080   7.003   1.137   2.668  0.7843  1.3041 -1.2961
  804MOL0     H 6081   6.783   1.096   2.754  1.0829 -1.2060  0.4984
  804MOL0     H 6082   6.542   0.980   2.801  0.0016  1.2257 -0.3637
  804MOL0     H 6083   6.497   0.845   2.693 -2.3047  0.0662  1.0976
  804MOL0     H 6084   6.334   0.988   2.633  0.9519 -2.0733 -1.1564
  804MOL0     H 6085   6.449   1.054   2.529 -2.9534 -0.7419 -0.4581
  804MOL0     H 6086   6.370   1.155   2.795 -0.3384 -1.7266 -0.8667
  804MOL0     H 6087   6.508   1.230   2.705 -0.4427  0.6590 -3.9092
  804MOL0     H 6088   6.351   1.274   2.508 -1.4409  1.5110  0.1255
  804MOL0     H 6089   6.348   1.376   2.662 -3.4287  1.0726  2.1019
  804MOL0     H 6090   6.231   1.494   2.526 -1.0492  0.1966 -2.0611
  804MOL0     H 6091   6.074   1.648   2.447  0.2529 -0.1742  3.1029
  804MOL0     H 6092   5.930   1.904   2.235 -0.4843  1.2183  2.7833
  804MOL0     H 6093   5.792   2.067   2.114 -0.7251  0.6080  0.9221
  804MOL0     H 6094   5.596   2.110   1.951 -2.1039 -1.6548  0.0228
  804MOL0     H 6095   5.602   2.254   2.053 -1.4738  1.3018  0.6731
  804MOL0     H 6096   5.429   2.261   1.877 -4.6868  2.0719  0.5076
  804MOL0     H 6097   5.369   2.289   2.042 -0.1376  0.9700 -0.7811
  804MOL0     H 6098   5.303   2.035   2.029  2.0732 -0.5474 -0.4448
  804MOL0     H 6099   5.336   2.041   1.853 -2.0599  0.0282 -1.1314
  804MOL0     H 6100   5.154   2.202   2.009 -1.8596 -2.2236  0.3987
  804MOL0     H 6101   5.202   2.243   1.832  1.4015  0.2526  1.3404
  804MOL0     H 6102   5.082   1.986   1.912 -2.4086  0.4267  0.3383
  804MOL0     H 6103   5.135   2.035   1.752 -3.8894 -4.0889 -0.0498
  804MOL0     H 6104   4.951   2.210   1.775 -0.4567  1.0488  2.4266
  804MOL0     H 6105   4.910   2.107   1.920  2.9609  1.8997  0.8762
  804MOL0     H 6106   4.946   1.998   1.630 -0.6233  2.0034 -1.2210
  804MOL0     H 6107   4.866   1.929   1.776 -0.9026 -0.7194 -1.7624
  804MOL0     H 6108   4.679   2.091   1.747  0.5925 -1.1653  0.9399
  804MOL0     H 6109   4.714   2.012   1.600 -1.4487 -1.1819  2.8995
  804MOL0     H 6110   5.466   1.966   2.367  0.0471 -0.7300  2.3135
  804MOL0     H 6111   5.601   1.773   2.466 -0.1384 -2.1339 -2.7018
  804MOL0     H 6112   5.780   1.338   2.459  0.1629  0.9133 -0.9565
  804MOL0     H 6113   5.946   1.177   2.550  2.1779 -1.1121 -1.4451
  804MOL0     H 6114   8.020   0.964   2.551 -0.3434 -1.3373 -3.3564
  804MOL0     H 6115   8.249   0.970   2.643  4.3024 -2.8538 -2.0145
  804MOL0     H 6116   8.598   1.043   2.887 -0.6414 -2.1223  2.1756
  804MOL0     H 6117   8.850   1.036   2.937  0.6836 -1.1983  2.1010
  804MOL0     H 6118   9.073   0.639   2.830 -2.0117  0.1468 -0.9572
  804MOL0     H 6119   8.989   0.638   2.988  0.1100 -1.2463 -0.4153
  804MOL0     H 6120   9.173   0.797   3.079 -1.5425 -0.3571 -0.4682
  804MOL0     H 6121   9.249   0.646   3.009  0.6457  0.6137 -0.9428
  804MOL0     H 6122   9.217   0.886   2.829  0.4355  1.0284 -0.1065
  804MOL0     H 6123   9.343   0.762   2.837 -0.6805 -3.0677  3.3897
  804MOL0     H 6124   9.288   0.976   3.045 -1.0246 -0.6405 -0.3739
  804MOL0     H 6125   9.428   0.863   3.049  1.3806  1.7346  1.3254
  804MOL0     H 6126   9.580   1.112   2.756 -0.2089  1.0720  1.3310
  804MOL0     H 6127   8.852   0.642   2.793 -0.6389  0.6418 -2.4139
  804MOL0     H 6128   8.608   0.636   2.752 -3.0009 -0.0054  2.4700
  805MOL0     O 6129   8.961   4.643   7.810  0.7121 -0.1834 -0.2100
  805MOL0     C 6130   8.950   4.715   7.715 -0.4626 -0.4478 -0.2469
  805MOL0     O 6131   8.833   4.742   7.639  0.0627 -0.3821  0.2988
  805MOL0     C 6132   8.722   4.662   7.661  0.3701 -0.3092  0.7012
  805MOL0     C 6133   8.717   4.529   7.696 -0.4847  0.3126  0.0273
  805MOL0     C 6134   8.598   4.462   7.702  0.2377  0.0081 -0.4648
  805MOL0     C 6135   8.477   4.527   7.667 -0.0496 -0.9354  0.1727
  805MOL0     O 6136   8.363   4.454   7.659  0.5144  0.0804  0.0104
  805MOL0     C 6137   8.279   4.472   7.545  0.0010 -0.2730 -0.8428
  805MOL0     C 6138   8.180   4.355   7.537  0.7461  0.1343  0.6944
  805MOL0     C 6139   8.097   4.379   7.406 -0.4188  0.7518 -1.2066
  805MOL0     C 6140   7.975   4.282   7.386 -0.0928 -0.8756 -0.4082
  805MOL0     C 6141   7.918   4.305   7.250 -0.3950 -0.3802 -0.8492
  805MOL0     C 6142   7.820   4.192   7.217  0.2157  1.2404 -0.1212
  805MOL0     C 6143   7.765   4.205   7.082  0.1933  0.0484 -0.7613
  805MOL0     C 6144   7.669   4.326   7.067 -0.9609  0.0270 -0.0306
  805MOL0     N 6145   7.591   4.313   6.942 -0.6910  0.7936 -0.3130
  805MOL0     C 6146   7.637   4.293   6.812  0.2289 -0.7402 -0.2384
  805MOL0     C 6147   7.537   4.236   6.741  0.0687 -0.2755 -0.1596
  805MOL0     C 6148   7.545   4.186   6.607  1.2028  0.3211 -0.6288
  805MOL0     C 6149   7.625   4.053   6.589 -0.3104  0.2684 -0.1677
  805MOL0     C 6150   7.592   3.939   6.683  0.2629  0.2504 -0.1047
  805MOL0     C 6151   7.648   3.806   6.660 -1.2387  0.2001 -0.1226
  805MOL0     O 6152   7.629   3.753   6.528 -0.1698 -0.6377 -0.0682
  805MOL0     C 6153   7.504   3.723   6.490  1.1190 -0.4006  0.7208
  805MOL0     C 6154   7.400   3.670   6.575 -0.2894 -0.1036 -0.6762
  805MOL0     C 6155   7.271   3.649   6.528 -0.2211  0.2145  0.2251
  805MOL0     C 6156   7.238   3.679   6.399 -0.1419 -0.1880  1.1692
  805MOL0     C 6157   7.094   3.672   6.355  0.0673  0.4032  0.4388
  805MOL0     O 6158   6.997   3.607   6.439 -0.4026  0.0931  0.2365
  805MOL0     C 6159   6.868   3.574   6.388 -0.2439  0.3042 -0.2133
  805MOL0     C 6160   6.789   3.654   6.313  0.7080 -0.2786  0.0909
  805MOL0     C 6161   6.660   3.601   6.268 -0.1641  0.6800  0.0756
  805MOL0     C 6162   6.625   3.469   6.281 -0.3059 -0.3937  0.2668
  805MOL0     O 6163   6.505   3.409   6.230  0.7196 -0.8368 -0.0170
  805MOL0     C 6164   6.422   3.493   6.148 -0.5898  0.4179 -0.0697
  805MOL0     C 6165   6.287   3.421   6.094 -0.2213  0.8568 -0.1749
  805MOL0     C 6166   6.176   3.526   6.061  0.4087  1.1036  0.0834
  805MOL0     C 6167   6.042   3.464   6.003 -0.4023 -0.0416 -0.0653
  805MOL0     C 6168   5.957   3.576   5.939  0.0094 -0.4725 -0.3198
  805MOL0     C 6169   5.831   3.509   5.884  0.1556 -0.2732 -1.1853
  805MOL0     C 6170   5.725   3.614   5.833  0.1694 -0.3614 -0.5896
  805MOL0     C 6171   5.635   3.686   5.937 -0.1772 -0.5063 -0.2411
  805MOL0    Cl 6172   5.508   3.590   6.000  0.2740 -0.0503 -0.0931
  805MOL0     C 6173   6.710   3.385   6.351  0.6255  0.1636  0.3262
  805MOL0     C 6174   6.831   3.439   6.409 -0.0965  0.9943 -0.3720
  805MOL0     O 6175   7.079   3.694   6.236 -0.3253 -0.1986 -0.2502
  805MOL0     C 6176   7.338   3.732   6.314 -0.6683  0.4602 -0.0698
  805MOL0     C 6177   7.474   3.741   6.357 -0.5242  0.1051  1.4223
  805MOL0     N 6178   7.430   4.224   6.831  0.5709  0.2119  0.6420
  805MOL0     N 6179   7.464   4.270   6.947 -0.2551  0.8970 -1.1452
  805MOL0     C 6180   8.484   4.663   7.629  0.0840  0.9949 -0.0827
  805MOL0     C 6181   8.607   4.730   7.636  0.2786  0.5709 -0.0967
  805MOL0     C 6182   9.069   4.780   7.667  0.1281 -0.2208 -0.6524
  805MOL0     C 6183   9.060   4.860   7.546  0.1249 -0.0624  0.5340
  805MOL0     C 6184   9.172   4.908   7.491  0.0788  0.0824  0.5532
  805MOL0     C 6185   9.301   4.879   7.543  0.8059  1.1086 -0.1303
  805MOL0     O 6186   9.411   4.913   7.465 -0.0973 -0.4175  0.5550
  805MOL0     C 6187   9.534   4.935   7.529 -0.1847  0.6079 -0.2398
  805MOL0     C 6188   9.640   4.981   7.426  1.4628 -1.3782  0.2262
  805MOL0     C 6189   9.595   5.091   7.322  0.2646  0.2749 -0.7731
  805MOL0     C 6190   9.721   5.162   7.272  0.7309  0.0441  0.7624
  805MOL0     C 6191   9.792   5.074   7.179 -0.3496 -0.0820  0.1564
  805MOL0     C 6192   9.863   5.007   7.107 -0.4066 -0.1096  0.3784
  805MOL0     C 6193   9.305   4.823   7.672  0.4414  0.2719  0.1856
  805MOL0     C 6194   9.190   4.772   7.728 -0.0326 -0.0572 -0.4752
  805MOL0     H 6195   8.812   4.479   7.719 -0.7915 -1.5905 -2.4468
  805MOL0     H 6196   8.591   4.362   7.743 -1.8304 -0.0611 -0.8472
  805MOL0     H 6197   8.343   4.472   7.457 -0.0718 -0.7358 -0.8979
  805MOL0     H 6198   8.220   4.563   7.560  1.3871  0.7346 -1.2860
  805MOL0     H 6199   8.119   4.338   7.626  0.2900 -1.5112  0.0908
  805MOL0     H 6200   8.228   4.258   7.524 -1.0179 -0.9286  1.7696
  805MOL0     H 6201   8.164   4.382   7.320  1.3428 -3.0365 -0.1917
  805MOL0     H 6202   8.041   4.472   7.415 -2.3089 -0.1545 -2.8126
  805MOL0     H 6203   8.006   4.177   7.393  1.1808 -0.4432  1.2454
  805MOL0     H 6204   7.897   4.310   7.457  1.0613 -2.3108  1.5572
  805MOL0     H 6205   7.997   4.293   7.175  1.5542  3.0407  0.4295
  805MOL0     H 6206   7.878   4.404   7.231 -0.0463  0.1617  1.0767
  805MOL0     H 6207   7.734   4.193   7.285  1.5128  0.4482  1.6022
  805MOL0     H 6208   7.874   4.097   7.226  0.7308  0.8862 -4.6073
  805MOL0     H 6209   7.845   4.213   7.007  0.2009  0.5663 -0.6991
  805MOL0     H 6210   7.716   4.109   7.063 -0.3521  0.4476 -1.4119
  805MOL0     H 6211   7.733   4.411   7.038  2.2272 -2.0441  0.4111
  805MOL0     H 6212   7.598   4.341   7.149  0.8474  4.5385  1.0453
  805MOL0     H 6213   7.740   4.305   6.782  0.7885 -0.0049  1.7929
  805MOL0     H 6214   7.579   4.264   6.538 -1.0665  1.1700 -0.8460
  805MOL0     H 6215   7.445   4.164   6.569  1.5358  2.3911 -3.0200
  805MOL0     H 6216   7.731   4.077   6.603 -0.4302  0.5968  0.2038
  805MOL0     H 6217   7.615   4.019   6.486  2.2057 -0.7044 -0.1533
  805MOL0     H 6218   7.606   3.979   6.785 -1.7394 -0.9543  0.7154
  805MOL0     H 6219   7.484   3.923   6.678  0.1799  1.1261 -2.1388
  805MOL0     H 6220   7.604   3.746   6.740  1.2945  1.6054  2.4978
  805MOL0     H 6221   7.750   3.787   6.694 -0.9664  2.0068  0.1817
  805MOL0     H 6222   7.424   3.640   6.676  0.0884  1.8909 -0.1193
  805MOL0     H 6223   7.193   3.612   6.594 -1.5285 -1.4153 -2.0981
  805MOL0     H 6224   6.816   3.758   6.298  2.3221 -0.7719 -0.7250
  805MOL0     H 6225   6.596   3.671   6.216 -1.5185 -1.3617 -1.1537
  805MOL0     H 6226   6.477   3.520   6.058  1.3168  1.0002  1.2233
  805MOL0     H 6227   6.397   3.582   6.207  1.6725  0.3370  1.1211
  805MOL0     H 6228   6.248   3.348   6.165  2.1780 -1.1477 -0.7858
  805MOL0     H 6229   6.314   3.366   6.003 -1.1836  0.1714 -0.0735
  805MOL0     H 6230   6.207   3.597   5.983  1.0291 -2.3389 -3.0894
  805MOL0     H 6231   6.163   3.583   6.154  1.2981  0.4835  0.6006
  805MOL0     H 6232   6.066   3.389   5.927 -2.6029 -2.1153  1.1420
  805MOL0     H 6233   5.985   3.415   6.083 -3.1468 -2.5609 -3.2666
  805MOL0     H 6234   6.015   3.635   5.867 -0.8106  1.9929  0.9320
  805MOL0     H 6235   5.942   3.653   6.014  1.8947 -0.4701  0.1112
  805MOL0     H 6236   5.783   3.442   5.955 -1.5670  1.5407 -0.5263
  805MOL0     H 6237   5.865   3.450   5.799 -0.6457  0.5297 -2.0787
  805MOL0     H 6238   5.780   3.682   5.767  0.7566 -0.1915  0.0609
  805MOL0     H 6239   5.656   3.553   5.774 -2.4593  0.6802  1.1922
  805MOL0     H 6240   5.592   3.774   5.888 -3.3225 -2.4385 -1.1935
  805MOL0     H 6241   5.701   3.706   6.022  0.3723 -1.0993 -0.5201
  805MOL0     H 6242   6.690   3.280   6.367 -1.3892  0.2432 -1.2452
  805MOL0     H 6243   6.895   3.363   6.454 -0.9049 -0.4637 -1.5968
  805MOL0     H 6244   7.315   3.776   6.218  0.3245  1.8519  0.2930
  805MOL0     H 6245   7.533   3.780   6.275 -2.0240 -2.0070 -0.7749
  805MOL0     H 6246   8.388   4.710   7.613 -0.8631 -1.0665 -0.9101
  805MOL0     H 6247   8.617   4.837   7.618  2.1297  0.3341 -0.6627
  805MOL0     H 6248   8.966   4.863   7.492 -1.1865 -2.2200  2.5269
  805MOL0     H 6249   9.171   4.966   7.399  0.7533 -0.1039  0.4230
  805MOL0     H 6250   9.574   4.838   7.561 -1.2652  0.6729  1.4299
  805MOL0     H 6251   9.513   5.001   7.614  2.1308  0.9745  0.1214
  805MOL0     H 6252   9.728   5.003   7.488  2.0279 -2.8242 -0.0009
  805MOL0     H 6253   9.674   4.894   7.368  1.4263 -1.2260 -0.0249
  805MOL0     H 6254   9.525   5.166   7.361  2.0520  1.3582  0.5143
  805MOL0     H 6255   9.546   5.043   7.237 -0.5582  2.0973 -1.3805
  805MOL0     H 6256   9.689   5.253   7.219 -0.0368  0.7639  2.4002
  805MOL0     H 6257   9.771   5.195   7.363  0.2661  1.3013  0.5879
  805MOL0     H 6258   9.928   4.944   7.049  1.5133  0.5134  1.7346
  805MOL0     H 6259   9.405   4.812   7.713 -0.9444 -1.7488  3.3764
  805MOL0     H 6260   9.207   4.729   7.827 -1.7182  0.2244 -0.0341
  806MOL0     O 6261   3.482   8.560   1.347  0.1528 -0.2777 -0.1097
  806MOL0     C 6262   3.526   8.663   1.399 -0.6464 -0.3176  0.5991
  806MOL0     O 6263   3.454   8.745   1.476 -0.3700 -0.3178 -1.2458
  806MOL0     C 6264   3.340   8.695   1.533 -0.1525  0.1085 -0.0670
  806MOL0     C 6265   3.321   8.698   1.674  1.3684 -0.7328  0.1963
  806MOL0     C 6266   3.209   8.648   1.734 -0.6438 -0.6696 -0.2609
  806MOL0     C 6267   3.098   8.621   1.647 -0.4775  0.2252  0.3609
  806MOL0     O 6268   2.970   8.605   1.691 -0.3644  0.1986 -0.6483
  806MOL0     C 6269   2.963   8.512   1.806  0.0877 -0.7659  0.0243
  806MOL0     C 6270   2.821   8.481   1.855 -0.7955  0.7729  0.0607
  806MOL0     C 6271   2.732   8.421   1.742  0.0608 -0.2355  0.2721
  806MOL0     C 6272   2.591   8.409   1.783 -0.5772 -0.0787 -0.1920
  806MOL0     C 6273   2.580   8.292   1.883 -0.0820  0.1399  0.8758
  806MOL0     C 6274   2.438   8.250   1.904  0.9575  0.4088 -0.6309
  806MOL0     C 6275   2.414   8.114   1.973  0.1142 -0.2487  0.1041
  806MOL0     C 6276   2.394   7.997   1.879 -0.2118 -0.1963  0.4964
  806MOL0     N 6277   2.414   7.865   1.938 -0.3010  0.1969  0.5306
  806MOL0     C 6278   2.519   7.780   1.911 -0.7044  0.1318 -0.0956
  806MOL0     C 6279   2.474   7.652   1.927  0.2167 -0.1114  0.4290
  806MOL0     C 6280   2.548   7.521   1.933  0.2445 -0.2105 -0.7162
  806MOL0     C 6281   2.543   7.469   2.079 -0.4388  0.3029  0.3201
  806MOL0     C 6282   2.635   7.542   2.189  0.7840  0.4598 -0.4074
  806MOL0     C 6283   2.781   7.515   2.167 -0.2699  0.8282  1.1145
  806MOL0     O 6284   2.868   7.609   2.234 -0.6906  0.4140 -0.4733
  806MOL0     C 6285   3.001   7.609   2.193  0.0661  0.1181  0.0819
  806MOL0     C 6286   3.073   7.502   2.133 -0.4366 -0.1611  0.7933
  806MOL0     C 6287   3.208   7.514   2.092  0.6251  0.4233  0.0687
  806MOL0     C 6288   3.277   7.629   2.113 -1.0683 -0.9332 -0.2956
  806MOL0     C 6289   3.420   7.650   2.063 -0.1699  0.0372 -0.0743
  806MOL0     O 6290   3.475   7.544   2.002  0.1876 -0.3956  0.3219
  806MOL0     C 6291   3.614   7.517   1.983  0.1156  1.1382  1.3853
  806MOL0     C 6292   3.654   7.419   1.885  1.0757  0.9028  0.7953
  806MOL0     C 6293   3.787   7.392   1.848  0.7095 -0.0902  0.2440
  806MOL0     C 6294   3.883   7.454   1.930  0.4047  0.0063  0.9469
  806MOL0     O 6295   4.014   7.426   1.893 -0.2982  0.0227 -0.5051
  806MOL0     C 6296   4.078   7.543   1.835  0.2218  0.6446 -0.7561
  806MOL0     C 6297   4.229   7.517   1.813  0.4628 -0.1438  0.1969
  806MOL0     C 6298   4.327   7.551   1.937 -0.5758 -0.1261  0.3679
  806MOL0     C 6299   4.455   7.476   1.922 -0.8994 -0.8592 -0.0973
  806MOL0     C 6300   4.567   7.568   1.988 -0.2711  0.4638 -0.0978
  806MOL0     C 6301   4.695   7.481   2.016  0.1242 -0.5255  0.0255
  806MOL0     C 6302   4.810   7.561   2.072  0.2280  0.6475  0.7878
  806MOL0     C 6303   4.872   7.641   1.955 -0.0745  0.1868 -0.2085
  806MOL0    Cl 6304   5.015   7.725   2.002 -0.5351  0.2581 -0.2226
  806MOL0     C 6305   3.848   7.548   2.025  0.0944 -1.0791  1.3204
  806MOL0     C 6306   3.712   7.587   2.053  0.7717  0.1560 -0.0845
  806MOL0     O 6307   3.481   7.759   2.091 -0.0461 -0.0214 -0.5824
  806MOL0     C 6308   3.215   7.733   2.182 -0.0687  0.7010 -0.0176
  806MOL0     C 6309   3.079   7.720   2.219  0.3418 -1.4317  0.7132
  806MOL0     N 6310   2.336   7.652   1.956 -0.2513 -0.6026 -0.3057
  806MOL0     N 6311   2.308   7.782   1.946  0.3341  0.3695 -0.7313
  806MOL0     C 6312   3.112   8.617   1.503  0.3558  0.0693 -0.0291
  806MOL0     C 6313   3.233   8.653   1.450 -0.1230  0.8569  0.0922
  806MOL0     C 6314   3.664   8.697   1.357 -0.5213  1.0170 -0.6245
  806MOL0     C 6315   3.727   8.614   1.263  0.9140 -0.3480  1.1833
  806MOL0     C 6316   3.856   8.629   1.237 -0.1730  0.2014 -0.2144
  806MOL0     C 6317   3.943   8.706   1.318  0.4720 -0.9194  0.0744
  806MOL0     O 6318   4.078   8.712   1.293  0.0704  0.1671 -0.2655
  806MOL0     C 6319   4.131   8.618   1.202 -0.5282 -0.3878 -0.0393
  806MOL0     C 6320   4.268   8.642   1.196  0.2524  0.5704 -0.8036
  806MOL0     C 6321   4.328   8.606   1.055  0.2817 -0.0177 -0.8797
  806MOL0     C 6322   4.478   8.642   1.042 -0.4073  0.0689  0.1209
  806MOL0     C 6323   4.559   8.586   1.155  0.0624 -0.2658 -0.2660
  806MOL0     C 6324   4.630   8.520   1.233 -1.1260 -0.4948 -0.2849
  806MOL0     C 6325   3.884   8.795   1.406  0.9913 -0.2281 -0.6890
  806MOL0     C 6326   3.742   8.795   1.428  0.4411  0.3553  1.0686
  806MOL0     H 6327   3.405   8.729   1.736 -1.9649  0.9922  4.4166
  806MOL0     H 6328   3.203   8.657   1.842  1.3923  0.7618 -0.2303
  806MOL0     H 6329   3.025   8.550   1.888 -1.4541  2.9572 -0.3367
  806MOL0     H 6330   3.004   8.415   1.777  0.1525 -0.2934 -1.5597
  806MOL0     H 6331   2.763   8.565   1.897 -2.8667 -0.7603  0.4536
  806MOL0     H 6332   2.840   8.405   1.932  4.3861  0.2614 -1.3605
  806MOL0     H 6333   2.771   8.337   1.684 -0.5124 -0.9322  0.8596
  806MOL0     H 6334   2.724   8.496   1.663 -1.6886 -0.9858 -0.3153
  806MOL0     H 6335   2.555   8.502   1.827 -0.9315  0.4455 -1.5476
  806MOL0     H 6336   2.535   8.378   1.694  0.7876  0.2240 -1.1957
  806MOL0     H 6337   2.615   8.324   1.982  1.4939 -0.4642  0.5488
  806MOL0     H 6338   2.643   8.211   1.845  0.4964  0.7163  0.5947
  806MOL0     H 6339   2.374   8.272   1.819 -1.4828  2.4303  1.5486
  806MOL0     H 6340   2.384   8.319   1.969  0.2578 -0.8533  0.1719
  806MOL0     H 6341   2.498   8.100   2.042  1.3180 -2.4336 -1.6748
  806MOL0     H 6342   2.323   8.118   2.034 -3.0451  2.2039 -4.2592
  806MOL0     H 6343   2.452   8.010   1.787 -1.4879  1.3180 -0.1421
  806MOL0     H 6344   2.289   8.006   1.851 -0.6873 -0.7331  2.0028
  806MOL0     H 6345   2.623   7.809   1.901  0.2158 -0.8333  4.3443
  806MOL0     H 6346   2.653   7.528   1.901  0.8547 -1.6357  0.8269
  806MOL0     H 6347   2.504   7.444   1.870  0.2558 -0.4406 -0.4438
  806MOL0     H 6348   2.566   7.363   2.092 -2.3275  0.0998  2.7888
  806MOL0     H 6349   2.437   7.478   2.107 -0.3611 -1.7329  1.4312
  806MOL0     H 6350   2.619   7.650   2.180 -2.0527  0.1713  0.2183
  806MOL0     H 6351   2.609   7.512   2.291 -3.2373  0.9002 -1.1085
  806MOL0     H 6352   2.806   7.503   2.062 -4.0003  1.0914  0.0770
  806MOL0     H 6353   2.796   7.413   2.206 -1.9926  1.1244  2.7031
  806MOL0     H 6354   3.019   7.413   2.103 -0.9811  0.4167  0.0126
  806MOL0     H 6355   3.246   7.432   2.032  0.5796  1.7250 -1.8309
  806MOL0     H 6356   3.580   7.369   1.825  0.0688  2.7666  0.3997
  806MOL0     H 6357   3.814   7.333   1.761 -0.2573 -0.2963  0.0780
  806MOL0     H 6358   4.072   7.632   1.899 -2.7038 -0.1865  0.3028
  806MOL0     H 6359   4.031   7.574   1.742 -1.2333  1.1775  0.1174
  806MOL0     H 6360   4.265   7.577   1.730  0.7668  2.3177  2.0018
  806MOL0     H 6361   4.251   7.413   1.786  2.3761 -0.0412  1.1727
  806MOL0     H 6362   4.287   7.525   2.035  1.6151  2.1754  2.0073
  806MOL0     H 6363   4.340   7.659   1.951  0.7205  0.0491 -1.7246
  806MOL0     H 6364   4.451   7.386   1.984  0.2841  0.1391  1.5100
  806MOL0     H 6365   4.474   7.458   1.816 -2.8660  0.1249 -0.6792
  806MOL0     H 6366   4.531   7.611   2.082 -0.2644 -1.4028  0.7984
  806MOL0     H 6367   4.592   7.653   1.923 -1.2770  0.7944 -0.0655
  806MOL0     H 6368   4.717   7.424   1.925  1.0042 -2.2125  1.2375
  806MOL0     H 6369   4.680   7.397   2.084  2.0890 -1.5005 -0.6755
  806MOL0     H 6370   4.778   7.623   2.156  1.7703  0.1292  1.7995
  806MOL0     H 6371   4.889   7.498   2.114 -0.2759 -1.8976 -1.7878
  806MOL0     H 6372   4.790   7.701   1.914  1.3928  1.4809 -1.3659
  806MOL0     H 6373   4.899   7.580   1.868 -1.5536  0.5428 -0.9483
  806MOL0     H 6374   3.936   7.592   2.072  0.0964  1.1351 -0.5746
  806MOL0     H 6375   3.695   7.668   2.124 -0.5193 -0.0806 -0.1083
  806MOL0     H 6376   3.275   7.817   2.215  3.1375 -1.2029 -0.6166
  806MOL0     H 6377   3.040   7.807   2.270  2.0650 -1.4153  2.0588
  806MOL0     H 6378   3.021   8.587   1.452 -0.3444  1.5135  0.3071
  806MOL0     H 6379   3.253   8.636   1.345 -0.1375 -2.3297  0.5164
  806MOL0     H 6380   3.676   8.536   1.208 -1.7859  0.0016  2.9704
  806MOL0     H 6381   3.897   8.564   1.160 -2.8333  1.5577 -3.0203
  806MOL0     H 6382   4.079   8.645   1.109 -1.1938 -0.6504  0.2461
  806MOL0     H 6383   4.110   8.512   1.221  3.2834 -1.1369  0.6337
  806MOL0     H 6384   4.300   8.742   1.225 -0.4884  0.3035  1.0669
  806MOL0     H 6385   4.310   8.572   1.269 -0.0785  1.0659 -0.1299
  806MOL0     H 6386   4.275   8.660   0.976 -2.8524  1.0707  1.7003
  806MOL0     H 6387   4.307   8.500   1.037 -0.6559 -0.3893  1.9040
  806MOL0     H 6388   4.517   8.603   0.948 -0.8782  0.0447 -0.0665
  806MOL0     H 6389   4.489   8.751   1.037  1.1440  0.0702  2.0424
  806MOL0     H 6390   4.676   8.452   1.303 -2.3582 -2.5837 -1.3995
  806MOL0     H 6391   3.948   8.868   1.454 -0.8790  0.5756  0.7300
  806MOL0     H 6392   3.711   8.861   1.508  2.3444  0.8628  1.4522
  807MOL0     O 6393  10.157   5.377   0.830  0.6228 -0.6858  0.0160
  807MOL0     C 6394  10.151   5.482   0.759  0.1580  0.2454 -0.1833
  807MOL0     O 6395  10.061   5.506   0.659  0.2360 -0.1588 -0.3743
  807MOL0     C 6396   9.978   5.417   0.601 -0.0550  0.2618 -0.2536
  807MOL0     C 6397   9.939   5.455   0.472  0.2770 -0.3953  0.7573
  807MOL0     C 6398   9.845   5.385   0.399 -0.6792  0.6126 -0.6898
  807MOL0     C 6399   9.797   5.268   0.447 -0.6913  0.6736 -0.3668
  807MOL0     O 6400   9.705   5.204   0.374 -0.2725  0.1540  0.2031
  807MOL0     C 6401   9.578   5.181   0.433 -0.4337 -0.2943  0.7738
  807MOL0     C 6402   9.502   5.314   0.451 -0.5591  0.3539  0.9098
  807MOL0     C 6403   9.348   5.295   0.471 -0.4776 -0.5421  0.5617
  807MOL0     C 6404   9.305   5.238   0.605 -0.2619  0.3878  0.8800
  807MOL0     C 6405   9.356   5.299   0.732 -0.3146 -0.3990  0.3029
  807MOL0     C 6406   9.259   5.250   0.845 -1.2747 -0.2060 -0.4805
  807MOL0     C 6407   9.322   5.288   0.982 -0.1101  0.4500  0.3001
  807MOL0     C 6408   9.211   5.351   1.080 -1.2987 -0.2499  0.4374
  807MOL0     N 6409   9.123   5.251   1.130 -0.4288  0.7589  0.1121
  807MOL0     C 6410   8.995   5.217   1.074 -1.0735  0.1183 -0.3943
  807MOL0     C 6411   8.952   5.134   1.171  0.3537  0.0509 -0.1679
  807MOL0     C 6412   8.811   5.069   1.172 -0.5337  0.0032  0.4194
  807MOL0     C 6413   8.697   5.176   1.159  0.3021 -0.8363 -0.0886
  807MOL0     C 6414   8.560   5.124   1.206  0.5164 -0.0257  0.2033
  807MOL0     C 6415   8.485   5.046   1.096 -0.5751  0.4402  0.1329
  807MOL0     O 6416   8.371   4.965   1.149  0.6081  0.6271  0.7668
  807MOL0     C 6417   8.255   5.032   1.136 -0.7658  0.2200 -0.0261
  807MOL0     C 6418   8.193   5.030   1.013  0.3423  0.1414  0.4258
  807MOL0     C 6419   8.074   5.096   0.994  0.5122  0.3720 -0.6532
  807MOL0     C 6420   8.026   5.184   1.089  0.5159 -0.2423 -0.9249
  807MOL0     C 6421   7.896   5.257   1.073 -0.1540  0.5220 -0.6532
  807MOL0     O 6422   7.817   5.261   1.183 -0.8018  0.0927  0.7675
  807MOL0     C 6423   7.699   5.319   1.168  0.2989  0.0931 -0.3430
  807MOL0     C 6424   7.578   5.252   1.147  0.1060  0.1278  0.0187
  807MOL0     C 6425   7.456   5.315   1.165  0.4589 -0.7959 -0.7494
  807MOL0     C 6426   7.441   5.455   1.199  0.0326 -0.0050 -0.5070
  807MOL0     O 6427   7.309   5.501   1.219  0.1875  0.9801 -0.1079
  807MOL0     C 6428   7.310   5.626   1.288 -0.3539 -0.7637  0.5997
  807MOL0     C 6429   7.173   5.652   1.333 -0.2005 -0.0268  0.2993
  807MOL0     C 6430   7.159   5.773   1.436  0.8430 -0.4637  0.4147
  807MOL0     C 6431   7.036   5.747   1.533 -0.0354 -0.8258 -0.1950
  807MOL0     C 6432   6.994   5.865   1.629  0.3650 -0.1252  0.0984
  807MOL0     C 6433   6.895   5.800   1.721 -0.1150  0.3784 -0.3027
  807MOL0     C 6434   6.837   5.913   1.807 -0.6151 -0.5086 -0.2333
  807MOL0     C 6435   6.727   5.857   1.904  0.1995 -0.6567  0.8784
  807MOL0    Cl 6436   6.596   5.767   1.805 -0.2923  0.1245 -0.1174
  807MOL0     C 6437   7.561   5.529   1.201 -0.5833  0.0880 -0.4163
  807MOL0     C 6438   7.690   5.456   1.181  0.8456 -0.3683  0.1370
  807MOL0     O 6439   7.862   5.294   0.962 -0.3112 -0.2322  0.1333
  807MOL0     C 6440   8.093   5.192   1.215 -0.6180 -0.6844  0.0363
  807MOL0     C 6441   8.207   5.117   1.241  0.1283 -0.2676  0.6668
  807MOL0     N 6442   9.053   5.109   1.265  0.6512  0.5215 -0.8090
  807MOL0     N 6443   9.152   5.186   1.243  0.2638 -0.1337  0.6387
  807MOL0     C 6444   9.845   5.216   0.569  0.4381 -0.5573  0.2944
  807MOL0     C 6445   9.939   5.292   0.638  0.3121 -0.0056  0.5626
  807MOL0     C 6446  10.214   5.593   0.826 -0.4218  0.1113 -0.4314
  807MOL0     C 6447  10.276   5.596   0.947 -0.0124 -0.5216  0.2102
  807MOL0     C 6448  10.332   5.707   0.999 -0.6398  0.4327  0.0595
  807MOL0     C 6449  10.340   5.827   0.925 -0.3267 -0.1798  0.4010
  807MOL0     O 6450  10.412   5.919   0.983  0.7489 -0.0429  0.3983
  807MOL0     C 6451  10.433   6.038   0.914 -0.7071  0.4011  0.6667
  807MOL0     C 6452  10.580   6.033   0.844  0.3388  0.8065 -0.3286
  807MOL0     C 6453  10.610   6.158   0.764 -0.0612 -0.2519  0.0863
  807MOL0     C 6454  10.641   6.277   0.850  0.1616  0.9198  0.4361
  807MOL0     C 6455  10.769   6.256   0.920 -0.7343  0.1364 -0.2226
  807MOL0     C 6456  10.867   6.257   0.988 -0.7401 -0.3731  0.0000
  807MOL0     C 6457  10.273   5.837   0.810 -0.5467 -0.8747 -0.1258
  807MOL0     C 6458  10.218   5.717   0.763  0.2210 -0.3195  0.3519
  807MOL0     H 6459   9.974   5.549   0.431  1.0691 -0.8692  0.3273
  807MOL0     H 6460   9.819   5.408   0.296  0.7427  4.2935 -0.3906
  807MOL0     H 6461   9.601   5.139   0.531  0.5877  3.2821  2.1986
  807MOL0     H 6462   9.534   5.105   0.368  0.1593 -0.7344  0.8789
  807MOL0     H 6463   9.516   5.370   0.358  0.2114 -1.0595  0.1405
  807MOL0     H 6464   9.543   5.373   0.534 -1.2459 -0.0579  1.5518
  807MOL0     H 6465   9.303   5.221   0.404  0.6660 -0.5099 -0.2584
  807MOL0     H 6466   9.307   5.396   0.457 -1.8633 -0.9557  1.4417
  807MOL0     H 6467   9.197   5.220   0.609 -0.6181  1.8982 -0.7582
  807MOL0     H 6468   9.353   5.140   0.609  1.2133  1.0850  1.1476
  807MOL0     H 6469   9.353   5.407   0.745  0.5819 -0.2431 -0.7222
  807MOL0     H 6470   9.460   5.267   0.746  0.0850  0.8084  0.1541
  807MOL0     H 6471   9.239   5.143   0.841  1.8058 -1.1856  3.3902
  807MOL0     H 6472   9.160   5.295   0.835 -0.9505  0.0809 -3.3613
  807MOL0     H 6473   9.372   5.202   1.027 -0.8241 -0.3948 -0.4578
  807MOL0     H 6474   9.397   5.367   0.984  2.0189 -1.4847  1.7123
  807MOL0     H 6475   9.150   5.433   1.040 -1.1491 -1.6184 -2.9667
  807MOL0     H 6476   9.257   5.387   1.172 -0.3259  3.0220 -1.1722
  807MOL0     H 6477   8.941   5.251   0.986 -1.0539  3.1972  0.6516
  807MOL0     H 6478   8.805   5.016   1.267 -0.6570  0.3669  0.6161
  807MOL0     H 6479   8.816   4.996   1.090  0.7422  0.5041  0.0133
  807MOL0     H 6480   8.690   5.220   1.060 -2.5317 -0.3614  0.2406
  807MOL0     H 6481   8.725   5.259   1.225 -3.6469 -0.9720  2.0768
  807MOL0     H 6482   8.582   5.073   1.300 -2.9849 -0.5737  0.8899
  807MOL0     H 6483   8.498   5.206   1.245  0.4384 -0.6274  1.3957
  807MOL0     H 6484   8.561   4.988   1.044  1.9167  2.3696  1.4040
  807MOL0     H 6485   8.446   5.115   1.020 -0.3737  0.4143  0.0060
  807MOL0     H 6486   8.240   4.972   0.934 -2.0165 -1.2511 -0.0655
  807MOL0     H 6487   8.016   5.085   0.903  0.6092  2.2134 -0.9771
  807MOL0     H 6488   7.571   5.146   1.125 -1.7346 -0.1973  1.8865
  807MOL0     H 6489   7.361   5.273   1.135 -2.2722  3.1898  1.3592
  807MOL0     H 6490   7.349   5.704   1.221  1.1054 -1.3421  0.7247
  807MOL0     H 6491   7.381   5.617   1.370  2.6398 -2.4486 -1.9275
  807MOL0     H 6492   7.128   5.561   1.374  0.2056 -0.0965  0.5988
  807MOL0     H 6493   7.106   5.674   1.249 -3.0379 -1.7870  1.9142
  807MOL0     H 6494   7.153   5.865   1.377 -0.3904 -0.8429 -0.0797
  807MOL0     H 6495   7.253   5.770   1.491  0.8468  1.7542  0.6556
  807MOL0     H 6496   6.945   5.721   1.479  0.5006 -0.5370 -1.2793
  807MOL0     H 6497   7.071   5.657   1.585 -1.0172 -2.4868 -2.2569
  807MOL0     H 6498   6.945   5.956   1.595 -3.3095 -0.3276  3.9779
  807MOL0     H 6499   7.087   5.892   1.679  0.4744 -2.0057  1.0060
  807MOL0     H 6500   6.943   5.720   1.777  1.3602  2.0617  0.9361
  807MOL0     H 6501   6.814   5.760   1.659 -0.2165  3.1571 -2.1050
  807MOL0     H 6502   6.919   5.954   1.866  1.5892 -3.1541 -1.2673
  807MOL0     H 6503   6.789   5.986   1.741 -0.1068  0.5146  0.4960
  807MOL0     H 6504   6.672   5.937   1.955 -0.7321  0.0743 -1.1345
  807MOL0     H 6505   6.771   5.793   1.981 -1.2891 -1.3256  1.2163
  807MOL0     H 6506   7.566   5.636   1.221 -2.0524 -0.1946  1.7923
  807MOL0     H 6507   7.783   5.512   1.183  0.5118  0.1845  0.6482
  807MOL0     H 6508   8.060   5.265   1.288  2.5692  2.7007 -1.5787
  807MOL0     H 6509   8.247   5.116   1.342 -1.5397 -0.1609  1.3611
  807MOL0     H 6510   9.829   5.120   0.618  3.1634  0.0163  2.5861
  807MOL0     H 6511   9.975   5.257   0.735  2.7682  0.8249  0.0041
  807MOL0     H 6512  10.280   5.505   1.005  1.5051 -1.1264 -0.7783
  807MOL0     H 6513  10.389   5.704   1.091  1.4328 -1.9197 -1.1712
  807MOL0     H 6514  10.447   6.116   0.989 -0.8109  1.0692 -0.0061
  807MOL0     H 6515  10.353   6.071   0.848  1.6915  0.5862 -2.4202
  807MOL0     H 6516  10.664   6.020   0.914  2.0692 -1.2915 -2.5888
  807MOL0     H 6517  10.583   5.955   0.767  1.2171  1.8725 -1.4049
  807MOL0     H 6518  10.523   6.184   0.703  0.3611  1.0882  0.0306
  807MOL0     H 6519  10.693   6.152   0.694  1.6112 -1.5142  2.0549
  807MOL0     H 6520  10.654   6.362   0.782 -2.4398  1.1945  0.1535
  807MOL0     H 6521  10.556   6.298   0.916  1.3878  3.4423  1.3435
  807MOL0     H 6522  10.957   6.275   1.043 -2.0989  1.7447  1.7206
  807MOL0     H 6523  10.259   5.926   0.750  2.6363  0.0820  0.3650
  807MOL0     H 6524  10.168   5.731   0.667 -0.2732 -1.0733  0.4849
  808MOL0     O 6525   0.638   5.690   9.062  0.2862  0.0659 -0.2624
  808MOL0     C 6526   0.695   5.590   9.097  0.5662  0.3838  0.0999
  808MOL0     O 6527   0.827   5.570   9.096 -0.2826  0.3454  0.3509
  808MOL0     C 6528   0.903   5.660   9.022  1.0864  0.3011  0.3438
  808MOL0     C 6529   0.953   5.624   8.898 -0.5509  0.2251  0.6994
  808MOL0     C 6530   1.030   5.707   8.821  0.1971 -0.7689  0.0021
  808MOL0     C 6531   1.061   5.838   8.872  0.2947 -0.4558  0.2877
  808MOL0     O 6532   1.145   5.908   8.791  0.6609 -0.1768  0.1955
  808MOL0     C 6533   1.249   5.969   8.858 -0.2761  0.1211 -0.2607
  808MOL0     C 6534   1.356   6.013   8.756 -0.3154  0.4981 -0.3017
  808MOL0     C 6535   1.477   6.073   8.833  0.0035  0.3177  0.3152
  808MOL0     C 6536   1.598   6.096   8.748 -0.5077 -0.6574  1.0912
  808MOL0     C 6537   1.592   6.219   8.661  0.0906 -1.2268  0.1769
  808MOL0     C 6538   1.720   6.260   8.604  0.8611 -0.1129  0.1316
  808MOL0     C 6539   1.788   6.165   8.510 -0.4979 -0.0271 -0.6663
  808MOL0     C 6540   1.746   6.175   8.365  0.9168  0.0411 -0.6689
  808MOL0     N 6541   1.614   6.115   8.345  0.4905  0.4050  0.1147
  808MOL0     C 6542   1.560   5.995   8.386  0.0365  1.0740 -0.2970
  808MOL0     C 6543   1.441   5.988   8.324 -0.4418 -0.2175  0.6709
  808MOL0     C 6544   1.352   5.865   8.313  0.0245 -0.4378  0.5182
  808MOL0     C 6545   1.228   5.886   8.406 -0.0634  0.2808  0.4219
  808MOL0     C 6546   1.116   5.789   8.377  0.1454  0.3943  0.5534
  808MOL0     C 6547   0.977   5.826   8.434  0.5939 -0.0275 -0.1324
  808MOL0     O 6548   0.871   5.741   8.374 -0.0077 -0.2254 -0.3575
  808MOL0     C 6549   0.757   5.708   8.449  0.1109  0.3241  0.3502
  808MOL0     C 6550   0.655   5.639   8.383 -0.5038  0.7132 -0.3621
  808MOL0     C 6551   0.541   5.596   8.443  0.5200 -1.1613 -0.8978
  808MOL0     C 6552   0.524   5.634   8.576  0.4882 -0.4678 -0.2295
  808MOL0     C 6553   0.392   5.594   8.643 -0.1025 -0.4534  0.4389
  808MOL0     O 6554   0.375   5.656   8.774 -0.1808 -0.1961  0.0325
  808MOL0     C 6555   0.256   5.633   8.833 -0.3609 -0.0014  0.4647
  808MOL0     C 6556   0.150   5.707   8.801  0.4144 -0.0472  0.3743
  808MOL0     C 6557   0.019   5.666   8.849 -0.6253  0.0659  0.0092
  808MOL0     C 6558   0.000   5.547   8.926 -1.0482 -0.3509 -0.1618
  808MOL0     O 6559  -0.126   5.515   8.968  0.3555  0.0771  0.1287
  808MOL0     C 6560  -0.140   5.380   9.016  0.4522  0.9129 -0.1327
  808MOL0     C 6561  -0.279   5.332   9.045 -0.1462 -0.6955 -1.1381
  808MOL0     C 6562  -0.299   5.178   9.015 -0.6583  0.2004 -0.5277
  808MOL0     C 6563  -0.436   5.140   9.067  0.1131  0.1416 -0.6162
  808MOL0     C 6564  -0.468   5.006   9.020 -0.1604  0.5540  0.4967
  808MOL0     C 6565  -0.385   4.895   9.088  0.4075 -0.7463 -0.6444
  808MOL0     C 6566  -0.446   4.760   9.071  0.4949 -0.3726  0.4500
  808MOL0     C 6567  -0.348   4.643   9.077  0.0182 -0.0065 -0.8682
  808MOL0    Cl 6568  -0.258   4.665   9.242  0.2129  0.1958 -0.2283
  808MOL0     C 6569   0.121   5.482   8.970  0.6075  0.8821  0.2662
  808MOL0     C 6570   0.247   5.522   8.918 -0.0320  0.0809 -1.2345
  808MOL0     O 6571   0.314   5.520   8.592  0.7979 -0.2553  0.2966
  808MOL0     C 6572   0.622   5.708   8.652  0.0388  0.1067  0.0672
  808MOL0     C 6573   0.744   5.746   8.580  0.3117  0.2292  0.2044
  808MOL0     N 6574   1.410   6.108   8.257  0.3881  0.1024 -0.0889
  808MOL0     N 6575   1.518   6.183   8.274  0.9477  0.4926 -0.1048
  808MOL0     C 6576   1.000   5.885   8.989  0.0984  0.0376 -0.6897
  808MOL0     C 6577   0.936   5.791   9.068  0.0306 -0.0876 -0.3614
  808MOL0     C 6578   0.617   5.483   9.158  0.7822  0.2956  0.2868
  808MOL0     C 6579   0.481   5.506   9.201  0.1676  0.9965 -0.2772
  808MOL0     C 6580   0.404   5.407   9.243 -0.3490  0.7628 -0.2828
  808MOL0     C 6581   0.454   5.273   9.253 -0.8187  0.8465 -0.0426
  808MOL0     O 6582   0.379   5.165   9.279 -0.4325  0.8711 -0.5290
  808MOL0     C 6583   0.241   5.177   9.281  0.0468 -0.5632  0.0383
  808MOL0     C 6584   0.166   5.042   9.236 -0.1831  0.7808 -0.0854
  808MOL0     C 6585   0.009   5.060   9.245 -0.5198 -0.1178 -0.1372
  808MOL0     C 6586  -0.062   5.065   9.388 -0.4288  1.2403  0.7250
  808MOL0     C 6587  -0.114   5.197   9.397 -0.0143 -0.4054  0.3677
  808MOL0     C 6588  -0.136   5.309   9.439 -0.8139 -0.3014  0.0081
  808MOL0     C 6589   0.586   5.253   9.225  1.1775 -0.1665  0.4210
  808MOL0     C 6590   0.669   5.355   9.186  0.3047 -0.1960  0.0485
  808MOL0     H 6591   0.938   5.527   8.850  3.9349  0.0380 -0.8417
  808MOL0     H 6592   1.074   5.679   8.726 -1.4565 -1.4672 -0.5984
  808MOL0     H 6593   1.290   5.896   8.929  0.7825  2.0443  1.1827
  808MOL0     H 6594   1.217   6.053   8.919 -1.1870 -0.0050 -0.5497
  808MOL0     H 6595   1.316   6.085   8.685  0.8125  1.0470 -0.3990
  808MOL0     H 6596   1.395   5.931   8.695  3.2279  0.6620  1.4872
  808MOL0     H 6597   1.497   6.002   8.913 -1.7313 -2.0018 -1.1771
  808MOL0     H 6598   1.448   6.166   8.883  0.7347 -0.1541  1.6774
  808MOL0     H 6599   1.689   6.102   8.809  1.0837 -1.2383 -1.1224
  808MOL0     H 6600   1.597   6.003   8.690  2.9758 -1.2806  1.7883
  808MOL0     H 6601   1.553   6.297   8.726  2.6682  0.2070  0.0999
  808MOL0     H 6602   1.516   6.209   8.582  1.4923  2.0456 -1.7658
  808MOL0     H 6603   1.774   6.285   8.696 -2.9664  0.7044  2.3897
  808MOL0     H 6604   1.693   6.346   8.542  2.2128 -0.8298 -1.5420
  808MOL0     H 6605   1.895   6.183   8.517 -0.6603  0.4903  0.7354
  808MOL0     H 6606   1.777   6.061   8.542 -0.5709  0.5990  1.4764
  808MOL0     H 6607   1.814   6.114   8.306  1.2046 -1.3178  0.9941
  808MOL0     H 6608   1.764   6.274   8.321  2.0260 -0.1511 -0.6627
  808MOL0     H 6609   1.601   5.908   8.437  0.7299  2.0845  0.9404
  808MOL0     H 6610   1.411   5.776   8.337 -3.2043 -2.6328  1.0079
  808MOL0     H 6611   1.322   5.869   8.208  1.3388  2.6278  0.1598
  808MOL0     H 6612   1.198   5.984   8.368  2.0600  1.9342  2.6599
  808MOL0     H 6613   1.255   5.902   8.511  1.9016 -0.7301  0.0989
  808MOL0     H 6614   1.102   5.781   8.269  0.6699  1.5122  0.3862
  808MOL0     H 6615   1.149   5.688   8.403 -1.7529 -0.0406  1.4686
  808MOL0     H 6616   0.955   5.932   8.416 -2.6834 -0.7193 -0.8277
  808MOL0     H 6617   0.983   5.810   8.542  0.3515  0.5980 -0.0171
  808MOL0     H 6618   0.665   5.633   8.275  0.9160 -2.8312 -0.1540
  808MOL0     H 6619   0.467   5.532   8.396 -0.7674 -0.2375 -0.1620
  808MOL0     H 6620   0.175   5.789   8.735 -0.6039  0.1309  0.1810
  808MOL0     H 6621  -0.062   5.729   8.816 -0.7475 -0.4647 -0.7186
  808MOL0     H 6622  -0.085   5.367   9.110 -0.4307  2.3988  0.6348
  808MOL0     H 6623  -0.101   5.314   8.938  2.2025  2.3803 -0.5739
  808MOL0     H 6624  -0.352   5.381   8.980 -1.0317 -0.1121  0.2546
  808MOL0     H 6625  -0.318   5.358   9.144 -1.0974  1.6064 -2.0496
  808MOL0     H 6626  -0.220   5.118   9.063 -0.8595  0.5534  0.2686
  808MOL0     H 6627  -0.280   5.180   8.908  1.5222  2.8076 -0.2092
  808MOL0     H 6628  -0.443   5.143   9.176 -1.4941 -1.0734 -0.6507
  808MOL0     H 6629  -0.514   5.205   9.026 -1.5350 -2.4808 -1.8881
  808MOL0     H 6630  -0.454   4.993   8.913  0.7098 -1.5750  0.8258
  808MOL0     H 6631  -0.575   4.989   9.036 -1.2616  1.1711 -4.6456
  808MOL0     H 6632  -0.365   4.920   9.193  0.2841 -2.0999 -0.2713
  808MOL0     H 6633  -0.283   4.897   9.049  1.0241  3.2494  0.7124
  808MOL0     H 6634  -0.526   4.747   9.144 -1.9631  2.5379 -1.4963
  808MOL0     H 6635  -0.497   4.747   8.975  3.1183  1.8415 -1.4023
  808MOL0     H 6636  -0.275   4.642   8.996  0.1495 -1.8920 -0.7546
  808MOL0     H 6637  -0.393   4.544   9.080  3.8291 -1.8930  1.1353
  808MOL0     H 6638   0.115   5.396   9.035  0.8928  0.7751  0.1504
  808MOL0     H 6639   0.338   5.471   8.946  0.7292  2.6428  1.5091
  808MOL0     H 6640   0.613   5.737   8.756 -2.7905 -2.8581  0.8147
  808MOL0     H 6641   0.806   5.820   8.629 -1.0381  2.4947 -1.2947
  808MOL0     H 6642   1.012   5.985   9.031 -2.0438 -0.5244  1.5067
  808MOL0     H 6643   0.898   5.819   9.166  0.5853  1.9760 -0.6834
  808MOL0     H 6644   0.427   5.595   9.171 -1.7237  0.3575  1.0022
  808MOL0     H 6645   0.303   5.435   9.273 -0.0145 -0.9403  2.9112
  808MOL0     H 6646   0.204   5.254   9.213  1.4199  0.3630  0.2929
  808MOL0     H 6647   0.218   5.208   9.384  2.0389 -1.0285  0.6737
  808MOL0     H 6648   0.199   5.032   9.132  0.8193  1.7642  0.1196
  808MOL0     H 6649   0.201   4.960   9.298 -0.1483 -0.9238 -2.2243
  808MOL0     H 6650  -0.038   4.975   9.194 -3.1613  0.7168  0.7611
  808MOL0     H 6651  -0.025   5.146   9.186  1.4266  0.7959  0.0111
  808MOL0     H 6652  -0.154   5.006   9.382 -0.8846  2.0648 -1.4769
  808MOL0     H 6653  -0.001   5.026   9.469  2.5844  4.1133  0.0435
  808MOL0     H 6654  -0.164   5.408   9.469  2.1916  0.9475 -0.8924
  808MOL0     H 6655   0.608   5.151   9.255 -0.7137 -0.8348 -0.3214
  808MOL0     H 6656   0.773   5.333   9.165  0.9615  1.0424  1.7879
  809MOL0     O 6657   3.118   2.900   0.745 -0.0984  0.1175  0.4491
  809MOL0     C 6658   3.083   2.789   0.714  0.4278  0.5187 -0.1573
  809MOL0     O 6659   3.162   2.692   0.665 -1.2207 -0.2060 -0.2534
  809MOL0     C 6660   3.300   2.718   0.647 -0.4062  0.6943 -0.0749
  809MOL0     C 6661   3.382   2.837   0.656 -0.0835  0.1716  0.0402
  809MOL0     C 6662   3.518   2.837   0.649  1.2543 -0.3317 -0.0052
  809MOL0     C 6663   3.584   2.724   0.622  0.3718  0.0463  0.0180
  809MOL0     O 6664   3.718   2.710   0.592 -0.4419  0.4303  0.3979
  809MOL0     C 6665   3.800   2.823   0.591 -0.3557 -0.2308  0.2834
  809MOL0     C 6666   3.942   2.782   0.599  0.5259 -0.0734 -0.1276
  809MOL0     C 6667   3.983   2.698   0.469  0.1980 -0.8383 -0.2548
  809MOL0     C 6668   4.135   2.681   0.448  0.4955 -0.0177  0.5258
  809MOL0     C 6669   4.188   2.542   0.486 -0.2731  0.0367 -0.0469
  809MOL0     C 6670   4.346   2.528   0.459 -0.2159  0.7858  0.6538
  809MOL0     C 6671   4.381   2.529   0.308  0.9423 -0.5847  0.1589
  809MOL0     C 6672   4.521   2.486   0.279  0.2864  0.5430  0.4702
  809MOL0     N 6673   4.552   2.506   0.137 -0.6918 -0.0891 -0.1700
  809MOL0     C 6674   4.601   2.618   0.077  0.0719  0.0790  0.6101
  809MOL0     C 6675   4.596   2.586  -0.055 -0.1424 -1.0098 -0.9866
  809MOL0     C 6676   4.623   2.673  -0.170  0.1489  0.4957  0.1792
  809MOL0     C 6677   4.508   2.731  -0.248  0.3443 -0.1158  0.2825
  809MOL0     C 6678   4.422   2.823  -0.156  0.9431 -0.0415  0.1254
  809MOL0     C 6679   4.290   2.876  -0.220  0.1906  0.5137 -0.1124
  809MOL0     O 6680   4.220   2.955  -0.125 -0.4189  0.6318  0.1080
  809MOL0     C 6681   4.092   2.987  -0.156  0.4451 -0.4331 -0.2335
  809MOL0     C 6682   4.017   2.958  -0.273 -0.6238 -0.1476 -0.5213
  809MOL0     C 6683   3.890   3.020  -0.301 -0.7330  0.2516 -0.6118
  809MOL0     C 6684   3.842   3.107  -0.204  0.3700  0.0554 -0.3457
  809MOL0     C 6685   3.711   3.176  -0.230  0.1250  0.3405  0.3025
  809MOL0     O 6686   3.660   3.161  -0.350 -0.2035 -0.1155 -0.7809
  809MOL0     C 6687   3.547   3.227  -0.379  0.9192 -1.5436  0.0685
  809MOL0     C 6688   3.535   3.300  -0.500 -0.3438 -0.4034 -0.3446
  809MOL0     C 6689   3.413   3.344  -0.550  0.6969  0.9374 -1.2372
  809MOL0     C 6690   3.292   3.319  -0.489 -1.0170  0.5570  0.5319
  809MOL0     O 6691   3.165   3.356  -0.535 -0.2033 -0.3764  0.4052
  809MOL0     C 6692   3.159   3.408  -0.669 -0.0064  0.1540  1.0712
  809MOL0     C 6693   3.011   3.399  -0.711 -0.0256  0.4584 -0.6485
  809MOL0     C 6694   3.008   3.360  -0.863 -0.1311  0.0062 -0.2706
  809MOL0     C 6695   2.863   3.362  -0.905  0.2849  0.4356  0.4676
  809MOL0     C 6696   2.861   3.327  -1.054  0.3858  0.0601 -0.1069
  809MOL0     C 6697   2.716   3.294  -1.095  0.3104  0.0408  0.5330
  809MOL0     C 6698   2.697   3.254  -1.246 -0.3748 -0.2019 -0.0998
  809MOL0     C 6699   2.543   3.228  -1.266  0.5167  0.1837  0.0080
  809MOL0    Cl 6700   2.509   3.171  -1.431  0.2266 -0.1172 -0.3837
  809MOL0     C 6701   3.297   3.245  -0.371 -0.1655  0.1556 -0.2998
  809MOL0     C 6702   3.421   3.198  -0.320 -0.5907 -0.6483 -1.8959
  809MOL0     O 6703   3.660   3.249  -0.138  0.3447  0.0358  0.4763
  809MOL0     C 6704   3.916   3.131  -0.079 -1.3791 -0.4053 -0.0729
  809MOL0     C 6705   4.036   3.068  -0.057 -0.7295  0.6897 -1.0658
  809MOL0     N 6706   4.563   2.457  -0.064 -0.0764  0.0085  1.5008
  809MOL0     N 6707   4.549   2.410   0.046  0.6575 -0.3549 -0.5258
  809MOL0     C 6708   3.506   2.602   0.609  0.1037  0.9225 -0.2852
  809MOL0     C 6709   3.371   2.594   0.631 -0.6286 -0.2599 -0.0246
  809MOL0     C 6710   2.942   2.756   0.730  0.7631  0.6088  0.3435
  809MOL0     C 6711   2.885   2.631   0.706 -0.0562  0.2701 -0.0192
  809MOL0     C 6712   2.749   2.610   0.707 -0.3856  0.0066 -0.1932
  809MOL0     C 6713   2.661   2.721   0.733 -0.4815 -0.0140  0.8943
  809MOL0     O 6714   2.531   2.716   0.749 -0.8152  0.3582 -0.0330
  809MOL0     C 6715   2.470   2.591   0.705  1.0082  0.1757 -0.1545
  809MOL0     C 6716   2.329   2.575   0.753  0.8407 -0.4134 -0.4093
  809MOL0     C 6717   2.268   2.434   0.710 -0.2292 -0.5236  1.2170
  809MOL0     C 6718   2.135   2.387   0.778 -0.5974  0.0835 -0.4532
  809MOL0     C 6719   2.027   2.481   0.763  0.2828 -0.0723 -0.5196
  809MOL0     C 6720   1.938   2.561   0.751 -0.1784 -0.0989  0.0629
  809MOL0     C 6721   2.718   2.847   0.761  0.3380 -0.1905 -0.4952
  809MOL0     C 6722   2.859   2.866   0.748  0.5918 -0.0521  0.2104
  809MOL0     H 6723   3.331   2.933   0.664  1.3391  1.5708 -4.4464
  809MOL0     H 6724   3.577   2.928   0.659  0.1205  0.3403  0.9051
  809MOL0     H 6725   3.778   2.880   0.682 -0.2087 -1.2187  0.9542
  809MOL0     H 6726   3.783   2.892   0.508 -1.1526  1.4842  1.8131
  809MOL0     H 6727   3.956   2.719   0.687  3.5309  0.7924  0.1483
  809MOL0     H 6728   4.011   2.868   0.598  3.1309 -2.0203  0.4919
  809MOL0     H 6729   3.929   2.739   0.384 -2.2890 -1.2640  1.0191
  809MOL0     H 6730   3.934   2.600   0.481 -1.6939 -0.3129 -2.7963
  809MOL0     H 6731   4.161   2.711   0.346  0.8067 -1.5802  0.1230
  809MOL0     H 6732   4.187   2.750   0.515 -2.9155  0.5379  2.8502
  809MOL0     H 6733   4.152   2.473   0.409  2.6437  0.8749 -2.2939
  809MOL0     H 6734   4.176   2.516   0.592  0.7740  1.3919  0.4301
  809MOL0     H 6735   4.375   2.433   0.504  1.9871  0.0284 -2.1135
  809MOL0     H 6736   4.401   2.604   0.515  1.4315 -0.7404  1.1905
  809MOL0     H 6737   4.312   2.453   0.271  0.6814  0.0012 -0.5905
  809MOL0     H 6738   4.356   2.626   0.263  2.5697 -0.3595 -0.2995
  809MOL0     H 6739   4.535   2.380   0.301 -3.3629 -0.1529  0.0634
  809MOL0     H 6740   4.586   2.550   0.340  0.6778  0.8959 -0.3107
  809MOL0     H 6741   4.627   2.715   0.119  0.8697  0.0065  0.3080
  809MOL0     H 6742   4.688   2.615  -0.236  2.3101  1.7173  1.1433
  809MOL0     H 6743   4.692   2.747  -0.128  0.4570  1.1089 -1.3262
  809MOL0     H 6744   4.450   2.647  -0.288 -1.0373  1.2323 -0.6418
  809MOL0     H 6745   4.539   2.788  -0.337  1.2353 -0.2216  0.5188
  809MOL0     H 6746   4.397   2.763  -0.068  0.3156 -0.4625 -0.3296
  809MOL0     H 6747   4.477   2.911  -0.122  1.7012 -1.1329  1.9123
  809MOL0     H 6748   4.229   2.791  -0.252  0.0310  1.3589 -2.1962
  809MOL0     H 6749   4.315   2.940  -0.305  0.4103  1.0275  0.3357
  809MOL0     H 6750   4.056   2.883  -0.341 -0.5437 -3.3633  2.7491
  809MOL0     H 6751   3.832   2.998  -0.389 -0.4734  0.7469 -0.9160
  809MOL0     H 6752   3.621   3.323  -0.562  0.1056  0.5984  0.5987
  809MOL0     H 6753   3.414   3.381  -0.652 -0.3976 -2.8490 -2.7624
  809MOL0     H 6754   3.227   3.352  -0.733 -0.3002 -0.8757  1.6350
  809MOL0     H 6755   3.191   3.512  -0.662  2.4973 -0.5334  0.8190
  809MOL0     H 6756   2.964   3.497  -0.697  0.2875  0.4356  0.7116
  809MOL0     H 6757   2.951   3.328  -0.654 -2.5272  2.9020 -0.0251
  809MOL0     H 6758   3.056   3.262  -0.869  0.9631  0.5603 -0.8622
  809MOL0     H 6759   3.068   3.423  -0.929 -0.9784  1.0321 -0.0866
  809MOL0     H 6760   2.803   3.286  -0.857  0.4859 -0.9747 -1.3888
  809MOL0     H 6761   2.819   3.461  -0.888 -2.9497 -1.2182  2.6669
  809MOL0     H 6762   2.928   3.242  -1.070 -1.3633 -0.8132 -3.9750
  809MOL0     H 6763   2.900   3.414  -1.107  1.2985 -0.3742 -0.1660
  809MOL0     H 6764   2.656   3.383  -1.073 -2.5140 -2.3789  3.6043
  809MOL0     H 6765   2.675   3.221  -1.024 -4.8149  3.4137  1.5584
  809MOL0     H 6766   2.734   3.324  -1.321 -1.7771 -0.8059 -1.3989
  809MOL0     H 6767   2.749   3.159  -1.257 -3.0364 -1.7144 -0.2085
  809MOL0     H 6768   2.488   3.319  -1.241 -0.8271 -0.3624 -0.8553
  809MOL0     H 6769   2.517   3.146  -1.199  2.3393 -0.7159 -0.3080
  809MOL0     H 6770   3.211   3.204  -0.320  1.1920 -0.7074  1.4318
  809MOL0     H 6771   3.422   3.131  -0.234  0.0756  0.6079 -0.8865
  809MOL0     H 6772   3.870   3.212  -0.023 -0.1431  0.6262 -0.4846
  809MOL0     H 6773   4.106   3.102   0.018 -1.4370 -0.1471  0.0054
  809MOL0     H 6774   3.565   2.514   0.586 -0.5560 -0.3428  2.4736
  809MOL0     H 6775   3.319   2.499   0.625  0.6295 -0.9340 -0.4843
  809MOL0     H 6776   2.956   2.552   0.685  1.3215  0.8660  2.1256
  809MOL0     H 6777   2.703   2.516   0.678  0.1820 -0.6910  1.1078
  809MOL0     H 6778   2.522   2.511   0.759  0.4093 -0.2074 -0.1280
  809MOL0     H 6779   2.474   2.580   0.596 -1.2772 -0.8600 -0.1940
  809MOL0     H 6780   2.344   2.588   0.861  3.2706  0.4077 -0.7951
  809MOL0     H 6781   2.265   2.655   0.714  1.8405 -0.6811 -2.7195
  809MOL0     H 6782   2.356   2.375   0.734  0.0438  0.1391  1.9114
  809MOL0     H 6783   2.255   2.445   0.602 -1.6590 -1.0594  1.3081
  809MOL0     H 6784   2.114   2.287   0.741 -0.7159  0.7160 -2.1833
  809MOL0     H 6785   2.154   2.364   0.883 -0.9811 -2.1560 -0.8349
  809MOL0     H 6786   1.857   2.625   0.723  2.4279  3.3191 -0.3724
  809MOL0     H 6787   2.667   2.934   0.800  2.6049  1.3142 -0.7186
  809MOL0     H 6788   2.898   2.968   0.755 -1.2433  0.7199 -0.1636
  810MOL0     O 6789   6.669   8.961   7.514 -0.2775 -0.1031  0.1124
  810MOL0     C 6790   6.736   8.854   7.518  0.0514 -0.1798  0.8409
  810MOL0     O 6791   6.689   8.727   7.553 -0.5408  0.4978  0.3501
  810MOL0     C 6792   6.555   8.703   7.533 -0.0295 -0.8510  0.5488
  810MOL0     C 6793   6.498   8.691   7.400  0.2430  0.4856 -0.0183
  810MOL0     C 6794   6.365   8.655   7.388  0.3407 -0.4017 -1.2367
  810MOL0     C 6795   6.283   8.624   7.502  0.4759 -0.2167  0.1633
  810MOL0     O 6796   6.156   8.588   7.497 -0.6483 -0.6182 -0.2044
  810MOL0     C 6797   6.095   8.562   7.369 -0.1474  0.2315 -0.6714
  810MOL0     C 6798   5.951   8.519   7.387  0.5807  0.0436 -0.5452
  810MOL0     C 6799   5.849   8.621   7.434 -0.1746 -0.0494  0.2344
  810MOL0     C 6800   5.862   8.673   7.580  0.1898  0.1306 -0.9688
  810MOL0     C 6801   5.739   8.746   7.624  0.0339 -0.0997 -0.1667
  810MOL0     C 6802   5.621   8.649   7.647  0.1292  0.3021 -0.0175
  810MOL0     C 6803   5.499   8.729   7.695 -0.1574  0.0402  0.4314
  810MOL0     C 6804   5.517   8.782   7.844  0.5286  0.2416  0.5033
  810MOL0     N 6805   5.392   8.844   7.891  0.0388 -0.8296 -0.2850
  810MOL0     C 6806   5.347   8.974   7.876  0.3444  0.3894  0.4241
  810MOL0     C 6807   5.226   8.978   7.929  1.6420 -0.2708 -0.0453
  810MOL0     C 6808   5.138   9.101   7.951 -0.5065  0.8920 -0.5979
  810MOL0     C 6809   4.990   9.077   7.977 -0.0998 -0.2563  0.3259
  810MOL0     C 6810   4.907   9.201   7.992 -0.0021 -0.2839  0.4435
  810MOL0     C 6811   4.771   9.161   8.040  0.4703  0.1086 -0.3289
  810MOL0     O 6812   4.675   9.248   7.981 -0.0623 -0.6898  0.0907
  810MOL0     C 6813   4.544   9.253   8.038  0.8891 -0.0940 -0.0896
  810MOL0     C 6814   4.455   9.329   7.966  0.1006  0.0734 -0.1837
  810MOL0     C 6815   4.321   9.346   8.000  1.3020  0.9115 -0.3040
  810MOL0     C 6816   4.277   9.282   8.125  0.3644 -0.9686  0.3978
  810MOL0     C 6817   4.133   9.286   8.169  0.0390  0.7279  0.1066
  810MOL0     O 6818   4.038   9.332   8.072  0.0839  0.1078  0.0564
  810MOL0     C 6819   3.920   9.391   8.110 -0.2794 -0.4763 -0.5103
  810MOL0     C 6820   3.925   9.492   8.206 -0.3585  1.0571 -0.0221
  810MOL0     C 6821   3.814   9.557   8.260  0.3015 -0.6704  0.3713
  810MOL0     C 6822   3.691   9.534   8.201 -0.7808 -0.0888 -0.3346
  810MOL0     O 6823   3.589   9.610   8.249  0.2169  0.2371  0.6476
  810MOL0     C 6824   3.533   9.709   8.161 -0.3710 -0.8537  0.8412
  810MOL0     C 6825   3.638   9.801   8.096 -0.2474  0.1027  0.6998
  810MOL0     C 6826   3.704   9.736   7.970  0.7590 -0.4613 -0.0390
  810MOL0     C 6827   3.809   9.828   7.898  0.6863  0.2282 -0.6865
  810MOL0     C 6828   3.893   9.746   7.794  0.1731  0.5750 -0.2628
  810MOL0     C 6829   3.975   9.630   7.852 -0.2247  0.0194  0.6425
  810MOL0     C 6830   4.071   9.677   7.964  0.2980  0.6262 -0.7958
  810MOL0     C 6831   4.197   9.748   7.904 -0.0616 -0.0252  0.3217
  810MOL0    Cl 6832   4.172   9.929   7.873 -0.1386  0.1425  0.2437
  810MOL0     C 6833   3.675   9.435   8.106  0.2504 -0.1820  0.5220
  810MOL0     C 6834   3.795   9.367   8.059  0.5824 -0.4909  0.6560
  810MOL0     O 6835   4.116   9.279   8.294 -0.1747  0.2848 -0.3866
  810MOL0     C 6836   4.374   9.223   8.202 -0.2278 -0.8058 -0.6218
  810MOL0     C 6837   4.504   9.195   8.157  0.8828 -0.4686  0.5126
  810MOL0     N 6838   5.186   8.851   7.964 -0.1326 -0.3038 -0.5344
  810MOL0     N 6839   5.281   8.771   7.936  0.3365  0.8480  0.0989
  810MOL0     C 6840   6.347   8.623   7.625  0.8949  0.3330  0.5624
  810MOL0     C 6841   6.479   8.657   7.638 -0.2339  0.4325  0.2165
  810MOL0     C 6842   6.885   8.878   7.501 -0.3253 -0.0928  0.0104
  810MOL0     C 6843   6.975   8.777   7.488  0.8726 -0.3520  0.1003
  810MOL0     C 6844   7.107   8.809   7.471  0.7008  0.7724 -0.2803
  810MOL0     C 6845   7.149   8.937   7.450  0.3396 -0.3801 -0.2550
  810MOL0     O 6846   7.278   8.951   7.409 -0.6188 -0.1012 -0.1417
  810MOL0     C 6847   7.325   9.079   7.370  0.0150  0.1242 -0.6110
  810MOL0     C 6848   7.454   9.055   7.306 -0.7898 -0.4713 -0.3217
  810MOL0     C 6849   7.457   8.947   7.196  0.4805  0.4379 -0.5361
  810MOL0     C 6850   7.523   8.986   7.062 -0.4460  0.0866 -0.3136
  810MOL0     C 6851   7.655   9.037   7.083 -0.2524  0.0979  0.4047
  810MOL0     C 6852   7.767   9.070   7.096 -0.3519 -0.6024 -0.3982
  810MOL0     C 6853   7.061   9.042   7.468 -0.6247  0.6953 -0.8422
  810MOL0     C 6854   6.932   9.016   7.495 -0.5620  0.7629 -0.2565
  810MOL0     H 6855   6.559   8.714   7.314 -2.3861 -1.5869 -2.6648
  810MOL0     H 6856   6.328   8.650   7.286  0.4345 -2.1504 -1.2154
  810MOL0     H 6857   6.144   8.479   7.318 -3.3198 -2.7305  0.6725
  810MOL0     H 6858   6.092   8.655   7.312 -1.2375  1.2412  0.9541
  810MOL0     H 6859   5.952   8.443   7.465  1.7280  1.3655  0.7880
  810MOL0     H 6860   5.921   8.480   7.289  1.8991 -2.7787  0.0867
  810MOL0     H 6861   5.754   8.566   7.427  0.5615 -1.2570 -0.7971
  810MOL0     H 6862   5.853   8.702   7.362  2.2880  0.6836  1.1142
  810MOL0     H 6863   5.876   8.584   7.642  1.6692 -1.5604 -3.5321
  810MOL0     H 6864   5.949   8.737   7.597 -1.0792  1.4275  1.2439
  810MOL0     H 6865   5.721   8.832   7.559  0.2929  1.7005  1.9940
  810MOL0     H 6866   5.768   8.793   7.719  0.0234  0.3791 -0.3969
  810MOL0     H 6867   5.641   8.557   7.702  1.3902  0.1213 -0.7349
  810MOL0     H 6868   5.598   8.609   7.548  0.2198 -0.9205  0.4348
  810MOL0     H 6869   5.473   8.817   7.635  1.4275  0.6059  0.5387
  810MOL0     H 6870   5.417   8.658   7.679  0.6615 -0.8359  0.0515
  810MOL0     H 6871   5.600   8.853   7.837  0.8951 -0.3315 -2.3004
  810MOL0     H 6872   5.546   8.703   7.914  3.4617  0.2473 -0.5347
  810MOL0     H 6873   5.394   9.057   7.824  0.8115 -0.7081 -0.9445
  810MOL0     H 6874   5.171   9.171   7.873  4.2714  1.7242  1.7745
  810MOL0     H 6875   5.188   9.143   8.039  0.4099  0.3093 -0.8237
  810MOL0     H 6876   4.986   9.012   8.065  0.4847 -2.4315 -1.1736
  810MOL0     H 6877   4.939   9.024   7.895 -0.4467 -1.3689  1.2286
  810MOL0     H 6878   4.946   9.277   8.061  2.0282  0.1832 -1.1199
  810MOL0     H 6879   4.905   9.255   7.896  7.2448 -3.6268 -2.3418
  810MOL0     H 6880   4.762   9.160   8.149  0.1071 -1.5319 -0.3416
  810MOL0     H 6881   4.754   9.057   8.011  2.3615  0.0897 -1.5546
  810MOL0     H 6882   4.490   9.368   7.871 -1.5185  2.7709  0.2366
  810MOL0     H 6883   4.248   9.392   7.934 -1.3147 -3.8823 -1.2065
  810MOL0     H 6884   4.021   9.521   8.247 -1.5841  0.8060  3.3276
  810MOL0     H 6885   3.828   9.627   8.341  3.1515 -0.0764 -0.5350
  810MOL0     H 6886   3.471   9.778   8.219  1.2061  0.9911  0.4662
  810MOL0     H 6887   3.481   9.658   8.079  3.0876 -1.6338 -1.0635
  810MOL0     H 6888   3.718   9.828   8.167  0.3673  0.7848 -0.2311
  810MOL0     H 6889   3.598   9.897   8.063  1.2671  1.0977  1.6164
  810MOL0     H 6890   3.633   9.706   7.893  3.7035 -0.6390 -2.8818
  810MOL0     H 6891   3.764   9.649   7.998 -0.4189 -2.1838 -2.5352
  810MOL0     H 6892   3.761   9.914   7.849  2.9633  2.2372  0.3569
  810MOL0     H 6893   3.879   9.871   7.970 -1.2816 -1.4867  2.4799
  810MOL0     H 6894   3.966   9.812   7.746  0.8058 -1.2552 -1.9609
  810MOL0     H 6895   3.829   9.722   7.708  1.0742  1.6102 -1.2590
  810MOL0     H 6896   4.037   9.587   7.774  1.4384  2.0085  0.7928
  810MOL0     H 6897   3.901   9.553   7.877  1.0127 -2.5684 -2.8408
  810MOL0     H 6898   4.031   9.727   8.052  2.3771 -1.3968  1.4448
  810MOL0     H 6899   4.108   9.582   8.005  0.2826  2.4499  3.9928
  810MOL0     H 6900   4.225   9.695   7.813 -2.1687 -1.7956  0.6269
  810MOL0     H 6901   4.278   9.741   7.977 -1.8341  0.9362  2.4901
  810MOL0     H 6902   3.577   9.419   8.061  1.4682 -0.5083 -2.2263
  810MOL0     H 6903   3.803   9.298   7.976  2.1074 -1.8205  1.8552
  810MOL0     H 6904   4.358   9.184   8.302  0.6568  3.9185  1.6273
  810MOL0     H 6905   4.564   9.121   8.210  3.1589  1.6789  1.1419
  810MOL0     H 6906   6.292   8.588   7.712 -2.1169 -0.6142 -1.5268
  810MOL0     H 6907   6.536   8.657   7.731 -1.8333 -0.1676  1.2504
  810MOL0     H 6908   6.949   8.671   7.487 -0.7690  0.0130 -1.6370
  810MOL0     H 6909   7.175   8.725   7.462 -1.0119 -0.5640 -1.2486
  810MOL0     H 6910   7.331   9.147   7.455  0.9815 -1.5098  0.6865
  810MOL0     H 6911   7.254   9.134   7.307 -0.0023  2.4726  1.3273
  810MOL0     H 6912   7.486   9.150   7.263 -0.4371  0.1555  1.2290
  810MOL0     H 6913   7.524   9.027   7.385  0.0129  0.4689 -0.6829
  810MOL0     H 6914   7.354   8.930   7.164  0.5790 -1.4026  0.0094
  810MOL0     H 6915   7.507   8.857   7.232  0.3534  0.8547  0.7325
  810MOL0     H 6916   7.530   8.890   7.009  2.1515 -0.1743  0.4065
  810MOL0     H 6917   7.471   9.065   7.006  0.6231 -0.6144 -2.4078
  810MOL0     H 6918   7.865   9.102   7.126 -0.0604 -0.7116 -1.2134
  810MOL0     H 6919   7.096   9.145   7.458 -2.4943  1.1870 -3.2150
  810MOL0     H 6920   6.866   9.100   7.514 -0.2067  1.4291 -1.8415
  811MOL0     O 6921   9.347   2.803   2.624 -0.2560 -0.0632 -0.2938
  811MOL0     C 6922   9.392   2.725   2.703  0.0972 -0.3050  0.2388
  811MOL0     O 6923   9.349   2.604   2.740  0.0600  0.2529 -0.4523
  811MOL0     C 6924   9.229   2.552   2.688 -0.0287  0.8650  0.2396
  811MOL0     C 6925   9.233   2.416   2.672  0.7462  0.0041 -0.7389
  811MOL0     C 6926   9.109   2.345   2.653 -0.0641  0.0073  0.2834
  811MOL0     C 6927   8.989   2.423   2.640 -0.2347  0.6157 -0.3100
  811MOL0     O 6928   8.874   2.346   2.624  0.1894 -0.3709  0.5595
  811MOL0     C 6929   8.830   2.266   2.730 -0.1654  0.1914 -0.0536
  811MOL0     C 6930   8.713   2.331   2.801  0.1076  0.6433  0.5260
  811MOL0     C 6931   8.590   2.263   2.735  0.2549 -0.3419 -0.7299
  811MOL0     C 6932   8.472   2.307   2.818  0.1666 -0.0030  0.7427
  811MOL0     C 6933   8.337   2.243   2.764 -0.5483  0.6529  0.1764
  811MOL0     C 6934   8.293   2.145   2.878  0.6735 -0.2252 -0.7595
  811MOL0     C 6935   8.170   2.066   2.846 -0.2600 -0.2649 -0.3923
  811MOL0     C 6936   8.134   1.976   2.962  0.0513  0.1817 -0.0944
  811MOL0     N 6937   8.003   1.923   2.945 -0.2319 -0.1735 -0.4499
  811MOL0     C 6938   7.975   1.810   2.865 -0.6185  0.0319 -0.1644
  811MOL0     C 6939   7.841   1.805   2.865  0.5190 -0.1648  0.3107
  811MOL0     C 6940   7.766   1.693   2.809  0.2162 -0.0593  0.7142
  811MOL0     C 6941   7.636   1.743   2.749 -1.3829  1.1771 -0.7273
  811MOL0     C 6942   7.522   1.722   2.843  0.9060  0.4204  0.0770
  811MOL0     C 6943   7.376   1.744   2.794  0.0424  0.2244  0.3055
  811MOL0     O 6944   7.274   1.691   2.880 -0.3960 -0.3301 -0.1202
  811MOL0     C 6945   7.140   1.710   2.833 -0.6906 -0.1424 -0.8381
  811MOL0     C 6946   7.096   1.810   2.742 -1.1643  0.3668  0.1156
  811MOL0     C 6947   6.957   1.829   2.707  0.6735  0.1492 -1.1061
  811MOL0     C 6948   6.855   1.748   2.787 -0.4788 -0.2198  0.0840
  811MOL0     C 6949   6.708   1.771   2.767 -0.6935 -0.5369  0.1406
  811MOL0     O 6950   6.680   1.876   2.683  0.3854  0.0079 -0.1607
  811MOL0     C 6951   6.550   1.893   2.631 -0.4486 -0.6022  0.2004
  811MOL0     C 6952   6.510   2.019   2.604 -0.2093  0.8226  0.5396
  811MOL0     C 6953   6.380   2.057   2.579  0.4397 -0.3216  0.3433
  811MOL0     C 6954   6.292   1.949   2.556  0.2422 -0.6665  0.1444
  811MOL0     O 6955   6.163   1.968   2.524  0.3266 -0.1316  0.7175
  811MOL0     C 6956   6.103   2.095   2.503 -0.2611 -0.3424 -0.0438
  811MOL0     C 6957   5.958   2.093   2.562  1.0820 -0.1985 -1.0447
  811MOL0     C 6958   5.893   2.231   2.530  0.7294  0.4376  0.1862
  811MOL0     C 6959   5.741   2.224   2.544  0.7581 -0.2707 -0.3496
  811MOL0     C 6960   5.682   2.364   2.502 -0.3092  0.4951 -0.1335
  811MOL0     C 6961   5.532   2.373   2.515  0.3423  0.5241 -1.0923
  811MOL0     C 6962   5.448   2.355   2.389 -0.5289 -0.0860  0.2942
  811MOL0     C 6963   5.322   2.442   2.402  0.4540  0.5840  0.2179
  811MOL0    Cl 6964   5.215   2.445   2.265 -0.2222 -0.0739 -0.2932
  811MOL0     C 6965   6.336   1.815   2.567 -0.2292 -0.7332 -0.9404
  811MOL0     C 6966   6.464   1.783   2.600 -0.0477 -0.3748  0.3306
  811MOL0     O 6967   6.631   1.696   2.825 -0.7964 -0.5952  0.1619
  811MOL0     C 6968   6.905   1.663   2.892  0.1438  0.2596 -0.1276
  811MOL0     C 6969   7.043   1.641   2.913 -0.1187  0.0342  0.2698
  811MOL0     N 6970   7.791   1.906   2.936 -0.7739 -0.2603  0.0727
  811MOL0     N 6971   7.890   1.976   2.981 -0.2357  0.4787 -0.5199
  811MOL0     C 6972   8.984   2.561   2.652 -0.0118 -0.0106  0.4832
  811MOL0     C 6973   9.103   2.630   2.686 -0.8078 -0.0734 -1.1555
  811MOL0     C 6974   9.521   2.778   2.754 -0.9273 -1.0794  0.8309
  811MOL0     C 6975   9.580   2.902   2.716  0.1857 -0.2076  0.1940
  811MOL0     C 6976   9.705   2.945   2.773 -0.0653 -0.5193  0.4111
  811MOL0     C 6977   9.779   2.862   2.860 -1.3017 -0.1112  0.1247
  811MOL0     O 6978   9.904   2.888   2.910  0.0919  0.0037 -0.2393
  811MOL0     C 6979   9.987   2.969   2.819 -0.0624  0.7173  0.2724
  811MOL0     C 6980  10.143   2.949   2.842 -0.1307 -0.2803  0.0301
  811MOL0     C 6981  10.201   2.951   2.982  0.3217 -0.6332  1.2754
  811MOL0     C 6982  10.207   2.807   3.038  0.7942 -0.6471  0.1315
  811MOL0     C 6983  10.249   2.793   3.176  0.4004 -0.4793 -0.0987
  811MOL0     C 6984  10.289   2.799   3.291 -0.2067  0.0108 -0.2428
  811MOL0     C 6985   9.725   2.744   2.894 -0.7902  0.2374  0.1612
  811MOL0     C 6986   9.591   2.706   2.848  0.4301  0.0225 -0.4156
  811MOL0     H 6987   9.326   2.361   2.660  1.8463  1.5811  0.1692
  811MOL0     H 6988   9.096   2.240   2.628 -0.4580 -0.2036  1.3043
  811MOL0     H 6989   8.910   2.248   2.803 -1.4944 -1.2108  1.1367
  811MOL0     H 6990   8.802   2.165   2.699  0.6133 -1.0990  2.9966
  811MOL0     H 6991   8.702   2.438   2.787 -0.4632  0.6069  0.6816
  811MOL0     H 6992   8.724   2.308   2.908  4.3815 -1.6995 -0.1871
  811MOL0     H 6993   8.601   2.154   2.741  3.2788 -0.1373 -1.0491
  811MOL0     H 6994   8.570   2.285   2.629 -1.0668  1.9496 -0.0637
  811MOL0     H 6995   8.467   2.288   2.925 -2.1435  0.5807  0.8029
  811MOL0     H 6996   8.468   2.416   2.804  0.6189 -0.1111 -0.2748
  811MOL0     H 6997   8.354   2.193   2.668  1.1439 -0.6407  1.0889
  811MOL0     H 6998   8.258   2.318   2.750 -2.3695 -1.2440 -0.3725
  811MOL0     H 6999   8.277   2.210   2.964 -0.1474 -2.2000  0.6475
  811MOL0     H 7000   8.373   2.075   2.905  2.4411  2.8071  2.8322
  811MOL0     H 7001   8.085   2.133   2.829 -1.4245 -1.7690 -0.7315
  811MOL0     H 7002   8.176   2.009   2.754  0.6158  1.4956 -1.4802
  811MOL0     H 7003   8.129   2.034   3.055 -4.7784  1.7739 -1.0815
  811MOL0     H 7004   8.212   1.899   2.962  1.0810  1.1631 -2.1463
  811MOL0     H 7005   8.049   1.742   2.825  0.5296 -0.1501  2.1234
  811MOL0     H 7006   7.758   1.621   2.891  0.5180  0.0787  0.8688
  811MOL0     H 7007   7.826   1.635   2.738 -0.9956 -2.0121  1.1960
  811MOL0     H 7008   7.616   1.681   2.662 -0.6657  1.2609 -0.9569
  811MOL0     H 7009   7.639   1.845   2.710 -0.5982  0.3733 -2.9161
  811MOL0     H 7010   7.534   1.616   2.867  1.3104  0.2690 -0.7740
  811MOL0     H 7011   7.531   1.782   2.934  0.9509  3.0134 -1.5503
  811MOL0     H 7012   7.368   1.698   2.695 -0.4373 -1.0897  0.9364
  811MOL0     H 7013   7.363   1.852   2.781 -2.1124  0.0564  0.7204
  811MOL0     H 7014   7.175   1.873   2.702 -1.6154  0.4029 -0.7241
  811MOL0     H 7015   6.920   1.908   2.643 -2.7479  0.1359  0.6240
  811MOL0     H 7016   6.582   2.101   2.611  2.1118 -0.8839 -1.6211
  811MOL0     H 7017   6.342   2.158   2.565  0.8053 -0.4348 -1.8721
  811MOL0     H 7018   6.095   2.105   2.394 -0.1495 -2.5966 -0.3078
  811MOL0     H 7019   6.151   2.178   2.555 -0.2333  0.5240 -1.4032
  811MOL0     H 7020   5.951   2.083   2.670 -4.9354  3.8278 -0.5561
  811MOL0     H 7021   5.899   2.014   2.514 -0.1863  0.8249 -1.2265
  811MOL0     H 7022   5.908   2.264   2.427 -2.0180 -1.7774 -1.0500
  811MOL0     H 7023   5.941   2.307   2.592 -0.2139  2.6320 -1.5952
  811MOL0     H 7024   5.698   2.145   2.481 -1.3881  1.0582 -0.6656
  811MOL0     H 7025   5.710   2.207   2.648  0.0999  0.8647 -0.3444
  811MOL0     H 7026   5.717   2.387   2.402 -0.7087  1.3590 -0.0836
  811MOL0     H 7027   5.731   2.427   2.577 -1.0362 -0.4803  1.2295
  811MOL0     H 7028   5.509   2.463   2.572  0.7559 -0.2207  0.2916
  811MOL0     H 7029   5.503   2.286   2.575 -0.0624  0.9614 -0.6497
  811MOL0     H 7030   5.509   2.393   2.307  0.3473 -0.0513  0.9557
  811MOL0     H 7031   5.414   2.253   2.367 -4.9107  1.0029  0.9929
  811MOL0     H 7032   5.347   2.544   2.432  4.5735  0.4830 -2.1416
  811MOL0     H 7033   5.264   2.402   2.485  1.1267 -3.1683 -0.9501
  811MOL0     H 7034   6.258   1.741   2.548  0.2443 -1.0304 -1.7753
  811MOL0     H 7035   6.488   1.677   2.601  0.7421 -0.2373  2.9792
  811MOL0     H 7036   6.832   1.607   2.948  0.4291 -0.4754 -0.4813
  811MOL0     H 7037   7.070   1.568   2.988  0.8255 -2.3225 -2.2003
  811MOL0     H 7038   8.889   2.613   2.637 -1.7471 -3.2089 -0.4964
  811MOL0     H 7039   9.109   2.736   2.704 -0.9294  0.4343 -3.6946
  811MOL0     H 7040   9.547   2.969   2.637 -1.2362  1.3742  2.0504
  811MOL0     H 7041   9.745   3.043   2.751 -2.6219  0.4716 -0.1452
  811MOL0     H 7042   9.958   3.074   2.826 -1.5407  0.4528 -1.1997
  811MOL0     H 7043   9.975   2.949   2.712  0.0553 -0.7985  0.5085
  811MOL0     H 7044  10.188   2.862   2.794  2.6083  1.9125 -1.7683
  811MOL0     H 7045  10.180   3.035   2.786 -3.4360  0.1247 -1.7526
  811MOL0     H 7046  10.137   3.008   3.051  0.9088  0.9835  0.5229
  811MOL0     H 7047  10.300   2.997   2.976 -1.0865  2.5453  0.2086
  811MOL0     H 7048  10.108   2.760   3.032  1.7304 -2.8181  0.7747
  811MOL0     H 7049  10.268   2.746   2.971 -2.4829 -1.9255 -1.9582
  811MOL0     H 7050  10.333   2.814   3.388 -0.4483  1.2118 -0.3065
  811MOL0     H 7051   9.779   2.673   2.955  0.2331  2.2207  1.6744
  811MOL0     H 7052   9.543   2.620   2.894 -0.7992  1.4347  1.1125
  812MOL0     O 7053  10.325   8.054   2.191  0.2846 -1.4765  0.1614
  812MOL0     C 7054  10.269   8.168   2.189  0.1703  0.0110 -0.2699
  812MOL0     O 7055  10.134   8.195   2.207 -0.5303 -0.3218  0.5407
  812MOL0     C 7056  10.045   8.113   2.265  0.2872  0.2807  0.3794
  812MOL0     C 7057   9.912   8.122   2.218 -0.8328 -0.5431 -0.2829
  812MOL0     C 7058   9.807   8.065   2.284 -0.1985  1.3597 -0.2786
  812MOL0     C 7059   9.830   7.985   2.402 -0.1238 -0.3997  0.1896
  812MOL0     O 7060   9.737   7.907   2.471  0.1897  0.3587  0.0935
  812MOL0     C 7061   9.611   7.877   2.408  0.0260  0.6432  0.6925
  812MOL0     C 7062   9.523   7.809   2.518 -0.5866 -0.3524 -0.1393
  812MOL0     C 7063   9.378   7.777   2.465 -0.0460  0.1702 -0.6135
  812MOL0     C 7064   9.284   7.707   2.565 -1.3306  0.6290 -0.0652
  812MOL0     C 7065   9.319   7.557   2.592 -0.3529  0.0930  0.1218
  812MOL0     C 7066   9.280   7.463   2.472  0.6386 -0.2840 -0.2794
  812MOL0     C 7067   9.125   7.453   2.448 -0.1856  0.7306  0.0192
  812MOL0     C 7068   9.041   7.418   2.563 -0.4283 -0.2762 -1.1641
  812MOL0     N 7069   8.911   7.365   2.527 -0.0193 -0.6298  0.3112
  812MOL0     C 7070   8.795   7.419   2.586 -0.6778  0.1437  0.0822
  812MOL0     C 7071   8.695   7.331   2.546 -0.7107 -0.8786 -0.4735
  812MOL0     C 7072   8.564   7.325   2.607 -0.6452 -0.1761 -0.3729
  812MOL0     C 7073   8.521   7.180   2.609 -0.3162  0.2842  0.1289
  812MOL0     C 7074   8.382   7.164   2.685 -0.6051  0.1914 -0.2384
  812MOL0     C 7075   8.341   7.020   2.665  0.1605 -1.4105 -1.1174
  812MOL0     O 7076   8.200   6.994   2.677 -0.3205 -0.5261 -0.1281
  812MOL0     C 7077   8.116   7.016   2.569 -0.5532 -0.0277 -0.2528
  812MOL0     C 7078   7.988   6.966   2.577  0.0537  0.0855  0.9534
  812MOL0     C 7079   7.895   6.964   2.467  0.0217  1.2600 -0.7752
  812MOL0     C 7080   7.934   7.017   2.344  0.3251 -0.7509  0.7624
  812MOL0     C 7081   7.840   7.041   2.228 -0.6410  0.1477 -0.7105
  812MOL0     O 7082   7.713   7.010   2.262 -0.1636  0.3670  0.2792
  812MOL0     C 7083   7.613   7.064   2.179  0.2709  0.4545  0.6928
  812MOL0     C 7084   7.541   6.984   2.087  0.1786 -0.2711 -0.2428
  812MOL0     C 7085   7.440   7.041   1.999 -0.1866 -0.8250  0.0615
  812MOL0     C 7086   7.415   7.177   2.004 -0.4817 -0.0968  0.2941
  812MOL0     O 7087   7.338   7.227   1.899  0.4440  0.0179 -0.3946
  812MOL0     C 7088   7.295   7.360   1.911  0.1840 -0.4240 -0.0872
  812MOL0     C 7089   7.177   7.392   1.821 -0.4002  0.7307  0.4036
  812MOL0     C 7090   7.069   7.285   1.822  1.5607  0.8806 -0.0159
  812MOL0     C 7091   6.976   7.327   1.707  0.4564  0.3508 -0.2761
  812MOL0     C 7092   6.852   7.243   1.688  0.1143  0.6227 -0.4098
  812MOL0     C 7093   6.739   7.258   1.790  0.1905  0.3035  1.6861
  812MOL0     C 7094   6.623   7.168   1.743  0.5051 -0.4245  0.5524
  812MOL0     C 7095   6.496   7.180   1.831  0.1637  1.0036 -1.1168
  812MOL0    Cl 7096   6.536   7.140   2.002  0.4898 -0.1190  0.1152
  812MOL0     C 7097   7.487   7.255   2.100  0.5852 -0.0456 -0.8469
  812MOL0     C 7098   7.581   7.199   2.186 -0.3126 -0.0794 -0.2982
  812MOL0     O 7099   7.874   7.098   2.123 -0.4433 -0.2224 -0.0456
  812MOL0     C 7100   8.063   7.075   2.335 -0.2506 -0.8906 -0.6386
  812MOL0     C 7101   8.152   7.074   2.445  0.8495 -0.3113 -1.0769
  812MOL0     N 7102   8.752   7.252   2.445  0.4550  0.1126 -0.4225
  812MOL0     N 7103   8.877   7.264   2.443 -0.0857 -1.1571  0.8535
  812MOL0     C 7104   9.959   7.979   2.450 -0.4487  0.0237  0.3727
  812MOL0     C 7105  10.067   8.049   2.394  0.2575 -0.3495  0.7215
  812MOL0     C 7106  10.359   8.283   2.179 -0.2249 -1.3144  0.1747
  812MOL0     C 7107  10.308   8.418   2.170 -0.1064 -0.2995 -0.0279
  812MOL0     C 7108  10.385   8.532   2.170 -0.0374  1.4085 -0.8615
  812MOL0     C 7109  10.521   8.517   2.175  0.1940 -0.1011 -0.3139
  812MOL0     O 7110  10.594   8.632   2.152 -0.1997 -0.5371  0.0371
  812MOL0     C 7111  10.734   8.633   2.154 -0.8268 -0.4442 -0.6117
  812MOL0     C 7112  10.792   8.779   2.186  0.0519  0.6861 -0.0415
  812MOL0     C 7113  10.748   8.899   2.090  0.5055  0.4715  0.3687
  812MOL0     C 7114  10.792   8.879   1.940  1.1713 -0.3770 -0.2595
  812MOL0     C 7115  10.739   9.000   1.879 -0.2724  1.2123  0.4978
  812MOL0     C 7116  10.713   9.097   1.814 -0.1742 -0.0086 -0.3580
  812MOL0     C 7117  10.579   8.385   2.175  0.2868  0.0362 -0.6671
  812MOL0     C 7118  10.500   8.269   2.174  0.4334 -0.1741  0.4964
  812MOL0     H 7119   9.887   8.180   2.130  0.5236  2.2213  1.0319
  812MOL0     H 7120   9.709   8.078   2.239 -0.3360  1.8765  0.1538
  812MOL0     H 7121   9.627   7.815   2.320  0.9412  0.8312  0.7161
  812MOL0     H 7122   9.555   7.968   2.383 -1.6353  0.4919  3.4039
  812MOL0     H 7123   9.512   7.870   2.608  0.8570 -1.1459  0.6112
  812MOL0     H 7124   9.570   7.711   2.537  0.2898 -0.3953 -2.2639
  812MOL0     H 7125   9.397   7.703   2.387 -2.7180 -1.4503  0.1741
  812MOL0     H 7126   9.327   7.865   2.426 -3.2104  0.2555  3.1472
  812MOL0     H 7127   9.289   7.764   2.657  3.7785  0.3925  0.0723
  812MOL0     H 7128   9.184   7.719   2.522 -1.0261  0.5134 -0.8379
  812MOL0     H 7129   9.277   7.525   2.688  0.7782 -0.0014  0.6073
  812MOL0     H 7130   9.427   7.545   2.606  0.0814  0.7877 -2.1318
  812MOL0     H 7131   9.304   7.358   2.494  1.7802 -0.0939 -0.5241
  812MOL0     H 7132   9.330   7.499   2.382 -2.4447  0.8103 -1.6786
  812MOL0     H 7133   9.090   7.552   2.418  2.1368  1.8005  0.6910
  812MOL0     H 7134   9.106   7.381   2.367 -0.2327  3.0329 -2.1329
  812MOL0     H 7135   9.035   7.519   2.602  1.4247 -1.0455  1.4207
  812MOL0     H 7136   9.082   7.344   2.633 -2.1935 -0.0320  0.1811
  812MOL0     H 7137   8.796   7.486   2.672  0.8351  0.0238  0.1911
  812MOL0     H 7138   8.489   7.365   2.539  0.5773 -0.1705 -1.7542
  812MOL0     H 7139   8.558   7.373   2.705  2.4855  0.0616 -0.1836
  812MOL0     H 7140   8.597   7.119   2.659 -0.2183 -0.1444 -0.5339
  812MOL0     H 7141   8.521   7.141   2.507  0.1880 -0.8305  0.5358
  812MOL0     H 7142   8.388   7.178   2.793 -3.6006 -0.5298  0.1245
  812MOL0     H 7143   8.302   7.233   2.657 -1.5482  0.1836  2.1982
  812MOL0     H 7144   8.396   6.957   2.735  2.0633  1.5227  0.2134
  812MOL0     H 7145   8.382   6.978   2.573  2.0881 -0.9073 -0.5269
  812MOL0     H 7146   7.964   6.918   2.671  2.5195 -2.2767  0.4997
  812MOL0     H 7147   7.793   6.928   2.478  0.4397  0.4539  0.7632
  812MOL0     H 7148   7.563   6.878   2.083 -0.9297 -0.5918  1.3642
  812MOL0     H 7149   7.374   6.981   1.937 -0.1373 -1.8212  0.9488
  812MOL0     H 7150   7.377   7.426   1.879  0.7014 -1.1360 -0.2454
  812MOL0     H 7151   7.268   7.386   2.014 -1.9114 -2.9870  0.0844
  812MOL0     H 7152   7.208   7.390   1.716 -2.5214 -3.6891 -0.3830
  812MOL0     H 7153   7.141   7.490   1.852 -1.6922 -0.0124  1.3679
  812MOL0     H 7154   7.009   7.285   1.914  0.6000 -1.0613 -0.5701
  812MOL0     H 7155   7.123   7.192   1.803  2.1766  1.5258 -1.5446
  812MOL0     H 7156   6.926   7.424   1.720 -2.3300 -1.0379  0.0677
  812MOL0     H 7157   7.041   7.325   1.619  0.5694  0.9719 -0.2131
  812MOL0     H 7158   6.868   7.138   1.660 -2.8205  0.4265 -1.7772
  812MOL0     H 7159   6.817   7.280   1.591  0.5920  0.2186 -0.7425
  812MOL0     H 7160   6.700   7.361   1.793  1.3985  0.7966  1.1282
  812MOL0     H 7161   6.777   7.236   1.890  1.2961 -1.2040  0.9822
  812MOL0     H 7162   6.602   7.187   1.637 -3.0350 -2.7959  0.6678
  812MOL0     H 7163   6.656   7.066   1.763 -1.5776 -1.4759 -1.0490
  812MOL0     H 7164   6.424   7.107   1.793 -0.0822  0.4134  0.3889
  812MOL0     H 7165   6.460   7.282   1.815  0.1162  1.0525 -0.7194
  812MOL0     H 7166   7.487   7.363   2.104  0.8329 -0.0176 -1.5761
  812MOL0     H 7167   7.646   7.258   2.250 -1.2138 -0.8299  1.3996
  812MOL0     H 7168   8.089   7.135   2.249  1.0749 -0.5250  0.0012
  812MOL0     H 7169   8.242   7.130   2.426 -0.7751  3.2140  0.7821
  812MOL0     H 7170   9.986   7.925   2.541 -0.3547  0.2568  0.4835
  812MOL0     H 7171  10.162   8.038   2.444  0.4534 -1.5012  0.1255
  812MOL0     H 7172  10.200   8.422   2.157 -0.4574  0.0672  2.4969
  812MOL0     H 7173  10.334   8.626   2.184  0.1288  1.5049 -0.9025
  812MOL0     H 7174  10.779   8.605   2.058  3.7947 -1.2127  1.5322
  812MOL0     H 7175  10.767   8.564   2.232 -0.5851 -2.1475 -2.1522
  812MOL0     H 7176  10.758   8.807   2.286 -1.0818  4.8781 -1.3595
  812MOL0     H 7177  10.901   8.784   2.186  0.3478 -1.9890 -2.9424
  812MOL0     H 7178  10.796   8.991   2.125 -1.6891  0.7762  2.8665
  812MOL0     H 7179  10.642   8.923   2.094  0.3483 -0.0602 -0.5372
  812MOL0     H 7180  10.901   8.880   1.932  1.1185 -0.2530 -1.0599
  812MOL0     H 7181  10.748   8.788   1.897 -0.7812 -0.3224  1.4454
  812MOL0     H 7182  10.694   9.182   1.752 -2.2781  0.4565  0.8402
  812MOL0     H 7183  10.686   8.371   2.168  0.5309  0.9011  0.9250
  812MOL0     H 7184  10.550   8.176   2.150  2.9826  1.0577  0.6528
  813MOL0     O 7185   1.235   6.446   9.527 -0.3907  0.3337  0.4300
  813MOL0     C 7186   1.315   6.486   9.618  0.1208  0.6455 -0.1478
  813MOL0     O 7187   1.287   6.521   9.751  0.4577  1.0628  0.0246
  813MOL0     C 7188   1.158   6.538   9.795  0.3574  0.0571  0.0071
  813MOL0     C 7189   1.141   6.623   9.915  0.6840  0.0131 -0.2479
  813MOL0     C 7190   1.019   6.661   9.973  0.5072  1.3437 -0.6194
  813MOL0     C 7191   0.899   6.616   9.912 -0.9756  0.4458 -0.2891
  813MOL0     O 7192   0.783   6.641   9.979  0.0601 -0.3488 -0.9008
  813MOL0     C 7193   0.696   6.540   9.998 -0.1829  0.6191  0.0409
  813MOL0     C 7194   0.697   6.501  10.145 -0.1297  0.3022 -0.7008
  813MOL0     C 7195   0.581   6.549  10.233  0.3654  0.6097  0.1244
  813MOL0     C 7196   0.450   6.560  10.157  0.1007  0.8453  0.8322
  813MOL0     C 7197   0.313   6.569  10.228  0.1634 -1.0463 -0.2432
  813MOL0     C 7198   0.296   6.700  10.297  0.3558 -0.1236 -0.9800
  813MOL0     C 7199   0.190   6.704  10.414 -0.7730  0.0294 -0.2250
  813MOL0     C 7200   0.081   6.602  10.391 -0.1777 -0.3378  0.4708
  813MOL0     N 7201  -0.054   6.648  10.444  0.2205  0.1490 -0.2233
  813MOL0     C 7202  -0.090   6.629  10.575 -0.2366  0.0718 -0.1405
  813MOL0     C 7203  -0.221   6.660  10.582  0.5190 -0.2590  0.5485
  813MOL0     C 7204  -0.306   6.650  10.705  0.1119  0.3944  0.8050
  813MOL0     C 7205  -0.422   6.749  10.705  1.1146  0.5265  0.1618
  813MOL0     C 7206  -0.541   6.732  10.599  0.4986 -0.6477 -0.8835
  813MOL0     C 7207  -0.673   6.802  10.644  0.5046 -0.2873  0.8046
  813MOL0     O 7208  -0.760   6.789  10.526  0.0954 -0.0295  0.4845
  813MOL0     C 7209  -0.891   6.821  10.535  1.1967  0.4711 -0.0417
  813MOL0     C 7210  -0.967   6.814  10.417  0.7589  0.1677 -0.0553
  813MOL0     C 7211  -1.101   6.839  10.415 -0.3476 -0.3522 -0.1394
  813MOL0     C 7212  -1.174   6.880  10.529 -0.2333 -0.1731  0.7515
  813MOL0     C 7213  -1.315   6.927  10.523  0.1968  0.1534 -0.3854
  813MOL0     O 7214  -1.364   6.970  10.406 -0.5693 -0.1238 -0.2273
  813MOL0     C 7215  -1.498   6.988  10.381  1.4372 -1.1945 -0.2270
  813MOL0     C 7216  -1.544   6.983  10.244 -0.7671  0.3364  0.2842
  813MOL0     C 7217  -1.685   7.006  10.210 -0.2608 -1.3877  0.0287
  813MOL0     C 7218  -1.774   7.032  10.309 -0.4916  0.1330 -0.1406
  813MOL0     O 7219  -1.897   7.062  10.267  0.9221  0.3632 -0.7589
  813MOL0     C 7220  -2.004   7.038  10.365  0.1313  0.9753 -0.4596
  813MOL0     C 7221  -2.134   7.006  10.293  0.2627 -0.0338  0.3975
  813MOL0     C 7222  -2.249   6.993  10.397  0.2546  0.4713 -0.4914
  813MOL0     C 7223  -2.383   6.970  10.328  0.8303  0.6493 -0.8994
  813MOL0     C 7224  -2.479   6.958  10.444 -0.5904 -0.4699  0.3036
  813MOL0     C 7225  -2.620   6.921  10.412  0.5097 -0.0704 -0.9794
  813MOL0     C 7226  -2.678   6.985  10.287 -0.4474 -0.1662 -0.9386
  813MOL0     C 7227  -2.826   6.957  10.299 -0.5840 -1.6360 -0.5600
  813MOL0    Cl 7228  -2.871   6.788  10.274 -0.3500 -0.2941  0.3261
  813MOL0     C 7229  -1.728   7.044  10.442  0.8475  0.1124  0.9186
  813MOL0     C 7230  -1.598   7.016  10.481  0.1890 -1.4704  0.1744
  813MOL0     O 7231  -1.374   6.917  10.626 -0.0389 -0.0209 -0.5693
  813MOL0     C 7232  -1.097   6.900  10.642  0.7798 -0.0280 -0.0313
  813MOL0     C 7233  -0.958   6.863  10.648 -0.5764 -0.7914  0.5528
  813MOL0     N 7234  -0.273   6.687  10.452  0.5659  0.2247 -0.5450
  813MOL0     N 7235  -0.169   6.683  10.375 -0.4065 -0.6354 -0.6648
  813MOL0     C 7236   0.910   6.551   9.787  0.3076 -0.3189 -0.9271
  813MOL0     C 7237   1.036   6.522   9.723 -0.8413 -0.0916 -0.1310
  813MOL0     C 7238   1.463   6.483   9.590  0.0314  0.2761 -0.5029
  813MOL0     C 7239   1.549   6.464   9.701  0.5715 -0.1790  0.3728
  813MOL0     C 7240   1.686   6.451   9.693  0.5102  0.2324  0.0797
  813MOL0     C 7241   1.747   6.454   9.566 -1.2174 -0.0762  0.2077
  813MOL0     O 7242   1.882   6.417   9.565  0.5365 -0.1491  0.1456
  813MOL0     C 7243   1.959   6.433   9.442 -0.1853  0.1312  0.2870
  813MOL0     C 7244   2.031   6.307   9.398  0.3418  0.7803 -1.0360
  813MOL0     C 7245   2.108   6.244   9.518  0.0432 -0.5341  0.7894
  813MOL0     C 7246   2.177   6.112   9.484  0.4854  0.3132 -0.5248
  813MOL0     C 7247   2.289   6.124   9.390  0.5233  0.9001 -0.1101
  813MOL0     C 7248   2.391   6.141   9.324  1.4501 -0.2469 -0.0187
  813MOL0     C 7249   1.663   6.474   9.449  0.5568  0.1877  0.1024
  813MOL0     C 7250   1.519   6.488   9.460  0.6966  0.9957 -0.4879
  813MOL0     H 7251   1.237   6.658   9.954  0.4408 -0.1015  0.4826
  813MOL0     H 7252   1.014   6.717  10.066  3.7300  1.4981 -0.4068
  813MOL0     H 7253   0.710   6.446   9.943 -2.9646  0.5037 -0.6293
  813MOL0     H 7254   0.599   6.574   9.961 -3.1901 -2.1279  4.4239
  813MOL0     H 7255   0.794   6.508  10.195 -0.5475 -1.1320  0.3728
  813MOL0     H 7256   0.680   6.393  10.152 -2.4151  0.5784 -1.2806
  813MOL0     H 7257   0.611   6.643  10.280 -0.1761 -0.0057  1.7519
  813MOL0     H 7258   0.571   6.486  10.322  0.1040  0.9558  0.3391
  813MOL0     H 7259   0.457   6.643  10.087  2.4794  0.2485  0.2789
  813MOL0     H 7260   0.426   6.473  10.096 -2.2567  2.0016 -0.0271
  813MOL0     H 7261   0.307   6.488  10.302  3.9246 -0.6606  0.6678
  813MOL0     H 7262   0.230   6.550  10.158  0.1856 -0.3797 -0.4528
  813MOL0     H 7263   0.266   6.772  10.220 -0.9841  0.5085  0.0635
  813MOL0     H 7264   0.388   6.741  10.341  1.4942 -1.3265 -2.1847
  813MOL0     H 7265   0.248   6.678  10.503  1.1279  2.8107 -0.5351
  813MOL0     H 7266   0.154   6.806  10.430  2.0013  1.3464 -1.7964
  813MOL0     H 7267   0.111   6.509  10.441 -2.0893  0.2543  2.9140
  813MOL0     H 7268   0.060   6.578  10.286 -2.2285  1.3268  0.4349
  813MOL0     H 7269  -0.030   6.595  10.658 -2.1184 -0.3122  1.1081
  813MOL0     H 7270  -0.248   6.676  10.793 -0.0314  0.2445  0.9436
  813MOL0     H 7271  -0.349   6.550  10.714 -3.9144  2.1453  4.7934
  813MOL0     H 7272  -0.385   6.851  10.694  1.6777  0.2545 -0.6075
  813MOL0     H 7273  -0.472   6.734  10.801 -2.4288  1.0070 -1.4432
  813MOL0     H 7274  -0.517   6.770  10.499  2.0169  0.0437 -0.2890
  813MOL0     H 7275  -0.567   6.626  10.587  0.8326 -1.1274  2.0282
  813MOL0     H 7276  -0.649   6.900  10.687  0.5982 -0.8366  2.0388
  813MOL0     H 7277  -0.708   6.736  10.724  3.2254 -3.1106 -0.1544
  813MOL0     H 7278  -0.917   6.776  10.328 -1.2647  2.4590 -2.3326
  813MOL0     H 7279  -1.164   6.836  10.326 -1.4781  1.3426  0.5568
  813MOL0     H 7280  -1.467   6.945  10.178 -2.0745 -0.3528 -0.9002
  813MOL0     H 7281  -1.726   6.996  10.110 -0.3763  0.8226 -0.1828
  813MOL0     H 7282  -2.019   7.125  10.430  0.9635  1.3955 -0.8265
  813MOL0     H 7283  -1.990   6.954  10.434 -1.1230 -0.1625 -1.5302
  813MOL0     H 7284  -2.116   6.917  10.232  0.1638  0.5786 -0.5437
  813MOL0     H 7285  -2.154   7.089  10.224  0.4438 -2.0372 -2.2154
  813MOL0     H 7286  -2.263   7.077  10.465  0.6195  0.0343  0.1329
  813MOL0     H 7287  -2.231   6.905  10.459  0.2796 -0.8036 -2.2107
  813MOL0     H 7288  -2.415   7.059  10.272  0.1656  1.1702  0.2389
  813MOL0     H 7289  -2.392   6.875  10.275  1.5605  0.8360 -1.3712
  813MOL0     H 7290  -2.492   7.049  10.504  0.2178 -0.1826  0.0600
  813MOL0     H 7291  -2.451   6.887  10.523 -3.8903 -0.4046  1.6890
  813MOL0     H 7292  -2.682   6.959  10.494 -3.7991 -0.3494 -3.7934
  813MOL0     H 7293  -2.626   6.813  10.398  0.5636 -0.0503 -1.1542
  813MOL0     H 7294  -2.658   7.093  10.287  3.3498 -0.7336  0.3819
  813MOL0     H 7295  -2.638   6.936  10.198  1.7447 -1.4585  0.6725
  813MOL0     H 7296  -2.873   6.997  10.208  0.2906 -1.3547 -0.8925
  813MOL0     H 7297  -2.875   7.008  10.382 -0.6456  3.3940 -3.3114
  813MOL0     H 7298  -1.799   7.069  10.521  0.6577  2.9808 -0.0591
  813MOL0     H 7299  -1.581   7.031  10.587 -2.4441  0.3259  0.4149
  813MOL0     H 7300  -1.134   6.933  10.738  1.8390  1.0566  0.0246
  813MOL0     H 7301  -0.894   6.894  10.730  1.4082  0.6491 -1.4320
  813MOL0     H 7302   0.812   6.533   9.743  0.0413  1.3804 -1.1317
  813MOL0     H 7303   1.033   6.460   9.634 -2.0290 -1.7117  0.9759
  813MOL0     H 7304   1.498   6.462   9.796 -2.9864  0.5881 -1.3708
  813MOL0     H 7305   1.753   6.450   9.778  1.9770 -1.1269 -1.0274
  813MOL0     H 7306   2.035   6.508   9.466  0.2385 -0.7121  1.6777
  813MOL0     H 7307   1.890   6.458   9.362 -2.0729  0.1366  1.8398
  813MOL0     H 7308   1.953   6.237   9.368  1.4536 -1.3529  0.7153
  813MOL0     H 7309   2.093   6.331   9.311  1.1553  3.2837  0.1205
  813MOL0     H 7310   2.029   6.226   9.591 -1.3168  1.4894 -0.0985
  813MOL0     H 7311   2.183   6.316   9.552 -2.6924  3.4710 -0.9213
  813MOL0     H 7312   2.214   6.055   9.570 -1.4425 -2.2407 -1.2281
  813MOL0     H 7313   2.105   6.050   9.430  0.1275 -0.2444  0.5528
  813MOL0     H 7314   2.479   6.156   9.265  2.0604  0.2604  0.9986
  813MOL0     H 7315   1.698   6.491   9.348  0.2153  3.9942  0.4592
  813MOL0     H 7316   1.471   6.513   9.366 -2.3095  1.2623  1.0110
  814MOL0     O 7317   1.014   4.618   4.968  0.0352  0.3822 -0.0028
  814MOL0     C 7318   1.097   4.694   5.011  0.2411  0.5692  0.0932
  814MOL0     O 7319   1.076   4.822   5.034 -0.7864  0.9350 -0.3110
  814MOL0     C 7320   0.961   4.872   5.084 -0.4053  0.5248  1.4965
  814MOL0     C 7321   0.938   5.006   5.053 -0.2418  0.0945 -0.1075
  814MOL0     C 7322   0.809   5.055   5.098 -0.7333 -0.4875 -0.2477
  814MOL0     C 7323   0.727   4.985   5.181  0.9494 -0.0622 -0.5078
  814MOL0     O 7324   0.605   5.035   5.231 -0.0592  0.0672  0.9410
  814MOL0     C 7325   0.578   5.175   5.227  0.5045  0.1532 -0.3922
  814MOL0     C 7326   0.457   5.184   5.318 -0.3698 -0.2080  0.5891
  814MOL0     C 7327   0.457   5.306   5.412 -0.5846  0.1594  0.4902
  814MOL0     C 7328   0.322   5.340   5.467  0.2270  0.1611 -0.1372
  814MOL0     C 7329   0.354   5.422   5.606 -0.5783  0.3350 -0.9232
  814MOL0     C 7330   0.223   5.434   5.687  0.2280  0.3280 -0.2978
  814MOL0     C 7331   0.221   5.534   5.798  0.3791 -0.2675  0.0438
  814MOL0     C 7332   0.077   5.552   5.858  0.4919 -0.4076  0.3415
  814MOL0     N 7333  -0.011   5.652   5.803 -0.0903  0.4885  0.0236
  814MOL0     C 7334  -0.014   5.694   5.681 -0.5976 -0.6055  0.5758
  814MOL0     C 7335  -0.119   5.766   5.670 -0.1083  0.4121 -0.0134
  814MOL0     C 7336  -0.169   5.811   5.539 -0.5755 -0.1243 -0.0172
  814MOL0     C 7337  -0.141   5.958   5.500 -0.1924 -0.0380 -1.1391
  814MOL0     C 7338  -0.188   6.001   5.357  0.5997  0.3416  0.5910
  814MOL0     C 7339  -0.339   5.991   5.348 -0.0106  0.5517 -0.3675
  814MOL0     O 7340  -0.374   5.864   5.291  0.3140  0.1933  0.2854
  814MOL0     C 7341  -0.509   5.852   5.257 -0.0245  0.1887 -0.3498
  814MOL0     C 7342  -0.612   5.938   5.284  0.9158 -0.3783 -0.4523
  814MOL0     C 7343  -0.747   5.906   5.268 -0.1529 -0.3519 -0.1298
  814MOL0     C 7344  -0.789   5.777   5.224  1.4644  1.2597  0.9830
  814MOL0     C 7345  -0.937   5.750   5.194 -0.3409  0.1967  0.7568
  814MOL0     O 7346  -1.029   5.855   5.223  0.0653 -0.2788  0.2146
  814MOL0     C 7347  -1.167   5.839   5.221 -0.6389 -0.5084  1.0719
  814MOL0     C 7348  -1.235   5.833   5.103  0.7222  0.7456  0.6466
  814MOL0     C 7349  -1.372   5.825   5.098  1.0402  0.5508  0.0115
  814MOL0     C 7350  -1.444   5.844   5.215 -0.2250  0.2106  0.2624
  814MOL0     O 7351  -1.578   5.810   5.227 -0.1511 -0.6042 -0.1459
  814MOL0     C 7352  -1.654   5.752   5.119 -0.6245  0.7977  0.7795
  814MOL0     C 7353  -1.778   5.680   5.170  0.8347 -1.7520  0.4232
  814MOL0     C 7354  -1.871   5.610   5.056 -0.7840 -0.1154  0.3583
  814MOL0     C 7355  -1.954   5.710   4.974  0.7364  0.1782  0.3383
  814MOL0     C 7356  -2.049   5.648   4.872  0.3693  0.4612 -0.1132
  814MOL0     C 7357  -2.052   5.710   4.736  0.2463  0.0960 -0.6241
  814MOL0     C 7358  -2.173   5.657   4.657 -0.3704 -0.9130  0.6019
  814MOL0     C 7359  -2.191   5.729   4.522  0.3697 -0.3884 -0.0280
  814MOL0    Cl 7360  -2.062   5.669   4.417  0.6274  0.1587 -0.6064
  814MOL0     C 7361  -1.379   5.854   5.332  0.3054  0.3416 -0.0157
  814MOL0     C 7362  -1.241   5.844   5.340 -0.0191 -0.2694  0.5069
  814MOL0     O 7363  -0.966   5.640   5.163  0.8040 -0.2464 -0.9304
  814MOL0     C 7364  -0.682   5.685   5.180 -0.4842 -0.4170 -0.1139
  814MOL0     C 7365  -0.545   5.727   5.207 -0.2622 -0.6188 -0.4285
  814MOL0     N 7366  -0.168   5.791   5.795  0.3459 -0.6200 -0.6861
  814MOL0     N 7367  -0.111   5.707   5.878  0.0352 -0.0329  0.0379
  814MOL0     C 7368   0.755   4.846   5.210 -0.7085  0.2627  0.7780
  814MOL0     C 7369   0.868   4.792   5.155 -0.0473  0.5310 -0.3254
  814MOL0     C 7370   1.237   4.655   5.002 -0.2352  0.0274 -0.3658
  814MOL0     C 7371   1.335   4.725   5.069 -0.1976  0.4469 -0.3805
  814MOL0     C 7372   1.466   4.701   5.058 -0.1843  0.3580 -0.7393
  814MOL0     C 7373   1.517   4.596   4.978 -1.0129  0.1870 -0.4421
  814MOL0     O 7374   1.649   4.571   4.941 -0.0446  0.3322  0.5731
  814MOL0     C 7375   1.748   4.601   5.042 -0.0496 -0.3780  0.1959
  814MOL0     C 7376   1.881   4.570   4.980 -0.1733 -0.1221 -0.3088
  814MOL0     C 7377   1.999   4.633   5.047 -0.3720 -0.3081 -0.7251
  814MOL0     C 7378   2.133   4.619   4.983 -0.1586  0.3127 -1.2275
  814MOL0     C 7379   2.139   4.676   4.852  0.2411 -0.7292  0.0584
  814MOL0     C 7380   2.135   4.725   4.739 -0.1736  0.6145  0.4401
  814MOL0     C 7381   1.421   4.511   4.919 -0.6982 -0.6272 -0.6479
  814MOL0     C 7382   1.287   4.546   4.927 -0.7391  0.2906  0.6194
  814MOL0     H 7383   1.007   5.073   5.002 -2.2479  1.2958 -1.3924
  814MOL0     H 7384   0.778   5.149   5.055 -1.9578 -0.6142  0.3328
  814MOL0     H 7385   0.556   5.214   5.127 -3.5740 -2.8794 -0.9399
  814MOL0     H 7386   0.666   5.226   5.267  0.7395  0.0705 -0.7995
  814MOL0     H 7387   0.441   5.094   5.377  3.2055 -3.1729 -2.4105
  814MOL0     H 7388   0.370   5.197   5.253 -1.5552  0.2338  2.1975
  814MOL0     H 7389   0.490   5.394   5.357  1.3887 -0.7327  0.1316
  814MOL0     H 7390   0.525   5.285   5.496  3.1870  1.2442 -2.0266
  814MOL0     H 7391   0.260   5.396   5.396  0.7679 -0.7333 -1.3405
  814MOL0     H 7392   0.272   5.244   5.483 -0.0359  0.4594  0.9147
  814MOL0     H 7393   0.406   5.513   5.573  0.8631 -0.7962 -1.8799
  814MOL0     H 7394   0.428   5.375   5.672  1.4768  2.7269 -1.3621
  814MOL0     H 7395   0.201   5.330   5.713  2.7073 -1.0808 -3.1501
  814MOL0     H 7396   0.145   5.453   5.613  2.2793 -0.5793 -2.8486
  814MOL0     H 7397   0.290   5.503   5.877 -0.0599  0.7379  0.8382
  814MOL0     H 7398   0.261   5.632   5.772 -1.2209  0.1870 -0.7693
  814MOL0     H 7399   0.078   5.560   5.967  2.0510  1.9872  0.1998
  814MOL0     H 7400   0.032   5.455   5.832 -1.0348 -0.1615  1.8895
  814MOL0     H 7401   0.055   5.659   5.604 -1.5093  1.5794 -1.3679
  814MOL0     H 7402  -0.277   5.798   5.533 -0.6642  1.0014 -1.2878
  814MOL0     H 7403  -0.128   5.744   5.463 -0.3483  1.0900 -1.0054
  814MOL0     H 7404  -0.033   5.975   5.495  0.0451 -0.7847  0.6961
  814MOL0     H 7405  -0.174   6.026   5.579  4.5965  0.5467  0.6714
  814MOL0     H 7406  -0.162   6.105   5.335  0.0761 -0.1306 -2.6328
  814MOL0     H 7407  -0.137   5.935   5.287 -0.9965 -0.1919 -0.1197
  814MOL0     H 7408  -0.380   6.066   5.280 -0.9103 -1.2232 -1.8658
  814MOL0     H 7409  -0.384   6.011   5.445  0.5495  0.4465 -0.0820
  814MOL0     H 7410  -0.587   6.032   5.332 -1.6354 -0.8214  2.0278
  814MOL0     H 7411  -0.825   5.979   5.288 -0.3770 -0.0177 -2.0124
  814MOL0     H 7412  -1.189   5.819   5.006 -1.0822  2.3592 -0.5091
  814MOL0     H 7413  -1.423   5.795   5.007  0.3935 -1.3079  0.9407
  814MOL0     H 7414  -1.587   5.674   5.080 -0.6557  1.7006 -1.1783
  814MOL0     H 7415  -1.670   5.829   5.043 -1.0557  1.5731  1.6343
  814MOL0     H 7416  -1.836   5.751   5.230  2.8844  1.5587 -1.1808
  814MOL0     H 7417  -1.738   5.612   5.246  0.3163 -1.7635  0.6902
  814MOL0     H 7418  -1.942   5.548   5.112 -0.9313 -2.4041 -2.2066
  814MOL0     H 7419  -1.817   5.535   4.998 -4.4440 -2.0480 -0.8960
  814MOL0     H 7420  -2.012   5.773   5.042 -0.1455  0.4508 -0.6442
  814MOL0     H 7421  -1.887   5.776   4.919 -2.1461  3.3152  0.2858
  814MOL0     H 7422  -2.150   5.650   4.915  0.5577 -1.0399  0.4422
  814MOL0     H 7423  -2.027   5.544   4.849 -2.2094 -0.8244  2.5449
  814MOL0     H 7424  -1.961   5.677   4.686 -0.3519  0.3362 -1.8974
  814MOL0     H 7425  -2.064   5.818   4.750 -2.7577 -0.3393  0.9825
  814MOL0     H 7426  -2.165   5.549   4.638  0.3094 -0.5426 -1.4430
  814MOL0     H 7427  -2.266   5.672   4.712 -0.3421  2.0796 -0.0345
  814MOL0     H 7428  -2.185   5.837   4.539  3.7023 -0.0753 -2.2132
  814MOL0     H 7429  -2.292   5.706   4.487  0.8109 -1.2930 -0.7662
  814MOL0     H 7430  -1.449   5.863   5.415 -0.8254  1.9526 -1.0857
  814MOL0     H 7431  -1.189   5.855   5.434 -1.6875  1.6465  1.2815
  814MOL0     H 7432  -0.705   5.587   5.139  0.3019  0.0201 -1.6799
  814MOL0     H 7433  -0.465   5.654   5.197 -0.6853 -0.8554 -2.6461
  814MOL0     H 7434   0.681   4.791   5.268  1.5092 -0.9559  2.5930
  814MOL0     H 7435   0.882   4.685   5.167  0.3811  0.3789 -1.9343
  814MOL0     H 7436   1.306   4.816   5.120  0.2110  2.4393 -3.3961
  814MOL0     H 7437   1.534   4.769   5.110  0.8032 -0.9122 -0.3080
  814MOL0     H 7438   1.745   4.541   5.133  2.1909 -1.4655 -0.3828
  814MOL0     H 7439   1.734   4.709   5.039  0.3998 -0.3166  0.1704
  814MOL0     H 7440   1.901   4.464   4.997  0.6173  0.3558  2.2738
  814MOL0     H 7441   1.883   4.589   4.873 -0.7825  3.6522  0.1976
  814MOL0     H 7442   2.011   4.580   5.142  0.5481  1.6909  0.3282
  814MOL0     H 7443   1.975   4.737   5.069 -0.2245 -0.0339 -1.8171
  814MOL0     H 7444   2.214   4.669   5.037 -1.5320  2.1143 -0.7321
  814MOL0     H 7445   2.163   4.514   4.981  3.4547  1.1898 -3.1912
  814MOL0     H 7446   2.142   4.764   4.640 -0.1186 -0.2035  0.1113
  814MOL0     H 7447   1.441   4.429   4.850 -0.2267 -1.1116  0.0524
  814MOL0     H 7448   1.212   4.490   4.872  1.1986  0.3710 -2.2942
  815MOL0     O 7449   7.945   5.624   4.742  0.6522 -0.1707 -0.2155
  815MOL0     C 7450   8.031   5.581   4.674 -1.1675 -0.7504 -0.2762
  815MOL0     O 7451   8.020   5.488   4.574 -0.3211 -0.3259 -0.3497
  815MOL0     C 7452   7.912   5.407   4.576 -0.0214  1.0454  0.5284
  815MOL0     C 7453   7.886   5.343   4.457 -1.3279 -0.4297  0.2781
  815MOL0     C 7454   7.781   5.258   4.435 -0.5272 -0.8169  0.4339
  815MOL0     C 7455   7.689   5.236   4.536  0.1301  0.2850 -0.4082
  815MOL0     O 7456   7.590   5.140   4.508  0.3246 -0.4354 -0.4004
  815MOL0     C 7457   7.482   5.115   4.600 -0.2991 -0.5330  0.0814
  815MOL0     C 7458   7.374   5.039   4.533 -0.4322 -0.5074 -0.6417
  815MOL0     C 7459   7.235   5.049   4.607 -0.1541 -0.3815  0.5635
  815MOL0     C 7460   7.133   4.958   4.567  1.1093 -0.0679  0.0140
  815MOL0     C 7461   6.996   4.965   4.640 -0.0632 -0.5880 -0.6045
  815MOL0     C 7462   6.919   5.094   4.608 -0.0327 -0.5146  0.0243
  815MOL0     C 7463   6.773   5.077   4.648  0.3359  0.0088 -0.2952
  815MOL0     C 7464   6.704   4.969   4.558 -0.1358 -1.2208 -0.4539
  815MOL0     N 7465   6.562   4.998   4.545  0.5537  0.7769  0.0257
  815MOL0     C 7466   6.474   4.987   4.646  0.3017 -1.3214 -0.0264
  815MOL0     C 7467   6.375   5.066   4.607  0.7316 -0.1438 -0.1700
  815MOL0     C 7468   6.251   5.097   4.692  0.1788 -0.0923 -0.3583
  815MOL0     C 7469   6.146   4.994   4.656 -0.5681 -0.1859  0.5969
  815MOL0     C 7470   6.004   5.037   4.705  0.4181 -1.0966 -0.0988
  815MOL0     C 7471   5.944   5.143   4.609  0.1577 -0.4036  0.1253
  815MOL0     O 7472   5.811   5.191   4.648  0.3526  0.1783 -0.4685
  815MOL0     C 7473   5.700   5.110   4.622  0.3623  0.4131  0.5794
  815MOL0     C 7474   5.689   4.985   4.562 -0.8550 -0.0172 -1.1741
  815MOL0     C 7475   5.574   4.925   4.526  0.0680  0.0580  0.2366
  815MOL0     C 7476   5.451   4.984   4.560 -0.1148 -0.2062 -0.8069
  815MOL0     C 7477   5.318   4.922   4.528  0.0759 -0.6799  0.2288
  815MOL0     O 7478   5.210   4.948   4.601 -0.9723 -0.1662  0.4690
  815MOL0     C 7479   5.090   4.922   4.555  0.6975  0.1038 -0.4413
  815MOL0     C 7480   4.994   5.022   4.531  0.9208  0.1454 -0.2003
  815MOL0     C 7481   4.878   4.988   4.460  0.7200 -0.2935 -0.1494
  815MOL0     C 7482   4.851   4.854   4.417  0.7309  0.2510  0.0292
  815MOL0     O 7483   4.744   4.819   4.344 -0.5362 -0.5133 -0.7445
  815MOL0     C 7484   4.629   4.796   4.424 -0.3703 -0.0528 -0.8376
  815MOL0     C 7485   4.498   4.798   4.345  0.2619 -0.6238 -0.5539
  815MOL0     C 7486   4.455   4.947   4.315 -0.2528  0.3507 -0.9485
  815MOL0     C 7487   4.312   4.953   4.271  0.1745 -0.2166  0.1003
  815MOL0     C 7488   4.227   4.968   4.397  0.2381 -0.1990  0.0343
  815MOL0     C 7489   4.079   4.985   4.359  0.3869 -0.3766  0.0031
  815MOL0     C 7490   4.002   5.022   4.486  0.6284 -0.4159  0.1050
  815MOL0     C 7491   3.853   5.054   4.462 -0.3488 -0.6318 -0.0374
  815MOL0    Cl 7492   3.775   5.096   4.620 -0.3270 -0.2256  0.5645
  815MOL0     C 7493   4.942   4.760   4.452  0.0784 -0.1210 -0.0856
  815MOL0     C 7494   5.052   4.792   4.523 -0.0461 -0.2453 -0.8487
  815MOL0     O 7495   5.319   4.860   4.426 -0.5150  0.5546  1.2066
  815MOL0     C 7496   5.454   5.114   4.618 -0.9168 -0.6206  1.2016
  815MOL0     C 7497   5.580   5.178   4.648 -0.1889 -0.0956 -0.1701
  815MOL0     N 7498   6.386   5.104   4.472 -0.3242 -0.5306  0.3534
  815MOL0     N 7499   6.502   5.055   4.430  0.1825 -1.2879  0.8006
  815MOL0     C 7500   7.709   5.296   4.661  0.1169 -0.3735 -0.2415
  815MOL0     C 7501   7.822   5.374   4.679  0.1035 -0.1890  0.9682
  815MOL0     C 7502   8.170   5.645   4.691  0.3730 -0.1764  0.4661
  815MOL0     C 7503   8.280   5.601   4.614  0.1710 -0.5589 -0.2529
  815MOL0     C 7504   8.402   5.665   4.619 -1.0303  0.3164 -0.0516
  815MOL0     C 7505   8.416   5.787   4.690 -0.9652 -0.7545  0.5378
  815MOL0     O 7506   8.537   5.862   4.693 -0.2430 -1.2919  0.5768
  815MOL0     C 7507   8.667   5.802   4.656  0.1980 -0.2043 -0.1933
  815MOL0     C 7508   8.782   5.859   4.734 -0.2130 -0.1857 -0.0105
  815MOL0     C 7509   8.785   5.806   4.875 -0.7073  0.1347 -0.4858
  815MOL0     C 7510   8.885   5.873   4.977  0.2684  0.2986 -0.1083
  815MOL0     C 7511   8.835   5.884   5.119  0.2266  0.6671 -0.0064
  815MOL0     C 7512   8.813   5.884   5.240 -0.0606  0.4215  0.3767
  815MOL0     C 7513   8.308   5.839   4.776 -0.3864 -0.5615  0.1348
  815MOL0     C 7514   8.185   5.767   4.770  0.0727  0.4970 -0.2459
  815MOL0     H 7515   7.949   5.359   4.370  2.2843  0.4495  2.8161
  815MOL0     H 7516   7.765   5.203   4.343  0.1788 -0.1458 -0.1034
  815MOL0     H 7517   7.438   5.209   4.634  1.0176  0.8054 -1.7476
  815MOL0     H 7518   7.528   5.068   4.687  1.3427  0.5912 -0.1537
  815MOL0     H 7519   7.414   4.937   4.523  0.1382 -0.3728  0.1867
  815MOL0     H 7520   7.358   5.095   4.440  0.0076  3.0800  1.2926
  815MOL0     H 7521   7.202   5.151   4.586  2.0327  0.0377 -1.3447
  815MOL0     H 7522   7.256   5.041   4.714 -0.4827 -0.5541  0.6164
  815MOL0     H 7523   7.121   4.962   4.458  0.3961 -1.4963  0.0168
  815MOL0     H 7524   7.175   4.857   4.576 -1.9305 -1.2417  2.5865
  815MOL0     H 7525   7.026   4.964   4.745  0.0422 -2.9744 -0.5862
  815MOL0     H 7526   6.943   4.872   4.617  0.7302 -1.3107  0.4067
  815MOL0     H 7527   6.922   5.114   4.501 -0.3615 -0.5033  0.0179
  815MOL0     H 7528   6.954   5.184   4.660 -1.6862  0.2069 -0.0642
  815MOL0     H 7529   6.751   5.049   4.751 -1.0028  0.8981 -0.3156
  815MOL0     H 7530   6.730   5.176   4.628  1.9802  0.8075 -0.0316
  815MOL0     H 7531   6.714   4.865   4.592 -0.4546 -1.8855 -2.2666
  815MOL0     H 7532   6.742   4.964   4.456 -1.5784  0.1400 -1.0977
  815MOL0     H 7533   6.494   4.930   4.736 -0.8467 -0.2950  0.9203
  815MOL0     H 7534   6.222   5.202   4.675  2.2380  0.6750  0.5251
  815MOL0     H 7535   6.283   5.084   4.795 -2.0613 -1.2294  0.2451
  815MOL0     H 7536   6.177   4.898   4.698 -0.1856 -1.2318 -1.8875
  815MOL0     H 7537   6.132   4.981   4.548 -2.6104  1.5799  0.5854
  815MOL0     H 7538   5.931   4.956   4.721  1.3532 -2.4261 -2.0677
  815MOL0     H 7539   6.018   5.091   4.798  1.4071 -0.0816 -0.8114
  815MOL0     H 7540   5.948   5.092   4.513 -0.4289 -1.3785  0.6028
  815MOL0     H 7541   6.009   5.231   4.604 -2.6765  1.9045  0.7180
  815MOL0     H 7542   5.785   4.937   4.542 -2.4586 -3.4184 -1.3129
  815MOL0     H 7543   5.582   4.831   4.473  0.0912 -0.3090  0.8878
  815MOL0     H 7544   5.013   5.121   4.572 -0.5424  0.2596  0.2608
  815MOL0     H 7545   4.809   5.068   4.437  0.6219 -0.5552 -0.7992
  815MOL0     H 7546   4.631   4.863   4.511  3.0000  0.1304 -0.9272
  815MOL0     H 7547   4.624   4.693   4.463 -5.1078  0.9428  2.0533
  815MOL0     H 7548   4.431   4.764   4.425  0.4727 -0.5995 -0.3635
  815MOL0     H 7549   4.486   4.739   4.254  1.7994 -2.1339  0.1665
  815MOL0     H 7550   4.516   4.985   4.232 -0.8697  2.0428 -0.6692
  815MOL0     H 7551   4.487   5.003   4.404  2.1697 -1.5260 -0.5221
  815MOL0     H 7552   4.280   5.039   4.213 -1.4370  0.0298  1.2891
  815MOL0     H 7553   4.271   4.866   4.219  0.8362  0.0892 -0.9638
  815MOL0     H 7554   4.264   5.054   4.452 -0.2791 -0.0650  0.1714
  815MOL0     H 7555   4.229   4.881   4.463 -0.5412  1.1954  1.9591
  815MOL0     H 7556   4.034   4.891   4.324  0.3531 -0.2579 -0.2733
  815MOL0     H 7557   4.065   5.069   4.290 -1.9039 -0.0244  0.8259
  815MOL0     H 7558   4.008   4.940   4.557 -2.0082 -2.7111 -2.0581
  815MOL0     H 7559   4.053   5.110   4.525  0.6345 -1.6735  3.1509
  815MOL0     H 7560   3.802   4.964   4.428  0.9251 -1.8660  1.1910
  815MOL0     H 7561   3.848   5.135   4.389  0.9481 -1.3413 -0.9470
  815MOL0     H 7562   4.925   4.656   4.428  1.0117 -0.4462  0.5826
  815MOL0     H 7563   5.123   4.717   4.556  0.2854  1.6765  3.5114
  815MOL0     H 7564   5.364   5.173   4.610 -0.0133  0.6746 -0.0776
  815MOL0     H 7565   5.597   5.281   4.681  0.2179 -0.2963  0.2592
  815MOL0     H 7566   7.645   5.297   4.749  0.7833  0.4853  0.2557
  815MOL0     H 7567   7.842   5.412   4.779 -2.9114 -1.2395  2.0587
  815MOL0     H 7568   8.276   5.515   4.550 -2.0888  0.0584 -1.0264
  815MOL0     H 7569   8.497   5.633   4.576  0.3152  0.1647  2.7878
  815MOL0     H 7570   8.678   5.822   4.550  1.4475  0.7020  0.0953
  815MOL0     H 7571   8.675   5.698   4.692 -3.3030  0.5761  3.7329
  815MOL0     H 7572   8.874   5.827   4.684  1.2060  2.9596  0.3915
  815MOL0     H 7573   8.771   5.967   4.750  1.0267 -0.2873  1.8508
  815MOL0     H 7574   8.819   5.703   4.863  1.7973  0.6517  1.4686
  815MOL0     H 7575   8.683   5.810   4.916 -0.8949  0.3749 -0.9629
  815MOL0     H 7576   8.980   5.820   4.961  0.2103 -0.8040  2.6887
  815MOL0     H 7577   8.898   5.972   4.932 -1.4749  1.1256  1.1013
  815MOL0     H 7578   8.782   5.884   5.343 -0.2311 -0.6663  0.3374
  815MOL0     H 7579   8.333   5.933   4.823  0.6786  0.7896 -2.8835
  815MOL0     H 7580   8.097   5.804   4.823 -0.1432  3.2191 -2.3199
  816MOL0     O 7581   9.178   6.780   9.609 -0.3460 -0.2424  0.4702
  816MOL0     C 7582   9.222   6.750   9.499  1.0335 -0.8494 -0.6063
  816MOL0     O 7583   9.153   6.674   9.410 -1.5171  0.0627  0.1772
  816MOL0     C 7584   9.032   6.627   9.456 -0.3085 -0.5442 -0.9375
  816MOL0     C 7585   8.919   6.706   9.456  0.2633  0.9042 -0.0501
  816MOL0     C 7586   8.799   6.659   9.509  0.0621  0.2005  0.1388
  816MOL0     C 7587   8.784   6.528   9.557 -0.1326  0.0849  0.3513
  816MOL0     O 7588   8.664   6.481   9.599  0.7065  0.6414  0.6101
  816MOL0     C 7589   8.565   6.582   9.616 -0.0461 -1.0285 -0.2880
  816MOL0     C 7590   8.440   6.514   9.663  0.1718 -0.7797 -0.1243
  816MOL0     C 7591   8.318   6.599   9.704  0.3551  0.1298 -0.8071
  816MOL0     C 7592   8.359   6.719   9.795 -0.2863  0.1034 -1.0560
  816MOL0     C 7593   8.241   6.786   9.865  0.6057 -0.1903  0.3649
  816MOL0     C 7594   8.138   6.834   9.764  0.2006 -0.2208  0.5886
  816MOL0     C 7595   8.010   6.873   9.838 -0.2211 -0.6308 -0.1420
  816MOL0     C 7596   7.917   6.930   9.744  0.3921  0.3074  0.2899
  816MOL0     N 7597   7.795   6.984   9.819 -0.7309  0.3260 -0.6111
  816MOL0     C 7598   7.675   6.921   9.859  0.5235 -0.4627  0.6826
  816MOL0     C 7599   7.596   7.020   9.914 -0.4120  0.0220  0.6785
  816MOL0     C 7600   7.464   7.004   9.971  0.5578 -0.0334 -0.0714
  816MOL0     C 7601   7.373   7.093   9.889 -0.2724 -0.2468  0.5583
  816MOL0     C 7602   7.339   7.040   9.750 -0.8605 -0.0005  0.0048
  816MOL0     C 7603   7.243   7.134   9.668  0.9933 -0.8738  0.7494
  816MOL0     O 7604   7.118   7.144   9.740  0.5224 -0.4597  0.2250
  816MOL0     C 7605   7.011   7.201   9.674 -1.5985 -0.1471 -0.5920
  816MOL0     C 7606   7.013   7.270   9.546 -0.1052 -0.5829 -0.1591
  816MOL0     C 7607   6.897   7.328   9.498  0.5025 -0.0346 -0.1937
  816MOL0     C 7608   6.782   7.322   9.578  0.5092 -0.8596  0.8117
  816MOL0     C 7609   6.661   7.378   9.522 -0.1590  0.6881  0.7700
  816MOL0     O 7610   6.679   7.472   9.415  0.5738  0.3478 -1.1622
  816MOL0     C 7611   6.567   7.515   9.359  0.1475 -0.2232 -0.0497
  816MOL0     C 7612   6.509   7.448   9.255  0.5842  0.3108  0.1175
  816MOL0     C 7613   6.387   7.494   9.197  0.0964 -0.0307 -0.0147
  816MOL0     C 7614   6.333   7.613   9.245 -0.1579 -0.3676  0.1294
  816MOL0     O 7615   6.206   7.656   9.200 -0.6443  0.6276 -0.9383
  816MOL0     C 7616   6.102   7.650   9.306 -0.5504 -1.3851  0.5918
  816MOL0     C 7617   5.989   7.558   9.251  0.1837 -0.3529 -0.4027
  816MOL0     C 7618   5.890   7.641   9.162 -0.0627 -0.4926 -0.8583
  816MOL0     C 7619   5.775   7.562   9.091  0.8014  0.1241  0.1012
  816MOL0     C 7620   5.815   7.431   9.010 -0.3092 -0.1684  0.9622
  816MOL0     C 7621   5.696   7.338   8.990 -0.2565 -0.2187  0.2013
  816MOL0     C 7622   5.584   7.395   8.900 -1.5599  0.1919 -0.2567
  816MOL0     C 7623   5.489   7.282   8.892 -0.5360 -0.4043 -1.0351
  816MOL0    Cl 7624   5.370   7.316   8.775 -0.0695 -0.2372  0.0669
  816MOL0     C 7625   6.389   7.685   9.344  0.9326 -0.4919 -0.8442
  816MOL0     C 7626   6.512   7.640   9.398 -0.1984  1.1463 -0.0090
  816MOL0     O 7627   6.554   7.345   9.570  0.2606  0.4337  0.7164
  816MOL0     C 7628   6.784   7.252   9.696  0.2675  0.0412  0.3046
  816MOL0     C 7629   6.896   7.188   9.753  0.4898  0.0679  0.7472
  816MOL0     N 7630   7.668   7.136   9.916 -0.4236  0.1810  0.1957
  816MOL0     N 7631   7.782   7.111   9.869  0.5494  0.2520  0.3108
  816MOL0     C 7632   8.897   6.439   9.550 -0.0322  0.2660 -0.4286
  816MOL0     C 7633   9.023   6.495   9.506  0.0296 -0.3619 -0.3001
  816MOL0     C 7634   9.343   6.816   9.451  0.3356 -0.4197 -0.7668
  816MOL0     C 7635   9.419   6.899   9.541  0.0271  0.0808  0.5328
  816MOL0     C 7636   9.535   6.964   9.492 -0.4180 -0.1280  0.3379
  816MOL0     C 7637   9.592   6.936   9.366 -0.3412  0.5280  0.2630
  816MOL0     O 7638   9.704   7.007   9.325  0.3324 -0.6452  0.0735
  816MOL0     C 7639   9.819   6.985   9.401  0.1216 -0.0921  0.4901
  816MOL0     C 7640   9.944   6.971   9.326 -0.6064 -0.1422 -0.5259
  816MOL0     C 7641   9.999   7.101   9.264 -0.3175 -0.3911  1.1535
  816MOL0     C 7642   9.930   7.142   9.137 -1.3981  0.3510  0.0031
  816MOL0     C 7643   9.977   7.270   9.090  0.7444  0.0672  0.1012
  816MOL0     C 7644   9.983   7.373   9.028 -0.4283 -0.1164  0.1835
  816MOL0     C 7645   9.521   6.850   9.280  0.0789  0.6757  0.1402
  816MOL0     C 7646   9.400   6.792   9.324 -0.4872 -0.1920  0.3203
  816MOL0     H 7647   8.922   6.795   9.395 -2.0159 -1.2124 -3.5791
  816MOL0     H 7648   8.714   6.726   9.497 -2.4882 -2.4862  1.8632
  816MOL0     H 7649   8.548   6.637   9.523  0.6847  4.4714  2.3549
  816MOL0     H 7650   8.587   6.661   9.689 -0.5995 -0.6688 -0.5036
  816MOL0     H 7651   8.466   6.450   9.748  3.1172 -0.7240 -0.8589
  816MOL0     H 7652   8.400   6.442   9.592 -0.5246  0.7622 -1.3660
  816MOL0     H 7653   8.245   6.535   9.754  0.9910  0.4345  0.5580
  816MOL0     H 7654   8.269   6.628   9.611 -2.5279  1.6002  1.0599
  816MOL0     H 7655   8.423   6.675   9.872 -0.7740 -1.3002 -1.4224
  816MOL0     H 7656   8.427   6.792   9.751  2.6154 -0.9299  1.3502
  816MOL0     H 7657   8.283   6.873   9.916  3.3555 -1.9069  1.2695
  816MOL0     H 7658   8.207   6.708   9.934  2.5695 -1.7095 -0.3123
  816MOL0     H 7659   8.115   6.754   9.693 -1.5522  0.2796  0.5624
  816MOL0     H 7660   8.181   6.921   9.713  2.2908 -1.5745 -0.0786
  816MOL0     H 7661   7.961   6.780   9.866 -1.8386  0.4170  0.6998
  816MOL0     H 7662   8.031   6.952   9.911 -0.3107 -1.2729  0.5796
  816MOL0     H 7663   7.880   6.849   9.679  0.4702  0.2696  0.2928
  816MOL0     H 7664   7.952   7.011   9.679 -2.1688 -0.5875 -2.4837
  816MOL0     H 7665   7.651   6.816   9.847 -0.2518 -0.1954 -0.1780
  816MOL0     H 7666   7.468   7.029  10.077 -0.2557  2.8040 -0.6276
  816MOL0     H 7667   7.428   6.902   9.956 -1.8550  0.6457  0.6210
  816MOL0     H 7668   7.422   7.190   9.877  1.5310 -1.3758 -1.9262
  816MOL0     H 7669   7.280   7.107   9.946 -0.1442 -1.1613  1.0068
  816MOL0     H 7670   7.427   7.035   9.685 -2.9112  2.0350 -3.1495
  816MOL0     H 7671   7.295   6.941   9.767 -0.0759 -0.2742  0.5666
  816MOL0     H 7672   7.240   7.090   9.569 -1.6485 -0.7864  0.7153
  816MOL0     H 7673   7.272   7.239   9.661  1.9403 -1.0502  1.6183
  816MOL0     H 7674   7.105   7.292   9.494 -0.6967 -1.1828 -1.4966
  816MOL0     H 7675   6.899   7.382   9.404 -1.7784  2.2675  0.9492
  816MOL0     H 7676   6.556   7.355   9.226  0.9391  0.6318 -0.3585
  816MOL0     H 7677   6.343   7.440   9.113 -1.2660 -0.4175  0.9207
  816MOL0     H 7678   6.072   7.751   9.335  3.1282 -0.0320  0.3194
  816MOL0     H 7679   6.149   7.605   9.394  0.3020 -1.5977  0.0446
  816MOL0     H 7680   5.933   7.523   9.338  0.5221 -1.2051 -0.5166
  816MOL0     H 7681   6.037   7.479   9.193 -0.4150 -1.2701  0.3258
  816MOL0     H 7682   5.933   7.714   9.092 -1.0573  1.0643  0.0809
  816MOL0     H 7683   5.828   7.711   9.218 -1.7899 -0.6129 -2.5286
  816MOL0     H 7684   5.694   7.540   9.161  1.6985  1.9040  1.7989
  816MOL0     H 7685   5.728   7.637   9.026  0.2913  0.8985  1.3314
  816MOL0     H 7686   5.888   7.383   9.077 -2.5305 -0.6471  3.1732
  816MOL0     H 7687   5.866   7.460   8.917 -1.2372  1.4239  0.9330
  816MOL0     H 7688   5.644   7.326   9.085  2.1857  0.2927  1.6737
  816MOL0     H 7689   5.741   7.242   8.961  0.2075 -0.2341  0.9416
  816MOL0     H 7690   5.530   7.477   8.949 -1.6916  0.2613 -0.5156
  816MOL0     H 7691   5.617   7.432   8.802  3.0566 -2.4611  0.0102
  816MOL0     H 7692   5.439   7.259   8.986  1.2724 -0.5476 -0.0489
  816MOL0     H 7693   5.543   7.192   8.860 -1.4901 -1.3639 -0.0410
  816MOL0     H 7694   6.337   7.776   9.372 -0.7474 -2.2428  2.4521
  816MOL0     H 7695   6.568   7.695   9.472  2.8054  0.9624 -1.9570
  816MOL0     H 7696   6.694   7.253   9.757  0.8741 -0.8318  1.2483
  816MOL0     H 7697   6.886   7.137   9.848  0.6223  2.2759  2.0228
  816MOL0     H 7698   8.892   6.338   9.589  1.6335  0.0609 -0.6796
  816MOL0     H 7699   9.119   6.446   9.519  0.1030 -0.1181  0.0994
  816MOL0     H 7700   9.375   6.926   9.637 -1.9589  0.4324 -0.4241
  816MOL0     H 7701   9.582   7.043   9.549  0.6707 -0.4615 -0.0682
  816MOL0     H 7702   9.813   6.897   9.465  1.3213 -0.1399  0.5657
  816MOL0     H 7703   9.834   7.059   9.481 -2.2304  1.1037 -0.0881
  816MOL0     H 7704  10.027   6.937   9.388  1.9005  2.1618 -2.3930
  816MOL0     H 7705   9.931   6.893   9.250  0.7222 -1.2140  0.3050
  816MOL0     H 7706  10.108   7.103   9.268 -0.2797  1.5344  0.5387
  816MOL0     H 7707   9.975   7.178   9.339  1.9794  0.7853  0.7520
  816MOL0     H 7708   9.953   7.066   9.061  1.3368  3.5645 -2.7393
  816MOL0     H 7709   9.822   7.146   9.157 -2.1193 -2.1966 -2.5465
  816MOL0     H 7710   9.997   7.467   8.979  0.3420 -0.8574 -1.0467
  816MOL0     H 7711   9.556   6.828   9.180 -2.8063 -1.3442 -0.5632
  816MOL0     H 7712   9.349   6.730   9.251 -0.3241  1.9778 -1.7345
  817MOL0     O 7713   0.297   7.656   1.717 -0.9297 -0.0458 -0.2114
  817MOL0     C 7714   0.274   7.558   1.783 -0.1160  0.7478  0.4145
  817MOL0     O 7715   0.360   7.466   1.819  0.0602  0.2235 -0.9761
  817MOL0     C 7716   0.498   7.480   1.787 -0.2736  0.6418 -0.2441
  817MOL0     C 7717   0.566   7.378   1.722  1.2458  0.4421  0.7823
  817MOL0     C 7718   0.697   7.385   1.715  0.1961  0.4934 -0.2883
  817MOL0     C 7719   0.778   7.493   1.764 -0.2035 -0.4431  0.8733
  817MOL0     O 7720   0.915   7.492   1.758  0.2198  0.1219  0.7469
  817MOL0     C 7721   0.974   7.620   1.764 -0.0813  0.0704  0.0994
  817MOL0     C 7722   0.966   7.686   1.626  0.2880  0.1846  0.3712
  817MOL0     C 7723   1.052   7.816   1.630 -0.0231  0.3491 -0.1635
  817MOL0     C 7724   1.062   7.897   1.501  0.2912 -0.2275 -0.2524
  817MOL0     C 7725   1.113   8.035   1.519 -0.1900  0.1022 -0.2028
  817MOL0     C 7726   1.131   8.115   1.386 -0.3033  0.4152  0.2682
  817MOL0     C 7727   0.996   8.142   1.319  0.3699 -0.4675  0.1095
  817MOL0     C 7728   0.903   8.237   1.394 -0.6943  0.1204 -0.2361
  817MOL0     N 7729   0.839   8.178   1.513  0.7659  0.5901  0.2663
  817MOL0     C 7730   0.748   8.071   1.523 -0.6634 -0.0934  0.5791
  817MOL0     C 7731   0.711   8.069   1.659 -0.4546 -0.1511 -0.6727
  817MOL0     C 7732   0.621   7.963   1.724  0.5347 -0.4395 -0.2531
  817MOL0     C 7733   0.477   7.988   1.699  0.0934 -0.5998 -0.4418
  817MOL0     C 7734   0.406   8.099   1.792  0.1317 -0.1469 -0.2145
  817MOL0     C 7735   0.366   8.038   1.926 -0.3053 -0.6634 -0.1219
  817MOL0     O 7736   0.234   7.995   1.925  0.0522 -0.1568  0.0030
  817MOL0     C 7737   0.183   7.950   2.042  0.7561  1.1582 -0.1900
  817MOL0     C 7738   0.057   7.895   2.036  0.4071  0.2164  0.3433
  817MOL0     C 7739  -0.011   7.840   2.146 -1.4222  0.6424  0.7013
  817MOL0     C 7740   0.048   7.833   2.272  0.9258 -0.0879 -1.0203
  817MOL0     C 7741  -0.024   7.775   2.390  0.0407 -0.0157 -0.0924
  817MOL0     O 7742  -0.162   7.769   2.372 -0.0027 -0.0105 -0.0652
  817MOL0     C 7743  -0.250   7.689   2.438 -0.6774  0.0183 -0.3725
  817MOL0     C 7744  -0.235   7.651   2.579 -0.0310 -0.2957 -0.0055
  817MOL0     C 7745  -0.320   7.560   2.640 -0.0134  0.1130  0.3374
  817MOL0     C 7746  -0.427   7.509   2.571  0.1595 -0.1533  0.3676
  817MOL0     O 7747  -0.513   7.414   2.615 -0.2877 -0.0514 -0.2858
  817MOL0     C 7748  -0.452   7.300   2.662  0.3658  0.8258  0.0075
  817MOL0     C 7749  -0.556   7.192   2.691  0.1594  0.1075  0.2938
  817MOL0     C 7750  -0.523   7.103   2.817 -0.0951 -0.0718  0.1258
  817MOL0     C 7751  -0.639   7.012   2.851  0.4881 -0.1237 -0.8928
  817MOL0     C 7752  -0.583   6.883   2.920 -0.0521 -0.8536  0.5042
  817MOL0     C 7753  -0.681   6.777   2.971  0.1349 -0.4989  0.2970
  817MOL0     C 7754  -0.597   6.660   3.026  0.0301  0.0780  0.4609
  817MOL0     C 7755  -0.687   6.535   3.028  0.2483 -0.3708  0.7584
  817MOL0    Cl 7756  -0.712   6.463   2.864 -0.0383  0.2533 -0.2944
  817MOL0     C 7757  -0.447   7.542   2.441 -0.7105  0.5351 -0.2176
  817MOL0     C 7758  -0.365   7.636   2.377  0.1120  0.2387 -0.5479
  817MOL0     O 7759   0.034   7.727   2.487 -0.0197 -0.5523  0.5493
  817MOL0     C 7760   0.179   7.882   2.280 -0.0149  0.7712  0.4629
  817MOL0     C 7761   0.245   7.941   2.173 -0.8855  0.0787  0.3776
  817MOL0     N 7762   0.791   8.162   1.722 -0.4020  0.2648 -0.2029
  817MOL0     N 7763   0.857   8.227   1.639  0.1669 -0.3886 -0.5212
  817MOL0     C 7764   0.699   7.605   1.803 -0.2794  0.0049  0.2534
  817MOL0     C 7765   0.567   7.598   1.826 -0.5127 -0.1704  1.0937
  817MOL0     C 7766   0.124   7.542   1.823 -0.5525  1.0733  0.1857
  817MOL0     C 7767   0.082   7.424   1.885  0.4621  0.1415  1.0093
  817MOL0     C 7768  -0.053   7.406   1.905 -0.2213 -0.7518  0.8973
  817MOL0     C 7769  -0.143   7.507   1.863  0.6176  0.2629  0.2082
  817MOL0     O 7770  -0.279   7.474   1.873 -0.0239 -0.3060 -0.8294
  817MOL0     C 7771  -0.364   7.587   1.856  0.4783  0.2730  1.0635
  817MOL0     C 7772  -0.506   7.559   1.892 -0.3770 -0.0127  0.3658
  817MOL0     C 7773  -0.520   7.468   2.013 -0.4623  0.0570 -0.2433
  817MOL0     C 7774  -0.660   7.439   2.069  0.0004  0.0894 -0.0095
  817MOL0     C 7775  -0.755   7.387   1.969  0.5186 -0.5528  0.2557
  817MOL0     C 7776  -0.856   7.348   1.900  0.4236 -0.7457  0.6649
  817MOL0     C 7777  -0.099   7.625   1.814  0.0113  0.1575  0.2258
  817MOL0     C 7778   0.035   7.640   1.796  0.0617 -1.2568 -0.3329
  817MOL0     H 7779   0.509   7.297   1.677  0.5778  1.3116  0.0263
  817MOL0     H 7780   0.749   7.306   1.661  2.5213 -0.2245  2.7462
  817MOL0     H 7781   1.079   7.594   1.785 -0.6453 -2.1688  0.4349
  817MOL0     H 7782   0.939   7.684   1.845 -2.0076  1.0747 -1.4485
  817MOL0     H 7783   0.863   7.713   1.599 -0.0996 -0.9486  0.6389
  817MOL0     H 7784   1.002   7.616   1.549  0.6792  2.0516 -1.2233
  817MOL0     H 7785   1.151   7.798   1.674  0.4011  2.8488  0.0207
  817MOL0     H 7786   0.994   7.882   1.695  0.7576 -2.0682  3.3053
  817MOL0     H 7787   1.133   7.851   1.431 -0.7058 -0.8762 -0.8752
  817MOL0     H 7788   0.963   7.918   1.460 -0.0462  0.2462  0.7696
  817MOL0     H 7789   1.205   8.030   1.578 -1.7823 -1.1834  2.4167
  817MOL0     H 7790   1.046   8.091   1.585  1.2500 -0.6120  1.9923
  817MOL0     H 7791   1.192   8.054   1.319 -3.2733  1.4211 -3.6930
  817MOL0     H 7792   1.169   8.217   1.400 -0.8876  0.7073 -0.2515
  817MOL0     H 7793   1.019   8.204   1.232  0.8679  0.3541  0.8035
  817MOL0     H 7794   0.943   8.051   1.288 -0.5946 -0.5088  1.7695
  817MOL0     H 7795   0.828   8.283   1.329 -0.8554  0.0257 -0.1218
  817MOL0     H 7796   0.965   8.322   1.422  1.2202 -0.7560 -1.5829
  817MOL0     H 7797   0.695   8.006   1.454  0.6011 -1.7131  1.0669
  817MOL0     H 7798   0.643   7.965   1.831  0.8023  0.9635 -0.3131
  817MOL0     H 7799   0.645   7.867   1.677  0.7935 -0.2466 -0.5209
  817MOL0     H 7800   0.427   7.892   1.688 -0.0002 -0.3423 -3.1893
  817MOL0     H 7801   0.468   8.017   1.593  0.1800 -1.1953 -0.6173
  817MOL0     H 7802   0.465   8.189   1.807 -2.7210  1.6909  0.7934
  817MOL0     H 7803   0.316   8.137   1.744 -0.0762 -1.5023 -0.9467
  817MOL0     H 7804   0.383   8.105   2.012  0.4591 -0.7462 -0.1960
  817MOL0     H 7805   0.432   7.957   1.960  0.6066  0.5345  1.1103
  817MOL0     H 7806   0.003   7.904   1.943  1.3825  3.2390 -0.0455
  817MOL0     H 7807  -0.117   7.817   2.145 -1.1911 -0.4925 -0.8732
  817MOL0     H 7808  -0.147   7.695   2.624  0.0667  1.2283 -1.5803
  817MOL0     H 7809  -0.307   7.517   2.738 -0.0410 -0.4275  0.1075
  817MOL0     H 7810  -0.401   7.327   2.755 -0.0824 -0.2765  0.5942
  817MOL0     H 7811  -0.381   7.257   2.591 -2.5150 -1.7077 -1.5869
  817MOL0     H 7812  -0.563   7.134   2.598  2.1995 -1.0793  0.8211
  817MOL0     H 7813  -0.654   7.240   2.698 -0.5894 -1.1333 -1.0856
  817MOL0     H 7814  -0.486   7.161   2.902  3.1427 -2.3746  0.4731
  817MOL0     H 7815  -0.435   7.045   2.789 -0.7142 -1.1342  0.3008
  817MOL0     H 7816  -0.702   7.063   2.924  0.7595 -1.0212 -0.0020
  817MOL0     H 7817  -0.696   6.986   2.762 -0.8908 -0.1679 -0.0124
  817MOL0     H 7818  -0.525   6.927   3.001 -3.8609  3.3927  1.2989
  817MOL0     H 7819  -0.518   6.830   2.850 -0.8768 -0.1836 -0.8211
  817MOL0     H 7820  -0.752   6.744   2.895 -0.7691 -1.2904  1.4449
  817MOL0     H 7821  -0.750   6.820   3.044 -1.5649 -3.5191  0.6560
  817MOL0     H 7822  -0.521   6.625   2.955  0.8616  2.5936  0.0247
  817MOL0     H 7823  -0.549   6.683   3.122  1.2383  3.3775 -0.7713
  817MOL0     H 7824  -0.785   6.560   3.069 -0.7458 -0.3471 -1.4417
  817MOL0     H 7825  -0.631   6.471   3.097  1.8474  0.0246 -0.1165
  817MOL0     H 7826  -0.523   7.505   2.373  1.7613 -2.0038 -1.7800
  817MOL0     H 7827  -0.385   7.677   2.279 -1.9098  2.9212  0.8496
  817MOL0     H 7828   0.229   7.876   2.376 -1.0668 -2.6580  0.9315
  817MOL0     H 7829   0.350   7.965   2.192 -0.2906 -1.9390 -0.1071
  817MOL0     H 7830   0.744   7.696   1.841 -1.0128 -0.0519  1.2839
  817MOL0     H 7831   0.508   7.682   1.860 -1.3964 -0.6631  0.8033
  817MOL0     H 7832   0.156   7.355   1.923 -0.3631 -1.5321 -0.2722
  817MOL0     H 7833  -0.083   7.318   1.960  1.6356 -1.2210  1.2066
  817MOL0     H 7834  -0.368   7.621   1.752 -2.9731  1.6697  1.4997
  817MOL0     H 7835  -0.329   7.672   1.916  1.9115 -0.1416  0.8495
  817MOL0     H 7836  -0.564   7.651   1.898  0.8674  0.8219  0.0602
  817MOL0     H 7837  -0.545   7.504   1.806  0.3449  2.1648 -1.4381
  817MOL0     H 7838  -0.451   7.510   2.086 -0.5704 -3.6230  2.2050
  817MOL0     H 7839  -0.466   7.374   2.002 -1.9867 -0.7425 -1.3642
  817MOL0     H 7840  -0.651   7.366   2.150 -0.3275  1.1461  1.0174
  817MOL0     H 7841  -0.704   7.529   2.114 -1.8885 -1.0233  0.4924
  817MOL0     H 7842  -0.940   7.300   1.855 -0.6716 -1.6925  3.5174
  817MOL0     H 7843  -0.165   7.707   1.787 -3.3570 -0.8051  4.3569
  817MOL0     H 7844   0.062   7.732   1.745  0.0964 -1.2115 -0.2331
  818MOL0     O 7845  10.032   9.639   8.960  0.3934 -0.2765 -0.5677
  818MOL0     C 7846  10.096   9.640   8.860  1.2985  0.1861  1.0295
  818MOL0     O 7847  10.044   9.602   8.737  0.5861  0.1711  0.0937
  818MOL0     C 7848   9.919   9.532   8.724 -0.1883 -0.3196  0.5295
  818MOL0     C 7849   9.800   9.568   8.781  0.7372 -0.2543 -0.4107
  818MOL0     C 7850   9.689   9.490   8.751  0.8528  0.4480 -0.5561
  818MOL0     C 7851   9.681   9.382   8.659 -0.1218  0.2823  0.1566
  818MOL0     O 7852   9.568   9.315   8.609  0.0135 -0.1370 -0.6558
  818MOL0     C 7853   9.465   9.281   8.702 -0.3139  1.2162  0.0216
  818MOL0     C 7854   9.348   9.223   8.633  0.8748 -0.5307 -0.1687
  818MOL0     C 7855   9.227   9.219   8.727  0.1766 -0.6527 -0.7234
  818MOL0     C 7856   9.247   9.113   8.840 -0.0378  0.2273 -0.2022
  818MOL0     C 7857   9.139   9.151   8.946  0.6643 -0.8224  0.9114
  818MOL0     C 7858   9.006   9.066   8.930  0.0448 -0.1280  0.4490
  818MOL0     C 7859   8.893   9.114   9.017  0.3928 -0.4297  0.4455
  818MOL0     C 7860   8.770   9.032   9.005  0.1862  0.3962 -0.5921
  818MOL0     N 7861   8.706   9.023   8.866  0.3280 -0.3718 -0.7495
  818MOL0     C 7862   8.641   8.911   8.830  0.1667 -0.2176 -0.5230
  818MOL0     C 7863   8.620   8.922   8.697 -0.2243 -0.5245  0.7190
  818MOL0     C 7864   8.544   8.820   8.608  0.3423  0.3035  0.0199
  818MOL0     C 7865   8.395   8.819   8.645  0.2391 -0.4621  0.0593
  818MOL0     C 7866   8.320   8.950   8.611 -0.8068  0.2060 -0.5141
  818MOL0     C 7867   8.329   8.975   8.462  0.4772 -0.7770 -0.3776
  818MOL0     O 7868   8.279   8.861   8.390 -0.2397 -0.4732 -0.2000
  818MOL0     C 7869   8.147   8.846   8.387 -0.0459 -0.6913 -0.0006
  818MOL0     C 7870   8.053   8.950   8.405  0.5662  0.7331 -0.0911
  818MOL0     C 7871   7.916   8.922   8.368 -0.0879 -0.8868 -0.1022
  818MOL0     C 7872   7.870   8.796   8.325 -0.7663  0.3116 -0.2296
  818MOL0     C 7873   7.725   8.772   8.296 -0.4478  0.5337  0.2970
  818MOL0     O 7874   7.627   8.846   8.352 -0.3083 -0.0913 -0.0321
  818MOL0     C 7875   7.504   8.806   8.337  0.1747  0.9340  0.0011
  818MOL0     C 7876   7.434   8.888   8.250 -0.1211  0.2185  0.3510
  818MOL0     C 7877   7.309   8.846   8.226  0.0079 -0.1031 -1.2207
  818MOL0     C 7878   7.241   8.735   8.287  0.3522  0.3643  0.6039
  818MOL0     O 7879   7.117   8.693   8.257  0.0806 -0.0077  0.1232
  818MOL0     C 7880   7.081   8.698   8.116  0.1831 -0.2984 -0.2968
  818MOL0     C 7881   6.994   8.821   8.073 -0.7152  0.7174  0.3110
  818MOL0     C 7882   6.880   8.797   7.961  0.6359  0.1179  0.9425
  818MOL0     C 7883   6.772   8.691   7.992 -0.9771  0.2387 -0.2761
  818MOL0     C 7884   6.684   8.733   8.108 -0.4293  0.5502 -1.0550
  818MOL0     C 7885   6.584   8.625   8.158 -0.2585  0.1807  0.8239
  818MOL0     C 7886   6.467   8.668   8.239 -0.3078  0.4489 -0.1789
  818MOL0     C 7887   6.336   8.704   8.156 -0.3013  0.4184  0.3818
  818MOL0    Cl 7888   6.282   8.557   8.079 -0.0109 -0.0206 -0.9173
  818MOL0     C 7889   7.315   8.655   8.379 -1.1102  0.5615  0.2609
  818MOL0     C 7890   7.449   8.693   8.406 -0.4197 -0.1009 -0.2845
  818MOL0     O 7891   7.706   8.685   8.209 -0.6911 -0.5340  0.6248
  818MOL0     C 7892   7.970   8.701   8.309 -0.1923  0.9846  0.6050
  818MOL0     C 7893   8.106   8.728   8.334  0.2979 -0.6445  0.4688
  818MOL0     N 7894   8.663   9.054   8.661  0.1692 -0.5145  0.2595
  818MOL0     N 7895   8.733   9.110   8.758 -0.3854  0.0880 -0.3088
  818MOL0     C 7896   9.804   9.339   8.612  0.5776 -1.2335 -0.6937
  818MOL0     C 7897   9.922   9.409   8.650 -0.2776 -0.3281 -0.2962
  818MOL0     C 7898  10.234   9.671   8.874  0.0672 -0.1790 -0.6207
  818MOL0     C 7899  10.332   9.618   8.780 -0.3271 -0.7013 -0.3144
  818MOL0     C 7900  10.466   9.652   8.788  0.6033  0.2082  0.7015
  818MOL0     C 7901  10.516   9.742   8.883 -0.0618 -0.8594 -0.4522
  818MOL0     O 7902  10.650   9.767   8.903  0.8096 -0.2601 -0.3107
  818MOL0     C 7903  10.746   9.705   8.820 -0.6253 -0.5673 -0.2718
  818MOL0     C 7904  10.882   9.760   8.851 -0.1166  0.3454 -0.1980
  818MOL0     C 7905  10.993   9.681   8.794  0.3660  0.6451 -0.3720
  818MOL0     C 7906  10.978   9.680   8.636 -0.1119  0.1171 -0.7729
  818MOL0     C 7907  11.011   9.809   8.565  0.3120 -0.1735 -0.3753
  818MOL0     C 7908  11.037   9.908   8.502  1.4138 -0.3740  1.0142
  818MOL0     C 7909  10.426   9.801   8.972  0.3568  1.0800 -0.4955
  818MOL0     C 7910  10.291   9.767   8.962  0.6299 -0.8933 -0.3276
  818MOL0     H 7911   9.794   9.655   8.845 -1.3379  0.7057 -1.8012
  818MOL0     H 7912   9.603   9.528   8.806 -0.2028 -1.5964 -0.7117
  818MOL0     H 7913   9.445   9.378   8.747  0.4928  2.8226 -2.7914
  818MOL0     H 7914   9.509   9.207   8.769  0.6185  3.0947  1.5742
  818MOL0     H 7915   9.364   9.134   8.572 -0.2600 -0.8516 -0.0213
  818MOL0     H 7916   9.314   9.288   8.552 -0.1809 -1.8738 -0.8426
  818MOL0     H 7917   9.137   9.186   8.676  0.2327 -1.0307 -0.5843
  818MOL0     H 7918   9.212   9.320   8.767  1.0084 -0.5770 -0.5843
  818MOL0     H 7919   9.223   9.011   8.805 -1.4196  1.0881 -1.9442
  818MOL0     H 7920   9.345   9.118   8.887  0.5357 -0.0235 -1.3253
  818MOL0     H 7921   9.118   9.258   8.945 -2.1017 -1.3111  0.7595
  818MOL0     H 7922   9.180   9.124   9.044  1.6219 -0.0433  0.7354
  818MOL0     H 7923   9.031   8.961   8.948  2.0530  0.1551 -0.3370
  818MOL0     H 7924   8.974   9.072   8.825 -3.6834 -0.7671  1.4324
  818MOL0     H 7925   8.937   9.141   9.113  2.5766  1.0389 -0.8756
  818MOL0     H 7926   8.861   9.215   8.989  0.2421  0.2324  2.7636
  818MOL0     H 7927   8.692   9.075   9.068  1.9674  2.2609  0.4479
  818MOL0     H 7928   8.788   8.932   9.043  0.8121  0.1393 -1.5222
  818MOL0     H 7929   8.606   8.840   8.904  2.2240  0.0144  0.7617
  818MOL0     H 7930   8.579   8.718   8.625 -0.6002 -0.2833 -1.4176
  818MOL0     H 7931   8.563   8.851   8.505  2.6673  3.8641  1.3135
  818MOL0     H 7932   8.389   8.796   8.752 -0.1478  1.0394  0.3879
  818MOL0     H 7933   8.347   8.741   8.586 -2.0274  2.0450 -1.6294
  818MOL0     H 7934   8.215   8.943   8.641 -0.8626  1.1936 -0.4443
  818MOL0     H 7935   8.361   9.034   8.669 -1.7001  0.5480 -0.3501
  818MOL0     H 7936   8.431   9.006   8.438 -0.3152  3.8598  1.1285
  818MOL0     H 7937   8.273   9.068   8.443 -1.7224 -1.8219  0.6186
  818MOL0     H 7938   8.076   9.055   8.424  1.3182  0.9487 -1.9678
  818MOL0     H 7939   7.845   9.004   8.368 -1.5874 -2.0364 -3.0486
  818MOL0     H 7940   7.474   8.981   8.210  2.1045 -1.3419 -1.2694
  818MOL0     H 7941   7.244   8.912   8.170  1.2592  0.5755 -1.9242
  818MOL0     H 7942   7.015   8.611   8.110  0.3836 -0.7632  2.8540
  818MOL0     H 7943   7.162   8.686   8.044 -0.7297 -1.8905 -1.1067
  818MOL0     H 7944   7.061   8.893   8.025 -2.3323  0.5301 -2.3965
  818MOL0     H 7945   6.960   8.865   8.168 -0.9068 -2.1099  1.6629
  818MOL0     H 7946   6.923   8.760   7.868 -0.4508 -2.6913  1.4769
  818MOL0     H 7947   6.834   8.894   7.939 -2.5795 -1.2156  1.2706
  818MOL0     H 7948   6.718   8.666   7.900  1.7093 -1.6155 -1.4601
  818MOL0     H 7949   6.824   8.600   8.022 -1.2270  0.4170  0.7273
  818MOL0     H 7950   6.618   8.813   8.072 -0.5859  0.0084 -2.0004
  818MOL0     H 7951   6.730   8.764   8.202 -0.1967  0.9932 -1.3132
  818MOL0     H 7952   6.646   8.555   8.215  1.0925  0.4862 -0.1957
  818MOL0     H 7953   6.548   8.578   8.066 -2.1123 -0.0467  1.6382
  818MOL0     H 7954   6.448   8.580   8.302  1.1931  0.1792 -0.0840
  818MOL0     H 7955   6.492   8.760   8.293 -0.7587  0.2096  0.4658
  818MOL0     H 7956   6.357   8.765   8.067 -3.0438  0.5832 -0.2243
  818MOL0     H 7957   6.255   8.748   8.214 -0.5944  0.9314 -0.4023
  818MOL0     H 7958   7.268   8.573   8.432 -0.0733  1.2341  2.3398
  818MOL0     H 7959   7.507   8.628   8.471 -2.2062 -0.7357  0.7391
  818MOL0     H 7960   7.942   8.604   8.269  0.5506 -0.1250  2.6551
  818MOL0     H 7961   8.190   8.667   8.302  1.6120  2.0937 -1.7340
  818MOL0     H 7962   9.810   9.258   8.540  0.4527 -2.2929  0.4584
  818MOL0     H 7963  10.014   9.372   8.605  1.1522  1.9684  0.5638
  818MOL0     H 7964  10.311   9.549   8.699 -1.0655 -0.2251 -0.5418
  818MOL0     H 7965  10.536   9.603   8.721  1.3602  1.9939  0.1348
  818MOL0     H 7966  10.722   9.735   8.718  1.2473  2.9616  0.1650
  818MOL0     H 7967  10.751   9.596   8.824  0.5627 -0.5031  0.8413
  818MOL0     H 7968  10.887   9.866   8.827  0.1612  0.6988  1.3268
  818MOL0     H 7969  10.898   9.753   8.959  0.3685  3.3765  0.0111
  818MOL0     H 7970  11.002   9.577   8.826  2.3101  0.6161 -0.8772
  818MOL0     H 7971  11.089   9.730   8.815 -0.6453  2.3913  0.4470
  818MOL0     H 7972  11.052   9.610   8.595 -0.3650 -1.0754  0.7338
  818MOL0     H 7973  10.880   9.642   8.606 -0.5062  0.0087  0.5808
  818MOL0     H 7974  11.053   9.999   8.447 -3.2752  0.0406 -0.1071
  818MOL0     H 7975  10.459   9.872   9.047 -1.0296  2.1035 -0.8010
  818MOL0     H 7976  10.220   9.807   9.033  0.4125  0.9690 -1.5165
  819MOL0     O 7977   5.865   8.915   9.620  0.6012  0.2369  0.5241
  819MOL0     C 7978   5.874   9.030   9.638 -0.8122  0.0807  0.1499
  819MOL0     O 7979   5.992   9.102   9.657 -0.1971  0.4399 -0.6564
  819MOL0     C 7980   6.106   9.042   9.651 -0.1890 -0.8361 -0.2653
  819MOL0     C 7981   6.213   9.112   9.589  0.2276 -0.2349 -0.5107
  819MOL0     C 7982   6.349   9.074   9.590 -0.0842  0.6390 -0.7893
  819MOL0     C 7983   6.385   8.954   9.656  0.9155  0.1030 -0.0560
  819MOL0     O 7984   6.510   8.904   9.654 -1.1310  0.4079  0.1456
  819MOL0     C 7985   6.627   8.975   9.596  0.1191 -0.7779 -1.0335
  819MOL0     C 7986   6.745   8.874   9.618 -0.0095 -0.1161 -0.4879
  819MOL0     C 7987   6.731   8.744   9.533  0.6283 -0.4071 -0.4715
  819MOL0     C 7988   6.830   8.625   9.554  0.1325 -0.2819 -0.1941
  819MOL0     C 7989   6.782   8.503   9.480 -0.3713 -0.4996  0.9817
  819MOL0     C 7990   6.773   8.370   9.551  0.7174 -0.6458 -0.1597
  819MOL0     C 7991   6.667   8.282   9.490 -0.3735  0.7340  0.1367
  819MOL0     C 7992   6.639   8.147   9.567  0.3344  0.6694 -0.0620
  819MOL0     N 7993   6.513   8.073   9.529  0.6121 -0.0428 -0.1337
  819MOL0     C 7994   6.462   8.075   9.400  0.1310  0.2327 -0.4655
  819MOL0     C 7995   6.333   8.037   9.406  0.0462  0.5859  0.0705
  819MOL0     C 7996   6.251   8.020   9.284  0.6180 -0.1519  0.6875
  819MOL0     C 7997   6.096   8.054   9.311 -0.1336  0.4368  0.0758
  819MOL0     C 7998   6.029   8.025   9.180  0.8849 -0.5286  0.3695
  819MOL0     C 7999   5.888   8.086   9.180 -0.1408 -0.2500 -0.2083
  819MOL0     O 8000   5.801   7.974   9.195 -0.4291 -0.1974 -0.0314
  819MOL0     C 8001   5.672   7.983   9.149  0.7001  0.1523  0.7718
  819MOL0     C 8002   5.625   8.054   9.041 -0.1244 -1.0019 -0.6680
  819MOL0     C 8003   5.491   8.067   9.025  0.5139 -0.5745 -0.2209
  819MOL0     C 8004   5.391   8.000   9.097  0.3857 -1.1161  0.7303
  819MOL0     C 8005   5.249   8.017   9.061  0.0823  0.9707  0.0194
  819MOL0     O 8006   5.157   7.947   9.130  0.7214 -0.1346  0.3823
  819MOL0     C 8007   5.029   7.970   9.099  0.6827  0.4195 -0.7431
  819MOL0     C 8008   4.964   8.019   8.982 -0.6615 -0.0331  0.1223
  819MOL0     C 8009   4.826   8.019   8.969  0.3783  0.1308 -0.7851
  819MOL0     C 8010   4.744   7.968   9.076  0.2877 -0.0351  0.3636
  819MOL0     O 8011   4.608   7.952   9.054 -0.5967 -0.2133 -1.3203
  819MOL0     C 8012   4.533   8.074   9.058  0.0592 -0.7561  0.3830
  819MOL0     C 8013   4.399   8.047   9.126  0.7829 -0.7475  1.6581
  819MOL0     C 8014   4.314   7.937   9.064  0.2532 -0.4301 -0.1148
  819MOL0     C 8015   4.306   7.941   8.913 -0.1800  0.7635 -0.8485
  819MOL0     C 8016   4.202   7.849   8.851 -0.1925 -0.2279 -0.0387
  819MOL0     C 8017   4.061   7.881   8.892  0.2131  0.4479  0.6276
  819MOL0     C 8018   3.953   7.785   8.834  0.1100 -0.7442 -0.2420
  819MOL0     C 8019   3.819   7.822   8.899 -0.4339  0.3265  0.3171
  819MOL0    Cl 8020   3.685   7.748   8.822 -0.0894  0.5852  0.0391
  819MOL0     C 8021   4.804   7.916   9.184 -0.1932  0.9789 -0.3568
  819MOL0     C 8022   4.945   7.907   9.194 -0.3071  0.1596  0.8106
  819MOL0     O 8023   5.224   8.116   8.993 -0.8423  0.5610  0.0168
  819MOL0     C 8024   5.438   7.924   9.195  0.1339 -0.0856 -0.3310
  819MOL0     C 8025   5.574   7.914   9.223  0.4033 -0.1270 -0.4983
  819MOL0     N 8026   6.314   7.987   9.534 -0.4702 -0.0610  0.0362
  819MOL0     N 8027   6.416   8.016   9.609  0.4690  0.2016 -0.0422
  819MOL0     C 8028   6.276   8.871   9.703  0.2309 -0.0011 -0.6107
  819MOL0     C 8029   6.142   8.918   9.712  0.0474 -0.0114 -0.0348
  819MOL0     C 8030   5.746   9.111   9.645  0.1856  0.6885 -0.4792
  819MOL0     C 8031   5.640   9.089   9.555 -0.5049  0.0682  0.0863
  819MOL0     C 8032   5.517   9.166   9.561  0.2416  0.6829  0.5121
  819MOL0     C 8033   5.505   9.275   9.648  1.0112 -0.4948  0.3683
  819MOL0     O 8034   5.382   9.343   9.671  0.1872 -0.6763  0.4086
  819MOL0     C 8035   5.275   9.335   9.577  0.3879  0.2985 -0.6418
  819MOL0     C 8036   5.171   9.439   9.619  0.2193 -0.3647 -0.2007
  819MOL0     C 8037   5.044   9.438   9.531 -0.2586  0.3269  0.3397
  819MOL0     C 8038   5.081   9.470   9.386  0.3002 -0.0052 -0.1500
  819MOL0     C 8039   5.095   9.613   9.378 -0.1953  0.6966  0.5240
  819MOL0     C 8040   5.106   9.735   9.369  0.0952 -0.1554 -0.7192
  819MOL0     C 8041   5.601   9.289   9.739  0.4771 -0.7962 -0.3228
  819MOL0     C 8042   5.723   9.217   9.736 -0.5992  0.2662 -0.9708
  819MOL0     H 8043   6.190   9.205   9.537  2.6988 -0.6394 -2.5409
  819MOL0     H 8044   6.424   9.124   9.529  0.2967  1.6346  0.4627
  819MOL0     H 8045   6.650   9.066   9.652  1.8269 -0.7664 -1.6625
  819MOL0     H 8046   6.617   9.004   9.491  1.4829  3.5237 -0.1902
  819MOL0     H 8047   6.775   8.843   9.719  1.0127 -1.9605 -1.3203
  819MOL0     H 8048   6.844   8.915   9.593  1.4582 -2.3884  1.2427
  819MOL0     H 8049   6.729   8.772   9.427 -2.4669  0.9482 -0.1683
  819MOL0     H 8050   6.638   8.693   9.558  0.1632  1.3687  1.7520
  819MOL0     H 8051   6.931   8.644   9.517  0.4391 -1.9167 -0.2380
  819MOL0     H 8052   6.832   8.611   9.663 -1.5029  1.6350  0.1508
  819MOL0     H 8053   6.845   8.488   9.392 -2.6877  0.5060 -0.9351
  819MOL0     H 8054   6.688   8.526   9.430 -0.3418  0.4876  1.3509
  819MOL0     H 8055   6.741   8.393   9.653  0.3489  2.5450 -0.8618
  819MOL0     H 8056   6.867   8.316   9.555  0.7096 -0.6272  0.2858
  819MOL0     H 8057   6.572   8.335   9.487 -2.3626 -2.5408  0.3938
  819MOL0     H 8058   6.693   8.244   9.391  2.2018 -2.7573  1.8993
  819MOL0     H 8059   6.630   8.175   9.673 -0.9299 -0.4477  0.1559
  819MOL0     H 8060   6.726   8.081   9.565 -0.3535 -0.4088  2.0637
  819MOL0     H 8061   6.516   8.123   9.318  4.1612  0.1576  1.8663
  819MOL0     H 8062   6.258   7.916   9.252  0.1981  0.8902 -3.2007
  819MOL0     H 8063   6.292   8.069   9.195 -0.3275  0.2221  0.4449
  819MOL0     H 8064   6.087   8.161   9.330  1.6088  1.2992 -3.1360
  819MOL0     H 8065   6.049   7.995   9.390 -1.9326  0.9792 -0.5382
  819MOL0     H 8066   6.085   8.065   9.095 -0.7581  0.7095 -0.1871
  819MOL0     H 8067   6.009   7.918   9.169 -1.9826 -0.1706  1.1918
  819MOL0     H 8068   5.878   8.122   9.077 -0.0892 -2.2284 -0.9476
  819MOL0     H 8069   5.875   8.165   9.255 -1.6730  0.5126 -1.1991
  819MOL0     H 8070   5.689   8.120   8.984  0.5392  0.2692  1.4197
  819MOL0     H 8071   5.462   8.130   8.942  0.6491  1.3538  1.1184
  819MOL0     H 8072   5.036   8.042   8.904  1.0423  1.1653  1.9860
  819MOL0     H 8073   4.779   8.056   8.879  2.9677  2.4608 -1.3283
  819MOL0     H 8074   4.513   8.098   8.953  4.2026  2.3836  0.0508
  819MOL0     H 8075   4.593   8.149   9.110 -2.5928 -0.1038  2.6978
  819MOL0     H 8076   4.348   8.141   9.103  1.3654 -0.8080  0.0430
  819MOL0     H 8077   4.412   8.033   9.234 -0.0769 -2.1976  1.6033
  819MOL0     H 8078   4.214   7.952   9.106  1.2886  2.7540  1.5372
  819MOL0     H 8079   4.360   7.847   9.106 -0.4122  0.3700  2.4603
  819MOL0     H 8080   4.288   8.045   8.884 -0.1041  1.1014  0.2913
  819MOL0     H 8081   4.407   7.915   8.880 -0.6471 -3.3298  0.3919
  819MOL0     H 8082   4.214   7.747   8.888 -2.3098 -0.7254 -0.5952
  819MOL0     H 8083   4.216   7.853   8.743 -0.2140 -0.2588 -0.0431
  819MOL0     H 8084   4.034   7.984   8.867 -2.1558  0.1463  1.7215
  819MOL0     H 8085   4.057   7.871   9.001  2.3152 -1.2461  0.6306
  819MOL0     H 8086   3.953   7.792   8.725  1.4979 -0.8423 -0.2710
  819MOL0     H 8087   3.982   7.685   8.866  0.3448  0.2428  3.0340
  819MOL0     H 8088   3.799   7.927   8.878 -0.0342  0.1567 -1.0173
  819MOL0     H 8089   3.840   7.806   9.005  0.7610 -3.3700 -0.3149
  819MOL0     H 8090   4.740   7.881   9.265  0.5213  0.4444 -0.0173
  819MOL0     H 8091   4.979   7.850   9.280 -1.9139 -3.0827 -0.5024
  819MOL0     H 8092   5.368   7.873   9.261 -0.1438  1.5269  0.6807
  819MOL0     H 8093   5.600   7.869   9.318 -0.7315  0.8456  0.3009
  819MOL0     H 8094   6.290   8.777   9.756 -1.4916 -0.6611 -1.2574
  819MOL0     H 8095   6.063   8.854   9.749  0.1281  0.1571  0.4308
  819MOL0     H 8096   5.666   9.019   9.476  3.1157  2.8383 -1.4756
  819MOL0     H 8097   5.443   9.147   9.484  0.8365  2.0754 -0.4478
  819MOL0     H 8098   5.233   9.234   9.569 -1.5072  1.1155 -1.7343
  819MOL0     H 8099   5.318   9.353   9.478 -0.5238  0.0501 -1.0901
  819MOL0     H 8100   5.137   9.410   9.719  1.4187 -0.3727  0.2202
  819MOL0     H 8101   5.220   9.537   9.619 -0.8138  0.1808  1.4168
  819MOL0     H 8102   4.973   9.506   9.578  1.5479  1.0354  2.2270
  819MOL0     H 8103   4.994   9.341   9.529 -2.5838  1.4680 -0.6895
  819MOL0     H 8104   5.176   9.425   9.355  0.0486 -2.9217  2.8145
  819MOL0     H 8105   5.012   9.437   9.308  3.0641 -1.7692 -2.0242
  819MOL0     H 8106   5.126   9.836   9.338 -2.4144  1.0503  1.1641
  819MOL0     H 8107   5.608   9.366   9.816  1.7725 -2.6311  1.4918
  819MOL0     H 8108   5.803   9.230   9.809  0.3969  0.4154 -2.0633
  820MOL0     O 8109   9.198   7.779  10.980  0.4230  0.1986 -0.1502
  820MOL0     C 8110   9.184   7.680  11.040 -0.2928  0.6057 -0.3710
  820MOL0     O 8111   9.284   7.600  11.073 -0.2018  0.2484 -0.3308
  820MOL0     C 8112   9.414   7.644  11.063  0.0233 -0.2152 -0.4316
  820MOL0     C 8113   9.467   7.707  11.176  0.0773  0.7747  1.1011
  820MOL0     C 8114   9.607   7.739  11.183  0.5538  0.0328  0.1265
  820MOL0     C 8115   9.688   7.713  11.076 -0.1828 -0.6321 -1.2638
  820MOL0     O 8116   9.822   7.743  11.088 -0.7944 -0.1338  0.0408
  820MOL0     C 8117   9.910   7.632  11.032  0.4782  0.6341  0.4421
  820MOL0     C 8118  10.041   7.650  11.106  0.4615  0.4581 -0.1067
  820MOL0     C 8119  10.151   7.549  11.073 -0.0030 -0.3709  0.7467
  820MOL0     C 8120  10.111   7.405  11.088  0.5127  0.9139 -0.1422
  820MOL0     C 8121  10.230   7.313  11.093 -0.6235 -0.1796 -0.0454
  820MOL0     C 8122  10.181   7.161  11.088 -0.2352 -0.3802  0.5950
  820MOL0     C 8123  10.287   7.063  11.123 -0.1070  1.2885 -0.0220
  820MOL0     C 8124  10.399   7.070  11.020 -0.3800  0.4488 -0.1200
  820MOL0     N 8125  10.499   6.970  11.045  0.2307 -0.0305 -0.0290
  820MOL0     C 8126  10.591   6.977  11.142 -0.3176 -0.0374  0.4842
  820MOL0     C 8127  10.683   6.883  11.108 -0.5713 -0.4262 -0.0673
  820MOL0     C 8128  10.812   6.872  11.177  0.3744  1.1368 -0.8516
  820MOL0     C 8129  10.924   6.808  11.096  0.1113 -0.4295  0.3401
  820MOL0     C 8130  11.059   6.864  11.154  0.4484  0.5086 -0.4706
  820MOL0     C 8131  11.170   6.769  11.130  0.7902 -0.0116 -0.5805
  820MOL0     O 8132  11.278   6.808  11.223  0.6267  0.6489  0.5387
  820MOL0     C 8133  11.410   6.806  11.183  0.0651  0.1738  1.0098
  820MOL0     C 8134  11.489   6.842  11.290 -0.4016  0.4298  0.3684
  820MOL0     C 8135  11.627   6.855  11.259  0.3189  0.0877 -0.6400
  820MOL0     C 8136  11.684   6.839  11.136  0.2761  0.1922 -0.3495
  820MOL0     C 8137  11.831   6.841  11.116  0.6236 -0.2409 -0.6251
  820MOL0     O 8138  11.874   6.823  10.987 -0.3013  0.2164  0.4659
  820MOL0     C 8139  12.004   6.812  10.969 -0.6002 -0.5788  0.3134
  820MOL0     C 8140  12.057   6.866  10.857 -0.8967 -0.1804  0.3521
  820MOL0     C 8141  12.190   6.834  10.818  0.1470 -0.9887 -0.0883
  820MOL0     C 8142  12.266   6.751  10.898 -0.0100  0.1974 -0.3018
  820MOL0     O 8143  12.388   6.710  10.847  0.4145 -0.2668  0.0556
  820MOL0     C 8144  12.483   6.814  10.853 -0.7191  0.2934  0.1009
  820MOL0     C 8145  12.619   6.764  10.815 -0.3946  0.7133 -0.9230
  820MOL0     C 8146  12.738   6.851  10.845 -0.1651  0.2775 -0.8234
  820MOL0     C 8147  12.861   6.777  10.784  1.3446  0.8330  0.4604
  820MOL0     C 8148  12.969   6.884  10.769  0.1342  0.3911  0.1946
  820MOL0     C 8149  13.088   6.846  10.685  0.0241 -0.8384  0.1431
  820MOL0     C 8150  13.181   6.746  10.748 -0.5565  0.7414  0.3769
  820MOL0     C 8151  13.307   6.725  10.668 -0.4290  0.3217  0.2334
  820MOL0    Cl 8152  13.274   6.720  10.491  0.5234 -0.3116  0.0168
  820MOL0     C 8153  12.217   6.695  11.012 -0.3626 -1.4271 -0.9682
  820MOL0     C 8154  12.081   6.721  11.041 -0.5491 -0.0848 -1.1990
  820MOL0     O 8155  11.903   6.865  11.210  0.5510 -0.0187  0.9354
  820MOL0     C 8156  11.598   6.804  11.032  0.0029 -0.4867  0.2169
  820MOL0     C 8157  11.467   6.768  11.060  0.6549 -1.3148 -0.8996
  820MOL0     N 8158  10.632   6.817  11.000  0.7336  0.3133  0.3446
  820MOL0     N 8159  10.520   6.864  10.957 -1.2708  0.6275  0.3323
  820MOL0     C 8160   9.632   7.653  10.967 -0.4622  0.5639  1.0183
  820MOL0     C 8161   9.497   7.616  10.957 -0.7121 -0.4978 -0.1588
  820MOL0     C 8162   9.051   7.634  11.070 -0.2193  0.0063 -0.0192
  820MOL0     C 8163   8.950   7.671  10.983  0.8926  0.3748  0.5652
  820MOL0     C 8164   8.821   7.607  11.001  0.0283 -0.3503 -0.5420
  820MOL0     C 8165   8.801   7.523  11.107  0.3745  0.3617 -0.4190
  820MOL0     O 8166   8.670   7.486  11.117  0.3407  0.0523  0.4026
  820MOL0     C 8167   8.636   7.409  11.227  1.0480 -0.2097  0.3359
  820MOL0     C 8168   8.485   7.368  11.226 -0.1695 -0.7039 -0.3835
  820MOL0     C 8169   8.402   7.493  11.232  0.1134 -0.5795  0.5594
  820MOL0     C 8170   8.258   7.445  11.223 -0.2099 -0.6518  0.7684
  820MOL0     C 8171   8.211   7.411  11.088  0.3499 -0.0706 -0.3153
  820MOL0     C 8172   8.165   7.353  10.991 -0.2152 -0.3511  0.0818
  820MOL0     C 8173   8.906   7.490  11.201 -0.4936  0.2932 -0.0700
  820MOL0     C 8174   9.030   7.557  11.182 -0.3147 -1.2213 -0.8557
  820MOL0     H 8175   9.410   7.736  11.264 -0.9412  2.8721 -0.1586
  820MOL0     H 8176   9.649   7.786  11.271 -0.0899  1.2715 -0.1933
  820MOL0     H 8177   9.933   7.642  10.926  1.3820 -2.3947  0.2453
  820MOL0     H 8178   9.865   7.533  11.049 -1.9777  0.9567 -3.0590
  820MOL0     H 8179  10.029   7.642  11.214 -0.2065 -1.6942 -0.2988
  820MOL0     H 8180  10.073   7.751  11.077 -0.2063 -0.0233 -2.8042
  820MOL0     H 8181  10.239   7.577  11.132  1.8441  0.2639 -2.1191
  820MOL0     H 8182  10.182   7.575  10.971  2.2886 -0.2225  1.4420
  820MOL0     H 8183  10.046   7.394  11.176  1.6829 -1.0280  0.5510
  820MOL0     H 8184  10.049   7.379  11.003  0.9217 -0.3772 -0.0586
  820MOL0     H 8185  10.268   7.322  11.195 -2.2799  0.0756  0.5817
  820MOL0     H 8186  10.299   7.340  11.012 -0.0237  2.1410  1.1469
  820MOL0     H 8187  10.132   7.131  10.995 -1.1350 -1.1163  1.3046
  820MOL0     H 8188  10.110   7.147  11.169  0.5583 -1.7232  1.0740
  820MOL0     H 8189  10.325   7.082  11.224 -0.9450  0.5690  0.4434
  820MOL0     H 8190  10.254   6.959  11.123  1.3680  0.7874  1.0474
  820MOL0     H 8191  10.442   7.170  11.028  1.8026 -0.6299  3.6988
  820MOL0     H 8192  10.363   7.054  10.917  1.3628  2.1068 -1.0398
  820MOL0     H 8193  10.610   7.054  11.216 -2.5556 -0.2952  1.4115
  820MOL0     H 8194  10.789   6.818  11.269  2.0698 -2.0057 -2.1208
  820MOL0     H 8195  10.841   6.973  11.210 -0.7781  1.4738 -0.8170
  820MOL0     H 8196  10.918   6.844  10.993  0.5302  0.0266  0.4729
  820MOL0     H 8197  10.921   6.699  11.105 -0.1553 -0.5613 -1.1816
  820MOL0     H 8198  11.093   6.961  11.115  2.7211 -0.7886 -1.9008
  820MOL0     H 8199  11.037   6.870  11.261 -1.3441 -0.2974 -0.7550
  820MOL0     H 8200  11.203   6.761  11.026  0.2625  0.3814 -0.7836
  820MOL0     H 8201  11.140   6.670  11.164  0.3502  0.7033  1.2127
  820MOL0     H 8202  11.438   6.867  11.383  0.2188 -2.9650  1.7746
  820MOL0     H 8203  11.689   6.891  11.341  2.6486 -2.0249 -1.3514
  820MOL0     H 8204  12.000   6.936  10.797 -0.8313  1.6759  2.3606
  820MOL0     H 8205  12.236   6.903  10.747  0.5599  1.3398  2.2534
  820MOL0     H 8206  12.476   6.872  10.946  0.9509  6.0459 -2.8350
  820MOL0     H 8207  12.462   6.887  10.774  3.4556 -0.2265 -1.7768
  820MOL0     H 8208  12.606   6.745  10.708  1.7979 -0.3300 -1.0572
  820MOL0     H 8209  12.640   6.663  10.851  2.0305  0.6108 -2.3796
  820MOL0     H 8210  12.758   6.841  10.952  0.9517 -1.3018 -1.1524
  820MOL0     H 8211  12.725   6.955  10.814 -3.6476 -0.4703 -2.3495
  820MOL0     H 8212  12.896   6.697  10.850  2.4685  0.2436 -0.7943
  820MOL0     H 8213  12.831   6.726  10.692  0.0646 -2.4339  2.5384
  820MOL0     H 8214  13.018   6.908  10.864  1.1748  0.6540 -0.3882
  820MOL0     H 8215  12.939   6.978  10.723 -0.8183  0.4960  0.9916
  820MOL0     H 8216  13.162   6.924  10.666  0.6872 -0.8697  2.3051
  820MOL0     H 8217  13.054   6.809  10.588 -0.2654 -0.9548  0.2865
  820MOL0     H 8218  13.212   6.786  10.845  0.3615  0.1444  0.3368
  820MOL0     H 8219  13.127   6.652  10.758  0.7868 -0.1288 -0.3048
  820MOL0     H 8220  13.361   6.638  10.707  0.9323  1.9293  2.0822
  820MOL0     H 8221  13.364   6.816  10.687  0.1320  0.8008 -3.2097
  820MOL0     H 8222  12.275   6.622  11.069  1.2129 -0.8104 -1.7233
  820MOL0     H 8223  12.044   6.670  11.130  0.1086 -0.4110 -1.1025
  820MOL0     H 8224  11.648   6.784  10.938  0.7861  3.4138 -0.3354
  820MOL0     H 8225  11.403   6.722  10.985  0.7850 -2.0131 -0.5856
  820MOL0     H 8226   9.692   7.620  10.883 -1.8198  0.0721  0.2080
  820MOL0     H 8227   9.461   7.559  10.872 -0.5469 -1.1384  0.1885
  820MOL0     H 8228   8.962   7.733  10.895 -0.1951 -0.1255  0.0435
  820MOL0     H 8229   8.735   7.624  10.937  0.5628 -0.2075 -1.2393
  820MOL0     H 8230   8.660   7.464  11.319  1.1197  0.4814 -0.0890
  820MOL0     H 8231   8.692   7.315  11.219  0.5307 -0.3994 -1.3331
  820MOL0     H 8232   8.471   7.307  11.136 -2.6885  1.2901 -1.4708
  820MOL0     H 8233   8.461   7.310  11.315 -1.5975 -0.1523 -0.3797
  820MOL0     H 8234   8.424   7.567  11.155  2.3862 -1.2985  0.4500
  820MOL0     H 8235   8.420   7.546  11.325 -2.2914  2.3390 -0.4932
  820MOL0     H 8236   8.227   7.359  11.282 -3.0337 -1.6914 -1.9997
  820MOL0     H 8237   8.206   7.535  11.258 -1.0146 -1.5442  1.9646
  820MOL0     H 8238   8.106   7.292  10.926  0.1530 -0.8072  0.1687
  820MOL0     H 8239   8.893   7.420  11.282  1.0921  0.2313  0.1507
  820MOL0     H 8240   9.114   7.526  11.244 -1.5465  0.3096  1.7214
  821MOL0     O 8241   7.300   9.289   7.020  0.0740 -0.4745 -0.5529
  821MOL0     C 8242   7.319   9.385   6.940 -0.6785 -0.7369 -0.0475
  821MOL0     O 8243   7.225   9.472   6.883 -0.5641 -0.0249  0.4810
  821MOL0     C 8244   7.091   9.488   6.912 -0.5427  0.5096  0.3570
  821MOL0     C 8245   7.019   9.410   6.999 -0.1344 -0.5970  0.2991
  821MOL0     C 8246   6.884   9.437   7.015 -0.7092 -0.8060 -0.2321
  821MOL0     C 8247   6.811   9.535   6.951  0.1255  1.3031  0.2373
  821MOL0     O 8248   6.678   9.551   6.961  0.2246  0.3660 -0.7267
  821MOL0     C 8249   6.596   9.445   7.013  0.4825 -0.7737  0.8447
  821MOL0     C 8250   6.468   9.461   6.953 -0.8091  0.4391  0.4748
  821MOL0     C 8251   6.467   9.425   6.803 -0.3982 -1.0760 -0.2083
  821MOL0     C 8252   6.318   9.441   6.756  0.3344  0.2005 -0.0106
  821MOL0     C 8253   6.210   9.377   6.848 -0.5118  2.2831 -1.0704
  821MOL0     C 8254   6.074   9.348   6.790  0.4713  0.3967 -0.7525
  821MOL0     C 8255   6.091   9.206   6.724 -0.8942 -0.0554 -0.0986
  821MOL0     C 8256   5.980   9.170   6.636  0.1505  0.8310 -0.1884
  821MOL0     N 8257   5.978   9.048   6.554 -0.4149 -0.7420  0.1308
  821MOL0     C 8258   5.877   9.008   6.462  0.1415  0.5275 -0.9494
  821MOL0     C 8259   5.911   8.880   6.429  0.7077 -0.0533  0.5233
  821MOL0     C 8260   5.835   8.798   6.331  0.5548  1.0447  0.2758
  821MOL0     C 8261   5.910   8.770   6.193 -0.2138  0.2265 -0.1564
  821MOL0     C 8262   5.891   8.887   6.090  0.0005  0.9354  0.0676
  821MOL0     C 8263   5.935   8.863   5.950 -0.6568  0.4858 -0.1057
  821MOL0     O 8264   5.926   8.978   5.862 -0.3143  0.0015 -0.1860
  821MOL0     C 8265   6.043   9.003   5.798 -0.9575 -0.4819  0.0444
  821MOL0     C 8266   6.060   8.966   5.665  0.1912  0.3956 -0.5746
  821MOL0     C 8267   6.185   8.992   5.614  0.4858  0.5198  0.6595
  821MOL0     C 8268   6.294   9.049   5.682 -0.4184 -0.6377 -0.2063
  821MOL0     C 8269   6.428   9.075   5.622  0.7401  0.6671 -0.6878
  821MOL0     O 8270   6.522   9.128   5.700  0.4635 -0.3163 -0.1781
  821MOL0     C 8271   6.637   9.188   5.667 -0.0681  0.3428  0.2134
  821MOL0     C 8272   6.720   9.205   5.776 -0.2325  0.0826 -0.2785
  821MOL0     C 8273   6.842   9.264   5.757  0.2741 -0.6126 -0.1455
  821MOL0     C 8274   6.888   9.314   5.634  0.8181 -0.0654  0.3264
  821MOL0     O 8275   7.012   9.363   5.604 -0.1940  0.7901 -0.7753
  821MOL0     C 8276   7.101   9.402   5.712  0.9259  0.0604  0.4275
  821MOL0     C 8277   7.062   9.536   5.769  0.5969  1.0649 -0.4347
  821MOL0     C 8278   7.111   9.642   5.674  0.2289  0.0054 -0.4449
  821MOL0     C 8279   7.247   9.698   5.727  0.2072  0.4447  0.3696
  821MOL0     C 8280   7.273   9.828   5.660  1.2893 -0.9075 -0.1041
  821MOL0     C 8281   7.420   9.850   5.626 -0.9180  0.2911 -0.0001
  821MOL0     C 8282   7.518   9.879   5.736  0.4165  0.4444  0.6335
  821MOL0     C 8283   7.644   9.957   5.695 -0.3918 -0.2276  0.4892
  821MOL0    Cl 8284   7.626  10.125   5.651 -0.1698 -0.3242  0.0119
  821MOL0     C 8285   6.807   9.299   5.525  0.1185 -0.5492  0.5323
  821MOL0     C 8286   6.683   9.236   5.542 -0.3237  0.5567  0.0895
  821MOL0     O 8287   6.439   9.066   5.496  0.0331  0.7912 -0.0237
  821MOL0     C 8288   6.270   9.107   5.812 -0.5403  0.5661 -1.0777
  821MOL0     C 8289   6.153   9.064   5.872  0.3276  0.1340  0.1308
  821MOL0     N 8290   6.029   8.853   6.491 -1.4319 -0.6540  0.4141
  821MOL0     N 8291   6.074   8.951   6.564 -0.2485  0.1922 -0.3688
  821MOL0     C 8292   6.889   9.614   6.861  0.6207 -0.6318  0.1256
  821MOL0     C 8293   7.025   9.591   6.840  0.7792 -0.5974  0.1383
  821MOL0     C 8294   7.460   9.418   6.912 -0.0270 -0.5537  1.0793
  821MOL0     C 8295   7.559   9.360   6.996 -0.0744 -0.3731  0.6347
  821MOL0     C 8296   7.699   9.369   6.957 -0.1492 -0.3396 -0.2663
  821MOL0     C 8297   7.742   9.446   6.845  0.0034 -0.2470  0.5923
  821MOL0     O 8298   7.873   9.453   6.831 -1.5505 -0.2979 -0.2936
  821MOL0     C 8299   7.937   9.534   6.731  0.3696  0.3211 -0.5840
  821MOL0     C 8300   7.948   9.680   6.754  0.1253  0.2731  0.3091
  821MOL0     C 8301   8.040   9.744   6.644  1.4340 -0.6479 -0.2457
  821MOL0     C 8302   7.983   9.749   6.502 -0.1859  0.3122 -0.5689
  821MOL0     C 8303   8.093   9.721   6.413 -0.0044  0.5771  0.5605
  821MOL0     C 8304   8.191   9.693   6.345  0.3715 -0.2252  0.0037
  821MOL0     C 8305   7.640   9.504   6.765  0.6000  0.1804 -1.2742
  821MOL0     C 8306   7.504   9.488   6.796  0.3525 -0.8186  0.0679
  821MOL0     H 8307   7.065   9.339   7.066  1.6812  1.5181  1.4297
  821MOL0     H 8308   6.828   9.388   7.095 -0.6176  2.8484  2.2969
  821MOL0     H 8309   6.585   9.460   7.121  1.4049 -0.6682  0.9333
  821MOL0     H 8310   6.643   9.347   6.998  3.3422  0.3643  1.6248
  821MOL0     H 8311   6.431   9.559   6.984  1.3999  0.2186  4.5723
  821MOL0     H 8312   6.398   9.390   6.997 -0.7964  1.4624  2.2300
  821MOL0     H 8313   6.499   9.321   6.794  2.2553 -0.1430 -3.3930
  821MOL0     H 8314   6.541   9.481   6.745 -1.3576  0.4068 -0.0765
  821MOL0     H 8315   6.297   9.548   6.752  2.5606  0.8099  1.8832
  821MOL0     H 8316   6.306   9.406   6.653 -2.1543  1.9558 -0.4161
  821MOL0     H 8317   6.190   9.436   6.938 -1.6351 -0.2716  0.4434
  821MOL0     H 8318   6.260   9.285   6.880 -0.6454  2.4983 -0.2258
  821MOL0     H 8319   6.045   9.429   6.722 -0.4544 -1.0999 -2.1990
  821MOL0     H 8320   6.000   9.335   6.870 -0.5106  0.8153 -1.5673
  821MOL0     H 8321   6.176   9.213   6.655 -1.8544  0.5088 -1.2414
  821MOL0     H 8322   6.108   9.129   6.800  2.0999 -0.2480 -0.8120
  821MOL0     H 8323   5.975   9.258   6.570 -0.6353  1.0591  0.1563
  821MOL0     H 8324   5.885   9.174   6.690 -0.0142  1.0801 -0.4875
  821MOL0     H 8325   5.788   9.059   6.426  0.5685  1.4423 -0.7323
  821MOL0     H 8326   5.738   8.842   6.305 -1.4435 -2.7965  0.5748
  821MOL0     H 8327   5.801   8.705   6.377  0.6164  0.4420 -0.8680
  821MOL0     H 8328   5.864   8.680   6.152 -0.2128 -0.1698  0.6859
  821MOL0     H 8329   6.013   8.739   6.210 -0.0392  1.4716  1.3120
  821MOL0     H 8330   5.786   8.916   6.081  0.0678  1.2318  0.2530
  821MOL0     H 8331   5.940   8.979   6.123 -0.9623  1.1619  0.9253
  821MOL0     H 8332   5.885   8.778   5.902  2.3464 -1.1576 -0.5111
  821MOL0     H 8333   6.037   8.829   5.970 -1.1916  0.7568  4.0693
  821MOL0     H 8334   5.991   8.919   5.595  0.2493  0.7303 -0.8576
  821MOL0     H 8335   6.208   8.973   5.509 -3.8231  0.4005 -0.4674
  821MOL0     H 8336   6.677   9.180   5.872  1.0693 -1.7876 -0.1227
  821MOL0     H 8337   6.910   9.275   5.841  0.4569 -3.8777  0.2608
  821MOL0     H 8338   7.199   9.418   5.666  0.9349 -1.5170 -0.1722
  821MOL0     H 8339   7.107   9.320   5.784 -5.1803 -0.9055  0.3338
  821MOL0     H 8340   7.100   9.546   5.871  1.4756 -0.1808 -0.6074
  821MOL0     H 8341   6.953   9.533   5.776  0.7104  0.7997  4.1955
  821MOL0     H 8342   7.043   9.727   5.687  1.4698  1.0881 -0.8312
  821MOL0     H 8343   7.103   9.604   5.572  1.2009 -4.1894  0.8276
  821MOL0     H 8344   7.245   9.702   5.836 -4.4685 -1.2282  0.5965
  821MOL0     H 8345   7.323   9.623   5.705  1.9693  1.8898  1.3197
  821MOL0     H 8346   7.241   9.907   5.730  2.4971  1.4353 -2.0262
  821MOL0     H 8347   7.211   9.835   5.571 -0.1800 -1.6914  0.8328
  821MOL0     H 8348   7.427   9.926   5.548  1.8311 -0.8110 -0.9380
  821MOL0     H 8349   7.451   9.751   5.591 -1.0958 -0.1605  1.0855
  821MOL0     H 8350   7.468   9.946   5.807 -0.1097 -0.4814  1.1599
  821MOL0     H 8351   7.553   9.782   5.773  2.9230  0.8532 -0.4802
  821MOL0     H 8352   7.676   9.895   5.611 -1.6167 -2.7824  1.7781
  821MOL0     H 8353   7.722   9.945   5.771  1.4856 -0.5746 -1.3992
  821MOL0     H 8354   6.831   9.333   5.425 -4.3146  1.2040 -0.1875
  821MOL0     H 8355   6.618   9.223   5.456 -1.7138  1.8602  0.9058
  821MOL0     H 8356   6.353   9.154   5.865  0.8882 -3.2789  0.5063
  821MOL0     H 8357   6.149   9.069   5.980  0.0232 -1.8807  0.2409
  821MOL0     H 8358   6.837   9.688   6.801 -1.2305 -1.2010  0.9521
  821MOL0     H 8359   7.072   9.655   6.766 -2.4049  1.4493 -0.3327
  821MOL0     H 8360   7.532   9.294   7.078 -1.3625  0.9180  1.2911
  821MOL0     H 8361   7.770   9.317   7.020  0.5397  0.1237 -0.6462
  821MOL0     H 8362   7.883   9.508   6.640 -1.4696  2.3444 -0.1532
  821MOL0     H 8363   8.043   9.506   6.727  0.7011  1.3868  0.3187
  821MOL0     H 8364   7.849   9.722   6.734 -0.2428 -0.0710  1.3493
  821MOL0     H 8365   7.983   9.696   6.856 -0.0581  2.9000  0.0232
  821MOL0     H 8366   8.133   9.686   6.648  1.2823 -0.8294  0.7307
  821MOL0     H 8367   8.057   9.847   6.677 -0.2699 -1.0760  2.2048
  821MOL0     H 8368   7.900   9.679   6.485 -0.5761  1.1414 -2.3908
  821MOL0     H 8369   7.936   9.847   6.482 -1.7291 -0.7046 -2.2575
  821MOL0     H 8370   8.273   9.669   6.280 -0.3497  1.1986 -1.5252
  821MOL0     H 8371   7.668   9.569   6.683  0.0136 -0.1501 -1.7417
  821MOL0     H 8372   7.433   9.511   6.717  0.6211 -2.5905 -0.7290
  822MOL0     O 8373   4.528   3.716   7.621 -0.1437 -0.4919  0.6048
  822MOL0     C 8374   4.599   3.632   7.572 -0.0553  1.1045 -0.0298
  822MOL0     O 8375   4.555   3.513   7.525  0.1503  0.1157  0.3696
  822MOL0     C 8376   4.421   3.480   7.520  0.3278  0.2928  0.0727
  822MOL0     C 8377   4.373   3.444   7.392 -0.1531  0.3179  0.2350
  822MOL0     C 8378   4.256   3.375   7.386  0.4071  0.3456 -0.1096
  822MOL0     C 8379   4.163   3.354   7.501 -0.7848 -0.4745 -0.7420
  822MOL0     O 8380   4.046   3.298   7.475  0.2158  0.0621  0.4195
  822MOL0     C 8381   3.967   3.229   7.577 -0.7668 -0.3699 -0.1413
  822MOL0     C 8382   3.845   3.165   7.523  0.2815  0.4860  0.1902
  822MOL0     C 8383   3.761   3.245   7.418 -0.4473 -1.1075  0.8490
  822MOL0     C 8384   3.676   3.146   7.330 -0.6071 -0.2554 -0.2704
  822MOL0     C 8385   3.536   3.214   7.290  1.2972  0.4402 -0.1452
  822MOL0     C 8386   3.481   3.144   7.169 -0.8332  0.0824  0.3460
  822MOL0     C 8387   3.342   3.216   7.118  0.6644 -0.4755  0.3585
  822MOL0     C 8388   3.360   3.349   7.038  0.9476 -0.9594  0.1678
  822MOL0     N 8389   3.401   3.319   6.894  0.3209 -0.3585  0.1141
  822MOL0     C 8390   3.534   3.308   6.862 -0.7312  0.5989  0.5322
  822MOL0     C 8391   3.538   3.307   6.733 -0.5677  0.4308  0.3440
  822MOL0     C 8392   3.671   3.316   6.666 -0.4021  0.3370  0.1214
  822MOL0     C 8393   3.695   3.470   6.663 -0.0679  1.0557  0.3323
  822MOL0     C 8394   3.807   3.506   6.566  0.4771 -0.2805  0.3718
  822MOL0     C 8395   3.943   3.449   6.618  0.7768  0.7826  0.6895
  822MOL0     O 8396   4.062   3.493   6.543  0.3251  0.3352  0.3805
  822MOL0     C 8397   4.183   3.435   6.584  0.3986 -0.2675 -0.1359
  822MOL0     C 8398   4.285   3.430   6.486  0.5354 -0.7392 -0.3011
  822MOL0     C 8399   4.413   3.371   6.508 -0.4181  0.2449 -1.2831
  822MOL0     C 8400   4.445   3.327   6.637 -0.4520 -0.7262  0.0855
  822MOL0     C 8401   4.576   3.250   6.654 -0.5149  0.4402  0.0441
  822MOL0     O 8402   4.636   3.195   6.545 -0.0999 -0.3965 -0.1059
  822MOL0     C 8403   4.765   3.171   6.537 -0.2410  0.1490  0.7134
  822MOL0     C 8404   4.863   3.259   6.585 -0.0457  0.1988 -0.5424
  822MOL0     C 8405   4.995   3.218   6.578  0.0782  0.0970  0.8928
  822MOL0     C 8406   5.034   3.094   6.531 -0.6825 -0.2472 -0.2243
  822MOL0     O 8407   5.166   3.045   6.535 -0.1800 -0.1001 -0.2090
  822MOL0     C 8408   5.268   3.126   6.587 -0.8318  0.1237 -0.5593
  822MOL0     C 8409   5.387   3.030   6.594 -0.2430  1.1898 -0.1223
  822MOL0     C 8410   5.516   3.082   6.656 -0.9605  0.2645  0.1032
  822MOL0     C 8411   5.615   2.976   6.696  0.5138  0.4121  0.2742
  822MOL0     C 8412   5.728   3.044   6.778  0.4789  0.3983  0.2609
  822MOL0     C 8413   5.826   2.940   6.839  0.4839  0.2965  0.2588
  822MOL0     C 8414   5.918   2.983   6.946  0.0408 -0.3086  0.1249
  822MOL0     C 8415   6.017   3.095   6.894  0.5378 -0.0834  0.2922
  822MOL0    Cl 8416   6.147   3.006   6.794  0.0982 -0.1999  0.0819
  822MOL0     C 8417   4.936   3.001   6.503  0.0156  1.1041  0.3372
  822MOL0     C 8418   4.801   3.045   6.491  0.4973  0.9492  0.2502
  822MOL0     O 8419   4.619   3.232   6.772  0.5001  0.0324  0.7027
  822MOL0     C 8420   4.346   3.339   6.737 -0.2354  0.0793 -0.4882
  822MOL0     C 8421   4.214   3.379   6.709 -0.0293 -0.0312  0.8487
  822MOL0     N 8422   3.407   3.315   6.681  0.8575 -0.7247 -0.2884
  822MOL0     N 8423   3.324   3.329   6.777  0.0663 -0.3477  0.1756
  822MOL0     C 8424   4.217   3.399   7.625 -0.2900  0.0134  0.6319
  822MOL0     C 8425   4.345   3.467   7.634  0.7532 -0.5210  0.1283
  822MOL0     C 8426   4.740   3.655   7.564  0.1609 -0.0730  1.4155
  822MOL0     C 8427   4.796   3.783   7.574  0.3125 -0.3469 -0.2168
  822MOL0     C 8428   4.935   3.800   7.579 -0.4047 -0.0448  0.2393
  822MOL0     C 8429   5.023   3.696   7.556  0.2136  0.4204 -1.1317
  822MOL0     O 8430   5.156   3.736   7.560  0.4408  0.9398 -0.3705
  822MOL0     C 8431   5.262   3.636   7.571  0.2758  0.0047  0.2461
  822MOL0     C 8432   5.388   3.690   7.630  1.0883 -0.0508  0.7618
  822MOL0     C 8433   5.359   3.750   7.766 -0.6377  0.0800 -0.0087
  822MOL0     C 8434   5.426   3.647   7.867 -0.1061 -0.7756 -0.0185
  822MOL0     C 8435   5.398   3.691   8.005 -0.1676 -0.2138 -0.0467
  822MOL0     C 8436   5.377   3.732   8.117 -0.0283 -0.0799 -0.0945
  822MOL0     C 8437   4.976   3.564   7.537 -0.9141 -0.6864  0.2826
  822MOL0     C 8438   4.835   3.543   7.544  0.2579 -1.1738  0.0184
  822MOL0     H 8439   4.424   3.472   7.300 -2.3314 -0.5543 -1.3406
  822MOL0     H 8440   4.223   3.346   7.287  0.8091 -0.4320 -0.0207
  822MOL0     H 8441   3.952   3.300   7.659  2.4471  1.2688 -0.7842
  822MOL0     H 8442   4.025   3.147   7.621 -0.7974 -1.2128 -1.5973
  822MOL0     H 8443   3.785   3.126   7.606 -0.2989 -0.4892 -0.6569
  822MOL0     H 8444   3.903   3.080   7.484 -1.7608  0.1970 -2.5671
  822MOL0     H 8445   3.809   3.306   7.342  2.5145 -0.7823  2.8239
  822MOL0     H 8446   3.701   3.315   7.476  0.1327 -0.8741  1.1737
  822MOL0     H 8447   3.731   3.115   7.240  1.9335  2.0867  0.3428
  822MOL0     H 8448   3.661   3.053   7.387 -0.7240 -1.2287 -1.8158
  822MOL0     H 8449   3.542   3.322   7.271 -0.3976  0.3713 -1.3302
  822MOL0     H 8450   3.463   3.199   7.369 -2.0370  0.1162 -3.0267
  822MOL0     H 8451   3.454   3.043   7.202  2.9113 -1.2838 -0.3330
  822MOL0     H 8452   3.557   3.137   7.091 -1.2505  1.1216 -0.1780
  822MOL0     H 8453   3.293   3.151   7.045  1.1226  0.5213 -0.8575
  822MOL0     H 8454   3.268   3.238   7.196 -1.5836  1.0263 -2.0282
  822MOL0     H 8455   3.431   3.421   7.081  0.2513 -0.7385  0.9688
  822MOL0     H 8456   3.267   3.407   7.031  0.8886 -0.7794  2.0281
  822MOL0     H 8457   3.616   3.319   6.931 -2.0249 -0.9156  2.4314
  822MOL0     H 8458   3.667   3.272   6.566  1.9084 -1.4969  0.7380
  822MOL0     H 8459   3.747   3.250   6.710  0.1260  1.3528  0.7751
  822MOL0     H 8460   3.728   3.494   6.764  0.1495  0.8868  0.3011
  822MOL0     H 8461   3.603   3.523   6.640  0.0409  0.3793 -1.9081
  822MOL0     H 8462   3.789   3.466   6.466 -1.0092 -1.6821  1.1562
  822MOL0     H 8463   3.821   3.615   6.562  1.6700 -0.4305  0.0600
  822MOL0     H 8464   3.932   3.341   6.613 -0.8204  0.8906  1.2615
  822MOL0     H 8465   3.949   3.471   6.726 -0.8608 -4.2647  2.0856
  822MOL0     H 8466   4.263   3.492   6.400 -1.9635  0.2872  0.9576
  822MOL0     H 8467   4.488   3.354   6.432 -0.3418 -3.6195 -0.5453
  822MOL0     H 8468   4.843   3.359   6.621  1.4161  0.4897 -0.4735
  822MOL0     H 8469   5.077   3.287   6.592  0.4458  0.4205 -2.1466
  822MOL0     H 8470   5.261   3.160   6.691  0.8942  3.4311 -1.3895
  822MOL0     H 8471   5.292   3.215   6.528 -3.5001  2.6225  1.7636
  822MOL0     H 8472   5.406   2.990   6.494 -0.4420  0.5784  0.0789
  822MOL0     H 8473   5.357   2.945   6.655 -0.4579 -0.5662 -2.5334
  822MOL0     H 8474   5.487   3.125   6.752 -0.1696  1.6254 -0.2439
  822MOL0     H 8475   5.575   3.155   6.599  1.5483 -0.8323  1.1251
  822MOL0     H 8476   5.562   2.903   6.758 -3.0208  2.6521  0.2172
  822MOL0     H 8477   5.663   2.936   6.606  1.1581  4.5653 -1.4792
  822MOL0     H 8478   5.683   3.107   6.856 -0.0478  0.2247  0.1045
  822MOL0     H 8479   5.793   3.103   6.713  1.2595 -0.2857  0.4061
  822MOL0     H 8480   5.878   2.901   6.751 -3.3293 -1.2777 -1.5184
  822MOL0     H 8481   5.775   2.851   6.876  1.4838 -1.7011 -2.7614
  822MOL0     H 8482   5.843   3.022   7.016 -0.1854 -1.5561  0.6169
  822MOL0     H 8483   5.975   2.901   6.992 -0.9640 -1.0260  0.1306
  822MOL0     H 8484   6.065   3.125   6.988  0.7922 -2.0070  0.8260
  822MOL0     H 8485   5.975   3.182   6.843  0.2678 -1.1397 -1.3522
  822MOL0     H 8486   4.960   2.896   6.489  0.9869  1.2850  0.6288
  822MOL0     H 8487   4.714   2.981   6.479  0.7262  0.6976 -0.0754
  822MOL0     H 8488   4.370   3.308   6.838 -1.9347 -2.2076 -0.7220
  822MOL0     H 8489   4.141   3.391   6.789  1.2580  1.9740  1.7908
  822MOL0     H 8490   4.148   3.400   7.709 -1.4471  1.3336 -0.2834
  822MOL0     H 8491   4.383   3.498   7.731 -1.2490 -1.6411  1.3627
  822MOL0     H 8492   4.732   3.868   7.593  0.9246 -0.1893  1.2588
  822MOL0     H 8493   4.960   3.899   7.616  0.0001  0.6633 -1.8472
  822MOL0     H 8494   5.281   3.611   7.466  0.7496  0.0681  0.3149
  822MOL0     H 8495   5.244   3.544   7.628  1.6652  0.1198  0.8994
  822MOL0     H 8496   5.467   3.616   7.622 -0.1473 -1.2115 -4.0000
  822MOL0     H 8497   5.420   3.772   7.565 -1.9359  0.2137 -0.5927
  822MOL0     H 8498   5.254   3.763   7.792  0.1560  1.4434  2.8784
  822MOL0     H 8499   5.412   3.846   7.772 -0.6911  0.5570 -4.0007
  822MOL0     H 8500   5.375   3.551   7.849 -0.4529 -1.2250  2.8976
  822MOL0     H 8501   5.533   3.642   7.844 -0.0183 -2.0484  0.5655
  822MOL0     H 8502   5.350   3.774   8.213  0.9944 -1.7679  0.9814
  822MOL0     H 8503   5.049   3.485   7.518  1.0531  1.0702  0.1559
  822MOL0     H 8504   4.791   3.446   7.527 -2.3009 -0.1276  0.2386
  823MOL0     O 8505   9.950   3.384   6.571 -0.6926 -0.5544  0.0360
  823MOL0     C 8506   9.893   3.488   6.600 -0.6534 -0.2375 -0.1394
  823MOL0     O 8507   9.933   3.591   6.687  1.1780 -0.3935  0.3265
  823MOL0     C 8508  10.056   3.595   6.752 -0.8959  0.3926  0.1608
  823MOL0     C 8509  10.145   3.483   6.768 -0.4649 -0.0283  0.0184
  823MOL0     C 8510  10.273   3.508   6.838  1.1339  0.2854  0.4810
  823MOL0     C 8511  10.306   3.637   6.880 -0.2260  0.6613 -0.0976
  823MOL0     O 8512  10.431   3.674   6.924 -0.9045  0.1933 -0.7479
  823MOL0     C 8513  10.536   3.655   6.832 -0.8283  0.2101  0.7174
  823MOL0     C 8514  10.667   3.638   6.916 -0.2953  0.2959  0.1453
  823MOL0     C 8515  10.792   3.624   6.822  0.6208  0.2839  0.2347
  823MOL0     C 8516  10.914   3.591   6.911 -0.7267 -0.5702  0.2759
  823MOL0     C 8517  11.027   3.513   6.847  0.4374 -0.3052 -0.4246
  823MOL0     C 8518  11.086   3.600   6.727  0.0060 -0.7943  0.5867
  823MOL0     C 8519  11.153   3.728   6.791  0.4498  0.0561  0.4932
  823MOL0     C 8520  11.227   3.810   6.682  0.1009 -0.1629 -0.2655
  823MOL0     N 8521  11.153   3.848   6.564 -0.0902 -0.1212  0.5307
  823MOL0     C 8522  11.044   3.933   6.563  0.1545 -0.5931 -0.7347
  823MOL0     C 8523  11.036   3.981   6.433  0.2320  0.4435  0.1239
  823MOL0     C 8524  10.939   4.076   6.378  0.7429 -0.2731 -0.4537
  823MOL0     C 8525  10.797   4.064   6.443  0.1805  0.4684 -0.0475
  823MOL0     C 8526  10.714   4.190   6.405 -0.8538  0.3630  0.1158
  823MOL0     C 8527  10.582   4.195   6.489 -0.0353  0.1150 -0.0309
  823MOL0     O 8528  10.506   4.309   6.458 -0.0531  0.1387 -0.0891
  823MOL0     C 8529  10.379   4.316   6.508  0.4509  1.1346 -0.2239
  823MOL0     C 8530  10.286   4.358   6.407  0.7088  0.7013 -0.5086
  823MOL0     C 8531  10.161   4.395   6.435  0.7054  0.2148  0.5538
  823MOL0     C 8532  10.118   4.380   6.568  0.0452 -0.3471  0.0968
  823MOL0     C 8533   9.972   4.411   6.609 -0.1496  0.4119  0.5434
  823MOL0     O 8534   9.885   4.422   6.507 -0.1974 -0.2145  0.1111
  823MOL0     C 8535   9.750   4.424   6.522 -0.9529  0.5257 -0.4372
  823MOL0     C 8536   9.668   4.492   6.428 -1.3900  0.4890 -0.7055
  823MOL0     C 8537   9.532   4.506   6.452  0.4486  0.7938 -0.1136
  823MOL0     C 8538   9.465   4.434   6.553 -0.6871 -0.3748 -0.5060
  823MOL0     O 8539   9.330   4.432   6.582 -0.3867  0.4835 -0.7521
  823MOL0     C 8540   9.235   4.487   6.490 -0.3379  0.1089 -0.5688
  823MOL0     C 8541   9.092   4.469   6.551 -0.1272  0.2828  0.8079
  823MOL0     C 8542   9.007   4.363   6.475 -0.5651  0.3875  0.0437
  823MOL0     C 8543   8.858   4.364   6.514  0.2756 -0.9321  0.4043
  823MOL0     C 8544   8.777   4.254   6.442 -0.0105  0.4393 -1.0475
  823MOL0     C 8545   8.655   4.211   6.528 -0.0348  1.0841 -0.2482
  823MOL0     C 8546   8.566   4.096   6.464  0.2960 -0.3902  0.5600
  823MOL0     C 8547   8.653   3.969   6.464 -0.3480  0.1317  0.0817
  823MOL0    Cl 8548   8.545   3.833   6.418  0.2960  0.2348  0.1086
  823MOL0     C 8549   9.544   4.352   6.634 -0.4540  0.1463  0.1686
  823MOL0     C 8550   9.683   4.352   6.614  0.4122 -1.1083 -0.2071
  823MOL0     O 8551   9.945   4.410   6.727 -0.5609 -0.7250  0.5427
  823MOL0     C 8552  10.209   4.339   6.670  0.0657 -0.7732  0.4994
  823MOL0     C 8553  10.338   4.303   6.636  0.8493  0.7968 -0.7814
  823MOL0     N 8554  11.134   3.921   6.361  0.7718 -0.3267 -0.2738
  823MOL0     N 8555  11.198   3.836   6.432 -0.2060 -0.1086  0.6961
  823MOL0     C 8556  10.220   3.744   6.867  0.6377  0.7324  0.0187
  823MOL0     C 8557  10.091   3.721   6.807 -0.1749  0.0790 -0.3549
  823MOL0     C 8558   9.744   3.491   6.578  0.2045 -0.3773  0.0188
  823MOL0     C 8559   9.677   3.380   6.514  0.2204  0.4541  0.3800
  823MOL0     C 8560   9.536   3.380   6.491  0.3503 -0.0348  0.0780
  823MOL0     C 8561   9.452   3.484   6.542 -0.1010 -1.1982  0.1917
  823MOL0     O 8562   9.319   3.497   6.516 -0.3044  0.7276 -0.4890
  823MOL0     C 8563   9.242   3.537   6.640  0.5396 -0.4037  0.4064
  823MOL0     C 8564   9.110   3.464   6.629  0.3454  0.6665 -0.0323
  823MOL0     C 8565   9.039   3.517   6.503  0.0942  0.2685  0.2714
  823MOL0     C 8566   8.890   3.469   6.505  1.6269  0.4619  0.9715
  823MOL0     C 8567   8.811   3.533   6.395  0.7439 -0.5255  0.4831
  823MOL0     C 8568   8.762   3.595   6.304  0.4271 -0.4403  0.1908
  823MOL0     C 8569   9.520   3.591   6.598 -0.7116  0.0901 -0.8094
  823MOL0     C 8570   9.661   3.598   6.619  0.2403 -0.0337  0.4639
  823MOL0     H 8571  10.134   3.384   6.725 -1.5469  0.9256 -2.0336
  823MOL0     H 8572  10.346   3.428   6.834  1.3280  0.4952 -0.6317
  823MOL0     H 8573  10.541   3.739   6.763 -0.8491 -0.5447 -0.2238
  823MOL0     H 8574  10.527   3.560   6.778 -3.7555  0.4417  0.6111
  823MOL0     H 8575  10.661   3.543   6.970  1.8136  0.1660  0.2568
  823MOL0     H 8576  10.678   3.720   6.987  0.4721  0.9683 -0.7109
  823MOL0     H 8577  10.804   3.716   6.764 -3.6541  1.1229  0.2877
  823MOL0     H 8578  10.767   3.537   6.760  0.4248  1.0093 -0.7409
  823MOL0     H 8579  10.956   3.675   6.967  1.4303 -0.3957 -1.4718
  823MOL0     H 8580  10.864   3.533   6.988 -1.5447 -1.6544 -1.0246
  823MOL0     H 8581  10.997   3.415   6.812 -0.2748 -0.3400  0.2622
  823MOL0     H 8582  11.097   3.497   6.930  0.3119 -3.8378 -0.8781
  823MOL0     H 8583  11.003   3.640   6.668 -0.6004  1.7500  2.9330
  823MOL0     H 8584  11.149   3.535   6.666  1.3658  1.7006 -0.8442
  823MOL0     H 8585  11.073   3.783   6.842 -0.6119 -1.3786  0.4194
  823MOL0     H 8586  11.226   3.688   6.862 -0.8082 -0.0118  1.8001
  823MOL0     H 8587  11.311   3.751   6.643 -3.0737 -3.5082 -2.6579
  823MOL0     H 8588  11.260   3.902   6.732  0.0871 -0.7997  0.9336
  823MOL0     H 8589  10.985   3.956   6.651  2.2834 -1.6991  1.1042
  823MOL0     H 8590  10.913   4.060   6.273  1.6542  1.6744 -1.0103
  823MOL0     H 8591  10.981   4.175   6.393  0.6306 -0.4043  0.8785
  823MOL0     H 8592  10.813   4.081   6.550 -0.9653  2.1456 -0.0881
  823MOL0     H 8593  10.740   3.974   6.418 -1.1801  1.5297 -0.9234
  823MOL0     H 8594  10.779   4.275   6.431 -0.6757 -0.3873  2.3314
  823MOL0     H 8595  10.688   4.200   6.299 -1.7758  0.6643  0.3598
  823MOL0     H 8596  10.614   4.205   6.594 -1.1418  1.2263  0.2246
  823MOL0     H 8597  10.523   4.103   6.483 -0.2424  0.3420 -2.3746
  823MOL0     H 8598  10.331   4.363   6.309 -0.5777 -0.9529 -1.2283
  823MOL0     H 8599  10.094   4.429   6.356 -0.4664 -1.8757  0.5646
  823MOL0     H 8600   9.705   4.534   6.336 -1.9793 -2.3594 -2.3656
  823MOL0     H 8601   9.468   4.560   6.384  0.0549 -0.3877 -0.7059
  823MOL0     H 8602   9.239   4.433   6.395 -1.1076  0.8284 -1.0252
  823MOL0     H 8603   9.251   4.594   6.477  1.0079 -0.0692 -0.4903
  823MOL0     H 8604   9.048   4.569   6.548  0.1747  0.4436  1.4754
  823MOL0     H 8605   9.104   4.452   6.658 -0.3877  3.2182  1.3737
  823MOL0     H 8606   9.044   4.262   6.493 -2.9743 -0.8433 -1.4225
  823MOL0     H 8607   9.019   4.385   6.369  0.3943 -1.4470 -0.2755
  823MOL0     H 8608   8.864   4.342   6.621  0.7197 -1.0052  0.3685
  823MOL0     H 8609   8.803   4.458   6.506  1.1114 -0.3978  0.7681
  823MOL0     H 8610   8.847   4.172   6.422  0.4584  0.8749 -1.1971
  823MOL0     H 8611   8.732   4.292   6.350 -1.2298  2.5544  0.3429
  823MOL0     H 8612   8.587   4.296   6.533 -2.3780 -0.7259  0.8985
  823MOL0     H 8613   8.691   4.183   6.628 -0.4617  1.7092  0.0867
  823MOL0     H 8614   8.477   4.083   6.526 -0.0134  0.4086  0.3022
  823MOL0     H 8615   8.539   4.112   6.359 -1.8427 -0.9701  0.9856
  823MOL0     H 8616   8.691   3.946   6.564 -0.5180 -0.4156  0.0280
  823MOL0     H 8617   8.740   3.980   6.399 -0.3431  0.5711  0.1658
  823MOL0     H 8618   9.498   4.284   6.704 -0.3894 -1.2712 -1.1159
  823MOL0     H 8619   9.740   4.277   6.668 -0.1710 -0.9672  0.6336
  823MOL0     H 8620  10.171   4.331   6.771 -1.0302 -1.9154  0.0266
  823MOL0     H 8621  10.404   4.267   6.714  0.4429 -0.2738 -0.9268
  823MOL0     H 8622  10.249   3.845   6.895 -1.1567  1.6273 -1.2397
  823MOL0     H 8623  10.021   3.802   6.793 -0.1779 -0.3081 -3.0539
  823MOL0     H 8624   9.733   3.290   6.490 -1.7654 -0.8667  0.5007
  823MOL0     H 8625   9.483   3.297   6.446  0.5154 -0.7983  1.2414
  823MOL0     H 8626   9.229   3.645   6.639  1.4186 -0.2553 -2.0579
  823MOL0     H 8627   9.292   3.515   6.735 -1.5473  3.1036  2.5074
  823MOL0     H 8628   9.130   3.357   6.618  2.0785  0.8774  0.8070
  823MOL0     H 8629   9.042   3.480   6.713  1.6678  0.8065  1.0547
  823MOL0     H 8630   9.090   3.463   6.423 -0.3988 -2.5982  1.7628
  823MOL0     H 8631   9.048   3.626   6.500  0.5166  0.2806  1.4757
  823MOL0     H 8632   8.890   3.360   6.495  2.6074  0.3426  2.1337
  823MOL0     H 8633   8.840   3.483   6.601 -0.8323 -1.6617  0.1092
  823MOL0     H 8634   8.723   3.663   6.231 -0.1171 -0.7632  0.1831
  823MOL0     H 8635   9.472   3.680   6.637  2.2198  1.6094 -0.3625
  823MOL0     H 8636   9.699   3.689   6.663  2.4390 -0.9384  0.5406
  824MOL0     O 8637   5.724   2.161   9.970 -0.0246 -0.9013  0.5483
  824MOL0     C 8638   5.701   2.235  10.063 -0.1246 -0.0557  0.1752
  824MOL0     O 8639   5.572   2.292  10.091  0.4738  1.1965  0.3553
  824MOL0     C 8640   5.457   2.284  10.018 -0.6412 -0.3949  0.1707
  824MOL0     C 8641   5.354   2.381  10.056  1.0996  0.6130 -0.7043
  824MOL0     C 8642   5.224   2.388   9.989 -0.0160 -0.4430 -0.2695
  824MOL0     C 8643   5.192   2.283   9.901 -0.7881 -0.5147 -0.1124
  824MOL0     O 8644   5.066   2.286   9.864 -0.2803  0.8096 -0.3748
  824MOL0     C 8645   4.991   2.174   9.915  0.1508  0.6216 -0.7420
  824MOL0     C 8646   4.849   2.212   9.879  0.2223 -0.2410 -0.4951
  824MOL0     C 8647   4.779   2.264  10.002  0.2630  0.1643  0.0126
  824MOL0     C 8648   4.650   2.325   9.959 -0.4981 -0.3189 -0.5532
  824MOL0     C 8649   4.569   2.393  10.075  1.5681 -0.2135 -0.3737
  824MOL0     C 8650   4.460   2.490  10.007  1.0619  0.0951 -0.0110
  824MOL0     C 8651   4.358   2.559  10.099 -0.7327 -0.5270  0.2863
  824MOL0     C 8652   4.288   2.465  10.186 -0.5870  0.1484 -0.9919
  824MOL0     N 8653   4.173   2.534  10.255 -0.2780  0.2299 -0.1047
  824MOL0     C 8654   4.059   2.465  10.289 -0.6592 -0.7772 -0.3580
  824MOL0     C 8655   3.990   2.543  10.382 -0.0645  0.5485  0.6806
  824MOL0     C 8656   3.874   2.499  10.455  0.0268 -0.0374  0.0643
  824MOL0     C 8657   3.902   2.390  10.559 -0.8047  0.6264 -0.2890
  824MOL0     C 8658   3.803   2.372  10.671  0.3109 -0.2270 -0.6717
  824MOL0     C 8659   3.662   2.344  10.616 -0.7669 -0.7450 -0.1253
  824MOL0     O 8660   3.610   2.473  10.582 -0.5489  0.4149  0.3969
  824MOL0     C 8661   3.488   2.478  10.513 -1.1267  0.2452  0.1699
  824MOL0     C 8662   3.386   2.383  10.530 -1.0071  0.9146  0.0785
  824MOL0     C 8663   3.256   2.397  10.475  0.0884  0.0018  0.3228
  824MOL0     C 8664   3.219   2.515  10.398 -0.5603  0.8609 -1.0907
  824MOL0     C 8665   3.089   2.530  10.331 -0.0756 -0.4387 -0.8362
  824MOL0     O 8666   3.009   2.416  10.330 -0.3304 -1.3202 -0.3747
  824MOL0     C 8667   2.877   2.417  10.278  0.8097 -0.6225 -0.4049
  824MOL0     C 8668   2.821   2.299  10.248  0.6897  0.1728 -0.0616
  824MOL0     C 8669   2.689   2.288  10.206  0.0128  0.0755  0.1365
  824MOL0     C 8670   2.600   2.392  10.180 -0.3598 -0.3652  0.0133
  824MOL0     O 8671   2.480   2.359  10.119 -0.2104 -0.7240 -0.1073
  824MOL0     C 8672   2.409   2.478  10.063  0.3185  0.9215  0.8452
  824MOL0     C 8673   2.294   2.426   9.984  0.2674 -1.1964 -0.9433
  824MOL0     C 8674   2.213   2.540   9.921  0.0234 -0.0308 -0.2613
  824MOL0     C 8675   2.085   2.496   9.855 -0.1401  0.0929 -0.0156
  824MOL0     C 8676   2.032   2.598   9.750 -0.1594  0.1769  0.2367
  824MOL0     C 8677   2.044   2.748   9.783 -0.8610  0.1876 -1.0671
  824MOL0     C 8678   2.027   2.828   9.650  0.3263 -0.5107  0.7844
  824MOL0     C 8679   2.070   2.977   9.652 -0.3324 -0.0522  0.4951
  824MOL0    Cl 8680   2.249   2.993   9.679  0.1514  0.0933 -0.7483
  824MOL0     C 8681   2.662   2.517  10.200  0.4214 -1.1736  0.6464
  824MOL0     C 8682   2.791   2.528  10.261  0.6945 -1.4003  0.7463
  824MOL0     O 8683   3.070   2.639  10.272  0.2702 -0.1338  0.2994
  824MOL0     C 8684   3.321   2.609  10.386 -0.4093  0.8305 -0.1316
  824MOL0     C 8685   3.452   2.594  10.442  0.7382 -0.1336 -0.6646
  824MOL0     N 8686   4.077   2.657  10.400  0.1296  1.0801 -0.3999
  824MOL0     N 8687   4.181   2.654  10.321  0.3219 -0.6278 -0.5200
  824MOL0     C 8688   5.287   2.180   9.872 -0.1865  0.3324 -0.2169
  824MOL0     C 8689   5.413   2.185   9.933 -0.7109  0.0732  0.3963
  824MOL0     C 8690   5.813   2.267  10.168 -0.1219  0.6855  0.3452
  824MOL0     C 8691   5.793   2.345  10.280  0.6119  0.5012  0.3850
  824MOL0     C 8692   5.899   2.361  10.370  0.0307  0.1331 -0.6705
  824MOL0     C 8693   6.025   2.310  10.345  0.4134 -0.2267  0.1939
  824MOL0     O 8694   6.117   2.344  10.445 -0.6101 -0.0505  0.4087
  824MOL0     C 8695   6.225   2.250  10.448  0.2318 -0.2645 -0.2502
  824MOL0     C 8696   6.320   2.271  10.564 -0.0148  0.5665 -0.1527
  824MOL0     C 8697   6.395   2.404  10.557  0.3449 -0.4881  0.2328
  824MOL0     C 8698   6.503   2.402  10.454 -0.5095  0.2948  0.4858
  824MOL0     C 8699   6.599   2.513  10.476 -0.2600  1.0284 -0.5510
  824MOL0     C 8700   6.663   2.610  10.500 -0.3935  0.3463  0.1549
  824MOL0     C 8701   6.038   2.215  10.244 -0.4305  0.4213  0.0512
  824MOL0     C 8702   5.933   2.192  10.154 -0.1279  0.2983 -0.2601
  824MOL0     H 8703   5.397   2.453  10.125  1.6014  0.6572 -1.0533
  824MOL0     H 8704   5.148   2.461  10.016 -0.7516 -1.2177 -0.1785
  824MOL0     H 8705   5.014   2.148  10.019 -0.5260 -1.8822 -1.1637
  824MOL0     H 8706   5.003   2.088   9.849 -0.1183 -1.5859  1.9284
  824MOL0     H 8707   4.784   2.130   9.850 -0.0982  0.4233 -1.7013
  824MOL0     H 8708   4.841   2.281   9.794  0.5396 -0.1376 -0.4448
  824MOL0     H 8709   4.845   2.340  10.044  1.3328  0.2323 -1.7170
  824MOL0     H 8710   4.772   2.180  10.072 -3.1751 -1.3385 -1.8892
  824MOL0     H 8711   4.666   2.406   9.888 -2.3658  0.2307 -0.3932
  824MOL0     H 8712   4.591   2.256   9.898 -1.1235 -0.0252 -0.2837
  824MOL0     H 8713   4.635   2.448  10.144 -0.4316 -0.3829  1.7883
  824MOL0     H 8714   4.525   2.314  10.136  1.0561  2.1958  2.5974
  824MOL0     H 8715   4.399   2.416   9.954 -2.2855  2.9196 -0.4442
  824MOL0     H 8716   4.509   2.570   9.950  1.1880  1.5405  2.0375
  824MOL0     H 8717   4.416   2.629  10.160  1.4275 -0.3644 -1.8213
  824MOL0     H 8718   4.283   2.606  10.034 -1.7811 -0.3711  1.5637
  824MOL0     H 8719   4.352   2.418  10.261 -2.4960 -0.6138  0.2369
  824MOL0     H 8720   4.251   2.379  10.131 -0.6278 -2.6890  3.0536
  824MOL0     H 8721   4.035   2.370  10.242  0.1134 -1.0653 -0.1811
  824MOL0     H 8722   3.798   2.465  10.384  0.0718 -2.7905  1.2048
  824MOL0     H 8723   3.828   2.583  10.508  1.2117  0.9395 -0.4214
  824MOL0     H 8724   4.001   2.396  10.605 -0.3943 -0.8369 -0.9162
  824MOL0     H 8725   3.903   2.295  10.505 -2.9374 -0.0521  0.7428
  824MOL0     H 8726   3.826   2.295  10.745 -0.3127  2.1636  2.2184
  824MOL0     H 8727   3.799   2.461  10.735 -0.9468 -2.9884  3.4913
  824MOL0     H 8728   3.590   2.311  10.691 -1.7299  2.4850  0.5155
  824MOL0     H 8729   3.665   2.279  10.528  2.7727 -2.9261  1.3649
  824MOL0     H 8730   3.408   2.294  10.587 -1.0798 -0.0871 -1.4049
  824MOL0     H 8731   3.185   2.318  10.497  1.8105 -1.7471 -0.0935
  824MOL0     H 8732   2.882   2.210  10.257 -1.3767 -1.4235 -1.0653
  824MOL0     H 8733   2.674   2.181  10.192 -1.5929  0.4311 -1.1804
  824MOL0     H 8734   2.476   2.535   9.997  2.0767  0.3822  2.0806
  824MOL0     H 8735   2.378   2.546  10.142 -0.0293  1.0139  0.6298
  824MOL0     H 8736   2.226   2.376  10.054  0.4897  0.1576  0.2832
  824MOL0     H 8737   2.339   2.361   9.908  2.2923 -2.4001  1.1570
  824MOL0     H 8738   2.271   2.589   9.842 -3.9396 -0.1889 -3.5986
  824MOL0     H 8739   2.195   2.623   9.990  0.6192  2.0486 -2.4665
  824MOL0     H 8740   2.099   2.401   9.804  3.3637  0.4837 -0.0570
  824MOL0     H 8741   2.007   2.486   9.931 -1.3103  1.9953 -0.8866
  824MOL0     H 8742   1.931   2.577   9.713  1.6120 -3.3472 -3.3907
  824MOL0     H 8743   2.090   2.586   9.658  1.1095  0.2319  1.0074
  824MOL0     H 8744   2.139   2.779   9.826 -0.5710 -1.3758 -0.5039
  824MOL0     H 8745   1.964   2.773   9.854  1.8352  2.7614  1.3356
  824MOL0     H 8746   2.074   2.778   9.565 -0.2101  1.0187 -0.4711
  824MOL0     H 8747   1.921   2.825   9.623  0.2214 -0.0197  1.1191
  824MOL0     H 8748   2.012   3.025   9.731  0.1878  1.5440 -0.0440
  824MOL0     H 8749   2.039   3.027   9.560 -2.4235  0.2829  1.3426
  824MOL0     H 8750   2.611   2.612  10.188  0.6735 -1.2724 -1.5686
  824MOL0     H 8751   2.820   2.625  10.300 -0.6392 -0.9774  0.7292
  824MOL0     H 8752   3.297   2.688  10.315  1.2652  1.8715  0.3790
  824MOL0     H 8753   3.530   2.668  10.431 -0.4346  1.0729 -1.1349
  824MOL0     H 8754   5.256   2.087   9.825  0.3832 -0.9050  1.7160
  824MOL0     H 8755   5.472   2.100   9.900 -1.2110  0.5970 -2.0361
  824MOL0     H 8756   5.697   2.396  10.286 -0.2138 -0.6288 -2.0002
  824MOL0     H 8757   5.887   2.422  10.459  0.3878  1.3749 -1.4416
  824MOL0     H 8758   6.281   2.274  10.357  0.5893  0.2224  0.0886
  824MOL0     H 8759   6.183   2.150  10.437 -4.5528  1.4715  0.1504
  824MOL0     H 8760   6.272   2.265  10.662 -1.8105  4.1892 -0.6529
  824MOL0     H 8761   6.392   2.189  10.559 -0.3870  0.1700  0.8313
  824MOL0     H 8762   6.443   2.440  10.649  2.6291 -1.0605 -0.6883
  824MOL0     H 8763   6.321   2.483  10.540 -1.0316 -0.9516  3.3997
  824MOL0     H 8764   6.556   2.307  10.459 -0.1778  0.4981  0.9022
  824MOL0     H 8765   6.467   2.419  10.352 -0.0832  2.5926  0.6601
  824MOL0     H 8766   6.717   2.697  10.531  0.4391 -0.0439 -0.1966
  824MOL0     H 8767   6.129   2.162  10.217 -1.5344 -0.1088 -3.0479
  824MOL0     H 8768   5.958   2.134  10.066 -1.5408  1.6486 -1.5902
  825MOL0     O 8769   6.555   1.427   2.499 -0.4742  0.0653  0.4117
  825MOL0     C 8770   6.652   1.465   2.433 -0.3639 -0.9167  0.0646
  825MOL0     O 8771   6.636   1.529   2.312  0.6228  0.2375 -0.0125
  825MOL0     C 8772   6.516   1.559   2.256 -0.4483  0.2283  0.5212
  825MOL0     C 8773   6.436   1.467   2.189  0.4836  0.6938 -0.3509
  825MOL0     C 8774   6.306   1.491   2.142  0.6579 -0.3551  0.1752
  825MOL0     C 8775   6.251   1.613   2.165  0.3011  0.2169 -0.5306
  825MOL0     O 8776   6.128   1.660   2.119 -0.1240 -0.1843 -0.0863
  825MOL0     C 8777   6.049   1.585   2.023 -0.3830 -1.0499  0.1140
  825MOL0     C 8778   5.924   1.663   1.996  0.2898  0.3900  0.8989
  825MOL0     C 8779   5.862   1.606   1.867 -0.6557 -0.1236 -0.0299
  825MOL0     C 8780   5.738   1.679   1.823 -0.9675  0.6706 -0.3999
  825MOL0     C 8781   5.698   1.651   1.677  0.0628 -1.2431 -0.8748
  825MOL0     C 8782   5.603   1.760   1.642  0.2596  0.3569 -0.0282
  825MOL0     C 8783   5.570   1.732   1.496  0.4185  0.0663 -0.0846
  825MOL0     C 8784   5.479   1.837   1.436 -0.6175 -0.8627  0.8929
  825MOL0     N 8785   5.449   1.814   1.299 -0.4040 -0.9290  0.0253
  825MOL0     C 8786   5.323   1.772   1.260  0.8423  0.8343  0.6468
  825MOL0     C 8787   5.337   1.738   1.122  0.2050  0.0517  0.3220
  825MOL0     C 8788   5.221   1.691   1.030 -0.4885  0.1279 -0.1065
  825MOL0     C 8789   5.172   1.805   0.941 -0.3811 -0.9707  0.1019
  825MOL0     C 8790   5.071   1.899   1.008  0.0689 -0.1767 -0.8745
  825MOL0     C 8791   5.081   2.034   0.947  0.0766 -0.8410  0.3970
  825MOL0     O 8792   5.195   2.104   0.997 -0.2705  0.1944 -0.5060
  825MOL0     C 8793   5.175   2.235   0.998 -1.0684 -0.1645 -0.1737
  825MOL0     C 8794   5.121   2.304   0.885  0.1038 -0.8677 -0.1285
  825MOL0     C 8795   5.099   2.445   0.888  0.2782 -0.1869 -0.4803
  825MOL0     C 8796   5.125   2.516   1.008 -0.6256  0.6329 -0.9609
  825MOL0     C 8797   5.102   2.662   1.017 -0.3352  0.3096  0.5596
  825MOL0     O 8798   5.062   2.727   0.906 -0.1500  0.5792 -0.3906
  825MOL0     C 8799   5.013   2.854   0.918  0.9248  0.7327  0.0981
  825MOL0     C 8800   5.092   2.957   0.865  0.0144 -0.2413 -0.0973
  825MOL0     C 8801   5.026   3.087   0.858 -0.1403  0.7754  0.4959
  825MOL0     C 8802   4.889   3.102   0.895 -0.5270 -0.5637  0.4644
  825MOL0     O 8803   4.851   3.236   0.884 -0.2972 -0.6318  0.1179
  825MOL0     C 8804   4.704   3.258   0.850 -0.1915 -0.1690 -0.4272
  825MOL0     C 8805   4.611   3.265   0.969  0.7735  0.2420 -0.3694
  825MOL0     C 8806   4.479   3.319   0.937  0.1266  0.5518  0.0941
  825MOL0     C 8807   4.398   3.319   1.062  0.8731 -0.4111 -0.2286
  825MOL0     C 8808   4.262   3.395   1.052  0.0194 -0.7010 -0.0266
  825MOL0     C 8809   4.184   3.394   1.178  0.2993  0.0980  0.2218
  825MOL0     C 8810   4.058   3.493   1.172  1.3942 -0.1805  0.2577
  825MOL0     C 8811   4.087   3.650   1.200  0.0278  0.2316  0.1254
  825MOL0    Cl 8812   3.932   3.726   1.272 -0.2719  0.2066  0.2193
  825MOL0     C 8813   4.820   2.989   0.945  0.0983  0.1083  0.8241
  825MOL0     C 8814   4.877   2.870   0.949 -0.1874  0.5006 -0.2408
  825MOL0     O 8815   5.124   2.714   1.127  0.1330 -1.2180  0.1812
  825MOL0     C 8816   5.175   2.445   1.117 -0.9863 -0.2076 -1.0706
  825MOL0     C 8817   5.210   2.307   1.115  0.1006 -0.1070 -0.8481
  825MOL0     N 8818   5.463   1.757   1.091 -0.1784  0.1529  0.5068
  825MOL0     N 8819   5.534   1.797   1.187  0.1124 -0.7630 -0.7100
  825MOL0     C 8820   6.332   1.716   2.226 -1.0715 -0.3214 -0.4253
  825MOL0     C 8821   6.459   1.683   2.266 -0.1151  1.1847 -0.0648
  825MOL0     C 8822   6.791   1.440   2.496 -0.1133  0.3148  0.5900
  825MOL0     C 8823   6.798   1.412   2.632  0.8192 -0.5403 -0.1398
  825MOL0     C 8824   6.930   1.397   2.695  0.1186  0.6383  0.0922
  825MOL0     C 8825   7.054   1.414   2.622  0.5862 -0.0981  0.3868
  825MOL0     O 8826   7.175   1.406   2.679 -0.7755 -0.0105  0.2965
  825MOL0     C 8827   7.286   1.346   2.606 -0.6492  0.4147 -0.0227
  825MOL0     C 8828   7.393   1.302   2.707 -0.8317  0.2059 -0.4346
  825MOL0     C 8829   7.531   1.246   2.651 -0.1058  0.3889 -1.1464
  825MOL0     C 8830   7.634   1.356   2.676  0.0655 -0.3091 -0.7607
  825MOL0     C 8831   7.776   1.306   2.655  0.4798 -0.7524  0.5749
  825MOL0     C 8832   7.889   1.259   2.639  0.7327 -1.0324 -0.7804
  825MOL0     C 8833   7.043   1.426   2.481  0.4910  0.5373 -0.1954
  825MOL0     C 8834   6.906   1.443   2.420 -0.5078  0.1560 -0.0163
  825MOL0     H 8835   6.472   1.366   2.178  0.5112  0.3907  2.1359
  825MOL0     H 8836   6.268   1.410   2.080  0.2631  1.0655 -1.4944
  825MOL0     H 8837   6.028   1.483   2.054  1.6663 -1.6936 -0.4545
  825MOL0     H 8838   6.114   1.572   1.936  0.4607  0.2372  0.5145
  825MOL0     H 8839   5.938   1.771   1.981 -2.5926  0.6376 -0.9610
  825MOL0     H 8840   5.857   1.646   2.081 -0.4334  3.3015  1.0407
  825MOL0     H 8841   5.834   1.502   1.887 -0.4085 -0.3476 -0.8262
  825MOL0     H 8842   5.918   1.617   1.774 -3.5012  3.0671 -1.5880
  825MOL0     H 8843   5.658   1.642   1.887 -0.1274 -0.6181 -0.0657
  825MOL0     H 8844   5.772   1.781   1.844  1.9072  0.3850 -3.0065
  825MOL0     H 8845   5.656   1.552   1.659  1.3857 -2.2182  1.0346
  825MOL0     H 8846   5.788   1.658   1.615  1.2059  1.0592  0.8971
  825MOL0     H 8847   5.650   1.856   1.665  0.9266  0.6944 -2.5283
  825MOL0     H 8848   5.509   1.755   1.699 -1.1187  2.3442 -1.9636
  825MOL0     H 8849   5.661   1.727   1.435  0.8839 -2.9482  0.7405
  825MOL0     H 8850   5.518   1.636   1.486  1.9888 -0.7540 -0.7302
  825MOL0     H 8851   5.530   1.933   1.439 -2.1203  0.2507 -3.3602
  825MOL0     H 8852   5.391   1.842   1.500 -1.0589 -0.3342  0.2415
  825MOL0     H 8853   5.236   1.754   1.322  0.8653 -2.3107 -0.0603
  825MOL0     H 8854   5.140   1.637   1.079 -1.9773  1.0069 -1.5037
  825MOL0     H 8855   5.253   1.610   0.964 -2.6756 -1.4322  0.6084
  825MOL0     H 8856   5.125   1.762   0.852  1.3915 -1.8372 -0.4508
  825MOL0     H 8857   5.259   1.863   0.911 -0.8491 -0.6103 -0.5995
  825MOL0     H 8858   4.968   1.862   1.008  0.4460 -1.6967  3.0987
  825MOL0     H 8859   5.089   1.916   1.114 -0.5675  0.6980 -0.9004
  825MOL0     H 8860   4.991   2.093   0.967  0.2385  0.1541 -1.5348
  825MOL0     H 8861   5.078   2.015   0.839  1.6997 -2.3711  0.5820
  825MOL0     H 8862   5.110   2.258   0.787  4.5811  0.4798 -1.4924
  825MOL0     H 8863   5.061   2.484   0.794 -1.8314 -2.2025 -0.5559
  825MOL0     H 8864   5.194   2.937   0.833  0.3870 -0.1325  0.9939
  825MOL0     H 8865   5.080   3.169   0.812  4.3084 -2.1152 -0.0729
  825MOL0     H 8866   4.669   3.202   0.763 -1.2711 -0.1495 -0.0138
  825MOL0     H 8867   4.706   3.364   0.823  0.8520  0.0105  0.2784
  825MOL0     H 8868   4.658   3.332   1.042 -0.0700 -1.0588  1.4642
  825MOL0     H 8869   4.599   3.168   1.018 -1.2944 -0.2365 -1.6749
  825MOL0     H 8870   4.424   3.250   0.872 -2.7353 -0.7009  3.5183
  825MOL0     H 8871   4.486   3.419   0.892  1.1005  1.1074  1.4127
  825MOL0     H 8872   4.365   3.220   1.094 -2.0279  1.3262  2.7596
  825MOL0     H 8873   4.463   3.364   1.138  3.0727 -1.7923 -1.2035
  825MOL0     H 8874   4.211   3.345   0.969 -1.3508  2.4364 -1.2028
  825MOL0     H 8875   4.265   3.501   1.025 -0.3805 -0.5971  0.3269
  825MOL0     H 8876   4.244   3.413   1.267  0.7022 -1.6725  0.3558
  825MOL0     H 8877   4.152   3.290   1.186  2.4981 -0.4762  2.7744
  825MOL0     H 8878   3.992   3.488   1.085 -0.2123  2.7288  1.1498
  825MOL0     H 8879   3.995   3.455   1.253  0.2613 -1.4108 -1.1329
  825MOL0     H 8880   4.106   3.705   1.107 -3.2705  0.2310 -0.6794
  825MOL0     H 8881   4.171   3.661   1.270  1.0518 -0.7811 -0.8870
  825MOL0     H 8882   4.723   2.989   0.992  0.4709 -2.2613  1.6975
  825MOL0     H 8883   4.833   2.782   0.996 -1.9636 -0.2380 -3.0453
  825MOL0     H 8884   5.197   2.498   1.209  2.6371 -1.8261 -0.8306
  825MOL0     H 8885   5.251   2.254   1.200 -3.7567  0.4881  1.6126
  825MOL0     H 8886   6.290   1.815   2.236  0.0055  0.1395 -0.3531
  825MOL0     H 8887   6.516   1.767   2.304  0.3368  1.3219 -0.9990
  825MOL0     H 8888   6.702   1.397   2.682  0.6771 -2.1835 -0.8175
  825MOL0     H 8889   6.921   1.379   2.802 -4.7911  0.9260 -0.0200
  825MOL0     H 8890   7.327   1.415   2.532  0.4597  0.8868  0.9943
  825MOL0     H 8891   7.250   1.265   2.542 -3.7031 -1.5456  3.7769
  825MOL0     H 8892   7.413   1.381   2.780 -0.4478  1.3537 -1.7209
  825MOL0     H 8893   7.338   1.221   2.755 -1.1270  0.7337  0.1261
  825MOL0     H 8894   7.528   1.212   2.547  2.5492 -3.5278 -0.1179
  825MOL0     H 8895   7.563   1.165   2.717  2.1120  0.1510 -2.4229
  825MOL0     H 8896   7.630   1.442   2.609 -0.3731 -0.4208 -0.8801
  825MOL0     H 8897   7.624   1.398   2.777  2.3332 -1.8526  0.1850
  825MOL0     H 8898   7.981   1.206   2.624  0.8429 -0.2166 -3.5513
  825MOL0     H 8899   7.128   1.429   2.414  0.2185  0.1789 -0.5655
  825MOL0     H 8900   6.898   1.464   2.314  1.0037  0.8013 -0.0281
  826MOL0     O 8901   1.105   7.788  10.362 -0.5746 -0.8052  0.6325
  826MOL0     C 8902   1.073   7.904  10.361  0.2382 -0.4409 -0.3856
  826MOL0     O 8903   1.002   7.966  10.461  0.9820 -0.5290  0.4122
  826MOL0     C 8904   0.955   7.901  10.575 -1.3588 -0.4260 -0.3444
  826MOL0     C 8905   0.989   7.950  10.710 -0.5228 -0.2115  0.0405
  826MOL0     C 8906   0.928   7.888  10.819  0.5623  0.2976  0.4430
  826MOL0     C 8907   0.819   7.796  10.797 -0.4529 -0.0761 -0.1319
  826MOL0     O 8908   0.742   7.755  10.898 -0.4331  0.1297 -0.3858
  826MOL0     C 8909   0.613   7.819  10.905 -0.7856 -0.2982  0.2547
  826MOL0     C 8910   0.506   7.702  10.903  0.3068 -0.8238 -0.4744
  826MOL0     C 8911   0.375   7.741  10.988 -0.7889  0.0751  0.4069
  826MOL0     C 8912   0.267   7.633  10.978  0.4566  0.6871  0.3345
  826MOL0     C 8913   0.132   7.672  11.045 -1.0108 -0.1940 -0.4738
  826MOL0     C 8914   0.032   7.757  10.955 -1.3210 -0.7988  0.6913
  826MOL0     C 8915  -0.069   7.833  11.045 -0.2973 -0.7378  0.4385
  826MOL0     C 8916  -0.201   7.843  10.969  0.4401  0.4819  0.1010
  826MOL0     N 8917  -0.263   7.961  11.012  1.1993  0.1386 -0.1776
  826MOL0     C 8918  -0.313   7.978  11.134 -0.7923 -0.1439  0.2610
  826MOL0     C 8919  -0.392   8.088  11.122  0.7765 -0.4030  0.1134
  826MOL0     C 8920  -0.459   8.146  11.247 -0.4938 -0.2881  0.0795
  826MOL0     C 8921  -0.586   8.216  11.187  0.0163 -0.0617  0.3980
  826MOL0     C 8922  -0.666   8.271  11.306  0.6571  0.7602 -0.0327
  826MOL0     C 8923  -0.780   8.360  11.256 -0.5901 -0.5524 -0.4433
  826MOL0     O 8924  -0.716   8.487  11.219 -0.2069  0.4632  0.9770
  826MOL0     C 8925  -0.808   8.588  11.193 -0.0263  0.1506  0.0648
  826MOL0     C 8926  -0.777   8.707  11.259 -0.6635  0.0049  1.3229
  826MOL0     C 8927  -0.852   8.823  11.242 -0.3074  0.9555 -0.3553
  826MOL0     C 8928  -0.953   8.818  11.155  1.0099 -0.4565  0.1760
  826MOL0     C 8929  -1.035   8.942  11.145 -0.3014 -0.3201 -0.6389
  826MOL0     O 8930  -1.163   8.929  11.125  0.8014 -0.0960  0.7742
  826MOL0     C 8931  -1.239   9.032  11.069 -0.0564 -0.0496  0.1052
  826MOL0     C 8932  -1.185   9.144  10.998  0.1028  0.5231  1.0448
  826MOL0     C 8933  -1.277   9.235  10.952  0.1926  0.5540 -0.2099
  826MOL0     C 8934  -1.412   9.225  10.981  0.2009  0.0592 -0.5534
  826MOL0     O 8935  -1.489   9.338  10.946  0.5141 -0.4062 -0.6763
  826MOL0     C 8936  -1.635   9.339  10.981  0.4015 -0.6328 -0.1609
  826MOL0     C 8937  -1.690   9.480  10.944  0.3648 -0.5568 -0.0215
  826MOL0     C 8938  -1.628   9.573  11.047  0.7739 -1.7033 -0.6754
  826MOL0     C 8939  -1.730   9.690  11.056 -0.5612 -0.0265  0.5901
  826MOL0     C 8940  -1.672   9.799  11.148  0.1256  0.1217 -0.1763
  826MOL0     C 8941  -1.557   9.874  11.073 -0.0897  0.9124 -0.1785
  826MOL0     C 8942  -1.455   9.921  11.175  0.0506 -0.1809  0.1037
  826MOL0     C 8943  -1.371  10.038  11.113  0.4194 -0.4168 -0.0483
  826MOL0    Cl 8944  -1.279   9.991  10.955  0.0376 -0.0849 -0.0733
  826MOL0     C 8945  -1.462   9.119  11.050 -0.5185 -0.3293  0.6378
  826MOL0     C 8946  -1.374   9.021  11.091  0.0360 -0.5616  0.0404
  826MOL0     O 8947  -0.984   9.046  11.172 -0.4358 -0.6454  0.7793
  826MOL0     C 8948  -0.996   8.693  11.091 -0.4492 -1.0782 -0.0170
  826MOL0     C 8949  -0.920   8.586  11.112  0.1995 -0.5050  0.7084
  826MOL0     N 8950  -0.380   8.148  11.000  0.0712  0.2308  1.7082
  826MOL0     N 8951  -0.303   8.062  10.935  1.2266 -0.6641  0.0131
  826MOL0     C 8952   0.787   7.742  10.673  0.1698 -0.0230  0.3740
  826MOL0     C 8953   0.860   7.797  10.562 -0.3997 -0.1228  0.4479
  826MOL0     C 8954   1.127   7.997  10.268  0.1900  0.2086 -0.2788
  826MOL0     C 8955   1.203   7.951  10.160  0.5170  0.4291 -0.6813
  826MOL0     C 8956   1.274   8.035  10.075 -0.0277 -0.0512  1.0545
  826MOL0     C 8957   1.277   8.172  10.094  0.1978  0.3919 -0.1772
  826MOL0     O 8958   1.346   8.263  10.018 -0.4586  0.5236  0.6498
  826MOL0     C 8959   1.410   8.218   9.895  0.1191 -0.5788 -0.7940
  826MOL0     C 8960   1.428   8.340   9.819 -0.2998 -0.4900 -0.5604
  826MOL0     C 8961   1.306   8.391   9.737  0.3971  0.2009 -0.0374
  826MOL0     C 8962   1.271   8.310   9.610  0.0243  0.9250 -0.0106
  826MOL0     C 8963   1.134   8.332   9.566  0.0128 -0.2696  1.0320
  826MOL0     C 8964   1.021   8.367   9.534 -0.0410 -1.7864  1.0709
  826MOL0     C 8965   1.191   8.223  10.197  0.4812 -0.6068 -0.4553
  826MOL0     C 8966   1.123   8.139  10.289  1.2348  0.7393  0.0589
  826MOL0     H 8967   1.066   8.026  10.717  2.3337 -2.4537 -3.3660
  826MOL0     H 8968   0.933   7.935  10.917 -0.6709  0.8778  0.2622
  826MOL0     H 8969   0.603   7.888  10.821  1.9911  2.9570  2.3136
  826MOL0     H 8970   0.598   7.875  10.998 -2.4170 -1.8569  0.9900
  826MOL0     H 8971   0.545   7.610  10.947 -0.0242 -1.1445 -0.8505
  826MOL0     H 8972   0.474   7.683  10.800 -0.9202  0.2425 -0.3190
  826MOL0     H 8973   0.337   7.837  10.953 -1.5083 -1.4329 -3.4280
  826MOL0     H 8974   0.404   7.742  11.093 -1.1834  1.5258  0.5135
  826MOL0     H 8975   0.256   7.602  10.874 -0.1378 -0.0783  0.6152
  826MOL0     H 8976   0.311   7.553  11.038  0.5702  1.9557  2.0398
  826MOL0     H 8977   0.168   7.727  11.133  0.2348 -1.5389 -0.1029
  826MOL0     H 8978   0.082   7.582  11.082 -0.7593  0.0369  0.4491
  826MOL0     H 8979  -0.013   7.685  10.886 -1.1183 -1.0520  0.8201
  826MOL0     H 8980   0.092   7.826  10.896 -3.6069 -0.0762 -0.9301
  826MOL0     H 8981  -0.081   7.775  11.137  0.8456 -3.4787 -1.0264
  826MOL0     H 8982  -0.034   7.935  11.067  1.7400 -1.6246  1.5064
  826MOL0     H 8983  -0.258   7.750  10.977  1.5299 -0.2172  0.0779
  826MOL0     H 8984  -0.192   7.852  10.860 -0.9328  3.1836  0.1526
  826MOL0     H 8985  -0.305   7.911  11.219 -0.5659 -0.6940 -0.1796
  826MOL0     H 8986  -0.396   8.216  11.303  1.3730 -1.5980 -0.2807
  826MOL0     H 8987  -0.495   8.066  11.312 -0.3619 -1.3023 -1.0724
  826MOL0     H 8988  -0.633   8.150  11.115  0.6458  1.4205 -1.4402
  826MOL0     H 8989  -0.553   8.302  11.129  0.4122 -0.7728 -0.4549
  826MOL0     H 8990  -0.719   8.192  11.360 -0.9235  2.4515  1.0088
  826MOL0     H 8991  -0.605   8.316  11.385 -1.0949 -1.1801  2.6092
  826MOL0     H 8992  -0.856   8.383  11.331  1.9403  0.2419  2.0742
  826MOL0     H 8993  -0.823   8.315  11.166 -0.9327  1.1452 -1.1510
  826MOL0     H 8994  -0.688   8.720  11.319 -0.2325 -3.2467  1.6120
  826MOL0     H 8995  -0.828   8.913  11.298  0.7106  1.9788 -2.3312
  826MOL0     H 8996  -1.080   9.164  10.979 -0.3193  1.0545 -1.0007
  826MOL0     H 8997  -1.259   9.326  10.896  0.4244 -0.6357 -2.1537
  826MOL0     H 8998  -1.649   9.327  11.088 -0.0730  1.6303  0.0824
  826MOL0     H 8999  -1.684   9.267  10.914 -1.3525  0.8699 -0.5775
  826MOL0     H 9000  -1.799   9.484  10.949  0.3010  2.9325 -1.5366
  826MOL0     H 9001  -1.668   9.507  10.841 -1.6813  0.8199 -0.1389
  826MOL0     H 9002  -1.530   9.608  11.013  0.5209  2.5951  2.1984
  826MOL0     H 9003  -1.625   9.524  11.145 -2.8757 -0.5843  0.1840
  826MOL0     H 9004  -1.761   9.742  10.965 -3.0882 -0.8853  0.8760
  826MOL0     H 9005  -1.814   9.642  11.108  0.8822 -2.7213  0.6201
  826MOL0     H 9006  -1.640   9.742  11.236 -3.4417 -0.4045  0.9421
  826MOL0     H 9007  -1.751   9.872  11.165 -0.5630 -0.8744  1.0271
  826MOL0     H 9008  -1.606   9.958  11.023 -0.3325  0.7097 -0.2778
  826MOL0     H 9009  -1.504   9.816  10.997 -1.2437 -0.4944  0.0464
  826MOL0     H 9010  -1.505   9.949  11.268 -3.6411 -1.9072 -1.1731
  826MOL0     H 9011  -1.394   9.836  11.206 -1.4105 -1.0944  0.5813
  826MOL0     H 9012  -1.300  10.076  11.187  1.4418 -1.6511 -0.3508
  826MOL0     H 9013  -1.445  10.113  11.085  1.3366 -0.8890 -4.3751
  826MOL0     H 9014  -1.566   9.121  11.081 -0.1113  2.6202  2.1601
  826MOL0     H 9015  -1.402   8.929  11.141  2.1257 -0.2321  1.9939
  826MOL0     H 9016  -1.085   8.683  11.030 -0.4990 -1.7067  0.1516
  826MOL0     H 9017  -0.950   8.492  11.068 -2.4947  0.3389  0.5985
  826MOL0     H 9018   0.708   7.669  10.667  0.8536 -0.7864  0.5418
  826MOL0     H 9019   0.824   7.761  10.467  1.0269 -1.3114  0.3271
  826MOL0     H 9020   1.206   7.844  10.138  1.6926  0.3140 -0.0085
  826MOL0     H 9021   1.312   7.986   9.986 -1.8062  1.4651 -0.6465
  826MOL0     H 9022   1.356   8.139   9.841 -0.1052 -0.8604 -0.1701
  826MOL0     H 9023   1.503   8.169   9.926  0.1575  1.1997  2.2304
  826MOL0     H 9024   1.463   8.423   9.881 -1.1026 -2.3052  2.5538
  826MOL0     H 9025   1.510   8.311   9.753 -1.2376 -0.5600 -1.7484
  826MOL0     H 9026   1.313   8.498   9.714 -0.6756  0.7417  1.8982
  826MOL0     H 9027   1.223   8.392   9.808 -0.6998  1.3768 -1.2664
  826MOL0     H 9028   1.341   8.330   9.530  0.9409 -0.9548  0.2597
  826MOL0     H 9029   1.277   8.205   9.641  2.4857  1.0932  0.2615
  826MOL0     H 9030   0.926   8.405   9.504  0.8108 -0.8638 -0.6201
  826MOL0     H 9031   1.183   8.330  10.215 -2.7705 -0.3722 -2.4332
  826MOL0     H 9032   1.065   8.177  10.372  1.3112  0.8873  0.0441
  827MOL0     O 9033   9.926   0.517  10.867  0.8992  0.3757  0.1537
  827MOL0     C 9034   9.962   0.605  10.951  0.2979  0.1162  1.5621
  827MOL0     O 9035   9.920   0.607  11.072 -0.0844 -0.1921 -0.7746
  827MOL0     C 9036   9.799   0.549  11.107  0.0823  0.6919 -1.0558
  827MOL0     C 9037   9.676   0.567  11.041  0.1973  0.4550  0.0184
  827MOL0     C 9038   9.560   0.501  11.090 -0.5905  0.1457  0.4524
  827MOL0     C 9039   9.576   0.415  11.206 -0.4412  0.0839  0.4011
  827MOL0     O 9040   9.477   0.349  11.273 -0.8055  0.9224 -0.2867
  827MOL0     C 9041   9.362   0.331  11.189  0.8019 -0.6567 -0.0727
  827MOL0     C 9042   9.262   0.263  11.290  0.2174  0.9553 -0.2824
  827MOL0     C 9043   9.195   0.363  11.392 -0.3047 -0.5043  0.9347
  827MOL0     C 9044   9.071   0.311  11.463  0.2966 -0.6134  0.5629
  827MOL0     C 9045   9.014   0.416  11.563  0.9084 -0.4582  0.3615
  827MOL0     C 9046   8.910   0.354  11.647  0.0153  0.1180 -0.5576
  827MOL0     C 9047   8.839   0.443  11.742  1.1658 -0.5264 -0.2281
  827MOL0     C 9048   8.926   0.483  11.859  0.5671  0.4913 -0.1310
  827MOL0     N 9049   8.850   0.570  11.940 -0.4071 -1.0079  0.1609
  827MOL0     C 9050   8.764   0.525  12.037 -0.2420 -0.1816 -0.3451
  827MOL0     C 9051   8.700   0.634  12.081 -0.3994 -0.8182 -0.8288
  827MOL0     C 9052   8.595   0.650  12.186 -0.5816 -0.2622 -0.3028
  827MOL0     C 9053   8.466   0.714  12.130 -0.3672 -0.0669 -0.2600
  827MOL0     C 9054   8.366   0.758  12.237 -0.6841 -0.8872  0.2065
  827MOL0     C 9055   8.238   0.798  12.176 -0.3907  0.2045 -0.0783
  827MOL0     O 9056   8.154   0.844  12.286  0.0731  0.0372 -0.1188
  827MOL0     C 9057   8.040   0.905  12.242  0.0724  0.1904 -0.9484
  827MOL0     C 9058   8.066   1.031  12.197 -0.3091  0.2930  1.5196
  827MOL0     C 9059   7.955   1.106  12.149  0.6210 -0.7202  0.2268
  827MOL0     C 9060   7.826   1.063  12.141  0.9174  0.6141  1.1305
  827MOL0     C 9061   7.707   1.136  12.091 -0.0179 -1.0038  0.3049
  827MOL0     O 9062   7.587   1.099  12.144 -0.5412 -0.1577  0.2976
  827MOL0     C 9063   7.472   1.161  12.103  0.4289  1.0044  0.6283
  827MOL0     C 9064   7.463   1.297  12.128 -0.1745  0.3490 -0.2377
  827MOL0     C 9065   7.372   1.380  12.054 -0.1057  0.0785 -0.6781
  827MOL0     C 9066   7.274   1.322  11.975  0.4599  0.2302 -0.3049
  827MOL0     O 9067   7.193   1.406  11.905 -0.8052 -0.7166 -0.1217
  827MOL0     C 9068   7.086   1.353  11.835 -0.4158  0.2594 -0.6379
  827MOL0     C 9069   7.022   1.449  11.747 -0.2647  0.2880  0.4211
  827MOL0     C 9070   6.910   1.535  11.815  0.2764 -0.9942  0.8938
  827MOL0     C 9071   6.863   1.650  11.726  0.8181 -0.4718 -0.7254
  827MOL0     C 9072   6.760   1.748  11.776 -1.0351  0.7745 -0.8839
  827MOL0     C 9073   6.714   1.825  11.654 -0.7246 -0.0142  0.7470
  827MOL0     C 9074   6.596   1.919  11.685  0.2296 -0.0456  0.6469
  827MOL0     C 9075   6.560   2.025  11.576  0.0647 -0.3615 -0.1418
  827MOL0    Cl 9076   6.465   1.951  11.438 -0.2682 -0.8596 -0.5417
  827MOL0     C 9077   7.268   1.190  11.973 -0.3995  0.3808  0.1218
  827MOL0     C 9078   7.365   1.097  12.031 -0.1995  0.4664 -0.1101
  827MOL0     O 9079   7.722   1.219  11.998 -0.1985 -0.3864  0.2855
  827MOL0     C 9080   7.808   0.927  12.182 -0.2367  0.3308 -0.9915
  827MOL0     C 9081   7.918   0.855  12.242  0.6682 -0.4728 -0.7834
  827MOL0     N 9082   8.749   0.741  12.007 -1.0334 -0.3451  0.5192
  827MOL0     N 9083   8.830   0.701  11.915 -0.5818  0.5458 -0.3002
  827MOL0     C 9084   9.704   0.387  11.252 -0.3894  0.2963 -0.3300
  827MOL0     C 9085   9.817   0.450  11.204 -0.3219  0.0327  0.5110
  827MOL0     C 9086  10.082   0.688  10.912  0.2150 -0.3460 -0.3381
  827MOL0     C 9087  10.125   0.704  10.784 -0.1096  0.3836 -0.1007
  827MOL0     C 9088  10.228   0.790  10.745 -0.1451 -0.0702  1.1779
  827MOL0     C 9089  10.305   0.849  10.837 -0.0845  0.9470  0.4884
  827MOL0     O 9090  10.416   0.908  10.786  0.2468 -0.4678  0.4446
  827MOL0     C 9091  10.463   1.017  10.866 -0.4490 -0.6843 -0.0747
  827MOL0     C 9092  10.599   1.060  10.816 -0.5747  0.2739 -1.1126
  827MOL0     C 9093  10.713   0.966  10.870  0.1684  0.3503  0.4896
  827MOL0     C 9094  10.847   1.041  10.838 -0.0945 -0.9188 -0.3030
  827MOL0     C 9095  10.960   0.943  10.826 -0.3715 -0.6066  0.1757
  827MOL0     C 9096  11.046   0.862  10.800  0.1330  0.5280  0.0083
  827MOL0     C 9097  10.266   0.836  10.971  0.5370 -0.5072 -0.2978
  827MOL0     C 9098  10.153   0.754  11.009  0.4354 -0.1052  0.6318
  827MOL0     H 9099   9.674   0.637  10.957 -2.0303  1.2313  0.6682
  827MOL0     H 9100   9.469   0.534  11.042  1.1827  3.3915 -0.9720
  827MOL0     H 9101   9.390   0.272  11.101  0.4091 -1.0278  0.0494
  827MOL0     H 9102   9.323   0.424  11.148  3.4275  1.0318  0.9934
  827MOL0     H 9103   9.320   0.183  11.337 -1.0559 -1.6222 -2.7971
  827MOL0     H 9104   9.177   0.220  11.237 -1.6137  2.0457  1.5813
  827MOL0     H 9105   9.161   0.446  11.330  0.6298 -0.7031  0.1398
  827MOL0     H 9106   9.268   0.393  11.468  0.4859 -0.8960  0.3384
  827MOL0     H 9107   8.997   0.277  11.390  0.9015  0.7725 -0.7521
  827MOL0     H 9108   9.092   0.223  11.525 -0.7380 -0.5980  0.9486
  827MOL0     H 9109   8.963   0.493  11.505 -2.0118 -1.7305  1.0848
  827MOL0     H 9110   9.097   0.455  11.623 -0.1230  1.1193  0.8344
  827MOL0     H 9111   8.940   0.272  11.713  0.3257  0.3902 -0.3576
  827MOL0     H 9112   8.834   0.316  11.579  0.6929  3.5712 -3.5538
  827MOL0     H 9113   8.818   0.533  11.684  1.6518 -0.1469  0.1777
  827MOL0     H 9114   8.747   0.394  11.776  0.4995 -1.3958 -3.0442
  827MOL0     H 9115   9.015   0.530  11.817  1.8868  1.4412  3.3955
  827MOL0     H 9116   8.964   0.394  11.911  0.1948  0.8426  0.7672
  827MOL0     H 9117   8.740   0.436  12.095 -0.2994  2.1291  3.5428
  827MOL0     H 9118   8.637   0.711  12.267  1.7558 -3.2056  0.8817
  827MOL0     H 9119   8.584   0.554  12.238 -0.3069  1.1591  2.5917
  827MOL0     H 9120   8.420   0.638  12.067  0.5333  0.9724 -2.2425
  827MOL0     H 9121   8.494   0.804  12.075 -0.2948 -0.0743 -0.2367
  827MOL0     H 9122   8.352   0.665  12.291  0.9226 -1.9709 -1.1246
  827MOL0     H 9123   8.417   0.834  12.297 -1.1250 -1.0149  0.7510
  827MOL0     H 9124   8.189   0.710  12.134 -0.7440 -0.5847  1.9005
  827MOL0     H 9125   8.253   0.872  12.096  2.3660 -0.8745 -0.6780
  827MOL0     H 9126   8.171   1.061  12.198  0.4110 -1.9237  0.3391
  827MOL0     H 9127   7.973   1.210  12.127 -0.1822 -0.2958  1.4877
  827MOL0     H 9128   7.542   1.339  12.189  0.4930 -1.6915  0.4000
  827MOL0     H 9129   7.375   1.488  12.059 -3.3950  0.2662 -0.3190
  827MOL0     H 9130   7.017   1.303  11.904 -2.0906  1.6250 -1.2567
  827MOL0     H 9131   7.132   1.290  11.758 -0.7332  1.5780 -1.9519
  827MOL0     H 9132   6.980   1.402  11.658  3.3193  1.4058 -2.0869
  827MOL0     H 9133   7.098   1.518  11.708  0.4214 -1.1848 -0.9412
  827MOL0     H 9134   6.941   1.576  11.912 -1.3698 -0.6908  1.3245
  827MOL0     H 9135   6.818   1.479  11.829 -1.8767  2.5361  2.0410
  827MOL0     H 9136   6.947   1.701  11.677 -1.2218  2.1747 -1.7572
  827MOL0     H 9137   6.816   1.601  11.640 -0.0947  1.2104 -1.2284
  827MOL0     H 9138   6.802   1.806  11.858 -3.2755  0.1489  0.8338
  827MOL0     H 9139   6.673   1.697  11.820 -1.7115  2.4835 -0.1276
  827MOL0     H 9140   6.680   1.758  11.575  1.6173  1.9052 -2.1316
  827MOL0     H 9141   6.794   1.883  11.608  0.1480 -1.1724  0.7507
  827MOL0     H 9142   6.502   1.866  11.702  0.8567 -1.0196  1.1632
  827MOL0     H 9143   6.623   1.977  11.774  0.0649  0.5086  0.3426
  827MOL0     H 9144   6.653   2.072  11.541 -0.6174  1.7889  0.7970
  827MOL0     H 9145   6.499   2.102  11.622 -1.2016 -1.5036  0.1388
  827MOL0     H 9146   7.181   1.147  11.923  0.7156  0.3180 -1.8576
  827MOL0     H 9147   7.357   0.992  12.007  1.4768  0.0399  1.0096
  827MOL0     H 9148   7.712   0.877  12.180  0.4693 -1.0959 -0.4049
  827MOL0     H 9149   7.903   0.756  12.284  0.3552 -1.0970 -2.3009
  827MOL0     H 9150   9.703   0.313  11.331 -2.3974  0.8117  0.1984
  827MOL0     H 9151   9.919   0.435  11.240 -0.1141 -1.2937 -0.5527
  827MOL0     H 9152  10.077   0.644  10.708  1.3101 -1.1475  0.1507
  827MOL0     H 9153  10.251   0.800  10.640 -1.2260  0.1093  0.9411
  827MOL0     H 9154  10.470   0.988  10.971  0.1807 -0.6077 -0.0944
  827MOL0     H 9155  10.402   1.108  10.863 -0.0728 -0.3894  0.9006
  827MOL0     H 9156  10.607   1.065  10.707 -1.4989 -0.9396 -1.2655
  827MOL0     H 9157  10.611   1.161  10.857  0.4238 -0.4614  0.5281
  827MOL0     H 9158  10.710   0.876  10.809  0.5675  1.8540 -1.8650
  827MOL0     H 9159  10.697   0.935  10.974  2.4412  0.5799  0.9457
  827MOL0     H 9160  10.839   1.097  10.744  0.0572  0.8266  0.6986
  827MOL0     H 9161  10.881   1.107  10.918  0.6314 -2.4978  0.7550
  827MOL0     H 9162  11.103   0.772  10.793  0.4233  0.7901 -1.1612
  827MOL0     H 9163  10.329   0.875  11.050  3.0237  1.3010 -2.9797
  827MOL0     H 9164  10.124   0.737  11.112 -1.2463  3.2699  0.8465
  828MOL0     O 9165   0.283   4.223   8.478 -1.0618 -0.5509  0.6282
  828MOL0     C 9166   0.169   4.202   8.434 -0.3092 -0.8404  0.4086
  828MOL0     O 9167   0.123   4.257   8.319  0.5110 -0.1884  0.0807
  828MOL0     C 9168   0.203   4.325   8.231 -0.5392  0.3744 -1.1847
  828MOL0     C 9169   0.327   4.279   8.188 -0.2773  0.1207 -0.6643
  828MOL0     C 9170   0.408   4.352   8.095  0.0269 -0.8444  0.2407
  828MOL0     C 9171   0.360   4.474   8.045 -0.6059 -0.4775 -0.0998
  828MOL0     O 9172   0.424   4.560   7.959 -0.2808 -0.2904  0.3542
  828MOL0     C 9173   0.553   4.516   7.917 -0.2306  0.1091  0.4805
  828MOL0     C 9174   0.622   4.618   7.820 -0.0800 -0.7025  0.0834
  828MOL0     C 9175   0.530   4.629   7.696  0.3715  0.7743  0.1787
  828MOL0     C 9176   0.566   4.747   7.618 -1.3706 -0.4218 -0.7134
  828MOL0     C 9177   0.494   4.765   7.487 -0.5633  0.5458 -0.3445
  828MOL0     C 9178   0.500   4.905   7.422  0.7672  0.3918 -0.3837
  828MOL0     C 9179   0.460   4.916   7.272 -0.2083  0.3936  0.6469
  828MOL0     C 9180   0.308   4.918   7.252 -0.3465  0.2150 -0.4702
  828MOL0     N 9181   0.237   4.799   7.305  0.2293  0.5086 -0.3200
  828MOL0     C 9182   0.212   4.690   7.220 -1.4891  0.0269 -0.4282
  828MOL0     C 9183   0.120   4.620   7.299 -0.9396  0.0988 -0.0041
  828MOL0     C 9184   0.071   4.484   7.270 -0.6028  0.1610  0.2757
  828MOL0     C 9185   0.093   4.387   7.387  0.2503  0.3731  0.4051
  828MOL0     C 9186   0.230   4.385   7.454  1.0404  0.0595  0.0922
  828MOL0     C 9187   0.210   4.321   7.591 -0.3149 -0.6635  0.0368
  828MOL0     O 9188   0.141   4.197   7.576 -0.1775  0.6334  0.6213
  828MOL0     C 9189   0.069   4.153   7.689  0.2747  0.4182  0.7244
  828MOL0     C 9190   0.096   4.184   7.828 -0.5386  0.0597  0.2137
  828MOL0     C 9191   0.007   4.156   7.927  0.1483  0.8591 -0.1720
  828MOL0     C 9192  -0.116   4.083   7.904 -1.6499 -0.7207  0.9229
  828MOL0     C 9193  -0.204   4.060   8.016  0.0086 -0.6055  0.2957
  828MOL0     O 9194  -0.311   3.983   8.009 -0.1310  0.4016 -0.6208
  828MOL0     C 9195  -0.401   3.986   8.105  0.2638  0.8980 -0.1123
  828MOL0     C 9196  -0.385   3.938   8.239  0.0384  0.3991 -0.1757
  828MOL0     C 9197  -0.502   3.947   8.325  0.3851  0.2735 -0.3675
  828MOL0     C 9198  -0.616   4.022   8.291 -0.5190 -0.1036 -0.2244
  828MOL0     O 9199  -0.718   4.051   8.374 -0.3371  0.3608  0.6694
  828MOL0     C 9200  -0.754   3.958   8.474  0.5337  0.9684  0.3546
  828MOL0     C 9201  -0.909   3.959   8.499 -0.9375  0.5835  0.5017
  828MOL0     C 9202  -0.929   4.090   8.573  0.1468 -0.3740  0.1415
  828MOL0     C 9203  -1.077   4.114   8.600  0.2317  0.4737 -0.1289
  828MOL0     C 9204  -1.097   4.227   8.694  0.6183 -0.1367  0.1730
  828MOL0     C 9205  -1.250   4.261   8.691 -0.0769 -0.5033  0.3534
  828MOL0     C 9206  -1.288   4.356   8.803  0.3273 -0.2795  0.4112
  828MOL0     C 9207  -1.435   4.366   8.813 -0.6288 -0.3678  0.1029
  828MOL0    Cl 9208  -1.478   4.501   8.915 -0.0717 -0.2034 -0.6188
  828MOL0     C 9209  -0.616   4.083   8.163 -0.8333 -0.2524  0.2364
  828MOL0     C 9210  -0.511   4.062   8.075 -0.0412 -0.8586  0.1322
  828MOL0     O 9211  -0.179   4.122   8.123  0.4227  0.0617 -0.0874
  828MOL0     C 9212  -0.139   4.038   7.775 -0.5337 -0.6028 -0.9553
  828MOL0     C 9213  -0.047   4.076   7.674  0.5666  0.2556  0.7534
  828MOL0     N 9214   0.075   4.701   7.398 -0.0527  0.3656  0.1931
  828MOL0     N 9215   0.145   4.805   7.404 -0.4061  0.4252  0.8707
  828MOL0     C 9216   0.240   4.527   8.098 -0.3717  1.3409 -0.0839
  828MOL0     C 9217   0.162   4.453   8.189  0.2254 -0.5608  0.5537
  828MOL0     C 9218   0.071   4.121   8.519 -0.8888  1.0315 -0.6212
  828MOL0     C 9219  -0.056   4.080   8.466  0.2857  0.3229 -0.1781
  828MOL0     C 9220  -0.141   4.009   8.542  0.1936  0.2183 -0.0382
  828MOL0     C 9221  -0.096   3.947   8.662  0.3555  0.9480  0.0671
  828MOL0     O 9222  -0.186   3.868   8.731  0.7825  0.6579 -0.1950
  828MOL0     C 9223  -0.238   3.915   8.853 -0.1086 -0.4622 -0.4062
  828MOL0     C 9224  -0.361   4.002   8.821  1.0053 -0.0880  1.2197
  828MOL0     C 9225  -0.486   3.924   8.764  0.3254  0.4172  0.1303
  828MOL0     C 9226  -0.489   3.767   8.793 -0.5778 -0.6194 -0.0618
  828MOL0     C 9227  -0.613   3.716   8.742 -0.6667  0.7020 -0.9939
  828MOL0     C 9228  -0.719   3.679   8.706 -0.1663  0.6247  0.5853
  828MOL0     C 9229   0.027   3.970   8.710  0.8053  0.7123  0.3561
  828MOL0     C 9230   0.112   4.055   8.644  0.5878 -0.1246  0.2232
  828MOL0     H 9231   0.360   4.180   8.219  2.4570  0.7438 -1.3839
  828MOL0     H 9232   0.497   4.309   8.051 -0.9577 -0.2769 -2.5082
  828MOL0     H 9233   0.552   4.416   7.872 -0.4364 -0.6671  2.1330
  828MOL0     H 9234   0.612   4.507   8.009 -2.3436  2.1294  2.1232
  828MOL0     H 9235   0.719   4.578   7.791 -0.3354 -1.2721 -0.0137
  828MOL0     H 9236   0.630   4.713   7.873  1.0409 -1.3093  1.0454
  828MOL0     H 9237   0.423   4.633   7.716 -0.1440  1.6426 -2.4718
  828MOL0     H 9238   0.537   4.548   7.623  0.8137  2.6727 -1.9957
  828MOL0     H 9239   0.541   4.837   7.675 -0.4076 -1.1688  0.9699
  828MOL0     H 9240   0.672   4.748   7.591 -1.2196  2.7526 -0.3940
  828MOL0     H 9241   0.388   4.743   7.505  0.1792 -2.1250  1.3662
  828MOL0     H 9242   0.542   4.693   7.420  2.2584  0.8776  1.2058
  828MOL0     H 9243   0.603   4.944   7.425  0.7230  0.6305 -1.5542
  828MOL0     H 9244   0.445   4.977   7.484 -1.4793 -1.4787 -0.0793
  828MOL0     H 9245   0.500   5.011   7.236  1.1936 -0.7513 -1.0247
  828MOL0     H 9246   0.499   4.832   7.212 -0.6839  1.4473 -1.2295
  828MOL0     H 9247   0.280   4.935   7.148 -1.9919 -1.8598 -0.4410
  828MOL0     H 9248   0.269   5.002   7.310  1.4594  3.3228 -3.3727
  828MOL0     H 9249   0.251   4.668   7.121 -2.0191  0.0822 -0.6505
  828MOL0     H 9250   0.129   4.431   7.194 -1.6370 -1.9931  0.9071
  828MOL0     H 9251  -0.035   4.490   7.244 -0.2757 -1.1167 -1.5661
  828MOL0     H 9252   0.082   4.283   7.356 -1.8400  0.4623  0.7238
  828MOL0     H 9253   0.013   4.408   7.458  0.5760  1.3866  0.4909
  828MOL0     H 9254   0.295   4.327   7.387  1.1624  1.0444 -0.6567
  828MOL0     H 9255   0.278   4.481   7.469  0.7083  0.2786 -0.2270
  828MOL0     H 9256   0.156   4.382   7.663 -0.7041 -0.8322 -0.1108
  828MOL0     H 9257   0.310   4.302   7.632  0.5457  2.0358 -0.6333
  828MOL0     H 9258   0.178   4.252   7.850 -1.6385  1.5904 -0.2611
  828MOL0     H 9259   0.032   4.196   8.025  1.2153  1.1797 -0.5535
  828MOL0     H 9260  -0.304   3.871   8.264 -0.6894 -1.1328 -1.7105
  828MOL0     H 9261  -0.480   3.905   8.422 -2.8288 -0.9847 -0.0365
  828MOL0     H 9262  -0.710   3.983   8.571 -2.2064 -0.8885  2.2557
  828MOL0     H 9263  -0.722   3.857   8.444 -0.4808  1.4109 -2.4268
  828MOL0     H 9264  -0.945   3.878   8.563  0.0214 -2.4766 -2.5408
  828MOL0     H 9265  -0.956   3.956   8.400  1.9769  1.1601 -1.0173
  828MOL0     H 9266  -0.890   4.175   8.516 -1.2384  0.2673  0.0957
  828MOL0     H 9267  -0.891   4.089   8.675  1.9460  3.3847 -0.3202
  828MOL0     H 9268  -1.128   4.128   8.505 -0.9266  1.1626  0.5689
  828MOL0     H 9269  -1.123   4.028   8.650 -1.7661 -0.7263 -3.7019
  828MOL0     H 9270  -1.049   4.310   8.640  0.0240  1.0032  1.3392
  828MOL0     H 9271  -1.054   4.214   8.794  0.2019  0.3634  0.4205
  828MOL0     H 9272  -1.298   4.165   8.710 -1.5723  0.1198 -0.1179
  828MOL0     H 9273  -1.274   4.300   8.591  0.1628  2.5011  1.3696
  828MOL0     H 9274  -1.238   4.316   8.892  1.9220 -1.9212 -1.1297
  828MOL0     H 9275  -1.264   4.461   8.782 -2.8100 -0.0455 -2.7715
  828MOL0     H 9276  -1.479   4.278   8.863 -1.5362 -0.6265 -1.0927
  828MOL0     H 9277  -1.488   4.381   8.718 -0.5181 -1.3234 -0.1188
  828MOL0     H 9278  -0.707   4.132   8.129 -1.2260 -2.6831 -2.6753
  828MOL0     H 9279  -0.520   4.105   7.976  1.2514  1.9259  1.1201
  828MOL0     H 9280  -0.238   3.998   7.756 -1.0944 -1.1349  2.4850
  828MOL0     H 9281  -0.066   4.050   7.570  2.5119  3.4146 -0.5117
  828MOL0     H 9282   0.205   4.623   8.061 -1.8471  1.2261  0.9327
  828MOL0     H 9283   0.065   4.496   8.211 -0.4110 -1.9816  0.6512
  828MOL0     H 9284  -0.083   4.110   8.365  0.5680  0.8402 -0.1027
  828MOL0     H 9285  -0.241   3.992   8.504 -0.6965  0.6642  1.9397
  828MOL0     H 9286  -0.160   3.966   8.910 -1.2868  0.5431  0.3710
  828MOL0     H 9287  -0.251   3.835   8.927  1.5688 -0.8781 -0.5328
  828MOL0     H 9288  -0.397   4.052   8.911  1.3518 -0.3586  1.5163
  828MOL0     H 9289  -0.336   4.080   8.749  0.6763 -1.4505 -0.4432
  828MOL0     H 9290  -0.483   3.942   8.656  0.8868 -1.5909 -0.2308
  828MOL0     H 9291  -0.574   3.964   8.814  0.6027  3.5213 -1.6337
  828MOL0     H 9292  -0.407   3.715   8.742  1.5816  1.7495  0.7667
  828MOL0     H 9293  -0.472   3.742   8.899 -2.2653 -0.3229  0.2979
  828MOL0     H 9294  -0.813   3.650   8.664  1.5808 -0.8503 -2.7377
  828MOL0     H 9295   0.055   3.921   8.803 -0.9976  0.7559  0.9607
  828MOL0     H 9296   0.208   4.075   8.689 -1.0398  2.2462  2.9831
  829MOL0     O 9297   7.006  10.186  10.718 -0.2618 -1.0645  0.0974
  829MOL0     C 9298   7.099  10.264  10.750 -0.1458  0.6482  0.3560
  829MOL0     O 9299   7.087  10.379  10.820 -0.0097  0.3068 -0.1642
  829MOL0     C 9300   6.960  10.427  10.821 -0.0108  0.1658 -0.4208
  829MOL0     C 9301   6.896  10.447  10.940 -0.5920  0.6162  0.5878
  829MOL0     C 9302   6.769  10.525  10.949 -0.0613 -0.1404 -0.1888
  829MOL0     C 9303   6.711  10.553  10.826 -0.1582  0.0199  0.6766
  829MOL0     O 9304   6.584  10.599  10.844 -0.1738 -0.2246 -0.1216
  829MOL0     C 9305   6.474  10.557  10.766  0.3795  0.2829 -0.8549
  829MOL0     C 9306   6.390  10.681  10.752  0.1936 -0.1970  0.0706
  829MOL0     C 9307   6.387  10.777  10.871 -0.0322 -0.7349  0.6425
  829MOL0     C 9308   6.292  10.887  10.845  0.1157 -0.0018 -0.5576
  829MOL0     C 9309   6.140  10.842  10.856 -0.8726 -0.5859 -0.0943
  829MOL0     C 9310   6.093  10.797  11.006  0.8137  0.1201 -1.0788
  829MOL0     C 9311   5.944  10.809  11.028 -0.0603 -1.1079  0.4893
  829MOL0     C 9312   5.907  10.865  11.165 -1.2464 -0.3657 -0.7182
  829MOL0     N 9313   5.914  11.010  11.165 -0.0491 -0.3654 -0.5496
  829MOL0     C 9314   6.013  11.080  11.225 -0.5576 -0.3931 -0.3235
  829MOL0     C 9315   5.984  11.208  11.203 -0.5848  0.2871 -0.3943
  829MOL0     C 9316   6.068  11.322  11.252 -0.1104  0.5205 -0.5000
  829MOL0     C 9317   5.986  11.392  11.360  0.2441  0.5711 -0.2181
  829MOL0     C 9318   6.028  11.536  11.367  0.4611 -0.0299 -0.7839
  829MOL0     C 9319   6.178  11.547  11.398  0.5454 -0.3976  0.2147
  829MOL0     O 9320   6.255  11.590  11.280  0.2219 -0.0046 -0.3088
  829MOL0     C 9321   6.319  11.701  11.315 -0.4263 -0.4282 -0.4400
  829MOL0     C 9322   6.434  11.717  11.396 -0.2628  0.3076  0.2654
  829MOL0     C 9323   6.482  11.848  11.427 -0.2950  0.5900 -0.2552
  829MOL0     C 9324   6.429  11.962  11.354 -0.1769  1.0469 -0.1194
  829MOL0     C 9325   6.491  12.097  11.375  0.0846  0.0765  0.0327
  829MOL0     O 9326   6.455  12.195  11.295  0.3584 -0.4788 -1.1541
  829MOL0     C 9327   6.525  12.312  11.304 -0.6812  0.0919  0.2710
  829MOL0     C 9328   6.449  12.425  11.316  0.5082  0.1395 -0.5734
  829MOL0     C 9329   6.505  12.552  11.322  0.2169 -0.2190  0.9005
  829MOL0     C 9330   6.646  12.568  11.307  0.9217 -0.3583 -0.7750
  829MOL0     O 9331   6.700  12.692  11.309 -0.0017 -0.9157 -0.3287
  829MOL0     C 9332   6.623  12.805  11.261  1.0931  0.3623 -0.0379
  829MOL0     C 9333   6.725  12.912  11.218 -0.5162 -0.3390  0.9526
  829MOL0     C 9334   6.674  13.052  11.183  0.3580 -0.8739  0.0488
  829MOL0     C 9335   6.782  13.155  11.148 -0.2044 -0.6989  0.3216
  829MOL0     C 9336   6.872  13.117  11.029 -0.3263 -0.0730  0.5205
  829MOL0     C 9337   7.002  13.196  11.019  1.3757  0.0967  0.3757
  829MOL0     C 9338   7.050  13.215  10.870 -0.2094  0.1662 -0.3714
  829MOL0     C 9339   7.197  13.251  10.860 -0.3027 -0.3469 -0.5917
  829MOL0    Cl 9340   7.235  13.301  10.699  0.0125 -0.4828 -0.2889
  829MOL0     C 9341   6.726  12.456  11.295  0.3435  0.2922  0.1893
  829MOL0     C 9342   6.672  12.325  11.287 -0.6622  0.1009  1.1039
  829MOL0     O 9343   6.564  12.113  11.474 -0.1425  0.4271  0.3566
  829MOL0     C 9344   6.309  11.944  11.273  0.2214  0.4206 -0.0898
  829MOL0     C 9345   6.268  11.811  11.255  0.1254  0.3023 -0.5637
  829MOL0     N 9346   5.874  11.218  11.128 -0.6535 -0.1819  0.0224
  829MOL0     N 9347   5.824  11.096  11.108 -0.4014 -0.5905 -0.3483
  829MOL0     C 9348   6.784  10.531  10.708 -0.2105 -0.3590  0.0762
  829MOL0     C 9349   6.903  10.473  10.704  0.8056  0.8187  0.7633
  829MOL0     C 9350   7.236  10.217  10.721  0.3055  0.7868  0.2702
  829MOL0     C 9351   7.254  10.112  10.630 -0.1756  0.2784 -0.7076
  829MOL0     C 9352   7.388  10.081  10.604 -0.4642  0.0619 -0.4216
  829MOL0     C 9353   7.499  10.154  10.647 -0.4487  0.1955 -0.4256
  829MOL0     O 9354   7.622  10.114  10.601 -0.0867  0.3531 -0.5797
  829MOL0     C 9355   7.716  10.215  10.582 -1.0199  0.0549  0.7924
  829MOL0     C 9356   7.830  10.186  10.479 -0.1577  0.2326 -0.1587
  829MOL0     C 9357   7.935  10.090  10.532  0.1798  0.3079 -0.9446
  829MOL0     C 9358   8.046  10.039  10.430 -0.5206 -1.2700  0.7788
  829MOL0     C 9359   8.129   9.939  10.499 -0.1925  0.7303  1.5031
  829MOL0     C 9360   8.195   9.850  10.553  0.0676 -0.0616  0.4003
  829MOL0     C 9361   7.478  10.251  10.737  0.6746 -0.6090 -0.4991
  829MOL0     C 9362   7.342  10.286  10.774 -0.3754  0.6779  0.0337
  829MOL0     H 9363   6.935  10.411  11.035 -0.2508 -2.9411 -0.7623
  829MOL0     H 9364   6.704  10.554  11.030  0.2750  1.5226 -0.4916
  829MOL0     H 9365   6.413  10.483  10.819 -1.7146  1.5641 -1.3605
  829MOL0     H 9366   6.500  10.510  10.670 -1.0203 -0.2236 -1.0090
  829MOL0     H 9367   6.290  10.640  10.733 -0.3499 -0.0259  2.3290
  829MOL0     H 9368   6.420  10.733  10.660  2.4153  0.8174  1.2857
  829MOL0     H 9369   6.487  10.815  10.892  0.2175 -0.4621 -0.8708
  829MOL0     H 9370   6.359  10.716  10.956 -0.7491 -2.7521 -0.9563
  829MOL0     H 9371   6.307  10.966  10.920  1.2942  2.3767 -3.1287
  829MOL0     H 9372   6.303  10.931  10.746 -4.4593  0.9288 -0.8458
  829MOL0     H 9373   6.117  10.751  10.800 -2.6455 -1.5583  2.0403
  829MOL0     H 9374   6.070  10.918  10.821 -0.3975 -0.3066 -0.4454
  829MOL0     H 9375   6.138  10.859  11.085 -2.4165 -1.3397  2.2095
  829MOL0     H 9376   6.129  10.698  11.033  0.4889  0.3338  0.1929
  829MOL0     H 9377   5.896  10.874  10.954 -1.1959  1.2402  3.0994
  829MOL0     H 9378   5.912  10.705  11.018  0.4777 -1.2122 -0.2063
  829MOL0     H 9379   5.979  10.833  11.241 -2.4387  1.1839  1.1511
  829MOL0     H 9380   5.808  10.828  11.196 -2.2796  1.8033 -1.2477
  829MOL0     H 9381   6.100  11.045  11.280 -0.0947 -1.5141 -1.7162
  829MOL0     H 9382   6.092  11.392  11.171 -0.1725  2.1875  0.8599
  829MOL0     H 9383   6.161  11.289  11.299  1.2988  0.2527 -3.2342
  829MOL0     H 9384   6.002  11.339  11.454  1.3592  1.1738 -0.0569
  829MOL0     H 9385   5.883  11.393  11.325  0.6971  1.6727 -1.6456
  829MOL0     H 9386   5.996  11.582  11.273 -1.1551 -2.4062 -1.4852
  829MOL0     H 9387   5.980  11.587  11.451  2.7294 -2.0093  1.9535
  829MOL0     H 9388   6.205  11.447  11.433  0.1945 -0.5524  0.0520
  829MOL0     H 9389   6.195  11.611  11.485  0.1973 -0.6201  0.4511
  829MOL0     H 9390   6.488  11.631  11.434 -0.9000 -0.2190  0.0042
  829MOL0     H 9391   6.569  11.843  11.491 -1.6740  2.3467  1.8865
  829MOL0     H 9392   6.343  12.410  11.329  0.8765 -2.0188  0.4067
  829MOL0     H 9393   6.442  12.640  11.335 -1.4216 -0.9741 -1.2471
  829MOL0     H 9394   6.562  12.842  11.344  3.1986  0.1928  1.6625
  829MOL0     H 9395   6.548  12.777  11.186  1.1338 -2.1849  0.7720
  829MOL0     H 9396   6.771  12.868  11.129 -3.0476  0.7158 -1.0012
  829MOL0     H 9397   6.801  12.926  11.296  0.0967 -0.8557  0.4651
  829MOL0     H 9398   6.621  13.084  11.273  0.4833 -4.1797  1.4154
  829MOL0     H 9399   6.603  13.031  11.103 -0.3595 -0.2279  0.5042
  829MOL0     H 9400   6.727  13.249  11.135  0.5392 -0.0534  1.5856
  829MOL0     H 9401   6.850  13.167  11.233 -1.3738 -1.8016  1.4659
  829MOL0     H 9402   6.818  13.126  10.934  1.0132  1.1756 -0.1524
  829MOL0     H 9403   6.883  13.008  11.026  0.1095 -0.0201 -2.4367
  829MOL0     H 9404   7.075  13.136  11.075  1.0308 -0.6813 -0.0011
  829MOL0     H 9405   6.999  13.296  11.065  2.4300 -0.0393  0.7736
  829MOL0     H 9406   7.042  13.122  10.814 -0.4848 -1.3652  2.0865
  829MOL0     H 9407   6.978  13.287  10.829 -0.1771  1.3011  1.4550
  829MOL0     H 9408   7.254  13.161  10.882 -1.3757 -0.1640  3.7673
  829MOL0     H 9409   7.226  13.326  10.933  2.8932 -2.1793  0.1997
  829MOL0     H 9410   6.834  12.463  11.285  0.2556  2.1917  0.1499
  829MOL0     H 9411   6.736  12.239  11.275  0.9005  1.5852 -2.7324
  829MOL0     H 9412   6.259  12.029  11.228  2.7535  1.0314 -1.9486
  829MOL0     H 9413   6.178  11.795  11.196  1.1190  2.8687 -3.0164
  829MOL0     H 9414   6.730  10.555  10.617  2.1806 -2.2568 -2.0108
  829MOL0     H 9415   6.951  10.475  10.607 -0.6116  2.9933  0.0229
  829MOL0     H 9416   7.171  10.057  10.586  0.5624 -1.3361 -0.1789
  829MOL0     H 9417   7.397   9.997  10.537 -0.9157  1.1223 -1.8532
  829MOL0     H 9418   7.772  10.237  10.674 -0.3071 -0.6877  0.5449
  829MOL0     H 9419   7.666  10.307  10.552 -0.4170  1.0700  2.7289
  829MOL0     H 9420   7.779  10.144  10.391  0.9510 -1.3020 -0.1094
  829MOL0     H 9421   7.880  10.283  10.469  2.5544 -0.6880  2.7663
  829MOL0     H 9422   7.891  10.000  10.576  1.2909 -0.0403 -0.5020
  829MOL0     H 9423   7.997  10.146  10.603 -1.4903  0.9427  0.0770
  829MOL0     H 9424   7.999   9.991  10.343 -3.6212  1.0854  1.0233
  829MOL0     H 9425   8.101  10.126  10.392 -0.2598 -3.2620 -4.2976
  829MOL0     H 9426   8.242   9.766  10.600  0.5799 -0.4116 -0.6917
  829MOL0     H 9427   7.567  10.305  10.768 -0.8356  1.4434  0.5000
  829MOL0     H 9428   7.320  10.366  10.845  0.7567  0.6317  0.4603
  830MOL0     O 9429   3.593   3.768   0.872 -0.1314  0.6027  0.7015
  830MOL0     C 9430   3.599   3.725   0.756  0.3595 -0.3672 -1.2467
  830MOL0     O 9431   3.503   3.728   0.656 -0.2619  0.8331  0.6222
  830MOL0     C 9432   3.373   3.758   0.700 -0.1950  0.7365  0.2200
  830MOL0     C 9433   3.271   3.668   0.668  0.2036 -0.1203  0.8192
  830MOL0     C 9434   3.145   3.705   0.699 -0.6458 -0.0300  0.5747
  830MOL0     C 9435   3.114   3.810   0.784  0.2094  0.2369 -0.1548
  830MOL0     O 9436   2.991   3.842   0.832 -0.3128 -1.0394  0.2115
  830MOL0     C 9437   2.885   3.763   0.784  0.0929  0.5852  0.8109
  830MOL0     C 9438   2.753   3.815   0.848  0.5078  0.0881  0.0313
  830MOL0     C 9439   2.731   3.796   0.998 -0.0756 -0.2247 -0.0554
  830MOL0     C 9440   2.741   3.645   1.030 -0.2728  0.2594  0.8585
  830MOL0     C 9441   2.682   3.605   1.164  0.4474  0.6867  0.1305
  830MOL0     C 9442   2.771   3.650   1.277 -0.4185 -0.0013  0.0091
  830MOL0     C 9443   2.720   3.610   1.420 -0.0323 -0.7219 -0.0192
  830MOL0     C 9444   2.786   3.482   1.467  0.2303  0.4448 -0.3498
  830MOL0     N 9445   2.706   3.393   1.558 -0.0962 -0.5080 -0.4558
  830MOL0     C 9446   2.711   3.403   1.697 -0.2982 -0.8509 -0.3926
  830MOL0     C 9447   2.636   3.291   1.743 -0.0347  0.8085  0.1911
  830MOL0     C 9448   2.591   3.256   1.886 -0.2337 -0.1936 -0.9422
  830MOL0     C 9449   2.448   3.318   1.907 -0.3747  0.7568 -0.3041
  830MOL0     C 9450   2.410   3.308   2.052 -0.4781  0.2395 -0.2196
  830MOL0     C 9451   2.306   3.426   2.091  0.5453  0.5969 -0.7233
  830MOL0     O 9452   2.173   3.408   2.039 -0.5166  0.3029  0.4927
  830MOL0     C 9453   2.089   3.318   2.101 -0.0036 -0.4433 -0.0832
  830MOL0     C 9454   2.041   3.343   2.232  0.0501  0.3626  0.4770
  830MOL0     C 9455   1.952   3.245   2.289 -0.3887  0.3273  0.2545
  830MOL0     C 9456   1.921   3.124   2.227  0.3702 -0.9879  0.7303
  830MOL0     C 9457   1.831   3.036   2.298  0.4895 -0.0148 -0.1892
  830MOL0     O 9458   1.761   3.079   2.414  0.4417 -0.3783 -0.4825
  830MOL0     C 9459   1.702   2.984   2.488  0.8283 -0.4622  0.4123
  830MOL0     C 9460   1.581   2.918   2.457 -0.4935 -0.4947  0.0455
  830MOL0     C 9461   1.539   2.811   2.538  0.4658  0.8103 -0.0521
  830MOL0     C 9462   1.601   2.785   2.661 -0.4791 -1.0564 -0.1135
  830MOL0     O 9463   1.550   2.700   2.761  0.1693 -0.2522 -0.3686
  830MOL0     C 9464   1.421   2.722   2.801 -0.1010 -1.0324 -0.0179
  830MOL0     C 9465   1.373   2.867   2.830 -0.0572 -0.3410  0.4451
  830MOL0     C 9466   1.442   2.936   2.959  0.3026 -0.1877  0.0173
  830MOL0     C 9467   1.367   3.067   3.003  0.8986  0.5868 -0.8691
  830MOL0     C 9468   1.429   3.158   3.120  0.0053 -0.7552  0.6860
  830MOL0     C 9469   1.536   3.240   3.049  0.0012 -0.1569  0.1083
  830MOL0     C 9470   1.632   3.287   3.153 -0.5622  0.1063 -0.2890
  830MOL0     C 9471   1.745   3.365   3.092  1.2008 -0.1091  0.0227
  830MOL0    Cl 9472   1.845   3.259   2.995  0.2531  0.4097  0.1602
  830MOL0     C 9473   1.715   2.854   2.694 -0.5547  0.1263  0.8302
  830MOL0     C 9474   1.767   2.948   2.604  0.4595 -0.2303  0.6607
  830MOL0     O 9475   1.803   2.926   2.241  0.0750 -0.1424  1.0656
  830MOL0     C 9476   1.974   3.102   2.098  0.9291 -0.8702 -0.8159
  830MOL0     C 9477   2.057   3.194   2.039  1.0269 -0.3130 -0.4525
  830MOL0     N 9478   2.578   3.232   1.629 -0.3969  0.2256  0.1207
  830MOL0     N 9479   2.617   3.296   1.521  0.1702  0.8307 -0.1747
  830MOL0     C 9480   3.217   3.896   0.820  0.2208  0.3215 -1.0215
  830MOL0     C 9481   3.350   3.874   0.776 -0.2465  1.0060 -0.3969
  830MOL0     C 9482   3.731   3.669   0.717  1.3355  0.1347 -0.3058
  830MOL0     C 9483   3.845   3.711   0.783  0.8850  0.0750 -0.0845
  830MOL0     C 9484   3.973   3.671   0.742  0.0609  0.1175  0.1085
  830MOL0     C 9485   3.990   3.586   0.629 -0.5104  0.1327 -0.7203
  830MOL0     O 9486   4.111   3.545   0.583  0.6466 -0.6785 -0.1091
  830MOL0     C 9487   4.215   3.650   0.602 -0.0153 -0.9508 -0.0605
  830MOL0     C 9488   4.348   3.623   0.517  0.0721 -0.2457  0.2911
  830MOL0     C 9489   4.399   3.474   0.547  0.0838  0.5218 -1.0084
  830MOL0     C 9490   4.521   3.442   0.466  0.2026 -0.0007  0.2854
  830MOL0     C 9491   4.641   3.524   0.503 -0.0081 -0.4226 -0.2999
  830MOL0     C 9492   4.744   3.570   0.529  0.4116 -0.6403 -0.0584
  830MOL0     C 9493   3.880   3.546   0.570  0.2975 -0.1341 -0.3039
  830MOL0     C 9494   3.748   3.586   0.613  0.2352  0.4794 -0.2420
  830MOL0     H 9495   3.281   3.575   0.614  0.9664 -0.5246  1.6362
  830MOL0     H 9496   3.072   3.642   0.650  1.2279  0.5249 -3.2379
  830MOL0     H 9497   2.910   3.661   0.812  1.7287  0.9951  0.9776
  830MOL0     H 9498   2.879   3.768   0.675  0.3784 -0.0331  0.7646
  830MOL0     H 9499   2.662   3.772   0.804  0.0647  2.4518 -1.5832
  830MOL0     H 9500   2.741   3.914   0.804  0.7072  0.1938  0.2109
  830MOL0     H 9501   2.629   3.829   1.024 -1.6434 -2.2719 -3.0350
  830MOL0     H 9502   2.804   3.855   1.054 -0.7518  1.0415 -0.4600
  830MOL0     H 9503   2.679   3.581   0.967 -1.0047  0.0601  1.7783
  830MOL0     H 9504   2.843   3.606   1.031 -0.2830  0.0399 -1.2400
  830MOL0     H 9505   2.677   3.495   1.169 -1.9295  0.7248 -0.3217
  830MOL0     H 9506   2.583   3.652   1.169  0.1736  0.0693  0.6555
  830MOL0     H 9507   2.772   3.759   1.282 -0.8800 -0.0417  1.7398
  830MOL0     H 9508   2.872   3.611   1.266 -0.0758 -0.2822  3.0893
  830MOL0     H 9509   2.738   3.688   1.494 -2.3327 -3.2592  3.5086
  830MOL0     H 9510   2.611   3.604   1.431  0.1564 -1.0814  1.9300
  830MOL0     H 9511   2.877   3.515   1.517  0.7719  0.2504 -1.2031
  830MOL0     H 9512   2.815   3.425   1.378 -0.6835 -2.5624  1.1439
  830MOL0     H 9513   2.769   3.471   1.758  1.3709 -1.5394 -1.1519
  830MOL0     H 9514   2.669   3.290   1.955 -0.8150 -0.1180 -0.3086
  830MOL0     H 9515   2.594   3.148   1.905  0.0697  0.1755  1.4905
  830MOL0     H 9516   2.381   3.267   1.838  1.1605 -1.6802 -0.1215
  830MOL0     H 9517   2.466   3.423   1.882 -0.3028  0.3982 -1.8449
  830MOL0     H 9518   2.360   3.213   2.072  0.9378 -0.5794 -0.4226
  830MOL0     H 9519   2.498   3.314   2.116 -2.5781  0.0481  2.9136
  830MOL0     H 9520   2.349   3.518   2.051  0.8504  0.6799 -0.2171
  830MOL0     H 9521   2.306   3.430   2.201  1.6795 -1.9225 -0.5539
  830MOL0     H 9522   2.061   3.433   2.288  0.4389  1.0914 -0.7924
  830MOL0     H 9523   1.900   3.270   2.381 -0.0159  0.0992  0.5283
  830MOL0     H 9524   1.528   2.937   2.364  1.1770  1.0713 -0.6510
  830MOL0     H 9525   1.465   2.745   2.492  0.1017  0.6349  0.7532
  830MOL0     H 9526   1.402   2.676   2.899  1.4250  1.0920  1.3794
  830MOL0     H 9527   1.364   2.674   2.721 -1.6627  1.3483 -0.4506
  830MOL0     H 9528   1.265   2.854   2.835 -0.2639  0.0614 -1.8938
  830MOL0     H 9529   1.387   2.940   2.749 -0.6847  2.8435  2.9668
  830MOL0     H 9530   1.546   2.958   2.937  0.6982 -0.7116  1.2761
  830MOL0     H 9531   1.448   2.864   3.041 -3.9431 -0.4503  0.3258
  830MOL0     H 9532   1.349   3.127   2.913 -1.9318  1.5246  0.2309
  830MOL0     H 9533   1.274   3.022   3.039  1.7987  0.7686  1.8691
  830MOL0     H 9534   1.463   3.094   3.202 -1.0681 -0.3576  1.4761
  830MOL0     H 9535   1.363   3.233   3.165  1.3400 -0.4137  2.1796
  830MOL0     H 9536   1.491   3.327   3.001  0.3222  1.0495  1.8779
  830MOL0     H 9537   1.581   3.177   2.972 -1.1894  0.7309 -1.3798
  830MOL0     H 9538   1.569   3.343   3.223 -1.8987 -1.1878 -0.4030
  830MOL0     H 9539   1.681   3.205   3.207 -1.7887 -0.9939 -0.8054
  830MOL0     H 9540   1.814   3.412   3.163  1.4685  1.2667 -1.1068
  830MOL0     H 9541   1.711   3.443   3.024  0.3876 -0.2851  0.2173
  830MOL0     H 9542   1.751   2.823   2.792 -1.9221 -1.0489  0.9915
  830MOL0     H 9543   1.855   3.000   2.641  1.7491 -3.0792  1.8588
  830MOL0     H 9544   1.960   3.002   2.059  2.2585 -2.3732  2.1720
  830MOL0     H 9545   2.075   3.173   1.934  3.5098  0.1684 -0.1919
  830MOL0     H 9546   3.180   3.980   0.878  0.5292  2.0004 -3.1373
  830MOL0     H 9547   3.426   3.947   0.802  1.8137 -0.9378 -0.6270
  830MOL0     H 9548   3.834   3.770   0.874 -1.6238 -1.5528  0.7810
  830MOL0     H 9549   4.059   3.720   0.785  1.0703 -2.3918  1.1263
  830MOL0     H 9550   4.238   3.667   0.708  0.5873 -3.3398  0.2577
  830MOL0     H 9551   4.172   3.740   0.558 -0.7832 -1.0924  0.3731
  830MOL0     H 9552   4.314   3.636   0.413  0.1644 -0.0200  0.2897
  830MOL0     H 9553   4.423   3.700   0.536  0.4720  0.0288 -2.0560
  830MOL0     H 9554   4.323   3.405   0.507  1.6343 -0.6277 -2.0964
  830MOL0     H 9555   4.405   3.454   0.654 -3.8668 -0.8079 -0.8556
  830MOL0     H 9556   4.540   3.336   0.488  1.3975  0.2885  0.6938
  830MOL0     H 9557   4.496   3.449   0.359  1.0010  1.2333  0.1687
  830MOL0     H 9558   4.837   3.621   0.544 -0.2933  0.5249  0.4734
  830MOL0     H 9559   3.883   3.494   0.475 -0.7952  1.8434 -1.4858
  830MOL0     H 9560   3.670   3.546   0.549  0.2343 -3.5165  1.9730
  831MOL0     O 9561   3.425   8.467   5.981  0.0606 -0.5522  0.1425
  831MOL0     C 9562   3.440   8.396   5.880  0.9907 -0.3434  0.4712
  831MOL0     O 9563   3.350   8.309   5.828 -0.9628  0.6352  0.0531
  831MOL0     C 9564   3.218   8.312   5.859  0.3685  0.8771  1.0779
  831MOL0     C 9565   3.164   8.183   5.822 -0.8851 -0.3316 -0.1707
  831MOL0     C 9566   3.026   8.170   5.829  0.4222  0.0104 -0.4643
  831MOL0     C 9567   2.949   8.269   5.886 -0.4150  0.1133 -0.2388
  831MOL0     O 9568   2.823   8.237   5.922  0.6386 -0.2733  0.5107
  831MOL0     C 9569   2.733   8.334   5.971  0.5561  0.1888  0.0846
  831MOL0     C 9570   2.604   8.266   6.004 -0.7457  0.6685  0.2645
  831MOL0     C 9571   2.494   8.371   6.040 -1.1238  0.0030  0.5044
  831MOL0     C 9572   2.383   8.300   6.114 -0.2074 -0.5967  1.2925
  831MOL0     C 9573   2.260   8.399   6.152 -0.4303  0.9240  0.3954
  831MOL0     C 9574   2.287   8.462   6.288 -0.3454  0.1602  0.2962
  831MOL0     C 9575   2.187   8.570   6.330  0.6433  0.1933  0.0724
  831MOL0     C 9576   2.232   8.704   6.274 -1.0456  0.2498 -0.2558
  831MOL0     N 9577   2.152   8.804   6.337 -0.3014 -0.0099  0.3447
  831MOL0     C 9578   2.025   8.838   6.295  0.3452 -0.8160 -0.0742
  831MOL0     C 9579   1.983   8.934   6.378  0.3481 -0.4989 -0.4324
  831MOL0     C 9580   1.852   9.011   6.379  1.0365 -0.7369  0.1839
  831MOL0     C 9581   1.735   8.953   6.292  0.1509 -0.1078  0.3961
  831MOL0     C 9582   1.665   8.831   6.357  0.6769  0.4775  0.2306
  831MOL0     C 9583   1.598   8.747   6.246 -0.2723 -0.7783 -0.0612
  831MOL0     O 9584   1.519   8.659   6.309  0.0970  0.5502  0.3136
  831MOL0     C 9585   1.385   8.668   6.331  0.3972  1.0908 -0.1967
  831MOL0     C 9586   1.314   8.556   6.357  0.5575 -0.2942 -0.3623
  831MOL0     C 9587   1.174   8.563   6.384  0.8294 -0.4276  0.2261
  831MOL0     C 9588   1.104   8.681   6.384 -0.4660 -0.0600 -0.8760
  831MOL0     C 9589   0.962   8.679   6.427 -0.2945  0.2228  0.3709
  831MOL0     O 9590   0.904   8.555   6.447  0.3239  0.8024 -0.5913
  831MOL0     C 9591   0.770   8.537   6.474 -1.0197 -1.0603 -0.1964
  831MOL0     C 9592   0.749   8.435   6.561 -0.0781  0.1865  0.4089
  831MOL0     C 9593   0.614   8.399   6.598 -0.4505 -1.0430  0.2030
  831MOL0     C 9594   0.503   8.480   6.545  1.0212  0.0919 -1.1669
  831MOL0     O 9595   0.363   8.457   6.569 -0.4267  0.2222  0.8382
  831MOL0     C 9596   0.318   8.361   6.664  0.3231  0.0589  0.8095
  831MOL0     C 9597   0.171   8.348   6.640 -0.5746 -0.4342 -0.6967
  831MOL0     C 9598   0.147   8.274   6.511 -0.1144 -0.2363  0.4513
  831MOL0     C 9599  -0.001   8.243   6.483 -0.2101  0.3837  0.0815
  831MOL0     C 9600  -0.014   8.175   6.347  0.8668  0.1656  0.1398
  831MOL0     C 9601  -0.158   8.126   6.325  0.1863  0.4750  0.3547
  831MOL0     C 9602  -0.184   8.031   6.204  0.4467  0.2673  0.2764
  831MOL0     C 9603  -0.332   7.990   6.205 -0.2826  0.4930 -0.4232
  831MOL0    Cl 9604  -0.417   8.107   6.106  0.1233 -0.0520 -0.7095
  831MOL0     C 9605   0.538   8.594   6.467  0.1646 -0.4390 -0.1670
  831MOL0     C 9606   0.667   8.623   6.438  0.0227  1.1802  0.6650
  831MOL0     O 9607   0.913   8.790   6.439 -0.0581  0.4470 -0.0523
  831MOL0     C 9608   1.170   8.795   6.335 -0.1378  0.2713  0.5200
  831MOL0     C 9609   1.311   8.789   6.315  0.5439  0.0311  0.0099
  831MOL0     N 9610   2.088   8.969   6.463 -0.5022 -0.4044 -0.1189
  831MOL0     N 9611   2.181   8.892   6.444 -0.0282  0.2790 -0.7536
  831MOL0     C 9612   3.001   8.397   5.914  0.9205 -0.2220 -0.1127
  831MOL0     C 9613   3.137   8.417   5.901 -0.8007 -0.5969  0.4348
  831MOL0     C 9614   3.566   8.410   5.804  0.5130  0.5082  0.2216
  831MOL0     C 9615   3.601   8.327   5.701 -0.3575  1.0781 -0.3158
  831MOL0     C 9616   3.713   8.339   5.630 -0.8307 -0.0381  0.5301
  831MOL0     C 9617   3.811   8.441   5.665 -0.3405 -0.3911  0.3288
  831MOL0     O 9618   3.937   8.456   5.603 -0.2974  0.5518 -0.2383
  831MOL0     C 9619   3.965   8.387   5.479 -0.2865 -1.0721 -0.8268
  831MOL0     C 9620   4.027   8.252   5.509 -0.4909  0.1217  0.3836
  831MOL0     C 9621   4.169   8.260   5.540  0.0736  0.0910 -0.7695
  831MOL0     C 9622   4.237   8.139   5.487  0.0729 -0.1082  0.2025
  831MOL0     C 9623   4.378   8.136   5.526  0.4708 -0.6612 -0.1765
  831MOL0     C 9624   4.493   8.124   5.567  0.5415  0.6376 -0.3595
  831MOL0     C 9625   3.783   8.522   5.774 -0.3576 -0.2537 -0.4986
  831MOL0     C 9626   3.660   8.514   5.843 -0.7045 -0.6871  0.0157
  831MOL0     H 9627   3.234   8.104   5.798  1.6183  2.2466 -2.0419
  831MOL0     H 9628   2.995   8.069   5.803 -1.7502  1.1750 -2.8751
  831MOL0     H 9629   2.730   8.410   5.893  3.0897  0.1468 -0.1321
  831MOL0     H 9630   2.782   8.387   6.053  0.2312  0.1014  0.3378
  831MOL0     H 9631   2.623   8.198   6.088 -1.7238 -2.9614 -2.2042
  831MOL0     H 9632   2.565   8.209   5.920  0.2364  0.4983 -0.0898
  831MOL0     H 9633   2.457   8.408   5.944  0.9566  0.1234 -0.2994
  831MOL0     H 9634   2.545   8.439   6.109 -0.3517 -2.2118  2.2420
  831MOL0     H 9635   2.348   8.213   6.056  1.7559 -1.2214  0.9607
  831MOL0     H 9636   2.428   8.267   6.208 -0.4659  1.0126  2.0143
  831MOL0     H 9637   2.173   8.333   6.149  1.8462 -2.3183 -1.2665
  831MOL0     H 9638   2.265   8.479   6.077  2.5916  1.2547  0.8373
  831MOL0     H 9639   2.392   8.493   6.283  0.2531 -1.8909 -1.5217
  831MOL0     H 9640   2.292   8.384   6.365 -2.0782  1.6674  2.0368
  831MOL0     H 9641   2.087   8.539   6.298  0.5493  0.2148  0.3384
  831MOL0     H 9642   2.189   8.575   6.439  2.1447 -1.0277  0.1373
  831MOL0     H 9643   2.226   8.702   6.165  3.1589 -1.2196 -0.6339
  831MOL0     H 9644   2.333   8.721   6.314 -1.7496  2.5407  0.7006
  831MOL0     H 9645   1.964   8.802   6.212 -1.3038  2.1344 -0.2842
  831MOL0     H 9646   1.887   9.109   6.343  0.0198 -0.8928 -1.3247
  831MOL0     H 9647   1.814   9.009   6.481  0.7278 -2.1814  0.0622
  831MOL0     H 9648   1.781   8.934   6.195 -0.6781  4.0515 -0.9914
  831MOL0     H 9649   1.660   9.029   6.267  2.4516  2.7978  1.8314
  831MOL0     H 9650   1.720   8.777   6.435 -0.0287 -1.4849 -0.5862
  831MOL0     H 9651   1.586   8.878   6.418 -0.4364  1.4570 -1.8510
  831MOL0     H 9652   1.668   8.679   6.197 -0.8732  0.3754 -2.6871
  831MOL0     H 9653   1.557   8.819   6.174  0.2160  0.1044  0.5244
  831MOL0     H 9654   1.370   8.463   6.359  1.4434  0.2358  1.8228
  831MOL0     H 9655   1.119   8.473   6.408  2.4979 -1.1792  1.4282
  831MOL0     H 9656   0.833   8.387   6.609 -0.9043 -0.3796  1.3492
  831MOL0     H 9657   0.586   8.309   6.652  0.0686  1.9184  6.1942
  831MOL0     H 9658   0.339   8.394   6.766  3.1553 -0.7452  0.5711
  831MOL0     H 9659   0.369   8.266   6.645  3.0602  1.2941  1.4473
  831MOL0     H 9660   0.128   8.449   6.640 -1.7296 -0.9054 -0.5473
  831MOL0     H 9661   0.121   8.306   6.729  0.7578  3.4393  2.1834
  831MOL0     H 9662   0.186   8.174   6.535  1.2135 -0.2593 -1.6152
  831MOL0     H 9663   0.200   8.317   6.427 -0.9731 -4.0790 -2.3376
  831MOL0     H 9664  -0.032   8.172   6.560 -1.1673 -2.1404 -2.4551
  831MOL0     H 9665  -0.073   8.324   6.500 -0.9384 -0.6803  2.5950
  831MOL0     H 9666   0.057   8.094   6.327  2.5354  1.4838  0.4963
  831MOL0     H 9667  -0.002   8.256   6.274 -2.4431 -0.6652 -1.5062
  831MOL0     H 9668  -0.229   8.207   6.308 -2.1860 -1.1094  2.0460
  831MOL0     H 9669  -0.192   8.067   6.411  1.3371 -1.3535 -0.3978
  831MOL0     H 9670  -0.149   8.056   6.104  0.3497 -3.4665 -0.8471
  831MOL0     H 9671  -0.133   7.936   6.222 -1.6693 -1.4044 -2.0297
  831MOL0     H 9672  -0.372   7.982   6.307  0.9818 -1.4360 -0.0224
  831MOL0     H 9673  -0.335   7.886   6.172 -1.2588 -0.1421  1.5146
  831MOL0     H 9674   0.455   8.659   6.442 -0.4250 -0.6577  1.1192
  831MOL0     H 9675   0.686   8.706   6.371 -0.4821 -2.1958 -4.1463
  831MOL0     H 9676   1.128   8.892   6.313 -2.8053 -0.1493  3.1842
  831MOL0     H 9677   1.356   8.876   6.268 -0.2490 -0.2206 -1.2689
  831MOL0     H 9678   2.941   8.473   5.964  0.5204  0.1720 -1.1618
  831MOL0     H 9679   3.185   8.509   5.932  0.0573 -1.2631  1.1567
  831MOL0     H 9680   3.535   8.251   5.662  2.0822 -0.6034 -1.4297
  831MOL0     H 9681   3.733   8.268   5.550  0.0183 -0.0861  0.7732
  831MOL0     H 9682   4.031   8.446   5.416 -1.3327  2.0824  0.8053
  831MOL0     H 9683   3.871   8.366   5.426 -1.3507 -0.0446  0.5773
  831MOL0     H 9684   3.978   8.210   5.597 -0.7041 -1.5581 -0.4983
  831MOL0     H 9685   3.999   8.187   5.426 -2.3670 -0.7626  1.6395
  831MOL0     H 9686   4.179   8.247   5.648 -0.5898 -4.0882 -1.0297
  831MOL0     H 9687   4.214   8.355   5.510 -1.0307  0.1081 -2.4987
  831MOL0     H 9688   4.192   8.041   5.510  2.0489 -0.8581  1.1512
  831MOL0     H 9689   4.231   8.159   5.380 -2.3804 -2.1180 -0.1413
  831MOL0     H 9690   4.591   8.110   5.609  0.0396 -2.4844  0.0291
  831MOL0     H 9691   3.855   8.591   5.816 -0.6953 -0.3023  0.1676
  831MOL0     H 9692   3.653   8.566   5.937  1.3722 -1.2563  0.5406
  832MOL0     O 9693   8.403  10.329   0.834 -0.0790  0.8453  0.6181
  832MOL0     C 9694   8.449  10.218   0.863  1.7454  0.9693 -0.3771
  832MOL0     O 9695   8.389  10.099   0.825 -0.4236  0.6497 -0.9011
  832MOL0     C 9696   8.249  10.103   0.811  0.2776  0.0627 -0.0191
  832MOL0     C 9697   8.196  10.038   0.696 -0.4198 -0.3765  0.0008
  832MOL0     C 9698   8.059  10.045   0.657 -0.1501  0.1288 -0.0572
  832MOL0     C 9699   7.972  10.117   0.738  0.4954 -0.3412  0.7979
  832MOL0     O 9700   7.833  10.124   0.712 -0.0774 -0.4413  0.0047
  832MOL0     C 9701   7.795  10.118   0.575  0.0952  0.2029 -0.5488
  832MOL0     C 9702   7.645  10.156   0.566 -0.8472 -0.2835 -0.5736
  832MOL0     C 9703   7.547  10.050   0.625  0.4023 -0.6364 -0.5155
  832MOL0     C 9704   7.396  10.093   0.602 -0.0988 -0.0840 -0.5478
  832MOL0     C 9705   7.319  10.045   0.476  0.4925 -0.4947 -0.3854
  832MOL0     C 9706   7.331   9.896   0.462  1.2851 -0.0239  0.3092
  832MOL0     C 9707   7.432   9.866   0.355 -0.5877  0.1372  1.2720
  832MOL0     C 9708   7.457   9.720   0.334 -0.4689  0.0492  0.1689
  832MOL0     N 9709   7.504   9.658   0.460  0.1366 -0.2943  0.1635
  832MOL0     C 9710   7.636   9.644   0.498  1.0919 -0.3252 -0.0425
  832MOL0     C 9711   7.642   9.582   0.612 -0.3544 -0.3775  0.2374
  832MOL0     C 9712   7.763   9.538   0.678 -0.2398 -0.3951 -0.8291
  832MOL0     C 9713   7.767   9.609   0.814  0.6455 -0.2662  0.0676
  832MOL0     C 9714   7.902   9.569   0.890  0.2726 -0.8919  0.0901
  832MOL0     C 9715   8.029   9.639   0.825  0.2893  0.5156 -0.5897
  832MOL0     O 9716   8.148   9.663   0.907  0.3195 -0.0405 -0.8364
  832MOL0     C 9717   8.263   9.710   0.856 -0.0539  0.1674 -0.4225
  832MOL0     C 9718   8.372   9.737   0.945  0.4694  1.0073 -0.3641
  832MOL0     C 9719   8.504   9.746   0.897 -0.2234  0.4190  0.4737
  832MOL0     C 9720   8.530   9.740   0.759  0.3509 -0.3245  0.8080
  832MOL0     C 9721   8.666   9.724   0.706  0.7804  0.4613 -0.1667
  832MOL0     O 9722   8.761   9.700   0.804  0.7061  0.3665 -0.4485
  832MOL0     C 9723   8.896   9.703   0.786  0.2743  0.2047  0.8274
  832MOL0     C 9724   8.981   9.780   0.868  0.1633  0.3049 -0.7442
  832MOL0     C 9725   9.117   9.761   0.861  0.3058 -0.0945  0.0288
  832MOL0     C 9726   9.180   9.687   0.757  0.6489 -0.2079  0.1849
  832MOL0     O 9727   9.312   9.678   0.755 -0.6805  0.6543  0.2144
  832MOL0     C 9728   9.377   9.557   0.716  0.2940 -0.6154 -0.2213
  832MOL0     C 9729   9.517   9.549   0.758 -0.1197 -0.8794 -0.3368
  832MOL0     C 9730   9.535   9.553   0.915 -0.5458 -0.3666 -0.8175
  832MOL0     C 9731   9.684   9.546   0.953  0.5409 -0.2550  0.1607
  832MOL0     C 9732   9.722   9.603   1.093  0.0619  0.5847  0.6282
  832MOL0     C 9733   9.868   9.592   1.120  0.3592 -0.1028  0.4014
  832MOL0     C 9734   9.899   9.659   1.253 -0.8237 -0.0768 -0.5721
  832MOL0     C 9735  10.040   9.616   1.308 -0.1178 -0.7009  0.8763
  832MOL0    Cl 9736  10.173   9.698   1.231 -0.0237 -0.4411  0.3743
  832MOL0     C 9737   9.096   9.615   0.670 -0.3307 -1.1942 -0.2589
  832MOL0     C 9738   8.953   9.630   0.688 -0.7639  0.1838 -0.1326
  832MOL0     O 9739   8.694   9.742   0.587  0.1010 -0.2081 -0.4965
  832MOL0     C 9740   8.422   9.735   0.668  0.0323 -0.2204  0.5138
  832MOL0     C 9741   8.292   9.712   0.716 -0.5089  0.0059  0.2829
  832MOL0     N 9742   7.513   9.550   0.639  0.5942  1.5090  0.9351
  832MOL0     N 9743   7.428   9.595   0.555 -0.4450  0.4120 -1.1080
  832MOL0     C 9744   8.014  10.177   0.859  0.5473 -0.4217  0.2179
  832MOL0     C 9745   8.152  10.165   0.889  0.1338 -0.0733 -0.2396
  832MOL0     C 9746   8.587  10.214   0.916  0.4681 -0.2170  0.3469
  832MOL0     C 9747   8.653  10.097   0.948 -0.9630 -0.9250 -0.3355
  832MOL0     C 9748   8.781  10.091   1.005 -0.4487 -0.3392  0.4080
  832MOL0     C 9749   8.841  10.217   1.034 -0.5974 -0.6912  0.0641
  832MOL0     O 9750   8.947  10.230   1.106  0.0953  0.6172 -0.4137
  832MOL0     C 9751   9.035  10.122   1.121 -0.9535 -0.2927  0.5013
  832MOL0     C 9752   9.150  10.168   1.208 -0.3129  0.5477  0.3029
  832MOL0     C 9753   9.212  10.306   1.162 -0.1783 -0.1087  0.1105
  832MOL0     C 9754   9.311  10.363   1.259 -0.2024 -0.0628  0.0561
  832MOL0     C 9755   9.241  10.428   1.363 -0.4080 -0.4578 -1.1969
  832MOL0     C 9756   9.173  10.476   1.453 -0.0526 -0.0627 -0.6119
  832MOL0     C 9757   8.780  10.339   0.998  0.4304 -0.0589 -0.8608
  832MOL0     C 9758   8.657  10.342   0.936  0.8690  0.8431  0.0422
  832MOL0     H 9759   8.251   9.977   0.625  0.3647 -0.6808  0.8555
  832MOL0     H 9760   8.037   9.985   0.570  1.9476  0.6870 -1.0369
  832MOL0     H 9761   7.797  10.014   0.540  0.2900 -0.2253  0.6816
  832MOL0     H 9762   7.855  10.186   0.514  0.0810  2.2813  1.6270
  832MOL0     H 9763   7.644  10.172   0.458 -0.6093 -1.2275 -0.7234
  832MOL0     H 9764   7.634  10.249   0.622  0.7552 -0.2052 -0.3374
  832MOL0     H 9765   7.575  10.039   0.730  2.0504  0.0149 -0.8494
  832MOL0     H 9766   7.562   9.948   0.589  0.2344 -1.1368  0.7889
  832MOL0     H 9767   7.325  10.067   0.681  0.4227  0.2363  0.0436
  832MOL0     H 9768   7.397  10.202   0.591  0.5266  0.1425  1.3059
  832MOL0     H 9769   7.361  10.098   0.390 -1.6850 -0.4333 -1.4814
  832MOL0     H 9770   7.220  10.087   0.495  0.6682 -0.5388  0.6755
  832MOL0     H 9771   7.236   9.853   0.432  2.3868 -3.3037  1.1355
  832MOL0     H 9772   7.360   9.847   0.555  1.0266  0.1254  0.4697
  832MOL0     H 9773   7.402   9.911   0.261 -1.1346 -4.6903 -1.1657
  832MOL0     H 9774   7.527   9.917   0.376 -1.0561  0.8345  1.7213
  832MOL0     H 9775   7.521   9.691   0.250  0.0948  0.2681  0.5169
  832MOL0     H 9776   7.357   9.680   0.311 -0.6159 -1.5998  3.1884
  832MOL0     H 9777   7.721   9.687   0.446  0.0350  1.6129 -0.2807
  832MOL0     H 9778   7.851   9.569   0.621  0.1313 -3.3791 -2.0537
  832MOL0     H 9779   7.760   9.430   0.694 -1.8869 -0.2468  0.0637
  832MOL0     H 9780   7.688   9.577   0.883 -3.2643  1.9410 -2.9817
  832MOL0     H 9781   7.762   9.718   0.815  0.1881 -0.2063 -2.4369
  832MOL0     H 9782   7.897   9.611   0.991  2.7246  1.6359 -0.7267
  832MOL0     H 9783   7.914   9.462   0.907  3.0557 -0.6561  0.0915
  832MOL0     H 9784   7.997   9.733   0.779 -2.4172 -0.7888 -1.6388
  832MOL0     H 9785   8.054   9.585   0.733  1.4319 -0.2668  0.1497
  832MOL0     H 9786   8.370   9.705   1.049 -0.9627 -0.4384 -0.7868
  832MOL0     H 9787   8.586   9.747   0.969 -0.1142 -1.6220  0.4403
  832MOL0     H 9788   8.947   9.845   0.949  2.0443  0.1087  0.2423
  832MOL0     H 9789   9.192   9.807   0.925  3.9532  0.3466 -4.0950
  832MOL0     H 9790   9.377   9.543   0.607  1.2568 -1.2072 -0.1582
  832MOL0     H 9791   9.338   9.466   0.763  0.6842 -0.6558  0.0300
  832MOL0     H 9792   9.575   9.637   0.728 -0.9610 -1.0792 -2.6983
  832MOL0     H 9793   9.568   9.464   0.713 -1.1628 -0.3364 -2.6875
  832MOL0     H 9794   9.491   9.469   0.970  1.2743  0.8557  2.8917
  832MOL0     H 9795   9.497   9.646   0.960  2.2647 -0.8599  3.1818
  832MOL0     H 9796   9.714   9.441   0.945 -0.1869 -0.3509 -1.8904
  832MOL0     H 9797   9.738   9.619   0.892  0.0409 -1.5218 -1.8616
  832MOL0     H 9798   9.667   9.550   1.171 -1.0697 -0.5039 -0.8462
  832MOL0     H 9799   9.696   9.709   1.094  1.7116  1.0260 -0.0287
  832MOL0     H 9800   9.916   9.644   1.036 -0.8914 -0.5007 -0.5829
  832MOL0     H 9801   9.898   9.487   1.119  1.3126  0.1567 -0.6273
  832MOL0     H 9802   9.890   9.768   1.239  0.4044  0.0587 -0.3972
  832MOL0     H 9803   9.825   9.622   1.324 -3.1759  0.1410 -2.7420
  832MOL0     H 9804  10.065   9.509   1.301  1.4692 -0.5453  3.0030
  832MOL0     H 9805  10.040   9.641   1.414 -1.5214 -2.1083  1.2509
  832MOL0     H 9806   9.137   9.542   0.601 -1.0914 -2.5617  0.6959
  832MOL0     H 9807   8.881   9.570   0.634  1.2949 -0.6519 -2.0902
  832MOL0     H 9808   8.446   9.738   0.563 -0.4482  1.8998  0.4298
  832MOL0     H 9809   8.218   9.686   0.641  1.2162 -0.8859 -1.1776
  832MOL0     H 9810   7.949  10.245   0.912 -1.2355 -2.9102  1.4178
  832MOL0     H 9811   8.185  10.219   0.977 -0.7701 -1.3695  0.9386
  832MOL0     H 9812   8.615   9.997   0.934 -0.4015 -1.2095  0.1419
  832MOL0     H 9813   8.835   9.999   1.025 -1.3411 -0.8854  0.3694
  832MOL0     H 9814   9.063  10.100   1.017  0.1721 -1.8118  1.0786
  832MOL0     H 9815   8.981  10.041   1.170  1.6855 -0.7585  2.8528
  832MOL0     H 9816   9.107  10.182   1.308 -2.5724  0.0693 -0.5504
  832MOL0     H 9817   9.231  10.096   1.226  0.4046  1.4545  0.8243
  832MOL0     H 9818   9.132  10.370   1.124 -1.8118 -1.6708  0.7357
  832MOL0     H 9819   9.268  10.278   1.072 -2.5123  2.1106 -2.2325
  832MOL0     H 9820   9.370  10.286   1.311  0.4543 -1.1155 -2.1321
  832MOL0     H 9821   9.385  10.429   1.212 -0.2187 -0.4480 -0.5247
  832MOL0     H 9822   9.116  10.517   1.533  3.2808 -2.2513  3.2499
  832MOL0     H 9823   8.815  10.436   1.032  1.4792 -1.3250  2.0118
  832MOL0     H 9824   8.606  10.434   0.909 -1.3832 -0.1369  0.7841
  833MOL0     O 9825  10.584   2.344  10.240  0.5252 -0.0737 -0.1718
  833MOL0     C 9826  10.638   2.373  10.133  0.9541  0.0851  0.4861
  833MOL0     O 9827  10.596   2.341  10.011  0.2026  0.1404  1.0514
  833MOL0     C 9828  10.475   2.274   9.981 -0.1513  0.2969 -0.0271
  833MOL0     C 9829  10.451   2.243   9.845 -0.9243  0.2726 -0.6740
  833MOL0     C 9830  10.342   2.157   9.814 -0.1636  0.7153 -0.3482
  833MOL0     C 9831  10.250   2.115   9.907  0.7773  1.5239 -0.1402
  833MOL0     O 9832  10.136   2.039   9.877 -0.9745  0.5604 -0.5181
  833MOL0     C 9833  10.030   2.098   9.808  0.4347  0.1444  0.2807
  833MOL0     C 9834   9.954   2.209   9.895 -0.0517 -0.2273 -0.1921
  833MOL0     C 9835   9.829   2.269   9.824 -1.4338 -0.5444  0.1968
  833MOL0     C 9836   9.770   2.380   9.902  0.8886  0.5949  0.0525
  833MOL0     C 9837   9.637   2.419   9.834  0.2692  0.1633 -0.8173
  833MOL0     C 9838   9.575   2.544   9.894  0.2806  0.9284 -0.5997
  833MOL0     C 9839   9.495   2.514  10.031  0.7096 -0.5013 -0.0154
  833MOL0     C 9840   9.465   2.644  10.111 -0.0306 -0.3091  0.7528
  833MOL0     N 9841   9.586   2.678  10.186  0.3110  0.3350 -0.0669
  833MOL0     C 9842   9.641   2.600  10.278  1.0263  0.8491 -0.3892
  833MOL0     C 9843   9.714   2.680  10.353  0.2316 -0.3979  0.8492
  833MOL0     C 9844   9.781   2.648  10.481 -0.2788 -0.6055  0.4682
  833MOL0     C 9845   9.936   2.664  10.468  1.0385 -0.2448 -0.0554
  833MOL0     C 9846   9.979   2.806  10.510  0.8478 -0.2350 -0.4752
  833MOL0     C 9847  10.126   2.826  10.521  0.4925  0.3225  0.0751
  833MOL0     O 9848  10.162   2.963  10.560 -0.3384 -0.0088 -0.0472
  833MOL0     C 9849  10.289   2.986  10.626  0.2307 -0.6702  1.2897
  833MOL0     C 9850  10.371   2.881  10.662 -0.7462 -1.1319  0.1012
  833MOL0     C 9851  10.495   2.917  10.726 -0.2540 -0.3306  0.2562
  833MOL0     C 9852  10.533   3.044  10.765 -0.5073 -0.1406  0.6014
  833MOL0     C 9853  10.640   3.083  10.863  0.2461  0.6465  0.3645
  833MOL0     O 9854  10.644   3.211  10.897  0.6049 -0.7742 -0.3793
  833MOL0     C 9855  10.723   3.254  10.994 -0.2269  0.3461 -0.7626
  833MOL0     C 9856  10.742   3.202  11.132  0.7665  0.8687 -0.7598
  833MOL0     C 9857  10.827   3.265  11.219  0.2090  0.8018  0.4249
  833MOL0     C 9858  10.901   3.368  11.182 -0.7239  0.1587  0.3524
  833MOL0     O 9859  10.995   3.429  11.263  0.2544 -0.4830  0.3090
  833MOL0     C 9860  10.987   3.406  11.405 -0.1144 -0.4488  0.0988
  833MOL0     C 9861  11.110   3.463  11.470  1.1216 -0.4005  0.2266
  833MOL0     C 9862  11.221   3.368  11.452 -0.0318 -0.0402 -0.6285
  833MOL0     C 9863  11.350   3.451  11.476  0.2000  1.3100 -0.9881
  833MOL0     C 9864  11.480   3.373  11.479 -0.1742  0.1815 -0.1899
  833MOL0     C 9865  11.602   3.469  11.437 -0.5350  0.9900 -0.5179
  833MOL0     C 9866  11.742   3.392  11.430  0.1366 -0.0723 -0.1981
  833MOL0     C 9867  11.840   3.484  11.515  0.2506  0.3352  0.4895
  833MOL0    Cl 9868  12.009   3.456  11.448 -0.2072  0.1810  0.4640
  833MOL0     C 9869  10.895   3.419  11.052 -0.2925  0.1531  0.4807
  833MOL0     C 9870  10.816   3.356  10.959  1.3277 -0.0337  0.0762
  833MOL0     O 9871  10.699   2.990  10.919  0.4977 -0.2118  0.2447
  833MOL0     C 9872  10.436   3.142  10.728  0.0156 -1.1685  0.4508
  833MOL0     C 9873  10.318   3.105  10.665 -0.5470 -0.4030  0.3562
  833MOL0     N 9874   9.713   2.803  10.295  0.2356 -0.2869  0.3919
  833MOL0     N 9875   9.636   2.799  10.191  0.2731 -0.3943 -0.1584
  833MOL0     C 9876  10.271   2.156  10.033  0.1308 -0.3184 -0.2310
  833MOL0     C 9877  10.380   2.232  10.075 -1.1766  0.2134  0.0423
  833MOL0     C 9878  10.772   2.432  10.139  0.0890  0.1672 -0.2558
  833MOL0     C 9879  10.864   2.415  10.036  0.1747 -0.3045 -0.3091
  833MOL0     C 9880  10.981   2.488  10.047 -0.6718 -0.1623  0.7073
  833MOL0     C 9881  11.013   2.580  10.148 -0.2073  0.2981 -0.8820
  833MOL0     O 9882  11.120   2.671  10.150 -0.6890  0.3241  0.4523
  833MOL0     C 9883  11.231   2.651  10.049 -0.1207  0.1177  0.2229
  833MOL0     C 9884  11.345   2.742  10.106  0.4453  0.1974 -0.2796
  833MOL0     C 9885  11.478   2.701  10.049  0.6525  0.2851  0.2435
  833MOL0     C 9886  11.582   2.793  10.114  0.4053  0.2388 -0.1732
  833MOL0     C 9887  11.716   2.747  10.084 -0.2633 -0.3603 -0.1585
  833MOL0     C 9888  11.833   2.726  10.046 -0.0152 -0.9943 -0.0940
  833MOL0     C 9889  10.929   2.577  10.256  0.1972  0.6627  0.5361
  833MOL0     C 9890  10.802   2.515  10.248 -1.0854 -0.2964  0.5058
  833MOL0     H 9891  10.526   2.265   9.769  0.1273  0.4842  0.4088
  833MOL0     H 9892  10.338   2.121   9.712  1.6133  1.2841 -0.6394
  833MOL0     H 9893   9.969   2.013   9.778  0.7712  0.5590 -1.7522
  833MOL0     H 9894  10.061   2.144   9.714 -0.3213  1.4229  0.6323
  833MOL0     H 9895  10.023   2.289   9.921 -0.7069  1.5830 -3.5057
  833MOL0     H 9896   9.928   2.168   9.993  4.0804  1.0300  1.6321
  833MOL0     H 9897   9.754   2.192   9.800 -3.1169  1.7934 -2.7415
  833MOL0     H 9898   9.858   2.315   9.730 -0.8603  1.3440  1.2543
  833MOL0     H 9899   9.754   2.351  10.007 -0.8135  0.6095 -0.1816
  833MOL0     H 9900   9.841   2.463   9.898  0.6639  0.7248 -2.8806
  833MOL0     H 9901   9.568   2.334   9.838 -1.1803  1.3404  1.5657
  833MOL0     H 9902   9.666   2.425   9.729  1.0317 -1.4192 -0.7274
  833MOL0     H 9903   9.502   2.579   9.820  0.4862 -0.5554 -1.5467
  833MOL0     H 9904   9.650   2.617   9.929 -1.7627  1.0088  4.5276
  833MOL0     H 9905   9.399   2.464  10.015  0.4280  0.3906 -1.3168
  833MOL0     H 9906   9.556   2.448  10.093 -0.0474  0.1447  1.4526
  833MOL0     H 9907   9.390   2.628  10.189  1.4117  1.3250  2.6019
  833MOL0     H 9908   9.429   2.717  10.038  0.8506 -0.8279 -0.2347
  833MOL0     H 9909   9.623   2.494  10.293 -0.2917  0.8892 -1.4736
  833MOL0     H 9910   9.764   2.540  10.476 -2.1021 -0.3610  0.5065
  833MOL0     H 9911   9.740   2.690  10.573  0.6437 -1.3640  1.2446
  833MOL0     H 9912   9.960   2.641  10.364  2.6942 -2.4168  0.7183
  833MOL0     H 9913   9.987   2.595  10.536  1.1962 -0.1930 -0.1205
  833MOL0     H 9914   9.943   2.886  10.445  0.8345 -1.9285 -2.6789
  833MOL0     H 9915   9.935   2.835  10.606  1.0042  2.5104 -1.1402
  833MOL0     H 9916  10.180   2.796  10.430 -0.9425  1.6806 -1.2927
  833MOL0     H 9917  10.156   2.770  10.610  0.6772  2.8690  1.7305
  833MOL0     H 9918  10.352   2.776  10.645  1.3216 -1.6682  0.8181
  833MOL0     H 9919  10.549   2.830  10.761 -1.3590  0.1943  3.6407
  833MOL0     H 9920  10.697   3.106  11.154  3.2203 -0.6042 -1.8139
  833MOL0     H 9921  10.850   3.233  11.320  1.8546 -1.2512 -0.5171
  833MOL0     H 9922  10.988   3.298  11.421 -0.9030 -0.7137 -1.4948
  833MOL0     H 9923  10.899   3.458  11.445  1.4080  2.4442 -0.0218
  833MOL0     H 9924  11.095   3.483  11.577 -0.1405  3.6240 -0.5496
  833MOL0     H 9925  11.144   3.558  11.429 -2.8921  0.6620 -1.1230
  833MOL0     H 9926  11.219   3.318  11.355  2.1943  3.1862 -2.5558
  833MOL0     H 9927  11.226   3.299  11.537 -2.0474  2.3184  1.5791
  833MOL0     H 9928  11.358   3.514  11.387 -1.8432  0.9622 -1.4681
  833MOL0     H 9929  11.341   3.503  11.572 -2.1300 -2.1564  0.9000
  833MOL0     H 9930  11.479   3.288  11.410 -0.2444  0.0486 -0.0281
  833MOL0     H 9931  11.494   3.328  11.577  0.7476  1.3306  0.2281
  833MOL0     H 9932  11.605   3.553  11.508 -1.4582  0.5812  0.0140
  833MOL0     H 9933  11.583   3.506  11.336  0.4884  0.7196 -0.8274
  833MOL0     H 9934  11.745   3.290  11.469 -2.0136  1.7757  6.1338
  833MOL0     H 9935  11.786   3.394  11.330  4.0184  0.3655  1.3345
  833MOL0     H 9936  11.828   3.434  11.611  0.5257 -1.1539 -0.2200
  833MOL0     H 9937  11.818   3.591  11.518 -1.6821 -0.0528  1.7876
  833MOL0     H 9938  10.962   3.496  11.015  0.0587 -1.4086 -2.4589
  833MOL0     H 9939  10.810   3.385  10.854 -0.6715 -2.7000 -0.6759
  833MOL0     H 9940  10.448   3.245  10.758  0.7196 -0.3071 -2.4760
  833MOL0     H 9941  10.251   3.181  10.628 -0.2412 -0.5577 -0.5436
  833MOL0     H 9942  10.200   2.110  10.101 -1.9210 -0.7814 -2.5120
  833MOL0     H 9943  10.390   2.262  10.179 -0.1731 -0.2985  0.1080
  833MOL0     H 9944  10.841   2.343   9.958  1.6993 -2.5191  1.1540
  833MOL0     H 9945  11.056   2.491   9.969 -1.3148  1.3579  0.1045
  833MOL0     H 9946  11.222   2.680   9.944  0.0688  0.3383  0.2678
  833MOL0     H 9947  11.266   2.547  10.042  0.4460  0.4354 -2.5940
  833MOL0     H 9948  11.313   2.844  10.083 -2.4339  0.2837  3.2473
  833MOL0     H 9949  11.345   2.741  10.216 -2.0348  0.0062 -0.2249
  833MOL0     H 9950  11.481   2.717   9.941 -1.2115  2.2478  0.4007
  833MOL0     H 9951  11.507   2.598  10.070 -2.0094 -0.5940 -0.0820
  833MOL0     H 9952  11.565   2.898  10.088 -3.3517  0.1895  1.4435
  833MOL0     H 9953  11.562   2.801  10.222 -0.2953  0.5439 -0.3237
  833MOL0     H 9954  11.929   2.689  10.015  0.4115 -0.5191  0.6432
  833MOL0     H 9955  10.947   2.643  10.340 -3.0076  2.7434 -0.1962
  833MOL0     H 9956  10.726   2.521  10.325  1.2221  2.7142  2.8031
  834MOL0     O 9957   4.994   7.437   3.473  0.4204  0.8716 -0.1839
  834MOL0     C 9958   5.069   7.488   3.384  0.0985  0.9387  0.0015
  834MOL0     O 9959   5.203   7.505   3.408 -0.2287 -0.2121 -0.2918
  834MOL0     C 9960   5.245   7.453   3.528  0.1167 -0.2123 -0.3205
  834MOL0     C 9961   5.204   7.525   3.641 -0.7693 -0.8201 -0.1916
  834MOL0     C 9962   5.230   7.487   3.767 -0.1484 -0.2334 -1.7533
  834MOL0     C 9963   5.320   7.377   3.786  0.3299 -0.2490 -0.7034
  834MOL0     O 9964   5.356   7.331   3.906  0.3280 -0.0741  0.1810
  834MOL0     C 9965   5.277   7.377   4.019  0.6733 -0.2715 -0.1833
  834MOL0     C 9966   5.308   7.266   4.122  0.2183  0.2706  0.2412
  834MOL0     C 9967   5.228   7.135   4.098  0.5918 -0.1536  0.4024
  834MOL0     C 9968   5.257   7.037   4.206 -0.1942  0.3222 -1.1456
  834MOL0     C 9969   5.151   6.928   4.213  0.2983 -0.5051  0.0086
  834MOL0     C 9970   5.018   6.966   4.291  0.0370 -0.1675  0.2155
  834MOL0     C 9971   4.931   6.840   4.312 -0.6119 -0.3486  0.5074
  834MOL0     C 9972   4.807   6.879   4.381  0.1008 -0.7019 -0.4741
  834MOL0     N 9973   4.723   6.947   4.290  0.8618  0.0906  0.1787
  834MOL0     C 9974   4.637   7.057   4.315 -0.2630 -0.6833  0.2334
  834MOL0     C 9975   4.568   7.079   4.200  0.4630 -0.0624 -0.5015
  834MOL0     C 9976   4.486   7.202   4.185 -0.1214 -0.6332  0.3368
  834MOL0     C 9977   4.356   7.148   4.132  0.6582 -0.1288 -0.5702
  834MOL0     C 9978   4.258   7.265   4.122 -0.3114 -0.5165 -0.6761
  834MOL0     C 9979   4.122   7.218   4.072  0.0778  0.9290 -0.4155
  834MOL0     O 9980   4.040   7.331   4.054 -0.4939 -0.5539  0.6612
  834MOL0     C 9981   3.907   7.308   4.043 -0.5112  0.3431  0.2420
  834MOL0     C 9982   3.828   7.421   4.020 -0.9960 -0.6806  0.3107
  834MOL0     C 9983   3.689   7.411   4.019 -0.9551  0.2355  0.4820
  834MOL0     C 9984   3.622   7.286   4.027 -0.6473 -0.1978 -0.2802
  834MOL0     C 9985   3.480   7.272   4.017  0.4758  0.2832  0.2381
  834MOL0     O 9986   3.415   7.384   4.053 -0.5115 -0.0040 -0.5894
  834MOL0     C 9987   3.277   7.403   4.037  0.1766 -0.6716 -0.2370
  834MOL0     C 9988   3.212   7.342   3.931 -0.4262 -0.6496  0.1138
  834MOL0     C 9989   3.079   7.377   3.909  0.4680 -0.4661 -0.2012
  834MOL0     C 9990   3.004   7.447   4.000  0.7937 -0.0141 -0.5124
  834MOL0     O 9991   2.867   7.457   3.963  0.3615 -0.2434 -0.4176
  834MOL0     C 9992   2.794   7.568   4.027 -0.5208 -0.4738 -0.2947
  834MOL0     C 9993   2.656   7.543   3.979 -0.1506  0.2367 -0.2095
  834MOL0     C 9994   2.553   7.637   4.037 -0.0154  0.3175 -0.3184
  834MOL0     C 9995   2.411   7.574   4.025  0.3222 -0.4331  0.3607
  834MOL0     C 9996   2.302   7.691   4.028 -0.2351 -0.5004  0.0319
  834MOL0     C 9997   2.168   7.644   4.083 -1.2120 -0.4198  0.1550
  834MOL0     C 9998   2.051   7.746   4.085 -0.6442 -0.4149 -1.1261
  834MOL0     C 9999   1.933   7.691   4.163  0.4443 -0.9998  0.2973
  834MOL0    Cl10000   1.952   7.741   4.335  0.2453  0.3445 -0.0584
  834MOL0     C10001   3.066   7.510   4.106 -0.5671 -0.2947  0.3947
  834MOL0     C10002   3.207   7.493   4.120 -0.1312  0.4825 -0.8225
  834MOL0     O10003   3.440   7.160   3.979  0.0387 -0.5467  0.4417
  834MOL0     C10004   3.703   7.169   4.053 -0.4889  0.3709 -0.5347
  834MOL0     C10005   3.845   7.187   4.063 -1.3390 -0.1873  0.5508
  834MOL0     N10006   4.589   6.974   4.115 -0.2120  0.0810  0.5431
  834MOL0     N10007   4.688   6.906   4.164 -0.1768 -0.7694 -0.1168
  834MOL0     C10008   5.367   7.308   3.677 -0.1589 -0.1688  0.4767
  834MOL0     C10009   5.338   7.349   3.545 -0.5467 -0.7232  0.8521
  834MOL0     C10010   5.012   7.514   3.253  0.1615  1.0527  0.2559
  834MOL0     C10011   4.878   7.478   3.221  1.4616  0.1927 -0.2586
  834MOL0     C10012   4.827   7.498   3.095  0.3568 -0.1798  0.9437
  834MOL0     C10013   4.893   7.563   2.995 -0.3388  0.2799 -0.9609
  834MOL0     O10014   4.831   7.577   2.870 -0.3929  0.1074 -0.7667
  834MOL0     C10015   4.916   7.578   2.752  0.7764  1.0758 -0.5458
  834MOL0     C10016   4.834   7.570   2.629  0.6073  0.4113 -0.0923
  834MOL0     C10017   4.762   7.435   2.624 -0.0714 -0.4620  0.7123
  834MOL0     C10018   4.674   7.425   2.499  0.2348 -0.9855 -0.0057
  834MOL0     C10019   4.653   7.284   2.446 -0.2461  0.8420 -0.0516
  834MOL0     C10020   4.633   7.175   2.395  0.4650  0.0182 -0.7805
  834MOL0     C10021   5.025   7.594   3.022  0.6835 -0.1301 -0.2581
  834MOL0     C10022   5.087   7.562   3.143 -0.7918 -0.1795  0.2542
  834MOL0     H10023   5.146   7.616   3.627 -1.0462 -1.0710 -0.7193
  834MOL0     H10024   5.186   7.536   3.854 -1.1154 -0.6920 -1.9723
  834MOL0     H10025   5.169   7.377   4.002  0.0224  0.3169  3.1900
  834MOL0     H10026   5.298   7.478   4.055 -1.9891 -0.1985  1.4821
  834MOL0     H10027   5.282   7.300   4.223 -0.1591  2.4859 -0.5342
  834MOL0     H10028   5.415   7.243   4.124  0.4450  1.3293  1.0333
  834MOL0     H10029   5.258   7.084   4.006 -2.9791  0.0545 -1.0268
  834MOL0     H10030   5.122   7.161   4.091  0.7738  0.6660  0.6055
  834MOL0     H10031   5.354   6.987   4.206 -1.3209 -2.3053  2.1671
  834MOL0     H10032   5.248   7.085   4.304  3.0920 -0.9022 -0.1146
  834MOL0     H10033   5.202   6.857   4.279  2.4338  0.9817  0.0565
  834MOL0     H10034   5.129   6.886   4.114  2.2653 -0.9589 -0.2756
  834MOL0     H10035   4.968   7.047   4.236  2.4338  1.9023  0.8763
  834MOL0     H10036   5.037   7.004   4.392 -2.9459 -1.0349  1.2152
  834MOL0     H10037   4.909   6.803   4.211  0.9563  1.8990 -0.7497
  834MOL0     H10038   4.986   6.774   4.380 -1.3802  0.3344  1.8330
  834MOL0     H10039   4.826   6.943   4.468 -2.7888 -0.0989 -0.1809
  834MOL0     H10040   4.758   6.799   4.436 -3.5370  0.8363 -1.2038
  834MOL0     H10041   4.627   7.118   4.404 -1.1672 -1.0449  0.3858
  834MOL0     H10042   4.528   7.273   4.114  0.0134  0.7615  1.7474
  834MOL0     H10043   4.467   7.250   4.281  1.5201  0.1969  0.2888
  834MOL0     H10044   4.322   7.076   4.207  1.0996 -1.7375 -1.8432
  834MOL0     H10045   4.358   7.094   4.037 -1.8484 -0.4150 -0.5235
  834MOL0     H10046   4.250   7.312   4.220 -0.8365  0.7070 -1.2957
  834MOL0     H10047   4.304   7.336   4.053  0.7024 -1.8993 -1.4896
  834MOL0     H10048   4.071   7.155   4.146 -1.0246  2.6924  0.4000
  834MOL0     H10049   4.136   7.166   3.977  5.6727  1.8316 -0.3944
  834MOL0     H10050   3.877   7.515   3.997 -1.0282 -1.0939 -1.5961
  834MOL0     H10051   3.626   7.497   4.000  0.3963  1.5148  1.5550
  834MOL0     H10052   3.235   7.256   3.870  0.4874 -0.2058 -0.1798
  834MOL0     H10053   3.028   7.325   3.829 -0.8513  0.0377  0.2809
  834MOL0     H10054   2.820   7.667   3.990  0.5531 -1.3738 -2.0631
  834MOL0     H10055   2.795   7.569   4.136 -0.2061 -2.4732 -0.2341
  834MOL0     H10056   2.625   7.442   4.007  4.5077 -2.0338 -2.2641
  834MOL0     H10057   2.654   7.543   3.870  2.0970 -0.8167 -0.2992
  834MOL0     H10058   2.562   7.725   3.972 -0.3276 -0.4876 -1.4888
  834MOL0     H10059   2.581   7.656   4.141 -0.7925 -2.6287  0.5215
  834MOL0     H10060   2.402   7.511   3.937 -0.8589  2.2434 -1.5781
  834MOL0     H10061   2.390   7.517   4.116  0.8459  1.7183  1.9371
  834MOL0     H10062   2.290   7.724   3.924 -2.4175 -0.1365  0.3544
  834MOL0     H10063   2.337   7.776   4.088 -0.1268  0.2910 -1.1159
  834MOL0     H10064   2.189   7.611   4.185 -2.2481  0.3026  0.6215
  834MOL0     H10065   2.141   7.552   4.031 -1.4774  0.5552 -1.4889
  834MOL0     H10066   2.078   7.840   4.133 -1.9590 -0.0228 -1.1248
  834MOL0     H10067   2.014   7.775   3.986 -1.0874  2.7609 -0.1313
  834MOL0     H10068   1.928   7.581   4.162 -0.0796 -0.9747 -0.0252
  834MOL0     H10069   1.839   7.725   4.119  0.1565 -0.8935  0.9862
  834MOL0     H10070   3.012   7.574   4.175  2.8358  3.0590  0.2621
  834MOL0     H10071   3.269   7.534   4.199 -0.0305  0.0408 -0.6694
  834MOL0     H10072   3.667   7.067   4.061  0.7485  0.0198  0.7844
  834MOL0     H10073   3.899   7.096   4.088 -0.8229 -1.2222 -3.5861
  834MOL0     H10074   5.422   7.215   3.684 -1.2187 -0.8360  0.1261
  834MOL0     H10075   5.376   7.291   3.462 -3.4736 -2.2335  0.4343
  834MOL0     H10076   4.824   7.435   3.305  1.7690 -0.2546 -0.2843
  834MOL0     H10077   4.724   7.468   3.078  0.2660  0.6090  0.0250
  834MOL0     H10078   4.980   7.491   2.767  1.9550  1.6788 -1.8442
  834MOL0     H10079   4.980   7.666   2.751 -0.4051  1.9929  0.7947
  834MOL0     H10080   4.754   7.644   2.633  2.7800  2.8293  2.0961
  834MOL0     H10081   4.895   7.605   2.545  2.9458 -1.3296  0.7912
  834MOL0     H10082   4.694   7.424   2.709 -1.6463 -0.6620 -0.5312
  834MOL0     H10083   4.842   7.361   2.615  2.1915  2.0112 -0.9376
  834MOL0     H10084   4.576   7.470   2.517 -0.1215  0.2461 -4.0674
  834MOL0     H10085   4.709   7.490   2.419 -0.9893  0.8812  0.8843
  834MOL0     H10086   4.624   7.080   2.346  0.1173  0.6273 -1.9352
  834MOL0     H10087   5.075   7.655   2.948  1.3513 -0.4531 -0.0807
  834MOL0     H10088   5.188   7.597   3.162  0.1077 -1.8993 -1.0119
  835MOL0     O10089   8.831   4.982   8.635  0.6058 -0.1193  0.1890
  835MOL0     C10090   8.906   4.890   8.597 -0.0623 -0.7706 -0.8405
  835MOL0     O10091   8.869   4.754   8.594  0.5023 -0.4795  0.6229
  835MOL0     C10092   8.733   4.731   8.598  0.5272  0.2724 -0.0708
  835MOL0     C10093   8.667   4.630   8.676  0.3271  0.0264  0.2364
  835MOL0     C10094   8.524   4.607   8.660 -0.4266 -0.1163 -0.2034
  835MOL0     C10095   8.448   4.690   8.574 -0.3388 -0.0860 -0.2114
  835MOL0     O10096   8.316   4.674   8.554 -0.8185  0.6466 -0.5264
  835MOL0     C10097   8.250   4.552   8.598  0.0613  0.0560  0.0335
  835MOL0     C10098   8.205   4.527   8.739 -0.1811  0.3342 -0.0287
  835MOL0     C10099   8.102   4.637   8.775  0.2241 -0.6011 -0.4071
  835MOL0     C10100   8.054   4.628   8.924  0.5488 -0.9634  1.4860
  835MOL0     C10101   7.925   4.715   8.955  0.5251  0.2099  0.6587
  835MOL0     C10102   7.806   4.664   8.882  0.5824 -0.1657 -0.4170
  835MOL0     C10103   7.670   4.721   8.933  0.5186 -0.4017  0.4935
  835MOL0     C10104   7.655   4.733   9.086  0.3070 -0.6556  0.3487
  835MOL0     N10105   7.518   4.769   9.130 -0.3080  0.7776 -0.8769
  835MOL0     C10106   7.449   4.876   9.090  0.1893 -0.9317  0.5754
  835MOL0     C10107   7.314   4.845   9.111  0.0439 -0.1012 -0.8404
  835MOL0     C10108   7.190   4.923   9.072 -0.8638  0.8404  0.3866
  835MOL0     C10109   7.110   4.965   9.201  0.1007  0.0465  0.2893
  835MOL0     C10110   6.968   5.008   9.184  0.3852  0.6412  0.0440
  835MOL0     C10111   6.866   4.902   9.132 -0.3227  0.0276  0.4378
  835MOL0     O10112   6.739   4.955   9.151  0.4129 -0.4138 -0.2790
  835MOL0     C10113   6.634   4.904   9.085  0.0620  0.3472  0.0481
  835MOL0     C10114   6.617   4.793   9.014  0.5737 -0.1896 -0.4566
  835MOL0     C10115   6.491   4.761   8.971  0.5563 -0.8344 -0.0297
  835MOL0     C10116   6.375   4.845   8.978 -0.3213  0.1760 -0.6372
  835MOL0     C10117   6.237   4.803   8.934 -0.0827  0.2095  0.0849
  835MOL0     O10118   6.132   4.891   8.954 -0.0798 -0.0349  0.3638
  835MOL0     C10119   6.008   4.855   8.906  0.0531  0.0538 -0.6897
  835MOL0     C10120   5.948   4.734   8.946 -0.0070 -0.5640  0.1538
  835MOL0     C10121   5.819   4.709   8.906 -0.4447 -0.3092  0.8403
  835MOL0     C10122   5.738   4.804   8.838  0.2662  0.2031  0.5268
  835MOL0     O10123   5.607   4.778   8.801 -0.3587 -0.1884 -0.2274
  835MOL0     C10124   5.588   4.706   8.681 -0.5041  0.6661  0.1357
  835MOL0     C10125   5.438   4.692   8.657  0.4773  0.8289 -0.2150
  835MOL0     C10126   5.358   4.818   8.627  0.7760 -0.4963 -0.3331
  835MOL0     C10127   5.210   4.784   8.606 -0.0287  0.1922 -0.7098
  835MOL0     C10128   5.125   4.896   8.549 -0.4803  0.5297  0.0042
  835MOL0     C10129   5.001   4.820   8.496 -1.0705  0.1904  0.0416
  835MOL0     C10130   4.914   4.903   8.404  0.2831 -0.4275 -0.3341
  835MOL0     C10131   4.836   4.806   8.315 -0.2072 -0.6702  0.3288
  835MOL0    Cl10132   4.928   4.735   8.172  0.1763 -0.3205  0.0383
  835MOL0     C10133   5.802   4.923   8.812 -0.4806  0.3219  0.3132
  835MOL0     C10134   5.935   4.944   8.835  0.2881  0.0321 -0.0540
  835MOL0     O10135   6.235   4.688   8.874  0.3899 -0.2266  0.6935
  835MOL0     C10136   6.397   4.972   9.047  0.0433 -0.2315 -0.1950
  835MOL0     C10137   6.530   4.996   9.102  0.8015 -0.2233  0.1670
  835MOL0     N10138   7.311   4.725   9.185 -0.7889  0.0875 -0.1904
  835MOL0     N10139   7.435   4.683   9.194  0.7446  0.3773  0.3709
  835MOL0     C10140   8.514   4.784   8.494  0.4370 -0.1637 -0.2979
  835MOL0     C10141   8.651   4.799   8.502  0.4897 -0.7704  0.2241
  835MOL0     C10142   9.048   4.918   8.571 -0.9643  0.1645 -0.3060
  835MOL0     C10143   9.144   4.815   8.564  0.6811  0.3718  0.2922
  835MOL0     C10144   9.283   4.838   8.556  0.3305  0.4250  0.7658
  835MOL0     C10145   9.326   4.968   8.577 -0.4584  0.1976  0.0106
  835MOL0     O10146   9.461   4.996   8.553 -0.2603 -0.5428 -0.1014
  835MOL0     C10147   9.520   5.130   8.545  0.3148  0.6095 -0.2791
  835MOL0     C10148   9.671   5.124   8.526  0.2229 -0.6551 -0.2933
  835MOL0     C10149   9.702   5.055   8.393  0.4629 -0.2827 -0.1860
  835MOL0     C10150   9.846   5.019   8.374 -0.3322 -0.3169  0.2931
  835MOL0     C10151   9.938   5.127   8.347  0.7857  0.6827  0.0458
  835MOL0     C10152  10.033   5.199   8.334  0.5489  0.4078 -0.1716
  835MOL0     C10153   9.237   5.075   8.586 -0.1821  0.6697 -0.4778
  835MOL0     C10154   9.103   5.049   8.585 -0.0760 -0.4861 -0.2915
  835MOL0     H10155   8.720   4.562   8.742  0.1208  0.1606  0.5471
  835MOL0     H10156   8.475   4.528   8.716 -1.9564  0.2325 -0.9965
  835MOL0     H10157   8.326   4.476   8.574  1.8853  1.4472  1.1594
  835MOL0     H10158   8.165   4.535   8.531  1.2678  0.4830 -1.6622
  835MOL0     H10159   8.288   4.523   8.811 -1.6814 -1.5859  1.7267
  835MOL0     H10160   8.150   4.433   8.746 -0.7692  0.7356  0.9252
  835MOL0     H10161   8.013   4.605   8.719 -2.1659 -0.6132  3.0322
  835MOL0     H10162   8.139   4.735   8.744  0.7423 -0.7018 -0.1063
  835MOL0     H10163   8.050   4.521   8.945 -0.2581 -0.9602  1.4107
  835MOL0     H10164   8.132   4.672   8.987 -0.5268  2.9730  0.3874
  835MOL0     H10165   7.938   4.819   8.923 -2.2885  0.5809  0.5085
  835MOL0     H10166   7.922   4.725   9.064  0.1869  0.4199  0.6311
  835MOL0     H10167   7.800   4.555   8.891 -2.0485 -0.1349 -0.8926
  835MOL0     H10168   7.815   4.690   8.777  1.7914  2.5088  0.2788
  835MOL0     H10169   7.659   4.820   8.889 -0.1978 -0.3896  0.7024
  835MOL0     H10170   7.590   4.654   8.901  2.0975 -1.1391 -2.2659
  835MOL0     H10171   7.715   4.819   9.117 -0.0048  0.9737 -3.0285
  835MOL0     H10172   7.685   4.642   9.137  1.4539 -0.7387 -0.4324
  835MOL0     H10173   7.483   4.962   9.033 -2.8572  1.1149  1.5643
  835MOL0     H10174   7.129   4.852   9.015 -1.0532  2.2166 -1.2095
  835MOL0     H10175   7.227   5.002   9.005  0.8911 -2.3866 -2.8167
  835MOL0     H10176   7.155   5.059   9.235 -1.1983  1.0698 -0.6715
  835MOL0     H10177   7.106   4.893   9.283 -0.6956 -0.3722 -0.0957
  835MOL0     H10178   6.938   5.033   9.286  0.7853 -1.6593  0.7908
  835MOL0     H10179   6.965   5.098   9.123 -1.8593  1.4239  1.1787
  835MOL0     H10180   6.877   4.810   9.191 -1.2999  0.9295  2.1196
  835MOL0     H10181   6.878   4.883   9.025 -3.9909 -1.3645  0.1518
  835MOL0     H10182   6.705   4.730   9.005  0.4923 -0.0163 -3.8265
  835MOL0     H10183   6.484   4.666   8.920 -2.2761 -0.6663 -0.1153
  835MOL0     H10184   6.002   4.663   9.007 -2.6728 -1.8765  1.1325
  835MOL0     H10185   5.777   4.612   8.934 -1.4088  0.1228  0.9298
  835MOL0     H10186   5.621   4.602   8.691 -0.5828  0.5396 -0.8251
  835MOL0     H10187   5.637   4.766   8.604 -2.9605  4.3317  1.1864
  835MOL0     H10188   5.405   4.633   8.743  0.9543 -2.8735 -2.3637
  835MOL0     H10189   5.422   4.620   8.576  0.2435 -0.1295  0.6672
  835MOL0     H10190   5.401   4.859   8.535  1.3195 -0.2222  0.0425
  835MOL0     H10191   5.362   4.888   8.710 -0.2120 -0.5729 -0.2071
  835MOL0     H10192   5.212   4.697   8.540  0.8506  0.8580 -1.5844
  835MOL0     H10193   5.169   4.765   8.706 -0.3114  0.3491 -0.7965
  835MOL0     H10194   5.186   4.941   8.470  0.0945 -2.3258 -1.3120
  835MOL0     H10195   5.098   4.970   8.624  3.5954  0.3786  1.8684
  835MOL0     H10196   4.943   4.780   8.580  1.3909 -1.6731  0.9983
  835MOL0     H10197   5.038   4.740   8.431  0.4329  0.8011  0.1220
  835MOL0     H10198   4.837   4.958   8.460 -1.1844  0.0312 -2.6889
  835MOL0     H10199   4.970   4.977   8.347  0.5720  0.1335  0.6593
  835MOL0     H10200   4.752   4.865   8.278 -0.3458 -0.9614  0.1686
  835MOL0     H10201   4.801   4.720   8.374  1.2727 -1.4789  0.0732
  835MOL0     H10202   5.739   5.003   8.776 -1.4972 -0.0951  1.1184
  835MOL0     H10203   5.978   5.041   8.813  0.8279 -0.2660 -0.3509
  835MOL0     H10204   6.314   5.043   9.046 -0.2186 -0.5417 -0.8627
  835MOL0     H10205   6.555   5.083   9.162 -3.2894 -0.2805  2.2868
  835MOL0     H10206   8.454   4.833   8.417 -0.7458 -1.7091 -0.4170
  835MOL0     H10207   8.687   4.865   8.423 -0.2962 -1.4270 -0.7150
  835MOL0     H10208   9.111   4.712   8.559  2.2292 -0.1545  0.3655
  835MOL0     H10209   9.345   4.751   8.533  0.4864  0.6315  0.3981
  835MOL0     H10210   9.487   5.183   8.634  1.8126 -0.8874  1.2366
  835MOL0     H10211   9.472   5.180   8.460  1.5564 -0.0462 -1.4143
  835MOL0     H10212   9.711   5.225   8.534 -2.7232  0.5698  0.3473
  835MOL0     H10213   9.708   5.051   8.599  1.6372 -0.8869 -1.2098
  835MOL0     H10214   9.669   5.113   8.307  2.3122  0.4155 -0.4481
  835MOL0     H10215   9.647   4.960   8.390 -0.2035  0.1214 -1.1082
  835MOL0     H10216   9.885   4.973   8.465 -2.7236 -2.8515  0.1519
  835MOL0     H10217   9.852   4.944   8.295 -0.9046 -3.5494  3.0780
  835MOL0     H10218  10.120   5.261   8.332  1.6449 -1.0891 -1.8741
  835MOL0     H10219   9.272   5.178   8.584 -1.0124  1.0472  1.8114
  835MOL0     H10220   9.037   5.128   8.619 -1.3508 -1.9598  0.7720
  836MOL0     O10221   2.810   5.716   2.045 -0.2499  0.0471  0.0478
  836MOL0     C10222   2.874   5.783   1.960 -0.5821 -0.3913 -0.0456
  836MOL0     O10223   2.828   5.881   1.875  0.2593 -0.3026 -0.5977
  836MOL0     C10224   2.710   5.871   1.809  0.7775 -0.0665  0.0751
  836MOL0     C10225   2.600   5.792   1.839 -0.0901  0.4052  0.1033
  836MOL0     C10226   2.493   5.779   1.748  0.1158  0.1756  0.0102
  836MOL0     C10227   2.470   5.866   1.647 -0.5716 -0.2743 -0.1764
  836MOL0     O10228   2.351   5.866   1.585 -0.0122 -0.0098  0.2912
  836MOL0     C10229   2.342   5.932   1.451 -0.6499 -1.3739 -0.5915
  836MOL0     C10230   2.358   5.830   1.336  1.2544 -0.3065 -0.0456
  836MOL0     C10231   2.471   5.730   1.356 -0.5273 -0.0771 -0.0991
  836MOL0     C10232   2.547   5.668   1.237 -0.0077  0.2942 -0.4186
  836MOL0     C10233   2.604   5.772   1.145  0.3399  0.4066  0.8841
  836MOL0     C10234   2.675   5.883   1.224  0.2268 -0.4572  0.8478
  836MOL0     C10235   2.732   5.993   1.117 -1.3488  0.0121  0.6948
  836MOL0     C10236   2.799   6.124   1.181  0.1546 -0.2331  0.3497
  836MOL0     N10237   2.696   6.180   1.275  0.1235 -0.2690 -0.5548
  836MOL0     C10238   2.585   6.252   1.238  0.9367 -0.3194  0.5027
  836MOL0     C10239   2.539   6.322   1.349 -0.0783  1.4949  0.6202
  836MOL0     C10240   2.439   6.427   1.351  0.3457 -0.2229  0.2445
  836MOL0     C10241   2.289   6.394   1.358 -0.2423 -0.2582 -0.1056
  836MOL0     C10242   2.252   6.269   1.273 -1.0574  0.5836 -0.8232
  836MOL0     C10243   2.106   6.225   1.287  0.6817 -1.1742 -0.2643
  836MOL0     O10244   2.092   6.090   1.253 -0.0834  0.8253 -0.3443
  836MOL0     C10245   1.971   6.029   1.218 -0.1930  0.7131  1.0543
  836MOL0     C10246   1.852   6.105   1.216 -0.2484 -1.0799  0.1302
  836MOL0     C10247   1.731   6.034   1.198 -0.2773  0.0035  0.2335
  836MOL0     C10248   1.723   5.899   1.179  0.7404 -0.7565 -0.3063
  836MOL0     C10249   1.584   5.845   1.167 -0.1783 -0.5500  0.4261
  836MOL0     O10250   1.592   5.714   1.127  0.3200 -0.3718  0.0970
  836MOL0     C10251   1.477   5.642   1.096  0.6772  0.2692  0.8731
  836MOL0     C10252   1.347   5.688   1.046 -0.2438 -0.2531 -0.6381
  836MOL0     C10253   1.241   5.600   1.014 -0.1723  1.3408 -0.6012
  836MOL0     C10254   1.267   5.465   1.020 -0.2492 -0.0698 -0.9690
  836MOL0     O10255   1.173   5.373   0.976 -0.3096 -0.8610  0.6579
  836MOL0     C10256   1.212   5.297   0.874  0.2863 -0.7382  0.2761
  836MOL0     C10257   1.097   5.272   0.786  0.2573 -0.2661  0.2314
  836MOL0     C10258   0.973   5.211   0.857  0.8481 -0.0070  0.0440
  836MOL0     C10259   0.856   5.180   0.753 -0.5302 -0.1589  0.1148
  836MOL0     C10260   0.733   5.132   0.838  0.2664  0.2706 -0.0490
  836MOL0     C10261   0.604   5.132   0.744 -0.5663 -0.3755 -0.1773
  836MOL0     C10262   0.479   5.099   0.818 -0.4544  0.4404 -0.2807
  836MOL0     C10263   0.356   5.119   0.726 -0.0069  0.0981 -0.3221
  836MOL0    Cl10264   0.299   5.289   0.726  0.4228  0.0401  0.0766
  836MOL0     C10265   1.392   5.418   1.066  0.5203  0.1426  0.5962
  836MOL0     C10266   1.498   5.503   1.091  0.5472 -0.9108 -0.0416
  836MOL0     O10267   1.479   5.909   1.189 -0.4244  0.3353 -0.2571
  836MOL0     C10268   1.846   5.826   1.183 -0.2201 -0.6235  0.2259
  836MOL0     C10269   1.969   5.889   1.191 -0.3750 -0.3186 -0.0255
  836MOL0     N10270   2.613   6.270   1.453 -0.5774 -0.5291 -0.2087
  836MOL0     N10271   2.700   6.185   1.411  0.4155 -0.0381  0.0821
  836MOL0     C10272   2.580   5.952   1.622  0.5503  0.6244 -0.4500
  836MOL0     C10273   2.699   5.961   1.699  0.3730  0.3043  0.2749
  836MOL0     C10274   3.021   5.776   1.956  0.0157  0.2927 -0.1887
  836MOL0     C10275   3.078   5.679   2.039 -0.3759 -0.2948 -0.3722
  836MOL0     C10276   3.215   5.668   2.057 -0.2923  0.5675  1.0017
  836MOL0     C10277   3.305   5.746   1.990  0.9512  0.2805  1.2343
  836MOL0     O10278   3.446   5.734   2.005 -0.4621 -0.1255  0.1348
  836MOL0     C10279   3.547   5.815   1.933  0.2122  0.2628 -0.3529
  836MOL0     C10280   3.680   5.804   2.012 -0.3026 -0.2844  0.1698
  836MOL0     C10281   3.736   5.656   2.026 -0.2002 -0.3833 -0.3713
  836MOL0     C10282   3.827   5.641   2.147  0.4846  0.1881  0.2308
  836MOL0     C10283   3.743   5.607   2.259  0.7601 -1.0853  0.0308
  836MOL0     C10284   3.697   5.575   2.371 -0.4019  0.6014 -0.3068
  836MOL0     C10285   3.254   5.847   1.905 -0.2626 -0.0032  0.6556
  836MOL0     C10286   3.108   5.870   1.894  0.0853  0.2726 -0.9064
  836MOL0     H10287   2.600   5.727   1.926 -0.4872 -0.1786 -0.3252
  836MOL0     H10288   2.416   5.703   1.764 -0.4351  0.6291 -0.4643
  836MOL0     H10289   2.413   6.013   1.433 -0.5098 -1.2186  0.5721
  836MOL0     H10290   2.241   5.972   1.439  0.8768  2.6247 -1.8849
  836MOL0     H10291   2.377   5.905   1.259  1.5052  1.1164  1.3458
  836MOL0     H10292   2.264   5.779   1.312  1.6214 -0.5807 -0.9288
  836MOL0     H10293   2.419   5.657   1.418 -1.0959 -1.3329 -1.9570
  836MOL0     H10294   2.548   5.785   1.412 -1.3879  1.3514 -0.2777
  836MOL0     H10295   2.628   5.616   1.290 -2.1562 -1.2046  1.6056
  836MOL0     H10296   2.487   5.597   1.180 -1.2773  1.4347 -0.5444
  836MOL0     H10297   2.530   5.814   1.076  0.9526  0.5366  0.2898
  836MOL0     H10298   2.672   5.715   1.080 -0.1339  3.5109 -2.6309
  836MOL0     H10299   2.758   5.852   1.289  0.4866 -0.8000  0.3580
  836MOL0     H10300   2.605   5.938   1.289  1.4159  1.3010  0.7120
  836MOL0     H10301   2.804   5.948   1.048 -1.4139  0.3125  0.4290
  836MOL0     H10302   2.641   6.024   1.065 -0.1860  1.0407 -0.7771
  836MOL0     H10303   2.817   6.197   1.102 -0.7583 -3.5719 -3.2599
  836MOL0     H10304   2.885   6.103   1.246  2.2989  1.7467 -1.6621
  836MOL0     H10305   2.559   6.272   1.134  0.8222 -1.2671  0.3378
  836MOL0     H10306   2.446   6.471   1.252 -1.5960  0.1490  0.2216
  836MOL0     H10307   2.460   6.506   1.423 -0.8411 -0.8043  1.2904
  836MOL0     H10308   2.230   6.484   1.340  0.9153  0.6398  0.4309
  836MOL0     H10309   2.271   6.349   1.456  0.0207 -1.3217 -0.5334
  836MOL0     H10310   2.279   6.291   1.169  2.1190  0.6689 -0.0762
  836MOL0     H10311   2.305   6.178   1.301 -0.0211  1.0000 -1.3682
  836MOL0     H10312   2.055   6.285   1.210  2.5477  1.1936  0.2020
  836MOL0     H10313   2.071   6.247   1.388  1.6488 -1.4940  0.1489
  836MOL0     H10314   1.855   6.210   1.242 -2.0031 -1.0715  0.4347
  836MOL0     H10315   1.641   6.096   1.199  0.4716  1.1201  1.1485
  836MOL0     H10316   1.325   5.793   1.026 -1.5531  0.1004  2.0982
  836MOL0     H10317   1.144   5.626   0.972 -1.1583 -3.5651 -1.9826
  836MOL0     H10318   1.235   5.198   0.916 -1.0281 -1.9812 -1.7629
  836MOL0     H10319   1.295   5.355   0.832  1.4716 -1.4242  1.5846
  836MOL0     H10320   1.130   5.205   0.706  3.2245 -0.2520  1.3111
  836MOL0     H10321   1.074   5.366   0.734  1.7409 -0.6793 -1.2668
  836MOL0     H10322   0.936   5.277   0.936  1.8068  0.3786  0.1842
  836MOL0     H10323   0.996   5.118   0.909 -1.1296 -0.8074 -0.4475
  836MOL0     H10324   0.830   5.277   0.710 -0.1753  0.0085  0.2712
  836MOL0     H10325   0.896   5.111   0.678 -0.7237 -1.3316  1.0716
  836MOL0     H10326   0.723   5.194   0.927  2.7184  0.4801  0.1336
  836MOL0     H10327   0.755   5.028   0.860 -0.2674  0.7507  3.1714
  836MOL0     H10328   0.602   5.050   0.672 -1.7041  0.8891 -1.6647
  836MOL0     H10329   0.581   5.227   0.695  0.4021  0.3984  0.8215
  836MOL0     H10330   0.478   4.996   0.853 -1.9757  1.0795  1.7535
  836MOL0     H10331   0.470   5.163   0.906  0.0146 -2.2407  1.8258
  836MOL0     H10332   0.271   5.058   0.757  0.4577 -0.7332 -0.6608
  836MOL0     H10333   0.385   5.100   0.622  0.8247 -0.7357  0.0437
  836MOL0     H10334   1.401   5.311   1.077 -2.5376 -0.0792  1.8298
  836MOL0     H10335   1.591   5.469   1.135  2.6696  4.2460  0.2637
  836MOL0     H10336   1.833   5.718   1.181  2.7866 -1.0637 -1.5189
  836MOL0     H10337   2.060   5.830   1.196 -0.5705 -0.6299 -0.1438
  836MOL0     H10338   2.573   6.018   1.536 -0.5699  2.7563  1.1881
  836MOL0     H10339   2.776   6.033   1.673 -1.5238  2.7987  1.1519
  836MOL0     H10340   3.013   5.608   2.091  0.5599  1.5534  3.7870
  836MOL0     H10341   3.260   5.586   2.113 -1.1790 -1.0190 -0.5216
  836MOL0     H10342   3.507   5.917   1.933  0.3438  0.3154  0.3673
  836MOL0     H10343   3.561   5.780   1.830 -2.0336 -3.3816  0.4115
  836MOL0     H10344   3.758   5.851   1.951  2.8682 -1.5776  2.9274
  836MOL0     H10345   3.674   5.859   2.106  1.1205 -0.9362  0.6605
  836MOL0     H10346   3.799   5.648   1.937 -0.3877  2.1073 -0.8215
  836MOL0     H10347   3.663   5.576   2.016  0.9924 -1.3933 -1.1338
  836MOL0     H10348   3.899   5.560   2.125 -3.0896 -2.9707 -0.9205
  836MOL0     H10349   3.880   5.735   2.164 -0.2074  0.4480  0.9524
  836MOL0     H10350   3.671   5.557   2.474  3.9668  1.4105  1.1615
  836MOL0     H10351   3.315   5.928   1.867  1.5224 -0.3780  2.5333
  836MOL0     H10352   3.069   5.949   1.830  4.0439  1.8707 -1.6450
  837MOL0     O10353   6.513   5.005   3.008 -0.2932  0.6528 -0.1614
  837MOL0     C10354   6.561   5.115   3.054 -0.6389  1.1862 -0.0947
  837MOL0     O10355   6.486   5.225   3.087  0.0767 -0.3274  0.4324
  837MOL0     C10356   6.371   5.255   3.016 -0.0128 -0.1886 -0.2381
  837MOL0     C10357   6.361   5.376   2.947 -0.7148 -0.9213  0.0933
  837MOL0     C10358   6.247   5.411   2.879 -0.2713  0.0192  0.8092
  837MOL0     C10359   6.126   5.332   2.887  0.4534  0.0901 -0.8835
  837MOL0     O10360   6.007   5.358   2.824 -0.1860  0.0110 -0.0731
  837MOL0     C10361   5.938   5.480   2.866 -0.7476  0.0949 -0.0876
  837MOL0     C10362   5.805   5.487   2.795  0.0381 -0.7994  0.4385
  837MOL0     C10363   5.720   5.610   2.848  0.0282  0.5626 -0.6060
  837MOL0     C10364   5.621   5.677   2.749 -0.7375  0.1074 -0.1130
  837MOL0     C10365   5.584   5.829   2.771  0.8890  0.3851  0.0123
  837MOL0     C10366   5.458   5.875   2.692  0.3654  0.1907  1.2908
  837MOL0     C10367   5.483   5.861   2.538 -0.1627  0.2616 -0.7172
  837MOL0     C10368   5.396   5.942   2.443 -0.2560  0.2835  0.7888
  837MOL0     N10369   5.278   5.873   2.400  0.6834 -0.0400  0.4313
  837MOL0     C10370   5.149   5.894   2.448  1.2751 -0.0348 -0.1779
  837MOL0     C10371   5.072   5.809   2.384 -0.2507  0.3262  1.1997
  837MOL0     C10372   4.931   5.807   2.396  0.3930  0.4587  0.3461
  837MOL0     C10373   4.881   5.695   2.490 -0.2728 -0.6182 -0.1616
  837MOL0     C10374   4.887   5.739   2.637  0.7866  0.1303  0.7481
  837MOL0     C10375   4.781   5.851   2.676 -0.1202 -0.4173  0.1694
  837MOL0     O10376   4.651   5.785   2.670 -0.1413 -0.5975 -0.3473
  837MOL0     C10377   4.537   5.875   2.671 -0.8970  0.1791 -0.6871
  837MOL0     C10378   4.507   5.953   2.567  0.2900  0.2550  0.9918
  837MOL0     C10379   4.410   6.057   2.573 -0.2768 -0.9917 -0.3701
  837MOL0     C10380   4.324   6.065   2.691 -0.4062 -0.4961  0.1623
  837MOL0     C10381   4.221   6.173   2.699  0.1505  0.1717 -0.5730
  837MOL0     O10382   4.235   6.265   2.600 -0.2630  0.1527 -0.5667
  837MOL0     C10383   4.125   6.334   2.557  0.2937  0.3168 -0.3339
  837MOL0     C10384   3.995   6.283   2.577  0.4809 -0.0985 -0.2652
  837MOL0     C10385   3.881   6.349   2.539  0.3054 -0.0471 -0.6009
  837MOL0     C10386   3.894   6.477   2.487 -0.2361  0.2448 -1.1164
  837MOL0     O10387   3.790   6.554   2.451 -0.6857  0.1376  0.1971
  837MOL0     C10388   3.664   6.530   2.512 -0.1663  0.3678  0.1514
  837MOL0     C10389   3.583   6.660   2.520 -0.1257 -0.2982  0.5846
  837MOL0     C10390   3.543   6.707   2.383  0.8832  0.3536  0.5871
  837MOL0     C10391   3.417   6.802   2.388 -0.8619 -0.1217  0.2387
  837MOL0     C10392   3.285   6.726   2.394 -0.1132  0.4204  0.6773
  837MOL0     C10393   3.154   6.806   2.355  0.4434  0.4907  1.0139
  837MOL0     C10394   3.031   6.714   2.369 -0.2147 -0.1899  0.2290
  837MOL0     C10395   2.898   6.787   2.349 -0.3893 -0.4074  0.8146
  837MOL0    Cl10396   2.794   6.685   2.250  0.0185 -0.0880  0.0541
  837MOL0     C10397   4.021   6.536   2.477  1.2733 -0.3736 -0.2830
  837MOL0     C10398   4.135   6.463   2.510 -0.4050  0.3534  0.8373
  837MOL0     O10399   4.135   6.164   2.785 -0.9312  0.3156 -0.2979
  837MOL0     C10400   4.337   5.959   2.783  0.2455 -0.2793 -0.0142
  837MOL0     C10401   4.443   5.874   2.771  0.5067 -0.1075  0.1330
  837MOL0     N10402   5.147   5.727   2.300 -0.0764  0.7550  0.2181
  837MOL0     N10403   5.266   5.768   2.302 -0.7505 -0.9394  0.2072
  837MOL0     C10404   6.134   5.213   2.957  0.0920  0.4571  0.7389
  837MOL0     C10405   6.255   5.174   3.023 -0.5212 -0.0210  0.5017
  837MOL0     C10406   6.706   5.112   3.089  0.1903  0.2145 -0.3249
  837MOL0     C10407   6.764   5.221   3.159  0.2897  0.5215  0.7393
  837MOL0     C10408   6.895   5.208   3.201 -0.5913 -0.0963  0.0114
  837MOL0     C10409   6.972   5.092   3.187 -0.1457 -0.1450  1.1617
  837MOL0     O10410   7.100   5.091   3.237 -0.5022  0.0415  0.3731
  837MOL0     C10411   7.174   4.964   3.233  0.1233 -0.3532 -0.2930
  837MOL0     C10412   7.310   4.984   3.300 -0.0590 -0.5151  0.8621
  837MOL0     C10413   7.384   4.854   3.343  0.5552 -0.0586 -0.4330
  837MOL0     C10414   7.525   4.871   3.407  0.7654 -0.4819 -0.3397
  837MOL0     C10415   7.621   4.943   3.319  0.7480 -0.1081  0.4438
  837MOL0     C10416   7.695   4.999   3.237  0.1673  0.1333  0.1004
  837MOL0     C10417   6.918   4.989   3.102 -0.5802  0.7206 -0.1499
  837MOL0     C10418   6.789   5.001   3.070 -0.0719 -0.3240  0.2655
  837MOL0     H10419   6.446   5.441   2.933 -1.3614  0.0773  0.6967
  837MOL0     H10420   6.241   5.501   2.819 -2.6527 -1.0070 -0.6319
  837MOL0     H10421   6.004   5.560   2.830 -2.3265  0.4539 -2.4335
  837MOL0     H10422   5.931   5.493   2.974  2.0996  3.8301 -0.1631
  837MOL0     H10423   5.753   5.391   2.799 -0.7712 -0.3723  0.3837
  837MOL0     H10424   5.822   5.504   2.688 -0.7876 -1.4638  0.1914
  837MOL0     H10425   5.789   5.691   2.873  2.2631 -1.7789  1.2235
  837MOL0     H10426   5.676   5.572   2.940  3.7943  1.3359  1.7086
  837MOL0     H10427   5.661   5.661   2.648  0.2519 -2.7851  0.6254
  837MOL0     H10428   5.528   5.621   2.757 -1.6009  1.2037 -1.8334
  837MOL0     H10429   5.670   5.891   2.745  0.5298  2.0086  2.3099
  837MOL0     H10430   5.570   5.844   2.879 -1.6151 -3.3786  0.4017
  837MOL0     H10431   5.436   5.981   2.708 -1.2219  0.5708 -2.2554
  837MOL0     H10432   5.373   5.811   2.717  1.0112 -0.0036  3.0857
  837MOL0     H10433   5.582   5.895   2.506 -0.1924  2.5377  1.3124
  837MOL0     H10434   5.469   5.754   2.522 -3.9712  0.3544  0.9647
  837MOL0     H10435   5.457   5.958   2.353  0.3188  0.3514  1.1838
  837MOL0     H10436   5.375   6.037   2.491 -1.3070  0.4568  0.0122
  837MOL0     H10437   5.117   5.955   2.532  1.7644 -0.3068  0.2067
  837MOL0     H10438   4.894   5.778   2.297  1.6547 -1.2619  0.3498
  837MOL0     H10439   4.891   5.907   2.417 -0.2750  1.0597 -3.2347
  837MOL0     H10440   4.943   5.606   2.474 -0.8098 -1.4269  1.9010
  837MOL0     H10441   4.781   5.657   2.470 -0.1285 -3.6041  3.5337
  837MOL0     H10442   4.866   5.646   2.692  0.8073 -1.1256 -1.2547
  837MOL0     H10443   4.992   5.765   2.651  1.1615  0.2231 -1.8771
  837MOL0     H10444   4.787   5.935   2.607  0.8400 -0.8187 -0.2532
  837MOL0     H10445   4.805   5.883   2.778 -0.3412 -1.9629  0.7374
  837MOL0     H10446   4.574   5.954   2.482 -2.4846  1.2614 -1.3674
  837MOL0     H10447   4.413   6.131   2.493 -0.9103 -4.4224 -3.8346
  837MOL0     H10448   3.974   6.182   2.610  1.4980 -0.3120 -0.2535
  837MOL0     H10449   3.786   6.297   2.550  0.1015  0.6741  1.6116
  837MOL0     H10450   3.677   6.486   2.611  0.5208 -0.1864 -0.1722
  837MOL0     H10451   3.612   6.456   2.451  0.4678  0.9464 -1.1367
  837MOL0     H10452   3.626   6.737   2.584 -1.7906  1.4741 -0.3070
  837MOL0     H10453   3.498   6.634   2.584  1.0988 -0.3425  2.2567
  837MOL0     H10454   3.511   6.620   2.325 -1.0483  0.6323  1.1734
  837MOL0     H10455   3.630   6.751   2.332  0.7596  0.6780  0.6515
  837MOL0     H10456   3.416   6.867   2.476  1.1276 -0.3992  0.5003
  837MOL0     H10457   3.422   6.864   2.297 -0.1679  0.8629  0.9207
  837MOL0     H10458   3.264   6.685   2.493 -1.4387 -0.8021 -0.0611
  837MOL0     H10459   3.282   6.640   2.325 -3.4242 -0.0376  1.1989
  837MOL0     H10460   3.155   6.838   2.250 -2.3637 -2.8129 -0.1976
  837MOL0     H10461   3.144   6.892   2.422 -0.6563  0.7811  0.5006
  837MOL0     H10462   3.044   6.633   2.296  1.2796  0.3437 -0.1276
  837MOL0     H10463   3.043   6.679   2.472  3.0593 -0.4394 -0.1295
  837MOL0     H10464   2.911   6.881   2.296 -3.1315 -0.6487 -0.4661
  837MOL0     H10465   2.834   6.814   2.433 -0.7256  0.9169  0.1586
  837MOL0     H10466   4.032   6.642   2.459 -1.9540  0.3830  1.4357
  837MOL0     H10467   4.236   6.491   2.481 -0.2348 -0.6573  0.3974
  837MOL0     H10468   4.257   5.939   2.854 -0.0054  2.6009  0.6308
  837MOL0     H10469   4.457   5.799   2.847 -1.2749 -0.3786  0.2428
  837MOL0     H10470   6.050   5.145   2.961  1.6680 -2.0398 -3.0537
  837MOL0     H10471   6.266   5.085   3.084  0.5676 -1.6888 -1.9499
  837MOL0     H10472   6.709   5.311   3.185  2.7104  1.5580  2.6039
  837MOL0     H10473   6.942   5.282   3.265  1.2342  0.5595 -1.9393
  837MOL0     H10474   7.191   4.934   3.129 -0.0502 -0.2808 -0.3430
  837MOL0     H10475   7.112   4.886   3.280 -1.0303  0.6825 -0.0274
  837MOL0     H10476   7.372   5.025   3.219  1.2517 -1.0504  1.5690
  837MOL0     H10477   7.287   5.050   3.383 -1.6823  0.7404 -0.5136
  837MOL0     H10478   7.402   4.794   3.253  0.8800  1.8430 -1.7092
  837MOL0     H10479   7.322   4.803   3.417  1.0457 -1.9538 -1.2801
  837MOL0     H10480   7.507   4.929   3.498 -2.9721 -1.4550 -0.2988
  837MOL0     H10481   7.553   4.769   3.432  1.5816 -0.0476  0.6199
  837MOL0     H10482   7.757   5.043   3.162 -0.8954  1.3445 -0.0914
  837MOL0     H10483   6.974   4.897   3.095 -0.7065  0.6359 -0.0424
  837MOL0     H10484   6.744   4.916   3.019  0.6862  0.3438 -1.6017
  838MOL0     O10485   6.859   1.346   3.456  0.4975 -0.4030  0.2772
  838MOL0     C10486   6.906   1.257   3.526  0.8463 -0.2788  1.1737
  838MOL0     O10487   6.842   1.157   3.581  0.5193  0.3072  0.4083
  838MOL0     C10488   6.704   1.142   3.560 -0.2730 -0.0429  0.7474
  838MOL0     C10489   6.656   1.102   3.430 -0.0990  0.6409  0.5767
  838MOL0     C10490   6.521   1.076   3.405  0.0782 -0.3641  0.4996
  838MOL0     C10491   6.425   1.085   3.500  0.1796 -0.2066 -1.4729
  838MOL0     O10492   6.297   1.068   3.456 -0.0508  0.0463 -0.0146
  838MOL0     C10493   6.189   1.135   3.533  0.0292 -0.2394 -0.5939
  838MOL0     C10494   6.201   1.278   3.487  1.2380  0.4265  0.1506
  838MOL0     C10495   6.078   1.358   3.538  0.8621  0.1134  0.2791
  838MOL0     C10496   6.109   1.513   3.517 -0.6354  0.3848  0.0631
  838MOL0     C10497   5.991   1.599   3.552 -0.6058 -0.2452  0.2491
  838MOL0     C10498   5.899   1.597   3.424  0.2313  0.3843  0.0956
  838MOL0     C10499   5.766   1.674   3.455  0.4280  0.0852  0.4815
  838MOL0     C10500   5.695   1.630   3.584 -0.2333 -0.2955  0.3776
  838MOL0     N10501   5.555   1.674   3.582 -0.2160  0.2628 -0.5568
  838MOL0     C10502   5.459   1.646   3.490 -0.2711 -0.6524 -0.3795
  838MOL0     C10503   5.366   1.750   3.502  0.5791 -0.0011  1.1698
  838MOL0     C10504   5.252   1.767   3.399 -0.5134  0.3024  0.1671
  838MOL0     C10505   5.130   1.852   3.446 -0.2542 -0.4025  0.3370
  838MOL0     C10506   5.003   1.772   3.455 -0.9313  0.0008 -1.3789
  838MOL0     C10507   4.892   1.863   3.502 -0.2288  0.2228 -0.4363
  838MOL0     O10508   4.773   1.785   3.523 -0.1661 -0.0589 -0.1688
  838MOL0     C10509   4.696   1.771   3.412  0.5590 -0.4915 -0.4145
  838MOL0     C10510   4.569   1.719   3.429  0.7348 -1.0688 -0.5432
  838MOL0     C10511   4.469   1.712   3.337  0.0083 -0.3392  0.7857
  838MOL0     C10512   4.502   1.739   3.204  0.3731 -0.3486 -0.2551
  838MOL0     C10513   4.396   1.737   3.100  0.8092 -0.2484 -0.2383
  838MOL0     O10514   4.262   1.737   3.125  0.0910  0.2085 -0.4528
  838MOL0     C10515   4.167   1.742   3.018  0.1382 -0.4331 -0.3259
  838MOL0     C10516   4.174   1.810   2.895 -0.3147  0.2809  0.1281
  838MOL0     C10517   4.073   1.802   2.797 -0.2319  0.2222 -0.8130
  838MOL0     C10518   3.948   1.743   2.822  0.0724  0.1682 -0.3726
  838MOL0     O10519   3.867   1.746   2.707 -0.5244 -0.3219 -0.0799
  838MOL0     C10520   3.736   1.704   2.728  0.5351 -0.8444  0.9603
  838MOL0     C10521   3.670   1.705   2.589 -1.4127 -0.0190 -0.0238
  838MOL0     C10522   3.519   1.657   2.594 -0.8090  0.4268 -0.3849
  838MOL0     C10523   3.455   1.736   2.479 -0.2479  0.3454 -0.2011
  838MOL0     C10524   3.319   1.681   2.450 -0.2297 -0.3015 -0.3515
  838MOL0     C10525   3.335   1.552   2.369 -0.3510  0.4667 -0.6098
  838MOL0     C10526   3.200   1.506   2.327  0.1069  0.3499 -0.3532
  838MOL0     C10527   3.198   1.376   2.245  0.0594  0.3519 -0.2686
  838MOL0    Cl10528   3.315   1.378   2.111 -0.1685 -0.0434 -0.3333
  838MOL0     C10529   3.939   1.675   2.947  0.0352  0.0916  0.2392
  838MOL0     C10530   4.043   1.683   3.045  1.4408 -0.5346  0.3188
  838MOL0     O10531   4.441   1.736   2.993  0.0617 -0.3675  0.5437
  838MOL0     C10532   4.639   1.778   3.171 -0.2680  0.3115 -0.6455
  838MOL0     C10533   4.729   1.799   3.277  0.2211 -0.1144 -0.1987
  838MOL0     N10534   5.390   1.811   3.624 -0.1294 -0.4449  0.3543
  838MOL0     N10535   5.508   1.773   3.668 -0.6245  0.7151  0.9917
  838MOL0     C10536   6.471   1.123   3.630 -0.5226 -0.4801  0.0998
  838MOL0     C10537   6.607   1.152   3.656  0.3896  0.3371  0.1403
  838MOL0     C10538   7.050   1.264   3.550 -0.6395  0.1750 -0.1779
  838MOL0     C10539   7.121   1.387   3.523 -1.0609 -0.0976  0.1298
  838MOL0     C10540   7.260   1.390   3.555 -0.0941 -0.2395 -0.0113
  838MOL0     C10541   7.327   1.280   3.603 -0.2040  0.8993 -0.1514
  838MOL0     O10542   7.465   1.277   3.619 -0.6124  0.3411  0.7235
  838MOL0     C10543   7.550   1.381   3.575 -0.5082 -0.2320  1.4650
  838MOL0     C10544   7.703   1.352   3.601 -0.8517  0.6022 -0.2272
  838MOL0     C10545   7.755   1.252   3.490  0.9939 -0.4220  0.3763
  838MOL0     C10546   7.892   1.192   3.507  0.0093  0.4795  0.8025
  838MOL0     C10547   8.007   1.281   3.504 -0.9224  0.0068 -0.2212
  838MOL0     C10548   8.110   1.351   3.492  0.2750  0.8948  0.5851
  838MOL0     C10549   7.257   1.167   3.633  0.2808 -0.3557 -0.6166
  838MOL0     C10550   7.118   1.158   3.601  0.9579  0.2725 -0.2392
  838MOL0     H10551   6.724   1.091   3.347 -0.6101  0.9062  0.1172
  838MOL0     H10552   6.490   1.061   3.302 -0.3178 -1.0896  0.7153
  838MOL0     H10553   6.194   1.130   3.642 -1.7286 -2.0761 -0.5392
  838MOL0     H10554   6.092   1.093   3.507 -1.0449  2.6368 -1.5888
  838MOL0     H10555   6.204   1.284   3.378 -0.1023  3.0782  0.1821
  838MOL0     H10556   6.296   1.312   3.530  1.6661 -0.6330  0.0558
  838MOL0     H10557   6.058   1.344   3.644  3.1943 -0.2317  0.7270
  838MOL0     H10558   5.981   1.342   3.489 -0.1338  1.6497  1.6224
  838MOL0     H10559   6.193   1.540   3.582  1.2505 -2.5339 -0.9634
  838MOL0     H10560   6.145   1.536   3.416 -2.2437  1.1348 -0.3619
  838MOL0     H10561   6.034   1.694   3.587 -1.6757  0.3527  0.0021
  838MOL0     H10562   5.933   1.553   3.632 -3.5062  2.5402 -0.0284
  838MOL0     H10563   5.879   1.495   3.392 -0.4554  0.7963 -0.8500
  838MOL0     H10564   5.951   1.660   3.351 -1.6637  1.7886 -0.1367
  838MOL0     H10565   5.772   1.782   3.441  0.2178 -0.2195 -2.8828
  838MOL0     H10566   5.699   1.640   3.375 -0.3311  3.5299 -0.5146
  838MOL0     H10567   5.751   1.678   3.665  1.3254 -2.1496  0.4785
  838MOL0     H10568   5.704   1.522   3.601  0.5090 -0.0833  1.4765
  838MOL0     H10569   5.476   1.581   3.405  0.1640 -0.1099 -0.7169
  838MOL0     H10570   5.213   1.672   3.361 -1.3856  0.2856  1.0862
  838MOL0     H10571   5.309   1.807   3.314  0.8084 -1.1015  0.3614
  838MOL0     H10572   5.112   1.929   3.371 -3.8209 -1.1626  0.2208
  838MOL0     H10573   5.150   1.889   3.547 -1.4154  3.1551 -0.6065
  838MOL0     H10574   4.981   1.716   3.364  2.1743 -2.2421 -0.8997
  838MOL0     H10575   5.013   1.689   3.525 -1.7158  1.2046  0.2152
  838MOL0     H10576   4.874   1.950   3.437  1.5515  0.1111 -1.1436
  838MOL0     H10577   4.925   1.911   3.594  0.1896 -0.5718 -0.1683
  838MOL0     H10578   4.536   1.694   3.530  0.8036  0.8357 -0.0054
  838MOL0     H10579   4.367   1.689   3.367 -0.5616 -0.9523 -1.4614
  838MOL0     H10580   4.266   1.859   2.865  0.9023 -1.4596  0.8606
  838MOL0     H10581   4.078   1.845   2.698  0.8856 -0.8885 -1.2502
  838MOL0     H10582   3.678   1.774   2.790  0.9561  1.5970 -1.2607
  838MOL0     H10583   3.727   1.600   2.760 -0.2501 -1.0925 -0.0413
  838MOL0     H10584   3.728   1.642   2.521 -1.4428 -1.6212  1.3765
  838MOL0     H10585   3.673   1.809   2.556  0.9740  0.5569  1.7977
  838MOL0     H10586   3.467   1.679   2.688 -0.5491  1.5698 -0.4923
  838MOL0     H10587   3.511   1.553   2.564 -2.1537  0.5033 -0.3478
  838MOL0     H10588   3.460   1.842   2.506 -1.4331  0.5302 -0.6413
  838MOL0     H10589   3.520   1.719   2.393  1.2261  1.4151  0.6560
  838MOL0     H10590   3.264   1.752   2.388 -0.3971 -0.2460 -0.1355
  838MOL0     H10591   3.270   1.659   2.545 -0.6820 -3.0266 -1.1131
  838MOL0     H10592   3.383   1.468   2.420 -0.0109  0.2490 -1.2706
  838MOL0     H10593   3.400   1.572   2.283  1.9304 -3.2894  0.0054
  838MOL0     H10594   3.137   1.484   2.414  1.6776  1.8837  1.2820
  838MOL0     H10595   3.139   1.581   2.276 -2.4265 -0.4725  1.2757
  838MOL0     H10596   3.103   1.360   2.192 -0.3952 -0.0945  0.6500
  838MOL0     H10597   3.224   1.295   2.314  1.9042  0.0491 -1.2603
  838MOL0     H10598   3.848   1.621   2.969 -0.4436  1.0892  0.7357
  838MOL0     H10599   4.038   1.653   3.149 -0.2396 -1.9180 -0.1225
  838MOL0     H10600   4.666   1.793   3.067  1.9560  2.2306  0.1100
  838MOL0     H10601   4.820   1.854   3.255  0.2395  0.1561  0.5439
  838MOL0     H10602   6.404   1.108   3.714 -0.5429  0.1392  0.1957
  838MOL0     H10603   6.627   1.187   3.757 -1.4433  2.5195 -0.1759
  838MOL0     H10604   7.081   1.481   3.485  0.1829  0.2131 -0.4444
  838MOL0     H10605   7.304   1.489   3.551 -1.6480  0.4374 -1.5595
  838MOL0     H10606   7.520   1.471   3.629  1.0516  0.3498  1.4213
  838MOL0     H10607   7.536   1.390   3.467  0.7269  2.1630  1.4475
  838MOL0     H10608   7.762   1.441   3.579 -0.0411  0.4396  1.1659
  838MOL0     H10609   7.727   1.311   3.700  0.5760 -0.9682 -1.1737
  838MOL0     H10610   7.757   1.309   3.396 -1.3035 -1.0998 -0.1528
  838MOL0     H10611   7.682   1.171   3.477 -0.2616  0.5330  1.2639
  838MOL0     H10612   7.891   1.146   3.606 -0.7731 -0.2745  0.4619
  838MOL0     H10613   7.901   1.102   3.447  1.0777 -1.1140  3.2164
  838MOL0     H10614   8.195   1.416   3.490 -0.2854  1.6432  0.3357
  838MOL0     H10615   7.302   1.083   3.683 -0.0320  1.3881  2.9321
  838MOL0     H10616   7.075   1.059   3.615  2.7582 -0.6546 -0.9740
  839MOL0     O10617  10.753   8.141   3.479  0.8177  0.6488 -0.1406
  839MOL0     C10618  10.738   8.146   3.359 -0.3594 -0.2905  0.0506
  839MOL0     O10619  10.622   8.149   3.294  1.2001  0.4814  0.1988
  839MOL0     C10620  10.488   8.131   3.338 -0.0556  0.6695 -0.2958
  839MOL0     C10621  10.388   8.114   3.249  0.2586 -0.1876  0.7953
  839MOL0     C10622  10.257   8.082   3.285  0.3646  0.0348  0.3133
  839MOL0     C10623  10.228   8.088   3.422  0.2357 -0.2468 -0.8256
  839MOL0     O10624  10.094   8.088   3.474 -0.8563  0.4994 -0.6381
  839MOL0     C10625   9.999   8.038   3.384  0.9431 -0.2372 -0.4835
  839MOL0     C10626   9.875   7.999   3.460 -0.5751  0.3224 -0.3713
  839MOL0     C10627   9.808   8.112   3.529  1.1535 -0.5644 -0.7468
  839MOL0     C10628   9.658   8.067   3.581 -0.7104  1.2939 -0.6118
  839MOL0     C10629   9.557   8.178   3.569 -0.0103 -0.2915  0.3284
  839MOL0     C10630   9.417   8.112   3.576  1.0056  0.6737  0.7522
  839MOL0     C10631   9.311   8.216   3.582  0.3203 -0.9673 -0.3742
  839MOL0     C10632   9.185   8.144   3.630 -0.7512 -0.2286  0.2570
  839MOL0     N10633   9.089   8.238   3.690 -0.3601 -0.6812  0.7222
  839MOL0     C10634   9.053   8.352   3.615  0.3416 -0.2900 -0.1971
  839MOL0     C10635   8.979   8.419   3.703 -0.6591  0.3343  0.3708
  839MOL0     C10636   8.907   8.546   3.688 -0.5263 -0.3808 -1.2933
  839MOL0     C10637   8.769   8.543   3.613 -0.4545 -0.3558  0.4533
  839MOL0     C10638   8.777   8.486   3.474 -0.4742 -0.3813 -0.4132
  839MOL0     C10639   8.641   8.501   3.410  0.1758  0.1399  0.0272
  839MOL0     O10640   8.649   8.435   3.286  0.3216 -0.4088  0.7025
  839MOL0     C10641   8.532   8.431   3.216  1.3027 -0.7511  0.7442
  839MOL0     C10642   8.540   8.371   3.088  0.1211 -0.1481  0.5436
  839MOL0     C10643   8.416   8.363   3.017 -0.6792 -0.5365 -0.1284
  839MOL0     C10644   8.298   8.430   3.058 -0.2187 -0.1600  0.8408
  839MOL0     C10645   8.179   8.426   2.976 -0.3485  1.0861  0.1077
  839MOL0     O10646   8.193   8.422   2.846  0.1418 -0.2571 -0.0876
  839MOL0     C10647   8.083   8.406   2.771  1.0815  0.0872  0.3139
  839MOL0     C10648   8.030   8.275   2.768  0.7058  0.7142  0.3906
  839MOL0     C10649   7.934   8.236   2.673  0.6297 -0.1349 -0.8041
  839MOL0     C10650   7.873   8.338   2.589 -0.3804  0.3458 -0.0388
  839MOL0     O10651   7.759   8.311   2.526  0.0675  0.4087 -0.1463
  839MOL0     C10652   7.638   8.388   2.554 -0.1300 -0.0843  0.2429
  839MOL0     C10653   7.548   8.387   2.429 -0.2050  0.0083 -0.5028
  839MOL0     C10654   7.417   8.469   2.466 -0.5143 -0.2750  0.5570
  839MOL0     C10655   7.327   8.472   2.342 -0.5529 -0.6925 -0.2349
  839MOL0     C10656   7.210   8.555   2.356 -0.1114  0.4779 -0.3392
  839MOL0     C10657   7.219   8.700   2.311 -0.5437 -0.4583  0.0420
  839MOL0     C10658   7.122   8.782   2.400 -0.5782  0.6006 -0.9250
  839MOL0     C10659   7.095   8.926   2.350 -0.2953  0.9021  0.6265
  839MOL0    Cl10660   7.005   9.027   2.461 -0.1806  0.1850 -0.0624
  839MOL0     C10661   7.923   8.472   2.598 -0.0817  0.4592  0.8029
  839MOL0     C10662   8.031   8.505   2.683 -0.5097  0.0673  0.9768
  839MOL0     O10663   8.078   8.422   3.038  0.4730 -0.6814  0.1000
  839MOL0     C10664   8.296   8.498   3.178 -0.0063  0.1888 -0.9342
  839MOL0     C10665   8.405   8.495   3.259  0.2203 -0.0200  0.0469
  839MOL0     N10666   8.966   8.340   3.811  0.2123  0.0033 -0.9200
  839MOL0     N10667   9.040   8.238   3.814 -0.3066  0.3493  0.2398
  839MOL0     C10668  10.321   8.123   3.512  0.3574 -1.0453  0.7713
  839MOL0     C10669  10.458   8.138   3.474 -0.5870 -0.0405  0.2508
  839MOL0     C10670  10.852   8.164   3.283 -1.2069 -0.2942 -0.2662
  839MOL0     C10671  10.835   8.230   3.155 -1.4500  0.8440 -0.2562
  839MOL0     C10672  10.948   8.278   3.085  0.3812  0.4400 -0.0124
  839MOL0     C10673  11.074   8.271   3.138 -0.2905  0.1175 -1.0697
  839MOL0     O10674  11.181   8.329   3.072 -0.3703 -0.0623  0.9927
  839MOL0     C10675  11.175   8.377   2.931 -0.0237  0.8472  0.7436
  839MOL0     C10676  11.317   8.421   2.872  0.5334 -0.3471  0.2706
  839MOL0     C10677  11.406   8.488   2.973  0.7163 -1.5217 -0.1634
  839MOL0     C10678  11.340   8.624   3.029 -0.4968 -0.2868  0.3502
  839MOL0     C10679  11.317   8.718   2.918 -0.0539  0.6386 -0.4408
  839MOL0     C10680  11.284   8.775   2.813 -0.1781 -0.0426  0.9739
  839MOL0     C10681  11.086   8.224   3.272  0.1938  0.1424  0.4375
  839MOL0     C10682  10.983   8.163   3.343 -0.0274 -0.4609  0.2540
  839MOL0     H10683  10.425   8.096   3.148  4.7756 -3.9815  2.7484
  839MOL0     H10684  10.191   8.057   3.203  1.5175 -1.9523 -0.0735
  839MOL0     H10685  10.028   7.956   3.317 -1.3121 -0.3239 -1.4703
  839MOL0     H10686   9.974   8.118   3.314 -2.4471 -1.4212 -0.8287
  839MOL0     H10687   9.911   7.933   3.539 -1.2313  2.0737  1.4631
  839MOL0     H10688   9.792   7.962   3.398  0.8097  2.0211 -3.5087
  839MOL0     H10689   9.793   8.192   3.456  0.8056 -0.1852 -0.2625
  839MOL0     H10690   9.870   8.159   3.606  1.6020  3.6787 -3.3716
  839MOL0     H10691   9.626   7.974   3.533  0.0089 -0.9195  2.8642
  839MOL0     H10692   9.673   8.046   3.687  1.4310  2.0142 -0.7334
  839MOL0     H10693   9.571   8.236   3.478 -0.4748  0.7527  0.9102
  839MOL0     H10694   9.565   8.244   3.656 -1.8710 -2.1272  2.0052
  839MOL0     H10695   9.419   8.045   3.662  2.0110  1.2823  1.2257
  839MOL0     H10696   9.416   8.052   3.484  1.7146  0.3348  0.9593
  839MOL0     H10697   9.329   8.281   3.668 -1.5565 -1.1038  0.1700
  839MOL0     H10698   9.305   8.260   3.481 -1.3486 -1.3515 -0.4736
  839MOL0     H10699   9.216   8.077   3.710  1.4555  0.8824  0.4098
  839MOL0     H10700   9.153   8.087   3.542  2.7572  0.5347 -1.6864
  839MOL0     H10701   9.070   8.395   3.517 -1.3602  1.1641  0.0982
  839MOL0     H10702   8.979   8.622   3.657  2.1414 -2.5237 -0.7723
  839MOL0     H10703   8.873   8.580   3.786 -2.9917 -0.5941 -2.0010
  839MOL0     H10704   8.745   8.649   3.600 -1.1128 -0.0873  3.2699
  839MOL0     H10705   8.683   8.503   3.668 -2.5057  1.9239 -0.8975
  839MOL0     H10706   8.851   8.530   3.406 -1.6343  3.2961  0.4782
  839MOL0     H10707   8.799   8.379   3.475  1.6639 -0.0085  1.8343
  839MOL0     H10708   8.611   8.605   3.392  0.7719 -0.0626 -2.4743
  839MOL0     H10709   8.566   8.454   3.473 -1.0945 -0.7752 -2.0494
  839MOL0     H10710   8.634   8.335   3.046 -0.8459  0.1519 -2.0701
  839MOL0     H10711   8.409   8.312   2.921  0.3844 -0.6956 -0.1335
  839MOL0     H10712   8.085   8.216   2.840  4.2299  2.2843 -0.7771
  839MOL0     H10713   7.907   8.131   2.663  1.3032 -0.3206 -0.7149
  839MOL0     H10714   7.656   8.491   2.587  2.6352 -0.7580  1.0455
  839MOL0     H10715   7.600   8.331   2.640  1.5501 -0.2217  0.9248
  839MOL0     H10716   7.514   8.284   2.411  1.1157 -0.0217 -3.2181
  839MOL0     H10717   7.607   8.417   2.342  0.9450 -0.4373  0.0968
  839MOL0     H10718   7.461   8.567   2.489  1.4779 -0.6270 -1.3806
  839MOL0     H10719   7.363   8.420   2.548 -1.3950 -0.4841 -0.1431
  839MOL0     H10720   7.381   8.503   2.252 -1.9848 -2.1718 -1.6861
  839MOL0     H10721   7.295   8.371   2.314  2.4785 -1.5048 -1.1997
  839MOL0     H10722   7.193   8.558   2.464 -0.5543 -1.2082 -0.3254
  839MOL0     H10723   7.119   8.510   2.316  0.3030 -2.4155  1.6182
  839MOL0     H10724   7.192   8.705   2.206  0.1185 -0.8386 -0.1536
  839MOL0     H10725   7.318   8.741   2.336 -1.4281  1.8815 -0.0452
  839MOL0     H10726   7.023   8.735   2.396  0.1116 -0.9066 -1.1453
  839MOL0     H10727   7.158   8.781   2.503 -0.2706 -0.9910 -1.0206
  839MOL0     H10728   7.027   8.915   2.265 -0.0853  0.7335  0.4801
  839MOL0     H10729   7.189   8.970   2.318  1.0046 -0.5555  2.2614
  839MOL0     H10730   7.887   8.560   2.546 -0.6615 -0.0687  0.3008
  839MOL0     H10731   8.053   8.611   2.683 -3.6469  0.8185  2.0072
  839MOL0     H10732   8.205   8.549   3.209  1.0901  1.7397 -0.1761
  839MOL0     H10733   8.406   8.552   3.351 -0.2621  0.3670 -0.1849
  839MOL0     H10734  10.293   8.150   3.613 -0.6055  0.5606  0.1119
  839MOL0     H10735  10.527   8.152   3.556  0.1058 -0.2075 -0.2920
  839MOL0     H10736  10.734   8.234   3.116 -2.4524  0.9061  2.1811
  839MOL0     H10737  10.929   8.311   2.984 -0.9820 -2.1595 -0.7160
  839MOL0     H10738  11.105   8.461   2.922 -0.2974  0.5311 -0.1881
  839MOL0     H10739  11.131   8.301   2.865 -2.2661  0.6019  2.3954
  839MOL0     H10740  11.354   8.324   2.837 -1.4093 -1.3516  0.9046
  839MOL0     H10741  11.291   8.478   2.782 -1.9879 -1.2533  0.3682
  839MOL0     H10742  11.505   8.516   2.937  1.2924 -4.2534 -0.9297
  839MOL0     H10743  11.427   8.428   3.062  0.7189  0.2274  1.0695
  839MOL0     H10744  11.245   8.609   3.082  0.0149 -0.3888  1.2581
  839MOL0     H10745  11.407   8.669   3.103  0.2800 -2.2445  0.8932
  839MOL0     H10746  11.266   8.824   2.719 -0.6031  0.5948  1.3845
  839MOL0     H10747  11.176   8.239   3.331  0.1916  3.4311 -0.2090
  839MOL0     H10748  10.998   8.138   3.447 -0.2358  0.6521  0.5606
  840MOL0     O10749   9.886   8.698   4.723  0.3184 -0.7499 -0.0841
  840MOL0     C10750   9.881   8.818   4.750  0.1260 -0.1327  1.2448
  840MOL0     O10751   9.776   8.902   4.723 -0.5326  0.1345  0.3461
  840MOL0     C10752   9.653   8.851   4.678  0.0199  0.0428  0.4624
  840MOL0     C10753   9.587   8.750   4.741 -0.3737  1.6161 -0.1630
  840MOL0     C10754   9.465   8.702   4.688  1.0665 -0.2561 -0.4724
  840MOL0     C10755   9.414   8.764   4.567 -0.0865  1.1859  0.8039
  840MOL0     O10756   9.286   8.754   4.515 -0.4700 -0.0709  1.1568
  840MOL0     C10757   9.176   8.725   4.602  0.3992 -0.5091  0.3790
  840MOL0     C10758   9.108   8.856   4.660 -0.6742 -0.6181 -0.1285
  840MOL0     C10759   9.003   8.803   4.749  0.2917 -0.5330 -0.4734
  840MOL0     C10760   8.884   8.892   4.776 -0.9742  0.5659 -0.8634
  840MOL0     C10761   8.757   8.807   4.822  0.5094 -0.9660  0.0560
  840MOL0     C10762   8.630   8.883   4.857 -0.6025 -0.0277 -0.3083
  840MOL0     C10763   8.637   8.948   4.992 -0.7284  0.2634 -0.0551
  840MOL0     C10764   8.505   9.022   5.023  0.2204  0.1089  0.1805
  840MOL0     N10765   8.446   8.979   5.146  0.1176  0.5258 -0.0754
  840MOL0     C10766   8.326   8.909   5.158 -1.0682  0.8675  0.7559
  840MOL0     C10767   8.294   8.913   5.291 -0.4664  0.1200 -0.7033
  840MOL0     C10768   8.171   8.858   5.371  0.2552 -0.1255 -0.7281
  840MOL0     C10769   8.045   8.838   5.284  0.2490 -0.5106 -0.5689
  840MOL0     C10770   7.935   8.754   5.351 -0.1678  0.0629 -0.4811
  840MOL0     C10771   7.950   8.607   5.335 -0.5955  0.0865 -0.1148
  840MOL0     O10772   7.919   8.582   5.195  0.1454  0.7791 -0.5704
  840MOL0     C10773   7.812   8.493   5.189 -0.1132 -1.2149 -1.0087
  840MOL0     C10774   7.680   8.539   5.177  0.6905  0.3646 -0.1430
  840MOL0     C10775   7.579   8.447   5.176  0.7422  0.4771 -0.1826
  840MOL0     C10776   7.603   8.306   5.192  0.2916 -0.6470  0.5531
  840MOL0     C10777   7.502   8.205   5.193  0.5188  0.0141  0.3168
  840MOL0     O10778   7.539   8.073   5.198  0.2643 -0.2570  0.6055
  840MOL0     C10779   7.443   7.985   5.229  0.7901  0.2653 -0.5066
  840MOL0     C10780   7.454   7.920   5.354 -0.0774 -0.5890 -0.1166
  840MOL0     C10781   7.375   7.800   5.391  0.1649  0.2876  0.2375
  840MOL0     C10782   7.273   7.763   5.301  0.5116  0.4522 -0.8876
  840MOL0     O10783   7.198   7.648   5.318 -0.1595 -0.1107 -0.6793
  840MOL0     C10784   7.096   7.655   5.421 -0.8880  1.2531 -0.1669
  840MOL0     C10785   6.985   7.759   5.417  0.0717  0.4241  0.0389
  840MOL0     C10786   6.839   7.702   5.413 -0.1791 -0.0890  0.2760
  840MOL0     C10787   6.809   7.656   5.545 -0.1032 -0.6462 -0.1009
  840MOL0     C10788   6.668   7.591   5.556 -0.9585  0.3745 -0.1583
  840MOL0     C10789   6.550   7.685   5.531 -0.4127  0.1841  0.4715
  840MOL0     C10790   6.418   7.616   5.586 -1.3862 -1.1923  0.2760
  840MOL0     C10791   6.300   7.720   5.592  0.3870  0.5875  0.1179
  840MOL0    Cl10792   6.244   7.736   5.421  0.1291  0.1917  0.2647
  840MOL0     C10793   7.253   7.847   5.184 -0.6799 -0.5231  0.7265
  840MOL0     C10794   7.340   7.947   5.145 -0.2873  0.5266  0.3421
  840MOL0     O10795   7.388   8.246   5.200 -0.1609  0.5235  0.6676
  840MOL0     C10796   7.742   8.262   5.196  0.0026  0.0427  0.4533
  840MOL0     C10797   7.846   8.357   5.203  0.5254  0.6517  0.6325
  840MOL0     N10798   8.391   8.979   5.358 -0.1682 -0.2475 -0.2689
  840MOL0     N10799   8.481   9.015   5.273 -0.4451  0.6491  0.0732
  840MOL0     C10800   9.482   8.870   4.504 -0.3097 -0.3736  0.5541
  840MOL0     C10801   9.605   8.913   4.556 -0.7238  0.8953  0.3200
  840MOL0     C10802  10.000   8.871   4.817 -0.1668  0.7584 -0.3801
  840MOL0     C10803  10.119   8.803   4.821  0.0202 -0.1517  0.7259
  840MOL0     C10804  10.225   8.854   4.904 -0.1025  0.0410 -0.7874
  840MOL0     C10805  10.207   8.967   4.978  0.5212  0.4186 -0.1110
  840MOL0     O10806  10.299   9.014   5.067  0.4233 -0.4907 -0.1597
  840MOL0     C10807  10.338   8.920   5.165  0.7495  0.0246  0.9663
  840MOL0     C10808  10.402   8.987   5.286 -0.1269 -0.0141 -0.3510
  840MOL0     C10809  10.520   9.077   5.243  0.1451  0.1851 -0.3310
  840MOL0     C10810  10.578   9.179   5.336 -0.7243 -0.2819 -0.6614
  840MOL0     C10811  10.691   9.257   5.282  0.4158  1.0660  0.3789
  840MOL0     C10812  10.785   9.317   5.229  0.7874  0.2887 -0.6468
  840MOL0     C10813  10.088   9.038   4.969 -0.5209 -0.4977  0.6422
  840MOL0     C10814   9.989   8.985   4.896  0.2236  0.1098 -0.0422
  840MOL0     H10815   9.629   8.699   4.827  0.4414  0.4135 -1.2258
  840MOL0     H10816   9.418   8.621   4.743  1.5864  1.4942  2.8226
  840MOL0     H10817   9.205   8.656   4.681 -2.8692 -0.7380  1.5333
  840MOL0     H10818   9.100   8.665   4.552 -0.7215  1.4377 -0.3963
  840MOL0     H10819   9.062   8.926   4.589  0.8713  2.0330  1.3381
  840MOL0     H10820   9.179   8.907   4.725  2.5903 -0.2183 -3.6243
  840MOL0     H10821   9.043   8.758   4.840 -0.2606 -0.9456 -0.4319
  840MOL0     H10822   8.952   8.718   4.704  0.1043 -1.1604  0.8824
  840MOL0     H10823   8.911   8.971   4.845 -2.5481 -0.3700  0.9125
  840MOL0     H10824   8.866   8.945   4.682 -3.8358  0.4773 -0.4553
  840MOL0     H10825   8.779   8.743   4.908 -0.5930  0.7151  1.6342
  840MOL0     H10826   8.728   8.748   4.734 -0.8368  0.5708 -0.5615
  840MOL0     H10827   8.546   8.815   4.845  0.9635 -2.2817  0.7031
  840MOL0     H10828   8.614   8.961   4.783 -1.8626 -0.4054 -0.4556
  840MOL0     H10829   8.650   8.875   5.072 -0.2760  0.6282  0.2046
  840MOL0     H10830   8.721   9.017   5.005 -0.5654 -0.0818  0.8260
  840MOL0     H10831   8.440   9.003   4.938  2.7503 -1.2547 -1.5829
  840MOL0     H10832   8.519   9.131   5.028 -1.3474  0.3777 -0.6097
  840MOL0     H10833   8.259   8.861   5.088  0.8915 -1.5645  0.3577
  840MOL0     H10834   8.147   8.928   5.452 -0.4082 -0.5944 -0.5112
  840MOL0     H10835   8.201   8.773   5.434 -2.2768 -0.4488  0.1814
  840MOL0     H10836   8.067   8.801   5.183 -0.2860  2.4777 -1.8932
  840MOL0     H10837   8.003   8.938   5.270  1.6640  0.7154  2.8648
  840MOL0     H10838   7.911   8.772   5.456 -1.1414 -1.5399 -0.3971
  840MOL0     H10839   7.837   8.782   5.312  0.5705  1.5654 -1.3557
  840MOL0     H10840   7.875   8.564   5.403 -0.3562  1.0471  0.7654
  840MOL0     H10841   8.048   8.573   5.368 -0.4273  2.4950  2.1202
  840MOL0     H10842   7.665   8.647   5.178 -0.6135  0.2065  1.3127
  840MOL0     H10843   7.476   8.481   5.176  0.1968 -1.0090  1.3579
  840MOL0     H10844   7.536   7.952   5.418 -0.8499  1.8785 -0.2828
  840MOL0     H10845   7.397   7.749   5.484  2.8969  0.7841 -0.0482
  840MOL0     H10846   7.136   7.658   5.523  0.2748  1.8941 -0.6211
  840MOL0     H10847   7.049   7.556   5.413  0.8573  0.2633  1.1651
  840MOL0     H10848   6.988   7.801   5.316  0.0604 -1.4793 -0.7924
  840MOL0     H10849   7.016   7.842   5.481  4.8798  2.2612 -4.0398
  840MOL0     H10850   6.826   7.615   5.347  2.7159 -0.2086 -0.2619
  840MOL0     H10851   6.781   7.783   5.368 -0.9055 -1.0770 -0.6492
  840MOL0     H10852   6.884   7.585   5.580  1.5122 -0.1255 -2.2598
  840MOL0     H10853   6.813   7.741   5.614  0.1087 -1.4146  0.8484
  840MOL0     H10854   6.670   7.539   5.652  1.0422  0.7309  0.0354
  840MOL0     H10855   6.662   7.510   5.482 -2.5297 -0.3466  0.7074
  840MOL0     H10856   6.546   7.690   5.422  1.7953 -3.3506  0.0649
  840MOL0     H10857   6.557   7.785   5.575 -2.1487  1.7372 -2.4156
  840MOL0     H10858   6.379   7.539   5.518  0.1436 -1.1532 -0.6833
  840MOL0     H10859   6.437   7.582   5.688  0.1232 -0.5678  0.2308
  840MOL0     H10860   6.335   7.817   5.631  1.4515 -0.7542  2.7526
  840MOL0     H10861   6.215   7.672   5.641  1.5562 -0.0059  1.6387
  840MOL0     H10862   7.176   7.808   5.119 -1.6712  0.4836  1.2651
  840MOL0     H10863   7.348   7.999   5.049  0.0957 -0.7520 -0.3418
  840MOL0     H10864   7.762   8.155   5.199  1.0236  0.1716 -0.8560
  840MOL0     H10865   7.951   8.330   5.209  0.1159 -1.3507 -0.3072
  840MOL0     H10866   9.442   8.919   4.416  0.7989 -1.9657 -0.9136
  840MOL0     H10867   9.664   8.997   4.520  2.1502 -1.5617 -1.0651
  840MOL0     H10868  10.127   8.710   4.768 -0.0503  0.6495 -0.7338
  840MOL0     H10869  10.310   8.786   4.907  0.9100  1.2033 -1.9425
  840MOL0     H10870  10.415   8.857   5.120 -0.2386 -0.3799 -0.2043
  840MOL0     H10871  10.259   8.861   5.212  3.0978 -1.5192  3.2140
  840MOL0     H10872  10.327   9.049   5.336 -1.1384 -0.9475 -0.6685
  840MOL0     H10873  10.439   8.907   5.351 -1.0740 -0.1972 -0.0206
  840MOL0     H10874  10.484   9.126   5.152  0.3698 -0.5258 -0.8138
  840MOL0     H10875  10.609   9.016   5.226 -0.1974 -0.5835  0.5621
  840MOL0     H10876  10.496   9.247   5.362  0.4664  0.7639  0.4804
  840MOL0     H10877  10.602   9.130   5.431 -2.4687  0.0651  0.0044
  840MOL0     H10878  10.867   9.373   5.189  2.4726 -1.1323  0.6505
  840MOL0     H10879  10.078   9.130   5.024 -0.8436  0.8621 -1.5739
  840MOL0     H10880   9.886   9.021   4.900 -0.1257 -0.8460 -0.1461
  841MOL0     O10881   1.413  10.872   9.020  0.4087 -0.0554  0.5785
  841MOL0     C10882   1.357  10.885   8.908 -0.4387 -0.6479 -0.0846
  841MOL0     O10883   1.420  10.885   8.789 -0.3195  0.1299  0.3046
  841MOL0     C10884   1.553  10.851   8.782  0.5108 -0.2683  0.0402
  841MOL0     C10885   1.590  10.725   8.831 -0.2693 -0.6454 -0.3268
  841MOL0     C10886   1.725  10.698   8.821 -1.4089 -0.3381 -0.1164
  841MOL0     C10887   1.818  10.792   8.772  0.3547 -0.3317 -0.1140
  841MOL0     O10888   1.951  10.758   8.792  0.1460 -0.2513  0.2199
  841MOL0     C10889   2.036  10.857   8.855 -0.7512 -0.4858 -0.0472
  841MOL0     C10890   2.167  10.780   8.929 -0.1624  0.2935 -1.3132
  841MOL0     C10891   2.118  10.727   9.066 -0.8125 -0.9715  0.3513
  841MOL0     C10892   2.189  10.594   9.115  0.6700 -0.1341  0.3980
  841MOL0     C10893   2.320  10.632   9.180  0.0661 -0.0559  0.1616
  841MOL0     C10894   2.299  10.683   9.326 -0.1573 -0.0589  0.7347
  841MOL0     C10895   2.423  10.709   9.399 -0.2773  0.0538  0.2825
  841MOL0     C10896   2.409  10.766   9.540  0.3279  0.8942  0.0771
  841MOL0     N10897   2.350  10.898   9.541 -0.2711 -0.1183  0.4002
  841MOL0     C10898   2.354  10.986   9.437  1.0832  0.1581  0.4703
  841MOL0     C10899   2.257  11.075   9.469 -0.3749 -0.2839  0.2908
  841MOL0     C10900   2.237  11.196   9.377  0.3482  0.2591 -0.5386
  841MOL0     C10901   2.154  11.295   9.459 -0.7407  0.7058 -0.5618
  841MOL0     C10902   2.150  11.418   9.377 -0.7049  0.2530  0.3841
  841MOL0     C10903   2.078  11.533   9.448  0.1809  0.3761 -0.3246
  841MOL0     O10904   1.934  11.536   9.470 -0.5166 -0.0474  0.3354
  841MOL0     C10905   1.848  11.574   9.369  0.4561 -0.7474  0.9495
  841MOL0     C10906   1.890  11.615   9.241  0.4996 -0.4862 -0.0225
  841MOL0     C10907   1.800  11.635   9.134  0.2112 -0.1006 -0.0816
  841MOL0     C10908   1.664  11.625   9.152  0.0087  1.2399  0.4045
  841MOL0     C10909   1.563  11.652   9.041 -0.0989 -0.8195  0.1938
  841MOL0     O10910   1.437  11.690   9.080  0.2292 -0.3926  0.1601
  841MOL0     C10911   1.346  11.723   8.980  0.1394 -0.2688  0.7303
  841MOL0     C10912   1.306  11.862   8.963  0.0219  0.0455 -0.9266
  841MOL0     C10913   1.223  11.902   8.861  0.5594  0.8595 -0.4375
  841MOL0     C10914   1.179  11.799   8.767 -0.4019 -0.6519 -0.1204
  841MOL0     O10915   1.106  11.843   8.665 -0.1838 -0.3818 -0.3702
  841MOL0     C10916   1.043  11.752   8.581 -0.0663  0.2889 -0.2226
  841MOL0     C10917   0.990  11.829   8.465  0.4327 -0.0902  0.1161
  841MOL0     C10918   0.851  11.879   8.500 -0.1647 -0.2184 -0.6363
  841MOL0     C10919   0.777  11.905   8.362  0.2041  0.2188  0.0880
  841MOL0     C10920   0.653  11.986   8.367 -0.0255  0.4671  0.3286
  841MOL0     C10921   0.653  12.113   8.453  0.0159  0.2212 -0.3201
  841MOL0     C10922   0.746  12.231   8.407  0.7120  0.4195 -0.4554
  841MOL0     C10923   0.690  12.325   8.295 -0.2464 -0.0092 -0.3884
  841MOL0    Cl10924   0.576  12.445   8.364  0.0868  0.3645  0.2993
  841MOL0     C10925   1.199  11.663   8.790  0.3967 -0.2173 -0.5457
  841MOL0     C10926   1.292  11.633   8.899  0.6717  0.4967 -0.7098
  841MOL0     O10927   1.600  11.639   8.925 -0.1242 -0.7906 -0.0431
  841MOL0     C10928   1.620  11.605   9.281  0.4051 -0.3985 -0.3049
  841MOL0     C10929   1.709  11.569   9.387  0.4473 -1.1809 -0.5790
  841MOL0     N10930   2.191  11.042   9.589  0.1950 -0.0261  0.2350
  841MOL0     N10931   2.246  10.931   9.626 -0.2975 -0.1822 -0.2270
  841MOL0     C10932   1.772  10.912   8.724 -0.2802  0.0361  0.5139
  841MOL0     C10933   1.637  10.941   8.724  0.9199  0.3917  1.4190
  841MOL0     C10934   1.217  10.896   8.888 -0.9890 -0.6695  1.1170
  841MOL0     C10935   1.159  10.943   8.767  0.1254  0.2839  0.4065
  841MOL0     C10936   1.020  10.955   8.755 -0.1090 -0.7513  0.2062
  841MOL0     C10937   0.937  10.909   8.854  1.3027  0.6006 -0.0204
  841MOL0     O10938   0.806  10.907   8.819  0.0325  0.2818  0.0004
  841MOL0     C10939   0.702  10.964   8.906  0.0186  0.0445  0.5212
  841MOL0     C10940   0.589  11.009   8.811 -0.5151  0.3409 -0.2233
  841MOL0     C10941   0.646  11.118   8.710  0.2464  0.0804  0.1150
  841MOL0     C10942   0.551  11.136   8.593  0.2611  0.0536  0.3711
  841MOL0     C10943   0.442  11.225   8.616 -0.3971  0.2631 -0.5756
  841MOL0     C10944   0.352  11.298   8.651  0.3143 -0.3432  0.2634
  841MOL0     C10945   0.998  10.870   8.973  0.0329 -0.8583 -1.1154
  841MOL0     C10946   1.135  10.876   8.996  0.2494 -0.2106 -0.3816
  841MOL0     H10947   1.515  10.671   8.888  2.0438 -1.9033  1.7589
  841MOL0     H10948   1.772  10.616   8.874  0.7367  1.3506  0.7609
  841MOL0     H10949   1.981  10.920   8.926 -0.5675 -0.9339  0.5006
  841MOL0     H10950   2.080  10.920   8.778 -0.9205 -0.7778 -0.3873
  841MOL0     H10951   2.251  10.849   8.938 -0.1242  0.2059 -0.9681
  841MOL0     H10952   2.205  10.697   8.868 -0.8290 -1.0522  0.0251
  841MOL0     H10953   2.011  10.705   9.058 -0.2681 -5.0984  1.9554
  841MOL0     H10954   2.131  10.805   9.141 -3.5642  1.2905 -1.3663
  841MOL0     H10955   2.119  10.541   9.181 -1.1492  3.2210  1.4083
  841MOL0     H10956   2.216  10.516   9.043  0.3871  1.0413 -1.0380
  841MOL0     H10957   2.378  10.699   9.115  2.7598 -3.9701 -1.9127
  841MOL0     H10958   2.390  10.548   9.188  1.7652  1.2172 -0.7131
  841MOL0     H10959   2.239  10.606   9.374 -0.4937  0.2849  0.8689
  841MOL0     H10960   2.243  10.777   9.321 -1.6905 -0.9943 -0.1691
  841MOL0     H10961   2.467  10.609   9.413 -1.6703 -0.4446  1.4022
  841MOL0     H10962   2.490  10.783   9.355 -1.2320  1.0836  0.5282
  841MOL0     H10963   2.507  10.783   9.587  1.7173 -1.5695 -1.6889
  841MOL0     H10964   2.357  10.698   9.608  1.8107  0.8479  1.2327
  841MOL0     H10965   2.426  10.990   9.356 -0.6249 -3.8602 -1.5569
  841MOL0     H10966   2.189  11.165   9.284  0.5515 -0.7642 -0.3105
  841MOL0     H10967   2.336  11.236   9.351 -0.2324  1.0025 -1.7082
  841MOL0     H10968   2.202  11.319   9.554  1.3945  2.2572 -1.9182
  841MOL0     H10969   2.055  11.250   9.460 -0.1911 -0.6629  2.8206
  841MOL0     H10970   2.255  11.447   9.362 -0.7161  0.6603  1.0516
  841MOL0     H10971   2.109  11.402   9.277  0.7680  0.4396 -0.2723
  841MOL0     H10972   2.108  11.626   9.399  1.6145 -0.5768 -1.3289
  841MOL0     H10973   2.132  11.550   9.542 -1.7825  4.1699  0.2918
  841MOL0     H10974   1.994  11.616   9.210 -0.5481 -0.2497 -4.0771
  841MOL0     H10975   1.833  11.657   9.033 -2.8933  2.6504 -0.6778
  841MOL0     H10976   1.352  11.916   9.046  0.3274 -2.4591  0.6393
  841MOL0     H10977   1.190  12.006   8.857 -1.4660  0.2614 -0.3537
  841MOL0     H10978   0.962  11.696   8.629 -0.6809  1.3194 -0.0116
  841MOL0     H10979   1.121  11.687   8.540  0.0496 -1.1772  2.1390
  841MOL0     H10980   0.988  11.760   8.380  0.0308  0.4015 -0.2732
  841MOL0     H10981   1.052  11.916   8.440  1.1720 -1.0696 -1.7132
  841MOL0     H10982   0.870  11.974   8.550  2.4750  0.5797 -2.8778
  841MOL0     H10983   0.800  11.808   8.566  0.0878  2.2900  2.4939
  841MOL0     H10984   0.837  11.976   8.304 -0.4474 -0.1067 -1.0076
  841MOL0     H10985   0.773  11.809   8.308 -1.1344  1.9663 -3.1872
  841MOL0     H10986   0.570  11.921   8.399 -0.3376  1.2624  1.1649
  841MOL0     H10987   0.624  12.016   8.265  3.5182  0.4617 -0.8009
  841MOL0     H10988   0.685  12.095   8.556  3.0592  1.1528 -1.0187
  841MOL0     H10989   0.548  12.143   8.462 -0.3484 -0.8642 -0.7185
  841MOL0     H10990   0.771  12.292   8.495 -3.5844  0.1823  1.1847
  841MOL0     H10991   0.840  12.191   8.367 -0.3211 -1.8362 -0.7948
  841MOL0     H10992   0.630  12.274   8.219 -2.8640  0.6734  1.1154
  841MOL0     H10993   0.773  12.368   8.237 -0.0264  1.9394  1.2629
  841MOL0     H10994   1.151  11.583   8.736 -0.6324 -0.1371  0.2245
  841MOL0     H10995   1.333  11.533   8.911  2.9326  1.3681 -0.6375
  841MOL0     H10996   1.513  11.610   9.297  0.4612  0.8185 -0.1697
  841MOL0     H10997   1.667  11.536   9.481  0.6222 -3.5806 -1.2750
  841MOL0     H10998   1.847  10.977   8.679 -0.4537 -0.2832 -0.2423
  841MOL0     H10999   1.587  11.030   8.687  0.2899  0.1423  1.6743
  841MOL0     H11000   1.220  10.984   8.687  1.6657 -1.1802  0.8006
  841MOL0     H11001   0.985  10.997   8.661  1.2369  0.5561  0.2539
  841MOL0     H11002   0.744  11.055   8.950  2.8846 -0.8506 -0.1309
  841MOL0     H11003   0.668  10.885   8.974 -1.6981 -2.4257 -2.8956
  841MOL0     H11004   0.553  10.930   8.744  0.1550  0.3307 -0.5768
  841MOL0     H11005   0.506  11.055   8.865 -1.6628 -1.1706 -0.6424
  841MOL0     H11006   0.738  11.077   8.667 -0.2461 -0.1560 -0.7374
  841MOL0     H11007   0.660  11.214   8.761  3.3112 -0.1340 -0.1270
  841MOL0     H11008   0.596  11.161   8.496 -1.8777  2.0233 -0.2027
  841MOL0     H11009   0.498  11.042   8.575 -2.0178  1.5445 -1.1229
  841MOL0     H11010   0.272  11.350   8.700  1.5210  4.0351 -1.8853
  841MOL0     H11011   0.933  10.836   9.053 -2.2470  3.1755 -1.0366
  841MOL0     H11012   1.180  10.846   9.090  1.5316 -7.2206 -2.6239
  842MOL0     O11013   2.126   5.909   7.100 -0.2167  0.5123  0.7971
  842MOL0     C11014   2.156   6.023   7.145  0.3997  0.4925 -1.2039
  842MOL0     O11015   2.063   6.111   7.198 -0.1959 -0.4379  0.6062
  842MOL0     C11016   1.934   6.065   7.232 -0.9673 -0.2580  0.1181
  842MOL0     C11017   1.832   6.067   7.136  0.6357 -0.0911 -0.4925
  842MOL0     C11018   1.700   6.020   7.163  0.2196 -0.2049  0.1921
  842MOL0     C11019   1.663   5.967   7.286 -0.0475 -0.0144 -0.1743
  842MOL0     O11020   1.536   5.927   7.315 -0.2659 -0.2330  0.3715
  842MOL0     C11021   1.415   5.963   7.244  0.4728 -0.3098 -0.0507
  842MOL0     C11022   1.300   5.894   7.331  1.1509 -1.0888 -1.0521
  842MOL0     C11023   1.156   5.915   7.302 -0.3764  0.2915  1.1103
  842MOL0     C11024   1.123   5.855   7.166  0.2678  0.0200 -0.6843
  842MOL0     C11025   0.975   5.844   7.146  0.0026 -0.0426  0.1564
  842MOL0     C11026   0.907   5.991   7.159 -0.0629  0.8398  0.6193
  842MOL0     C11027   0.751   5.989   7.125 -0.0259  0.7154 -0.7957
  842MOL0     C11028   0.723   5.926   6.996  0.1061  0.3758 -0.7938
  842MOL0     N11029   0.592   5.932   6.957 -0.1123 -0.0390 -0.8261
  842MOL0     C11030   0.486   5.866   7.014 -0.4876  0.1306  0.2444
  842MOL0     C11031   0.386   5.878   6.925  0.7192  0.1677 -0.5155
  842MOL0     C11032   0.252   5.809   6.933 -0.2099  0.2531 -0.4342
  842MOL0     C11033   0.219   5.730   6.800 -0.0406 -0.3591 -0.3788
  842MOL0     C11034   0.111   5.626   6.824 -0.5988  0.4442 -0.1729
  842MOL0     C11035   0.053   5.576   6.688  0.2054 -0.3195 -0.6263
  842MOL0     O11036  -0.053   5.488   6.738 -0.2186  0.0328  0.2341
  842MOL0     C11037  -0.146   5.462   6.639  0.4701 -0.0392  1.0494
  842MOL0     C11038  -0.274   5.476   6.682  0.1841 -0.2409  0.0429
  842MOL0     C11039  -0.387   5.465   6.596 -0.1428 -0.6174 -0.4946
  842MOL0     C11040  -0.367   5.437   6.461  0.2386 -0.2835 -0.4937
  842MOL0     C11041  -0.481   5.434   6.371  0.0532 -0.8679 -0.0075
  842MOL0     O11042  -0.454   5.364   6.262  0.7454  0.0159 -0.0358
  842MOL0     C11043  -0.550   5.353   6.163 -0.3036 -0.1468  0.5992
  842MOL0     C11044  -0.684   5.319   6.186  0.7093  0.0977 -0.2141
  842MOL0     C11045  -0.770   5.295   6.079 -0.5813  0.1662 -0.3156
  842MOL0     C11046  -0.724   5.322   5.946 -0.4417  1.9112 -0.7953
  842MOL0     O11047  -0.813   5.293   5.852 -0.5693 -0.6112 -0.0939
  842MOL0     C11048  -0.760   5.209   5.747  0.8359  0.0121 -0.9168
  842MOL0     C11049  -0.833   5.081   5.729 -0.7916 -0.1672 -0.0298
  842MOL0     C11050  -0.982   5.114   5.692  0.1103  0.4524  0.9285
  842MOL0     C11051  -1.081   5.010   5.742  0.9725  0.4952  0.2103
  842MOL0     C11052  -1.065   4.913   5.626  0.5170 -0.0890 -0.7180
  842MOL0     C11053  -1.157   4.803   5.634  0.1560 -0.2605 -0.3964
  842MOL0     C11054  -1.304   4.849   5.625 -0.0560 -0.0196  0.8067
  842MOL0     C11055  -1.396   4.736   5.584  0.0891  0.3026 -0.2461
  842MOL0    Cl11056  -1.564   4.778   5.614  0.4572  0.0860 -0.3661
  842MOL0     C11057  -0.597   5.382   5.926  0.6539  0.1522 -1.0422
  842MOL0     C11058  -0.506   5.389   6.033 -0.0364 -0.0388  0.5203
  842MOL0     O11059  -0.589   5.486   6.397 -0.4486 -0.1207 -0.1945
  842MOL0     C11060  -0.231   5.432   6.411 -0.1506  0.1174 -0.6059
  842MOL0     C11061  -0.125   5.450   6.503  0.3125 -0.1948  0.4507
  842MOL0     N11062   0.426   5.962   6.826 -0.6441  0.5073  0.5188
  842MOL0     N11063   0.552   5.992   6.848  0.1781 -0.4131  0.3096
  842MOL0     C11064   1.764   5.961   7.383  0.4306  0.5162  0.5732
  842MOL0     C11065   1.893   6.015   7.354 -0.9700  0.7820  0.4353
  842MOL0     C11066   2.296   6.057   7.155 -0.5541  0.4987  0.6804
  842MOL0     C11067   2.404   5.989   7.107 -0.2650  0.4862  0.0184
  842MOL0     C11068   2.535   6.019   7.111 -0.6403 -0.3401  0.6498
  842MOL0     C11069   2.567   6.144   7.154 -0.2569  1.0127 -0.3248
  842MOL0     O11070   2.703   6.175   7.146  1.0271  0.3161  0.3711
  842MOL0     C11071   2.748   6.294   7.204 -0.1177 -0.6049 -0.3855
  842MOL0     C11072   2.794   6.273   7.356  0.3620  0.4794 -0.6204
  842MOL0     C11073   2.901   6.166   7.373 -0.2770  0.1653 -0.0048
  842MOL0     C11074   2.852   6.019   7.396 -0.0276 -0.5388  0.3480
  842MOL0     C11075   2.958   5.923   7.401  0.0542  0.2662  0.2681
  842MOL0     C11076   3.046   5.843   7.384 -1.0758  0.5572  0.4706
  842MOL0     C11077   2.473   6.225   7.210 -0.1840 -0.3987 -0.3622
  842MOL0     C11078   2.338   6.180   7.205  0.5779 -0.3269  0.0245
  842MOL0     H11079   1.856   6.109   7.039 -2.0067 -2.1515 -2.1853
  842MOL0     H11080   1.618   6.036   7.093  0.8452  0.3403 -0.4310
  842MOL0     H11081   1.419   5.939   7.137 -0.0744  2.2581 -0.7180
  842MOL0     H11082   1.402   6.072   7.239 -0.2264 -0.4348 -3.1642
  842MOL0     H11083   1.322   5.935   7.430 -0.4567  3.9320 -2.4840
  842MOL0     H11084   1.310   5.785   7.342 -1.6574 -1.4062 -0.8937
  842MOL0     H11085   1.140   6.023   7.301  0.1018  0.3852  2.1996
  842MOL0     H11086   1.094   5.879   7.384 -0.8800 -0.9407  0.2106
  842MOL0     H11087   1.171   5.917   7.089 -0.2320 -0.5261 -1.4536
  842MOL0     H11088   1.168   5.756   7.156  0.1928 -0.0295 -0.5387
  842MOL0     H11089   0.918   5.777   7.211 -0.3461  1.3545  1.3276
  842MOL0     H11090   0.965   5.809   7.042 -1.1729 -1.2379  0.6409
  842MOL0     H11091   0.954   6.060   7.089 -2.4708  0.8622 -1.0796
  842MOL0     H11092   0.929   6.033   7.258 -0.0004 -0.5456  1.2213
  842MOL0     H11093   0.702   5.940   7.210  0.6579  0.2880 -0.6363
  842MOL0     H11094   0.730   6.096   7.131  2.7361  1.2752  0.9752
  842MOL0     H11095   0.742   5.820   7.012  1.1789  0.4248 -1.6279
  842MOL0     H11096   0.791   5.973   6.923  0.6624  1.2037  0.2244
  842MOL0     H11097   0.495   5.810   7.106  0.5162  1.1665  0.8148
  842MOL0     H11098   0.173   5.874   6.970 -0.8144  0.0358 -1.3154
  842MOL0     H11099   0.273   5.736   7.011  0.6613 -3.1836 -3.5812
  842MOL0     H11100   0.306   5.674   6.765  1.0813  1.6468 -0.9825
  842MOL0     H11101   0.179   5.806   6.733 -2.0917 -0.7382  0.3559
  842MOL0     H11102   0.148   5.542   6.884 -0.3622 -0.0718 -1.0232
  842MOL0     H11103   0.035   5.675   6.885 -1.0554 -0.8471  0.3277
  842MOL0     H11104   0.120   5.531   6.614  2.2864  0.1541  0.8806
  842MOL0     H11105  -0.000   5.659   6.639 -2.2055 -2.4918 -1.9212
  842MOL0     H11106  -0.292   5.515   6.781 -0.3699 -0.1087 -0.1083
  842MOL0     H11107  -0.485   5.492   6.635  0.0259 -0.2867 -0.2927
  842MOL0     H11108  -0.718   5.306   6.288 -2.0047  1.1713 -0.8915
  842MOL0     H11109  -0.876   5.278   6.095 -0.2085 -0.9687  1.2062
  842MOL0     H11110  -0.657   5.182   5.769  0.6189 -1.5864 -1.7092
  842MOL0     H11111  -0.775   5.275   5.661 -2.7530  3.9110  2.2641
  842MOL0     H11112  -0.835   5.019   5.819 -2.0771 -0.2382 -0.0876
  842MOL0     H11113  -0.774   5.025   5.655  0.6340  0.5344  0.5292
  842MOL0     H11114  -0.985   5.123   5.583 -0.9181  1.0015  0.9916
  842MOL0     H11115  -1.003   5.208   5.745  3.4960  0.7100  2.0718
  842MOL0     H11116  -1.049   4.972   5.840 -0.5399  2.1152  1.3893
  842MOL0     H11117  -1.178   5.059   5.751  1.4919  1.3073  1.7732
  842MOL0     H11118  -0.964   4.872   5.639  0.0184 -0.6512  2.1958
  842MOL0     H11119  -1.068   4.955   5.525 -0.4446  0.9222 -0.2893
  842MOL0     H11120  -1.139   4.745   5.725 -1.5756 -0.5888 -0.2209
  842MOL0     H11121  -1.135   4.732   5.553 -1.9644  0.6606 -1.8711
  842MOL0     H11122  -1.351   4.881   5.719 -1.3824 -0.2206  0.2312
  842MOL0     H11123  -1.305   4.934   5.556 -0.7257 -0.2427  0.5293
  842MOL0     H11124  -1.374   4.645   5.640  1.1123  0.8174  0.2219
  842MOL0     H11125  -1.378   4.697   5.483 -4.3203 -1.1821 -0.6748
  842MOL0     H11126  -0.568   5.430   5.833  1.3601  1.1441 -0.3357
  842MOL0     H11127  -0.404   5.418   6.012  1.1013 -2.7038  1.8992
  842MOL0     H11128  -0.202   5.427   6.306  0.1050 -1.4104 -0.4929
  842MOL0     H11129  -0.026   5.451   6.458 -0.4975  3.2268 -1.6894
  842MOL0     H11130   1.738   5.912   7.476 -0.1249  2.1378  1.3036
  842MOL0     H11131   1.966   6.028   7.434 -0.3749  1.6742 -0.2234
  842MOL0     H11132   2.380   5.901   7.048 -0.1816 -1.0445  2.1579
  842MOL0     H11133   2.619   5.968   7.066  1.0975  3.0358 -0.2963
  842MOL0     H11134   2.673   6.374   7.196 -0.3397 -0.6631  0.9549
  842MOL0     H11135   2.842   6.331   7.161  0.0065  0.3826  0.7031
  842MOL0     H11136   2.831   6.369   7.393 -1.2644  1.2908 -1.0348
  842MOL0     H11137   2.705   6.250   7.415 -0.0003  3.0426 -0.0348
  842MOL0     H11138   2.942   6.188   7.472 -3.0033 -2.7905  1.9748
  842MOL0     H11139   2.973   6.179   7.291  3.0385  0.7579  2.7720
  842MOL0     H11140   2.793   6.016   7.488 -2.0311 -0.3577 -0.8623
  842MOL0     H11141   2.774   5.988   7.326 -0.6132  1.7590 -0.1131
  842MOL0     H11142   3.123   5.769   7.392 -1.1304  0.4035 -0.3541
  842MOL0     H11143   2.480   6.323   7.255  1.3883 -0.8006  0.3434
  842MOL0     H11144   2.274   6.241   7.268  1.7296  0.1420  0.7881
  843MOL0     O11145   0.280   3.957  11.204  0.1536  0.0874 -0.2837
  843MOL0     C11146   0.250   4.071  11.232  0.5214  0.2461  0.0980
  843MOL0     O11147   0.120   4.115  11.254 -0.1594 -0.0775 -0.4051
  843MOL0     C11148   0.020   4.027  11.230  0.2706  0.0817 -0.6080
  843MOL0     C11149  -0.087   3.994  11.324  0.4030 -0.7098 -0.0388
  843MOL0     C11150  -0.188   3.905  11.290  0.1413  0.3193  0.2094
  843MOL0     C11151  -0.193   3.848  11.156  0.2832 -0.2312  0.1961
  843MOL0     O11152  -0.290   3.758  11.107 -0.1032 -0.3099 -0.1748
  843MOL0     C11153  -0.413   3.740  11.191 -0.9157 -0.5877 -0.1542
  843MOL0     C11154  -0.502   3.862  11.183  0.2390 -0.1326  0.6972
  843MOL0     C11155  -0.570   3.876  11.054 -0.0167 -0.4711  0.4948
  843MOL0     C11156  -0.709   3.936  11.080  0.1891  0.4147  0.2336
  843MOL0     C11157  -0.762   3.985  10.945 -0.0369  0.1966 -0.1062
  843MOL0     C11158  -0.906   4.033  10.965 -0.2910 -0.3488 -0.3904
  843MOL0     C11159  -1.020   3.954  10.884 -0.1185  0.1346 -0.2278
  843MOL0     C11160  -1.165   3.998  10.942  0.3839  0.5096 -0.0777
  843MOL0     N11161  -1.286   3.974  10.854  0.4992 -0.2392  0.6699
  843MOL0     C11162  -1.349   3.850  10.836 -0.4905  0.1229 -0.0916
  843MOL0     C11163  -1.462   3.885  10.774  0.8103 -0.0052  0.3577
  843MOL0     C11164  -1.561   3.775  10.722 -0.0220 -0.1984  0.7135
  843MOL0     C11165  -1.504   3.730  10.588 -0.4547 -0.3696  0.2094
  843MOL0     C11166  -1.570   3.603  10.519  0.0215  0.5693  0.8281
  843MOL0     C11167  -1.726   3.610  10.535  0.1534  0.0850 -0.7026
  843MOL0     O11168  -1.783   3.507  10.458 -0.2427  0.9899 -0.2146
  843MOL0     C11169  -1.901   3.540  10.396  0.3446  1.2173 -0.0522
  843MOL0     C11170  -1.996   3.644  10.431 -0.7357 -0.3589 -0.5072
  843MOL0     C11171  -2.112   3.653  10.366 -0.2898  0.4564 -0.1744
  843MOL0     C11172  -2.140   3.568  10.259  0.3244  0.8562 -0.2803
  843MOL0     C11173  -2.269   3.579  10.179  0.5567 -0.3350  0.0323
  843MOL0     O11174  -2.317   3.458  10.118  0.4436  0.9043 -0.8939
  843MOL0     C11175  -2.446   3.431  10.067 -0.9591 -0.2126  0.0956
  843MOL0     C11176  -2.481   3.298  10.070 -0.0790  0.2386 -0.9837
  843MOL0     C11177  -2.605   3.257  10.027 -0.5999  0.2606 -0.3910
  843MOL0     C11178  -2.702   3.347   9.978  0.1892  0.2218  0.1454
  843MOL0     O11179  -2.824   3.295   9.932 -0.0252 -0.2104  0.3039
  843MOL0     C11180  -2.925   3.386   9.903  0.0368 -0.3851  0.6038
  843MOL0     C11181  -3.047   3.304   9.880 -0.2410 -0.5556 -0.3115
  843MOL0     C11182  -3.178   3.383   9.841 -1.2518  0.1494  0.4911
  843MOL0     C11183  -3.290   3.287   9.803  0.0517 -0.3182 -0.0611
  843MOL0     C11184  -3.420   3.360   9.846  0.8491  0.0679 -0.7175
  843MOL0     C11185  -3.442   3.502   9.793  0.0439 -0.6422  0.5564
  843MOL0     C11186  -3.454   3.504   9.646 -0.2137 -0.5925  0.0175
  843MOL0     C11187  -3.573   3.428   9.592 -0.4939 -0.5895 -0.5609
  843MOL0    Cl11188  -3.587   3.427   9.407 -0.3292  0.1107  0.1657
  843MOL0     C11189  -2.664   3.487   9.984 -0.2146  0.5564  0.7674
  843MOL0     C11190  -2.540   3.524  10.034  0.3851 -0.4621  0.3062
  843MOL0     O11191  -2.325   3.694  10.173 -0.4191  0.5235 -0.4875
  843MOL0     C11192  -2.065   3.462  10.240 -0.3429 -0.2780 -0.0239
  843MOL0     C11193  -1.937   3.448  10.303 -0.4445 -0.2804 -0.0484
  843MOL0     N11194  -1.469   4.019  10.750 -0.7199  0.0743 -0.7738
  843MOL0     N11195  -1.354   4.071  10.788 -0.3656  0.4053 -0.1631
  843MOL0     C11196  -0.095   3.883  11.065  0.4683  0.6386 -0.0962
  843MOL0     C11197   0.007   3.970  11.102  0.3462 -0.8376 -0.2326
  843MOL0     C11198   0.353   4.161  11.284 -0.4186  0.4740  0.4292
  843MOL0     C11199   0.332   4.297  11.313 -0.1320  0.0547 -0.9826
  843MOL0     C11200   0.442   4.374  11.350  0.5725  0.6649  0.2119
  843MOL0     C11201   0.571   4.319  11.378 -0.6721  0.0723 -1.0998
  843MOL0     O11202   0.671   4.389  11.440 -0.8358 -0.2140 -0.3978
  843MOL0     C11203   0.667   4.531  11.456 -0.2972 -0.7461  0.1375
  843MOL0     C11204   0.786   4.578  11.538  0.1382 -0.1820 -0.1644
  843MOL0     C11205   0.912   4.534  11.477 -0.2208 -0.4407  0.5965
  843MOL0     C11206   1.049   4.608  11.507 -0.3129 -0.1963 -0.1316
  843MOL0     C11207   1.163   4.544  11.443 -0.3274 -0.6769  0.5478
  843MOL0     C11208   1.268   4.501  11.390  0.2450 -1.3632 -0.1281
  843MOL0     C11209   0.589   4.190  11.356  0.3516 -0.6472 -0.5278
  843MOL0     C11210   0.487   4.109  11.296  0.5214  0.3734 -0.2351
  843MOL0     H11211  -0.089   4.034  11.424 -1.6879  0.6013 -0.5428
  843MOL0     H11212  -0.262   3.871  11.362  0.9895  2.2823  2.1077
  843MOL0     H11213  -0.390   3.700  11.290 -0.2762 -1.5866 -0.6925
  843MOL0     H11214  -0.463   3.652  11.150 -3.2147  0.3975  0.4043
  843MOL0     H11215  -0.442   3.952  11.195  1.3181 -0.8736  1.0513
  843MOL0     H11216  -0.566   3.851  11.272  0.4155  0.1545  0.8611
  843MOL0     H11217  -0.585   3.780  11.004 -0.6544  0.0117 -0.2643
  843MOL0     H11218  -0.504   3.933  10.987  1.7137 -2.4722  0.3546
  843MOL0     H11219  -0.768   3.853  11.122 -1.0115  1.7281  1.2584
  843MOL0     H11220  -0.706   4.026  11.142  1.6509  0.4180  0.1799
  843MOL0     H11221  -0.775   3.903  10.873 -2.8893  0.6606 -0.2141
  843MOL0     H11222  -0.693   4.054  10.895 -2.5776  1.3620 -2.2591
  843MOL0     H11223  -0.917   4.139  10.939 -0.7778  0.0541  1.3535
  843MOL0     H11224  -0.925   4.023  11.072  0.9071 -0.9906 -0.2303
  843MOL0     H11225  -1.020   3.994  10.782 -2.6450  2.2162  0.4829
  843MOL0     H11226  -1.009   3.846  10.890  2.4889  0.2896 -0.8964
  843MOL0     H11227  -1.175   4.104  10.968 -4.0513  0.5447 -1.0802
  843MOL0     H11228  -1.181   3.935  11.031 -1.9228 -1.3167 -1.6621
  843MOL0     H11229  -1.313   3.751  10.860 -0.0955  0.5106  1.0341
  843MOL0     H11230  -1.660   3.820  10.716 -0.4963 -1.2695  0.3172
  843MOL0     H11231  -1.571   3.688  10.788  1.2697 -1.2047 -0.3537
  843MOL0     H11232  -1.401   3.694  10.596 -0.0179  0.8145  0.0371
  843MOL0     H11233  -1.508   3.815  10.519  1.1317 -0.6150 -0.2259
  843MOL0     H11234  -1.543   3.598  10.413  0.0316  2.3823  0.7126
  843MOL0     H11235  -1.534   3.512  10.567 -0.2182  0.6948  1.2538
  843MOL0     H11236  -1.765   3.709  10.511 -0.0477  0.1042 -0.2910
  843MOL0     H11237  -1.761   3.594  10.637 -3.3228  0.2509 -1.7422
  843MOL0     H11238  -1.975   3.715  10.511 -2.1069 -1.1987  0.6478
  843MOL0     H11239  -2.192   3.720  10.399  0.1012  1.8617 -1.9549
  843MOL0     H11240  -2.400   3.232  10.100  0.0622  0.7442 -0.1894
  843MOL0     H11241  -2.616   3.150  10.024  0.4195  0.1591 -2.0857
  843MOL0     H11242  -2.897   3.450   9.818 -0.6646 -1.9422 -0.8480
  843MOL0     H11243  -2.939   3.449   9.992  2.5809  1.4897 -0.1869
  843MOL0     H11244  -3.077   3.252   9.971 -0.8122  0.0534 -0.1500
  843MOL0     H11245  -3.016   3.224   9.811 -0.5809  1.8584 -3.5353
  843MOL0     H11246  -3.154   3.444   9.753  1.2134 -1.4494 -0.0544
  843MOL0     H11247  -3.201   3.457   9.917  1.6559  2.2200 -0.4601
  843MOL0     H11248  -3.288   3.266   9.696 -1.9985 -4.2971  0.5023
  843MOL0     H11249  -3.299   3.199   9.867 -1.4338 -0.1723 -0.0293
  843MOL0     H11250  -3.417   3.372   9.955 -0.7536  1.6633 -0.8051
  843MOL0     H11251  -3.511   3.300   9.838  0.7466  0.3204 -1.4661
  843MOL0     H11252  -3.355   3.557   9.828  0.3647 -0.4997 -0.4379
  843MOL0     H11253  -3.535   3.553   9.822 -0.1034  2.8753 -4.6337
  843MOL0     H11254  -3.461   3.607   9.610  3.3661 -0.7691 -1.6446
  843MOL0     H11255  -3.364   3.459   9.602 -0.6701  0.5941 -2.3071
  843MOL0     H11256  -3.665   3.469   9.635  1.3859 -0.4821  3.8306
  843MOL0     H11257  -3.563   3.327   9.633  2.1338 -0.0832  0.2339
  843MOL0     H11258  -2.727   3.571   9.954  0.3125  0.7250  0.1173
  843MOL0     H11259  -2.516   3.629  10.026  1.4159 -0.5494  1.9116
  843MOL0     H11260  -2.085   3.379  10.174  1.5624 -2.7069  2.2230
  843MOL0     H11261  -1.863   3.373  10.276  0.1879  0.6504 -1.0008
  843MOL0     H11262  -0.105   3.829  10.971 -0.0778 -0.2630  0.4716
  843MOL0     H11263   0.082   3.998  11.029 -1.0985  3.1100 -0.4516
  843MOL0     H11264   0.232   4.339  11.310 -0.5585 -0.9533 -3.2739
  843MOL0     H11265   0.409   4.474  11.374  0.8407  0.6405  0.6887
  843MOL0     H11266   0.573   4.558  11.504 -0.4609  1.1393 -1.1507
  843MOL0     H11267   0.661   4.582  11.360  0.4846 -0.3440  0.2899
  843MOL0     H11268   0.774   4.686  11.533  1.9610  0.2230  2.2229
  843MOL0     H11269   0.784   4.550  11.644  0.6463  0.8283  0.1218
  843MOL0     H11270   0.891   4.532  11.370 -1.7144  0.2986  0.8533
  843MOL0     H11271   0.942   4.432  11.503 -1.3750 -0.7257  0.8618
  843MOL0     H11272   1.042   4.712  11.475 -1.6571  0.4267  2.0204
  843MOL0     H11273   1.069   4.607  11.615  1.6948 -0.0167 -0.4535
  843MOL0     H11274   1.363   4.481  11.345  0.8865 -0.6207  0.8648
  843MOL0     H11275   0.683   4.142  11.381  0.6870  0.6750  0.8584
  843MOL0     H11276   0.516   4.005  11.280 -0.5393 -0.0091  0.2663
  844MOL0     O11277  10.783   8.939   3.132 -0.0080  0.4840 -0.7393
  844MOL0     C11278  10.885   8.886   3.083  0.2166  0.8377  0.6542
  844MOL0     O11279  10.903   8.759   3.041 -0.1562  0.4651  0.5775
  844MOL0     C11280  10.798   8.676   3.058 -0.0555 -0.5233  0.0212
  844MOL0     C11281  10.683   8.704   2.985  0.3335 -0.5962 -0.3448
  844MOL0     C11282  10.560   8.656   3.021  0.3601 -0.8114 -0.7360
  844MOL0     C11283  10.555   8.554   3.115  0.0679  0.4774 -0.1827
  844MOL0     O11284  10.431   8.508   3.155 -0.0421 -0.4177 -0.8092
  844MOL0     C11285  10.314   8.525   3.069 -0.3558 -0.2107 -0.2490
  844MOL0     C11286  10.202   8.443   3.132  0.0029 -0.3646  0.2920
  844MOL0     C11287  10.054   8.473   3.091 -0.5888 -0.2580 -0.6821
  844MOL0     C11288   9.962   8.385   3.165  0.8347 -0.3580  0.0908
  844MOL0     C11289   9.814   8.430   3.138 -0.7130 -0.2661  0.2793
  844MOL0     C11290   9.695   8.364   3.219 -0.5380 -1.5927 -0.7798
  844MOL0     C11291   9.558   8.407   3.175  0.5106  0.1388  0.2887
  844MOL0     C11292   9.449   8.380   3.286  0.1760  0.5190 -0.6800
  844MOL0     N11293   9.325   8.444   3.257  0.6704 -0.4532  0.0070
  844MOL0     C11294   9.224   8.401   3.170 -1.0557  0.1745  1.2380
  844MOL0     C11295   9.111   8.461   3.191 -1.1333 -0.1663 -0.1044
  844MOL0     C11296   8.975   8.448   3.120 -0.4778  0.4998  0.0529
  844MOL0     C11297   8.969   8.550   2.993 -1.2907 -0.1824 -0.1031
  844MOL0     C11298   8.873   8.502   2.894  0.1955  0.7944  0.0020
  844MOL0     C11299   8.903   8.578   2.768 -0.1452 -0.4466  0.5265
  844MOL0     O11300   8.825   8.550   2.654 -0.0653  0.6523 -0.7777
  844MOL0     C11301   8.700   8.614   2.660 -0.4167  0.5247  0.5127
  844MOL0     C11302   8.695   8.751   2.634 -0.4157  0.0172 -0.1829
  844MOL0     C11303   8.562   8.812   2.642 -0.3685  0.2832  0.2355
  844MOL0     C11304   8.448   8.724   2.655 -0.0010 -1.1078  0.2521
  844MOL0     C11305   8.318   8.785   2.658 -0.2304  0.1781 -0.7045
  844MOL0     O11306   8.299   8.903   2.737 -0.1127 -0.2700 -0.4666
  844MOL0     C11307   8.192   8.993   2.736  0.0650  0.1778 -0.0738
  844MOL0     C11308   8.182   9.089   2.846 -0.4133 -0.4011 -0.5803
  844MOL0     C11309   8.073   9.165   2.855 -0.0796 -0.0625  0.2601
  844MOL0     C11310   7.972   9.159   2.757  0.3257  0.7018  0.5426
  844MOL0     O11311   7.853   9.237   2.772  0.6189  0.7364  0.0452
  844MOL0     C11312   7.798   9.256   2.905 -0.0747  0.0561  0.4396
  844MOL0     C11313   7.651   9.240   2.903 -0.1743 -0.4930 -0.6318
  844MOL0     C11314   7.587   9.338   2.797  0.1710  0.1856 -0.1869
  844MOL0     C11315   7.429   9.344   2.826 -0.8738 -0.2856 -0.6427
  844MOL0     C11316   7.353   9.213   2.796  0.4922 -0.2341  0.9548
  844MOL0     C11317   7.387   9.168   2.659  0.0942  0.6391  0.5745
  844MOL0     C11318   7.315   9.036   2.615  0.6947 -0.8562 -0.1602
  844MOL0     C11319   7.396   8.912   2.657 -0.0564  0.5882  0.3084
  844MOL0    Cl11320   7.546   8.899   2.548  0.2326  0.3276 -0.1678
  844MOL0     C11321   7.977   9.064   2.657  0.4468  0.2265  0.5271
  844MOL0     C11322   8.084   8.979   2.646  0.1887 -0.3865 -0.2742
  844MOL0     O11323   8.239   8.733   2.577 -0.7858 -0.3455  0.1035
  844MOL0     C11324   8.468   8.586   2.662  0.5537 -0.0221  0.0555
  844MOL0     C11325   8.594   8.535   2.681  0.2777 -1.0025 -0.6176
  844MOL0     N11326   9.145   8.552   3.288  0.6758 -0.4334  1.0243
  844MOL0     N11327   9.264   8.539   3.331  0.3511  0.1460 -0.5237
  844MOL0     C11328  10.674   8.505   3.175 -0.8230 -0.3715 -0.0502
  844MOL0     C11329  10.796   8.568   3.147  0.0158  0.2074 -0.3498
  844MOL0     C11330  10.985   8.986   3.039  0.0515  0.1017  0.6774
  844MOL0     C11331  11.002   9.096   3.126 -0.0545  1.0355 -0.5905
  844MOL0     C11332  11.099   9.191   3.097  0.5677 -0.8930  0.2519
  844MOL0     C11333  11.182   9.168   2.980  0.0720  0.0655 -0.1298
  844MOL0     O11334  11.292   9.251   2.937  0.3214  0.0113  0.0615
  844MOL0     C11335  11.310   9.378   3.003 -0.1175 -0.5424 -0.6227
  844MOL0     C11336  11.428   9.464   2.960 -1.1720 -0.3612 -0.2087
  844MOL0     C11337  11.390   9.542   2.834 -0.0864  0.3757  0.5026
  844MOL0     C11338  11.486   9.641   2.779 -0.0544  0.1222 -0.3763
  844MOL0     C11339  11.613   9.573   2.746  0.2897  0.0744 -0.1570
  844MOL0     C11340  11.716   9.514   2.740  0.3792  0.4303  0.6153
  844MOL0     C11341  11.159   9.049   2.896 -0.1305 -0.9085  0.3397
  844MOL0     C11342  11.057   8.957   2.926  0.3642  0.0126  0.1167
  844MOL0     H11343  10.692   8.787   2.916  4.1776 -0.4792  0.0905
  844MOL0     H11344  10.469   8.701   2.981  0.0232 -1.4611 -0.7099
  844MOL0     H11345  10.337   8.490   2.968  2.2848 -0.8628  0.4994
  844MOL0     H11346  10.276   8.627   3.072 -3.8398 -1.3668  1.9299
  844MOL0     H11347  10.209   8.453   3.241  0.8617 -1.7617  0.4033
  844MOL0     H11348  10.228   8.337   3.119  0.7615 -0.2226  0.6036
  844MOL0     H11349  10.044   8.471   2.982 -1.2085 -0.6599 -0.6222
  844MOL0     H11350  10.028   8.576   3.116  1.9842  0.4617 -0.6536
  844MOL0     H11351   9.977   8.281   3.134  0.5268 -0.6760  0.9596
  844MOL0     H11352   9.966   8.388   3.274 -3.2196 -2.0772  0.4917
  844MOL0     H11353   9.787   8.410   3.034  2.1890 -2.1259 -0.2217
  844MOL0     H11354   9.809   8.540   3.140 -2.1362 -0.2707 -1.1646
  844MOL0     H11355   9.720   8.401   3.318  3.1939 -2.5864 -1.1979
  844MOL0     H11356   9.714   8.257   3.221  1.8499 -1.2255  0.7968
  844MOL0     H11357   9.571   8.514   3.153  2.2500 -0.0169  0.4415
  844MOL0     H11358   9.524   8.366   3.080 -1.3812  2.4734 -0.1308
  844MOL0     H11359   9.488   8.414   3.382 -0.3149 -1.0215  0.0853
  844MOL0     H11360   9.432   8.273   3.299  2.1235  0.0995 -1.2513
  844MOL0     H11361   9.234   8.321   3.098 -1.1767  2.4104 -1.4432
  844MOL0     H11362   8.889   8.459   3.187  0.1878 -0.7660  1.1567
  844MOL0     H11363   8.989   8.343   3.090 -0.3035  1.0711 -1.9908
  844MOL0     H11364   9.069   8.563   2.950 -2.8955  2.7960 -3.5152
  844MOL0     H11365   8.931   8.650   3.015  0.7245  0.3223  1.3326
  844MOL0     H11366   8.873   8.393   2.882 -2.1761  0.6122  1.2592
  844MOL0     H11367   8.772   8.538   2.916 -0.7178 -0.4658 -1.8514
  844MOL0     H11368   9.004   8.560   2.729  0.6894  3.3507  0.5889
  844MOL0     H11369   8.905   8.683   2.798 -0.4799 -0.3244  0.1308
  844MOL0     H11370   8.776   8.818   2.608 -0.6584 -0.4967 -2.4962
  844MOL0     H11371   8.554   8.920   2.637  1.6677  0.4294 -1.3872
  844MOL0     H11372   8.254   9.095   2.927  1.0143  0.5830 -1.8729
  844MOL0     H11373   8.070   9.233   2.940  0.8116  2.8566 -1.8581
  844MOL0     H11374   7.825   9.357   2.935 -2.3604  0.5690  0.8989
  844MOL0     H11375   7.842   9.183   2.974 -1.6485 -1.9888 -0.5894
  844MOL0     H11376   7.606   9.261   3.000  1.1677  1.2093 -0.3005
  844MOL0     H11377   7.627   9.140   2.868  0.0542 -1.8427  2.7160
  844MOL0     H11378   7.612   9.311   2.694 -0.8812 -1.1864 -0.1132
  844MOL0     H11379   7.616   9.442   2.810 -0.5846  0.7209 -2.4447
  844MOL0     H11380   7.412   9.362   2.932  0.3587 -2.5227 -0.0001
  844MOL0     H11381   7.394   9.425   2.761  0.8256 -0.3437 -1.6943
  844MOL0     H11382   7.245   9.226   2.794  0.4523 -0.6185  0.5915
  844MOL0     H11383   7.379   9.139   2.872 -2.1590 -1.2452  0.9799
  844MOL0     H11384   7.491   9.149   2.633 -0.5684  1.7267 -3.6743
  844MOL0     H11385   7.364   9.253   2.595 -0.9449  0.5536  0.8090
  844MOL0     H11386   7.216   9.027   2.661  0.6716  1.8547  0.5326
  844MOL0     H11387   7.297   9.022   2.508  2.4807  1.1854 -0.8059
  844MOL0     H11388   7.324   8.830   2.654 -4.8133  4.3276 -1.4757
  844MOL0     H11389   7.435   8.920   2.759  1.0222 -1.2346  0.0980
  844MOL0     H11390   7.899   9.060   2.582  1.3540  1.3030 -0.5408
  844MOL0     H11391   8.088   8.910   2.562  1.7643  1.4743 -1.8235
  844MOL0     H11392   8.386   8.519   2.687 -0.5097  1.5839  1.1045
  844MOL0     H11393   8.606   8.429   2.696  0.1638 -0.9052  0.2144
  844MOL0     H11394  10.686   8.424   3.246  1.3803 -0.5420 -0.5470
  844MOL0     H11395  10.884   8.540   3.205  0.9698 -0.7622 -2.1520
  844MOL0     H11396  10.942   9.107   3.216  0.5909 -0.5790  0.0744
  844MOL0     H11397  11.113   9.280   3.157  1.9565 -2.3213  2.2007
  844MOL0     H11398  11.324   9.360   3.110 -0.0479  2.2662 -0.0923
  844MOL0     H11399  11.219   9.438   2.999 -0.0092 -0.4228 -1.3680
  844MOL0     H11400  11.462   9.529   3.041  0.6831  0.1030 -1.3026
  844MOL0     H11401  11.516   9.403   2.935 -0.6969  0.9186 -1.8242
  844MOL0     H11402  11.291   9.585   2.852 -0.6157 -1.1798  1.5412
  844MOL0     H11403  11.371   9.473   2.751 -0.0897 -0.9956  1.6051
  844MOL0     H11404  11.452   9.706   2.698  0.2563 -0.0570 -0.6562
  844MOL0     H11405  11.516   9.717   2.851  3.8122 -2.6176  1.1925
  844MOL0     H11406  11.809   9.461   2.734  0.4176  0.2844  2.2017
  844MOL0     H11407  11.227   9.044   2.812  0.5469  1.7926  0.6236
  844MOL0     H11408  11.043   8.875   2.856  2.8519  0.5441 -1.1476
  845MOL0     O11409   4.131   0.254   3.176  0.8251  0.1004  0.1807
  845MOL0     C11410   4.208   0.162   3.183  0.0663 -0.0254 -0.0917
  845MOL0     O11411   4.175   0.028   3.171  0.7560  0.5692 -0.3305
  845MOL0     C11412   4.039   0.001   3.139 -0.6639 -0.7394 -0.2714
  845MOL0     C11413   3.929   0.044   3.213  0.1415 -0.2330  0.0622
  845MOL0     C11414   3.797   0.021   3.177 -0.4360 -0.0849  0.8789
  845MOL0     C11415   3.774  -0.064   3.056 -0.4964 -0.3261  0.1414
  845MOL0     O11416   3.644  -0.094   3.026 -0.4780  0.0985  0.1116
  845MOL0     C11417   3.608  -0.055   2.892 -0.0265 -0.1714  0.1731
  845MOL0     C11418   3.454  -0.060   2.881  0.7780  0.5892 -0.2161
  845MOL0     C11419   3.386  -0.188   2.937 -0.0548 -0.6963 -0.1981
  845MOL0     C11420   3.230  -0.193   2.934 -0.5582  0.2753 -0.0762
  845MOL0     C11421   3.159  -0.317   2.975  0.9921  0.1878  0.2178
  845MOL0     C11422   3.143  -0.324   3.127 -0.1242 -0.2828 -0.2508
  845MOL0     C11423   3.105  -0.467   3.166  0.9036  0.1925  0.0260
  845MOL0     C11424   3.195  -0.583   3.138 -0.3865 -0.0435  0.1458
  845MOL0     N11425   3.324  -0.549   3.196 -0.2869  0.4615  0.0612
  845MOL0     C11426   3.353  -0.548   3.333  0.0420 -0.1123  1.1063
  845MOL0     C11427   3.482  -0.493   3.327  0.5100 -0.1422 -0.0398
  845MOL0     C11428   3.581  -0.448   3.429  1.1945 -0.2609 -0.1077
  845MOL0     C11429   3.549  -0.327   3.513 -0.0391 -0.4063  0.3080
  845MOL0     C11430   3.539  -0.198   3.428 -0.0719 -0.4579  0.1105
  845MOL0     C11431   3.543  -0.083   3.530 -0.9520 -0.7886 -0.1903
  845MOL0     O11432   3.422  -0.064   3.602  0.2265 -0.2255  0.7771
  845MOL0     C11433   3.312  -0.008   3.545 -0.6131  0.7170  0.1950
  845MOL0     C11434   3.192  -0.001   3.615 -0.6709 -0.6125 -0.2251
  845MOL0     C11435   3.082   0.048   3.545  0.4512 -0.2312 -0.2069
  845MOL0     C11436   3.075   0.090   3.413 -0.0255  0.1297 -0.2575
  845MOL0     C11437   2.958   0.144   3.348  0.1275  0.5721  1.3580
  845MOL0     O11438   2.848   0.176   3.422  0.3962 -0.5023 -0.0488
  845MOL0     C11439   2.755   0.241   3.347  0.3025  0.0861 -0.8096
  845MOL0     C11440   2.648   0.182   3.289  0.6677 -0.5870 -0.7962
  845MOL0     C11441   2.546   0.266   3.238  0.2114 -0.0553  0.4638
  845MOL0     C11442   2.560   0.407   3.229 -0.3641 -0.5490 -0.0610
  845MOL0     O11443   2.471   0.490   3.171 -0.2079  0.3190 -0.8742
  845MOL0     C11444   2.352   0.450   3.099  0.2506  0.2855  0.1071
  845MOL0     C11445   2.229   0.370   3.151 -0.2084  0.3695 -0.9735
  845MOL0     C11446   2.152   0.461   3.245 -0.0571 -0.7443 -0.1075
  845MOL0     C11447   2.025   0.387   3.280  0.2557  0.0298 -0.5648
  845MOL0     C11448   1.936   0.461   3.379 -0.0735  0.1274  0.3098
  845MOL0     C11449   1.827   0.363   3.422 -0.8435  0.2451  0.3114
  845MOL0     C11450   1.751   0.420   3.549 -0.1986  0.0399  0.1362
  845MOL0     C11451   1.623   0.333   3.594 -0.0515 -0.6262  0.1717
  845MOL0    Cl11452   1.539   0.438   3.708  0.4305 -0.3756 -0.6556
  845MOL0     C11453   2.666   0.467   3.284 -0.4200  0.1505  0.0110
  845MOL0     C11454   2.765   0.382   3.335 -1.1684 -0.2534 -0.4555
  845MOL0     O11455   2.981   0.182   3.232  0.0407  0.6753 -0.1427
  845MOL0     C11456   3.196   0.073   3.346 -0.0222 -0.0708  0.2160
  845MOL0     C11457   3.310   0.029   3.412  0.4485  0.4622 -0.9809
  845MOL0     N11458   3.525  -0.486   3.193 -0.2261 -0.7201 -0.0660
  845MOL0     N11459   3.424  -0.509   3.121 -0.1771  0.5257 -0.0117
  845MOL0     C11460   3.887  -0.112   2.981  0.3680  0.3559 -0.1627
  845MOL0     C11461   4.012  -0.071   3.033 -0.7162  0.6026  0.6708
  845MOL0     C11462   4.345   0.192   3.213  0.1090  0.1704  0.1437
  845MOL0     C11463   4.434   0.096   3.263  0.7789  0.3545 -0.3842
  845MOL0     C11464   4.557   0.131   3.317 -0.3913  0.4896  0.8490
  845MOL0     C11465   4.607   0.260   3.301  0.4690 -0.2723  0.2691
  845MOL0     O11466   4.741   0.277   3.334 -0.3960 -0.5402  0.0219
  845MOL0     C11467   4.791   0.406   3.339  0.1870  0.8339  0.0097
  845MOL0     C11468   4.916   0.418   3.410 -0.2232 -0.6296 -0.3561
  845MOL0     C11469   4.901   0.372   3.556  0.6905 -0.9112  0.2428
  845MOL0     C11470   5.035   0.386   3.631 -0.4568  0.1385 -0.2457
  845MOL0     C11471   5.015   0.367   3.780 -0.0337 -0.3291  0.9960
  845MOL0     C11472   5.015   0.335   3.902  0.0757  0.3598  0.4361
  845MOL0     C11473   4.518   0.357   3.248  0.0839 -1.0129 -0.4355
  845MOL0     C11474   4.390   0.326   3.208 -0.5483 -0.0700 -0.6104
  845MOL0     H11475   3.957   0.103   3.300  1.9134 -1.0796  0.1246
  845MOL0     H11476   3.707   0.048   3.232 -0.2715 -3.1687  2.9262
  845MOL0     H11477   3.642  -0.123   2.814 -2.8312  1.8633 -3.1027
  845MOL0     H11478   3.635   0.046   2.862 -2.5561  0.0522 -1.6612
  845MOL0     H11479   3.444  -0.053   2.773  0.9408  1.6354 -0.1783
  845MOL0     H11480   3.401   0.028   2.920  1.1030  0.8469 -0.3458
  845MOL0     H11481   3.419  -0.215   3.038 -3.1182  0.7579  1.3294
  845MOL0     H11482   3.426  -0.261   2.866 -0.5413 -0.2670 -0.9225
  845MOL0     H11483   3.204  -0.108   2.999  2.0213  0.8403  0.3332
  845MOL0     H11484   3.209  -0.173   2.828  2.5491  0.7048 -0.7216
  845MOL0     H11485   3.216  -0.405   2.943 -0.1805  0.6592 -3.8042
  845MOL0     H11486   3.059  -0.322   2.930  0.9795  3.0113 -0.2355
  845MOL0     H11487   3.079  -0.243   3.163  3.1908  3.1148 -1.3368
  845MOL0     H11488   3.235  -0.285   3.172 -0.5657  1.7144 -0.9741
  845MOL0     H11489   3.086  -0.471   3.274  0.3241 -0.0469 -0.0787
  845MOL0     H11490   3.010  -0.483   3.114  0.7492  1.9182 -0.2755
  845MOL0     H11491   3.204  -0.596   3.030 -1.7756  0.8210 -0.0912
  845MOL0     H11492   3.146  -0.666   3.190 -0.1630 -0.5110 -0.3913
  845MOL0     H11493   3.297  -0.572   3.423  1.5105 -0.1463  2.0323
  845MOL0     H11494   3.676  -0.438   3.376  1.3050 -0.6443  0.0124
  845MOL0     H11495   3.586  -0.522   3.509 -1.0853 -1.8353 -1.3228
  845MOL0     H11496   3.611  -0.313   3.601  2.3041 -3.3794 -0.7246
  845MOL0     H11497   3.450  -0.346   3.555 -0.9353 -2.3634 -2.3962
  845MOL0     H11498   3.622  -0.186   3.357  1.5614 -2.4572  1.5584
  845MOL0     H11499   3.447  -0.194   3.368 -0.1129 -1.6935  0.0568
  845MOL0     H11500   3.566   0.008   3.474 -1.2668  0.6680  1.9408
  845MOL0     H11501   3.634  -0.091   3.590 -0.4268 -0.8052 -0.9767
  845MOL0     H11502   3.177  -0.044   3.713  0.3056 -0.1796  0.1268
  845MOL0     H11503   2.997   0.057   3.611  0.6325  0.5329 -0.0585
  845MOL0     H11504   2.651   0.074   3.281  1.6158 -0.8737  2.1666
  845MOL0     H11505   2.466   0.211   3.189  2.3954 -0.8939 -2.3720
  845MOL0     H11506   2.390   0.402   3.008 -0.1442  1.0114 -0.4554
  845MOL0     H11507   2.300   0.540   3.066 -2.1723 -0.1289  2.4732
  845MOL0     H11508   2.264   0.283   3.207 -0.7629  0.5947 -0.2613
  845MOL0     H11509   2.160   0.340   3.071  0.3760  0.4634 -1.5234
  845MOL0     H11510   2.122   0.556   3.202  2.4000 -0.2126 -0.7876
  845MOL0     H11511   2.215   0.480   3.332  0.6415 -1.6965 -0.3847
  845MOL0     H11512   1.967   0.377   3.188 -1.7644  0.6659  0.5598
  845MOL0     H11513   2.056   0.290   3.319 -1.7698  0.0420  1.2783
  845MOL0     H11514   1.892   0.550   3.333 -1.0837 -0.5478 -0.0964
  845MOL0     H11515   1.999   0.496   3.460 -0.8823 -0.3088  1.1540
  845MOL0     H11516   1.877   0.267   3.438  0.1583  0.4021 -1.5865
  845MOL0     H11517   1.751   0.339   3.346  0.8853 -0.6458 -1.2174
  845MOL0     H11518   1.828   0.426   3.627  0.9717  2.5925 -1.0710
  845MOL0     H11519   1.705   0.517   3.527 -1.8184 -0.8941 -0.7381
  845MOL0     H11520   1.666   0.242   3.638  1.1766 -0.3065 -0.3007
  845MOL0     H11521   1.561   0.320   3.505 -0.9793  1.3062  0.4878
  845MOL0     H11522   2.690   0.573   3.286 -2.1355  0.5794  1.2809
  845MOL0     H11523   2.853   0.435   3.369 -2.0066  0.7576  0.1908
  845MOL0     H11524   3.206   0.107   3.243  0.6069 -0.3843  0.1676
  845MOL0     H11525   3.397   0.019   3.347  1.1901 -0.1861  0.0894
  845MOL0     H11526   3.870  -0.171   2.892 -2.0287  1.0861 -0.2568
  845MOL0     H11527   4.092  -0.110   2.971 -1.2070  0.5057  0.0900
  845MOL0     H11528   4.403  -0.008   3.262  3.8288 -0.6756  0.6989
  845MOL0     H11529   4.625   0.055   3.356 -0.8714 -1.2255 -1.4128
  845MOL0     H11530   4.723   0.470   3.397  0.4012  0.0584  1.1416
  845MOL0     H11531   4.804   0.447   3.238  2.4943  0.3348  0.0516
  845MOL0     H11532   4.996   0.362   3.360 -1.0489 -1.1313 -1.1497
  845MOL0     H11533   4.943   0.524   3.407 -0.7788 -0.4785 -0.1828
  845MOL0     H11534   4.862   0.271   3.547  2.0431 -1.3011 -2.2443
  845MOL0     H11535   4.825   0.435   3.603  0.9957 -0.6876  0.4517
  845MOL0     H11536   5.099   0.310   3.586 -1.1752  0.5900 -2.1084
  845MOL0     H11537   5.084   0.481   3.610  2.3343 -1.0664  0.3814
  845MOL0     H11538   5.026   0.301   4.003  0.3596 -0.0152  0.2801
  845MOL0     H11539   4.539   0.463   3.250  2.9499 -1.5033  1.2610
  845MOL0     H11540   4.324   0.409   3.186 -1.7515 -0.9193 -0.3036
  846MOL0     O11541   4.776   4.435  10.807  0.9252  0.2312  0.5293
  846MOL0     C11542   4.776   4.312  10.831 -0.8211 -0.1058  0.3703
  846MOL0     O11543   4.671   4.229  10.849  0.7518 -0.4507  1.2202
  846MOL0     C11544   4.547   4.285  10.844  0.4163 -1.0312 -0.4514
  846MOL0     C11545   4.448   4.253  10.742  0.2530  0.6720  0.2994
  846MOL0     C11546   4.315   4.297  10.749 -0.0606  0.0892 -0.3626
  846MOL0     C11547   4.276   4.388  10.846  0.0286  0.4635 -0.8740
  846MOL0     O11548   4.142   4.429  10.856  0.1212  0.2926 -0.0695
  846MOL0     C11549   4.112   4.550  10.937 -0.0376  0.1264  0.9323
  846MOL0     C11550   3.973   4.611  10.907  0.7304 -0.8283  0.4099
  846MOL0     C11551   3.859   4.508  10.935  0.6843 -0.5422  0.3479
  846MOL0     C11552   3.727   4.582  10.920 -0.3969 -0.1863  0.2041
  846MOL0     C11553   3.608   4.496  10.928  0.6901 -0.2603  0.7546
  846MOL0     C11554   3.487   4.590  10.923  0.0665  0.2570 -1.1333
  846MOL0     C11555   3.352   4.512  10.907  0.1427  0.6065  0.4583
  846MOL0     C11556   3.220   4.593  10.901 -0.4170  0.8779  0.0218
  846MOL0     N11557   3.100   4.506  10.896 -0.1442 -0.2173 -0.5201
  846MOL0     C11558   2.976   4.561  10.890  0.0689 -0.3418 -0.0933
  846MOL0     C11559   2.895   4.457  10.924  0.5267 -0.3551  0.5341
  846MOL0     C11560   2.748   4.489  10.946  0.6813  0.2905 -1.0830
  846MOL0     C11561   2.666   4.377  11.009  0.2039 -0.2927  0.1074
  846MOL0     C11562   2.522   4.413  11.026 -0.2469 -1.6290  0.1177
  846MOL0     C11563   2.438   4.305  11.084  0.5239  0.4219 -0.4406
  846MOL0     O11564   2.410   4.208  10.982  0.0926  0.1190  0.1967
  846MOL0     C11565   2.294   4.139  10.989  1.2988 -0.0569 -0.5592
  846MOL0     C11566   2.230   4.114  11.119 -1.6302  0.0886 -0.2022
  846MOL0     C11567   2.113   4.045  11.128 -0.0943  0.0179  0.9086
  846MOL0     C11568   2.051   3.980  11.016 -0.0889  0.1078 -0.8951
  846MOL0     C11569   1.933   3.895  11.034 -0.0429 -0.0449  0.2352
  846MOL0     O11570   1.905   3.869  11.171  0.3415 -0.0626  0.3852
  846MOL0     C11571   1.791   3.785  11.197 -0.8453 -0.0890 -0.2367
  846MOL0     C11572   1.814   3.648  11.236 -0.3683 -0.0605  0.6063
  846MOL0     C11573   1.702   3.583  11.288 -0.4257  0.3319  0.9336
  846MOL0     C11574   1.569   3.632  11.295  0.0844 -0.6772  0.2713
  846MOL0     O11575   1.477   3.556  11.354 -0.5015 -0.1611 -0.2439
  846MOL0     C11576   1.338   3.581  11.327 -0.6490  0.0150 -0.1717
  846MOL0     C11577   1.284   3.649  11.445  0.4786 -0.6158 -0.3530
  846MOL0     C11578   1.133   3.670  11.427  0.5468 -0.0857 -0.0173
  846MOL0     C11579   1.070   3.775  11.527 -0.3978 -0.1502  1.0833
  846MOL0     C11580   0.924   3.748  11.575 -0.1833 -0.4660 -0.1119
  846MOL0     C11581   0.926   3.644  11.684  0.7297  0.9180 -0.5508
  846MOL0     C11582   0.817   3.669  11.790 -0.3974  0.4288 -1.0532
  846MOL0     C11583   0.754   3.543  11.835  0.2781  1.0169  0.2991
  846MOL0    Cl11584   0.883   3.430  11.896  0.5590  0.0298 -0.0048
  846MOL0     C11585   1.550   3.767  11.257 -0.2813  0.9451 -0.1644
  846MOL0     C11586   1.659   3.850  11.206  0.3362  0.9739 -0.1552
  846MOL0     O11587   1.866   3.853  10.942 -0.4908  0.6681  0.3086
  846MOL0     C11588   2.117   3.984  10.895 -0.0010 -0.0588  0.0745
  846MOL0     C11589   2.232   4.071  10.873  0.3058 -0.0566 -0.5438
  846MOL0     N11590   2.968   4.351  10.952  0.2822  0.4046 -1.0920
  846MOL0     N11591   3.093   4.378  10.942 -0.3991 -0.6991 -0.5286
  846MOL0     C11592   4.360   4.412  10.958 -1.8408  0.5047 -0.5957
  846MOL0     C11593   4.505   4.363  10.949  0.7933  0.4564 -0.4416
  846MOL0     C11594   4.907   4.253  10.829  0.6010 -0.4479  0.8021
  846MOL0     C11595   5.017   4.310  10.771 -0.8081 -1.0099 -0.1678
  846MOL0     C11596   5.133   4.235  10.772  0.3141  0.0838  0.4313
  846MOL0     C11597   5.148   4.105  10.832 -0.4806  0.0931  0.6695
  846MOL0     O11598   5.260   4.025  10.822 -0.3395 -1.2329  0.5386
  846MOL0     C11599   5.359   4.056  10.914 -0.0864 -0.4996 -0.1507
  846MOL0     C11600   5.392   3.944  11.013  0.3237 -0.3589  0.3848
  846MOL0     C11601   5.454   3.822  10.951  0.5775 -0.2436 -0.6172
  846MOL0     C11602   5.480   3.712  11.055 -0.0120 -0.1441  0.0523
  846MOL0     C11603   5.591   3.751  11.142  0.3942 -0.6509  0.1386
  846MOL0     C11604   5.680   3.788  11.220  0.2312 -0.3251 -0.0660
  846MOL0     C11605   5.042   4.049  10.896  0.6597  0.1000  0.4280
  846MOL0     C11606   4.921   4.128  10.893 -0.8445 -0.2880 -0.9529
  846MOL0     H11607   4.488   4.187  10.666  2.0254  2.9068 -0.8739
  846MOL0     H11608   4.243   4.260  10.677 -1.8062  4.4152 -1.1018
  846MOL0     H11609   4.191   4.623  10.918 -1.2755  0.9368 -1.6447
  846MOL0     H11610   4.120   4.521  11.042 -0.5242 -1.1251  0.6533
  846MOL0     H11611   3.964   4.652  10.806 -0.1944 -1.1703  0.3504
  846MOL0     H11612   3.977   4.698  10.974  2.1242 -0.9128  0.4757
  846MOL0     H11613   3.864   4.461  11.034 -1.3912 -0.3417  0.5892
  846MOL0     H11614   3.850   4.426  10.864 -1.3291  1.7657 -2.2646
  846MOL0     H11615   3.717   4.656  11.000  0.8786 -1.8034  1.9526
  846MOL0     H11616   3.724   4.624  10.819  2.6013 -1.9116 -0.7396
  846MOL0     H11617   3.608   4.447  11.027 -2.4191  0.8028  1.3918
  846MOL0     H11618   3.600   4.428  10.843 -0.9900  0.9134 -0.0672
  846MOL0     H11619   3.504   4.661  10.841  1.3435  1.0957 -0.1916
  846MOL0     H11620   3.475   4.640  11.019 -3.6463  0.5078 -1.6020
  846MOL0     H11621   3.369   4.445  10.823 -0.6713 -0.3253  1.0244
  846MOL0     H11622   3.347   4.454  11.000 -0.3820 -2.5708 -1.4096
  846MOL0     H11623   3.216   4.661  10.815 -1.7239  2.5975  1.3828
  846MOL0     H11624   3.216   4.657  10.989 -0.6656 -0.4673  1.0257
  846MOL0     H11625   2.950   4.663  10.863  0.2895  0.3885  2.2446
  846MOL0     H11626   2.719   4.509  10.843  1.7494  0.6905 -1.3284
  846MOL0     H11627   2.733   4.578  11.009 -0.1479 -1.1390  0.8422
  846MOL0     H11628   2.707   4.358  11.108 -1.0433  2.0576  1.1647
  846MOL0     H11629   2.678   4.281  10.958 -0.3845 -0.6078  0.5505
  846MOL0     H11630   2.528   4.497  11.097 -0.1122 -0.6967 -0.9721
  846MOL0     H11631   2.483   4.455  10.933  2.0333 -0.7072 -0.4933
  846MOL0     H11632   2.346   4.341  11.130  1.8709  1.6448  1.4290
  846MOL0     H11633   2.493   4.254  11.164  0.9570 -1.7620 -2.0139
  846MOL0     H11634   2.288   4.150  11.204 -1.7530  0.8193 -0.4214
  846MOL0     H11635   2.073   4.028  11.227 -2.0148  0.4845  0.2517
  846MOL0     H11636   1.911   3.601  11.225 -0.4864 -0.2223  0.2754
  846MOL0     H11637   1.714   3.483  11.328 -0.4564 -0.9475 -2.0075
  846MOL0     H11638   1.298   3.480  11.313 -2.3750  0.5624  0.5335
  846MOL0     H11639   1.325   3.651  11.243  1.8131  1.3688  0.4663
  846MOL0     H11640   1.341   3.742  11.441 -1.8189  0.8633 -1.0340
  846MOL0     H11641   1.310   3.598  11.538  1.1961 -0.4723 -0.4750
  846MOL0     H11642   1.088   3.575  11.455  0.5638  0.3142  1.4944
  846MOL0     H11643   1.117   3.693  11.322  0.3003 -0.7259 -0.1244
  846MOL0     H11644   1.130   3.792  11.617  0.1000 -0.6369  0.8486
  846MOL0     H11645   1.071   3.870  11.471  0.9839 -0.8536 -0.1670
  846MOL0     H11646   0.861   3.714  11.492 -0.7431  1.0891 -0.3530
  846MOL0     H11647   0.878   3.838  11.617  0.4497 -0.2515  0.1342
  846MOL0     H11648   1.022   3.643  11.736 -0.2722  2.4338  1.4512
  846MOL0     H11649   0.912   3.550  11.629  1.6181 -0.1860  0.9984
  846MOL0     H11650   0.876   3.720  11.867  0.3743 -0.7520 -0.8371
  846MOL0     H11651   0.735   3.735  11.758 -2.2084 -0.8922  0.6202
  846MOL0     H11652   0.707   3.490  11.752  0.9834 -1.2593  1.2690
  846MOL0     H11653   0.686   3.575  11.914 -2.0009  3.7982 -2.5535
  846MOL0     H11654   1.451   3.812  11.265 -0.5186  0.1764  2.0778
  846MOL0     H11655   1.628   3.951  11.182 -1.0367  0.5252 -0.3653
  846MOL0     H11656   2.072   3.942  10.805  2.0052  0.3152 -1.1756
  846MOL0     H11657   2.282   4.081  10.777  1.1166  3.9514  0.1055
  846MOL0     H11658   4.328   4.463  11.048 -0.8619 -0.7453  0.4971
  846MOL0     H11659   4.559   4.383  11.041 -1.6099 -0.6523  1.3211
  846MOL0     H11660   5.003   4.404  10.718 -1.2724 -0.8400  0.2454
  846MOL0     H11661   5.223   4.273  10.724  0.7809 -0.9597  0.4482
  846MOL0     H11662   5.328   4.143  10.972  2.3648  0.3018  0.0803
  846MOL0     H11663   5.445   4.088  10.855 -0.0683  0.7283  0.5137
  846MOL0     H11664   5.454   3.971  11.099 -0.9381 -1.4065  1.6659
  846MOL0     H11665   5.290   3.911  11.037 -0.0404 -0.7568 -1.5363
  846MOL0     H11666   5.534   3.853  10.883  0.1843  0.8059 -0.6250
  846MOL0     H11667   5.377   3.772  10.890 -1.6169  0.6439  1.2759
  846MOL0     H11668   5.387   3.686  11.108 -1.3064 -0.5580 -2.2706
  846MOL0     H11669   5.491   3.621  10.996 -0.6847  2.2537 -4.1367
  846MOL0     H11670   5.760   3.835  11.272  2.0900 -2.1715 -1.1044
  846MOL0     H11671   5.038   3.945  10.926 -1.0472 -0.3334 -1.1263
  846MOL0     H11672   4.844   4.072  10.944  0.7189 -0.4996  1.3199
  847MOL0     O11673   8.260   2.553  11.124  0.1765 -0.1647 -0.7752
  847MOL0     C11674   8.338   2.587  11.215  0.8125 -0.5162  0.4266
  847MOL0     O11675   8.315   2.679  11.303  0.5843  0.0259 -0.7358
  847MOL0     C11676   8.192   2.754  11.311  0.4127 -0.0956 -0.2364
  847MOL0     C11677   8.201   2.892  11.346  0.0316 -0.5273 -0.3727
  847MOL0     C11678   8.090   2.977  11.366  0.1770 -1.0332 -0.1741
  847MOL0     C11679   7.963   2.925  11.340  0.8320 -0.4589  0.5589
  847MOL0     O11680   7.856   3.010  11.341 -0.3539 -0.4744  0.3143
  847MOL0     C11681   7.741   2.967  11.263 -0.0739 -0.0811 -0.0834
  847MOL0     C11682   7.650   3.083  11.220 -0.1183 -1.2249 -0.5192
  847MOL0     C11683   7.509   3.043  11.169 -0.0703 -0.2722 -0.1743
  847MOL0     C11684   7.516   2.913  11.084  0.4374  0.8452 -0.0730
  847MOL0     C11685   7.382   2.902  11.001 -0.4598  1.2835  0.2402
  847MOL0     C11686   7.382   2.819  10.886 -0.7889 -0.2257 -0.8233
  847MOL0     C11687   7.239   2.825  10.824  0.4342  0.5373 -0.3202
  847MOL0     C11688   7.230   2.705  10.730 -0.0024  0.0204 -0.2778
  847MOL0     N11689   7.114   2.631  10.734  0.2696 -0.4123 -0.6424
  847MOL0     C11690   7.104   2.501  10.704  0.1980  0.7143 -0.0751
  847MOL0     C11691   6.969   2.485  10.698  0.7861 -0.5398 -0.7105
  847MOL0     C11692   6.895   2.358  10.658 -0.6201  0.3014  0.9358
  847MOL0     C11693   6.907   2.246  10.763  0.5135  0.1224 -1.2116
  847MOL0     C11694   6.857   2.304  10.898  0.2454  0.1685  0.0649
  847MOL0     C11695   6.706   2.321  10.914 -0.9012  0.1199 -0.1877
  847MOL0     O11696   6.632   2.193  10.888  0.5465  0.0835 -0.6454
  847MOL0     C11697   6.509   2.174  10.934  0.6479  0.3941  0.1098
  847MOL0     C11698   6.477   2.057  11.007  0.0643 -0.5333  0.0967
  847MOL0     C11699   6.357   2.036  11.066 -0.0519 -0.5408 -0.2802
  847MOL0     C11700   6.256   2.140  11.067 -0.0169 -0.1817  0.0185
  847MOL0     C11701   6.122   2.123  11.139 -0.0313 -1.0052  0.7763
  847MOL0     O11702   6.037   2.222  11.112 -0.0411 -0.0540  0.8563
  847MOL0     C11703   5.898   2.220  11.141 -0.1276 -0.3318  0.2982
  847MOL0     C11704   5.826   2.103  11.180 -1.2240  0.5857  0.6652
  847MOL0     C11705   5.692   2.107  11.209  0.3513 -0.3238  0.5640
  847MOL0     C11706   5.623   2.221  11.187  0.5689 -0.3518 -0.5089
  847MOL0     O11707   5.483   2.232  11.186 -0.0423 -0.3319 -1.0336
  847MOL0     C11708   5.402   2.124  11.234  1.1120 -0.2392 -0.6204
  847MOL0     C11709   5.258   2.161  11.236  0.2551 -0.1949 -0.4024
  847MOL0     C11710   5.179   2.046  11.311 -0.1754 -0.7932 -0.0727
  847MOL0     C11711   5.030   2.084  11.335 -0.7319 -0.1688 -0.4195
  847MOL0     C11712   4.950   2.097  11.200 -0.3257 -0.2487  0.6505
  847MOL0     C11713   4.815   2.152  11.241 -0.4312 -0.2056  0.0347
  847MOL0     C11714   4.719   2.146  11.124 -1.2078 -0.6806 -0.7647
  847MOL0     C11715   4.665   2.009  11.099  1.0078  0.1275  0.0246
  847MOL0    Cl11716   4.491   2.015  11.044  0.3486  0.2149  0.0242
  847MOL0     C11717   5.689   2.347  11.153  0.7832 -0.1266  0.2043
  847MOL0     C11718   5.828   2.341  11.131 -0.1227 -1.1199 -1.3014
  847MOL0     O11719   6.103   2.025  11.207 -0.2514 -0.1829 -0.5194
  847MOL0     C11720   6.286   2.255  10.991 -0.0316  0.0040 -0.7950
  847MOL0     C11721   6.410   2.273  10.928 -0.0133 -0.5058  0.5842
  847MOL0     N11722   6.901   2.597  10.698  0.1892 -0.0248 -0.0691
  847MOL0     N11723   6.987   2.688  10.730  0.2088 -0.1128  0.5799
  847MOL0     C11724   7.951   2.791  11.309  0.3402  0.2671  0.3418
  847MOL0     C11725   8.061   2.711  11.293 -0.9355  0.9839 -0.2048
  847MOL0     C11726   8.466   2.532  11.234 -0.6762  0.2489  0.1608
  847MOL0     C11727   8.540   2.486  11.125  0.5669  0.4845  0.5458
  847MOL0     C11728   8.668   2.426  11.143 -0.4139 -0.7132  0.8200
  847MOL0     C11729   8.717   2.407  11.274 -0.3240 -0.5979  0.6956
  847MOL0     O11730   8.839   2.365  11.315 -1.0962  0.0575 -1.2542
  847MOL0     C11731   8.940   2.320  11.228 -0.2805  0.7033  0.5053
  847MOL0     C11732   8.904   2.169  11.198 -0.0329  0.1169  0.1247
  847MOL0     C11733   8.894   2.061  11.308 -0.0396  0.5935  0.2644
  847MOL0     C11734   8.851   1.925  11.258 -0.7676  0.5444 -0.7424
  847MOL0     C11735   8.699   1.919  11.243 -0.3160  0.2174  0.6966
  847MOL0     C11736   8.583   1.902  11.211 -0.3469 -0.0334 -0.4634
  847MOL0     C11737   8.639   2.449  11.381 -0.0360  1.0372 -0.2859
  847MOL0     C11738   8.512   2.503  11.361  0.8277  0.1036  0.3573
  847MOL0     H11739   8.298   2.928  11.381 -0.1004 -3.8529  4.4479
  847MOL0     H11740   8.093   3.083  11.389  4.8893  0.0376 -4.0602
  847MOL0     H11741   7.682   2.896  11.322 -1.9940  0.0544 -1.7524
  847MOL0     H11742   7.783   2.933  11.168  0.4082  2.3327 -0.8109
  847MOL0     H11743   7.699   3.150  11.149 -1.5658  0.6977  0.1931
  847MOL0     H11744   7.647   3.146  11.309 -1.8258 -1.1923 -0.5670
  847MOL0     H11745   7.464   3.118  11.103  2.3761 -1.0283 -2.9417
  847MOL0     H11746   7.439   3.032  11.252 -0.7311  1.2938 -0.5023
  847MOL0     H11747   7.606   2.916  11.022  2.4251  1.4719  2.6893
  847MOL0     H11748   7.524   2.821  11.143  0.0976  0.7742 -0.1329
  847MOL0     H11749   7.347   3.001  10.971 -1.2872  0.6450 -0.9613
  847MOL0     H11750   7.311   2.857  11.071 -0.3382 -0.9860 -1.0242
  847MOL0     H11751   7.398   2.717  10.921  0.5659  0.5708  1.0913
  847MOL0     H11752   7.455   2.853  10.813 -0.6528 -1.2172 -1.1540
  847MOL0     H11753   7.158   2.822  10.897  1.7803  2.6597  1.3824
  847MOL0     H11754   7.223   2.923  10.777  0.6503  0.6337 -0.1908
  847MOL0     H11755   7.312   2.637  10.755  0.8462  0.7143 -1.0426
  847MOL0     H11756   7.261   2.746  10.633  1.2375  2.6751  1.1160
  847MOL0     H11757   7.182   2.429  10.682 -0.9293 -0.5786  0.0169
  847MOL0     H11758   6.938   2.315  10.568 -0.2185 -0.4702  1.4915
  847MOL0     H11759   6.790   2.378  10.635 -0.4698  0.2442  0.1511
  847MOL0     H11760   7.011   2.211  10.767  0.1121 -0.9961 -0.0200
  847MOL0     H11761   6.843   2.167  10.725 -1.0987  1.0397 -0.5059
  847MOL0     H11762   6.885   2.225  10.968 -0.5629  1.4052  1.8635
  847MOL0     H11763   6.909   2.398  10.919  1.6418 -0.5124 -0.2076
  847MOL0     H11764   6.671   2.390  10.837  0.4851  1.2883  0.1719
  847MOL0     H11765   6.685   2.365  11.012 -0.3543 -0.2004  0.0801
  847MOL0     H11766   6.548   1.975  11.008 -1.4914 -1.9424  0.3040
  847MOL0     H11767   6.340   1.943  11.117  1.6116 -0.2578  0.8839
  847MOL0     H11768   5.877   2.008  11.184 -1.6295  0.3366  0.0373
  847MOL0     H11769   5.628   2.021  11.222 -1.7227  1.0418 -0.0178
  847MOL0     H11770   5.430   2.103  11.337  0.3624  0.4993 -0.2492
  847MOL0     H11771   5.411   2.034  11.172 -2.7761  0.4792 -2.5949
  847MOL0     H11772   5.218   2.176  11.135 -1.9712 -0.6343  0.3605
  847MOL0     H11773   5.235   2.254  11.287 -2.3000 -1.7287  1.4717
  847MOL0     H11774   5.224   2.032  11.410  0.8522  1.9437 -0.0694
  847MOL0     H11775   5.180   1.947  11.265 -1.7244 -2.9103  3.9980
  847MOL0     H11776   4.970   2.008  11.386 -1.9857  0.3716 -1.0573
  847MOL0     H11777   5.036   2.174  11.397  2.5721 -0.4698 -0.1264
  847MOL0     H11778   4.932   2.000  11.153  1.0590 -0.4907  0.5719
  847MOL0     H11779   4.990   2.175  11.133 -0.2597  0.0811  1.0705
  847MOL0     H11780   4.825   2.248  11.291  0.5014  0.1229 -0.7389
  847MOL0     H11781   4.781   2.095  11.327  2.2586  0.0071  1.3458
  847MOL0     H11782   4.641   2.220  11.142 -0.1601  0.1243  0.6883
  847MOL0     H11783   4.764   2.190  11.034 -0.5341 -0.3829 -0.2911
  847MOL0     H11784   4.670   1.961  11.197  0.9939  1.7928  0.8835
  847MOL0     H11785   4.714   1.948  11.023  3.3736  1.2432  0.5398
  847MOL0     H11786   5.634   2.439  11.141 -0.1001 -0.2375  2.6797
  847MOL0     H11787   5.880   2.435  11.112  1.6442 -1.6301  0.5791
  847MOL0     H11788   6.206   2.328  10.988 -1.1736 -1.1440  0.3500
  847MOL0     H11789   6.418   2.370  10.879  4.1851 -1.6918 -1.5617
  847MOL0     H11790   7.850   2.756  11.292 -0.1512  0.9741  1.6205
  847MOL0     H11791   8.042   2.606  11.273  2.3697  0.0266  1.0702
  847MOL0     H11792   8.491   2.505  11.030  0.3232 -0.6718  0.4323
  847MOL0     H11793   8.729   2.404  11.057  0.3302  0.4026  1.0441
  847MOL0     H11794   9.038   2.329  11.275 -0.5208 -0.9798  1.4137
  847MOL0     H11795   8.957   2.386  11.142 -0.7681 -1.8585 -1.7173
  847MOL0     H11796   8.814   2.167  11.135 -0.0270 -1.2046  0.1250
  847MOL0     H11797   8.980   2.131  11.129  1.4514  0.8102  1.3424
  847MOL0     H11798   8.834   2.094  11.394  1.7093 -0.6242  2.0482
  847MOL0     H11799   8.998   2.059  11.341 -1.0148  1.7120  3.8134
  847MOL0     H11800   8.894   1.903  11.160 -0.3665 -0.2652 -0.3875
  847MOL0     H11801   8.885   1.848  11.327  0.6366  1.0679 -0.8222
  847MOL0     H11802   8.480   1.885  11.185 -1.0711 -0.9198  2.6063
  847MOL0     H11803   8.657   2.431  11.486 -0.3168  1.8947 -0.0833
  847MOL0     H11804   8.447   2.540  11.440 -0.8066 -1.6626 -0.0852
  848MOL0     O11805  10.693  10.422   0.629 -0.2274 -0.7321  0.9108
  848MOL0     C11806  10.773  10.385   0.544  0.3135  0.1467 -1.4529
  848MOL0     O11807  10.743  10.335   0.422 -0.8664  0.6996  0.2404
  848MOL0     C11808  10.608  10.324   0.383  0.1471  0.9742 -0.0046
  848MOL0     C11809  10.531  10.433   0.341 -1.0864 -0.2695  0.3987
  848MOL0     C11810  10.404  10.413   0.276  1.3260  0.1443 -0.4750
  848MOL0     C11811  10.341  10.292   0.272 -0.5723 -0.1237 -0.4656
  848MOL0     O11812  10.220  10.275   0.222  0.5077  0.7704  0.3469
  848MOL0     C11813  10.161  10.345   0.112 -0.3242 -0.1978 -0.3971
  848MOL0     C11814  10.038  10.274   0.070  0.5688 -0.1940  0.3728
  848MOL0     C11815   9.926  10.288   0.173  1.0941  0.0737 -1.1063
  848MOL0     C11816   9.783  10.233   0.123  0.0564 -0.3102 -0.6391
  848MOL0     C11817   9.681  10.223   0.228 -0.1161 -0.6326 -0.0743
  848MOL0     C11818   9.541  10.184   0.163  0.0378  0.2456 -0.3782
  848MOL0     C11819   9.474  10.288   0.077  0.5892  0.3586 -0.1175
  848MOL0     C11820   9.319  10.287   0.110  0.8196 -0.3394 -0.6552
  848MOL0     N11821   9.259  10.414   0.073  0.1507  0.4478  0.7126
  848MOL0     C11822   9.164  10.419  -0.019  0.5917 -1.2946 -0.2157
  848MOL0     C11823   9.139  10.558  -0.030 -0.4385 -0.1396 -1.0482
  848MOL0     C11824   9.060  10.634  -0.137  0.6128  0.5332 -0.0064
  848MOL0     C11825   8.952  10.715  -0.081 -0.5287 -0.0020 -0.6261
  848MOL0     C11826   8.916  10.835  -0.156  0.3452 -0.3591 -0.2814
  848MOL0     C11827   8.835  10.810  -0.287  0.4700  0.7072 -0.1679
  848MOL0     O11828   8.695  10.764  -0.252 -0.4691 -0.8172 -0.1771
  848MOL0     C11829   8.590  10.852  -0.235 -0.4625 -0.0737 -0.0616
  848MOL0     C11830   8.457  10.813  -0.213 -0.7315  0.4847 -0.5966
  848MOL0     C11831   8.349  10.900  -0.203  0.1983  0.3236 -0.5469
  848MOL0     C11832   8.374  11.037  -0.223 -0.4326 -0.6631 -0.0775
  848MOL0     C11833   8.252  11.122  -0.220 -0.6599  0.3005  0.5267
  848MOL0     O11834   8.129  11.061  -0.202  0.8767  0.2239 -0.1294
  848MOL0     C11835   8.024  11.136  -0.155  0.4698  0.9838  0.5039
  848MOL0     C11836   7.978  11.261  -0.216  0.7057 -0.8506 -0.0409
  848MOL0     C11837   7.867  11.327  -0.171 -0.7197 -0.4903  0.4160
  848MOL0     C11838   7.791  11.272  -0.072  0.5735 -0.2185  0.6583
  848MOL0     O11839   7.676  11.331  -0.013  0.1268 -0.0388 -0.1512
  848MOL0     C11840   7.645  11.465  -0.062  0.1310  1.0442  1.1672
  848MOL0     C11841   7.544  11.533   0.035  0.7445  0.1868  0.7518
  848MOL0     C11842   7.394  11.481   0.039 -1.3755  0.3870 -0.4588
  848MOL0     C11843   7.305  11.561   0.134  0.2201  0.4325 -0.0430
  848MOL0     C11844   7.157  11.518   0.112 -0.2251 -0.4871 -0.4675
  848MOL0     C11845   7.042  11.594   0.178  0.5734 -0.2924  0.4703
  848MOL0     C11846   6.923  11.610   0.086 -0.3121  0.2881 -0.4151
  848MOL0     C11847   6.826  11.714   0.129  0.3802  0.0582 -0.1017
  848MOL0    Cl11848   6.737  11.641   0.260  0.1639  0.0013  0.0709
  848MOL0     C11849   7.828  11.154  -0.015  0.0013 -0.3435  0.3765
  848MOL0     C11850   7.945  11.088  -0.061 -0.7914 -0.1716  0.7372
  848MOL0     O11851   8.273  11.250  -0.232  0.3560  1.0220  0.1194
  848MOL0     C11852   8.500  11.087  -0.244 -0.0088 -0.6403  0.2772
  848MOL0     C11853   8.602  10.997  -0.249 -0.1247 -1.2616 -0.4216
  848MOL0     N11854   9.233  10.629   0.045  0.0120  0.0016  0.0875
  848MOL0     N11855   9.300  10.538   0.103 -0.2341 -0.3754  0.3695
  848MOL0     C11856  10.407  10.186   0.331 -0.4966 -0.8562  0.7187
  848MOL0     C11857  10.543  10.197   0.373  0.1922  0.3104  1.0026
  848MOL0     C11858  10.913  10.389   0.584 -0.2990 -0.4010 -0.9260
  848MOL0     C11859  10.938  10.333   0.711  0.1806 -0.2495  0.9373
  848MOL0     C11860  11.074  10.313   0.746  0.0170 -0.2405  0.5026
  848MOL0     C11861  11.180  10.359   0.662  0.3553 -0.4575  0.4556
  848MOL0     O11862  11.313  10.341   0.690 -0.1932 -0.0959  0.2691
  848MOL0     C11863  11.363  10.327   0.831  0.1226 -0.3517 -0.5738
  848MOL0     C11864  11.516  10.331   0.828  0.0574 -0.0867 -0.6816
  848MOL0     C11865  11.568  10.465   0.770 -0.0297  0.0576 -0.5975
  848MOL0     C11866  11.721  10.468   0.782  0.3468  1.5172  0.5307
  848MOL0     C11867  11.769  10.611   0.772  0.5951 -0.3946  0.2983
  848MOL0     C11868  11.794  10.734   0.750  0.5829  0.2276  1.3158
  848MOL0     C11869  11.145  10.418   0.533 -0.2215 -0.0126 -0.4463
  848MOL0     C11870  11.014  10.439   0.504  0.0277  0.5790  0.3975
  848MOL0     H11871  10.585  10.526   0.349  1.8559 -1.9230  1.3442
  848MOL0     H11872  10.371  10.507   0.232  1.8016  0.7039  0.3348
  848MOL0     H11873  10.231  10.336   0.029  1.6012 -3.8147  1.4036
  848MOL0     H11874  10.143  10.451   0.134  2.1664 -0.1130  1.7321
  848MOL0     H11875  10.049  10.166   0.066  0.6897 -0.2060  0.9258
  848MOL0     H11876  10.008  10.308  -0.030 -0.4540 -2.6738 -0.2432
  848MOL0     H11877   9.907  10.394   0.196  1.2621 -0.4595  1.8924
  848MOL0     H11878   9.961  10.241   0.265  1.1017  2.6592  0.3100
  848MOL0     H11879   9.758  10.305   0.045  0.1115 -0.2316 -0.5853
  848MOL0     H11880   9.798  10.135   0.078 -0.2720 -0.9119  0.5108
  848MOL0     H11881   9.666  10.320   0.276 -2.2051 -0.3646 -1.1343
  848MOL0     H11882   9.710  10.151   0.306  2.4231  2.6842  2.3229
  848MOL0     H11883   9.476  10.150   0.243  0.9657 -2.1313 -0.5605
  848MOL0     H11884   9.567  10.094   0.106  0.6198 -0.7552  1.3936
  848MOL0     H11885   9.517  10.388   0.081 -0.5129  0.8165  0.8151
  848MOL0     H11886   9.500  10.246  -0.021 -0.1644 -1.5977  0.4758
  848MOL0     H11887   9.288  10.281   0.215 -0.3787  0.7978 -0.9224
  848MOL0     H11888   9.262  10.198   0.080 -0.6181 -0.0574  1.0392
  848MOL0     H11889   9.131  10.334  -0.078  1.0624 -1.2863 -0.4864
  848MOL0     H11890   9.016  10.554  -0.199 -1.0552  0.5813  1.0598
  848MOL0     H11891   9.115  10.702  -0.203 -3.8171  2.8198 -1.7793
  848MOL0     H11892   8.994  10.744   0.016  2.5274 -1.5804 -1.3456
  848MOL0     H11893   8.869  10.646  -0.061  0.8693 -1.0231  2.2653
  848MOL0     H11894   8.853  10.888  -0.084 -2.3740 -1.4458 -1.6906
  848MOL0     H11895   9.008  10.891  -0.173  2.2611 -1.8356  3.8797
  848MOL0     H11896   8.884  10.735  -0.350  0.2971  0.3612  0.1076
  848MOL0     H11897   8.832  10.904  -0.344  0.5433  1.6892  1.3978
  848MOL0     H11898   8.443  10.706  -0.208  4.1082 -0.3334  0.6978
  848MOL0     H11899   8.255  10.858  -0.168  1.3985 -2.3233 -0.3151
  848MOL0     H11900   8.042  11.315  -0.285 -2.0564  2.3467 -0.3514
  848MOL0     H11901   7.841  11.428  -0.201 -0.6375 -0.1189  1.5301
  848MOL0     H11902   7.586  11.455  -0.153 -1.3217 -2.4591  2.3048
  848MOL0     H11903   7.724  11.538  -0.084  0.3136  0.7703  0.9110
  848MOL0     H11904   7.544  11.641   0.016  1.5695 -0.3848 -3.4272
  848MOL0     H11905   7.578  11.507   0.136 -0.6584  0.1015  1.2169
  848MOL0     H11906   7.387  11.374   0.057 -1.8670  0.1017 -2.2175
  848MOL0     H11907   7.351  11.505  -0.058  1.4116 -0.8734 -2.1126
  848MOL0     H11908   7.334  11.546   0.238 -2.0738 -2.3918  0.3100
  848MOL0     H11909   7.321  11.667   0.113  3.8511  0.6025  2.6535
  848MOL0     H11910   7.150  11.416   0.151  0.1190 -1.2148 -2.1871
  848MOL0     H11911   7.143  11.504   0.004 -0.3359 -1.4004 -0.3387
  848MOL0     H11912   7.074  11.693   0.211  0.3315  0.1919 -0.7137
  848MOL0     H11913   7.013  11.537   0.267  0.6746  0.6988  1.1531
  848MOL0     H11914   6.947  11.622  -0.021 -0.0656 -2.1775 -0.7003
  848MOL0     H11915   6.871  11.514   0.081 -0.4304  0.1469  2.2842
  848MOL0     H11916   6.750  11.736   0.052  0.2557 -1.9355 -0.6081
  848MOL0     H11917   6.880  11.806   0.154  1.0891 -0.9223  2.1954
  848MOL0     H11918   7.769  11.109   0.064 -1.8190 -0.3477 -0.9410
  848MOL0     H11919   7.963  10.992  -0.014 -0.7085 -0.7966 -0.5252
  848MOL0     H11920   8.534  11.189  -0.248  1.4119 -1.1267 -0.8004
  848MOL0     H11921   8.700  11.044  -0.258 -0.0468 -1.5310 -1.0912
  848MOL0     H11922  10.348  10.097   0.350 -4.2196  1.4320  0.7562
  848MOL0     H11923  10.597  10.110   0.408  0.0128 -0.1761  0.0886
  848MOL0     H11924  10.855  10.284   0.761 -1.2511 -2.6856 -3.3203
  848MOL0     H11925  11.089  10.261   0.840 -0.4655  0.1065  0.7758
  848MOL0     H11926  11.323  10.233   0.873 -3.3968 -0.5144 -3.7635
  848MOL0     H11927  11.316  10.414   0.879 -1.4004 -1.5635  0.2567
  848MOL0     H11928  11.557  10.317   0.928 -1.1296 -0.6216 -0.2517
  848MOL0     H11929  11.542  10.242   0.770 -0.8376 -1.1871  0.5460
  848MOL0     H11930  11.522  10.547   0.825 -2.1069 -1.2541 -0.2602
  848MOL0     H11931  11.536  10.483   0.667 -1.4287 -2.6306 -0.7047
  848MOL0     H11932  11.760  10.420   0.873  3.4200  0.2353 -1.3201
  848MOL0     H11933  11.763  10.415   0.697  2.7995  1.1568  1.8474
  848MOL0     H11934  11.815  10.838   0.740 -0.1582  0.6178  3.2971
  848MOL0     H11935  11.223  10.450   0.465  0.2130 -2.3812 -1.1570
  848MOL0     H11936  10.984  10.490   0.413 -1.9131 -1.3000 -0.1147
  849MOL0     O11937   5.307  11.198   5.625  0.1065  0.7660 -0.6004
  849MOL0     C11938   5.307  11.302   5.555  0.9187  0.7068 -0.2501
  849MOL0     O11939   5.324  11.432   5.597 -0.2171 -0.2010  0.5243
  849MOL0     C11940   5.339  11.448   5.730 -0.7147  0.6835 -0.3200
  849MOL0     C11941   5.415  11.367   5.818  0.3388  0.0556 -0.7427
  849MOL0     C11942   5.412  11.392   5.950 -0.1911 -0.0380 -0.3962
  849MOL0     C11943   5.343  11.491   6.006  0.7170 -0.0431  0.2405
  849MOL0     O11944   5.339  11.507   6.143 -0.3176 -0.0802  0.5522
  849MOL0     C11945   5.363  11.399   6.239  0.3074  0.5369 -0.6065
  849MOL0     C11946   5.329  11.448   6.379 -0.3758 -0.4118 -0.3339
  849MOL0     C11947   5.183  11.463   6.408 -0.0314 -0.7347 -0.2591
  849MOL0     C11948   5.112  11.338   6.438 -0.3549  0.5424  0.4012
  849MOL0     C11949   4.969  11.341   6.389 -0.0986 -0.1266  0.0115
  849MOL0     C11950   4.899  11.467   6.446  0.1887 -0.3995  0.4009
  849MOL0     C11951   4.741  11.464   6.421 -0.0045  0.0033  0.2762
  849MOL0     C11952   4.673  11.580   6.502  0.2158  0.3416 -0.0468
  849MOL0     N11953   4.536  11.608   6.456  0.0002 -0.0230  0.4058
  849MOL0     C11954   4.490  11.678   6.355  0.5659  0.9058 -0.9250
  849MOL0     C11955   4.359  11.665   6.376 -0.0583 -0.3543 -0.1004
  849MOL0     C11956   4.262  11.728   6.290 -0.5663 -0.1336 -0.0204
  849MOL0     C11957   4.169  11.626   6.220 -1.1908 -0.5303 -1.2127
  849MOL0     C11958   4.036  11.689   6.182  0.4733  0.2618 -0.0014
  849MOL0     C11959   3.930  11.583   6.147  0.0232 -0.2698  0.7832
  849MOL0     O11960   3.805  11.640   6.102 -0.0532 -0.2471 -0.3623
  849MOL0     C11961   3.687  11.569   6.120  1.0252 -0.7711  0.3032
  849MOL0     C11962   3.601  11.579   6.014 -0.0166 -0.3706 -0.3954
  849MOL0     C11963   3.481  11.502   6.016 -0.9180  0.4561 -0.2180
  849MOL0     C11964   3.454  11.424   6.126 -0.5202  0.0987 -0.0415
  849MOL0     C11965   3.335  11.338   6.123  0.5363  0.3785 -0.0754
  849MOL0     O11966   3.277  11.319   6.001 -0.8776 -0.0567 -0.3561
  849MOL0     C11967   3.175  11.228   5.983 -0.1426  0.2198 -0.7749
  849MOL0     C11968   3.067  11.215   6.075 -1.0892 -1.3587 -0.1626
  849MOL0     C11969   2.957  11.144   6.033 -0.1059  0.1032 -0.3914
  849MOL0     C11970   2.945  11.091   5.900 -0.1669 -0.0862 -0.5734
  849MOL0     O11971   2.837  11.025   5.847  0.3882 -0.0226  0.6755
  849MOL0     C11972   2.701  11.052   5.898  0.7785  0.4594  0.9572
  849MOL0     C11973   2.607  10.995   5.796  0.3829 -0.0587 -0.5789
  849MOL0     C11974   2.463  11.016   5.852 -0.2084 -0.3897  0.2001
  849MOL0     C11975   2.365  10.939   5.772  0.5405  0.2783 -0.7475
  849MOL0     C11976   2.222  10.996   5.790  0.1975  0.6852 -0.1438
  849MOL0     C11977   2.111  10.889   5.755  0.2766 -0.0242  0.7829
  849MOL0     C11978   2.106  10.823   5.619  0.2828 -0.3778  0.1253
  849MOL0     C11979   2.102  10.924   5.510  0.6000 -0.3303 -0.4270
  849MOL0    Cl11980   1.949  11.017   5.503  0.2994  0.3034  0.7069
  849MOL0     C11981   3.053  11.101   5.810 -0.0489  0.3568 -0.1801
  849MOL0     C11982   3.169  11.167   5.857 -0.2910  0.3835  0.1182
  849MOL0     O11983   3.298  11.282   6.227 -0.3629  0.2995  0.3584
  849MOL0     C11984   3.546  11.411   6.235 -0.7485  0.0402 -0.1096
  849MOL0     C11985   3.665  11.490   6.228  0.0213  0.3761 -0.6683
  849MOL0     N11986   4.332  11.608   6.495  0.6657  0.0403 -0.4338
  849MOL0     N11987   4.444  11.578   6.546 -0.2801  0.3563 -0.5165
  849MOL0     C11988   5.268  11.573   5.923  0.4283  0.6070  0.3672
  849MOL0     C11989   5.270  11.558   5.781 -0.0166  0.3441  0.0861
  849MOL0     C11990   5.273  11.278   5.413  0.7058 -0.4085 -0.1633
  849MOL0     C11991   5.212  11.157   5.374  0.4964  0.6518 -0.0157
  849MOL0     C11992   5.152  11.145   5.244  0.0674 -0.4049 -0.6212
  849MOL0     C11993   5.153  11.257   5.163  0.4247  0.5595  1.5018
  849MOL0     O11994   5.098  11.268   5.036  1.1697 -0.4375  0.3495
  849MOL0     C11995   4.968  11.196   5.010 -1.3069  0.8981  0.0176
  849MOL0     C11996   4.852  11.297   5.006 -0.1424 -0.1480 -0.1932
  849MOL0     C11997   4.810  11.344   5.142 -0.2425 -0.7673 -0.0136
  849MOL0     C11998   4.701  11.453   5.145  0.0097  0.2495  0.3711
  849MOL0     C11999   4.633  11.474   5.264  0.3625 -0.8839  0.1375
  849MOL0     C12000   4.565  11.487   5.367  0.8763 -0.4347 -0.7192
  849MOL0     C12001   5.223  11.370   5.201 -0.7179 -0.1593 -0.1822
  849MOL0     C12002   5.278  11.385   5.325 -0.1558  0.0559  0.3617
  849MOL0     H12003   5.471  11.279   5.788 -0.0883 -0.6528  0.4454
  849MOL0     H12004   5.476  11.331   6.012  1.3156  1.9252  0.0858
  849MOL0     H12005   5.470  11.378   6.249  0.0231 -1.5776 -1.5524
  849MOL0     H12006   5.303  11.313   6.208 -1.3895  1.9753 -1.5246
  849MOL0     H12007   5.380  11.543   6.397  2.5993 -1.5586 -2.1202
  849MOL0     H12008   5.362  11.367   6.446 -0.7822 -0.8153 -0.6181
  849MOL0     H12009   5.131  11.504   6.320 -0.0567  1.7472  0.8312
  849MOL0     H12010   5.190  11.535   6.491  0.6013 -0.1764 -0.7836
  849MOL0     H12011   5.165  11.262   6.379 -2.0040  1.1130 -1.9730
  849MOL0     H12012   5.111  11.311   6.544  0.0466 -0.8006  0.0808
  849MOL0     H12013   4.923  11.251   6.430  0.6584  0.1554  1.5649
  849MOL0     H12014   4.952  11.332   6.281 -0.4083  0.2372  0.0295
  849MOL0     H12015   4.923  11.556   6.387 -1.2355  2.1748  3.3853
  849MOL0     H12016   4.919  11.486   6.552 -1.6900  1.8421  0.4480
  849MOL0     H12017   4.716  11.470   6.315  2.1650 -1.3753 -0.3839
  849MOL0     H12018   4.707  11.361   6.437  0.4554 -0.0730  0.7821
  849MOL0     H12019   4.726  11.672   6.476 -0.4032  0.3596 -1.3370
  849MOL0     H12020   4.672  11.558   6.610 -0.7433  3.5291  0.7006
  849MOL0     H12021   4.556  11.732   6.287  2.7410 -0.1338  0.2318
  849MOL0     H12022   4.303  11.795   6.213  3.0474 -2.7669 -0.6677
  849MOL0     H12023   4.200  11.780   6.363 -0.8363 -1.4249  0.6999
  849MOL0     H12024   4.148  11.559   6.303 -0.3002  1.8022  1.0503
  849MOL0     H12025   4.215  11.577   6.134 -1.4011  0.1819 -1.7417
  849MOL0     H12026   3.986  11.735   6.267 -0.0665  0.3406 -0.3596
  849MOL0     H12027   4.048  11.761   6.101 -2.4111  0.1748 -0.6243
  849MOL0     H12028   3.918  11.529   6.242  5.9073 -3.6328  0.0651
  849MOL0     H12029   3.977  11.535   6.061 -2.0448  2.5863 -2.1898
  849MOL0     H12030   3.614  11.654   5.937 -0.3368  1.0635  0.9067
  849MOL0     H12031   3.407  11.508   5.936  1.7200  0.2438 -2.8652
  849MOL0     H12032   3.073  11.262   6.173 -3.4841 -0.5403 -0.3499
  849MOL0     H12033   2.876  11.146   6.105  2.0420 -1.6919  2.2848
  849MOL0     H12034   2.692  11.160   5.912  4.0222  1.1578 -1.1782
  849MOL0     H12035   2.693  11.003   5.995 -0.6346  1.8512  1.5811
  849MOL0     H12036   2.626  10.892   5.767 -3.1812 -0.1806 -3.1431
  849MOL0     H12037   2.606  11.046   5.699 -1.4726 -1.3400 -1.2826
  849MOL0     H12038   2.440  11.122   5.836 -1.7675 -0.7705 -0.1885
  849MOL0     H12039   2.458  10.993   5.959 -0.7749 -2.0602 -0.1616
  849MOL0     H12040   2.398  10.935   5.668 -0.2886 -3.5080 -1.0074
  849MOL0     H12041   2.365  10.837   5.811  0.3716  0.4320 -0.3381
  849MOL0     H12042   2.214  11.093   5.739  1.2994  0.6521 -0.4010
  849MOL0     H12043   2.205  11.012   5.897  0.1481  1.9168 -0.3259
  849MOL0     H12044   2.013  10.924   5.788  0.5860  0.3509  1.3240
  849MOL0     H12045   2.130  10.802   5.819  2.0301 -0.8113 -0.7019
  849MOL0     H12046   2.198  10.767   5.601  0.7484  0.3119  0.3009
  849MOL0     H12047   2.029  10.747   5.604  1.0759 -1.2610  0.4128
  849MOL0     H12048   2.131  10.876   5.415  3.3494  5.1498 -2.8056
  849MOL0     H12049   2.182  10.998   5.515  1.1431 -1.0125  2.0989
  849MOL0     H12050   3.051  11.045   5.717 -3.6652  1.1020 -0.6974
  849MOL0     H12051   3.242  11.188   5.780 -0.3964  0.9766  0.1777
  849MOL0     H12052   3.531  11.338   6.314  0.3026  0.0321  0.1007
  849MOL0     H12053   3.738  11.483   6.308 -3.0075  0.4306  2.3025
  849MOL0     H12054   5.203  11.655   5.952  0.6630  0.9980 -0.2006
  849MOL0     H12055   5.206  11.618   5.718 -0.5524 -1.0211 -0.7123
  849MOL0     H12056   5.213  11.084   5.453 -0.5621  3.7532  3.1275
  849MOL0     H12057   5.109  11.049   5.220  1.4288 -1.2714  0.2398
  849MOL0     H12058   4.946  11.124   5.089  0.5794  0.8289  0.5319
  849MOL0     H12059   4.969  11.140   4.916 -0.0594 -2.3797  1.8144
  849MOL0     H12060   4.883  11.385   4.949  1.4527 -1.5945 -1.6880
  849MOL0     H12061   4.767  11.260   4.948  0.2943 -1.4071 -0.0778
  849MOL0     H12062   4.905  11.381   5.180 -0.6573 -0.1545  0.4267
  849MOL0     H12063   4.769  11.264   5.205 -0.0419  0.5868  1.9145
  849MOL0     H12064   4.739  11.552   5.118  0.8525 -0.6370 -2.0025
  849MOL0     H12065   4.625  11.430   5.070 -0.9062  2.8377  0.3896
  849MOL0     H12066   4.489  11.503   5.441  1.4902 -0.5618 -0.0506
  849MOL0     H12067   5.238  11.456   5.136 -0.9924 -0.1941 -0.2932
  849MOL0     H12068   5.313  11.483   5.357 -0.6901  0.5618 -0.5868
  850MOL0     O12069   4.241   8.571   8.616 -0.0607  0.2458 -0.0564
  850MOL0     C12070   4.347   8.631   8.640 -0.2604  0.5259 -0.5106
  850MOL0     O12071   4.364   8.762   8.679 -0.3234 -0.1229 -0.1827
  850MOL0     C12072   4.250   8.844   8.700 -0.1153 -0.0234  0.3817
  850MOL0     C12073   4.119   8.806   8.729 -0.0883 -0.4788  0.3012
  850MOL0     C12074   4.017   8.907   8.729 -0.4082 -0.6665  0.0952
  850MOL0     C12075   4.045   9.041   8.684 -0.3691 -1.1488 -0.3501
  850MOL0     O12076   3.943   9.131   8.689  0.3114  0.0555  0.5989
  850MOL0     C12077   3.958   9.243   8.590  0.3499  1.0954 -0.4666
  850MOL0     C12078   3.837   9.328   8.556  0.3321  1.1038 -0.5039
  850MOL0     C12079   3.719   9.237   8.518 -0.8133 -0.8374  0.3420
  850MOL0     C12080   3.597   9.326   8.485 -1.0496  0.9957 -0.2760
  850MOL0     C12081   3.518   9.273   8.362 -0.2923 -0.4971 -0.7132
  850MOL0     C12082   3.436   9.151   8.380 -0.1319  0.4588 -0.1278
  850MOL0     C12083   3.314   9.145   8.280  0.2151 -0.3411  0.7101
  850MOL0     C12084   3.290   9.015   8.206 -0.0961 -0.4351  0.2342
  850MOL0     N12085   3.150   8.982   8.191  0.3046  0.7842 -0.2849
  850MOL0     C12086   3.074   9.019   8.085 -0.4593  0.1570  0.0683
  850MOL0     C12087   2.949   9.000   8.114  0.0507 -0.2261 -0.0905
  850MOL0     C12088   2.845   8.992   8.006  0.1446  0.7320  0.6272
  850MOL0     C12089   2.779   8.846   8.013  0.2970 -0.0739  0.5885
  850MOL0     C12090   2.677   8.824   8.138 -0.4159 -0.0475  0.3489
  850MOL0     C12091   2.546   8.888   8.112 -0.4017 -0.2630 -0.6796
  850MOL0     O12092   2.464   8.803   8.024  0.1917 -0.1702 -0.1356
  850MOL0     C12093   2.354   8.746   8.087  0.0158  0.4578 -0.0744
  850MOL0     C12094   2.228   8.794   8.045  0.9124  0.6081  0.2307
  850MOL0     C12095   2.113   8.745   8.104  0.7587  0.3059  0.6758
  850MOL0     C12096   2.113   8.640   8.190  0.4449 -0.0871 -1.0401
  850MOL0     C12097   1.976   8.577   8.232  0.0464 -0.0961  0.7113
  850MOL0     O12098   1.871   8.613   8.154  0.8682  0.3692 -0.0559
  850MOL0     C12099   1.746   8.622   8.213  0.3271 -0.6602  0.6092
  850MOL0     C12100   1.683   8.746   8.213  0.0779 -0.5325  0.7062
  850MOL0     C12101   1.561   8.769   8.278 -0.2950 -0.1965 -0.0421
  850MOL0     C12102   1.498   8.663   8.335  0.4979  0.3028 -0.7294
  850MOL0     O12103   1.371   8.694   8.381  0.5261 -1.4171  0.4327
  850MOL0     C12104   1.293   8.586   8.440  0.3484  0.0026 -0.2794
  850MOL0     C12105   1.153   8.649   8.458  0.3502 -0.4078  0.5567
  850MOL0     C12106   1.122   8.738   8.577  0.5003 -0.1798 -0.2976
  850MOL0     C12107   0.975   8.787   8.579  1.1835 -0.1236 -0.0804
  850MOL0     C12108   0.937   8.877   8.700  0.0351  1.0390 -0.5631
  850MOL0     C12109   0.958   8.804   8.845 -0.0243  0.2756 -0.6572
  850MOL0     C12110   0.863   8.859   8.960  0.0066 -1.4951 -0.0696
  850MOL0     C12111   0.924   8.981   9.024  0.3792  0.5875  0.4052
  850MOL0    Cl12112   0.852   9.033   9.177  0.6423 -0.5141  0.0778
  850MOL0     C12113   1.562   8.541   8.348  0.2897  0.3439  0.5375
  850MOL0     C12114   1.688   8.523   8.282  0.6755  0.0189 -0.0584
  850MOL0     O12115   1.981   8.507   8.340  0.1281  0.4201  0.5821
  850MOL0     C12116   2.240   8.588   8.237  0.1851  0.8261 -0.2079
  850MOL0     C12117   2.357   8.648   8.191 -0.0099 -1.3545 -0.2647
  850MOL0     N12118   2.942   8.953   8.243  0.1764 -0.3651 -0.4527
  850MOL0     N12119   3.066   8.939   8.291  0.0833 -0.2170  0.1064
  850MOL0     C12120   4.180   9.074   8.672  0.6475 -1.2537 -0.2319
  850MOL0     C12121   4.281   8.977   8.683 -0.1342  0.6015  0.7822
  850MOL0     C12122   4.473   8.553   8.614 -0.0687  0.3468 -0.3035
  850MOL0     C12123   4.601   8.616   8.623  0.9250 -1.0784  0.2449
  850MOL0     C12124   4.725   8.544   8.613  0.7554 -0.4948  0.0841
  850MOL0     C12125   4.713   8.404   8.587 -0.0736  0.0718 -0.1071
  850MOL0     O12126   4.817   8.317   8.577 -0.1341  0.6468 -0.7124
  850MOL0     C12127   4.943   8.366   8.630  0.0714 -0.9915  0.0693
  850MOL0     C12128   5.047   8.267   8.590 -0.0413  0.7431 -0.0031
  850MOL0     C12129   5.197   8.296   8.637  0.2678  0.4679  0.3878
  850MOL0     C12130   5.289   8.197   8.563 -0.5912 -0.2292 -1.6568
  850MOL0     C12131   5.417   8.234   8.626  0.6965 -0.1655  0.3434
  850MOL0     C12132   5.522   8.257   8.675 -0.4000  0.0198 -1.1579
  850MOL0     C12133   4.590   8.345   8.563  0.0683 -0.0164 -0.0756
  850MOL0     C12134   4.472   8.411   8.581  0.1147  0.4966 -0.4430
  850MOL0     H12135   4.079   8.706   8.740  0.6349 -0.5072  4.2315
  850MOL0     H12136   3.911   8.888   8.743 -0.7884  1.7967  1.1156
  850MOL0     H12137   3.989   9.199   8.494 -0.4431 -0.7693  0.0713
  850MOL0     H12138   4.034   9.309   8.633 -1.0174  1.0542  2.1844
  850MOL0     H12139   3.853   9.398   8.473 -0.8873 -0.0781 -1.7754
  850MOL0     H12140   3.808   9.387   8.644  1.4212 -1.4079  1.6804
  850MOL0     H12141   3.698   9.177   8.607 -1.0395  1.3374  1.8478
  850MOL0     H12142   3.760   9.175   8.437  0.2720 -2.0779  1.7875
  850MOL0     H12143   3.534   9.329   8.575 -1.1016  0.3694 -0.2904
  850MOL0     H12144   3.631   9.429   8.471  0.9239  0.4237  0.0174
  850MOL0     H12145   3.592   9.250   8.284 -0.4782  0.1329 -1.0819
  850MOL0     H12146   3.457   9.357   8.327  0.0788  0.8870  1.7413
  850MOL0     H12147   3.412   9.145   8.487 -0.5251  1.1802 -0.1678
  850MOL0     H12148   3.505   9.069   8.361  0.4755  1.0814 -0.6843
  850MOL0     H12149   3.225   9.177   8.335 -0.7641 -1.9680  0.1429
  850MOL0     H12150   3.337   9.218   8.203  2.2703 -1.9403 -0.2897
  850MOL0     H12151   3.331   8.936   8.269 -2.0422 -0.2372  1.8688
  850MOL0     H12152   3.344   9.021   8.111  0.3447 -1.0712  0.4419
  850MOL0     H12153   3.109   9.023   7.982  0.2655  2.4336  0.3551
  850MOL0     H12154   2.896   9.002   7.910 -3.7490  3.7832 -1.4009
  850MOL0     H12155   2.767   9.069   8.002 -0.2353  0.3681  0.9063
  850MOL0     H12156   2.857   8.772   8.029 -1.7261 -2.3431  0.5130
  850MOL0     H12157   2.725   8.822   7.921  0.2638 -0.9054  0.8186
  850MOL0     H12158   2.663   8.715   8.144  3.5666 -0.7372  0.2806
  850MOL0     H12159   2.725   8.861   8.228 -0.7526 -2.6018  1.6744
  850MOL0     H12160   2.574   8.973   8.050  0.9801  1.3746  2.0229
  850MOL0     H12161   2.496   8.918   8.204 -0.9103 -0.9259 -0.7312
  850MOL0     H12162   2.208   8.879   7.980  0.6878  0.8723  0.6456
  850MOL0     H12163   2.022   8.798   8.076  1.6285  1.2673 -0.4362
  850MOL0     H12164   1.719   8.826   8.149 -0.7639 -2.3203 -2.2115
  850MOL0     H12165   1.488   8.850   8.278 -4.0838 -3.3161 -1.3293
  850MOL0     H12166   1.336   8.563   8.538  0.2062  1.2927  0.1081
  850MOL0     H12167   1.290   8.501   8.371 -0.9191  1.7088 -2.4706
  850MOL0     H12168   1.082   8.565   8.456  0.1401 -0.2238 -0.6254
  850MOL0     H12169   1.119   8.712   8.375 -1.4127  0.0445  1.5536
  850MOL0     H12170   1.195   8.818   8.570 -0.5430  0.6674 -2.4971
  850MOL0     H12171   1.146   8.688   8.671  0.6459 -1.4177 -0.9643
  850MOL0     H12172   0.966   8.857   8.495  0.5118 -2.0276 -1.6703
  850MOL0     H12173   0.904   8.705   8.565  1.8526 -0.6783 -0.2580
  850MOL0     H12174   0.833   8.911   8.693  0.3290  2.7935  2.1910
  850MOL0     H12175   0.990   8.972   8.691  1.0179  0.4945 -0.6519
  850MOL0     H12176   1.062   8.827   8.867  0.1061 -1.0880  0.2315
  850MOL0     H12177   0.948   8.696   8.831 -2.2366 -0.4451  4.3303
  850MOL0     H12178   0.766   8.872   8.911 -0.7029 -2.7523  0.9371
  850MOL0     H12179   0.845   8.784   9.037 -2.2346  0.0063  0.9941
  850MOL0     H12180   0.919   9.063   8.952  1.6350  1.4817  1.3057
  850MOL0     H12181   1.030   8.961   9.040  0.6418  1.0567 -0.6297
  850MOL0     H12182   1.516   8.456   8.396 -2.0595 -0.9914 -3.5782
  850MOL0     H12183   1.728   8.423   8.271 -3.2428 -2.0268  2.1730
  850MOL0     H12184   2.233   8.501   8.301  2.5111 -0.0081 -0.9738
  850MOL0     H12185   2.456   8.637   8.234  0.5679  0.3571 -1.0562
  850MOL0     H12186   4.211   9.176   8.650 -1.4207 -1.0109 -2.4342
  850MOL0     H12187   4.386   9.004   8.672  0.2830 -0.8307  1.0398
  850MOL0     H12188   4.607   8.723   8.640  2.6699 -0.2706 -4.1072
  850MOL0     H12189   4.818   8.597   8.629 -0.8508  2.5381  0.0226
  850MOL0     H12190   4.934   8.388   8.737 -0.6164  3.9698 -0.7570
  850MOL0     H12191   4.973   8.464   8.592  0.9374 -2.1304 -2.3866
  850MOL0     H12192   5.019   8.171   8.635 -1.0292  1.5056  1.0756
  850MOL0     H12193   5.046   8.266   8.481  0.4764  2.0988 -0.0312
  850MOL0     H12194   5.199   8.276   8.744 -0.7908  1.0167  0.5196
  850MOL0     H12195   5.208   8.404   8.625  0.0682  0.6460  1.7426
  850MOL0     H12196   5.268   8.093   8.591  4.0933 -1.0362 -0.1245
  850MOL0     H12197   5.287   8.216   8.455  0.7804  0.5183 -1.5714
  850MOL0     H12198   5.613   8.254   8.732 -0.2372 -2.7349 -1.4497
  850MOL0     H12199   4.585   8.244   8.523 -0.7272 -0.2694  0.6331
  850MOL0     H12200   4.378   8.358   8.566  0.4672 -0.6488  1.1644
  851MOL0     O12201   4.843   3.351   3.994  0.3706 -0.2819  0.9035
  851MOL0     C12202   4.847   3.456   4.057  0.4865 -0.5316  0.6737
  851MOL0     O12203   4.743   3.556   4.055 -0.1856  0.4858  0.6406
  851MOL0     C12204   4.650   3.533   3.957  0.0189  0.5968 -0.7221
  851MOL0     C12205   4.522   3.481   3.994  1.0568 -0.2418  0.4337
  851MOL0     C12206   4.425   3.469   3.897  0.8665  0.7730 -0.4552
  851MOL0     C12207   4.446   3.496   3.771 -0.1459 -1.1733  0.2507
  851MOL0     O12208   4.340   3.478   3.681 -0.2248  0.6405 -0.6409
  851MOL0     C12209   4.364   3.471   3.542  0.5398  0.4954  0.1772
  851MOL0     C12210   4.230   3.498   3.485 -0.2115 -0.0249  0.1971
  851MOL0     C12211   4.172   3.642   3.509 -0.2585  1.8002  0.6291
  851MOL0     C12212   4.019   3.641   3.509 -0.5388  0.5580  0.4379
  851MOL0     C12213   3.964   3.781   3.526 -0.0023  0.7256  0.6513
  851MOL0     C12214   4.013   3.850   3.653  0.3648  0.7135 -0.4466
  851MOL0     C12215   3.917   3.975   3.678  0.5059  0.8690 -0.8242
  851MOL0     C12216   4.005   4.095   3.735 -1.1410  0.4375  0.4447
  851MOL0     N12217   4.089   4.167   3.635 -0.3377  0.6463  0.6892
  851MOL0     C12218   4.048   4.264   3.552  0.4225 -1.2042  0.0713
  851MOL0     C12219   4.163   4.303   3.495 -0.6897  0.1169 -0.8608
  851MOL0     C12220   4.181   4.414   3.389  0.5000  0.4145  0.4713
  851MOL0     C12221   4.093   4.537   3.417 -0.9567 -0.1461 -0.2176
  851MOL0     C12222   4.146   4.620   3.538 -0.0271 -0.7629 -0.6221
  851MOL0     C12223   4.055   4.743   3.578  0.4699 -0.3734 -0.0177
  851MOL0     O12224   3.938   4.681   3.637  0.6994  0.7600 -0.4816
  851MOL0     C12225   3.830   4.756   3.673  0.4433 -0.4315 -0.1335
  851MOL0     C12226   3.834   4.897   3.718  0.2512  0.5965  0.1426
  851MOL0     C12227   3.719   4.958   3.753 -0.3038 -0.6329 -0.5356
  851MOL0     C12228   3.593   4.896   3.741  0.8098 -0.5310  0.8381
  851MOL0     C12229   3.474   4.970   3.789 -0.9869 -0.4830 -0.3573
  851MOL0     O12230   3.375   4.892   3.818  0.4196 -0.2160 -0.8937
  851MOL0     C12231   3.252   4.949   3.852  0.2011  1.6444 -0.4777
  851MOL0     C12232   3.213   4.942   3.988  0.3565  0.6198  0.1119
  851MOL0     C12233   3.096   5.003   4.030  0.8317 -0.8823  0.7237
  851MOL0     C12234   3.005   5.050   3.932  1.1287  0.5919  0.3377
  851MOL0     O12235   2.892   5.117   3.978 -0.5756 -0.0996  0.8164
  851MOL0     C12236   2.762   5.100   3.902 -0.5509 -0.2738 -0.6912
  851MOL0     C12237   2.695   5.232   3.893  0.0455  0.7897 -0.0002
  851MOL0     C12238   2.608   5.263   4.014  0.8046  0.1015 -1.0698
  851MOL0     C12239   2.542   5.397   4.008  0.0645 -0.8045 -0.4556
  851MOL0     C12240   2.487   5.437   4.148 -0.8799  0.9509  0.4615
  851MOL0     C12241   2.434   5.580   4.149  0.4822  0.2481 -0.5671
  851MOL0     C12242   2.295   5.598   4.097 -0.2243  0.2388  0.3556
  851MOL0     C12243   2.227   5.733   4.110  0.0710 -0.0076  0.2154
  851MOL0    Cl12244   2.329   5.835   4.009 -0.1008 -0.1529  0.0147
  851MOL0     C12245   3.041   5.049   3.804 -0.1024 -0.2192  1.2438
  851MOL0     C12246   3.161   4.998   3.757  0.5552 -0.9638 -0.2129
  851MOL0     O12247   3.472   5.094   3.803  0.3471  0.0747  0.8728
  851MOL0     C12248   3.585   4.771   3.686 -0.1963  0.6057  0.3341
  851MOL0     C12249   3.710   4.697   3.666  1.3195 -0.1900  0.6305
  851MOL0     N12250   4.272   4.219   3.532 -1.0060 -0.4192  0.8150
  851MOL0     N12251   4.226   4.147   3.629  0.1460  0.0455  0.1531
  851MOL0     C12252   4.577   3.535   3.727  0.8808  1.0513 -0.5273
  851MOL0     C12253   4.675   3.556   3.817 -0.2137  0.0678  0.4295
  851MOL0     C12254   4.949   3.478   4.167 -0.3230  0.8369 -0.2789
  851MOL0     C12255   5.072   3.404   4.157  0.3102 -0.2419 -0.5233
  851MOL0     C12256   5.174   3.409   4.258  0.3466 -0.2846 -0.2983
  851MOL0     C12257   5.160   3.501   4.362 -0.4425 -0.7600  0.4908
  851MOL0     O12258   5.239   3.518   4.471 -0.9157 -0.3751 -0.0158
  851MOL0     C12259   5.380   3.483   4.478  0.0491 -0.6423  0.4905
  851MOL0     C12260   5.480   3.550   4.387  0.7149 -0.2916  1.0772
  851MOL0     C12261   5.465   3.703   4.386 -0.0406 -0.3827  0.0258
  851MOL0     C12262   5.583   3.781   4.326 -1.1500 -0.2586 -0.2487
  851MOL0     C12263   5.713   3.739   4.388  0.0511  0.0948  0.5019
  851MOL0     C12264   5.830   3.731   4.413  0.1027 -0.0970 -0.2081
  851MOL0     C12265   5.041   3.569   4.376  0.8979  0.2787  0.5271
  851MOL0     C12266   4.936   3.563   4.269 -0.6396  0.6714 -0.5813
  851MOL0     H12267   4.506   3.455   4.099 -0.3451  0.2015  0.3592
  851MOL0     H12268   4.326   3.434   3.924  0.1191  1.9514 -1.5170
  851MOL0     H12269   4.398   3.373   3.507 -2.0473 -0.3101 -0.3226
  851MOL0     H12270   4.440   3.538   3.500 -2.0258  2.1282 -2.2524
  851MOL0     H12271   4.179   3.415   3.536  0.7684  0.4237  1.9948
  851MOL0     H12272   4.236   3.483   3.377  0.8408  4.8437 -0.6651
  851MOL0     H12273   4.199   3.709   3.427  4.9067  0.9150  1.2975
  851MOL0     H12274   4.210   3.666   3.609  1.4018 -2.6068  1.2904
  851MOL0     H12275   3.986   3.612   3.409 -1.7817  1.3597  0.6029
  851MOL0     H12276   3.977   3.568   3.579  2.1704 -0.9568  0.6321
  851MOL0     H12277   3.856   3.776   3.509 -0.5525  2.8948  2.8776
  851MOL0     H12278   4.002   3.841   3.443 -3.0681 -1.0865 -2.3028
  851MOL0     H12279   4.117   3.881   3.639  0.1542  1.9925  0.6393
  851MOL0     H12280   4.007   3.773   3.730 -0.8274  0.9592 -0.2721
  851MOL0     H12281   3.868   3.994   3.582  0.9172  1.4562 -0.9271
  851MOL0     H12282   3.844   3.947   3.753  1.6704 -2.0561 -0.6645
  851MOL0     H12283   4.064   4.060   3.820 -3.2338 -0.3954  1.6101
  851MOL0     H12284   3.935   4.162   3.785 -0.5062  0.6543  1.0688
  851MOL0     H12285   3.949   4.306   3.543  0.8578 -0.4145 -1.2047
  851MOL0     H12286   4.153   4.379   3.290 -1.3952  2.7623  0.0815
  851MOL0     H12287   4.289   4.436   3.387  0.7570 -0.3680  2.7325
  851MOL0     H12288   3.986   4.521   3.428 -1.8080  3.6337 -1.4151
  851MOL0     H12289   4.099   4.594   3.324  0.3942 -1.1232 -0.7676
  851MOL0     H12290   4.148   4.548   3.620  1.1630  0.8982  0.8866
  851MOL0     H12291   4.248   4.659   3.523  0.3252 -2.4547 -3.2713
  851MOL0     H12292   4.025   4.797   3.488 -0.5985  0.2595  0.6878
  851MOL0     H12293   4.103   4.814   3.646 -2.2424  2.6740 -1.0320
  851MOL0     H12294   3.927   4.954   3.722 -1.3922  3.3790  2.5645
  851MOL0     H12295   3.733   5.062   3.781  0.3617 -1.3755  2.1990
  851MOL0     H12296   3.300   4.912   4.045  0.5525 -0.0132 -0.5046
  851MOL0     H12297   3.072   5.014   4.135  0.9271 -0.3688  0.6922
  851MOL0     H12298   2.705   5.019   3.948  0.7586 -1.4894 -1.1671
  851MOL0     H12299   2.789   5.061   3.803  1.7486  0.7242 -0.5181
  851MOL0     H12300   2.632   5.229   3.804  0.4070  0.0085 -0.2315
  851MOL0     H12301   2.768   5.311   3.874  3.6386 -2.3763 -0.5195
  851MOL0     H12302   2.678   5.261   4.098  1.8621 -4.7689 -1.7706
  851MOL0     H12303   2.538   5.180   4.027 -0.4101  1.3490  0.9783
  851MOL0     H12304   2.619   5.468   3.977 -0.1326  0.0353  0.8913
  851MOL0     H12305   2.462   5.395   3.934  1.7948  3.1145 -2.7214
  851MOL0     H12306   2.577   5.444   4.210 -0.7513  1.6840  0.1927
  851MOL0     H12307   2.419   5.359   4.182 -2.0364  0.4306 -2.6981
  851MOL0     H12308   2.505   5.639   4.090  2.8865 -2.5898 -0.8129
  851MOL0     H12309   2.449   5.618   4.250  0.6762 -0.4013 -0.3445
  851MOL0     H12310   2.297   5.587   3.988 -1.9310  0.4214  0.2720
  851MOL0     H12311   2.231   5.516   4.131  1.5815 -1.3394  0.1136
  851MOL0     H12312   2.216   5.781   4.208  1.7095  1.7686 -0.4197
  851MOL0     H12313   2.126   5.730   4.067  0.4766 -2.1250 -0.7121
  851MOL0     H12314   2.981   5.095   3.725  1.6897  1.1242  0.6008
  851MOL0     H12315   3.181   5.011   3.651 -3.0660 -3.0614 -1.3317
  851MOL0     H12316   3.494   4.711   3.682  0.9601 -1.1447 -0.7308
  851MOL0     H12317   3.703   4.594   3.634 -0.8349 -0.2320  1.0491
  851MOL0     H12318   4.596   3.562   3.624 -2.7078  3.6030 -0.7040
  851MOL0     H12319   4.772   3.599   3.792  1.6435 -2.6469  2.3390
  851MOL0     H12320   5.090   3.331   4.079  2.1399 -1.2540  0.7588
  851MOL0     H12321   5.272   3.363   4.246  0.0191 -0.7503 -1.2545
  851MOL0     H12322   5.393   3.375   4.467  0.8363 -0.7061  1.8363
  851MOL0     H12323   5.415   3.500   4.580  0.9998  0.7348 -0.0418
  851MOL0     H12324   5.576   3.523   4.432  2.2230 -2.6485 -3.0322
  851MOL0     H12325   5.480   3.509   4.286  2.1297 -0.0414  0.9530
  851MOL0     H12326   5.448   3.744   4.486 -3.5004  1.0396 -0.9987
  851MOL0     H12327   5.380   3.738   4.327  0.8849  3.4056  0.6617
  851MOL0     H12328   5.601   3.772   4.218  3.5315 -1.4086  0.3996
  851MOL0     H12329   5.567   3.885   4.357  0.4816  0.1294 -0.6322
  851MOL0     H12330   5.932   3.720   4.443  0.1710  1.4697  0.2383
  851MOL0     H12331   5.022   3.639   4.457  1.0068 -1.2201  1.8999
  851MOL0     H12332   4.837   3.604   4.286 -1.2134 -0.4208 -1.1739
  852MOL0     O12333   4.930   1.977  10.421  0.7475  0.0348  0.4414
  852MOL0     C12334   4.998   1.907  10.497 -0.7713  0.1286  0.3130
  852MOL0     O12335   4.945   1.822  10.587 -0.5056  0.4458  0.6445
  852MOL0     C12336   4.809   1.807  10.580  0.8111 -0.1675 -0.2521
  852MOL0     C12337   4.735   1.721  10.487  0.1002 -0.3067 -0.3242
  852MOL0     C12338   4.596   1.710  10.495  0.5234  0.5663 -0.7447
  852MOL0     C12339   4.519   1.786  10.585  0.6523 -0.7154  0.2495
  852MOL0     O12340   4.379   1.800  10.590 -0.6144  0.5073  0.9387
  852MOL0     C12341   4.312   1.672  10.570 -0.1147 -0.1659 -0.6284
  852MOL0     C12342   4.170   1.701  10.534  0.2544 -0.9063  0.2498
  852MOL0     C12343   4.098   1.783  10.651 -0.2405  0.4132  0.5841
  852MOL0     C12344   3.960   1.832  10.612 -0.5584  0.5501  0.3589
  852MOL0     C12345   3.871   1.861  10.723  0.0530 -0.5225 -0.0695
  852MOL0     C12346   3.924   1.977  10.817  0.1901 -1.0356 -0.7915
  852MOL0     C12347   3.960   1.915  10.956  0.7851  0.2040  0.4924
  852MOL0     C12348   4.048   1.993  11.047  0.1126 -0.3984 -1.6697
  852MOL0     N12349   3.985   2.114  11.099 -0.3040 -0.6541  0.0715
  852MOL0     C12350   3.914   2.121  11.218 -0.5207  0.5090  0.8760
  852MOL0     C12351   3.863   2.247  11.224 -0.9840 -1.5094 -0.3057
  852MOL0     C12352   3.780   2.318  11.332  0.7086  0.6628  0.9871
  852MOL0     C12353   3.649   2.379  11.284  1.0115  0.7181  0.1186
  852MOL0     C12354   3.583   2.435  11.416  0.0792 -0.9818  0.0725
  852MOL0     C12355   3.447   2.468  11.369  0.3058  0.5030  0.2996
  852MOL0     O12356   3.361   2.355  11.345 -0.0833 -1.3027 -0.5110
  852MOL0     C12357   3.235   2.396  11.318  0.2192  0.9265  0.9316
  852MOL0     C12358   3.164   2.311  11.226 -0.1162 -0.0848 -0.8417
  852MOL0     C12359   3.030   2.336  11.190 -0.0607  0.3120  0.5651
  852MOL0     C12360   2.967   2.450  11.243 -0.0460 -0.9110  0.1922
  852MOL0     C12361   2.823   2.490  11.203 -0.0018  0.2245 -0.4548
  852MOL0     O12362   2.762   2.386  11.115  0.2147  0.2830 -0.1474
  852MOL0     C12363   2.623   2.390  11.100 -0.5654  0.4936 -0.7865
  852MOL0     C12364   2.523   2.395  11.202 -1.2162  0.3583 -0.0388
  852MOL0     C12365   2.388   2.371  11.168 -0.2414  0.5676  0.0795
  852MOL0     C12366   2.353   2.345  11.033 -0.5057 -0.2481 -0.1299
  852MOL0     O12367   2.218   2.309  11.022  0.1978  0.3978  0.4373
  852MOL0     C12368   2.161   2.279  10.893 -0.3088 -0.3366 -0.2104
  852MOL0     C12369   2.010   2.230  10.906  0.6107 -0.3328  0.0125
  852MOL0     C12370   2.006   2.113  11.014  0.2096 -0.0173 -0.5131
  852MOL0     C12371   1.866   2.053  11.018  1.2083 -0.2490  0.4641
  852MOL0     C12372   1.747   2.154  11.039  0.4096 -0.1660 -0.8060
  852MOL0     C12373   1.629   2.076  11.106  0.5168 -0.9298  0.2723
  852MOL0     C12374   1.525   2.175  11.158  0.1559 -0.3006  0.3701
  852MOL0     C12375   1.433   2.222  11.051 -0.0688  0.1710 -0.2288
  852MOL0    Cl12376   1.273   2.254  11.118 -0.1282 -0.1353 -0.2860
  852MOL0     C12377   2.456   2.349  10.931 -0.2412  0.8094  0.0593
  852MOL0     C12378   2.589   2.376  10.969  1.2772 -0.5883  1.0278
  852MOL0     O12379   2.776   2.588  11.258  0.4317  0.4768 -0.6053
  852MOL0     C12380   3.030   2.522  11.343 -0.4559 -0.1716  0.9207
  852MOL0     C12381   3.165   2.498  11.386 -0.3869  0.3097  0.3773
  852MOL0     N12382   3.896   2.314  11.103 -0.0638 -0.2702 -1.4485
  852MOL0     N12383   3.961   2.231  11.030 -0.2778 -0.5817  0.7508
  852MOL0     C12384   4.584   1.870  10.676 -0.0652 -0.6718  0.0583
  852MOL0     C12385   4.722   1.880  10.672 -0.9068  0.7314  0.5418
  852MOL0     C12386   5.150   1.919  10.482 -0.0819 -0.1965  0.3362
  852MOL0     C12387   5.201   2.008  10.383  0.4563  1.1593 -0.3965
  852MOL0     C12388   5.340   2.029  10.370  1.3520 -0.4391 -0.5102
  852MOL0     C12389   5.432   1.971  10.451 -0.7437  0.6884  0.1589
  852MOL0     O12390   5.566   1.989  10.441  0.2550 -0.6661 -0.5299
  852MOL0     C12391   5.630   1.883  10.374  0.1867  0.3547  0.3584
  852MOL0     C12392   5.706   1.937  10.247 -0.2386 -0.4750 -1.0679
  852MOL0     C12393   5.809   1.844  10.178  0.5132  0.7106  0.8500
  852MOL0     C12394   5.743   1.776  10.061  0.1981  0.5144  0.0576
  852MOL0     C12395   5.843   1.670  10.011  0.5463 -0.9882  0.2336
  852MOL0     C12396   5.941   1.606   9.980  0.1282 -0.1090  0.1916
  852MOL0     C12397   5.382   1.882  10.553  0.2136  0.1962 -0.4409
  852MOL0     C12398   5.243   1.850  10.563  0.1618 -0.8253  0.1795
  852MOL0     H12399   4.781   1.659  10.411 -2.3567  1.5503 -3.6104
  852MOL0     H12400   4.560   1.633  10.426  1.7359  1.5198 -2.5255
  852MOL0     H12401   4.314   1.628  10.670  2.5424  1.2793  0.0522
  852MOL0     H12402   4.367   1.617  10.493  2.8502  1.4659  0.1546
  852MOL0     H12403   4.114   1.608  10.519  0.1648 -1.1155  1.7248
  852MOL0     H12404   4.182   1.754  10.439 -0.4966 -2.9776 -1.0818
  852MOL0     H12405   4.153   1.872  10.683 -1.0499  1.0097  0.3559
  852MOL0     H12406   4.098   1.725  10.744 -0.1896 -1.9877 -0.8273
  852MOL0     H12407   3.960   1.925  10.554  1.7155  1.2822  1.4125
  852MOL0     H12408   3.909   1.753  10.555 -0.7799  1.7819 -1.2425
  852MOL0     H12409   3.873   1.766  10.777  1.4705 -1.1294 -1.0927
  852MOL0     H12410   3.769   1.873  10.686  0.6177 -1.0546 -1.9318
  852MOL0     H12411   3.843   2.050  10.823  1.8555  0.7660  2.5214
  852MOL0     H12412   4.013   2.020  10.770  1.0309  0.8005  2.2385
  852MOL0     H12413   3.869   1.905  11.016  0.2771  3.9116  0.5325
  852MOL0     H12414   4.008   1.819  10.935 -0.8207 -0.8370  1.3697
  852MOL0     H12415   4.133   2.032  10.989  1.9152 -2.0296 -0.2441
  852MOL0     H12416   4.082   1.923  11.124 -0.2879  1.4861  0.3063
  852MOL0     H12417   3.904   2.037  11.287 -0.0693 -0.6386 -0.4120
  852MOL0     H12418   3.849   2.390  11.376  2.4434 -1.3593  1.7545
  852MOL0     H12419   3.762   2.241  11.408 -1.1518  0.0223 -0.0252
  852MOL0     H12420   3.581   2.313  11.230  1.0566  1.9726 -1.5458
  852MOL0     H12421   3.671   2.460  11.214 -1.1929 -1.5203 -3.4519
  852MOL0     H12422   3.573   2.364  11.499 -2.4256 -0.6331  0.1637
  852MOL0     H12423   3.634   2.527  11.445 -0.6980  0.8262 -3.7117
  852MOL0     H12424   3.446   2.521  11.273  2.0746  1.7665  0.9263
  852MOL0     H12425   3.404   2.533  11.446  2.2715  0.3663  1.5956
  852MOL0     H12426   3.207   2.219  11.188 -3.3825 -1.5210 -1.4243
  852MOL0     H12427   2.975   2.275  11.118  1.7814 -2.3753  1.2906
  852MOL0     H12428   2.556   2.412  11.304 -1.4931 -2.1772  0.5463
  852MOL0     H12429   2.318   2.380  11.250 -1.4491  2.2136 -1.0544
  852MOL0     H12430   2.225   2.203  10.848  0.8457  2.6772 -4.3338
  852MOL0     H12431   2.164   2.361  10.821  1.0701  0.0236  0.2261
  852MOL0     H12432   1.992   2.196  10.804  1.6557  1.9504 -1.0119
  852MOL0     H12433   1.948   2.313  10.939  0.4720  0.1340 -1.3888
  852MOL0     H12434   2.041   2.152  11.110  1.5751  1.0147 -1.3836
  852MOL0     H12435   2.077   2.036  10.983  0.3775 -0.1719  0.2540
  852MOL0     H12436   1.858   2.013  10.916 -0.5823 -1.9461  1.1953
  852MOL0     H12437   1.852   1.967  11.085 -0.7860  0.5167  1.0990
  852MOL0     H12438   1.733   2.208  10.945  1.8157  0.7038 -0.5355
  852MOL0     H12439   1.786   2.220  11.117 -1.5530  0.1978 -0.0571
  852MOL0     H12440   1.676   2.023  11.190 -1.8363 -0.2809  2.0959
  852MOL0     H12441   1.579   1.994  11.053 -2.2376  0.5530  0.3751
  852MOL0     H12442   1.474   2.136  11.247 -1.6332 -0.8254 -0.8425
  852MOL0     H12443   1.570   2.270  11.190 -5.0390  2.0606  1.6072
  852MOL0     H12444   1.418   2.149  10.972  2.3702  0.5443 -1.1337
  852MOL0     H12445   1.478   2.316  11.018 -0.9088  1.4476  1.9889
  852MOL0     H12446   2.444   2.325  10.825  3.6713 -1.5438 -0.0644
  852MOL0     H12447   2.667   2.387  10.894 -0.5658  0.3634 -0.8979
  852MOL0     H12448   2.964   2.604  11.371 -0.8247 -0.3814  0.6570
  852MOL0     H12449   3.203   2.564  11.463  0.4522  0.5366 -0.2166
  852MOL0     H12450   4.522   1.919  10.750 -1.8914 -2.5045 -0.1399
  852MOL0     H12451   4.783   1.944  10.736  2.7225  1.1222 -2.8869
  852MOL0     H12452   5.136   2.069  10.322  0.6406 -0.4190 -2.2887
  852MOL0     H12453   5.381   2.091  10.291 -0.2742  1.4274  0.0524
  852MOL0     H12454   5.550   1.813  10.349  0.2428 -0.0306  1.2355
  852MOL0     H12455   5.703   1.823  10.428 -0.2467 -0.7102 -0.2234
  852MOL0     H12456   5.638   1.979  10.172 -1.2637  2.1340  1.1556
  852MOL0     H12457   5.769   2.020  10.280 -0.9674 -1.1539  2.4121
  852MOL0     H12458   5.839   1.774  10.257  0.8042 -0.4233 -0.2207
  852MOL0     H12459   5.899   1.898  10.146  1.0375 -0.6647 -0.1116
  852MOL0     H12460   5.649   1.732  10.095 -0.8328  3.7690  1.8471
  852MOL0     H12461   5.723   1.855   9.988 -1.2354  1.4930  1.4533
  852MOL0     H12462   6.026   1.547   9.956  0.5120  1.3259 -2.4348
  852MOL0     H12463   5.458   1.833  10.612  1.4353 -0.7677 -2.6754
  852MOL0     H12464   5.205   1.772  10.628 -1.5001  0.1681  0.4819
  853MOL0     O12465   5.849   2.936  11.184  0.5652  0.0810 -0.5857
  853MOL0     C12466   5.806   2.858  11.268  0.4360  0.0153  0.1513
  853MOL0     O12467   5.856   2.823  11.386 -0.6413  0.3612 -0.0335
  853MOL0     C12468   5.979   2.854  11.413 -0.2980 -0.0279  0.4077
  853MOL0     C12469   6.080   2.761  11.376 -0.0250 -0.2353  0.4496
  853MOL0     C12470   6.219   2.793  11.396 -0.0429  0.4823 -0.1467
  853MOL0     C12471   6.252   2.920  11.450 -0.7185 -0.2992 -1.1824
  853MOL0     O12472   6.384   2.927  11.476 -0.9171  0.3038 -0.0282
  853MOL0     C12473   6.432   2.992  11.593  0.3178  0.5987  0.5838
  853MOL0     C12474   6.586   3.007  11.586  0.5738 -0.0721  0.3655
  853MOL0     C12475   6.648   2.873  11.562  1.2971  0.5867  0.6042
  853MOL0     C12476   6.806   2.884  11.572  0.4069  0.1957 -0.2331
  853MOL0     C12477   6.873   2.752  11.532  0.4365 -0.1516 -0.0545
  853MOL0     C12478   6.999   2.728  11.618  0.2037 -0.3693 -0.4431
  853MOL0     C12479   7.056   2.599  11.578  0.2814  0.2796 -0.1335
  853MOL0     C12480   7.177   2.568  11.663  0.7053 -0.5109 -1.2484
  853MOL0     N12481   7.252   2.462  11.600 -0.4841  0.1891 -0.0604
  853MOL0     C12482   7.319   2.358  11.672 -0.1338 -1.0055  0.0289
  853MOL0     C12483   7.405   2.313  11.582  1.3601  0.3312 -0.3914
  853MOL0     C12484   7.498   2.202  11.604 -1.0427  0.1123 -0.0861
  853MOL0     C12485   7.613   2.222  11.705  0.5014 -0.0400 -0.4989
  853MOL0     C12486   7.571   2.270  11.857  0.5760 -0.2402  0.4166
  853MOL0     C12487   7.486   2.164  11.934  0.0621  0.4133 -0.8970
  853MOL0     O12488   7.486   2.182  12.074  0.2822 -0.3959  0.5510
  853MOL0     C12489   7.598   2.132  12.144 -0.1777  0.5303  0.5815
  853MOL0     C12490   7.726   2.101  12.090  0.1770 -0.6808 -0.0367
  853MOL0     C12491   7.822   2.054  12.169  0.9800  1.3370  0.2243
  853MOL0     C12492   7.809   2.066  12.309 -0.2563  0.2127  0.4860
  853MOL0     C12493   7.923   2.040  12.403  0.6203 -0.9660  0.5199
  853MOL0     O12494   8.032   1.978  12.351  0.9281  0.1882 -0.1420
  853MOL0     C12495   8.133   1.946  12.436  0.6450 -0.8179 -0.0520
  853MOL0     C12496   8.158   1.813  12.466  0.6068  0.2156 -0.5945
  853MOL0     C12497   8.270   1.768  12.525 -0.4992  0.9312  0.3353
  853MOL0     C12498   8.372   1.856  12.552  0.6669 -0.4094 -0.8530
  853MOL0     O12499   8.496   1.811  12.598  0.2441 -0.2035 -0.7585
  853MOL0     C12500   8.499   1.674  12.650 -0.4631  0.6944 -0.6321
  853MOL0     C12501   8.601   1.641  12.751  1.1089  0.5821  0.5914
  853MOL0     C12502   8.596   1.724  12.884  1.0234 -0.4455 -0.0589
  853MOL0     C12503   8.665   1.657  13.006  0.5285  0.1478 -0.1753
  853MOL0     C12504   8.816   1.682  13.004 -0.1625  0.7006 -0.1349
  853MOL0     C12505   8.903   1.550  13.024  0.5025  0.5692  0.7769
  853MOL0     C12506   9.038   1.574  12.979 -0.1240 -0.4064  0.5420
  853MOL0     C12507   9.126   1.464  13.017  0.3525  0.2257 -0.0626
  853MOL0    Cl12508   9.292   1.508  12.992 -0.1682  0.4414 -0.0474
  853MOL0     C12509   8.355   1.992  12.526  0.0501  0.0575  0.2356
  853MOL0     C12510   8.236   2.035  12.462 -0.9964  0.3444  0.5034
  853MOL0     O12511   7.918   2.085  12.517 -0.0053  0.3218  0.2488
  853MOL0     C12512   7.684   2.111  12.360 -0.0167  0.6315  0.3756
  853MOL0     C12513   7.577   2.141  12.281  0.9669 -0.7787  0.1567
  853MOL0     N12514   7.387   2.377  11.461  0.0047  0.2650  0.2441
  853MOL0     N12515   7.293   2.464  11.471 -0.9013  0.3593  0.1006
  853MOL0     C12516   6.152   2.998  11.496  0.5630 -0.5752  0.3619
  853MOL0     C12517   6.016   2.970  11.472 -0.7358 -1.0417  0.2275
  853MOL0     C12518   5.669   2.816  11.234  0.1326  1.2185  0.5564
  853MOL0     C12519   5.599   2.865  11.126 -0.6967 -0.0788  0.6872
  853MOL0     C12520   5.470   2.813  11.093 -0.6405  0.7659 -0.0382
  853MOL0     C12521   5.399   2.725  11.172 -1.2284 -0.2480  0.2613
  853MOL0     O12522   5.268   2.715  11.142  0.3513  0.2196  0.0991
  853MOL0     C12523   5.210   2.598  11.184 -0.2362 -0.4348 -0.4944
  853MOL0     C12524   5.060   2.602  11.129 -0.8603  0.3012  0.2950
  853MOL0     C12525   4.972   2.503  11.211  0.4852  0.5096 -0.1824
  853MOL0     C12526   4.967   2.524  11.367  0.0926  0.5181 -0.2911
  853MOL0     C12527   4.925   2.668  11.380 -0.0021 -0.0904  0.9936
  853MOL0     C12528   4.887   2.782  11.394 -0.2010 -0.2179 -0.2021
  853MOL0     C12529   5.470   2.680  11.284 -0.3535  0.4502 -0.0969
  853MOL0     C12530   5.606   2.718  11.307  0.2557  1.0247 -0.4541
  853MOL0     H12531   6.056   2.670  11.321 -2.0713  0.9640 -0.7456
  853MOL0     H12532   6.302   2.738  11.353  0.9274  0.7602  1.2985
  853MOL0     H12533   6.413   2.932  11.683 -2.3820 -0.9805 -0.9049
  853MOL0     H12534   6.391   3.093  11.604  1.9269  1.3055  0.3327
  853MOL0     H12535   6.640   3.054  11.669  1.5710 -3.3817  1.8054
  853MOL0     H12536   6.602   3.072  11.500 -0.9526 -0.0538  0.0628
  853MOL0     H12537   6.624   2.839  11.461 -0.1345  3.3181 -0.0582
  853MOL0     H12538   6.609   2.801  11.634 -0.0237 -0.8776 -1.4669
  853MOL0     H12539   6.834   2.974  11.518 -0.9787 -1.2592 -3.6408
  853MOL0     H12540   6.828   2.914  11.675 -0.4542 -0.5983  0.1961
  853MOL0     H12541   6.901   2.750  11.426  1.3411  0.2008  0.1645
  853MOL0     H12542   6.805   2.669  11.555  0.4420  0.1557  1.1190
  853MOL0     H12543   6.965   2.720  11.722  0.3130  1.1235 -0.2645
  853MOL0     H12544   7.077   2.803  11.603  3.8528 -3.3683  1.9500
  853MOL0     H12545   6.983   2.518  11.588  0.2637  0.0471 -1.8611
  853MOL0     H12546   7.102   2.614  11.479 -1.4118  1.1583 -0.8180
  853MOL0     H12547   7.130   2.528  11.754  1.1306 -0.1263 -0.8573
  853MOL0     H12548   7.233   2.657  11.690 -1.5045  1.2833 -2.2347
  853MOL0     H12549   7.322   2.324  11.775  1.0323  0.6943  0.6003
  853MOL0     H12550   7.555   2.176  11.514  3.0427  0.6816  2.1139
  853MOL0     H12551   7.449   2.107  11.629  1.7890 -2.0027 -1.8817
  853MOL0     H12552   7.669   2.306  11.665  0.0939  1.1702  1.3569
  853MOL0     H12553   7.677   2.134  11.713 -1.3662 -1.3161  1.6825
  853MOL0     H12554   7.667   2.290  11.906 -0.2370  0.0428  1.9527
  853MOL0     H12555   7.512   2.361  11.845 -0.0992 -0.9886 -3.3264
  853MOL0     H12556   7.502   2.057  11.913 -1.0283 -0.0640  0.5787
  853MOL0     H12557   7.383   2.179  11.903 -0.1808  1.1016  0.2167
  853MOL0     H12558   7.744   2.096  11.983 -1.9577  0.7659 -0.5432
  853MOL0     H12559   7.923   2.028  12.138  0.9667 -0.4070  1.5092
  853MOL0     H12560   8.085   1.744  12.425  0.4285  0.4709 -0.7087
  853MOL0     H12561   8.266   1.662  12.551 -0.7636  0.9508  0.3789
  853MOL0     H12562   8.513   1.603  12.568  0.2439 -0.4552  0.4438
  853MOL0     H12563   8.411   1.642  12.706  0.6814  2.4816  2.3841
  853MOL0     H12564   8.700   1.649  12.704  0.2259 -5.1171 -3.2590
  853MOL0     H12565   8.599   1.533  12.768 -1.0710  0.6507  1.0034
  853MOL0     H12566   8.495   1.741  12.922  0.8682 -0.5129 -0.4388
  853MOL0     H12567   8.624   1.828  12.866 -0.1525  0.4215  2.5035
  853MOL0     H12568   8.621   1.696  13.098  0.0814 -0.4255 -0.1421
  853MOL0     H12569   8.635   1.552  13.013 -0.4865  0.3929 -0.6102
  853MOL0     H12570   8.832   1.741  13.095 -1.1087 -1.5180  1.5599
  853MOL0     H12571   8.847   1.738  12.915 -0.7272 -1.4169 -1.7422
  853MOL0     H12572   8.864   1.462  12.972 -0.1503 -0.3364  2.6910
  853MOL0     H12573   8.894   1.525  13.131  0.7487 -1.6451  0.3404
  853MOL0     H12574   9.042   1.594  12.872  2.2474  0.5033  0.7368
  853MOL0     H12575   9.079   1.656  13.039  1.1403 -1.8960  1.7691
  853MOL0     H12576   9.109   1.372  12.961  1.3358 -0.4158  0.6751
  853MOL0     H12577   9.097   1.450  13.122 -1.8117 -1.9767 -0.8637
  853MOL0     H12578   8.438   2.059  12.545  0.2946 -0.2673  0.3155
  853MOL0     H12579   8.222   2.137  12.429  0.4791 -0.0411 -1.5572
  853MOL0     H12580   7.664   2.124  12.467 -0.4946  2.4385  0.1062
  853MOL0     H12581   7.485   2.167  12.333  1.1201 -0.5978  0.3355
  853MOL0     H12582   6.177   3.091  11.547 -0.8106 -0.2161  0.4335
  853MOL0     H12583   5.945   3.044  11.507  1.3292  0.5012  1.3584
  853MOL0     H12584   5.625   2.951  11.064 -1.2678  1.2691  2.2450
  853MOL0     H12585   5.420   2.863  11.011  0.8774  1.1288 -0.7585
  853MOL0     H12586   5.211   2.597  11.293 -3.4041 -0.0576 -0.3458
  853MOL0     H12587   5.268   2.514  11.145  0.6239  0.0671 -0.3007
  853MOL0     H12588   5.014   2.701  11.132 -2.0886 -0.2503  0.5717
  853MOL0     H12589   5.061   2.561  11.027 -0.7391 -2.9326  1.4665
  853MOL0     H12590   5.019   2.407  11.187 -2.3004 -0.6604 -1.3563
  853MOL0     H12591   4.872   2.501  11.166  0.9882  3.1778 -1.6468
  853MOL0     H12592   4.885   2.469  11.412 -0.7015  0.1207 -2.1506
  853MOL0     H12593   5.065   2.503  11.411  0.7919  0.8230 -1.6465
  853MOL0     H12594   4.857   2.882  11.415 -0.7990 -0.1761 -1.1752
  853MOL0     H12595   5.426   2.635  11.372  0.7483 -0.9000 -0.1912
  853MOL0     H12596   5.665   2.678  11.388  2.1406  0.5388 -1.9928
  854MOL0     O12597  10.601   0.335  10.599 -0.0092 -0.1752  0.6499
  854MOL0     C12598  10.643   0.416  10.508  0.5285 -0.0663 -0.4718
  854MOL0     O12599  10.561   0.497  10.440  0.3373  0.2820 -0.7629
  854MOL0     C12600  10.422   0.500  10.447  0.1584 -0.1227  0.7597
  854MOL0     C12601  10.331   0.410  10.512 -0.5704 -0.4275 -0.5463
  854MOL0     C12602  10.192   0.429  10.508 -0.0180 -0.3112 -0.6590
  854MOL0     C12603  10.137   0.528  10.439  0.6327 -0.8407  1.4082
  854MOL0     O12604  10.000   0.553  10.426  0.9276  0.4668  0.1245
  854MOL0     C12605   9.904   0.450  10.466  0.0934 -0.1888  0.3208
  854MOL0     C12606   9.756   0.474  10.413 -0.0334 -0.1552 -0.0321
  854MOL0     C12607   9.692   0.599  10.481  0.1479 -0.8189 -0.7453
  854MOL0     C12608   9.769   0.737  10.445  0.0914  0.1001  1.3599
  854MOL0     C12609   9.685   0.853  10.397 -0.6818  0.4357  0.1230
  854MOL0     C12610   9.587   0.917  10.496 -0.3608 -0.6927 -0.2708
  854MOL0     C12611   9.664   0.987  10.608 -0.3620  0.2394  0.4416
  854MOL0     C12612   9.688   0.907  10.739  0.5149  0.5120 -0.1778
  854MOL0     N12613   9.569   0.856  10.807 -0.1173 -0.7452  0.3969
  854MOL0     C12614   9.487   0.919  10.895  0.0165  0.4453  0.0044
  854MOL0     C12615   9.386   0.827  10.924 -0.0397  0.5967 -0.0531
  854MOL0     C12616   9.280   0.859  11.025  0.3197 -0.6501  0.0793
  854MOL0     C12617   9.148   0.901  10.964 -0.9642 -0.5700  0.1200
  854MOL0     C12618   9.169   1.026  10.872  0.0855 -1.4952 -0.0941
  854MOL0     C12619   9.037   1.090  10.835 -0.3579 -0.1571  0.4908
  854MOL0     O12620   8.932   0.996  10.861 -1.3828 -0.3168  0.0352
  854MOL0     C12621   8.811   1.049  10.889  0.0026 -0.7497  0.0992
  854MOL0     C12622   8.733   0.973  10.981 -0.8812  0.5159  0.7022
  854MOL0     C12623   8.608   1.014  11.021  1.0805  0.7305  1.4526
  854MOL0     C12624   8.548   1.124  10.951 -0.0029 -0.3228 -0.4524
  854MOL0     C12625   8.402   1.135  10.958 -0.6932  0.1635 -0.0307
  854MOL0     O12626   8.340   1.234  10.881  0.2051 -0.6795 -0.6531
  854MOL0     C12627   8.204   1.243  10.887 -0.1198 -0.0811  0.0766
  854MOL0     C12628   8.139   1.217  10.763  0.4391  0.2176 -0.3077
  854MOL0     C12629   8.004   1.232  10.766  0.5198  0.0890 -0.0942
  854MOL0     C12630   7.929   1.262  10.880 -0.3406  0.8249 -0.0240
  854MOL0     O12631   7.793   1.271  10.868 -0.0207 -0.0533  0.1616
  854MOL0     C12632   7.699   1.256  10.972 -0.2259  0.5694 -0.1377
  854MOL0     C12633   7.649   1.393  11.030 -0.4353  0.3166 -0.6453
  854MOL0     C12634   7.534   1.374  11.130 -0.8148 -0.4680 -1.2120
  854MOL0     C12635   7.523   1.509  11.205  0.0702  0.8037  0.5167
  854MOL0     C12636   7.390   1.512  11.287 -0.4132  0.1181  0.0906
  854MOL0     C12637   7.265   1.546  11.207 -0.4187 -0.0267 -0.5648
  854MOL0     C12638   7.135   1.527  11.290  0.1437  0.0489 -0.4089
  854MOL0     C12639   7.073   1.393  11.327  0.2707 -0.6037 -0.8049
  854MOL0    Cl12640   7.027   1.304  11.179  0.3036  0.1057 -0.1615
  854MOL0     C12641   7.995   1.290  11.004  0.5374 -0.2498  0.7183
  854MOL0     C12642   8.131   1.284  11.003 -0.1613  0.8014  0.2900
  854MOL0     O12643   8.348   1.044  11.024  0.2256 -0.2010 -0.5296
  854MOL0     C12644   8.624   1.199  10.856  0.1068  0.8583 -0.3252
  854MOL0     C12645   8.761   1.166  10.841 -0.4544  0.0401 -0.0387
  854MOL0     N12646   9.404   0.714  10.845 -0.1393 -0.9224  0.2419
  854MOL0     N12647   9.515   0.730  10.779 -0.1523 -0.2845  0.4602
  854MOL0     C12648  10.222   0.613  10.372 -0.2310  0.4251  0.2255
  854MOL0     C12649  10.362   0.605  10.382  0.3345  0.8185  0.1159
  854MOL0     C12650  10.791   0.425  10.481 -0.1811 -0.6427 -1.0207
  854MOL0     C12651  10.839   0.488  10.367  0.3726  0.9985  0.2666
  854MOL0     C12652  10.974   0.505  10.349 -0.0438 -0.5512 -0.7120
  854MOL0     C12653  11.070   0.460  10.446 -0.2826  0.3841 -0.3516
  854MOL0     O12654  11.202   0.500  10.432  0.4809  0.4301 -0.4950
  854MOL0     C12655  11.308   0.437  10.502  0.0061 -0.0692  0.1653
  854MOL0     C12656  11.445   0.469  10.443  0.5306 -0.7435  0.1453
  854MOL0     C12657  11.475   0.420  10.294 -0.4659 -0.2339  0.8198
  854MOL0     C12658  11.614   0.463  10.230 -0.0080  0.0801 -0.2623
  854MOL0     C12659  11.735   0.456  10.314  0.1994 -0.2323 -0.1004
  854MOL0     C12660  11.841   0.482  10.374 -0.2235 -0.2807 -0.3639
  854MOL0     C12661  11.027   0.400  10.560 -0.0686 -0.4804  0.1155
  854MOL0     C12662  10.889   0.385  10.576  0.4629 -0.0921 -0.4648
  854MOL0     H12663  10.370   0.323  10.564  2.2055  1.8347  1.4959
  854MOL0     H12664  10.131   0.365  10.572  0.0867  0.6703  0.4639
  854MOL0     H12665   9.913   0.454  10.575  0.3870  2.3381  0.2644
  854MOL0     H12666   9.942   0.355  10.428  2.7662  0.3354  1.4460
  854MOL0     H12667   9.691   0.386  10.419  0.5843 -1.0819 -3.9140
  854MOL0     H12668   9.776   0.497  10.307  1.4802  0.1324  0.2891
  854MOL0     H12669   9.703   0.580  10.588 -2.5324 -1.1422 -0.4548
  854MOL0     H12670   9.585   0.602  10.460  0.5090 -1.4586 -2.9349
  854MOL0     H12671   9.821   0.769  10.536  1.5861  2.7034 -0.2733
  854MOL0     H12672   9.839   0.720  10.362  0.6419  1.9933  1.3862
  854MOL0     H12673   9.640   0.825  10.301  0.3435  0.8015 -0.4852
  854MOL0     H12674   9.759   0.933  10.380  1.3315 -0.7913  2.4303
  854MOL0     H12675   9.520   0.843  10.540 -0.4248 -2.2337 -2.7795
  854MOL0     H12676   9.522   0.982  10.436  0.6629 -0.4221 -1.0962
  854MOL0     H12677   9.760   1.024  10.571  1.4425 -3.5332  0.8435
  854MOL0     H12678   9.610   1.072  10.649  0.1958  0.1838  1.3288
  854MOL0     H12679   9.738   0.966  10.816 -2.3489  2.2727  0.4537
  854MOL0     H12680   9.747   0.817  10.720 -1.5410 -0.4549 -2.5472
  854MOL0     H12681   9.517   1.014  10.938  0.2205  0.2527  0.2910
  854MOL0     H12682   9.315   0.927  11.103  0.1203 -0.1789 -0.2385
  854MOL0     H12683   9.258   0.766  11.078  0.5331 -0.2580  0.8785
  854MOL0     H12684   9.088   0.937  11.048 -3.4566  2.4465 -2.6978
  854MOL0     H12685   9.101   0.818  10.911  3.0378 -1.1618 -2.9384
  854MOL0     H12686   9.226   1.098  10.931  0.2398 -1.3048 -0.4762
  854MOL0     H12687   9.226   0.997  10.784  1.8377 -0.4030  0.6323
  854MOL0     H12688   9.047   1.104  10.727  0.0945 -0.9404  0.4221
  854MOL0     H12689   9.018   1.186  10.883 -0.9477 -0.9966  1.9971
  854MOL0     H12690   8.777   0.877  11.006  2.8870  2.2892  1.5855
  854MOL0     H12691   8.554   0.949  11.090 -0.7059  0.1751 -0.3578
  854MOL0     H12692   8.187   1.202  10.667 -0.7049 -0.9258 -0.7150
  854MOL0     H12693   7.962   1.236  10.666 -0.9420 -1.9668  0.3630
  854MOL0     H12694   7.729   1.193  11.056 -2.3244  2.2703  2.0443
  854MOL0     H12695   7.616   1.202  10.926  0.9148  1.5149 -3.5345
  854MOL0     H12696   7.603   1.452  10.951 -0.8014  0.4519 -0.3329
  854MOL0     H12697   7.726   1.453  11.080 -0.9443 -1.2242  2.2059
  854MOL0     H12698   7.562   1.296  11.202  1.4990  1.7850  0.5360
  854MOL0     H12699   7.443   1.354  11.073 -1.6413 -0.4108  0.0345
  854MOL0     H12700   7.608   1.520  11.273  1.5935 -1.4918 -0.9078
  854MOL0     H12701   7.520   1.595  11.138  0.7511 -0.0747 -0.6677
  854MOL0     H12702   7.403   1.588  11.365  2.4479  1.0620 -1.1576
  854MOL0     H12703   7.378   1.418  11.342  1.0491 -0.2144 -0.1137
  854MOL0     H12704   7.253   1.496  11.110 -1.4163  1.9538 -1.5273
  854MOL0     H12705   7.279   1.650  11.177  2.5284 -0.3848 -0.7357
  854MOL0     H12706   7.159   1.587  11.378  2.4055 -0.5135 -0.5837
  854MOL0     H12707   7.057   1.580  11.234 -1.7645 -0.8826  1.2612
  854MOL0     H12708   6.993   1.412  11.399 -1.3186 -1.3005 -2.3215
  854MOL0     H12709   7.148   1.323  11.366  0.5015 -1.0781 -2.0677
  854MOL0     H12710   7.952   1.326  11.097  1.5016  1.1636  0.6586
  854MOL0     H12711   8.186   1.301  11.095 -0.6714 -0.7867  0.9184
  854MOL0     H12712   8.589   1.282  10.796 -0.3388 -1.2233 -3.1534
  854MOL0     H12713   8.828   1.219  10.773  0.8079  0.6879  1.6382
  854MOL0     H12714  10.193   0.702  10.317  0.6664 -0.1217 -1.2018
  854MOL0     H12715  10.417   0.690  10.341  0.9778 -0.4809 -1.8295
  854MOL0     H12716  10.775   0.503  10.280  0.4655 -0.5398 -0.0918
  854MOL0     H12717  10.996   0.550  10.253  0.4708  1.7246  0.4106
  854MOL0     H12718  11.294   0.328  10.503  2.2732 -0.4173  2.5003
  854MOL0     H12719  11.294   0.482  10.601 -1.6942  3.2939 -1.4216
  854MOL0     H12720  11.452   0.578  10.454  0.5359 -0.8954  1.8640
  854MOL0     H12721  11.514   0.419  10.511  0.9514  0.6927  0.8229
  854MOL0     H12722  11.392   0.453  10.230 -0.9400 -1.5190  0.7326
  854MOL0     H12723  11.476   0.311  10.278  0.8406  0.1979 -3.0724
  854MOL0     H12724  11.634   0.400  10.142 -4.3569  1.2280 -2.3355
  854MOL0     H12725  11.602   0.564  10.191  2.3164  0.5768  0.1388
  854MOL0     H12726  11.932   0.508  10.424 -1.0721  1.8476  0.1953
  854MOL0     H12727  11.092   0.383  10.645 -1.1106  0.1888  1.0645
  854MOL0     H12728  10.864   0.342  10.672 -2.2663  1.7984 -0.2406
  855MOL0     O12729   2.630   1.397   5.742  0.6280  0.4536 -0.2333
  855MOL0     C12730   2.572   1.340   5.840  0.2755 -0.6215  0.3484
  855MOL0     O12731   2.619   1.309   5.968 -0.4273 -0.4336  0.4192
  855MOL0     C12732   2.756   1.310   5.997 -0.1418 -0.8758  0.2923
  855MOL0     C12733   2.855   1.368   5.916  0.7535  1.0610 -0.0359
  855MOL0     C12734   2.988   1.364   5.958 -0.1930  0.2841  0.3424
  855MOL0     C12735   3.029   1.297   6.074 -0.4905 -0.1925 -0.8241
  855MOL0     O12736   3.163   1.306   6.106 -0.5701 -0.1737 -0.0281
  855MOL0     C12737   3.196   1.215   6.208 -0.0880  0.1852 -0.2911
  855MOL0     C12738   3.348   1.235   6.232 -1.0030 -0.7240  0.1634
  855MOL0     C12739   3.397   1.160   6.357  1.1301 -1.4783  0.2935
  855MOL0     C12740   3.541   1.197   6.389 -0.7055  0.0259  0.0313
  855MOL0     C12741   3.592   1.095   6.483  0.4594 -0.4157 -1.1307
  855MOL0     C12742   3.540   1.101   6.625 -0.2029  0.1436 -0.8044
  855MOL0     C12743   3.589   1.224   6.693 -0.6419 -0.2116  0.0123
  855MOL0     C12744   3.557   1.229   6.846  0.8759 -1.4061  0.4245
  855MOL0     N12745   3.412   1.237   6.864 -0.0468 -0.6736 -0.4838
  855MOL0     C12746   3.321   1.137   6.847  0.2084 -0.5294 -0.4844
  855MOL0     C12747   3.201   1.195   6.844 -0.2310  0.3718  0.1840
  855MOL0     C12748   3.066   1.142   6.829 -0.4481 -0.6875 -0.8169
  855MOL0     C12749   3.003   1.175   6.699 -0.6905  1.1536  0.1481
  855MOL0     C12750   2.849   1.140   6.681 -0.1595  1.3465  0.3586
  855MOL0     C12751   2.826   0.985   6.687 -0.3342 -1.0620  0.9138
  855MOL0     O12752   2.687   0.955   6.703  1.0125 -0.3253 -0.0413
  855MOL0     C12753   2.594   0.967   6.601 -0.2518 -0.0425 -0.8561
  855MOL0     C12754   2.620   1.012   6.469 -1.0939  0.4051 -0.7044
  855MOL0     C12755   2.519   1.033   6.378  0.2285  0.8535  0.0771
  855MOL0     C12756   2.391   0.991   6.409 -0.0807 -0.3529  1.3048
  855MOL0     C12757   2.276   1.002   6.310 -0.2431  0.2702  0.5367
  855MOL0     O12758   2.160   0.933   6.334  0.2652  0.3905  0.0290
  855MOL0     C12759   2.042   0.951   6.248  0.4854 -0.0533 -1.2606
  855MOL0     C12760   1.920   0.924   6.314  0.3169  0.3221  0.3355
  855MOL0     C12761   1.798   0.930   6.236  0.2357 -0.8653 -1.1843
  855MOL0     C12762   1.794   0.971   6.102 -1.5346 -0.4814  0.3219
  855MOL0     O12763   1.679   0.985   6.020 -0.6598 -0.2812  0.3645
  855MOL0     C12764   1.555   1.007   6.082  0.8382 -0.1268 -0.3628
  855MOL0     C12765   1.444   0.959   5.986 -0.3422  0.3283 -0.2139
  855MOL0     C12766   1.446   1.044   5.857 -0.4842 -0.9894 -0.2536
  855MOL0     C12767   1.348   0.982   5.759 -0.0418  0.3468  0.3013
  855MOL0     C12768   1.263   1.079   5.689  0.6990 -0.2285  0.5496
  855MOL0     C12769   1.179   1.018   5.578 -0.0469  0.3528  0.0944
  855MOL0     C12770   1.041   0.964   5.626 -0.1004  0.9120 -0.5181
  855MOL0     C12771   0.947   0.918   5.506  0.4440 -0.0570 -0.2392
  855MOL0    Cl12772   0.917   1.056   5.395 -0.3353  0.3019  0.2585
  855MOL0     C12773   1.913   0.981   6.037 -0.0223 -0.5896 -0.8716
  855MOL0     C12774   2.035   0.987   6.109 -0.3991  0.5172 -0.6410
  855MOL0     O12775   2.297   1.081   6.214  0.0611 -0.2824  0.5111
  855MOL0     C12776   2.363   0.932   6.536 -0.6353  0.0872 -0.3823
  855MOL0     C12777   2.462   0.929   6.634 -0.5937 -0.2158 -0.1938
  855MOL0     N12778   3.213   1.338   6.854 -0.4153  0.5584 -0.3257
  855MOL0     N12779   3.341   1.362   6.853  0.2067 -0.0456  0.1579
  855MOL0     C12780   2.924   1.259   6.160  0.7529 -0.4824  0.3421
  855MOL0     C12781   2.792   1.255   6.118  0.8255  0.0070 -0.2644
  855MOL0     C12782   2.425   1.327   5.818  0.1698 -0.2348 -0.4963
  855MOL0     C12783   2.339   1.271   5.921  0.0991 -0.2107  0.3950
  855MOL0     C12784   2.196   1.268   5.898  0.8052 -0.0806 -0.3125
  855MOL0     C12785   2.144   1.319   5.779 -0.1577  0.3260  0.2549
  855MOL0     O12786   2.007   1.327   5.767 -0.6424  0.6523 -0.9580
  855MOL0     C12787   1.958   1.256   5.654  0.7747 -0.7771  0.4613
  855MOL0     C12788   1.818   1.197   5.675 -0.4953  0.5239 -0.2341
  855MOL0     C12789   1.722   1.234   5.559 -0.0498 -0.1253  0.4976
  855MOL0     C12790   1.716   1.134   5.447 -0.3737  0.5135 -0.0111
  855MOL0     C12791   1.704   1.003   5.513 -0.3897 -0.1211  0.1067
  855MOL0     C12792   1.704   0.897   5.573  0.5906 -0.7087  0.4414
  855MOL0     C12793   2.230   1.362   5.671 -0.6010 -0.1293  0.5214
  855MOL0     C12794   2.369   1.368   5.692 -0.1872  0.4644  0.2379
  855MOL0     H12795   2.843   1.396   5.812  1.2747  0.6172 -0.2278
  855MOL0     H12796   3.058   1.407   5.886  0.2799  1.5443  1.5040
  855MOL0     H12797   3.174   1.114   6.171 -2.8072  1.0560 -1.2537
  855MOL0     H12798   3.151   1.224   6.307  1.1860 -1.3832  0.4862
  855MOL0     H12799   3.390   1.336   6.238 -1.0682 -0.8024  3.4713
  855MOL0     H12800   3.395   1.192   6.143  0.7171 -1.3924  1.3315
  855MOL0     H12801   3.393   1.051   6.342 -0.6457 -1.3914 -0.0657
  855MOL0     H12802   3.330   1.187   6.439  1.8769  0.1453  0.4015
  855MOL0     H12803   3.604   1.199   6.300 -0.5585 -0.7206  0.1090
  855MOL0     H12804   3.551   1.296   6.434  0.6716 -1.2332  2.7779
  855MOL0     H12805   3.699   1.116   6.486  0.5880 -0.8269 -2.2788
  855MOL0     H12806   3.579   0.990   6.454  0.4464 -0.4642 -0.9476
  855MOL0     H12807   3.594   1.024   6.679 -0.4796  0.1776 -0.4737
  855MOL0     H12808   3.432   1.083   6.637 -0.3563  0.0330 -2.2170
  855MOL0     H12809   3.699   1.223   6.691 -0.5326 -0.6744  2.5839
  855MOL0     H12810   3.550   1.311   6.640 -1.4383 -1.8934 -2.3067
  855MOL0     H12811   3.603   1.322   6.882  0.0595 -0.1858 -1.4794
  855MOL0     H12812   3.596   1.149   6.909 -0.7763 -1.8664  0.9217
  855MOL0     H12813   3.331   1.031   6.827 -1.0564 -0.5479 -1.1469
  855MOL0     H12814   3.012   1.180   6.916  3.0223 -0.8424  1.6351
  855MOL0     H12815   3.061   1.035   6.851  0.7739 -0.0405  3.5229
  855MOL0     H12816   3.050   1.116   6.619 -0.8516 -1.2726  1.7163
  855MOL0     H12817   3.026   1.280   6.679  2.0077  0.1753 -2.8627
  855MOL0     H12818   2.788   1.184   6.760 -3.4829  0.2610 -1.3956
  855MOL0     H12819   2.814   1.182   6.585  1.3267 -0.6214 -1.1261
  855MOL0     H12820   2.866   0.941   6.779  0.3107 -1.6396  0.3718
  855MOL0     H12821   2.872   0.931   6.605 -2.9943 -1.6060 -0.3357
  855MOL0     H12822   2.721   1.042   6.442 -1.1074  0.6657 -0.4642
  855MOL0     H12823   2.545   1.053   6.275  1.7774 -1.7878 -0.1154
  855MOL0     H12824   1.911   0.888   6.416  0.9784  3.7223  1.7548
  855MOL0     H12825   1.707   0.907   6.291 -0.3824 -1.1667 -2.2941
  855MOL0     H12826   1.531   1.112   6.101  2.6740  0.4597 -1.1008
  855MOL0     H12827   1.544   0.962   6.181 -2.8829  2.4776  0.6687
  855MOL0     H12828   1.349   0.954   6.041 -1.0282  1.7255 -1.2166
  855MOL0     H12829   1.469   0.854   5.967  1.3329  0.3359  1.6288
  855MOL0     H12830   1.549   1.041   5.819 -0.0748 -1.7297  0.8518
  855MOL0     H12831   1.427   1.151   5.870  1.7660 -0.5229 -0.2216
  855MOL0     H12832   1.409   0.922   5.691 -0.4631  2.1546 -1.8175
  855MOL0     H12833   1.275   0.914   5.803 -0.0071  0.5929  0.7457
  855MOL0     H12834   1.335   1.134   5.627  0.0013  0.5507  0.4033
  855MOL0     H12835   1.201   1.141   5.755 -1.3759 -2.4675  0.8220
  855MOL0     H12836   1.238   0.935   5.538 -1.8399  0.0322 -2.1560
  855MOL0     H12837   1.171   1.090   5.496  2.4373 -0.7595 -1.2194
  855MOL0     H12838   1.062   0.875   5.685 -1.2156  0.8422 -0.2034
  855MOL0     H12839   0.983   1.039   5.682 -1.3044 -1.4874  1.6421
  855MOL0     H12840   0.856   0.873   5.546  1.1863 -1.3920  0.0112
  855MOL0     H12841   0.983   0.827   5.456 -2.3907 -0.5860 -1.5189
  855MOL0     H12842   1.914   1.009   5.932  0.2005  0.8490 -0.5007
  855MOL0     H12843   2.117   1.010   6.041 -0.2385  0.3937 -0.4903
  855MOL0     H12844   2.266   0.884   6.544 -0.7750 -0.8025 -4.9312
  855MOL0     H12845   2.452   0.879   6.729  0.2236 -2.0282 -1.0028
  855MOL0     H12846   2.937   1.203   6.251  2.2043  0.6372  0.8619
  855MOL0     H12847   2.713   1.212   6.181  2.2493  0.4620  1.9532
  855MOL0     H12848   2.376   1.237   6.017  0.6355 -0.4045  0.1249
  855MOL0     H12849   2.131   1.233   5.978 -3.3489 -0.6059 -3.6017
  855MOL0     H12850   2.029   1.174   5.638  2.0233 -0.3015  3.0851
  855MOL0     H12851   1.941   1.326   5.571 -3.1072  0.1208  1.7970
  855MOL0     H12852   1.830   1.090   5.695 -3.1408  0.5317  1.9997
  855MOL0     H12853   1.766   1.224   5.768  4.2945  1.9122  2.3820
  855MOL0     H12854   1.739   1.337   5.529  2.9128  0.1750  2.7816
  855MOL0     H12855   1.617   1.231   5.592 -0.5564  0.7884 -0.9625
  855MOL0     H12856   1.630   1.135   5.380 -0.8400  1.0672  0.5894
  855MOL0     H12857   1.798   1.140   5.374 -0.3551 -0.1025 -0.0459
  855MOL0     H12858   1.712   0.814   5.640  0.1284 -0.6821  0.5352
  855MOL0     H12859   2.185   1.385   5.575  0.5331 -1.4704 -0.3864
  855MOL0     H12860   2.436   1.410   5.616 -1.4000  0.4610 -0.8632
  856MOL0     O12861   0.045   7.696   5.100 -0.4432  0.4040  0.5395
  856MOL0     C12862   0.125   7.751   5.180  0.3243 -0.2079 -0.6174
  856MOL0     O12863   0.131   7.726   5.313  0.5211 -0.5183  0.8738
  856MOL0     C12864   0.043   7.646   5.370  0.2427 -0.4057 -0.1456
  856MOL0     C12865   0.040   7.509   5.343  0.2261 -0.1009  0.8491
  856MOL0     C12866  -0.054   7.427   5.410 -0.8962 -0.1165  1.4439
  856MOL0     C12867  -0.132   7.490   5.516  0.1365 -0.1729 -0.2841
  856MOL0     O12868  -0.208   7.410   5.601  0.5253 -0.3456 -0.0741
  856MOL0     C12869  -0.317   7.353   5.528 -0.3791  1.0698 -0.1411
  856MOL0     C12870  -0.388   7.254   5.626 -0.2008 -0.7474 -0.0589
  856MOL0     C12871  -0.528   7.213   5.594  0.4662 -1.1971 -0.4139
  856MOL0     C12872  -0.612   7.215   5.725  0.4894  0.7446 -0.0536
  856MOL0     C12873  -0.765   7.212   5.712 -0.5469 -0.2892  0.2816
  856MOL0     C12874  -0.823   7.064   5.717 -0.3720 -0.8439 -0.9536
  856MOL0     C12875  -0.977   7.067   5.698 -0.1903 -0.9712 -0.2699
  856MOL0     C12876  -1.046   7.066   5.834 -0.6474  0.0417 -0.6938
  856MOL0     N12877  -1.195   7.088   5.820 -0.2366  0.3811 -0.3860
  856MOL0     C12878  -1.267   7.154   5.920  0.4286 -0.2915 -0.0057
  856MOL0     C12879  -1.393   7.171   5.881  0.1731 -0.4525  0.0959
  856MOL0     C12880  -1.499   7.256   5.947 -0.1323  1.0368  0.8344
  856MOL0     C12881  -1.565   7.179   6.059 -0.7346  0.3776 -0.0460
  856MOL0     C12882  -1.692   7.112   6.006 -0.2024 -0.4637  0.3035
  856MOL0     C12883  -1.776   7.047   6.110 -0.7150 -0.1692 -0.9712
  856MOL0     O12884  -1.893   6.971   6.066  0.0917 -0.1757 -0.3505
  856MOL0     C12885  -2.019   7.034   6.042  0.1270 -0.4716  0.7744
  856MOL0     C12886  -2.137   6.957   5.997  0.7300 -0.1491  0.0587
  856MOL0     C12887  -2.258   7.018   5.968  0.7383  0.8304  0.2651
  856MOL0     C12888  -2.282   7.156   5.979 -0.7668 -0.8524  0.3381
  856MOL0     C12889  -2.414   7.215   5.950 -1.0116 -0.7727 -0.4056
  856MOL0     O12890  -2.518   7.134   5.948  0.2852  0.6300 -0.4295
  856MOL0     C12891  -2.642   7.183   5.960  0.5422 -0.1977 -0.3450
  856MOL0     C12892  -2.683   7.290   6.043  1.1379  0.1918 -1.0464
  856MOL0     C12893  -2.818   7.314   6.062  0.8524 -0.0977 -0.2836
  856MOL0     C12894  -2.915   7.237   5.987  0.7385  0.6220  1.0510
  856MOL0     O12895  -3.054   7.250   5.985  0.3388  0.0261  0.1965
  856MOL0     C12896  -3.109   7.319   6.101 -0.5147  0.9308 -0.3070
  856MOL0     C12897  -3.262   7.306   6.102  0.1672 -0.5395 -0.1184
  856MOL0     C12898  -3.303   7.172   6.166 -0.0103 -0.9577 -0.3216
  856MOL0     C12899  -3.448   7.144   6.162 -0.8156 -0.3813  0.5208
  856MOL0     C12900  -3.555   7.233   6.229 -1.6095  0.0266  0.9324
  856MOL0     C12901  -3.672   7.163   6.302  0.8806  0.3311  1.4225
  856MOL0     C12902  -3.773   7.270   6.359  0.2121  0.5932 -0.2837
  856MOL0     C12903  -3.756   7.285   6.505  1.0722  0.0344  0.1752
  856MOL0    Cl12904  -3.804   7.141   6.587 -0.4139 -0.0296  0.0571
  856MOL0     C12905  -2.866   7.137   5.899  0.9960 -0.2949 -0.7363
  856MOL0     C12906  -2.734   7.104   5.894 -0.6347  0.0598 -0.3597
  856MOL0     O12907  -2.422   7.340   5.931 -0.4760 -0.0284  0.5432
  856MOL0     C12908  -2.167   7.232   6.025  0.3265 -0.9660  0.0517
  856MOL0     C12909  -2.042   7.173   6.053  0.0298 -0.0286 -0.5421
  856MOL0     N12910  -1.395   7.100   5.763  0.8362  0.0532 -0.1398
  856MOL0     N12911  -1.278   7.044   5.725 -0.0138 -1.0112 -0.7337
  856MOL0     C12912  -0.131   7.629   5.543 -0.3548 -0.1163  0.9840
  856MOL0     C12913  -0.044   7.709   5.467 -0.5346 -0.3557  0.6578
  856MOL0     C12914   0.237   7.841   5.122  0.1248 -0.3623  0.3858
  856MOL0     C12915   0.218   7.916   4.999  0.3938  0.3407  0.6112
  856MOL0     C12916   0.308   8.001   4.936  0.1023  0.3952  1.4911
  856MOL0     C12917   0.438   8.006   5.005  0.1103 -0.1370  0.8754
  856MOL0     O12918   0.547   8.085   4.964  0.0840  0.1736 -0.2627
  856MOL0     C12919   0.546   8.166   4.848  0.4203 -0.1632 -0.5188
  856MOL0     C12920   0.693   8.215   4.830  0.2338  1.2816 -1.2888
  856MOL0     C12921   0.694   8.320   4.718  0.5658 -0.2048 -0.7285
  856MOL0     C12922   0.838   8.380   4.697 -0.2536 -0.4902 -0.7574
  856MOL0     C12923   0.844   8.465   4.577 -0.5534  0.5182 -0.2988
  856MOL0     C12924   0.844   8.528   4.478 -0.0653  0.6516  0.3198
  856MOL0     C12925   0.469   7.937   5.118 -0.8209  0.0016  0.0977
  856MOL0     C12926   0.368   7.854   5.176  0.5443  0.2495  0.1139
  856MOL0     H12927   0.118   7.457   5.287  1.1526 -0.0301  2.0400
  856MOL0     H12928  -0.043   7.319   5.409 -0.6317 -0.1080 -0.5250
  856MOL0     H12929  -0.273   7.299   5.444  3.8015  2.4176  0.9127
  856MOL0     H12930  -0.385   7.428   5.488  0.8449  0.9910 -2.5390
  856MOL0     H12931  -0.369   7.305   5.721  0.2507 -1.0921  0.0415
  856MOL0     H12932  -0.326   7.164   5.631  0.1927 -0.5431 -0.9278
  856MOL0     H12933  -0.525   7.111   5.555  0.7387 -1.9605  1.4825
  856MOL0     H12934  -0.579   7.281   5.524 -1.0255  1.1153  2.6430
  856MOL0     H12935  -0.583   7.125   5.779  0.3308  1.9304  2.1136
  856MOL0     H12936  -0.583   7.293   5.796  0.7093  0.6799 -0.0710
  856MOL0     H12937  -0.788   7.256   5.614 -2.8664  0.7278  1.2344
  856MOL0     H12938  -0.810   7.274   5.789 -0.9512  0.0956 -0.2538
  856MOL0     H12939  -0.786   7.021   5.810 -0.7291  1.4671  0.3289
  856MOL0     H12940  -0.788   7.005   5.632  0.7498  0.1626 -1.2214
  856MOL0     H12941  -1.004   7.157   5.641 -0.4191 -1.7881 -1.4849
  856MOL0     H12942  -1.001   6.983   5.632 -0.3676 -0.7846 -0.4455
  856MOL0     H12943  -1.017   7.140   5.909 -1.1637 -2.0338  1.6729
  856MOL0     H12944  -1.031   6.969   5.880  0.6829  0.4545 -0.2305
  856MOL0     H12945  -1.223   7.195   6.011 -0.1943 -1.6091  0.9168
  856MOL0     H12946  -1.567   7.284   5.866 -1.3315 -0.0551  1.4403
  856MOL0     H12947  -1.454   7.347   5.988 -0.5835  1.3808  0.5787
  856MOL0     H12948  -1.583   7.248   6.142  0.6571 -0.3005  0.8512
  856MOL0     H12949  -1.499   7.099   6.094 -2.2724 -1.4065 -1.0624
  856MOL0     H12950  -1.757   7.187   5.961  0.2655  1.2542  2.3431
  856MOL0     H12951  -1.657   7.037   5.934  2.5939 -0.9046  1.9482
  856MOL0     H12952  -1.797   7.127   6.182  1.5439 -1.4854  1.2849
  856MOL0     H12953  -1.713   6.980   6.169 -1.7443  0.0718  0.4492
  856MOL0     H12954  -2.113   6.854   5.972 -2.4692 -0.9378 -0.2545
  856MOL0     H12955  -2.337   6.955   5.929  0.8497  0.8840 -0.0492
  856MOL0     H12956  -2.618   7.342   6.113  0.8418 -0.8285  0.0181
  856MOL0     H12957  -2.849   7.401   6.117  3.5763  2.0858 -1.9362
  856MOL0     H12958  -3.102   7.429   6.102 -4.2918  1.4166  3.7436
  856MOL0     H12959  -3.067   7.294   6.199 -0.1278 -2.3703 -1.1893
  856MOL0     H12960  -3.296   7.319   5.999 -0.3647 -2.8506 -0.3029
  856MOL0     H12961  -3.302   7.382   6.170  1.6201  1.8247 -1.7605
  856MOL0     H12962  -3.274   7.179   6.271 -0.7243  1.7671 -0.2367
  856MOL0     H12963  -3.249   7.099   6.105  1.6481 -0.1315  0.0760
  856MOL0     H12964  -3.486   7.133   6.060 -0.8193 -0.4436  0.5285
  856MOL0     H12965  -3.464   7.042   6.198 -0.7084 -1.3564 -2.0001
  856MOL0     H12966  -3.596   7.296   6.149 -0.9084  0.0379  0.5750
  856MOL0     H12967  -3.498   7.295   6.299  1.7146 -1.6330 -0.1089
  856MOL0     H12968  -3.633   7.091   6.374 -0.2378 -0.3270  1.3879
  856MOL0     H12969  -3.730   7.114   6.224  1.7075 -0.6047  1.3809
  856MOL0     H12970  -3.756   7.372   6.323  0.4923  0.9702  0.8693
  856MOL0     H12971  -3.879   7.250   6.342  0.1999  2.7312 -3.7104
  856MOL0     H12972  -3.832   7.353   6.543 -0.9549 -1.8146 -0.3333
  856MOL0     H12973  -3.652   7.314   6.522  1.6966 -0.9229 -1.6785
  856MOL0     H12974  -2.923   7.074   5.831 -0.0281  1.3272 -1.4253
  856MOL0     H12975  -2.705   7.020   5.831  1.1208 -1.0368  1.7761
  856MOL0     H12976  -2.183   7.338   6.041  0.5045 -0.9310 -0.0076
  856MOL0     H12977  -1.958   7.237   6.078 -1.0196  1.4168 -0.5503
  856MOL0     H12978  -0.187   7.675   5.624  0.5239 -0.5633  1.8610
  856MOL0     H12979  -0.033   7.816   5.484 -1.7801 -0.1282  0.1683
  856MOL0     H12980   0.120   7.903   4.955  0.8044 -0.8748  0.0294
  856MOL0     H12981   0.294   8.045   4.838  1.9117 -0.7636  0.6614
  856MOL0     H12982   0.474   8.243   4.876 -1.0714 -1.8298  0.4533
  856MOL0     H12983   0.502   8.107   4.766  0.0161  0.5364 -0.8126
  856MOL0     H12984   0.736   8.257   4.921  0.5054 -0.3609 -0.6285
  856MOL0     H12985   0.743   8.132   4.780 -2.2334 -0.1664 -1.5083
  856MOL0     H12986   0.628   8.404   4.744  2.3054  0.1177  3.3829
  856MOL0     H12987   0.669   8.283   4.618 -0.1090 -0.8637 -0.3242
  856MOL0     H12988   0.861   8.439   4.787  0.5611 -2.8450  0.6808
  856MOL0     H12989   0.913   8.300   4.702  1.5704  1.1577 -0.7670
  856MOL0     H12990   0.848   8.574   4.381 -1.7432  1.2501  0.5180
  856MOL0     H12991   0.571   7.946   5.152 -0.5885 -2.1315  0.0863
  856MOL0     H12992   0.386   7.803   5.270  2.5791  2.8712  1.2700
  857MOL0     O12993  10.107  10.821   0.971  0.4799  0.0178 -0.3554
  857MOL0     C12994  10.132  10.747   0.875  0.6121  0.2429  0.3636
  857MOL0     O12995  10.051  10.652   0.827  0.0758 -0.2530 -0.1635
  857MOL0     C12996   9.908  10.661   0.835 -1.3554  0.8182  0.3181
  857MOL0     C12997   9.833  10.775   0.820 -0.0692 -0.6197 -0.5494
  857MOL0     C12998   9.694  10.780   0.850 -0.3134 -0.4989  0.2643
  857MOL0     C12999   9.620  10.667   0.883  0.2002 -0.7370 -0.5329
  857MOL0     O13000   9.489  10.658   0.927  0.6569  0.0047 -0.2804
  857MOL0     C13001   9.399  10.730   0.840  0.4708 -0.0926 -0.0307
  857MOL0     C13002   9.254  10.713   0.889 -0.2337 -0.0848 -0.9899
  857MOL0     C13003   9.161  10.736   0.771 -0.5420  0.8678 -0.0875
  857MOL0     C13004   9.018  10.694   0.808 -0.1550 -0.1077  0.5832
  857MOL0     C13005   8.913  10.701   0.700  1.4849 -0.2451  0.2595
  857MOL0     C13006   8.782  10.665   0.762 -0.0646 -0.0747 -0.5671
  857MOL0     C13007   8.662  10.680   0.665  0.1924 -0.3865 -0.4865
  857MOL0     C13008   8.527  10.692   0.755 -0.8097  0.3974  0.2483
  857MOL0     N13009   8.415  10.696   0.667  0.5548 -0.0889  0.0928
  857MOL0     C13010   8.328  10.584   0.638 -0.5311 -0.3948  0.6933
  857MOL0     C13011   8.225  10.643   0.563  0.7123 -0.2758 -0.9555
  857MOL0     C13012   8.112  10.574   0.482  0.8438 -1.0618 -0.5349
  857MOL0     C13013   8.141  10.427   0.458  0.2551 -0.3053  0.3079
  857MOL0     C13014   8.265  10.401   0.370  0.9083  0.7141  0.0020
  857MOL0     C13015   8.277  10.246   0.357 -0.4835 -0.0198 -0.3677
  857MOL0     O13016   8.404  10.231   0.285  0.4543  1.0364  0.2400
  857MOL0     C13017   8.524  10.240   0.343  0.1940 -0.6134 -0.4358
  857MOL0     C13018   8.632  10.254   0.252  0.2563 -0.2721 -0.6271
  857MOL0     C13019   8.764  10.269   0.306  0.0245  0.1143  0.2146
  857MOL0     C13020   8.795  10.259   0.442 -0.3966  0.2805 -0.4856
  857MOL0     C13021   8.937  10.243   0.493 -0.3052  0.4298 -0.0018
  857MOL0     O13022   8.953  10.236   0.628  0.4874  0.7567  0.0464
  857MOL0     C13023   9.076  10.205   0.679 -0.4884  0.6602 -0.6907
  857MOL0     C13024   9.129  10.076   0.680  0.6756  0.2092  0.7703
  857MOL0     C13025   9.258  10.046   0.728 -0.1787 -0.6597 -0.3368
  857MOL0     C13026   9.332  10.146   0.795  0.4575 -0.3663 -0.0999
  857MOL0     O13027   9.451  10.125   0.864  0.0582 -0.0270  0.0373
  857MOL0     C13028   9.457  10.008   0.939  0.4745 -0.1457 -0.1975
  857MOL0     C13029   9.536  10.037   1.064 -0.4190  0.8657  0.4390
  857MOL0     C13030   9.689  10.054   1.034  0.7434 -0.1879  0.1549
  857MOL0     C13031   9.747  10.123   1.157 -0.5927  0.2094  0.3019
  857MOL0     C13032   9.884  10.177   1.131 -0.0618 -0.0097  0.5377
  857MOL0     C13033   9.989  10.060   1.128  0.3010 -0.7568  0.5267
  857MOL0     C13034  10.137  10.113   1.128  0.1736 -0.2644 -0.6519
  857MOL0     C13035  10.198  10.123   1.273 -0.1112  0.8147  0.2542
  857MOL0    Cl13036  10.372  10.153   1.278 -0.1237 -0.4172  0.0053
  857MOL0     C13037   9.279  10.277   0.795 -0.5281 -0.0828 -1.0143
  857MOL0     C13038   9.154  10.308   0.734 -0.1847  0.0234 -1.2998
  857MOL0     O13039   9.034  10.246   0.410 -0.8839 -0.3191 -0.0424
  857MOL0     C13040   8.689  10.236   0.526  1.4618 -0.5057  0.2260
  857MOL0     C13041   8.552  10.234   0.482  0.7641  0.7375  0.3165
  857MOL0     N13042   8.240  10.780   0.571  0.4192 -0.6432  0.7597
  857MOL0     N13043   8.351  10.814   0.625 -0.2079  0.9769  0.2822
  857MOL0     C13044   9.695  10.553   0.886 -0.0957  0.7043 -0.2874
  857MOL0     C13045   9.841  10.543   0.861 -0.1776 -0.2840 -0.1195
  857MOL0     C13046  10.259  10.762   0.822  0.3118  1.0008 -0.5617
  857MOL0     C13047  10.308  10.897   0.826  1.7411  0.2945 -0.2097
  857MOL0     C13048  10.437  10.911   0.758  0.0171 -0.0983  0.0675
  857MOL0     C13049  10.510  10.802   0.706 -0.1757 -0.6976  0.0047
  857MOL0     O13050  10.634  10.827   0.660 -0.4053  0.0302  0.0157
  857MOL0     C13051  10.732  10.764   0.734 -0.1185  0.7148 -0.3942
  857MOL0     C13052  10.865  10.834   0.725 -0.1485 -1.1883 -0.1845
  857MOL0     C13053  10.899  10.868   0.580 -0.0730 -0.2676  0.8712
  857MOL0     C13054  11.027  10.947   0.570 -0.7397  0.2038  0.1613
  857MOL0     C13055  11.146  10.855   0.571  0.3551  0.0613 -0.2904
  857MOL0     C13056  11.237  10.784   0.607 -0.3891  0.7657  1.1865
  857MOL0     C13057  10.444  10.681   0.692 -0.3052 -0.6132  0.2421
  857MOL0     C13058  10.318  10.656   0.760  0.6489  0.5832 -0.7214
  857MOL0     H13059   9.881  10.869   0.797  1.0377 -1.1766 -0.5693
  857MOL0     H13060   9.639  10.873   0.843 -1.1976 -0.8814  1.6377
  857MOL0     H13061   9.409  10.688   0.739  0.3128  1.2072 -0.6056
  857MOL0     H13062   9.427  10.836   0.831  5.3549 -0.9462  1.8246
  857MOL0     H13063   9.241  10.786   0.970  1.3154  0.4751 -1.1958
  857MOL0     H13064   9.251  10.612   0.932 -0.1276 -0.5378 -2.0216
  857MOL0     H13065   9.184  10.661   0.695  1.7711  0.8558  0.5266
  857MOL0     H13066   9.175  10.836   0.728  0.2752  0.1266 -1.6238
  857MOL0     H13067   9.021  10.589   0.839 -1.6074 -0.2919  0.1659
  857MOL0     H13068   8.989  10.753   0.896  0.1331 -0.9660  1.2679
  857MOL0     H13069   8.945  10.640   0.615  1.1235  0.8101 -0.6522
  857MOL0     H13070   8.908  10.801   0.658 -0.8625 -0.6524 -0.6333
  857MOL0     H13071   8.766  10.720   0.856  0.3936 -1.3807  0.2976
  857MOL0     H13072   8.789  10.560   0.792 -1.5126 -0.0505 -0.0646
  857MOL0     H13073   8.664  10.763   0.594  0.5579  0.9515  1.0134
  857MOL0     H13074   8.650  10.594   0.598  0.2374 -0.1360 -0.8178
  857MOL0     H13075   8.539  10.780   0.819 -3.6160 -0.5520  2.2380
  857MOL0     H13076   8.514  10.606   0.822  1.2761 -1.8471 -1.9801
  857MOL0     H13077   8.347  10.480   0.662  3.3745  0.5697  2.4693
  857MOL0     H13078   8.112  10.627   0.387 -0.2431  2.6418  1.3337
  857MOL0     H13079   8.011  10.594   0.520  0.3642 -0.3709 -2.0966
  857MOL0     H13080   8.054  10.379   0.411  2.3697 -5.5084  1.0362
  857MOL0     H13081   8.148  10.374   0.553 -0.1364  0.0656  0.5505
  857MOL0     H13082   8.237  10.439   0.271  0.2664 -2.8292 -1.3476
  857MOL0     H13083   8.357  10.441   0.413 -0.3536  2.5736  1.1068
  857MOL0     H13084   8.194  10.214   0.293  1.1946  1.0542 -3.2658
  857MOL0     H13085   8.271  10.196   0.455  0.1324 -1.5875 -1.0938
  857MOL0     H13086   8.628  10.256   0.143 -0.1609 -0.2945 -0.6133
  857MOL0     H13087   8.841  10.266   0.229  1.3755  2.7353  1.3370
  857MOL0     H13088   9.065  10.002   0.632 -1.0288  1.6867  0.6315
  857MOL0     H13089   9.306   9.948   0.728  2.2689  0.4424  1.0477
  857MOL0     H13090   9.508   9.929   0.883  2.9171 -2.4467  4.6433
  857MOL0     H13091   9.356   9.975   0.965 -0.1265  0.3595 -1.8148
  857MOL0     H13092   9.520   9.950   1.129 -0.1177 -0.6767 -1.4469
  857MOL0     H13093   9.497  10.119   1.124 -2.1880  0.8547 -0.6369
  857MOL0     H13094   9.704  10.116   0.945 -0.0133 -0.9028 -0.4881
  857MOL0     H13095   9.729   9.953   1.019  0.6077 -0.7288  2.8272
  857MOL0     H13096   9.686  10.213   1.173 -1.2183 -0.2250  0.4111
  857MOL0     H13097   9.749  10.071   1.253 -0.1097  1.3843  0.9532
  857MOL0     H13098   9.914  10.249   1.208 -0.1042 -0.8591  1.3620
  857MOL0     H13099   9.874  10.231   1.037  1.1172  1.0078  0.9572
  857MOL0     H13100   9.969  10.005   1.036 -0.6963  1.8602 -0.9108
  857MOL0     H13101   9.981   9.998   1.218  0.3327  0.9007  1.7209
  857MOL0     H13102  10.189  10.037   1.068 -1.2176  0.4203 -2.7944
  857MOL0     H13103  10.148  10.209   1.078  1.2222  0.1714  0.3538
  857MOL0     H13104  10.179  10.033   1.332  1.9799 -0.4280 -0.8316
  857MOL0     H13105  10.158  10.203   1.335 -2.1329  0.6087 -0.7102
  857MOL0     H13106   9.336  10.360   0.837  0.4185 -0.0309 -2.3494
  857MOL0     H13107   9.117  10.410   0.727  2.4940  1.1101 -1.1642
  857MOL0     H13108   8.706  10.232   0.633 -1.0206 -0.6960  0.6664
  857MOL0     H13109   8.475  10.213   0.556  2.2466 -2.6701  1.0935
  857MOL0     H13110   9.646  10.462   0.918  1.1547  0.0601 -0.1344
  857MOL0     H13111   9.890  10.446   0.862 -2.9941 -1.9172 -2.8021
  857MOL0     H13112  10.251  10.975   0.876  0.1234  0.7294 -2.5698
  857MOL0     H13113  10.465  11.016   0.757 -2.3879  0.5989 -0.9753
  857MOL0     H13114  10.742  10.662   0.695  0.2333 -0.1074  1.7378
  857MOL0     H13115  10.706  10.745   0.838  1.4174 -4.6831 -0.6788
  857MOL0     H13116  10.862  10.928   0.782 -3.1965 -1.5543  0.4185
  857MOL0     H13117  10.947  10.774   0.764  0.4819  0.8006  1.7541
  857MOL0     H13118  10.814  10.925   0.541 -0.2007  0.9082  2.7544
  857MOL0     H13119  10.916  10.781   0.516  2.3801 -0.3318  1.5117
  857MOL0     H13120  11.034  11.002   0.476 -3.9105  2.9156  1.2703
  857MOL0     H13121  11.034  11.022   0.650 -0.4666  0.1956  0.1447
  857MOL0     H13122  11.324  10.723   0.623 -0.1691  0.6096 -0.4818
  857MOL0     H13123  10.499  10.600   0.645 -0.9080 -0.5031 -0.6840
  857MOL0     H13124  10.279  10.554   0.762  1.0568  0.4233  1.7393
  858MOL0     O13125   4.915   4.591   6.784 -0.0993 -0.4027  0.1556
  858MOL0     C13126   4.872   4.481   6.813  0.0220 -0.5185 -0.3275
  858MOL0     O13127   4.741   4.444   6.825  0.5578  0.5000 -0.2101
  858MOL0     C13128   4.636   4.529   6.803 -0.3819 -0.3402 -0.3969
  858MOL0     C13129   4.650   4.658   6.848 -0.1484 -0.8014  1.5415
  858MOL0     C13130   4.537   4.732   6.857 -0.1401  0.4138 -0.2243
  858MOL0     C13131   4.410   4.694   6.809 -0.3018 -0.4628 -0.2423
  858MOL0     O13132   4.310   4.790   6.834 -0.5956 -0.3889 -0.2510
  858MOL0     C13133   4.177   4.740   6.817  0.1472 -0.2172  0.2689
  858MOL0     C13134   4.081   4.844   6.875 -0.5781 -0.2837 -0.4778
  858MOL0     C13135   3.933   4.824   6.830  0.7848 -0.0984  0.0278
  858MOL0     C13136   3.864   4.712   6.906 -0.6065 -0.0354 -0.1547
  858MOL0     C13137   3.733   4.665   6.841  0.8212 -0.6311  0.5080
  858MOL0     C13138   3.622   4.773   6.823 -0.1519 -0.3128 -0.6850
  858MOL0     C13139   3.481   4.720   6.795  0.4562 -1.0213  0.1642
  858MOL0     C13140   3.409   4.664   6.918  0.0293 -0.1740  0.0639
  858MOL0     N13141   3.287   4.581   6.901 -0.4010 -0.1844  0.0925
  858MOL0     C13142   3.178   4.608   6.815  1.1581 -0.7110  0.0983
  858MOL0     C13143   3.104   4.493   6.791  0.5660 -0.6159 -0.2346
  858MOL0     C13144   2.993   4.483   6.691 -1.4773 -0.0552  0.2132
  858MOL0     C13145   2.889   4.603   6.700 -0.0300 -0.4400  0.7300
  858MOL0     C13146   2.801   4.625   6.571 -0.2571  0.3996  0.6224
  858MOL0     C13147   2.714   4.501   6.557 -0.2637 -0.2163 -0.0634
  858MOL0     O13148   2.665   4.473   6.429  0.0886  0.2532 -0.2654
  858MOL0     C13149   2.534   4.500   6.394 -0.4385 -0.3170  0.6578
  858MOL0     C13150   2.506   4.583   6.285  0.1592  0.0233 -0.1686
  858MOL0     C13151   2.371   4.615   6.243 -0.2722 -0.0340 -0.3381
  858MOL0     C13152   2.269   4.554   6.322  0.0861  0.1534  0.6773
  858MOL0     C13153   2.129   4.577   6.271  0.1679  0.6495  0.2826
  858MOL0     O13154   2.107   4.662   6.167 -0.4673  0.2406 -0.2478
  858MOL0     C13155   1.981   4.665   6.118 -0.6947  0.5215  0.3967
  858MOL0     C13156   1.943   4.574   6.022  0.7044  0.8667  0.2893
  858MOL0     C13157   1.807   4.569   5.987  0.0589 -0.5926  0.4505
  858MOL0     C13158   1.711   4.668   6.030 -0.4318 -0.3285 -0.4676
  858MOL0     O13159   1.576   4.680   6.001 -0.5038 -0.2944  0.2902
  858MOL0     C13160   1.518   4.594   5.894  0.5811 -0.4463 -0.6322
  858MOL0     C13161   1.546   4.631   5.752 -0.4897 -0.0786 -0.6894
  858MOL0     C13162   1.457   4.543   5.657  0.1714  0.4691 -0.7863
  858MOL0     C13163   1.480   4.576   5.514 -0.4118  0.3629 -0.8516
  858MOL0     C13164   1.426   4.708   5.469 -0.6627  0.4734 -0.5753
  858MOL0     C13165   1.277   4.689   5.451  0.3893 -1.5174 -0.1717
  858MOL0     C13166   1.215   4.834   5.452 -0.4740  0.7330  0.6079
  858MOL0     C13167   1.056   4.834   5.426  0.0895 -0.5600  1.0457
  858MOL0    Cl13168   0.988   4.767   5.579 -0.4387 -0.2949 -0.0627
  858MOL0     C13169   1.759   4.755   6.129 -0.7153 -0.2224 -0.2710
  858MOL0     C13170   1.890   4.753   6.172 -0.3934  0.4566 -0.0865
  858MOL0     O13171   2.040   4.528   6.335  0.0147 -0.1595 -0.0971
  858MOL0     C13172   2.299   4.462   6.420 -0.0933  0.0415 -0.8233
  858MOL0     C13173   2.423   4.439   6.459 -0.9609 -0.0682 -0.1708
  858MOL0     N13174   3.173   4.399   6.873 -0.2324  0.8728 -0.0886
  858MOL0     N13175   3.272   4.454   6.928 -1.1419 -0.0166  1.0070
  858MOL0     C13176   4.402   4.572   6.747 -0.0576 -0.2726 -0.2968
  858MOL0     C13177   4.509   4.483   6.741 -0.8038  0.8526  0.0772
  858MOL0     C13178   4.962   4.370   6.845 -0.8366 -0.5936  0.8494
  858MOL0     C13179   5.098   4.390   6.884 -0.4393  0.4674  0.0576
  858MOL0     C13180   5.196   4.284   6.902  0.3858 -0.3415  0.3912
  858MOL0     C13181   5.149   4.155   6.885 -0.4093  0.0493  0.3677
  858MOL0     O13182   5.250   4.053   6.896 -0.1646  0.3003 -0.2358
  858MOL0     C13183   5.228   3.915   6.866 -0.0903 -0.3005  0.2607
  858MOL0     C13184   5.345   3.830   6.912 -0.3198  0.5339  1.3168
  858MOL0     C13185   5.463   3.869   6.820 -1.1575 -0.5102  0.1892
  858MOL0     C13186   5.586   3.825   6.900 -0.0414  0.1658  0.6896
  858MOL0     C13187   5.716   3.859   6.845  0.2919 -1.1466 -0.5641
  858MOL0     C13188   5.833   3.880   6.805 -0.3700 -0.7119  0.2576
  858MOL0     C13189   5.015   4.131   6.857 -0.3488 -0.3775 -0.5591
  858MOL0     C13190   4.918   4.241   6.841 -0.3192 -0.4832 -0.3671
  858MOL0     H13191   4.743   4.701   6.885  0.4964 -1.7682  1.1014
  858MOL0     H13192   4.554   4.830   6.900  3.0640 -0.2248  0.2538
  858MOL0     H13193   4.161   4.646   6.871  0.1302 -0.5469 -0.3006
  858MOL0     H13194   4.156   4.727   6.710 -1.0664  1.7340  0.2164
  858MOL0     H13195   4.109   4.938   6.827  1.3235 -1.0911 -1.0218
  858MOL0     H13196   4.103   4.863   6.981 -0.3918  1.6012 -0.8185
  858MOL0     H13197   3.928   4.797   6.724 -1.0016 -1.5315  0.4362
  858MOL0     H13198   3.884   4.921   6.836 -2.0329 -1.2689 -1.7951
  858MOL0     H13199   3.935   4.631   6.928  0.3335  0.9808  0.6839
  858MOL0     H13200   3.822   4.745   7.001 -1.5754  3.1228 -1.5567
  858MOL0     H13201   3.691   4.573   6.884  0.0762  0.3494  1.9593
  858MOL0     H13202   3.763   4.652   6.737  0.9901  1.1593  0.3052
  858MOL0     H13203   3.652   4.849   6.750 -0.0015  1.2666  0.9468
  858MOL0     H13204   3.622   4.843   6.907  4.9920  1.1349 -1.5820
  858MOL0     H13205   3.424   4.806   6.757  0.7882 -0.6716  0.4469
  858MOL0     H13206   3.484   4.638   6.723  0.9055  0.4536 -1.5788
  858MOL0     H13207   3.384   4.742   6.991  2.9884 -0.4189  1.4751
  858MOL0     H13208   3.480   4.598   6.968 -0.3676 -1.2561 -0.7826
  858MOL0     H13209   3.167   4.699   6.756  5.0310 -0.0021  0.1909
  858MOL0     H13210   2.947   4.385   6.705 -0.6407 -1.1979 -3.9503
  858MOL0     H13211   3.033   4.473   6.590 -0.7936  1.7094  0.2774
  858MOL0     H13212   2.943   4.696   6.719  1.2546 -1.2998  1.4216
  858MOL0     H13213   2.834   4.591   6.793  1.9757 -0.7994  1.9309
  858MOL0     H13214   2.741   4.716   6.577 -1.1475  0.2455 -3.3033
  858MOL0     H13215   2.862   4.647   6.483 -1.6720  0.4474 -0.3846
  858MOL0     H13216   2.621   4.502   6.615 -0.3284  0.2322 -0.1680
  858MOL0     H13217   2.775   4.416   6.589 -0.3814 -0.4105 -0.3512
  858MOL0     H13218   2.584   4.636   6.231 -0.0342 -0.4108 -0.8787
  858MOL0     H13219   2.353   4.690   6.166 -0.5554  0.8390  0.5562
  858MOL0     H13220   2.014   4.499   5.990 -3.2256 -3.0474 -0.2757
  858MOL0     H13221   1.791   4.485   5.919  0.2348  0.0389 -0.3859
  858MOL0     H13222   1.409   4.596   5.907  0.5694  0.6543 -0.8014
  858MOL0     H13223   1.552   4.492   5.912  2.0445  0.1332  0.0638
  858MOL0     H13224   1.653   4.615   5.731 -0.0696  1.2207  0.2971
  858MOL0     H13225   1.517   4.737   5.757  2.3949  0.7912  3.9077
  858MOL0     H13226   1.351   4.558   5.681  0.7925  1.9892  1.1954
  858MOL0     H13227   1.460   4.434   5.653  1.2141  0.5132 -2.9594
  858MOL0     H13228   1.589   4.586   5.512 -0.4736  1.1069 -0.7263
  858MOL0     H13229   1.448   4.496   5.447  0.8143 -1.0511  0.1726
  858MOL0     H13230   1.464   4.737   5.370 -2.2570 -2.1637 -2.0846
  858MOL0     H13231   1.457   4.791   5.532 -1.3085  0.8877 -0.7979
  858MOL0     H13232   1.239   4.626   5.533  2.0437 -0.2800  1.6316
  858MOL0     H13233   1.268   4.651   5.349 -1.1739  4.6437 -2.7711
  858MOL0     H13234   1.225   4.878   5.552 -1.5147 -1.5901  1.8127
  858MOL0     H13235   1.262   4.896   5.375 -2.1056 -1.1652 -2.0853
  858MOL0     H13236   1.029   4.772   5.340  0.6042  0.8707 -0.1862
  858MOL0     H13237   1.015   4.935   5.418 -0.9211 -1.0504 -0.4580
  858MOL0     H13238   1.697   4.834   6.170 -0.6798  0.3800 -1.3229
  858MOL0     H13239   1.916   4.832   6.242  0.7056 -0.1004  0.1539
  858MOL0     H13240   2.214   4.415   6.469 -0.4154  0.8187 -0.6172
  858MOL0     H13241   2.445   4.379   6.546  0.3212 -0.7349 -0.9329
  858MOL0     H13242   4.316   4.534   6.693  0.4361  0.1128 -1.3627
  858MOL0     H13243   4.483   4.383   6.709 -1.9616  1.0317  0.4107
  858MOL0     H13244   5.130   4.488   6.917  1.2813  0.0021 -0.1095
  858MOL0     H13245   5.303   4.300   6.908  0.7025 -2.1214  0.0444
  858MOL0     H13246   5.213   3.898   6.759  2.4178  1.6745 -0.5198
  858MOL0     H13247   5.141   3.867   6.911 -1.4374  1.1420 -0.7142
  858MOL0     H13248   5.373   3.851   7.015 -1.3962  4.6296  0.9640
  858MOL0     H13249   5.317   3.725   6.901  0.7046  0.3272  0.4959
  858MOL0     H13250   5.466   3.978   6.814 -0.5916 -0.4331  1.4874
  858MOL0     H13251   5.469   3.811   6.728 -0.4752 -0.5890  0.2763
  858MOL0     H13252   5.581   3.877   6.996 -2.0537  1.0037  0.1662
  858MOL0     H13253   5.597   3.720   6.930 -0.5629  0.1170  0.7170
  858MOL0     H13254   5.926   3.914   6.765  0.0412 -1.8915  0.1678
  858MOL0     H13255   4.987   4.028   6.834  1.4643 -0.8624 -0.7131
  858MOL0     H13256   4.819   4.199   6.827  0.3429 -3.9450  3.5582
  859MOL0     O13257   6.838   0.405   1.464 -0.6101  0.3418  0.5392
  859MOL0     C13258   6.844   0.295   1.407 -0.1398 -0.0483  0.4187
  859MOL0     O13259   6.945   0.205   1.406 -0.1517 -1.1246  0.3851
  859MOL0     C13260   7.076   0.241   1.453 -0.0235  0.4011 -0.3249
  859MOL0     C13261   7.189   0.200   1.379 -0.1922 -1.3786 -0.3631
  859MOL0     C13262   7.320   0.223   1.414 -0.9801  0.8037  0.0580
  859MOL0     C13263   7.341   0.288   1.535  0.6252  0.6798  0.1491
  859MOL0     O13264   7.461   0.327   1.583  0.2339 -0.0823  0.0887
  859MOL0     C13265   7.576   0.311   1.494 -0.3752  0.3233  0.6518
  859MOL0     C13266   7.692   0.399   1.534  0.2991  0.2368 -0.0801
  859MOL0     C13267   7.677   0.547   1.529  0.2345 -0.5867  0.2067
  859MOL0     C13268   7.666   0.591   1.677 -0.1816 -0.2221  0.4165
  859MOL0     C13269   7.625   0.739   1.691  0.3364  0.0046  0.3483
  859MOL0     C13270   7.724   0.854   1.655  0.2133 -0.9393  0.3688
  859MOL0     C13271   7.648   0.985   1.656 -0.9826  0.8127 -0.3500
  859MOL0     C13272   7.738   1.111   1.657 -0.3277 -0.0870  0.0836
  859MOL0     N13273   7.665   1.233   1.668  0.0458  0.2009  0.1584
  859MOL0     C13274   7.571   1.269   1.572 -0.9756 -0.9922 -0.2908
  859MOL0     C13275   7.515   1.376   1.642 -0.8467  0.1887 -0.2186
  859MOL0     C13276   7.414   1.479   1.599 -0.3481 -0.8994  0.0038
  859MOL0     C13277   7.284   1.463   1.673  0.5840  0.5510  0.4812
  859MOL0     C13278   7.190   1.588   1.678  0.0522 -0.0157  0.1658
  859MOL0     C13279   7.118   1.605   1.544 -0.2565 -0.8494 -0.0893
  859MOL0     O13280   7.034   1.727   1.546 -0.7339 -0.3259 -0.0176
  859MOL0     C13281   6.938   1.712   1.459 -0.2433  0.1843 -0.0433
  859MOL0     C13282   6.944   1.726   1.320  0.1151 -0.6640 -0.5469
  859MOL0     C13283   6.830   1.710   1.245 -0.5536 -0.8000 -0.5405
  859MOL0     C13284   6.709   1.679   1.301 -0.1709 -0.5963 -0.3541
  859MOL0     C13285   6.592   1.678   1.219 -0.1438  0.6111  0.3975
  859MOL0     O13286   6.486   1.714   1.277 -0.3990  0.1078  0.6141
  859MOL0     C13287   6.357   1.690   1.220 -0.0551 -0.3124  1.2560
  859MOL0     C13288   6.256   1.638   1.307  0.9191  0.1486  0.0782
  859MOL0     C13289   6.121   1.632   1.259  0.9010 -0.1810 -0.0108
  859MOL0     C13290   6.087   1.677   1.129  0.3648 -0.1641 -0.4847
  859MOL0     O13291   5.958   1.677   1.089 -0.3688 -0.3517  0.2275
  859MOL0     C13292   5.933   1.681   0.948  0.0592 -0.2166 -0.0205
  859MOL0     C13293   5.784   1.621   0.925 -0.1982  0.1435  1.1339
  859MOL0     C13294   5.744   1.618   0.786 -0.6945 -0.3426  0.2784
  859MOL0     C13295   5.615   1.549   0.758  0.7521 -0.0072 -0.2695
  859MOL0     C13296   5.607   1.506   0.608  0.0178  0.3825 -1.2042
  859MOL0     C13297   5.498   1.399   0.583 -0.4453  0.3839  0.2786
  859MOL0     C13298   5.355   1.438   0.622  0.6714 -0.4454 -0.8376
  859MOL0     C13299   5.314   1.570   0.555  0.6404 -0.3754  0.0423
  859MOL0    Cl13300   5.133   1.593   0.558  0.5699  0.1489  0.7696
  859MOL0     C13301   6.188   1.726   1.046 -0.5857  0.1361 -0.1689
  859MOL0     C13302   6.325   1.731   1.091 -0.3380  0.1652  0.3412
  859MOL0     O13303   6.596   1.645   1.101 -0.4840  0.1111 -0.5673
  859MOL0     C13304   6.709   1.662   1.438  0.2013 -0.2578  1.0224
  859MOL0     C13305   6.822   1.678   1.517  0.7234  0.0004 -0.4652
  859MOL0     N13306   7.592   1.401   1.759 -0.0197  0.7061 -0.0562
  859MOL0     N13307   7.678   1.312   1.776  0.4122 -0.5689  0.2307
  859MOL0     C13308   7.232   0.332   1.614  0.2245 -0.6584  1.1413
  859MOL0     C13309   7.100   0.306   1.580  0.3423 -1.6665  0.5614
  859MOL0     C13310   6.720   0.253   1.326 -0.6738  0.5522  0.4263
  859MOL0     C13311   6.717   0.134   1.254  0.0974  0.1202 -0.1772
  859MOL0     C13312   6.600   0.088   1.188  0.6552  0.0437 -0.2866
  859MOL0     C13313   6.487   0.171   1.190  0.9878  0.3744  0.2156
  859MOL0     O13314   6.372   0.115   1.141 -0.0754 -0.7038 -0.7632
  859MOL0     C13315   6.276   0.195   1.062 -0.3694  0.1756 -0.5757
  859MOL0     C13316   6.342   0.204   0.924  0.4132  0.5203 -0.6054
  859MOL0     C13317   6.252   0.271   0.819 -0.0026 -0.0458  0.2421
  859MOL0     C13318   6.319   0.235   0.692  0.2694 -0.5243  0.6669
  859MOL0     C13319   6.257   0.308   0.585  0.2926 -0.4080  0.7058
  859MOL0     C13320   6.194   0.361   0.493 -0.2231 -0.0097 -0.1056
  859MOL0     C13321   6.488   0.290   1.259 -0.3952  0.9228 -0.0491
  859MOL0     C13322   6.608   0.329   1.318 -0.2606 -0.2510 -0.0351
  859MOL0     H13323   7.163   0.152   1.286 -0.5877 -3.1980  0.6358
  859MOL0     H13324   7.398   0.191   1.346 -0.4202  1.5910  0.3073
  859MOL0     H13325   7.547   0.355   1.398 -0.6907  0.6089  0.8764
  859MOL0     H13326   7.618   0.211   1.482  1.2289  0.7674  2.1161
  859MOL0     H13327   7.773   0.362   1.470 -0.9939 -3.2226  0.1118
  859MOL0     H13328   7.732   0.372   1.632  0.9487  2.1217  0.2217
  859MOL0     H13329   7.583   0.572   1.479 -0.9884 -0.8370  2.2770
  859MOL0     H13330   7.769   0.598   1.498  1.4595 -0.7510  3.1903
  859MOL0     H13331   7.597   0.530   1.735 -1.4340  1.3942  0.7234
  859MOL0     H13332   7.758   0.589   1.737  1.4556  2.1101 -1.7824
  859MOL0     H13333   7.597   0.750   1.796 -2.3184 -1.1761 -0.1713
  859MOL0     H13334   7.530   0.751   1.639  1.6079  1.6292 -1.7922
  859MOL0     H13335   7.761   0.837   1.554  0.5684 -3.3408  0.8376
  859MOL0     H13336   7.802   0.848   1.731 -1.5400 -1.8045  2.1985
  859MOL0     H13337   7.588   0.971   1.566  0.6547  4.1090 -2.1669
  859MOL0     H13338   7.582   1.000   1.741 -0.1181  1.9735  0.1483
  859MOL0     H13339   7.795   1.124   1.564 -0.3657 -1.3199 -0.1249
  859MOL0     H13340   7.804   1.107   1.744 -2.3337 -1.1626  1.6210
  859MOL0     H13341   7.562   1.242   1.467 -0.5805  1.5595 -1.0527
  859MOL0     H13342   7.397   1.457   1.493  0.9382 -1.1816 -0.1596
  859MOL0     H13343   7.452   1.581   1.607 -4.1202  0.9428 -2.5651
  859MOL0     H13344   7.307   1.432   1.776 -1.7535  2.6051  1.7241
  859MOL0     H13345   7.234   1.377   1.626  0.6823  0.4961  0.4766
  859MOL0     H13346   7.114   1.566   1.754  0.2445 -1.4593 -0.0332
  859MOL0     H13347   7.243   1.680   1.703 -0.5151 -0.2124  2.3322
  859MOL0     H13348   7.050   1.521   1.527  0.4063 -2.1809  3.1075
  859MOL0     H13349   7.191   1.602   1.463 -1.8373 -1.1436 -1.5588
  859MOL0     H13350   7.041   1.749   1.276  0.2626  1.3448  0.7022
  859MOL0     H13351   6.839   1.717   1.137  0.9158  1.8754 -0.3427
  859MOL0     H13352   6.283   1.595   1.403 -2.2879 -1.5414  0.3526
  859MOL0     H13353   6.042   1.585   1.317  0.1540  0.5936 -0.3624
  859MOL0     H13354   5.998   1.613   0.893  0.8398 -1.8425  2.7388
  859MOL0     H13355   5.943   1.783   0.911  2.8880 -0.1548  0.6563
  859MOL0     H13356   5.708   1.671   0.987  0.3893  0.5446  1.5355
  859MOL0     H13357   5.800   1.522   0.968  1.3012  0.2768  0.9302
  859MOL0     H13358   5.830   1.561   0.748 -1.9388 -1.9035 -0.2666
  859MOL0     H13359   5.738   1.718   0.742 -3.8142  0.2280  1.7918
  859MOL0     H13360   5.598   1.459   0.817 -0.9899 -0.8622 -1.9855
  859MOL0     H13361   5.545   1.628   0.790 -0.9545 -2.5516  2.8747
  859MOL0     H13362   5.699   1.454   0.578 -0.7626 -2.4205  0.8037
  859MOL0     H13363   5.580   1.588   0.541  0.1880  1.1177 -0.3964
  859MOL0     H13364   5.521   1.303   0.630 -1.6024  0.2849  0.6718
  859MOL0     H13365   5.486   1.383   0.476 -0.7187  1.9508  0.0458
  859MOL0     H13366   5.291   1.354   0.595  1.0684 -1.0901  0.1577
  859MOL0     H13367   5.360   1.466   0.728  0.6230 -0.2861 -0.8770
  859MOL0     H13368   5.335   1.555   0.448 -0.9416  0.3847 -0.3964
  859MOL0     H13369   5.368   1.659   0.588  1.5458 -0.8356 -0.1616
  859MOL0     H13370   6.174   1.756   0.943  2.4006 -1.3429 -1.0983
  859MOL0     H13371   6.407   1.758   1.026 -0.1121  1.0839  0.9991
  859MOL0     H13372   6.612   1.640   1.481  1.3072  0.1075  3.9242
  859MOL0     H13373   6.820   1.671   1.626 -0.6291 -3.0548 -0.5762
  859MOL0     H13374   7.250   0.388   1.705  3.8050 -1.9881  1.4135
  859MOL0     H13375   7.017   0.339   1.641  0.4050  2.3699 -1.1784
  859MOL0     H13376   6.806   0.077   1.231 -0.1097  0.4041 -1.8562
  859MOL0     H13377   6.609  -0.011   1.146 -0.7186 -0.4931  0.6113
  859MOL0     H13378   6.249   0.294   1.101 -3.3487 -0.2372 -1.3843
  859MOL0     H13379   6.185   0.135   1.055 -1.0588  0.3430  3.7361
  859MOL0     H13380   6.441   0.249   0.914  1.4903 -1.0210  1.9200
  859MOL0     H13381   6.366   0.101   0.895 -0.8798 -0.6666  2.0658
  859MOL0     H13382   6.247   0.377   0.843 -2.0207 -0.0545  0.0666
  859MOL0     H13383   6.150   0.231   0.816 -1.2368  2.9088 -2.4971
  859MOL0     H13384   6.427   0.247   0.681  0.3673 -2.2548 -0.6998
  859MOL0     H13385   6.314   0.127   0.675  4.2652 -0.6158 -0.9990
  859MOL0     H13386   6.154   0.414   0.409  2.6832 -0.5854 -1.9908
  859MOL0     H13387   6.400   0.354   1.258  0.3400  2.0718  1.9163
  859MOL0     H13388   6.612   0.429   1.359 -0.5482  0.1178 -0.8777
  860MOL0     O13389   4.997   4.182   7.673  1.0484 -0.2221 -0.1223
  860MOL0     C13390   5.086   4.232   7.605  0.2272  0.0475 -0.7152
  860MOL0     O13391   5.075   4.302   7.495  0.8888  0.0716  0.2069
  860MOL0     C13392   4.951   4.338   7.435 -0.5152  0.1466  0.6493
  860MOL0     C13393   4.819   4.342   7.503  0.0982 -0.3108 -0.1285
  860MOL0     C13394   4.701   4.377   7.444 -0.3342 -0.1196  0.2204
  860MOL0     C13395   4.704   4.423   7.316 -0.4163  0.0408 -0.4473
  860MOL0     O13396   4.581   4.449   7.275  0.0822 -0.2711  0.2389
  860MOL0     C13397   4.565   4.541   7.158  0.3639 -0.0448  0.0814
  860MOL0     C13398   4.445   4.637   7.182 -0.7098  0.3784  0.3881
  860MOL0     C13399   4.314   4.559   7.164  0.5288  0.3776 -0.6768
  860MOL0     C13400   4.194   4.634   7.225  0.0223 -0.5795 -0.3051
  860MOL0     C13401   4.068   4.561   7.185 -0.3813 -0.5619 -0.6020
  860MOL0     C13402   3.946   4.616   7.257 -0.4986 -0.5263 -0.4930
  860MOL0     C13403   3.824   4.530   7.252 -0.2965  0.6654 -0.3573
  860MOL0     C13404   3.808   4.435   7.370 -0.0987 -0.1234 -1.3861
  860MOL0     N13405   3.716   4.333   7.327 -0.9364 -0.1989 -0.1613
  860MOL0     C13406   3.591   4.360   7.279  0.0651  0.7618  0.6506
  860MOL0     C13407   3.539   4.234   7.274  0.0793  0.4302 -0.6514
  860MOL0     C13408   3.397   4.207   7.232  0.6274 -0.2113  0.4224
  860MOL0     C13409   3.314   4.327   7.293 -0.6223 -0.5633  0.7295
  860MOL0     C13410   3.169   4.317   7.323  0.0776  0.5839 -1.1743
  860MOL0     C13411   3.080   4.286   7.207 -0.1101 -0.1583 -0.4147
  860MOL0     O13412   2.950   4.320   7.253 -0.1782 -0.1604  0.0249
  860MOL0     C13413   2.849   4.311   7.167  0.5649 -1.2411  1.0359
  860MOL0     C13414   2.859   4.256   7.036  0.6203  0.0962 -0.7609
  860MOL0     C13415   2.757   4.256   6.947  1.2702  0.1739 -0.4848
  860MOL0     C13416   2.632   4.307   6.993  0.2870 -0.4051  0.8018
  860MOL0     C13417   2.522   4.328   6.906  0.1621  0.5411  0.1092
  860MOL0     O13418   2.408   4.384   6.960  0.2061  0.4222  0.2571
  860MOL0     C13419   2.291   4.393   6.889 -0.1972  0.1301 -0.3747
  860MOL0     C13420   2.222   4.512   6.876  0.1729 -0.9907  0.1341
  860MOL0     C13421   2.088   4.506   6.836  0.0967 -0.0843  0.0917
  860MOL0     C13422   2.022   4.384   6.800  0.6350 -0.0961  0.2092
  860MOL0     O13423   1.898   4.401   6.753  0.0002 -0.0616  0.2420
  860MOL0     C13424   1.898   4.404   6.605  1.0967  0.0684 -0.0795
  860MOL0     C13425   1.755   4.392   6.553 -0.0134 -0.2821  0.2778
  860MOL0     C13426   1.647   4.495   6.592 -0.0664 -0.7458 -0.6238
  860MOL0     C13427   1.650   4.617   6.495  0.0785  0.6990  0.0511
  860MOL0     C13428   1.539   4.726   6.527  0.0649  0.1648 -0.4802
  860MOL0     C13429   1.537   4.845   6.429  0.0678  1.0731 -0.3383
  860MOL0     C13430   1.421   4.944   6.444 -0.3538  0.3980 -0.3396
  860MOL0     C13431   1.301   4.885   6.373 -1.0434  0.6401  1.0735
  860MOL0    Cl13432   1.175   4.809   6.473  0.1524  0.0711  0.1591
  860MOL0     C13433   2.093   4.267   6.814 -0.2476  0.3397  0.9387
  860MOL0     C13434   2.225   4.276   6.859 -0.2382 -0.0067 -0.5823
  860MOL0     O13435   2.531   4.287   6.788  0.3526 -0.0032  0.4203
  860MOL0     C13436   2.618   4.349   7.121 -0.5745 -0.2468 -0.2716
  860MOL0     C13437   2.720   4.351   7.204  0.1683  0.6094 -0.2162
  860MOL0     N13438   3.626   4.138   7.336  0.3313 -0.2034  0.1427
  860MOL0     N13439   3.736   4.202   7.357 -0.0530 -0.4466  0.1551
  860MOL0     C13440   4.823   4.441   7.251 -0.1770  0.1041  0.9740
  860MOL0     C13441   4.945   4.399   7.310  0.4828 -0.1440  0.3389
  860MOL0     C13442   5.230   4.190   7.651  0.7787 -0.6595 -0.2629
  860MOL0     C13443   5.334   4.207   7.564 -0.6877  0.5751  0.4080
  860MOL0     C13444   5.460   4.157   7.601  0.2334 -0.3374  0.8375
  860MOL0     C13445   5.489   4.109   7.724  1.2987 -0.3571  0.0797
  860MOL0     O13446   5.613   4.054   7.745 -0.4454  0.8237  0.0977
  860MOL0     C13447   5.677   4.007   7.871 -0.2783  0.2109  0.7498
  860MOL0     C13448   5.767   4.117   7.925  0.7641 -0.3713  0.2599
  860MOL0     C13449   5.847   4.102   8.055 -0.6263 -0.4771 -0.3327
  860MOL0     C13450   5.777   4.042   8.181  0.4780 -0.4358 -0.0323
  860MOL0     C13451   5.755   3.908   8.157 -0.2825  0.5429 -0.4088
  860MOL0     C13452   5.742   3.791   8.135 -0.0578 -0.4603 -0.5452
  860MOL0     C13453   5.386   4.109   7.820  0.5013 -0.3785 -0.4163
  860MOL0     C13454   5.252   4.140   7.781  0.7576  0.3876  0.6187
  860MOL0     H13455   4.810   4.313   7.607  1.4539 -0.1980  0.0317
  860MOL0     H13456   4.610   4.375   7.503 -0.5939 -0.6614 -0.1928
  860MOL0     H13457   4.544   4.487   7.065 -2.2802 -1.1411  1.2283
  860MOL0     H13458   4.655   4.603   7.149  1.1197 -1.2107 -0.6927
  860MOL0     H13459   4.452   4.724   7.117  1.8134 -2.4722 -3.6743
  860MOL0     H13460   4.451   4.660   7.288 -0.8475 -1.8383  0.9407
  860MOL0     H13461   4.318   4.456   7.199 -0.0824  0.1360 -1.3007
  860MOL0     H13462   4.295   4.545   7.057  0.2539 -1.5073 -0.4035
  860MOL0     H13463   4.210   4.622   7.332  1.9084 -2.9580 -0.7606
  860MOL0     H13464   4.192   4.741   7.201 -2.1957 -0.4248  0.3688
  860MOL0     H13465   4.092   4.463   7.227 -0.7538 -0.3187  0.2005
  860MOL0     H13466   4.058   4.540   7.078  1.3299 -3.5600 -0.2859
  860MOL0     H13467   3.910   4.708   7.210 -3.5590 -1.6288 -0.5802
  860MOL0     H13468   3.964   4.633   7.363  2.3900  2.2964 -1.2920
  860MOL0     H13469   3.729   4.584   7.239 -1.5074 -1.5648 -1.4115
  860MOL0     H13470   3.841   4.471   7.161  0.2599 -0.0089  0.1737
  860MOL0     H13471   3.764   4.505   7.441 -1.1163 -2.8991  0.8665
  860MOL0     H13472   3.899   4.385   7.403 -0.8467 -3.0780 -3.3819
  860MOL0     H13473   3.560   4.456   7.237 -0.7280 -1.3129 -4.2481
  860MOL0     H13474   3.374   4.108   7.273 -0.7191  0.4190  1.2618
  860MOL0     H13475   3.392   4.208   7.123  1.3513 -1.4166  0.3533
  860MOL0     H13476   3.331   4.409   7.223  2.0891  0.7769  2.8011
  860MOL0     H13477   3.362   4.353   7.388  0.4715  1.6118 -0.3518
  860MOL0     H13478   3.154   4.245   7.405 -1.6134  2.4221  0.2281
  860MOL0     H13479   3.135   4.412   7.367  0.4618 -0.1439  0.8294
  860MOL0     H13480   3.092   4.181   7.179  2.1298 -0.7483  2.2587
  860MOL0     H13481   3.112   4.352   7.126  0.6726 -0.0916 -0.0564
  860MOL0     H13482   2.951   4.213   6.997  0.0788 -0.2431 -1.6840
  860MOL0     H13483   2.777   4.228   6.844  0.2401  0.7335 -0.8555
  860MOL0     H13484   2.288   4.592   6.908  1.9002 -3.1102  2.2300
  860MOL0     H13485   2.030   4.598   6.823 -1.0023 -0.8035 -0.2474
  860MOL0     H13486   1.955   4.318   6.571  2.9439  0.3122  2.1116
  860MOL0     H13487   1.942   4.499   6.574  1.6086  0.9587  2.9619
  860MOL0     H13488   1.705   4.300   6.587 -0.7295  0.4438  1.2471
  860MOL0     H13489   1.758   4.390   6.444  1.1676  2.7980  0.1631
  860MOL0     H13490   1.681   4.530   6.691  1.2183  1.3754 -1.7294
  860MOL0     H13491   1.550   4.446   6.584 -0.2691 -0.5705  0.5507
  860MOL0     H13492   1.753   4.651   6.503  2.2829 -4.1971 -2.7337
  860MOL0     H13493   1.632   4.583   6.392 -2.5705  0.8702  0.3893
  860MOL0     H13494   1.563   4.763   6.627  0.4214 -1.9286  0.2611
  860MOL0     H13495   1.446   4.668   6.534 -0.4601  1.1942  1.9042
  860MOL0     H13496   1.537   4.804   6.328  0.6323  1.2152 -0.3954
  860MOL0     H13497   1.629   4.900   6.446 -0.7726  2.1231  1.0685
  860MOL0     H13498   1.393   4.933   6.549  1.1775  1.4273  0.2151
  860MOL0     H13499   1.451   5.047   6.426 -0.8536  1.1572  2.6431
  860MOL0     H13500   1.319   4.807   6.299 -0.1450  0.7193  1.1914
  860MOL0     H13501   1.249   4.967   6.322  1.4736 -0.4030 -3.7633
  860MOL0     H13502   2.053   4.172   6.778  0.5745 -0.7245  2.6870
  860MOL0     H13503   2.285   4.187   6.842  2.0430  1.2396  0.4793
  860MOL0     H13504   2.529   4.386   7.172 -1.8918 -1.3235 -1.7109
  860MOL0     H13505   2.701   4.388   7.304 -3.3683 -3.3820  0.8991
  860MOL0     H13506   4.818   4.485   7.151 -0.7621  0.2894  1.0789
  860MOL0     H13507   5.034   4.430   7.257 -0.4615  1.8392 -0.1743
  860MOL0     H13508   5.329   4.250   7.464  1.8831 -0.9687 -0.4736
  860MOL0     H13509   5.535   4.190   7.529 -0.9887 -0.0194 -0.3201
  860MOL0     H13510   5.723   3.914   7.839 -1.6486 -0.9934  2.1042
  860MOL0     H13511   5.609   3.968   7.947 -3.4572 -1.2933 -2.5444
  860MOL0     H13512   5.835   4.132   7.841  1.2180  0.3143  0.7391
  860MOL0     H13513   5.714   4.213   7.935 -0.3238 -1.1383  2.6370
  860MOL0     H13514   5.880   4.202   8.083  2.5650 -2.0390  2.2631
  860MOL0     H13515   5.937   4.044   8.032  0.5115  1.1776 -0.2361
  860MOL0     H13516   5.831   4.061   8.274 -1.3501  0.2147  0.9671
  860MOL0     H13517   5.683   4.095   8.202 -0.9614 -2.8420  0.0363
  860MOL0     H13518   5.732   3.686   8.116 -0.8934 -0.4186 -0.3981
  860MOL0     H13519   5.400   4.094   7.927 -0.9390  0.8077 -0.0356
  860MOL0     H13520   5.163   4.143   7.843  0.0881  1.2440 -0.3458
  861MOL0     O13521   2.115   0.575   0.495  0.1391 -0.3244  0.3228
  861MOL0     C13522   2.185   0.545   0.401 -0.7355  0.1753 -0.1228
  861MOL0     O13523   2.168   0.581   0.274  0.7399  0.3657  0.1608
  861MOL0     C13524   2.085   0.686   0.242  0.3734 -0.4117  0.2027
  861MOL0     C13525   2.021   0.682   0.114 -0.1019 -0.0539  0.5248
  861MOL0     C13526   1.955   0.794   0.060 -0.0324 -0.3314 -0.1053
  861MOL0     C13527   1.927   0.904   0.139 -0.2139 -0.1111 -0.0219
  861MOL0     O13528   1.844   1.002   0.093 -0.2220  0.3164 -0.2221
  861MOL0     C13529   1.726   1.037   0.165 -0.0657 -0.1070 -0.6039
  861MOL0     C13530   1.637   1.130   0.087  0.8096 -0.7983  0.6208
  861MOL0     C13531   1.506   1.167   0.156  0.7370  0.6904  0.0380
  861MOL0     C13532   1.521   1.212   0.309  0.2621  0.5596 -0.1410
  861MOL0     C13533   1.382   1.220   0.377 -1.1069  0.6374  0.6735
  861MOL0     C13534   1.284   1.332   0.329  0.9901 -0.7487  0.1891
  861MOL0     C13535   1.140   1.299   0.365  0.9470 -0.2350 -0.6057
  861MOL0     C13536   1.044   1.404   0.308  0.6373 -0.4051  0.1205
  861MOL0     N13537   0.901   1.375   0.334  0.3147 -0.6652  0.4655
  861MOL0     C13538   0.827   1.271   0.285  0.3154 -0.7122  0.6802
  861MOL0     C13539   0.700   1.306   0.319 -0.4122 -0.1024 -0.9377
  861MOL0     C13540   0.583   1.230   0.276  0.0962 -0.1400 -0.2631
  861MOL0     C13541   0.513   1.174   0.400 -0.7604  0.4485  0.8851
  861MOL0     C13542   0.423   1.056   0.372 -0.8068  1.0387 -0.0345
  861MOL0     C13543   0.326   1.063   0.263  0.8267 -0.0254  0.3252
  861MOL0     O13544   0.249   0.940   0.242 -0.2264 -0.2177 -0.2550
  861MOL0     C13545   0.137   0.931   0.317 -0.1272  0.1874  0.0312
  861MOL0     C13546   0.085   1.011   0.424  0.3324 -0.4048  0.4836
  861MOL0     C13547  -0.037   0.981   0.485  0.4431  0.0205 -0.0506
  861MOL0     C13548  -0.118   0.875   0.451  0.8613  0.1725  0.5693
  861MOL0     C13549  -0.264   0.854   0.486 -1.0026 -0.3395  0.5285
  861MOL0     O13550  -0.325   0.746   0.430  0.3567 -0.3058 -0.4636
  861MOL0     C13551  -0.456   0.735   0.470 -0.2627  0.3101 -0.2868
  861MOL0     C13552  -0.500   0.615   0.540 -0.6671 -0.7315 -0.4965
  861MOL0     C13553  -0.624   0.609   0.597 -0.7713 -0.3678  0.1300
  861MOL0     C13554  -0.723   0.709   0.565  0.1568  0.5469 -0.6226
  861MOL0     O13555  -0.841   0.703   0.643 -0.0192 -0.0120  0.3489
  861MOL0     C13556  -0.963   0.763   0.592  0.6843  0.0921 -0.8115
  861MOL0     C13557  -0.992   0.864   0.702  0.5026 -0.8010  0.5608
  861MOL0     C13558  -1.137   0.911   0.707 -0.0033  0.1771  0.0929
  861MOL0     C13559  -1.238   0.801   0.759 -0.2709  0.7121  0.1673
  861MOL0     C13560  -1.392   0.838   0.750 -0.9712 -0.0164 -0.1384
  861MOL0     C13561  -1.449   0.840   0.610 -0.0828  0.7917 -1.4045
  861MOL0     C13562  -1.596   0.881   0.622 -0.3226 -0.3248 -0.2845
  861MOL0     C13563  -1.651   0.911   0.493 -0.2047 -0.1540  0.0433
  861MOL0    Cl13564  -1.835   0.894   0.482 -0.0657  0.2085  0.1109
  861MOL0     C13565  -0.687   0.801   0.468 -0.1019 -0.0875  0.1926
  861MOL0     C13566  -0.556   0.829   0.429  0.1773 -1.1539  0.3125
  861MOL0     O13567  -0.316   0.929   0.560 -1.4049 -0.1806  0.2552
  861MOL0     C13568  -0.052   0.787   0.359 -0.3149 -0.2977  0.3853
  861MOL0     C13569   0.066   0.812   0.297  0.1412  0.0175  0.0636
  861MOL0     N13570   0.701   1.422   0.394 -0.0135 -0.3202  0.4566
  861MOL0     N13571   0.828   1.457   0.407 -0.4281 -0.7197 -0.0946
  861MOL0     C13572   1.978   0.914   0.267  0.3281 -0.5947  0.9350
  861MOL0     C13573   2.067   0.811   0.312  0.7935 -0.4061  0.2082
  861MOL0     C13574   2.297   0.447   0.437  0.0335 -0.2911 -0.3007
  861MOL0     C13575   2.408   0.413   0.359 -0.3630 -0.3220  0.6053
  861MOL0     C13576   2.508   0.329   0.397  1.0259 -0.0152  0.5233
  861MOL0     C13577   2.516   0.275   0.524  0.3123  0.0007 -0.4246
  861MOL0     O13578   2.622   0.204   0.571  0.8385 -0.7513 -0.4726
  861MOL0     C13579   2.590   0.094   0.661  0.1817  0.3025 -0.6078
  861MOL0     C13580   2.690  -0.012   0.693 -0.1383 -0.5949  0.9077
  861MOL0     C13581   2.635  -0.125   0.789 -0.3238 -0.5324 -0.2443
  861MOL0     C13582   2.659  -0.113   0.935 -0.8210 -0.3238 -0.5709
  861MOL0     C13583   2.792  -0.133   0.988  0.4583  0.1090 -0.4188
  861MOL0     C13584   2.905  -0.136   1.038  0.0434 -0.9326  0.2710
  861MOL0     C13585   2.415   0.313   0.611 -0.0064 -0.4285  0.6717
  861MOL0     C13586   2.299   0.389   0.563  0.9703 -0.1703 -0.5343
  861MOL0     H13587   2.022   0.588   0.059  0.4446 -1.0816  2.2148
  861MOL0     H13588   1.909   0.782  -0.037 -0.5687 -1.6063  0.2787
  861MOL0     H13589   1.750   1.081   0.263  0.7340 -0.1424 -0.7739
  861MOL0     H13590   1.672   0.945   0.191  0.3102  0.5719  3.3081
  861MOL0     H13591   1.619   1.095  -0.015 -0.4542  1.0360  0.1651
  861MOL0     H13592   1.693   1.221   0.063 -0.1096 -1.1261 -3.5035
  861MOL0     H13593   1.426   1.093   0.151 -0.4684  2.0585 -3.0141
  861MOL0     H13594   1.473   1.252   0.096  1.0906 -1.5061 -3.5154
  861MOL0     H13595   1.575   1.130   0.357  0.2406  0.2195 -0.6923
  861MOL0     H13596   1.582   1.301   0.323  2.5983 -0.5145 -2.5480
  861MOL0     H13597   1.406   1.239   0.482  3.4710  0.2559 -0.1225
  861MOL0     H13598   1.334   1.123   0.360  0.9460 -0.1465 -1.1513
  861MOL0     H13599   1.286   1.330   0.220 -0.3831 -0.3838  0.1432
  861MOL0     H13600   1.311   1.426   0.378 -1.7973 -0.6213  1.6895
  861MOL0     H13601   1.114   1.199   0.329  0.8606 -0.6438  0.5484
  861MOL0     H13602   1.119   1.283   0.471 -0.7251 -3.2580 -1.2548
  861MOL0     H13603   1.057   1.419   0.200  0.2918  2.2786  0.3852
  861MOL0     H13604   1.067   1.503   0.350 -1.9238  0.5930 -0.6007
  861MOL0     H13605   0.853   1.180   0.231  1.1951  0.7215 -1.4535
  861MOL0     H13606   0.611   1.150   0.207 -0.7909 -2.1584  1.5724
  861MOL0     H13607   0.517   1.301   0.226  1.1090  2.7166  2.1831
  861MOL0     H13608   0.451   1.253   0.443 -1.4178  0.9885 -0.9727
  861MOL0     H13609   0.589   1.150   0.474  0.3878  1.7293  0.1495
  861MOL0     H13610   0.499   0.977   0.366 -0.6435  1.2948 -3.5751
  861MOL0     H13611   0.360   1.045   0.461 -2.4050  1.0335 -1.1283
  861MOL0     H13612   0.384   1.071   0.171 -0.5301 -0.2724 -0.5762
  861MOL0     H13613   0.257   1.147   0.277 -0.8724 -1.4153  0.7234
  861MOL0     H13614   0.142   1.091   0.469 -1.3375  1.5353 -0.6682
  861MOL0     H13615  -0.074   1.042   0.567  1.2955 -0.2973  0.5939
  861MOL0     H13616  -0.418   0.549   0.567  0.0009 -0.2877 -1.3971
  861MOL0     H13617  -0.650   0.526   0.661 -0.7270 -0.4926 -0.0144
  861MOL0     H13618  -1.047   0.693   0.584  1.6834 -1.0203 -2.2699
  861MOL0     H13619  -0.960   0.821   0.500  0.8028  1.0752 -0.2067
  861MOL0     H13620  -0.929   0.951   0.679 -0.9348  0.2469  0.4852
  861MOL0     H13621  -0.953   0.823   0.795  2.0933  0.2100  0.3734
  861MOL0     H13622  -1.162   0.940   0.605  3.5348 -3.7460 -2.1619
  861MOL0     H13623  -1.148   0.998   0.773 -0.3389  0.7186 -0.6636
  861MOL0     H13624  -1.223   0.703   0.712 -1.5715  0.7904 -0.4321
  861MOL0     H13625  -1.210   0.803   0.865  2.6271  1.3137 -0.5254
  861MOL0     H13626  -1.419   0.937   0.788 -3.5310  0.0154 -1.8578
  861MOL0     H13627  -1.448   0.763   0.806  1.7926 -1.2420  1.1906
  861MOL0     H13628  -1.445   0.743   0.561  2.2812  0.2388 -0.2644
  861MOL0     H13629  -1.383   0.906   0.552 -0.3007  1.6266 -0.7371
  861MOL0     H13630  -1.647   0.793   0.663  0.3362 -0.5137  0.1479
  861MOL0     H13631  -1.611   0.964   0.691 -2.8093 -2.5932  2.1439
  861MOL0     H13632  -1.610   0.848   0.414 -2.0104  0.2378 -1.2684
  861MOL0     H13633  -1.615   1.012   0.471  1.3054 -0.2315  1.8438
  861MOL0     H13634  -0.755   0.878   0.432 -0.8285 -1.0881 -0.6615
  861MOL0     H13635  -0.542   0.909   0.357 -1.4696  0.3279  1.5424
  861MOL0     H13636  -0.107   0.695   0.341 -0.8286  0.1999 -0.6922
  861MOL0     H13637   0.098   0.752   0.212  0.2588  0.9331 -0.5491
  861MOL0     H13638   1.968   1.010   0.316 -1.4922  0.2486 -0.9203
  861MOL0     H13639   2.118   0.827   0.407  0.9804 -2.4880  0.5133
  861MOL0     H13640   2.412   0.465   0.263  1.2010  1.2534  1.4627
  861MOL0     H13641   2.594   0.306   0.335  0.4429  2.4626 -1.3269
  861MOL0     H13642   2.495   0.046   0.634 -0.6162  0.7782  1.2313
  861MOL0     H13643   2.566   0.128   0.762  0.3536 -4.4505  1.2943
  861MOL0     H13644   2.718  -0.078   0.610 -2.9362 -3.9745  2.3912
  861MOL0     H13645   2.778   0.025   0.745 -0.2678 -1.1424  1.5182
  861MOL0     H13646   2.677  -0.223   0.761 -0.7914 -1.6455  2.6090
  861MOL0     H13647   2.528  -0.144   0.781 -0.1602 -1.3730 -0.5547
  861MOL0     H13648   2.641  -0.010   0.969  0.3661 -0.4167  0.4152
  861MOL0     H13649   2.590  -0.180   0.986 -0.5409 -1.1494 -1.2621
  861MOL0     H13650   3.002  -0.132   1.083  1.1102  1.4864 -1.9994
  861MOL0     H13651   2.407   0.280   0.714  0.0149 -0.6070  0.6155
  861MOL0     H13652   2.221   0.413   0.635  1.2012 -0.8217 -0.0666
  862MOL0     O13653   2.225   2.722   8.465  0.5077 -0.9050 -0.3607
  862MOL0     C13654   2.284   2.769   8.569 -0.1447  0.0225  0.4885
  862MOL0     O13655   2.231   2.800   8.682 -0.1059 -0.0089  1.1000
  862MOL0     C13656   2.092   2.802   8.691  0.2794  0.0799 -0.0473
  862MOL0     C13657   2.026   2.918   8.647  0.0858  0.0661 -0.0449
  862MOL0     C13658   1.886   2.928   8.657 -0.7936 -0.1341  0.4760
  862MOL0     C13659   1.808   2.825   8.714 -0.3471  0.1600 -0.3216
  862MOL0     O13660   1.676   2.854   8.705  0.2473 -0.0256  0.8427
  862MOL0     C13661   1.596   2.780   8.789 -0.2567  0.8303 -0.7850
  862MOL0     C13662   1.529   2.670   8.710 -0.2681 -0.5283 -0.5909
  862MOL0     C13663   1.462   2.593   8.817 -0.0199  0.0615  0.7028
  862MOL0     C13664   1.366   2.487   8.755 -0.2193  0.3341 -0.1288
  862MOL0     C13665   1.294   2.420   8.869  0.8419  0.1335 -0.2521
  862MOL0     C13666   1.222   2.297   8.816 -0.8125  0.2839 -0.5214
  862MOL0     C13667   1.104   2.263   8.906  0.0094 -0.4343  0.1629
  862MOL0     C13668   1.004   2.185   8.823 -0.3581  0.1700 -0.0775
  862MOL0     N13669   0.877   2.174   8.888  0.7870 -0.5119 -0.7528
  862MOL0     C13670   0.816   2.080   8.977  0.4881  0.7221 -0.2205
  862MOL0     C13671   0.694   2.126   9.002  1.6742 -0.3134 -0.0668
  862MOL0     C13672   0.608   2.044   9.092 -0.4860  0.7351  0.2922
  862MOL0     C13673   0.460   2.058   9.066 -0.1761 -0.4084  0.0270
  862MOL0     C13674   0.377   1.936   9.106 -0.9772 -0.8141 -0.5119
  862MOL0     C13675   0.237   1.977   9.164 -0.0678  0.4299 -0.4871
  862MOL0     O13676   0.164   1.855   9.164  0.1432 -0.1104  0.2145
  862MOL0     C13677   0.031   1.858   9.135  0.4469 -0.1754  0.0666
  862MOL0     C13678  -0.054   1.958   9.190  0.1318  0.1708 -0.4377
  862MOL0     C13679  -0.187   1.952   9.188  0.0218 -0.7653  0.3011
  862MOL0     C13680  -0.250   1.847   9.120 -0.2334 -0.3937  0.5303
  862MOL0     C13681  -0.405   1.839   9.109  0.1339  0.4603  0.4909
  862MOL0     O13682  -0.472   1.926   9.199  0.4884 -0.3886 -0.2073
  862MOL0     C13683  -0.604   1.910   9.246  1.1832 -0.5728  0.1737
  862MOL0     C13684  -0.680   2.021   9.287  0.6791  0.4084  0.3599
  862MOL0     C13685  -0.809   2.007   9.341  0.8054  0.1585 -0.4093
  862MOL0     C13686  -0.882   1.881   9.342  0.4320 -0.4670  0.1921
  862MOL0     O13687  -1.015   1.867   9.374 -0.5502  0.0630 -0.2128
  862MOL0     C13688  -1.059   1.948   9.480  0.2294 -0.6088  0.2003
  862MOL0     C13689  -1.166   1.880   9.564 -0.2784  0.7100 -0.0033
  862MOL0     C13690  -1.305   1.890   9.503  0.2391 -0.3766 -0.2291
  862MOL0     C13691  -1.396   1.811   9.585  0.5343  0.2827 -0.3248
  862MOL0     C13692  -1.427   1.679   9.502  0.6415 -0.0719 -0.0000
  862MOL0     C13693  -1.497   1.559   9.565  0.9821 -0.0478 -0.0084
  862MOL0     C13694  -1.644   1.600   9.624 -0.2704 -0.6977 -0.7744
  862MOL0     C13695  -1.707   1.488   9.700 -0.3860  0.3197 -0.6322
  862MOL0    Cl13696  -1.781   1.354   9.601 -0.1774 -0.0096  0.0351
  862MOL0     C13697  -0.806   1.775   9.303  0.1454  0.4400  1.4611
  862MOL0     C13698  -0.667   1.783   9.266  0.1113  0.0733  0.8377
  862MOL0     O13699  -0.469   1.756   9.042  0.0488 -0.1787 -0.9599
  862MOL0     C13700  -0.172   1.745   9.061 -0.5136  0.3040 -0.1306
  862MOL0     C13701  -0.033   1.746   9.076  0.3559 -0.2913  0.2547
  862MOL0     N13702   0.674   2.249   8.944  0.1107 -0.4555 -0.1224
  862MOL0     N13703   0.778   2.265   8.866 -0.0454 -0.1519 -0.3057
  862MOL0     C13704   1.877   2.713   8.763 -0.2273 -0.4757  0.3162
  862MOL0     C13705   2.016   2.702   8.759 -0.0847  0.3842  0.7151
  862MOL0     C13706   2.427   2.804   8.549 -0.7645  0.1546  0.0885
  862MOL0     C13707   2.495   2.753   8.439  0.4617  0.1772 -0.3807
  862MOL0     C13708   2.619   2.789   8.402 -0.1579 -0.3155 -0.7293
  862MOL0     C13709   2.699   2.870   8.496  1.0465 -0.2454  0.6766
  862MOL0     O13710   2.826   2.922   8.471 -0.0940  1.5296 -0.5283
  862MOL0     C13711   2.898   2.884   8.352 -0.0483 -1.0744  0.0068
  862MOL0     C13712   3.033   2.949   8.360  0.5644  0.0310 -0.8091
  862MOL0     C13713   3.114   2.894   8.469  0.7463  0.0080 -0.4852
  862MOL0     C13714   3.238   2.985   8.475  0.5949 -0.9003 -0.7393
  862MOL0     C13715   3.335   2.942   8.379 -0.1419  0.5587 -0.3225
  862MOL0     C13716   3.422   2.904   8.308  0.7853 -0.2215  0.1310
  862MOL0     C13717   2.628   2.926   8.604  0.5074  0.1760  0.4402
  862MOL0     C13718   2.495   2.893   8.637  0.0187 -0.1390  0.7462
  862MOL0     H13719   2.084   2.999   8.605  0.4443  0.8612  1.8962
  862MOL0     H13720   1.827   3.015   8.630 -2.5310 -0.8289  1.8264
  862MOL0     H13721   1.535   2.848   8.848  1.4143  1.1334  0.6670
  862MOL0     H13722   1.663   2.738   8.865  0.8814  1.7454 -1.2434
  862MOL0     H13723   1.601   2.615   8.648  2.0373  0.2784  1.2306
  862MOL0     H13724   1.452   2.715   8.647  0.8423  2.0769 -0.1896
  862MOL0     H13725   1.404   2.658   8.882 -2.3536  2.0145 -2.9948
  862MOL0     H13726   1.534   2.533   8.874 -1.3740 -5.2317 -2.4431
  862MOL0     H13727   1.298   2.538   8.687 -0.5826 -0.0385 -0.0515
  862MOL0     H13728   1.416   2.413   8.691 -2.3729 -1.0927 -0.2620
  862MOL0     H13729   1.228   2.490   8.921 -1.9506  1.1357 -4.6505
  862MOL0     H13730   1.372   2.387   8.939  1.9654  2.1770 -0.4383
  862MOL0     H13731   1.295   2.216   8.823  0.9640  1.8220 -0.7600
  862MOL0     H13732   1.198   2.317   8.711  0.7441  1.9601 -0.6085
  862MOL0     H13733   1.132   2.216   9.000  1.5236 -0.2710 -0.1829
  862MOL0     H13734   1.055   2.357   8.934  2.2529  0.5590  0.9696
  862MOL0     H13735   1.048   2.085   8.808 -1.4663 -0.5252  1.0976
  862MOL0     H13736   0.986   2.238   8.729  2.7735  0.4912 -0.6222
  862MOL0     H13737   0.860   1.997   9.031  1.4982  2.4915  1.8648
  862MOL0     H13738   0.625   2.074   9.196  0.5787 -1.5125  0.8299
  862MOL0     H13739   0.632   1.938   9.089  0.2785  0.9024  0.2595
  862MOL0     H13740   0.449   2.077   8.959 -0.1192  2.9155  0.5098
  862MOL0     H13741   0.429   2.145   9.124 -1.0171 -0.3053 -0.5610
  862MOL0     H13742   0.384   1.876   9.014  1.6456  1.0472 -1.6531
  862MOL0     H13743   0.425   1.873   9.181 -1.8113 -0.7176  0.1311
  862MOL0     H13744   0.188   2.047   9.097 -0.7466  2.4566  1.9884
  862MOL0     H13745   0.229   2.013   9.267 -2.8778  0.1535 -0.5357
  862MOL0     H13746  -0.011   2.041   9.245 -0.0005  0.6572 -1.0511
  862MOL0     H13747  -0.253   2.024   9.235 -1.6993 -3.1527  1.7966
  862MOL0     H13748  -0.636   2.119   9.275  2.7487 -0.7001 -2.0134
  862MOL0     H13749  -0.857   2.104   9.351  0.3670 -0.1140  0.1528
  862MOL0     H13750  -1.104   2.044   9.454 -1.2715 -1.1313  0.7993
  862MOL0     H13751  -0.976   1.963   9.549 -1.4129 -2.4184  2.7427
  862MOL0     H13752  -1.178   1.932   9.659  3.3695  2.1719 -0.1743
  862MOL0     H13753  -1.135   1.775   9.574  2.4414  1.3047 -1.4033
  862MOL0     H13754  -1.317   1.875   9.395 -1.2918  1.6907 -0.4271
  862MOL0     H13755  -1.338   1.994   9.516 -0.3563 -0.6546  0.5322
  862MOL0     H13756  -1.362   1.786   9.686  1.1866  1.8122 -0.1411
  862MOL0     H13757  -1.490   1.864   9.601  0.1247 -0.8215  1.0983
  862MOL0     H13758  -1.338   1.650   9.445  0.2962  1.2098 -1.2471
  862MOL0     H13759  -1.493   1.709   9.420 -0.9427 -0.1903  1.1864
  862MOL0     H13760  -1.432   1.541   9.651  2.3253 -0.1954 -1.0149
  862MOL0     H13761  -1.511   1.477   9.494 -2.5742 -1.0274  1.5721
  862MOL0     H13762  -1.627   1.677   9.700 -1.5458 -0.7449 -0.4239
  862MOL0     H13763  -1.704   1.650   9.547 -2.2361  0.0889  1.1673
  862MOL0     H13764  -1.780   1.521   9.775  0.9410 -1.2323  1.4506
  862MOL0     H13765  -1.624   1.440   9.753 -0.4141 -0.7749 -1.5312
  862MOL0     H13766  -0.868   1.687   9.296  0.9859 -0.1191  0.9082
  862MOL0     H13767  -0.607   1.697   9.240  1.2626  1.5661 -1.9929
  862MOL0     H13768  -0.224   1.667   9.006 -0.3465 -0.4855  0.8071
  862MOL0     H13769   0.042   1.674   9.045  0.8751  0.2397  0.2691
  862MOL0     H13770   1.825   2.636   8.818  0.7038 -0.5148  1.1789
  862MOL0     H13771   2.054   2.610   8.803  0.0883 -0.6063 -1.3469
  862MOL0     H13772   2.439   2.690   8.370  0.4870  0.3185 -0.5309
  862MOL0     H13773   2.654   2.749   8.307 -1.2035  0.9449 -1.6844
  862MOL0     H13774   2.838   2.923   8.269 -1.1613 -2.0311  0.3223
  862MOL0     H13775   2.910   2.775   8.344  3.9278 -0.6265 -2.0421
  862MOL0     H13776   3.082   2.941   8.262 -0.3223  0.3010 -1.2895
  862MOL0     H13777   3.020   3.057   8.376  3.3902  0.0395  2.7528
  862MOL0     H13778   3.137   2.787   8.460 -0.9334 -0.4160 -0.1263
  862MOL0     H13779   3.057   2.888   8.562 -1.5266  2.6082 -1.5941
  862MOL0     H13780   3.221   3.093   8.471  1.3832 -0.6473  1.4768
  862MOL0     H13781   3.283   2.973   8.574  0.1519 -1.0579 -0.5550
  862MOL0     H13782   3.508   2.878   8.250 -0.0840 -1.2184 -0.7592
  862MOL0     H13783   2.683   2.995   8.667  2.1118 -0.4224 -0.2522
  862MOL0     H13784   2.439   2.944   8.714 -1.5969 -1.8011  0.7197
  863MOL0     O13785   0.332   2.854  11.028 -0.1124  0.2158  0.1317
  863MOL0     C13786   0.363   2.971  10.993 -0.1455 -0.6631  1.2643
  863MOL0     O13787   0.275   3.069  10.973  0.8251 -0.7621  0.4364
  863MOL0     C13788   0.149   3.030  10.970  0.3810 -0.0632 -0.3602
  863MOL0     C13789   0.065   3.110  11.057 -0.3538  0.9261  0.5609
  863MOL0     C13790  -0.062   3.073  11.073 -0.1726  0.2508 -0.1822
  863MOL0     C13791  -0.112   2.948  11.036  0.0904 -0.3706 -0.0193
  863MOL0     O13792  -0.233   2.904  11.087  0.3622 -0.0273 -0.1073
  863MOL0     C13793  -0.282   2.780  11.045  0.3349  1.3617  0.3678
  863MOL0     C13794  -0.416   2.752  11.123  0.5330  0.1062 -1.1611
  863MOL0     C13795  -0.504   2.632  11.083 -0.8303  0.5208  0.4795
  863MOL0     C13796  -0.611   2.622  11.186  0.9403  0.1003  0.0927
  863MOL0     C13797  -0.714   2.516  11.152 -0.7117  0.6513 -0.0113
  863MOL0     C13798  -0.822   2.578  11.061  0.1720 -0.0601 -0.0465
  863MOL0     C13799  -0.926   2.482  11.004 -0.2076 -0.8531 -0.8199
  863MOL0     C13800  -1.039   2.553  10.926  0.3836  0.7519 -0.6321
  863MOL0     N13801  -1.132   2.459  10.862  0.0626  0.9045 -0.1081
  863MOL0     C13802  -1.188   2.346  10.922 -0.6105  0.5129  0.0577
  863MOL0     C13803  -1.252   2.290  10.819  0.0137 -0.4058  0.0843
  863MOL0     C13804  -1.315   2.157  10.815 -0.0753  0.8612 -0.7849
  863MOL0     C13805  -1.473   2.166  10.808 -0.2934  0.3379  0.5478
  863MOL0     C13806  -1.546   2.202  10.936 -0.6291  0.5290  1.4989
  863MOL0     C13807  -1.697   2.183  10.907  0.7512  0.2114 -0.5151
  863MOL0     O13808  -1.761   2.251  11.022  0.4428  0.3656 -0.2467
  863MOL0     C13809  -1.897   2.256  11.001  0.8730  0.2461 -0.1739
  863MOL0     C13810  -1.979   2.148  10.961  0.1944 -0.1114  0.7932
  863MOL0     C13811  -2.111   2.166  10.934 -0.5119  0.7279 -0.4310
  863MOL0     C13812  -2.169   2.294  10.931 -0.8882 -0.0321 -0.3949
  863MOL0     C13813  -2.309   2.325  10.886 -0.1895 -0.4581  0.6969
  863MOL0     O13814  -2.391   2.216  10.880  0.0846 -0.0454 -0.5932
  863MOL0     C13815  -2.525   2.236  10.828  0.8125  0.7087  0.6960
  863MOL0     C13816  -2.614   2.120  10.849 -0.3470  0.6911  0.4125
  863MOL0     C13817  -2.745   2.120  10.827  1.0452  1.0583  0.0419
  863MOL0     C13818  -2.804   2.233  10.769 -0.7663 -0.2985 -0.5735
  863MOL0     O13819  -2.939   2.226  10.743  0.1182  0.2408  0.6345
  863MOL0     C13820  -3.017   2.329  10.806 -0.5925 -0.1211  0.0200
  863MOL0     C13821  -3.146   2.359  10.733 -1.0964 -1.0549 -0.3955
  863MOL0     C13822  -3.237   2.239  10.734  0.6834 -0.0613 -0.4085
  863MOL0     C13823  -3.379   2.287  10.708 -0.4329  0.4034  0.4298
  863MOL0     C13824  -3.470   2.166  10.701  0.1725  0.1003 -0.2130
  863MOL0     C13825  -3.611   2.177  10.635  0.2699 -0.3186 -0.3121
  863MOL0     C13826  -3.702   2.048  10.628 -0.2500  0.6772 -0.6328
  863MOL0     C13827  -3.758   2.012  10.764 -0.2039  1.3374 -0.7715
  863MOL0    Cl13828  -3.783   1.838  10.792  0.0153  0.0631  0.6299
  863MOL0     C13829  -2.722   2.342  10.733 -0.2085  0.1924 -0.3358
  863MOL0     C13830  -2.581   2.346  10.760 -0.0111  0.1558 -0.3665
  863MOL0     O13831  -2.333   2.437  10.855 -1.2748  0.1385  0.0144
  863MOL0     C13832  -2.087   2.398  10.977  0.4093  0.2330  0.2309
  863MOL0     C13833  -1.954   2.382  11.004 -0.7851  0.1946  0.7303
  863MOL0     N13834  -1.240   2.368  10.700  0.8311  0.4727 -0.6800
  863MOL0     N13835  -1.167   2.459  10.728 -1.1171 -0.8621 -0.4277
  863MOL0     C13836  -0.036   2.876  10.940 -0.0507  0.7932  0.5249
  863MOL0     C13837   0.092   2.913  10.910 -0.4048 -0.0850  0.8918
  863MOL0     C13838   0.498   3.010  10.986 -0.2734 -0.2884 -0.1937
  863MOL0     C13839   0.541   3.136  10.958  0.4575 -0.6706  0.8772
  863MOL0     C13840   0.672   3.176  10.955 -0.1697  0.4596 -0.2994
  863MOL0     C13841   0.775   3.094  11.003 -0.6543 -0.2719  0.2858
  863MOL0     O13842   0.902   3.135  11.016 -0.1020  0.6616 -0.2506
  863MOL0     C13843   0.923   3.272  11.047 -1.1401 -0.0053 -1.4097
  863MOL0     C13844   0.901   3.306  11.200 -0.6598 -0.4954 -0.3021
  863MOL0     C13845   1.026   3.318  11.294  0.5535  0.1314  0.0543
  863MOL0     C13846   1.107   3.188  11.281 -0.5173 -0.2514 -0.1120
  863MOL0     C13847   1.200   3.173  11.167  0.0524 -0.6739  0.3351
  863MOL0     C13848   1.294   3.176  11.089  0.4355  0.3293 -0.3692
  863MOL0     C13849   0.740   2.965  11.035  0.1675  0.4257  0.1855
  863MOL0     C13850   0.604   2.917  11.028  0.5703  0.9476  0.1364
  863MOL0     H13851   0.100   3.202  11.103  0.8007  0.7823  0.0012
  863MOL0     H13852  -0.125   3.136  11.135 -0.2845  1.3564 -1.3675
  863MOL0     H13853  -0.214   2.699  11.072  0.4837  0.6727 -1.8609
  863MOL0     H13854  -0.291   2.777  10.936  2.1536 -3.0018  0.1257
  863MOL0     H13855  -0.470   2.847  11.126  2.6427  1.5200 -3.5983
  863MOL0     H13856  -0.374   2.728  11.221 -0.3293 -1.1200 -1.0735
  863MOL0     H13857  -0.443   2.542  11.094  0.6139  1.5328  1.0191
  863MOL0     H13858  -0.539   2.643  10.980  4.3791  0.6625 -1.5424
  863MOL0     H13859  -0.570   2.600  11.285 -2.1679  2.2905  2.0884
  863MOL0     H13860  -0.665   2.717  11.193 -0.5696 -0.6650 -0.8198
  863MOL0     H13861  -0.768   2.490  11.243  0.9595  1.4329  1.2464
  863MOL0     H13862  -0.661   2.429  11.112 -0.0355  0.5759  1.0069
  863MOL0     H13863  -0.765   2.632  10.984  0.9866 -1.0041 -0.1246
  863MOL0     H13864  -0.885   2.651  11.114  2.1012  1.4060  0.3582
  863MOL0     H13865  -0.881   2.408  10.937  2.7602 -0.1722  0.2500
  863MOL0     H13866  -0.979   2.429  11.083 -0.1458 -1.2139 -1.0186
  863MOL0     H13867  -0.996   2.609  10.843  0.2489  0.8745 -0.6207
  863MOL0     H13868  -1.090   2.625  10.991 -0.6707 -0.4865 -0.0408
  863MOL0     H13869  -1.177   2.324  11.027  0.6557  2.3356  0.3613
  863MOL0     H13870  -1.296   2.107  10.910 -3.9021 -1.9177 -1.2415
  863MOL0     H13871  -1.270   2.105  10.729  4.1354  1.6230  0.7052
  863MOL0     H13872  -1.508   2.067  10.779 -1.1883  0.6682  0.4785
  863MOL0     H13873  -1.499   2.239  10.731  1.7142  0.7761  0.2316
  863MOL0     H13874  -1.518   2.130  11.013  0.9093 -0.5619  0.0103
  863MOL0     H13875  -1.529   2.304  10.970  4.6733 -0.0857  1.5049
  863MOL0     H13876  -1.727   2.078  10.903  1.8985 -0.1357 -0.3594
  863MOL0     H13877  -1.714   2.240  10.815  0.9369  1.3696  0.1543
  863MOL0     H13878  -1.946   2.045  10.965  5.1643  1.2468  0.6440
  863MOL0     H13879  -2.171   2.077  10.914  0.4468 -0.2617  0.8764
  863MOL0     H13880  -2.569   2.030  10.890 -0.5742 -1.1110 -2.9397
  863MOL0     H13881  -2.786   2.025  10.861 -0.1745  2.1070  1.6223
  863MOL0     H13882  -2.959   2.421  10.810  0.5346 -0.8324  3.4839
  863MOL0     H13883  -3.038   2.292  10.906  0.2930 -2.3411 -0.5540
  863MOL0     H13884  -3.118   2.392  10.633  1.0248 -2.0696 -0.1984
  863MOL0     H13885  -3.191   2.441  10.789  1.7099 -0.8970  1.9029
  863MOL0     H13886  -3.217   2.196  10.833  2.7769  0.5909 -0.4899
  863MOL0     H13887  -3.196   2.164  10.665  0.9365  0.9691 -1.4087
  863MOL0     H13888  -3.408   2.361  10.784  3.5420 -0.0883  2.6564
  863MOL0     H13889  -3.389   2.333  10.609  1.0707 -0.5102 -0.1686
  863MOL0     H13890  -3.479   2.142  10.807  1.1356  1.0490  0.1024
  863MOL0     H13891  -3.427   2.081  10.648 -1.5549 -0.8908 -0.0789
  863MOL0     H13892  -3.613   2.228  10.538 -0.8524  0.4754  0.1034
  863MOL0     H13893  -3.664   2.248  10.699  2.1371 -0.6156  1.6789
  863MOL0     H13894  -3.786   2.065  10.560 -0.9349 -2.5054 -0.7582
  863MOL0     H13895  -3.639   1.962  10.604 -0.6869 -0.8852  3.2007
  863MOL0     H13896  -3.847   2.072  10.781  1.4246  3.3974  1.1057
  863MOL0     H13897  -3.686   2.032  10.844 -1.2939 -2.0163  1.2661
  863MOL0     H13898  -2.759   2.431  10.684  4.5911  2.6808  0.0701
  863MOL0     H13899  -2.520   2.425  10.717  1.4913 -1.9397 -2.2957
  863MOL0     H13900  -2.139   2.491  11.000 -3.4871 -1.4183 -1.0622
  863MOL0     H13901  -1.900   2.468  11.042  0.5072  1.0901 -2.7122
  863MOL0     H13902  -0.066   2.777  10.908  0.3811  0.1863  1.9152
  863MOL0     H13903   0.147   2.843  10.847  0.0994  1.1957 -0.1366
  863MOL0     H13904   0.470   3.215  10.937  0.7099 -0.3937  1.0519
  863MOL0     H13905   0.683   3.279  10.921  1.7895  0.9242  1.4968
  863MOL0     H13906   0.868   3.344  10.985 -0.2983  1.9816  0.0306
  863MOL0     H13907   1.023   3.290  11.007 -1.2738 -1.1404 -2.3000
  863MOL0     H13908   0.844   3.400  11.201  0.4048  0.1745  1.6263
  863MOL0     H13909   0.830   3.235  11.241 -4.0487  1.1296 -2.8748
  863MOL0     H13910   0.996   3.337  11.397 -0.2008 -0.9309  0.0442
  863MOL0     H13911   1.090   3.400  11.260  1.5109 -0.0755  1.2750
  863MOL0     H13912   1.171   3.176  11.368  0.1463 -1.1429 -0.7025
  863MOL0     H13913   1.041   3.101  11.293 -2.6655  1.3349  0.3142
  863MOL0     H13914   1.376   3.171  11.021  1.3794 -0.1385  0.7695
  863MOL0     H13915   0.818   2.899  11.073 -1.5284 -0.7782  1.7295
  863MOL0     H13916   0.575   2.814  11.046 -1.2782  0.8761 -2.6474
  864MOL0     O13917   9.273   5.511   7.105 -0.3338  0.6209 -0.4703
  864MOL0     C13918   9.330   5.513   7.216  0.7015  0.0949  0.1076
  864MOL0     O13919   9.287   5.435   7.321  0.1312  0.3159  0.6451
  864MOL0     C13920   9.196   5.338   7.301  0.8533  0.7021  0.0103
  864MOL0     C13921   9.228   5.232   7.217 -0.0567  0.1770  0.4079
  864MOL0     C13922   9.122   5.149   7.177  0.0857  0.4062 -0.2659
  864MOL0     C13923   8.994   5.159   7.245  0.5601  0.0545  0.6807
  864MOL0     O13924   8.890   5.063   7.234 -0.3748 -0.0195 -0.1802
  864MOL0     C13925   8.934   4.936   7.183 -0.3176  0.2273  0.7687
  864MOL0     C13926   8.820   4.829   7.196  1.5736 -0.9963  0.2281
  864MOL0     C13927   8.716   4.837   7.090 -0.2382  0.1659 -0.0216
  864MOL0     C13928   8.625   4.713   7.083 -0.5875 -0.2299  0.3704
  864MOL0     C13929   8.512   4.718   7.191 -0.0350  0.4962  1.1047
  864MOL0     C13930   8.417   4.595   7.177 -0.1446  0.4426 -0.3819
  864MOL0     C13931   8.338   4.587   7.042  0.8713  0.2870  1.2179
  864MOL0     C13932   8.212   4.510   7.056  0.9084  0.0348  0.2462
  864MOL0     N13933   8.124   4.509   6.936 -0.8308  0.0191 -0.2690
  864MOL0     C13934   8.158   4.561   6.811  0.4130 -0.6356  0.5086
  864MOL0     C13935   8.039   4.531   6.745 -0.1366 -0.1699  0.6736
  864MOL0     C13936   8.008   4.544   6.601  0.6608  0.2641 -0.2490
  864MOL0     C13937   7.966   4.398   6.570  0.9152 -0.3675  0.5198
  864MOL0     C13938   7.980   4.352   6.428 -0.0232  0.6082 -0.5261
  864MOL0     C13939   8.123   4.346   6.373 -0.8533 -0.5283 -0.2124
  864MOL0     O13940   8.170   4.485   6.353  1.1821  0.1437 -0.6926
  864MOL0     C13941   8.303   4.514   6.336  0.6900  1.1317 -0.1987
  864MOL0     C13942   8.347   4.642   6.376 -0.3555  0.3726  0.6568
  864MOL0     C13943   8.480   4.687   6.349  0.8543 -0.3127 -0.9898
  864MOL0     C13944   8.579   4.590   6.302  0.5570  0.9766  0.4307
  864MOL0     C13945   8.712   4.644   6.262  0.3720 -1.3530 -0.5364
  864MOL0     O13946   8.813   4.557   6.236 -0.0984  0.0240 -0.5811
  864MOL0     C13947   8.941   4.599   6.199 -0.3188  0.4959 -0.4498
  864MOL0     C13948   9.016   4.708   6.255 -0.2418  0.3815  0.1064
  864MOL0     C13949   9.148   4.734   6.216 -0.3437 -0.0814  0.0790
  864MOL0     C13950   9.223   4.652   6.130  0.0275  0.3495  0.0984
  864MOL0     O13951   9.356   4.659   6.128  0.2338 -0.0654  0.1904
  864MOL0     C13952   9.426   4.602   6.012  0.8436  0.3128  0.2291
  864MOL0     C13953   9.578   4.588   6.028  0.7126  0.2534  0.6113
  864MOL0     C13954   9.652   4.708   5.971  0.5732  0.3544 -0.1157
  864MOL0     C13955   9.801   4.688   5.941 -0.2758  0.6343  0.1070
  864MOL0     C13956   9.902   4.664   6.060  0.8096 -0.9642  0.0572
  864MOL0     C13957   9.912   4.784   6.162  0.0499  0.3856 -0.3593
  864MOL0     C13958  10.020   4.744   6.260  0.1262  0.7815  0.7522
  864MOL0     C13959  10.001   4.826   6.381 -1.0109 -0.4119  1.0501
  864MOL0    Cl13960  10.167   4.836   6.469 -0.4834 -0.1180 -0.3897
  864MOL0     C13961   9.142   4.542   6.072 -0.6237 -0.5723 -0.7874
  864MOL0     C13962   9.018   4.514   6.117  0.8111 -0.0567 -0.2398
  864MOL0     O13963   8.722   4.767   6.266  0.3027 -0.1727 -0.0394
  864MOL0     C13964   8.533   4.463   6.273  0.3465 -0.4312  0.2017
  864MOL0     C13965   8.404   4.416   6.297  0.6190 -0.0070  0.0966
  864MOL0     N13966   7.936   4.495   6.831 -0.2579  0.1457 -0.2692
  864MOL0     N13967   7.985   4.479   6.944 -0.7470  0.1253  0.4120
  864MOL0     C13968   8.967   5.263   7.333 -0.2123  0.0352 -0.6822
  864MOL0     C13969   9.064   5.354   7.359 -0.0163 -0.2175 -0.1816
  864MOL0     C13970   9.449   5.590   7.230 -0.6846  1.1639 -0.0086
  864MOL0     C13971   9.527   5.648   7.127  0.0557 -0.0760 -0.7809
  864MOL0     C13972   9.651   5.706   7.158 -0.1292  0.0899 -0.0530
  864MOL0     C13973   9.706   5.722   7.286  1.0004 -0.2115 -0.0932
  864MOL0     O13974   9.829   5.778   7.303  0.1609 -0.1868 -0.9210
  864MOL0     C13975   9.892   5.781   7.431  0.2874  0.4140  0.3110
  864MOL0     C13976   9.947   5.642   7.485 -0.5485  0.0402  0.2094
  864MOL0     C13977  10.103   5.640   7.486  0.3078  0.5428  0.5626
  864MOL0     C13978  10.160   5.506   7.536 -0.0310  0.5851  0.4162
  864MOL0     C13979  10.140   5.400   7.443 -0.5838 -0.3981 -0.3753
  864MOL0     C13980  10.142   5.307   7.366  0.1624  0.4288 -0.0978
  864MOL0     C13981   9.617   5.670   7.385  0.0483  0.2828 -0.3573
  864MOL0     C13982   9.498   5.609   7.358 -0.1882  0.3891  0.0909
  864MOL0     H13983   9.327   5.218   7.175 -0.2141 -1.5946  0.5278
  864MOL0     H13984   9.158   5.067   7.115 -0.7339 -0.1588 -0.0177
  864MOL0     H13985   9.018   4.903   7.245 -0.4320  2.8848  2.5425
  864MOL0     H13986   8.963   4.938   7.078  0.9235 -2.2950  0.9929
  864MOL0     H13987   8.776   4.832   7.296  2.9463 -1.8742  0.8868
  864MOL0     H13988   8.869   4.731   7.191  0.3662 -1.6017  0.0480
  864MOL0     H13989   8.770   4.837   6.995  2.2603 -3.0855  1.2156
  864MOL0     H13990   8.664   4.930   7.116  0.1637  0.6432 -0.8734
  864MOL0     H13991   8.586   4.704   6.982  2.6436 -1.9942 -0.8614
  864MOL0     H13992   8.676   4.619   7.105 -2.0501 -1.2030 -0.2331
  864MOL0     H13993   8.463   4.814   7.172  1.8587  1.0640 -1.4407
  864MOL0     H13994   8.562   4.724   7.288  3.0418  1.1929 -0.3930
  864MOL0     H13995   8.360   4.623   7.266  4.0370  2.6650  1.9304
  864MOL0     H13996   8.471   4.501   7.194 -0.8231  0.1487  0.1793
  864MOL0     H13997   8.321   4.687   7.002  2.8480 -0.4277 -1.6987
  864MOL0     H13998   8.382   4.534   6.957 -2.1793  1.8066 -1.5182
  864MOL0     H13999   8.158   4.561   7.136  0.3195 -0.6212  0.2860
  864MOL0     H14000   8.235   4.408   7.090  0.0027  0.3433  1.9000
  864MOL0     H14001   8.249   4.600   6.767 -0.2546  2.0664  1.3593
  864MOL0     H14002   8.093   4.586   6.547 -0.2881  1.4285 -0.9096
  864MOL0     H14003   7.936   4.621   6.570  2.9742  2.1676 -1.2362
  864MOL0     H14004   7.863   4.381   6.604  0.3309 -1.5860 -1.6749
  864MOL0     H14005   8.029   4.326   6.623 -0.6992 -0.5948  2.2196
  864MOL0     H14006   7.936   4.252   6.427  1.1789 -0.0256  1.8720
  864MOL0     H14007   7.920   4.409   6.357 -0.6190 -0.1331 -0.6331
  864MOL0     H14008   8.115   4.302   6.273 -2.9994  0.8885 -0.7410
  864MOL0     H14009   8.190   4.288   6.436 -0.8662 -3.7158 -2.8497
  864MOL0     H14010   8.273   4.706   6.423 -2.0441 -0.0067 -1.3307
  864MOL0     H14011   8.518   4.786   6.373  2.2009 -0.1404 -3.5356
  864MOL0     H14012   8.966   4.763   6.334 -0.1461 -2.2536  2.1389
  864MOL0     H14013   9.201   4.807   6.277  0.0143 -0.6016  0.3957
  864MOL0     H14014   9.399   4.651   5.918  0.1627 -0.4102  0.0361
  864MOL0     H14015   9.393   4.498   6.006 -0.9814  0.7009  2.1306
  864MOL0     H14016   9.599   4.497   5.970  2.7279  1.6591 -1.0208
  864MOL0     H14017   9.613   4.572   6.131 -1.4303  1.0357  1.5184
  864MOL0     H14018   9.615   4.798   6.021 -4.1524 -1.3757  0.0223
  864MOL0     H14019   9.608   4.726   5.872 -1.9554  1.8177  1.1932
  864MOL0     H14020   9.809   4.611   5.864  0.0087  0.8414 -0.0725
  864MOL0     H14021   9.823   4.783   5.891 -1.4611  2.2787  2.4709
  864MOL0     H14022  10.001   4.649   6.017  0.7217 -1.6250  0.0719
  864MOL0     H14023   9.863   4.574   6.109 -0.4461 -1.0920 -1.1324
  864MOL0     H14024   9.817   4.805   6.212 -1.3732  0.1287 -2.7882
  864MOL0     H14025   9.947   4.869   6.103  1.0175 -0.7636 -1.4809
  864MOL0     H14026  10.018   4.639   6.291  1.2341  0.7738  0.8484
  864MOL0     H14027  10.113   4.769   6.208 -1.0716  5.8481  0.4853
  864MOL0     H14028   9.928   4.774   6.443 -0.9993 -2.6045 -0.6480
  864MOL0     H14029   9.981   4.932   6.360  0.0013  0.1833  2.8564
  864MOL0     H14030   9.189   4.482   5.994 -0.8622 -1.2175 -0.4432
  864MOL0     H14031   8.978   4.426   6.067  0.7229 -0.2962  0.2465
  864MOL0     H14032   8.599   4.392   6.224 -1.7881 -2.2353 -0.2390
  864MOL0     H14033   8.378   4.319   6.256  0.7878  0.6410 -1.6129
  864MOL0     H14034   8.872   5.268   7.386  0.2383 -1.1089  0.2953
  864MOL0     H14035   9.062   5.449   7.412 -1.6602 -0.1581 -0.3017
  864MOL0     H14036   9.487   5.643   7.026 -2.1253 -0.0296  0.0284
  864MOL0     H14037   9.716   5.736   7.076 -0.0373  2.9337  0.9546
  864MOL0     H14038   9.826   5.829   7.504 -1.8082 -2.1013  0.2216
  864MOL0     H14039   9.979   5.846   7.419  1.3212 -0.3688  2.8908
  864MOL0     H14040   9.917   5.632   7.590  2.7504  1.9717  1.5079
  864MOL0     H14041   9.909   5.559   7.425 -0.0091  0.2891 -0.4925
  864MOL0     H14042  10.142   5.722   7.547  1.3436  1.5973 -1.3971
  864MOL0     H14043  10.140   5.677   7.390  1.5722  2.1050  1.5815
  864MOL0     H14044  10.269   5.508   7.545  0.3859 -0.0036 -3.1244
  864MOL0     H14045  10.133   5.483   7.640 -0.5401 -0.4328  0.0702
  864MOL0     H14046  10.142   5.228   7.293 -0.2969  1.2459 -0.9957
  864MOL0     H14047   9.643   5.679   7.490 -0.7283  0.7327 -0.1962
  864MOL0     H14048   9.437   5.568   7.438 -0.9121  1.6156  0.2026
  865MOL0     O14049   1.076   4.200   1.443  0.7246  0.7237 -0.1856
  865MOL0     C14050   1.112   4.087   1.424 -0.4071  0.2725  0.0284
  865MOL0     O14051   1.039   3.975   1.456  0.0547  0.2969 -0.5437
  865MOL0     C14052   0.920   3.984   1.522  0.1164 -1.2024 -0.4452
  865MOL0     C14053   0.898   4.052   1.640  0.5260 -0.3396 -0.2568
  865MOL0     C14054   0.771   4.057   1.690 -0.3358 -0.3964  0.1901
  865MOL0     C14055   0.657   3.983   1.638 -0.6897 -0.0626 -0.0236
  865MOL0     O14056   0.535   3.988   1.706  0.3293  0.3728  0.4953
  865MOL0     C14057   0.447   3.876   1.683 -0.3066  0.0627  1.0920
  865MOL0     C14058   0.307   3.898   1.759 -0.8659 -1.1256 -0.9862
  865MOL0     C14059   0.222   4.003   1.698  0.4032  0.3215  0.1367
  865MOL0     C14060   0.085   4.016   1.759  0.2079  0.3170  0.1855
  865MOL0     C14061   0.002   4.094   1.668  0.7447 -1.1586  0.5862
  865MOL0     C14062  -0.143   4.105   1.715  0.1905 -0.4316 -0.2958
  865MOL0     C14063  -0.218   3.959   1.729  0.3840 -0.4516 -0.1334
  865MOL0     C14064  -0.354   3.982   1.802 -0.1957  0.7757  0.6072
  865MOL0     N14065  -0.462   4.022   1.714  0.8809 -0.5096 -0.2592
  865MOL0     C14066  -0.535   3.947   1.628 -0.5246 -0.3330 -0.5994
  865MOL0     C14067  -0.617   4.030   1.560 -0.7004 -0.1969 -0.5882
  865MOL0     C14068  -0.704   3.985   1.445  0.9155 -0.0266 -0.0452
  865MOL0     C14069  -0.746   4.111   1.365 -0.4984  0.1942  0.5876
  865MOL0     C14070  -0.775   4.076   1.214 -0.7242  0.7216 -0.5237
  865MOL0     C14071  -0.836   4.193   1.137  1.1720 -0.0610 -0.7784
  865MOL0     O14072  -0.958   4.259   1.182 -0.0583  1.2584 -0.5205
  865MOL0     C14073  -1.072   4.195   1.155 -0.5468  1.2915 -0.6101
  865MOL0     C14074  -1.129   4.185   1.028  0.4212 -1.1918  0.6054
  865MOL0     C14075  -1.255   4.124   1.007  0.1394 -0.6572 -0.5256
  865MOL0     C14076  -1.307   4.042   1.108 -1.7072  1.0341  0.8795
  865MOL0     C14077  -1.426   3.956   1.078 -0.8328  0.6006 -0.0119
  865MOL0     O14078  -1.480   3.876   1.175 -0.2935  0.3592  0.4181
  865MOL0     C14079  -1.598   3.807   1.170  0.6742  0.2672  0.2189
  865MOL0     C14080  -1.668   3.779   1.050 -0.2110  0.2895 -0.1231
  865MOL0     C14081  -1.779   3.699   1.055 -0.2218  1.1597  0.3694
  865MOL0     C14082  -1.844   3.657   1.172 -0.3598 -0.3997 -0.5217
  865MOL0     O14083  -1.967   3.592   1.162  0.1669 -0.0192  0.0820
  865MOL0     C14084  -2.032   3.543   1.282 -0.1121  0.0673 -0.3496
  865MOL0     C14085  -2.130   3.646   1.336  0.3733  0.3166  0.6855
  865MOL0     C14086  -2.237   3.676   1.228 -0.2420  0.0932  0.2624
  865MOL0     C14087  -2.354   3.759   1.281 -0.1165 -0.0567 -1.0221
  865MOL0     C14088  -2.462   3.760   1.172  1.1635 -0.0407 -0.1772
  865MOL0     C14089  -2.602   3.807   1.229 -0.0987  0.3133 -0.1610
  865MOL0     C14090  -2.677   3.693   1.297 -0.2448  0.0959 -0.9448
  865MOL0     C14091  -2.805   3.732   1.384 -0.4715 -0.7937  0.3180
  865MOL0    Cl14092  -2.749   3.881   1.490  0.0532 -0.1339  0.0521
  865MOL0     C14093  -1.779   3.697   1.291 -0.0103  0.8753  0.1139
  865MOL0     C14094  -1.657   3.762   1.293  0.7053 -0.6864 -0.3657
  865MOL0     O14095  -1.471   3.970   0.968  0.0068  0.0884 -0.0327
  865MOL0     C14096  -1.250   4.055   1.235 -0.8795  0.0110 -0.1087
  865MOL0     C14097  -1.134   4.129   1.260  0.2060  0.3415  0.4170
  865MOL0     N14098  -0.595   4.160   1.610  0.3939  0.1041 -1.1947
  865MOL0     N14099  -0.508   4.149   1.711 -0.5346 -0.1644  0.2800
  865MOL0     C14100   0.684   3.917   1.519  1.0649  0.7255 -0.4563
  865MOL0     C14101   0.811   3.919   1.468  0.7526 -1.0063  0.1551
  865MOL0     C14102   1.248   4.071   1.362  0.7724  0.3147  0.0130
  865MOL0     C14103   1.351   4.150   1.415 -0.0013 -0.0864 -0.3419
  865MOL0     C14104   1.486   4.125   1.394 -0.3467  0.0969  0.2960
  865MOL0     C14105   1.523   4.015   1.314  0.0633  0.0390  0.5686
  865MOL0     O14106   1.644   3.984   1.269 -0.4756  0.2131 -0.1077
  865MOL0     C14107   1.752   3.981   1.361 -0.5193  0.5699 -0.6387
  865MOL0     C14108   1.842   3.863   1.311  0.2748 -1.0490 -0.9729
  865MOL0     C14109   1.756   3.734   1.298 -0.9477 -0.0428 -0.2427
  865MOL0     C14110   1.849   3.613   1.313 -0.6947  0.8881  0.6090
  865MOL0     C14111   1.784   3.488   1.279 -0.0918  0.0752  0.0355
  865MOL0     C14112   1.739   3.384   1.242  0.4326  0.2994 -1.3817
  865MOL0     C14113   1.414   3.952   1.239 -0.0351 -0.2965 -1.0541
  865MOL0     C14114   1.282   3.974   1.262 -0.6128  0.4634 -0.9503
  865MOL0     H14115   0.977   4.107   1.690  2.2486 -2.8744 -0.0220
  865MOL0     H14116   0.751   4.132   1.766  0.7743 -0.9167  1.0269
  865MOL0     H14117   0.493   3.789   1.728 -0.0646 -0.5354 -0.2487
  865MOL0     H14118   0.432   3.853   1.577  2.3838 -0.2722  0.7131
  865MOL0     H14119   0.317   3.921   1.866 -1.6756  2.0276 -1.4847
  865MOL0     H14120   0.252   3.804   1.758  0.4761 -2.0516  1.7747
  865MOL0     H14121   0.207   3.977   1.592 -0.4294 -1.5482  0.6710
  865MOL0     H14122   0.280   4.096   1.699  2.9048 -1.1372  1.3084
  865MOL0     H14123   0.041   3.918   1.778  0.7783  0.1112  0.4530
  865MOL0     H14124   0.092   4.059   1.860 -1.9605  2.4095 -0.4439
  865MOL0     H14125  -0.004   4.047   1.570 -1.5481 -0.8443  0.5191
  865MOL0     H14126   0.032   4.195   1.643 -0.0546 -0.3839  2.5053
  865MOL0     H14127  -0.205   4.170   1.651  1.1851  1.7155  0.8390
  865MOL0     H14128  -0.141   4.149   1.815 -0.3608 -0.9538 -0.0429
  865MOL0     H14129  -0.224   3.896   1.640  1.2375  0.6480 -0.9882
  865MOL0     H14130  -0.161   3.906   1.806  0.1156 -2.4342 -1.2355
  865MOL0     H14131  -0.338   4.051   1.884 -1.6083  1.7573  0.1064
  865MOL0     H14132  -0.384   3.887   1.849 -4.7088  0.1861 -2.6834
  865MOL0     H14133  -0.501   3.847   1.603  0.4200 -0.1939  0.0559
  865MOL0     H14134  -0.794   3.932   1.475  0.9990 -0.9423 -1.3191
  865MOL0     H14135  -0.638   3.927   1.379  1.1551 -1.0793  1.0770
  865MOL0     H14136  -0.681   4.199   1.376  2.2417 -1.3852 -1.6435
  865MOL0     H14137  -0.840   4.150   1.406 -2.4530 -0.5045 -2.7784
  865MOL0     H14138  -0.685   4.046   1.160 -0.5232  0.0347  0.1840
  865MOL0     H14139  -0.843   3.991   1.226  0.1548 -0.0317 -0.7875
  865MOL0     H14140  -0.850   4.150   1.037 -0.7315  0.5336 -0.8193
  865MOL0     H14141  -0.759   4.270   1.150 -1.7782  2.8788  0.7641
  865MOL0     H14142  -1.091   4.243   0.944 -0.5834 -0.2444  0.7820
  865MOL0     H14143  -1.301   4.134   0.909 -1.4790  0.5808  0.3210
  865MOL0     H14144  -1.631   3.814   0.954 -1.4663  0.6981 -0.4780
  865MOL0     H14145  -1.829   3.669   0.964 -1.1434  0.0823  1.1997
  865MOL0     H14146  -1.971   3.520   1.369 -0.9635  1.7846  0.7639
  865MOL0     H14147  -2.094   3.455   1.263  1.0459 -0.9975  0.6561
  865MOL0     H14148  -2.069   3.730   1.373  3.0049 -2.5287  3.4376
  865MOL0     H14149  -2.179   3.605   1.425  1.4926  0.3507  1.3332
  865MOL0     H14150  -2.272   3.577   1.198  1.1827 -0.2617 -0.2777
  865MOL0     H14151  -2.202   3.719   1.133  0.3494 -1.9563 -0.4897
  865MOL0     H14152  -2.392   3.718   1.374 -2.2959 -2.2165 -2.7396
  865MOL0     H14153  -2.326   3.863   1.303 -0.4857 -0.5354  2.0945
  865MOL0     H14154  -2.468   3.658   1.132  0.9398 -0.3338  0.5889
  865MOL0     H14155  -2.448   3.816   1.078  0.3115  1.9443  0.8216
  865MOL0     H14156  -2.650   3.842   1.138  1.1033 -2.3365 -1.9462
  865MOL0     H14157  -2.593   3.895   1.292  1.9163 -0.9583  1.4994
  865MOL0     H14158  -2.712   3.628   1.216 -3.6051 -0.2027  0.5396
  865MOL0     H14159  -2.606   3.635   1.357 -1.2063  0.0410  0.2050
  865MOL0     H14160  -2.829   3.647   1.448  3.5561 -0.6396  2.3649
  865MOL0     H14161  -2.891   3.761   1.323 -1.3898 -2.5614  0.7241
  865MOL0     H14162  -1.826   3.671   1.385  0.9766  0.5956  0.5479
  865MOL0     H14163  -1.603   3.797   1.380  1.8344 -1.7894 -0.6031
  865MOL0     H14164  -1.289   4.005   1.323  1.6033 -1.8277  0.0370
  865MOL0     H14165  -1.097   4.147   1.360  2.4225  1.1236 -0.4663
  865MOL0     H14166   0.604   3.868   1.464  0.4702  0.4122  0.6757
  865MOL0     H14167   0.820   3.869   1.372 -1.2313  3.5137 -2.7296
  865MOL0     H14168   1.339   4.231   1.486  3.0046  2.1228 -2.1186
  865MOL0     H14169   1.559   4.195   1.433 -0.3008  2.4706 -3.4885
  865MOL0     H14170   1.730   3.972   1.468  0.8405  0.0215 -0.3842
  865MOL0     H14171   1.805   4.077   1.360 -0.0197  0.3818  1.6760
  865MOL0     H14172   1.873   3.891   1.210 -0.8001  0.3293 -0.9341
  865MOL0     H14173   1.932   3.843   1.371 -1.5260 -3.2904  1.1888
  865MOL0     H14174   1.704   3.727   1.201 -3.2999 -3.9035  1.0723
  865MOL0     H14175   1.684   3.732   1.380 -0.7673  0.1770 -0.0768
  865MOL0     H14176   1.928   3.616   1.238 -0.4397 -1.0391  0.7596
  865MOL0     H14177   1.885   3.612   1.416 -1.0535  1.6205  0.7485
  865MOL0     H14178   1.688   3.291   1.228 -1.7271  0.7403  2.4173
  865MOL0     H14179   1.438   3.881   1.161  1.5563 -1.3511  0.3214
  865MOL0     H14180   1.214   3.901   1.220 -0.3407  0.6369 -1.7118
  866MOL0     O14181  10.277   2.874   0.981 -0.9699 -0.0310  0.9335
  866MOL0     C14182  10.335   2.864   1.090 -0.2121 -0.1371  0.3270
  866MOL0     O14183  10.278   2.836   1.213 -0.2430 -0.0133  0.8554
  866MOL0     C14184  10.138   2.816   1.218 -0.4993  0.2492 -0.5507
  866MOL0     C14185  10.058   2.924   1.261 -0.4320  1.6076 -0.7052
  866MOL0     C14186   9.921   2.898   1.271  0.2690 -0.0613  0.4834
  866MOL0     C14187   9.862   2.770   1.267 -0.5205  0.9961 -0.0074
  866MOL0     O14188   9.732   2.739   1.291  0.7147  0.1772  0.0164
  866MOL0     C14189   9.635   2.844   1.293 -0.6091 -0.8875 -0.8577
  866MOL0     C14190   9.496   2.780   1.300  0.1443 -0.2426  0.3495
  866MOL0     C14191   9.435   2.714   1.165 -0.7086  0.7677 -0.2434
  866MOL0     C14192   9.278   2.686   1.167  0.5041 -0.4451  0.1416
  866MOL0     C14193   9.234   2.660   1.022  0.6518  0.0663 -0.3698
  866MOL0     C14194   9.086   2.625   1.013 -0.4630  0.5259 -0.0472
  866MOL0     C14195   9.044   2.595   0.871  0.0749  0.2285  0.4647
  866MOL0     C14196   8.893   2.562   0.878  0.4681 -0.0779 -0.1834
  866MOL0     N14197   8.792   2.675   0.880  0.4828  0.1267  0.9240
  866MOL0     C14198   8.760   2.753   0.768  0.8314  0.6555 -0.6942
  866MOL0     C14199   8.684   2.855   0.811 -1.1536 -1.2933 -0.5797
  866MOL0     C14200   8.635   2.961   0.713 -0.4935 -1.1237 -0.2978
  866MOL0     C14201   8.706   3.096   0.693 -0.2496  0.3192 -0.2857
  866MOL0     C14202   8.692   3.188   0.812  0.3873  0.1546 -0.6865
  866MOL0     C14203   8.545   3.237   0.836 -0.2694 -0.0292 -0.5755
  866MOL0     O14204   8.504   3.302   0.718 -0.1490  0.2986 -0.5194
  866MOL0     C14205   8.377   3.361   0.724 -0.0366  0.5764  1.1276
  866MOL0     C14206   8.331   3.405   0.594 -0.1820 -0.3546  0.3027
  866MOL0     C14207   8.196   3.445   0.568 -0.1161  0.3624 -0.6497
  866MOL0     C14208   8.117   3.464   0.679 -1.0463 -0.1911 -0.1503
  866MOL0     C14209   7.984   3.526   0.665 -0.8882  0.3521  0.3193
  866MOL0     O14210   7.907   3.543   0.771 -0.8174 -0.0773  0.5910
  866MOL0     C14211   7.792   3.621   0.766  0.7373  0.5599 -0.2615
  866MOL0     C14212   7.704   3.630   0.654 -0.3486 -0.4354  0.0904
  866MOL0     C14213   7.587   3.708   0.667 -0.0636  0.2721  0.1676
  866MOL0     C14214   7.551   3.763   0.786  0.6530  0.1416 -0.1898
  866MOL0     O14215   7.441   3.841   0.797  0.6223 -0.1615 -0.9270
  866MOL0     C14216   7.373   3.858   0.926 -0.5102 -0.1295  0.3760
  866MOL0     C14217   7.227   3.895   0.890  0.6993 -0.0605 -0.6258
  866MOL0     C14218   7.134   3.892   1.014  0.0654 -0.1819  0.4013
  866MOL0     C14219   6.986   3.919   0.977 -1.3533  0.5425  0.1682
  866MOL0     C14220   6.888   3.911   1.083  0.3109 -0.4595  0.3019
  866MOL0     C14221   6.743   3.982   1.063  0.4688 -0.8008 -0.0392
  866MOL0     C14222   6.642   3.932   1.168 -0.8733  0.1114 -1.1509
  866MOL0     C14223   6.531   4.034   1.162  0.0170 -0.7434  0.8831
  866MOL0    Cl14224   6.411   3.992   1.283  0.0038  0.1116 -0.1526
  866MOL0     C14225   7.623   3.728   0.901 -0.0415 -0.9579  0.4667
  866MOL0     C14226   7.750   3.669   0.882  0.6090 -0.6133 -0.9922
  866MOL0     O14227   7.952   3.553   0.546 -0.5645  0.5618  0.0503
  866MOL0     C14228   8.166   3.435   0.799 -1.0601 -0.0895 -0.1204
  866MOL0     C14229   8.286   3.373   0.827  0.1783 -0.1417 -1.0125
  866MOL0     N14230   8.681   2.845   0.954  0.1741  0.6610 -0.8216
  866MOL0     N14231   8.748   2.741   0.994 -0.8158  0.8346 -0.3246
  866MOL0     C14232   9.952   2.662   1.225  0.4316 -0.2694 -0.1123
  866MOL0     C14233  10.086   2.685   1.209  0.5324 -0.4869 -0.7902
  866MOL0     C14234  10.477   2.893   1.089  0.3655  0.8245 -0.0726
  866MOL0     C14235  10.558   2.852   1.193  0.0303 -0.4408 -0.4932
  866MOL0     C14236  10.694   2.889   1.187 -0.0448 -0.1647  0.0824
  866MOL0     C14237  10.748   2.958   1.079  0.8381  0.2676 -0.1335
  866MOL0     O14238  10.879   2.989   1.062 -0.0215  0.7231 -0.3662
  866MOL0     C14239  10.974   2.887   1.110  0.0796 -0.7471  0.5752
  866MOL0     C14240  11.113   2.937   1.064  0.3924 -0.3349  0.1798
  866MOL0     C14241  11.143   2.890   0.919  0.1837  0.1086 -0.0569
  866MOL0     C14242  11.287   2.928   0.888  0.6047  0.5829  0.1919
  866MOL0     C14243  11.302   2.888   0.742 -0.2218  0.2990  0.6978
  866MOL0     C14244  11.302   2.852   0.626  1.7646  0.1851 -0.2581
  866MOL0     C14245  10.664   2.999   0.974  0.2440  0.2169  0.3440
  866MOL0     C14246  10.529   2.972   0.984  0.2113 -0.8782  0.0240
  866MOL0     H14247  10.102   3.023   1.269 -1.0661  2.2839 -4.1247
  866MOL0     H14248   9.856   2.980   1.298 -0.4557 -0.5178  0.1456
  866MOL0     H14249   9.639   2.916   1.210 -0.1450 -1.2161 -1.1256
  866MOL0     H14250   9.649   2.893   1.389 -0.1443  0.0800 -1.4011
  866MOL0     H14251   9.425   2.857   1.331  0.4781  1.2199 -2.2362
  866MOL0     H14252   9.508   2.694   1.367  0.6845  0.3521  1.0438
  866MOL0     H14253   9.484   2.618   1.148  0.3010  1.5978 -2.3230
  866MOL0     H14254   9.461   2.782   1.083 -1.0070  3.0246  1.4266
  866MOL0     H14255   9.269   2.604   1.238  0.6360  1.1988  2.1457
  866MOL0     H14256   9.226   2.777   1.200  0.3694  0.7187 -2.9106
  866MOL0     H14257   9.294   2.576   0.986  0.7276  0.3490 -0.9078
  866MOL0     H14258   9.252   2.750   0.962  0.6142  0.5831  0.3692
  866MOL0     H14259   9.030   2.711   1.048  0.8200  1.3682  0.0255
  866MOL0     H14260   9.063   2.534   1.070  2.0950 -2.6091 -3.4516
  866MOL0     H14261   9.074   2.676   0.804  1.6842 -0.7136 -0.0024
  866MOL0     H14262   9.089   2.503   0.833 -1.8546  0.4181 -2.5568
  866MOL0     H14263   8.889   2.496   0.966  2.7763 -2.0577 -1.4264
  866MOL0     H14264   8.875   2.496   0.793  1.0643  0.3115 -0.6221
  866MOL0     H14265   8.797   2.735   0.668  0.7901 -2.2853 -0.2458
  866MOL0     H14266   8.527   2.970   0.729 -0.2395 -2.0772  2.3507
  866MOL0     H14267   8.627   2.901   0.622 -0.2741 -0.5824 -0.6819
  866MOL0     H14268   8.668   3.136   0.599 -4.2814 -0.1706  0.9780
  866MOL0     H14269   8.814   3.078   0.685  0.4627  3.8557 -0.4461
  866MOL0     H14270   8.721   3.150   0.911  1.0379  0.2597 -0.8331
  866MOL0     H14271   8.757   3.274   0.794  0.6348 -0.1203 -1.1421
  866MOL0     H14272   8.547   3.301   0.925  1.7478  0.9360 -1.2364
  866MOL0     H14273   8.480   3.154   0.863  0.1003  0.0742  0.7358
  866MOL0     H14274   8.401   3.376   0.516  0.9144 -0.1597  1.1735
  866MOL0     H14275   8.174   3.473   0.466  2.3825  0.3353 -1.2670
  866MOL0     H14276   7.737   3.573   0.569  0.7653 -1.0194  0.8863
  866MOL0     H14277   7.522   3.710   0.581 -2.4205  1.2723  1.8579
  866MOL0     H14278   7.414   3.942   0.983  0.5734 -1.3329  1.4225
  866MOL0     H14279   7.374   3.769   0.989 -0.8430  0.3267  1.0482
  866MOL0     H14280   7.195   3.819   0.818 -0.5139 -1.7122  1.5473
  866MOL0     H14281   7.220   3.990   0.835 -2.7623  0.6578  0.8068
  866MOL0     H14282   7.162   3.968   1.087  1.7546  0.8129 -1.1873
  866MOL0     H14283   7.158   3.796   1.061 -0.8232 -0.3488  0.5161
  866MOL0     H14284   6.991   4.018   0.929 -0.6881 -0.0465 -1.0251
  866MOL0     H14285   6.954   3.845   0.903 -1.8847  0.1466  0.7929
  866MOL0     H14286   6.926   3.941   1.181  2.9489 -0.0700 -0.7734
  866MOL0     H14287   6.871   3.806   1.105  1.0393 -0.3309  1.5546
  866MOL0     H14288   6.697   3.957   0.967 -0.1627  0.3732 -0.0656
  866MOL0     H14289   6.771   4.087   1.082  2.3189 -1.1244 -0.8036
  866MOL0     H14290   6.607   3.829   1.156 -2.0484 -0.0965  2.8487
  866MOL0     H14291   6.692   3.949   1.263  1.7107 -0.4817 -2.3188
  866MOL0     H14292   6.491   4.032   1.060  1.4863  2.5078  0.1092
  866MOL0     H14293   6.564   4.138   1.174 -2.3432  0.0316  1.3653
  866MOL0     H14294   7.596   3.749   1.005  0.9706 -0.2034  0.5912
  866MOL0     H14295   7.829   3.663   0.956  1.4252  0.9047 -1.6881
  866MOL0     H14296   8.105   3.462   0.885 -0.1785 -0.2105  0.5607
  866MOL0     H14297   8.307   3.360   0.932 -0.8207  2.0767 -0.4743
  866MOL0     H14298   9.909   2.567   1.194 -0.5764 -0.3230  1.3438
  866MOL0     H14299  10.150   2.600   1.189  1.8260  0.1703  0.3618
  866MOL0     H14300  10.519   2.792   1.275  0.7546 -1.6657 -1.0131
  866MOL0     H14301  10.762   2.862   1.268  0.1148 -2.7169 -0.8030
  866MOL0     H14302  10.963   2.793   1.055  2.1888  0.3332 -1.9601
  866MOL0     H14303  10.981   2.873   1.218 -0.1509 -2.8819  0.3528
  866MOL0     H14304  11.107   3.046   1.068 -2.3450 -0.4158  0.0894
  866MOL0     H14305  11.192   2.916   1.137  1.7324  3.3579 -0.0006
  866MOL0     H14306  11.079   2.954   0.857 -0.4074  0.1851  0.6180
  866MOL0     H14307  11.127   2.785   0.894  2.0421 -0.5443  1.2573
  866MOL0     H14308  11.301   3.036   0.891 -0.3021  0.7269 -0.5121
  866MOL0     H14309  11.351   2.871   0.956  0.3674 -1.2706 -1.0551
  866MOL0     H14310  11.305   2.825   0.522 -0.7653 -0.3207 -0.2691
  866MOL0     H14311  10.704   3.063   0.896 -3.3059  3.5664  0.9273
  866MOL0     H14312  10.455   3.026   0.926  0.0827 -0.2161  0.7936
  867MOL0     O14313   8.464   4.266   1.082 -0.1876  0.3061  0.1346
  867MOL0     C14314   8.561   4.252   1.156 -0.4500 -0.2928 -0.0210
  867MOL0     O14315   8.558   4.258   1.293  0.6290 -0.8541 -0.6740
  867MOL0     C14316   8.432   4.252   1.355  0.3022  0.7215 -0.3237
  867MOL0     C14317   8.371   4.364   1.404 -0.1645 -0.1591  1.6039
  867MOL0     C14318   8.246   4.355   1.474 -1.0231 -0.0547 -0.6099
  867MOL0     C14319   8.186   4.229   1.490  0.0376  0.7262 -0.2177
  867MOL0     O14320   8.072   4.232   1.574 -0.5117 -0.1480  0.4136
  867MOL0     C14321   8.001   4.111   1.597 -0.1461 -0.3992 -0.4064
  867MOL0     C14322   7.864   4.135   1.660  0.6683  0.2195 -0.2062
  867MOL0     C14323   7.753   4.216   1.586 -0.1844 -0.1572  0.7259
  867MOL0     C14324   7.621   4.213   1.666 -0.4311  0.9407 -0.3119
  867MOL0     C14325   7.511   4.246   1.565 -0.1936 -0.4508  0.6574
  867MOL0     C14326   7.384   4.275   1.648 -0.1992 -0.1752  0.7846
  867MOL0     C14327   7.256   4.295   1.567 -0.4697 -0.1139 -0.4929
  867MOL0     C14328   7.183   4.166   1.528  0.0806  0.1610 -0.5885
  867MOL0     N14329   7.040   4.184   1.488 -0.5371  0.2043 -0.0159
  867MOL0     C14330   6.943   4.251   1.556  0.1270  0.4346 -0.7275
  867MOL0     C14331   6.829   4.240   1.484 -0.3856 -0.2038  0.4316
  867MOL0     C14332   6.703   4.310   1.518  0.0675  0.3946  1.4598
  867MOL0     C14333   6.584   4.277   1.440 -0.4340  0.3169  0.0552
  867MOL0     C14334   6.467   4.323   1.523  0.7438  0.4787 -0.5019
  867MOL0     C14335   6.332   4.321   1.456 -0.1445  0.0516 -0.5136
  867MOL0     O14336   6.230   4.362   1.550  0.2628  0.5718 -0.1300
  867MOL0     C14337   6.108   4.390   1.495 -0.6410 -0.6935  0.5753
  867MOL0     C14338   6.006   4.440   1.580  0.8036  1.0092  0.4077
  867MOL0     C14339   5.884   4.467   1.524 -0.3606  0.0259 -0.1458
  867MOL0     C14340   5.852   4.445   1.385  0.3818  0.4299 -0.7265
  867MOL0     C14341   5.719   4.483   1.335 -0.2927 -0.5598 -0.7603
  867MOL0     O14342   5.640   4.543   1.431 -0.0561 -0.2422 -0.0001
  867MOL0     C14343   5.520   4.604   1.401  0.2520 -0.0259 -0.6331
  867MOL0     C14344   5.405   4.547   1.443  0.4674  0.6947 -0.0299
  867MOL0     C14345   5.277   4.597   1.414 -0.1152  0.2255  0.0452
  867MOL0     C14346   5.263   4.725   1.349 -0.1252  0.0852 -0.1511
  867MOL0     O14347   5.143   4.783   1.326  0.3821  1.4044 -0.1268
  867MOL0     C14348   5.005   4.728   1.368  0.3657  0.2673  0.3677
  867MOL0     C14349   4.915   4.852   1.386  0.4690  0.9493 -0.2473
  867MOL0     C14350   4.772   4.814   1.340  0.1281  0.2738 -0.6901
  867MOL0     C14351   4.667   4.916   1.385  0.3123  0.8537  0.6621
  867MOL0     C14352   4.519   4.868   1.346 -0.1888 -0.1557 -0.6750
  867MOL0     C14353   4.422   4.953   1.422  0.3037 -0.3103 -0.1433
  867MOL0     C14354   4.278   4.939   1.357 -0.4056 -0.1162 -0.5184
  867MOL0     C14355   4.183   5.047   1.408 -0.6599  0.2960  0.7720
  867MOL0    Cl14356   4.246   5.209   1.371  0.3113 -0.0833  0.5744
  867MOL0     C14357   5.378   4.782   1.305 -0.1035  0.4982 -0.5217
  867MOL0     C14358   5.508   4.720   1.341  0.4253 -0.3731  0.4646
  867MOL0     O14359   5.688   4.468   1.221  0.6846 -0.5463 -0.1809
  867MOL0     C14360   5.955   4.395   1.299 -0.3126 -0.8942  0.5790
  867MOL0     C14361   6.082   4.374   1.362  0.6346  0.2176  0.6465
  867MOL0     N14362   6.859   4.160   1.375 -0.2162  0.1912  0.8509
  867MOL0     N14363   6.980   4.120   1.380  0.5521 -0.1109  0.1809
  867MOL0     C14364   8.246   4.112   1.433 -0.6906 -0.2484  0.4619
  867MOL0     C14365   8.369   4.124   1.367 -0.2636 -0.3848  0.1378
  867MOL0     C14366   8.691   4.203   1.093 -0.4936 -0.0416 -0.0820
  867MOL0     C14367   8.696   4.137   0.974  0.2139  0.2208 -0.6675
  867MOL0     C14368   8.822   4.086   0.936  0.4735 -0.0967 -0.4045
  867MOL0     C14369   8.939   4.106   1.012  0.8771  0.6612 -0.5762
  867MOL0     O14370   9.065   4.067   0.992 -0.4345  0.3072  0.3126
  867MOL0     C14371   9.087   3.942   0.913 -1.6148 -1.0801 -0.5756
  867MOL0     C14372   9.227   3.897   0.919 -0.8313  0.7326 -0.2256
  867MOL0     C14373   9.321   3.995   0.849  0.2969  0.1871  0.4415
  867MOL0     C14374   9.395   4.092   0.937  0.1300  0.1735  0.4227
  867MOL0     C14375   9.486   4.167   0.854 -0.3926 -0.2032  0.5998
  867MOL0     C14376   9.576   4.226   0.791  0.1132  0.0527  0.4101
  867MOL0     C14377   8.929   4.186   1.129  0.6083  0.2533  0.2455
  867MOL0     C14378   8.811   4.229   1.167 -0.4016 -0.4762  0.0771
  867MOL0     H14379   8.416   4.459   1.375  1.3099 -1.8294 -2.2425
  867MOL0     H14380   8.208   4.444   1.525  1.0805  0.6254 -0.1351
  867MOL0     H14381   8.064   4.045   1.657 -0.1954 -0.1788 -0.1078
  867MOL0     H14382   7.974   4.064   1.502 -2.5840 -1.3032  0.6429
  867MOL0     H14383   7.895   4.194   1.747  1.2089  2.7690 -2.0069
  867MOL0     H14384   7.820   4.039   1.689 -0.3657 -0.0629 -2.5123
  867MOL0     H14385   7.745   4.175   1.486 -2.1791 -0.7072  1.0825
  867MOL0     H14386   7.779   4.323   1.579 -1.2507  0.0581 -0.2732
  867MOL0     H14387   7.596   4.116   1.710 -1.5150  0.7451 -1.3135
  867MOL0     H14388   7.628   4.279   1.754 -1.2789  0.0819  0.4171
  867MOL0     H14389   7.491   4.161   1.499  1.0810 -1.4054  1.4624
  867MOL0     H14390   7.532   4.341   1.515  1.0545 -0.3951  1.2551
  867MOL0     H14391   7.411   4.366   1.702 -0.2775  2.1191 -2.7767
  867MOL0     H14392   7.363   4.205   1.729 -0.9359 -0.4069  0.4011
  867MOL0     H14393   7.191   4.365   1.620  1.4303  2.1889 -0.9866
  867MOL0     H14394   7.280   4.360   1.482  1.0543  2.1111  1.4939
  867MOL0     H14395   7.177   4.102   1.617  0.8421 -1.4338 -1.6529
  867MOL0     H14396   7.233   4.117   1.444 -0.8497 -1.4140 -0.2811
  867MOL0     H14397   6.962   4.315   1.642 -0.3506  0.0841 -0.3586
  867MOL0     H14398   6.729   4.416   1.517  0.1749  0.4650 -2.4018
  867MOL0     H14399   6.685   4.287   1.624  1.1886 -3.6568  0.9305
  867MOL0     H14400   6.571   4.171   1.416  2.0818  0.1688 -0.9948
  867MOL0     H14401   6.592   4.329   1.344 -2.9266 -0.8908 -0.8807
  867MOL0     H14402   6.469   4.251   1.605  1.8353  0.6520 -0.3628
  867MOL0     H14403   6.479   4.424   1.565  0.2820  0.5496 -0.5373
  867MOL0     H14404   6.314   4.219   1.419 -0.3099  0.1829 -0.7971
  867MOL0     H14405   6.334   4.399   1.380 -0.9991 -0.9262 -1.5751
  867MOL0     H14406   6.019   4.463   1.685 -2.0788  1.8526  0.6626
  867MOL0     H14407   5.810   4.503   1.595  0.8917  1.4454  0.5029
  867MOL0     H14408   5.420   4.445   1.475 -0.0037  0.5169 -0.3684
  867MOL0     H14409   5.190   4.537   1.441  0.6609 -0.5246  0.9802
  867MOL0     H14410   5.002   4.665   1.457 -3.9938  1.4212  1.2744
  867MOL0     H14411   4.970   4.672   1.281 -4.8927  4.2859 -0.5902
  867MOL0     H14412   4.948   4.930   1.318 -2.2160  0.1444 -2.7083
  867MOL0     H14413   4.911   4.887   1.490 -2.4899 -0.0658  0.0921
  867MOL0     H14414   4.736   4.731   1.401  2.7704 -0.7104 -0.3463
  867MOL0     H14415   4.766   4.789   1.233  1.0375 -1.4243 -0.3802
  867MOL0     H14416   4.674   4.911   1.494 -0.0163 -1.3235  0.6236
  867MOL0     H14417   4.684   5.014   1.339 -1.1680  0.2968 -1.2178
  867MOL0     H14418   4.490   4.767   1.379 -2.6812  0.5554 -0.4787
  867MOL0     H14419   4.497   4.885   1.240 -0.3397 -0.2154 -0.6531
  867MOL0     H14420   4.457   5.056   1.407 -0.7557  0.7020  3.3286
  867MOL0     H14421   4.411   4.941   1.530 -1.1693 -0.2784 -0.2759
  867MOL0     H14422   4.286   4.949   1.248 -2.9976  0.0624 -0.7422
  867MOL0     H14423   4.248   4.842   1.396  1.7116 -0.6619 -0.1210
  867MOL0     H14424   4.173   5.047   1.517  0.3671  0.4877  0.8771
  867MOL0     H14425   4.080   5.045   1.369 -0.9373  1.7128  1.3730
  867MOL0     H14426   5.385   4.869   1.240  5.1195  1.9166  1.4412
  867MOL0     H14427   5.603   4.764   1.314 -1.3698  1.8855 -2.7844
  867MOL0     H14428   5.948   4.384   1.192 -0.8985 -0.1225  0.5330
  867MOL0     H14429   6.151   4.332   1.290 -0.7995 -3.0087  0.9617
  867MOL0     H14430   8.201   4.016   1.457 -3.5793  0.7591 -0.5029
  867MOL0     H14431   8.419   4.033   1.334  4.1802  0.1272  4.3055
  867MOL0     H14432   8.605   4.127   0.915  2.1182 -1.7139 -3.5488
  867MOL0     H14433   8.834   4.030   0.844  2.5737  2.1814 -1.6273
  867MOL0     H14434   9.062   3.970   0.810  2.6609  3.5490 -0.7069
  867MOL0     H14435   9.022   3.867   0.961  0.8298 -1.2962  2.7432
  867MOL0     H14436   9.254   3.873   1.022 -3.0800 -2.3406 -0.2277
  867MOL0     H14437   9.241   3.803   0.864  2.8654  0.0081  1.6127
  867MOL0     H14438   9.266   4.054   0.775 -1.3960 -0.4420  1.1477
  867MOL0     H14439   9.389   3.927   0.796  1.2964 -1.8538  3.9682
  867MOL0     H14440   9.331   4.168   0.983  3.2497  0.2243  5.5212
  867MOL0     H14441   9.442   4.038   1.020 -2.2120 -1.1802  0.9516
  867MOL0     H14442   9.651   4.284   0.742  0.5925 -2.8615 -2.7089
  867MOL0     H14443   9.015   4.215   1.188 -1.5227 -1.3965  4.6065
  867MOL0     H14444   8.808   4.291   1.256 -0.8347 -1.8536  1.0448
  868MOL0     O14445   6.078   5.432   5.147 -0.6068  0.0439 -0.0155
  868MOL0     C14446   5.992   5.361   5.096  0.7411  0.4194 -0.1826
  868MOL0     O14447   6.013   5.237   5.038 -0.4870  0.1191  0.3693
  868MOL0     C14448   6.129   5.169   5.055  0.2800  0.3055  0.3330
  868MOL0     C14449   6.258   5.220   5.038 -0.1630  0.1789  0.3257
  868MOL0     C14450   6.367   5.139   5.064 -0.3162  0.1970  0.3929
  868MOL0     C14451   6.358   5.003   5.097  0.1986 -0.6290  0.2181
  868MOL0     O14452   6.464   4.912   5.106  0.5428  0.0665  0.4785
  868MOL0     C14453   6.591   4.948   5.056  0.4541  0.3905 -0.5213
  868MOL0     C14454   6.658   4.816   5.027  0.8132  0.3665  0.0373
  868MOL0     C14455   6.659   4.719   5.147  0.8055 -1.1711 -0.8507
  868MOL0     C14456   6.749   4.597   5.117 -0.4147  0.7971  0.1254
  868MOL0     C14457   6.851   4.554   5.236 -0.0760 -0.0507 -0.5654
  868MOL0     C14458   6.918   4.416   5.205  0.0119 -0.4709  0.4718
  868MOL0     C14459   6.955   4.349   5.342 -0.0738  0.4569  0.0178
  868MOL0     C14460   7.056   4.428   5.425  0.2781 -0.4251 -0.3537
  868MOL0     N14461   7.196   4.445   5.377 -0.0767  1.3961  1.2710
  868MOL0     C14462   7.280   4.337   5.334  0.4815 -0.2764  0.3151
  868MOL0     C14463   7.392   4.405   5.296  0.8419 -0.3840  0.3253
  868MOL0     C14464   7.519   4.343   5.251 -0.0638 -0.2971 -0.3456
  868MOL0     C14465   7.621   4.438   5.189 -0.7092 -0.3310  0.1962
  868MOL0     C14466   7.737   4.365   5.130  0.2083 -0.3932 -0.0086
  868MOL0     C14467   7.867   4.444   5.147 -0.1051 -1.1433  0.4674
  868MOL0     O14468   7.942   4.422   5.268 -0.2910 -0.0466 -0.5053
  868MOL0     C14469   8.080   4.436   5.259 -0.3903  0.6610 -1.0237
  868MOL0     C14470   8.155   4.511   5.161  1.1879 -0.6546 -0.2419
  868MOL0     C14471   8.296   4.514   5.152  0.1791  0.9246  0.7464
  868MOL0     C14472   8.368   4.425   5.223  0.2126  0.5178  0.0672
  868MOL0     C14473   8.511   4.430   5.219 -0.2352  0.1938 -0.5957
  868MOL0     O14474   8.579   4.346   5.310 -0.2089 -0.2917  0.7186
  868MOL0     C14475   8.706   4.385   5.347 -0.2784 -0.8751 -0.0102
  868MOL0     C14476   8.803   4.298   5.303  0.1985 -0.3374  0.8261
  868MOL0     C14477   8.934   4.315   5.333  0.1462  0.2501 -0.3094
  868MOL0     C14478   8.968   4.436   5.400  0.0591 -0.5645  0.4462
  868MOL0     O14479   9.096   4.466   5.405 -0.6249  0.7751  0.5332
  868MOL0     C14480   9.152   4.546   5.510  0.7902 -0.8449  0.3961
  868MOL0     C14481   9.300   4.576   5.496  0.1506  0.6341 -0.2197
  868MOL0     C14482   9.381   4.462   5.558  0.2774  0.4534  1.0204
  868MOL0     C14483   9.531   4.477   5.535  0.8190  0.2199  0.2382
  868MOL0     C14484   9.617   4.372   5.601  1.0425  0.3078 -0.8674
  868MOL0     C14485   9.768   4.401   5.597 -0.0460  0.4664  0.1127
  868MOL0     C14486   9.851   4.275   5.644 -0.3244  0.5262 -0.0504
  868MOL0     C14487   9.997   4.324   5.682 -0.4527  0.3429  0.2561
  868MOL0    Cl14488  10.006   4.408   5.848  0.3789  0.2790 -0.4069
  868MOL0     C14489   8.867   4.527   5.450  0.5980 -0.0244  0.1067
  868MOL0     C14490   8.730   4.498   5.416 -0.4151  0.1170 -0.8596
  868MOL0     O14491   8.562   4.499   5.130 -0.2284  1.0092 -0.4295
  868MOL0     C14492   8.301   4.345   5.328  0.2305 -0.3480  0.1881
  868MOL0     C14493   8.160   4.353   5.348  0.4464  1.9352  1.0728
  868MOL0     N14494   7.373   4.535   5.319  0.2803 -0.0545 -0.4046
  868MOL0     N14495   7.251   4.564   5.356  0.0161  0.1055 -0.1469
  868MOL0     C14496   6.224   4.946   5.094  0.0386 -0.4797  0.4760
  868MOL0     C14497   6.112   5.034   5.079  0.7333 -0.7140  0.1196
  868MOL0     C14498   5.857   5.413   5.075  0.3685 -0.5574 -0.2295
  868MOL0     C14499   5.765   5.344   5.005 -0.2473  0.1817  0.2981
  868MOL0     C14500   5.639   5.393   4.973  1.1096  0.0864 -0.9651
  868MOL0     C14501   5.604   5.521   5.019  0.5737  0.2243 -0.0285
  868MOL0     O14502   5.482   5.581   5.007  0.2025 -0.4189  0.0281
  868MOL0     C14503   5.372   5.523   4.953  0.7366  0.2875 -0.2794
  868MOL0     C14504   5.261   5.626   4.966  0.3846  0.2513 -0.5209
  868MOL0     C14505   5.168   5.612   4.841 -0.2913  0.2743  0.2526
  868MOL0     C14506   5.038   5.687   4.865 -0.1887 -1.1874  0.3094
  868MOL0     C14507   4.945   5.609   4.942  0.6661 -0.3841 -0.3798
  868MOL0     C14508   4.885   5.537   5.018  0.6649  0.4421  0.1982
  868MOL0     C14509   5.698   5.597   5.087 -0.3902  0.4123 -0.5707
  868MOL0     C14510   5.827   5.549   5.111 -0.1176 -0.6196  0.2802
  868MOL0     H14511   6.244   5.321   5.002 -1.2636 -0.8697 -2.5029
  868MOL0     H14512   6.460   5.187   5.033  0.5748 -2.7196 -1.9307
  868MOL0     H14513   6.647   5.002   5.133  0.9755  0.1704 -0.7397
  868MOL0     H14514   6.589   5.005   4.962  0.1490  2.3632  0.6454
  868MOL0     H14515   6.764   4.840   5.015  0.4234  1.0185 -2.7887
  868MOL0     H14516   6.613   4.774   4.937 -1.4258  1.3034  0.6398
  868MOL0     H14517   6.561   4.680   5.176  0.6612  0.2544  0.7353
  868MOL0     H14518   6.706   4.762   5.236 -0.8635  0.1203 -0.5505
  868MOL0     H14519   6.683   4.511   5.106  1.6308 -0.6545 -1.5465
  868MOL0     H14520   6.796   4.599   5.019  0.6410  0.3091  0.6049
  868MOL0     H14521   6.787   4.554   5.325  0.5794 -1.3016 -0.0773
  868MOL0     H14522   6.924   4.631   5.263 -0.5424  0.0849  0.3592
  868MOL0     H14523   7.016   4.427   5.158  0.1916 -2.6107  0.2425
  868MOL0     H14524   6.854   4.350   5.146  0.9957 -2.0899  1.1614
  868MOL0     H14525   6.859   4.356   5.395 -0.6843  1.5457 -1.1847
  868MOL0     H14526   6.975   4.242   5.332 -0.3281  0.4867 -0.8917
  868MOL0     H14527   7.058   4.378   5.522 -1.6846 -1.0726 -0.6003
  868MOL0     H14528   7.005   4.523   5.448  0.0180 -0.2754 -1.4856
  868MOL0     H14529   7.256   4.231   5.341  1.5749 -0.8314 -2.5411
  868MOL0     H14530   7.499   4.275   5.167  2.0807 -1.8527  0.3215
  868MOL0     H14531   7.569   4.296   5.336  0.1826 -0.1450 -0.4044
  868MOL0     H14532   7.659   4.494   5.275 -0.5434 -1.0298  0.5803
  868MOL0     H14533   7.573   4.503   5.114  0.3828 -0.8252 -0.9615
  868MOL0     H14534   7.754   4.275   5.189  1.3952  1.4233  2.5963
  868MOL0     H14535   7.719   4.333   5.027  0.7014  1.5002 -0.7268
  868MOL0     H14536   7.844   4.548   5.121  1.3919 -0.7317  0.6816
  868MOL0     H14537   7.929   4.399   5.069  0.2207 -1.1013  0.7010
  868MOL0     H14538   8.093   4.582   5.107  0.4555 -1.3131 -0.2715
  868MOL0     H14539   8.334   4.584   5.079 -1.5310 -0.9528 -2.1955
  868MOL0     H14540   8.773   4.209   5.249 -3.4082  0.6571  0.9152
  868MOL0     H14541   9.006   4.245   5.293  0.5696  0.2031  0.5084
  868MOL0     H14542   9.133   4.511   5.611  4.1658  3.1117  2.7482
  868MOL0     H14543   9.108   4.646   5.507  0.3121 -1.0592 -2.2190
  868MOL0     H14544   9.325   4.673   5.539 -0.6373  0.7005  0.1070
  868MOL0     H14545   9.325   4.574   5.390 -0.8689 -3.2315 -0.5584
  868MOL0     H14546   9.345   4.370   5.511 -2.6963  2.2380 -0.4840
  868MOL0     H14547   9.362   4.446   5.665 -2.0788 -1.0754  0.4399
  868MOL0     H14548   9.555   4.477   5.429  1.3831 -2.7150  0.3004
  868MOL0     H14549   9.560   4.571   5.583  0.4983 -0.2404  1.3680
  868MOL0     H14550   9.602   4.276   5.552  1.4908 -0.7821  1.0189
  868MOL0     H14551   9.591   4.376   5.708  0.3126 -0.5917 -0.9999
  868MOL0     H14552   9.798   4.495   5.645  1.0737  1.1288 -1.7908
  868MOL0     H14553   9.812   4.415   5.498  3.1520 -2.1059  1.0234
  868MOL0     H14554   9.800   4.231   5.730 -1.7516 -1.9000 -2.0173
  868MOL0     H14555   9.879   4.195   5.575  0.2782 -1.8152  2.6903
  868MOL0     H14556  10.034   4.389   5.603 -0.7428 -0.1562 -0.2962
  868MOL0     H14557  10.064   4.237   5.680 -0.1294  0.5883  0.3321
  868MOL0     H14558   8.897   4.623   5.490  1.8391 -0.1613 -0.4626
  868MOL0     H14559   8.655   4.574   5.435 -0.6457  0.0406 -1.4324
  868MOL0     H14560   8.363   4.276   5.383  0.0646 -2.1721 -1.7882
  868MOL0     H14561   8.108   4.291   5.420  1.3042  0.4922  0.4910
  868MOL0     H14562   6.202   4.841   5.114 -0.2203 -0.5159  0.0181
  868MOL0     H14563   6.007   5.006   5.083 -0.7617  3.2458 -3.6020
  868MOL0     H14564   5.787   5.243   4.975  0.3401  0.7562 -1.3018
  868MOL0     H14565   5.572   5.325   4.920  0.9816 -0.4871 -0.0942
  868MOL0     H14566   5.344   5.440   5.019 -1.4212  0.5673 -0.7454
  868MOL0     H14567   5.389   5.493   4.849  1.4726 -1.4924  0.3252
  868MOL0     H14568   5.207   5.605   5.059  1.8067  1.3271  0.6139
  868MOL0     H14569   5.288   5.732   4.961 -2.6762  1.1296 -0.2349
  868MOL0     H14570   5.150   5.505   4.823  3.2152  0.0702 -3.5832
  868MOL0     H14571   5.214   5.656   4.753  0.6710  1.9712  1.5611
  868MOL0     H14572   5.050   5.779   4.922 -2.9130 -1.0016  0.7145
  868MOL0     H14573   4.996   5.708   4.766  0.5962 -2.9529 -0.4508
  868MOL0     H14574   4.830   5.479   5.088  2.1421  1.0871  1.9722
  868MOL0     H14575   5.681   5.697   5.127 -1.1784 -0.1228  0.4764
  868MOL0     H14576   5.895   5.611   5.169 -3.1698  0.0773  3.4302
  869MOL0     O14577  10.318   1.404   9.245 -0.6157  0.1625 -0.2972
  869MOL0     C14578  10.216   1.345   9.246  1.4246  0.5016 -0.0630
  869MOL0     O14579  10.190   1.224   9.282  0.0153 -0.0862  0.0459
  869MOL0     C14580  10.306   1.152   9.326 -0.1767 -1.8496  0.2168
  869MOL0     C14581  10.358   1.071   9.229 -0.3216 -0.4737 -0.6335
  869MOL0     C14582  10.472   0.994   9.242  0.0699  0.0521 -0.4134
  869MOL0     C14583  10.544   1.008   9.361  0.5485 -0.5364 -1.0007
  869MOL0     O14584  10.650   0.929   9.401 -0.2974 -0.2722 -0.4615
  869MOL0     C14585  10.766   0.935   9.314 -0.3762  0.7454 -1.1061
  869MOL0     C14586  10.890   0.879   9.381  0.3817  0.4842 -0.5703
  869MOL0     C14587  10.863   0.740   9.422  0.4445 -0.0305  0.4058
  869MOL0     C14588  10.991   0.665   9.455 -0.9234 -0.1584 -0.4022
  869MOL0     C14589  10.963   0.519   9.439  0.3823 -0.1651 -0.1714
  869MOL0     C14590  11.017   0.421   9.549  0.5113 -0.1082  0.3862
  869MOL0     C14591  11.171   0.418   9.567  0.3622  0.2260  0.1507
  869MOL0     C14592  11.229   0.359   9.436  0.0321  0.9861  0.2092
  869MOL0     N14593  11.366   0.337   9.468 -0.1845  1.1245 -1.0107
  869MOL0     C14594  11.459   0.433   9.454  0.3625  0.8445 -0.2624
  869MOL0     C14595  11.570   0.382   9.507  0.1285  0.1867  0.2993
  869MOL0     C14596  11.701   0.454   9.517 -0.1767 -1.1820 -0.2015
  869MOL0     C14597  11.813   0.418   9.419  0.1189  1.0825  0.6902
  869MOL0     C14598  11.764   0.421   9.267  0.1474 -0.4761 -1.1639
  869MOL0     C14599  11.777   0.573   9.224  0.1937  0.7015  0.2472
  869MOL0     O14600  11.662   0.648   9.276  0.1115 -0.4464  0.2885
  869MOL0     C14601  11.541   0.641   9.210 -0.2302 -0.0452 -0.4116
  869MOL0     C14602  11.491   0.547   9.122  0.6564  0.4733 -0.6745
  869MOL0     C14603  11.351   0.564   9.083 -0.3563 -0.2124 -0.3891
  869MOL0     C14604  11.275   0.685   9.110  0.1579 -1.0537 -0.0432
  869MOL0     C14605  11.130   0.702   9.073  0.1764 -0.1376  0.4365
  869MOL0     O14606  11.087   0.602   8.992  0.1518  0.4083 -0.7529
  869MOL0     C14607  10.965   0.614   8.940  0.1678  0.5969 -0.3166
  869MOL0     C14608  10.957   0.604   8.803  0.5215 -0.3187 -0.5102
  869MOL0     C14609  10.832   0.585   8.734 -0.9514 -0.9966 -0.0138
  869MOL0     C14610  10.718   0.597   8.811 -0.2570 -0.0777 -0.1471
  869MOL0     O14611  10.600   0.595   8.740  0.3864 -0.0956 -0.0407
  869MOL0     C14612  10.517   0.707   8.777  0.0944 -0.1982 -0.5316
  869MOL0     C14613  10.479   0.807   8.667  0.6585 -0.8260  0.0264
  869MOL0     C14614  10.422   0.749   8.535  0.0761 -0.0489  0.6356
  869MOL0     C14615  10.284   0.688   8.563  0.1195  0.0466 -0.0638
  869MOL0     C14616  10.235   0.621   8.435  0.3773 -0.1281 -1.1728
  869MOL0     C14617  10.142   0.504   8.473 -0.2411 -0.0205 -0.4805
  869MOL0     C14618  10.025   0.533   8.559  0.5534 -0.2430  0.2541
  869MOL0     C14619   9.904   0.615   8.512  0.0165  0.2537  0.8632
  869MOL0    Cl14620   9.771   0.620   8.626  0.6225  0.2109 -0.2529
  869MOL0     C14621  10.722   0.599   8.949  0.3632 -0.1835  0.1288
  869MOL0     C14622  10.844   0.605   9.018 -0.4878 -0.4790  0.4831
  869MOL0     O14623  11.060   0.800   9.107 -0.7638  0.1037 -0.0406
  869MOL0     C14624  11.353   0.786   9.183  0.0868 -0.4647  1.4022
  869MOL0     C14625  11.473   0.759   9.243  0.0778 -0.5017  0.5798
  869MOL0     N14626  11.542   0.254   9.545  0.1938 -0.4763 -0.3433
  869MOL0     N14627  11.420   0.228   9.526  0.3858 -0.3866 -0.0529
  869MOL0     C14628  10.505   1.104   9.458  0.7235 -0.0106  0.7019
  869MOL0     C14629  10.385   1.173   9.439  0.0605 -0.0338  1.2221
  869MOL0     C14630  10.102   1.429   9.194  0.5663  0.5551 -0.4879
  869MOL0     C14631  10.124   1.563   9.157  0.6366  0.0160 -0.0355
  869MOL0     C14632  10.024   1.637   9.103  0.0303 -0.3046 -0.4835
  869MOL0     C14633   9.891   1.587   9.088  0.3481 -0.2663  0.1987
  869MOL0     O14634   9.782   1.641   9.012 -0.2745 -0.0999  0.1274
  869MOL0     C14635   9.795   1.780   8.983  0.4104 -0.5063  0.4761
  869MOL0     C14636   9.652   1.841   8.969 -0.8111 -0.4104  0.3909
  869MOL0     C14637   9.611   1.910   9.101 -0.1104  0.3413  0.0513
  869MOL0     C14638   9.508   2.025   9.075 -0.0405  0.2208 -0.3903
  869MOL0     C14639   9.396   1.976   9.001 -0.4096  0.3924  0.0784
  869MOL0     C14640   9.307   1.933   8.933  0.6274 -0.5044 -0.2639
  869MOL0     C14641   9.861   1.459   9.148  0.1606 -0.0334  0.2025
  869MOL0     C14642   9.964   1.383   9.201 -0.5091  0.3801  0.0220
  869MOL0     H14643  10.307   1.061   9.134 -0.0110 -0.5242 -0.7977
  869MOL0     H14644  10.504   0.918   9.172  0.2938  0.7698 -1.1023
  869MOL0     H14645  10.797   1.035   9.283  1.3772  0.7191  0.3649
  869MOL0     H14646  10.733   0.875   9.229 -1.7568  1.3099 -0.9944
  869MOL0     H14647  10.914   0.934   9.473 -1.5204 -0.3277  0.4895
  869MOL0     H14648  10.980   0.897   9.322  0.6996  0.5811 -0.0656
  869MOL0     H14649  10.817   0.688   9.337  4.4540 -0.8065 -1.5719
  869MOL0     H14650  10.788   0.737   9.502 -0.5633 -4.5471 -0.4317
  869MOL0     H14651  11.080   0.701   9.403 -2.3441  2.3387 -1.2962
  869MOL0     H14652  10.999   0.683   9.563 -2.2453  0.3627 -0.3687
  869MOL0     H14653  10.988   0.481   9.340 -1.7669 -0.2377 -0.7465
  869MOL0     H14654  10.855   0.504   9.447 -0.1853  1.0443 -3.6371
  869MOL0     H14655  10.988   0.318   9.526 -3.2904  1.3043 -2.1663
  869MOL0     H14656  10.965   0.438   9.643 -1.0083  1.2132 -0.6488
  869MOL0     H14657  11.224   0.509   9.594  1.0438 -0.7130  2.1406
  869MOL0     H14658  11.191   0.344   9.644  2.0710  1.1794  0.6706
  869MOL0     H14659  11.203   0.416   9.346 -0.1607  1.7184  0.7094
  869MOL0     H14660  11.186   0.259   9.431  0.6221  0.6815  1.0660
  869MOL0     H14661  11.449   0.532   9.411  0.4052  0.0117 -2.3341
  869MOL0     H14662  11.740   0.429   9.616 -1.0344  0.0895  0.4973
  869MOL0     H14663  11.684   0.563   9.514 -3.4753 -1.5824 -0.5130
  869MOL0     H14664  11.834   0.312   9.439  0.3481  0.1174 -3.6711
  869MOL0     H14665  11.905   0.466   9.451  1.4089 -0.6209 -0.2981
  869MOL0     H14666  11.812   0.353   9.196 -1.4791  0.7240 -3.5719
  869MOL0     H14667  11.660   0.388   9.262 -0.3953  1.2204 -2.3748
  869MOL0     H14668  11.767   0.575   9.115 -1.5208 -2.0187  0.2611
  869MOL0     H14669  11.877   0.605   9.252  0.7188 -0.6676  0.0171
  869MOL0     H14670  11.532   0.454   9.084  1.2702 -0.2812  1.6895
  869MOL0     H14671  11.309   0.479   9.031 -1.2306  1.2123 -2.1163
  869MOL0     H14672  11.053   0.604   8.752  1.0087  3.5172  0.0751
  869MOL0     H14673  10.832   0.569   8.627  0.9414  0.9586 -0.3646
  869MOL0     H14674  10.552   0.771   8.859 -1.8664  1.6102 -1.0193
  869MOL0     H14675  10.423   0.671   8.820 -0.6044  2.0974  0.0252
  869MOL0     H14676  10.579   0.849   8.647  1.0285 -0.9585  1.4638
  869MOL0     H14677  10.418   0.893   8.694 -0.6336 -1.5542 -0.5274
  869MOL0     H14678  10.493   0.672   8.504  0.3630 -1.0060  3.3694
  869MOL0     H14679  10.410   0.817   8.450  2.2461 -1.1869 -0.6518
  869MOL0     H14680  10.286   0.621   8.649 -3.3912 -0.8558 -0.5356
  869MOL0     H14681  10.217   0.768   8.598 -0.0488 -0.0162 -0.2431
  869MOL0     H14682  10.319   0.586   8.375  0.2706 -0.0602 -1.3629
  869MOL0     H14683  10.178   0.691   8.374  0.8518 -0.5732 -2.1477
  869MOL0     H14684  10.214   0.436   8.519  1.4052  1.6526 -0.4699
  869MOL0     H14685  10.112   0.460   8.377 -0.0784  2.2836 -1.6446
  869MOL0     H14686   9.989   0.433   8.583  2.0729 -1.4125 -1.9787
  869MOL0     H14687  10.056   0.586   8.650 -0.1295  0.6004  0.0126
  869MOL0     H14688   9.874   0.576   8.415 -1.3136 -0.8474  1.6783
  869MOL0     H14689   9.936   0.719   8.503 -2.7320  1.0938 -0.3458
  869MOL0     H14690  10.626   0.594   8.999 -0.5356 -1.3888 -1.6226
  869MOL0     H14691  10.843   0.622   9.126 -0.1820  0.7469  0.3099
  869MOL0     H14692  11.292   0.871   9.214  0.2407 -0.6710  2.3122
  869MOL0     H14693  11.537   0.825   9.300 -1.1122  0.4658  0.8326
  869MOL0     H14694  10.577   1.118   9.539  1.6192 -0.1553 -0.0503
  869MOL0     H14695  10.358   1.241   9.519  0.2253  1.1676  0.2758
  869MOL0     H14696  10.221   1.613   9.156  0.4678  0.4035 -2.4451
  869MOL0     H14697  10.052   1.723   9.043  0.7053  0.6080  1.0586
  869MOL0     H14698   9.848   1.788   8.887 -0.0847 -1.1581  0.1323
  869MOL0     H14699   9.855   1.836   9.054  1.0047 -0.9110  0.2991
  869MOL0     H14700   9.653   1.910   8.884 -1.2402 -1.0562 -0.1443
  869MOL0     H14701   9.582   1.763   8.939  0.4154 -0.8969 -1.3359
  869MOL0     H14702   9.697   1.954   9.152 -1.4534  0.7651  2.0784
  869MOL0     H14703   9.573   1.840   9.176  3.1391  1.8400  3.4195
  869MOL0     H14704   9.464   2.065   9.167  0.3656  1.3517 -0.6654
  869MOL0     H14705   9.550   2.109   9.020  0.6901 -1.7545 -3.0195
  869MOL0     H14706   9.218   1.908   8.878 -0.4977  0.8942  0.8350
  869MOL0     H14707   9.763   1.425   9.116  1.0389 -1.1355 -1.4508
  869MOL0     H14708   9.936   1.284   9.233 -0.8634  0.7573  0.9201
  870MOL0     O14709   9.913   4.870   0.574 -0.2459  0.4499  0.0571
  870MOL0     C14710  10.009   4.787   0.572  0.3495  0.0392  1.0167
  870MOL0     O14711  10.006   4.655   0.552  0.3611 -0.3876  0.2314
  870MOL0     C14712   9.886   4.586   0.540 -0.1446  0.2377  0.3804
  870MOL0     C14713   9.889   4.481   0.449 -0.9430 -0.4033  0.5858
  870MOL0     C14714   9.777   4.408   0.430  0.3304 -0.2604 -1.0791
  870MOL0     C14715   9.653   4.442   0.481  0.6585 -0.6375  0.2609
  870MOL0     O14716   9.534   4.367   0.455 -0.0397 -0.3044  0.3279
  870MOL0     C14717   9.473   4.404   0.327  0.0471 -1.4873 -0.1461
  870MOL0     C14718   9.540   4.324   0.213 -0.1612  0.1961  0.0220
  870MOL0     C14719   9.437   4.292   0.102 -0.1985 -0.1136  0.6260
  870MOL0     C14720   9.496   4.202  -0.005 -0.0681  0.2596 -0.5077
  870MOL0     C14721   9.399   4.089  -0.054 -1.0202 -0.7509  0.3410
  870MOL0     C14722   9.252   4.133  -0.099 -0.0342  0.2373  0.5466
  870MOL0     C14723   9.239   4.234  -0.216 -0.4284  0.9838  0.5691
  870MOL0     C14724   9.260   4.168  -0.353 -0.5268 -0.3259 -0.0162
  870MOL0     N14725   9.194   4.244  -0.457 -0.7039  0.8571  0.1727
  870MOL0     C14726   9.209   4.376  -0.491 -0.3324 -0.4503  0.6037
  870MOL0     C14727   9.114   4.398  -0.581  0.3285 -0.1737  0.6425
  870MOL0     C14728   9.085   4.532  -0.632  0.7108  0.4333 -0.1043
  870MOL0     C14729   9.180   4.566  -0.749  0.3919 -0.2103  0.2319
  870MOL0     C14730   9.329   4.602  -0.699  0.8272 -0.1543  0.4304
  870MOL0     C14731   9.410   4.701  -0.787  0.2172  0.6019 -0.1152
  870MOL0     O14732   9.417   4.632  -0.910 -0.4141 -0.3050  0.3130
  870MOL0     C14733   9.519   4.656  -0.993 -0.0613 -0.1611  0.5555
  870MOL0     C14734   9.535   4.565  -1.104  0.4917  0.3629 -0.1590
  870MOL0     C14735   9.631   4.590  -1.205 -0.3944  0.2557 -0.1512
  870MOL0     C14736   9.719   4.697  -1.204 -0.1181 -1.3919  0.0353
  870MOL0     C14737   9.827   4.727  -1.308  0.2865 -0.0521 -0.5172
  870MOL0     O14738   9.850   4.634  -1.409 -0.1593 -0.0921 -0.2186
  870MOL0     C14739   9.960   4.657  -1.494  0.2032  0.4888 -0.7082
  870MOL0     C14740  10.089   4.646  -1.436 -1.0517  0.7960 -0.1514
  870MOL0     C14741  10.193   4.712  -1.493  0.0822 -0.5026  0.4647
  870MOL0     C14742  10.183   4.777  -1.617 -0.4515 -0.3533 -0.6652
  870MOL0     O14743  10.299   4.831  -1.672  0.1627 -0.3400  0.0410
  870MOL0     C14744  10.291   4.852  -1.820  0.6279 -0.3704  0.5006
  870MOL0     C14745  10.423   4.868  -1.888 -0.4232 -0.1556  0.1089
  870MOL0     C14746  10.519   4.959  -1.807  0.0558 -0.0041 -0.1605
  870MOL0     C14747  10.662   4.956  -1.864 -0.7108  0.5027 -0.2948
  870MOL0     C14748  10.746   5.043  -1.777  0.4214 -0.6976 -0.2292
  870MOL0     C14749  10.709   5.190  -1.781 -0.0402 -0.5243 -0.0097
  870MOL0     C14750  10.846   5.267  -1.748  1.3233 -0.1449  0.3192
  870MOL0     C14751  10.816   5.400  -1.684 -0.3252  0.7467 -0.0264
  870MOL0    Cl14752  10.964   5.443  -1.576 -0.1728  0.2672  0.1415
  870MOL0     C14753  10.051   4.782  -1.674  0.1500 -0.5088  0.1110
  870MOL0     C14754   9.940   4.726  -1.608  0.9597  0.8111 -0.2058
  870MOL0     O14755   9.893   4.832  -1.278  0.3666  0.1444  0.6089
  870MOL0     C14756   9.709   4.781  -1.091 -0.1341  0.3664  0.0983
  870MOL0     C14757   9.609   4.764  -0.993  0.7987 -0.3127 -0.3064
  870MOL0     N14758   9.042   4.277  -0.607  0.5971  0.1969 -0.1607
  870MOL0     N14759   9.095   4.188  -0.529  0.2036  0.1197  0.2334
  870MOL0     C14760   9.642   4.552   0.573 -0.0626 -0.1945  0.9251
  870MOL0     C14761   9.758   4.623   0.604  0.0080 -0.5746  1.1353
  870MOL0     C14762  10.141   4.824   0.621 -0.8724 -0.1953 -0.0066
  870MOL0     C14763  10.175   4.964   0.604 -0.1651 -0.0562 -0.1667
  870MOL0     C14764  10.285   5.013   0.673  0.3689  0.3854  0.0620
  870MOL0     C14765  10.377   4.925   0.740  0.4286  0.1313 -0.0468
  870MOL0     O14766  10.486   4.962   0.821 -0.3991 -0.6300 -0.3701
  870MOL0     C14767  10.503   5.101   0.842 -0.0383 -0.2906 -0.2044
  870MOL0     C14768  10.602   5.147   0.942  0.0994  0.4965 -1.2175
  870MOL0     C14769  10.599   5.301   0.973  0.5176  0.3489  0.3140
  870MOL0     C14770  10.694   5.375   0.875 -0.0029  0.5414  0.2898
  870MOL0     C14771  10.658   5.515   0.877 -0.8104 -0.2470  0.2485
  870MOL0     C14772  10.617   5.632   0.887 -0.2406 -0.0027 -0.5992
  870MOL0     C14773  10.343   4.790   0.745 -0.3360  0.1181 -0.1005
  870MOL0     C14774  10.223   4.738   0.696 -0.0371  0.3131  0.7316
  870MOL0     H14775   9.980   4.463   0.394  1.1201  2.5994  2.7558
  870MOL0     H14776   9.788   4.320   0.368  3.5836 -0.9802  0.3353
  870MOL0     H14777   9.481   4.512   0.311 -1.1352 -1.4690 -0.7027
  870MOL0     H14778   9.367   4.378   0.339  0.6041 -2.6082  3.8956
  870MOL0     H14779   9.578   4.228   0.251  0.6699  0.5495  0.1068
  870MOL0     H14780   9.626   4.387   0.189 -0.9119  1.1796 -0.1514
  870MOL0     H14781   9.402   4.385   0.055  0.1065 -0.8035 -1.0703
  870MOL0     H14782   9.346   4.248   0.142 -1.8453  1.6950 -0.8918
  870MOL0     H14783   9.522   4.265  -0.090 -1.1048 -0.6634 -1.5349
  870MOL0     H14784   9.589   4.156   0.030  0.2053  1.8813  1.0607
  870MOL0     H14785   9.397   4.012   0.023 -0.5321  0.2671  1.3979
  870MOL0     H14786   9.460   4.046  -0.134  1.1714 -1.2576  2.1599
  870MOL0     H14787   9.197   4.166  -0.011  0.9329  3.9258 -0.0430
  870MOL0     H14788   9.203   4.040  -0.130 -2.1048 -0.2577  4.7139
  870MOL0     H14789   9.134   4.263  -0.208 -0.6262 -0.2080  3.6478
  870MOL0     H14790   9.308   4.319  -0.210  1.6119 -0.6956  2.7246
  870MOL0     H14791   9.201   4.075  -0.353 -3.5699  1.4825  0.3898
  870MOL0     H14792   9.366   4.146  -0.370 -0.4784  0.2792 -0.5141
  870MOL0     H14793   9.281   4.451  -0.461  4.4344 -4.5369  0.6246
  870MOL0     H14794   9.097   4.613  -0.559  2.3316  1.4181 -1.4001
  870MOL0     H14795   8.985   4.536  -0.674  1.6672  0.3975 -2.5286
  870MOL0     H14796   9.133   4.654  -0.794 -0.8747 -1.3865 -0.8304
  870MOL0     H14797   9.182   4.485  -0.822 -0.8738  0.3432 -0.4515
  870MOL0     H14798   9.336   4.639  -0.597  4.7148 -1.7095  0.8737
  870MOL0     H14799   9.389   4.511  -0.690  2.3667  1.0583  4.2505
  870MOL0     H14800   9.509   4.714  -0.743 -0.2281 -3.4222  2.6278
  870MOL0     H14801   9.360   4.798  -0.797 -1.5704 -0.2837 -0.2676
  870MOL0     H14802   9.475   4.475  -1.115  1.8092 -0.5088 -0.4550
  870MOL0     H14803   9.616   4.534  -1.297 -1.7152  0.3784 -0.0327
  870MOL0     H14804  10.098   4.588  -1.345  1.4870  0.9126 -0.2651
  870MOL0     H14805  10.287   4.719  -1.438 -0.5067  0.5739  1.3545
  870MOL0     H14806  10.226   4.933  -1.853  1.3054 -0.6743 -1.6989
  870MOL0     H14807  10.253   4.755  -1.854  0.5686 -0.9588  2.1534
  870MOL0     H14808  10.414   4.922  -1.983  1.7582  1.3290  0.6554
  870MOL0     H14809  10.474   4.774  -1.909 -3.1325 -1.8134  0.5431
  870MOL0     H14810  10.510   4.920  -1.705 -2.0481 -3.0989 -1.3946
  870MOL0     H14811  10.462   5.052  -1.804 -2.9754 -1.7422  0.7190
  870MOL0     H14812  10.701   4.854  -1.862  1.1222  1.1547  1.0806
  870MOL0     H14813  10.668   4.976  -1.972 -2.0125 -1.9018 -0.8837
  870MOL0     H14814  10.846   5.026  -1.819  1.1550  0.4787  0.9407
  870MOL0     H14815  10.747   4.997  -1.677  0.4844  0.1074  0.1452
  870MOL0     H14816  10.626   5.226  -1.721  0.5067 -3.4056  2.7154
  870MOL0     H14817  10.693   5.213  -1.887  2.4276 -0.4735 -0.4485
  870MOL0     H14818  10.918   5.208  -1.689 -0.6185 -0.9708  1.9763
  870MOL0     H14819  10.891   5.287  -1.846  0.7199 -3.7965 -0.8742
  870MOL0     H14820  10.724   5.392  -1.625  1.1850  1.0548  2.5282
  870MOL0     H14821  10.802   5.467  -1.769 -4.2146  0.0820 -0.1321
  870MOL0     H14822  10.045   4.843  -1.763  3.6765  0.3615  0.3049
  870MOL0     H14823   9.841   4.747  -1.647  0.7536 -1.1286 -0.8514
  870MOL0     H14824   9.777   4.863  -1.074 -1.7604  1.9407 -0.6691
  870MOL0     H14825   9.604   4.832  -0.909  0.3239 -0.9292  0.1730
  870MOL0     H14826   9.543   4.569   0.615 -0.6751 -2.6356  0.5793
  870MOL0     H14827   9.752   4.712   0.666  1.4467 -1.1898  2.2214
  870MOL0     H14828  10.108   5.029   0.549  0.8532  2.1047  1.0031
  870MOL0     H14829  10.306   5.119   0.665  0.9046  0.6261  3.3362
  870MOL0     H14830  10.411   5.160   0.854  0.3172 -0.0352  1.5679
  870MOL0     H14831  10.536   5.137   0.744 -2.4122 -2.0794 -1.7697
  870MOL0     H14832  10.586   5.096   1.038 -1.8214  1.9176 -0.7081
  870MOL0     H14833  10.700   5.119   0.903 -0.3190 -0.5668 -1.5364
  870MOL0     H14834  10.636   5.313   1.075 -0.3318 -0.7550  0.7699
  870MOL0     H14835  10.499   5.335   0.946  0.3735  0.6161  1.1897
  870MOL0     H14836  10.797   5.356   0.906 -0.0564  0.4806  0.4269
  870MOL0     H14837  10.669   5.346   0.772 -0.2221  3.4964 -0.5893
  870MOL0     H14838  10.584   5.734   0.894  0.6493  0.4218 -2.0934
  870MOL0     H14839  10.417   4.733   0.800 -0.3771 -1.7949 -1.8967
  870MOL0     H14840  10.195   4.633   0.697  0.6433 -0.0607 -3.2372
  871MOL0     O14841   2.270   2.735   5.645  0.6319 -0.6870  0.8186
  871MOL0     C14842   2.166   2.805   5.651 -0.3264  0.4540  1.0987
  871MOL0     O14843   2.063   2.786   5.558  0.7633 -0.0014 -0.0288
  871MOL0     C14844   2.088   2.722   5.437  0.1978  0.1382  0.4574
  871MOL0     C14845   1.981   2.658   5.377  0.2867 -0.7692  0.3184
  871MOL0     C14846   1.992   2.609   5.251 -0.0246  0.6469  0.3430
  871MOL0     C14847   2.115   2.611   5.180  0.7547  0.7069 -0.1258
  871MOL0     O14848   2.114   2.556   5.055  0.6078  0.5119 -0.2090
  871MOL0     C14849   2.181   2.618   4.944 -0.0553 -0.1780 -0.3417
  871MOL0     C14850   2.148   2.548   4.810 -0.0785  0.4624 -0.2393
  871MOL0     C14851   2.186   2.397   4.810 -0.2027 -0.4130  0.7165
  871MOL0     C14852   2.148   2.340   4.670  0.1139 -0.3148  0.7501
  871MOL0     C14853   2.228   2.391   4.550 -0.6934  0.5466  0.1269
  871MOL0     C14854   2.379   2.384   4.570 -0.1771  0.1357  0.6184
  871MOL0     C14855   2.430   2.241   4.553  0.3679  0.4360  0.2723
  871MOL0     C14856   2.578   2.226   4.594  0.8002  0.1736 -0.2888
  871MOL0     N14857   2.660   2.310   4.501 -0.6816 -0.0633 -1.0182
  871MOL0     C14858   2.771   2.379   4.547 -0.3017  0.4432 -0.6267
  871MOL0     C14859   2.837   2.411   4.438  0.6229  0.5742  0.1017
  871MOL0     C14860   2.960   2.490   4.441 -0.3985  0.2716  0.7963
  871MOL0     C14861   3.085   2.411   4.493  0.4389  0.4063 -0.5607
  871MOL0     C14862   3.217   2.472   4.443  0.0593 -0.4004 -0.1812
  871MOL0     C14863   3.340   2.385   4.496  0.1911  0.2043 -0.1901
  871MOL0     O14864   3.466   2.453   4.489  0.3165 -0.0706  0.1241
  871MOL0     C14865   3.579   2.387   4.529 -0.1110  0.2507  0.2650
  871MOL0     C14866   3.698   2.453   4.539 -0.1377 -0.5890 -0.3314
  871MOL0     C14867   3.825   2.397   4.574 -0.5933 -0.3538 -0.0983
  871MOL0     C14868   3.831   2.255   4.577  0.7294  0.3125 -0.2951
  871MOL0     C14869   3.969   2.204   4.607  0.8382 -0.0982 -1.3009
  871MOL0     O14870   4.076   2.291   4.609  0.3858  0.4568 -0.0165
  871MOL0     C14871   4.203   2.247   4.633 -0.6890  0.0906 -0.6684
  871MOL0     C14872   4.227   2.219   4.769 -0.5446  0.0915  0.5956
  871MOL0     C14873   4.356   2.184   4.805 -0.7798 -0.2711  0.9334
  871MOL0     C14874   4.461   2.170   4.712  0.1020  0.3158 -0.1914
  871MOL0     O14875   4.582   2.134   4.763  0.2358 -0.4184  0.0169
  871MOL0     C14876   4.697   2.211   4.735  0.9452 -0.0456  0.2407
  871MOL0     C14877   4.804   2.154   4.826  0.2092  0.6535 -0.1031
  871MOL0     C14878   4.935   2.211   4.772  0.1523 -0.5465 -0.4643
  871MOL0     C14879   5.056   2.126   4.831 -0.1561  0.5894  0.6067
  871MOL0     C14880   5.188   2.190   4.781  0.9300  0.3028 -0.4274
  871MOL0     C14881   5.292   2.098   4.738  0.1565 -0.5271 -0.0674
  871MOL0     C14882   5.236   2.021   4.611 -0.2828  0.1038  0.5357
  871MOL0     C14883   5.343   1.926   4.555  0.1857 -0.2591 -0.6112
  871MOL0    Cl14884   5.504   1.998   4.548 -0.1360  0.2381  0.0012
  871MOL0     C14885   4.442   2.212   4.581 -0.2281  0.0562  0.3073
  871MOL0     C14886   4.310   2.242   4.538 -0.0176 -0.3473 -0.0326
  871MOL0     O14887   3.981   2.080   4.601 -0.4332  0.0386 -0.8018
  871MOL0     C14888   3.720   2.179   4.568  0.3932  0.1442 -0.4754
  871MOL0     C14889   3.593   2.243   4.549 -0.7136  0.0873  0.3617
  871MOL0     N14890   2.761   2.383   4.329 -0.6889 -0.0414  0.9157
  871MOL0     N14891   2.653   2.325   4.364 -0.1271 -0.1825  0.1233
  871MOL0     C14892   2.222   2.677   5.236  1.2681 -0.5698 -0.1760
  871MOL0     C14893   2.209   2.729   5.373  0.1996 -0.9390  0.1006
  871MOL0     C14894   2.150   2.900   5.762  0.5604  0.5891  0.5592
  871MOL0     C14895   2.252   2.906   5.858 -0.3146 -0.9093 -0.2636
  871MOL0     C14896   2.232   2.984   5.969  0.7300  0.1187  0.2065
  871MOL0     C14897   2.110   3.070   5.978 -0.1494 -0.0444  0.4358
  871MOL0     O14898   2.096   3.139   6.089  0.8429 -0.3343 -0.4619
  871MOL0     C14899   1.996   3.241   6.097  0.9288  0.0752 -0.0956
  871MOL0     C14900   2.018   3.339   6.206 -0.5013  0.1478  0.3423
  871MOL0     C14901   1.958   3.301   6.341  0.0794  0.9754  0.9218
  871MOL0     C14902   1.811   3.353   6.369  0.5757  0.0315  0.0112
  871MOL0     C14903   1.764   3.318   6.503 -0.2915 -0.5926  0.4111
  871MOL0     C14904   1.722   3.292   6.616 -0.1438  0.1920  0.0094
  871MOL0     C14905   2.018   3.070   5.875 -0.9862  0.0879  0.3286
  871MOL0     C14906   2.035   2.980   5.774 -0.2810  0.0385 -0.7187
  871MOL0     H14907   1.886   2.659   5.429  0.5722 -1.9927  0.9113
  871MOL0     H14908   1.914   2.554   5.199 -2.2491  2.1902  1.8379
  871MOL0     H14909   2.288   2.629   4.964 -0.7625  1.2013  3.7522
  871MOL0     H14910   2.140   2.720   4.940 -0.9733 -0.5581 -0.7545
  871MOL0     H14911   2.187   2.607   4.727 -2.1629  1.3771 -0.6297
  871MOL0     H14912   2.039   2.543   4.795 -0.0173 -1.7764 -0.2544
  871MOL0     H14913   2.136   2.351   4.896 -2.1220  1.0066  0.4322
  871MOL0     H14914   2.294   2.377   4.815 -0.3454 -2.4398 -2.2368
  871MOL0     H14915   2.159   2.231   4.664 -1.8997 -0.4936 -0.7394
  871MOL0     H14916   2.040   2.344   4.650 -0.0096 -0.7144  1.2850
  871MOL0     H14917   2.201   2.494   4.527  0.6640  0.5719 -1.5665
  871MOL0     H14918   2.201   2.350   4.452 -2.4243  3.2484 -0.6409
  871MOL0     H14919   2.408   2.433   4.664  1.4155  1.5375 -0.5299
  871MOL0     H14920   2.425   2.441   4.488 -0.9813  1.0134  0.7615
  871MOL0     H14921   2.366   2.175   4.611 -0.4944  0.3887 -0.7134
  871MOL0     H14922   2.420   2.218   4.446  1.5417 -1.2137  0.4847
  871MOL0     H14923   2.596   2.119   4.586 -3.5127 -0.8145  0.8585
  871MOL0     H14924   2.585   2.264   4.697 -3.3145 -2.3861  1.1412
  871MOL0     H14925   2.800   2.375   4.652 -2.0340  0.6630 -0.0992
  871MOL0     H14926   2.951   2.576   4.508  0.0449  0.4910  0.5774
  871MOL0     H14927   2.969   2.535   4.342 -0.5313  1.8575  1.4624
  871MOL0     H14928   3.082   2.307   4.460 -0.0293  0.3505 -0.3464
  871MOL0     H14929   3.089   2.406   4.602 -0.3017  0.7056 -0.5176
  871MOL0     H14930   3.216   2.478   4.334 -0.3313  1.9916 -0.1120
  871MOL0     H14931   3.224   2.571   4.490 -1.8251 -1.5627  2.8066
  871MOL0     H14932   3.339   2.310   4.417  2.0688  1.3927 -1.4278
  871MOL0     H14933   3.312   2.345   4.594  0.1315  0.4432 -0.1087
  871MOL0     H14934   3.701   2.562   4.531  0.4897 -0.3333  2.4459
  871MOL0     H14935   3.911   2.463   4.582 -2.9257  2.7379  1.8747
  871MOL0     H14936   4.151   2.236   4.845 -2.8559 -0.0706 -1.5572
  871MOL0     H14937   4.375   2.157   4.908 -0.8522 -1.6359  0.6110
  871MOL0     H14938   4.670   2.312   4.769 -1.4713 -0.3959 -0.4485
  871MOL0     H14939   4.724   2.210   4.629 -0.5220  0.6648 -0.1650
  871MOL0     H14940   4.800   2.045   4.813  1.5123  0.4742  0.8263
  871MOL0     H14941   4.784   2.182   4.930 -0.5543 -0.5630  0.1032
  871MOL0     H14942   4.944   2.314   4.806 -2.9704 -0.6520  1.0084
  871MOL0     H14943   4.946   2.223   4.664 -1.6620  2.0076 -0.4275
  871MOL0     H14944   5.051   2.124   4.940  2.2990  1.8576  0.7979
  871MOL0     H14945   5.047   2.023   4.794  3.1174  0.6424 -0.6445
  871MOL0     H14946   5.233   2.245   4.863  0.6479 -3.1695  2.2866
  871MOL0     H14947   5.174   2.263   4.700  5.1886  1.3830 -0.4462
  871MOL0     H14948   5.314   2.028   4.819  1.7234  0.2500  0.2224
  871MOL0     H14949   5.384   2.154   4.718 -0.2675 -0.2992 -1.4775
  871MOL0     H14950   5.141   1.970   4.633 -0.4607  1.4259  3.1630
  871MOL0     H14951   5.216   2.096   4.533  0.2613 -0.4533 -0.1597
  871MOL0     H14952   5.319   1.895   4.453  0.3572 -0.8001 -0.4909
  871MOL0     H14953   5.350   1.834   4.614  1.7098  1.2137  1.6767
  871MOL0     H14954   4.521   2.210   4.507 -1.1603 -0.7150 -0.6956
  871MOL0     H14955   4.289   2.265   4.434 -2.8567 -0.6195  0.3940
  871MOL0     H14956   3.731   2.072   4.580 -0.6862  0.1992  1.3294
  871MOL0     H14957   3.505   2.180   4.552 -2.4416  2.3521 -0.2635
  871MOL0     H14958   2.316   2.681   5.184  1.7870  1.7369  0.7703
  871MOL0     H14959   2.301   2.781   5.398  1.1533  0.9534 -5.6462
  871MOL0     H14960   2.341   2.844   5.852  0.3635  0.1637 -1.7400
  871MOL0     H14961   2.314   2.998   6.038  1.5599 -2.0100 -0.2519
  871MOL0     H14962   1.896   3.198   6.104  0.6420  0.3703 -1.7870
  871MOL0     H14963   1.999   3.294   6.001 -2.2596 -3.3495 -2.3641
  871MOL0     H14964   2.126   3.357   6.215 -0.9470  4.0403 -0.5344
  871MOL0     H14965   1.982   3.435   6.167 -0.2878 -0.9825 -2.9716
  871MOL0     H14966   2.024   3.340   6.419  3.3756 -3.6788  0.9161
  871MOL0     H14967   1.966   3.193   6.356 -0.8679  0.7268 -0.2136
  871MOL0     H14968   1.798   3.462   6.368 -1.6382 -0.1838  0.6552
  871MOL0     H14969   1.743   3.319   6.290 -0.2816  1.6981 -0.0139
  871MOL0     H14970   1.670   3.266   6.706  1.5365 -1.0741  0.6675
  871MOL0     H14971   1.927   3.128   5.885 -1.8216 -1.5727  4.6108
  871MOL0     H14972   1.952   2.978   5.704 -1.2988  2.6269  0.2706
  872MOL0     O14973   5.034   0.706   2.373 -0.4727 -0.1834  0.3921
  872MOL0     C14974   5.026   0.805   2.448 -0.6054 -0.4945  0.0767
  872MOL0     O14975   4.915   0.881   2.452 -0.0097  0.3482  0.0588
  872MOL0     C14976   4.811   0.848   2.369 -0.2604 -0.0113 -1.4110
  872MOL0     C14977   4.730   0.739   2.402  0.1731 -0.7228 -0.3006
  872MOL0     C14978   4.619   0.696   2.336  0.3777 -1.3900 -0.3690
  872MOL0     C14979   4.578   0.777   2.220 -0.3352 -0.1454  0.0199
  872MOL0     O14980   4.468   0.731   2.153  0.1341 -0.6863  0.0978
  872MOL0     C14981   4.366   0.690   2.240  0.5771  0.2241  0.3210
  872MOL0     C14982   4.238   0.713   2.151 -0.1009 -0.4284  0.0443
  872MOL0     C14983   4.099   0.678   2.216  0.1292 -0.2546 -0.8141
  872MOL0     C14984   3.978   0.731   2.139 -0.3054 -0.5401  0.1912
  872MOL0     C14985   3.858   0.721   2.226 -0.0657  0.4837  0.2582
  872MOL0     C14986   3.724   0.752   2.159  0.8086  0.2663 -0.1089
  872MOL0     C14987   3.603   0.678   2.213  0.5473  0.0044  0.5522
  872MOL0     C14988   3.547   0.729   2.347 -1.0481  0.0720  0.1014
  872MOL0     N14989   3.583   0.671   2.474 -0.6295 -0.4826 -0.0549
  872MOL0     C14990   3.685   0.589   2.499 -0.3252  0.8277  0.9887
  872MOL0     C14991   3.696   0.585   2.629 -0.2607 -0.1277 -0.5924
  872MOL0     C14992   3.811   0.528   2.710 -0.4256  0.1843 -0.0749
  872MOL0     C14993   3.752   0.392   2.751  0.0227  1.1955 -0.5294
  872MOL0     C14994   3.834   0.316   2.862 -0.2506 -0.0532  0.3441
  872MOL0     C14995   3.984   0.271   2.841 -0.3920  0.2972 -0.3097
  872MOL0     O14996   4.062   0.389   2.816  0.2943  0.2807 -0.0508
  872MOL0     C14997   4.195   0.390   2.839  0.0615 -0.7432 -0.3279
  872MOL0     C14998   4.253   0.519   2.851 -0.3774  0.3609  0.1372
  872MOL0     C14999   4.389   0.526   2.887  0.5064  0.3354 -0.7099
  872MOL0     C15000   4.473   0.408   2.898  0.1864  0.5436 -0.2241
  872MOL0     C15001   4.616   0.419   2.934  0.3221 -0.2506  0.4265
  872MOL0     O15002   4.698   0.313   2.897 -0.0413  0.1083 -0.1345
  872MOL0     C15003   4.827   0.331   2.924 -0.0792 -0.4017 -0.0533
  872MOL0     C15004   4.906   0.428   2.855  0.7634 -0.1972 -1.0160
  872MOL0     C15005   5.045   0.455   2.906  0.3059 -0.3399  0.4559
  872MOL0     C15006   5.103   0.362   3.005  0.5196 -1.4437  0.4271
  872MOL0     O15007   5.233   0.360   3.051  0.0718 -0.1646 -0.1670
  872MOL0     C15008   5.331   0.401   2.949 -0.0154  0.4595  0.1495
  872MOL0     C15009   5.353   0.298   2.836 -0.2495  0.9009 -0.3697
  872MOL0     C15010   5.473   0.327   2.743 -0.0159  0.3207  0.9104
  872MOL0     C15011   5.610   0.296   2.804  0.2178 -0.0881 -1.1932
  872MOL0     C15012   5.726   0.293   2.699  0.3091  0.6343  0.7578
  872MOL0     C15013   5.783   0.438   2.678  0.0415 -0.1640  0.2236
  872MOL0     C15014   5.888   0.470   2.788  0.4026 -0.4690 -0.2282
  872MOL0     C15015   5.975   0.593   2.759 -0.2929 -0.9721  0.3021
  872MOL0    Cl15016   5.869   0.732   2.715 -0.2477  0.1879  0.3545
  872MOL0     C15017   5.013   0.277   3.074  0.7539 -0.4155  0.4830
  872MOL0     C15018   4.880   0.247   3.029 -0.8303 -0.8572 -0.7385
  872MOL0     O15019   4.647   0.526   2.982  0.4753  0.4717  1.2211
  872MOL0     C15020   4.406   0.280   2.893 -0.9285 -0.7890  0.0906
  872MOL0     C15021   4.272   0.274   2.871  0.8593  0.3989 -0.3642
  872MOL0     N15022   3.593   0.652   2.691  0.3512 -0.1106  0.4227
  872MOL0     N15023   3.525   0.705   2.593  0.5144  0.4602  0.3475
  872MOL0     C15024   4.653   0.896   2.190  0.3582  0.9217  0.1916
  872MOL0     C15025   4.764   0.925   2.271 -0.9051  0.0134  0.4155
  872MOL0     C15026   5.107   0.816   2.566  1.0172  0.3521  0.0237
  872MOL0     C15027   5.216   0.734   2.579 -0.3080 -0.2747 -0.3076
  872MOL0     C15028   5.295   0.742   2.687 -0.1957  0.0832 -0.6082
  872MOL0     C15029   5.263   0.820   2.800  0.3755  0.6762  0.8559
  872MOL0     O15030   5.350   0.835   2.907  0.1596  0.5864 -0.2056
  872MOL0     C15031   5.482   0.895   2.894  0.4662 -0.7966  0.2734
  872MOL0     C15032   5.568   0.849   3.014 -0.8205  0.1165  0.5363
  872MOL0     C15033   5.579   0.693   3.038 -0.5512  0.4353  1.0754
  872MOL0     C15034   5.700   0.662   3.126  0.2511 -0.2251 -0.1859
  872MOL0     C15035   5.655   0.552   3.216 -0.6948  0.3083 -0.1862
  872MOL0     C15036   5.621   0.457   3.289  0.4151  0.0405  0.4336
  872MOL0     C15037   5.157   0.909   2.781 -0.5475  0.5119 -1.0302
  872MOL0     C15038   5.075   0.912   2.668  0.5089  0.4300 -0.6554
  872MOL0     H15039   4.764   0.678   2.485 -0.1932 -1.8453 -0.9415
  872MOL0     H15040   4.574   0.602   2.367 -2.5012  0.0327  0.1802
  872MOL0     H15041   4.351   0.748   2.332 -2.5222 -0.6496  0.4991
  872MOL0     H15042   4.381   0.583   2.261 -1.0246 -0.1313 -0.1743
  872MOL0     H15043   4.258   0.661   2.057  0.8479 -1.0829  0.5872
  872MOL0     H15044   4.236   0.819   2.123  1.8548  0.0606  1.4890
  872MOL0     H15045   4.106   0.715   2.319  2.4360 -1.2422 -0.5447
  872MOL0     H15046   4.093   0.569   2.226  0.0407 -0.0831  1.6804
  872MOL0     H15047   3.989   0.834   2.104 -1.6077 -0.6150 -0.5163
  872MOL0     H15048   3.962   0.663   2.054 -1.6308 -0.0601  0.0284
  872MOL0     H15049   3.858   0.799   2.303  3.9281  0.7498  0.2061
  872MOL0     H15050   3.861   0.619   2.265  0.2997  1.0289  1.7233
  872MOL0     H15051   3.725   0.740   2.050  1.6957  1.9225 -0.3196
  872MOL0     H15052   3.697   0.857   2.172 -2.8589 -0.1410 -2.7701
  872MOL0     H15053   3.532   0.693   2.132  0.4221  0.8214  0.8075
  872MOL0     H15054   3.619   0.570   2.213  0.0670 -0.0712  0.0368
  872MOL0     H15055   3.441   0.699   2.341 -1.0841  0.3725 -3.8737
  872MOL0     H15056   3.547   0.838   2.360 -0.4906  0.4318 -2.4031
  872MOL0     H15057   3.753   0.542   2.429  2.3001  2.5720  2.1924
  872MOL0     H15058   3.823   0.591   2.799 -0.6251  2.2229 -1.4444
  872MOL0     H15059   3.908   0.515   2.662  0.9468 -0.7410  2.7400
  872MOL0     H15060   3.743   0.334   2.659  1.2163 -1.9032  1.1706
  872MOL0     H15061   3.659   0.412   2.803 -0.0948 -1.8814  0.6201
  872MOL0     H15062   3.829   0.385   2.947  1.0617  0.3921  0.0821
  872MOL0     H15063   3.773   0.230   2.890  0.2237 -1.1208 -1.6362
  872MOL0     H15064   3.991   0.205   2.754  0.5824  0.2067 -0.1761
  872MOL0     H15065   4.011   0.219   2.934 -1.8463  1.4319  0.7935
  872MOL0     H15066   4.197   0.612   2.849  0.4331  0.8790  0.5475
  872MOL0     H15067   4.422   0.627   2.909  1.8486  0.0836 -1.4141
  872MOL0     H15068   4.859   0.489   2.779  0.5682  0.7894 -0.1337
  872MOL0     H15069   5.105   0.532   2.859  0.4778 -1.3432 -1.0259
  872MOL0     H15070   5.420   0.406   3.013 -0.2712 -2.8929  0.9435
  872MOL0     H15071   5.304   0.497   2.904 -1.5511  1.3342  2.7085
  872MOL0     H15072   5.258   0.299   2.781  0.4106  0.5395 -1.5480
  872MOL0     H15073   5.355   0.198   2.879  1.2404  1.3657  0.7130
  872MOL0     H15074   5.467   0.435   2.727 -2.9944  0.9832  4.8649
  872MOL0     H15075   5.454   0.283   2.644  0.4506  1.3560  0.3434
  872MOL0     H15076   5.623   0.358   2.894  0.8825  0.9788 -1.9895
  872MOL0     H15077   5.602   0.197   2.850  1.6489 -0.7258 -2.2286
  872MOL0     H15078   5.694   0.255   2.601  1.5041 -1.5102  1.1413
  872MOL0     H15079   5.800   0.220   2.731 -0.4067 -1.8499 -2.6265
  872MOL0     H15080   5.705   0.515   2.673 -0.1636 -0.2858  1.2017
  872MOL0     H15081   5.827   0.432   2.579 -2.3886  0.5425 -0.9895
  872MOL0     H15082   5.835   0.482   2.883 -1.7532 -1.4212 -1.2272
  872MOL0     H15083   5.960   0.388   2.794  2.0827  0.9217 -0.5454
  872MOL0     H15084   6.040   0.557   2.679  1.1451 -1.1092  1.4871
  872MOL0     H15085   6.047   0.623   2.836  0.3955 -2.6713  0.3575
  872MOL0     H15086   5.038   0.223   3.165  1.1737  1.5378  1.5717
  872MOL0     H15087   4.821   0.182   3.093 -1.3525  1.5755  1.4335
  872MOL0     H15088   4.464   0.190   2.910  1.2216  0.1397 -1.8099
  872MOL0     H15089   4.224   0.177   2.878  0.5990  0.5684  0.2852
  872MOL0     H15090   4.616   0.961   2.111 -2.7823 -1.1349 -0.1911
  872MOL0     H15091   4.828   1.004   2.234 -1.7645  1.2463  1.4867
  872MOL0     H15092   5.234   0.659   2.503 -2.2237  0.5686 -1.6683
  872MOL0     H15093   5.380   0.682   2.717 -0.1305 -0.9216 -2.6228
  872MOL0     H15094   5.485   1.004   2.885  1.7018 -0.9339 -1.6499
  872MOL0     H15095   5.524   0.863   2.798  2.2993  0.7186  0.4941
  872MOL0     H15096   5.667   0.896   3.016 -1.4161  1.7575 -2.1865
  872MOL0     H15097   5.513   0.890   3.100  0.4694 -0.4217  1.6481
  872MOL0     H15098   5.595   0.638   2.944  4.1716  0.0707  1.8655
  872MOL0     H15099   5.482   0.665   3.081 -0.7929  0.8414  0.8054
  872MOL0     H15100   5.788   0.642   3.063 -0.7689  0.4981 -1.9089
  872MOL0     H15101   5.724   0.757   3.175  2.1930 -1.2702  1.0221
  872MOL0     H15102   5.589   0.403   3.375  0.8812  0.4576  0.8785
  872MOL0     H15103   5.158   0.991   2.853  0.2567 -1.2071  0.9980
  872MOL0     H15104   4.992   0.982   2.657 -0.8702 -1.4342 -2.9136
  873MOL0     O15105   9.672   0.819   8.050 -0.0677  0.3206  0.1335
  873MOL0     C15106   9.701   0.920   7.989 -1.1330  0.7120  0.0730
  873MOL0     O15107   9.640   0.982   7.886 -0.2215 -0.1872  0.4910
  873MOL0     C15108   9.517   0.929   7.836 -0.1120 -0.0664 -0.2859
  873MOL0     C15109   9.496   0.938   7.693  0.4655  0.1564  0.3183
  873MOL0     C15110   9.371   0.898   7.636  0.3116  1.0468  0.4671
  873MOL0     C15111   9.262   0.867   7.718  0.3635 -0.1077  0.1945
  873MOL0     O15112   9.150   0.843   7.653  0.5534 -1.0095 -0.1125
  873MOL0     C15113   9.023   0.858   7.718 -0.0482  0.5373  0.1659
  873MOL0     C15114   8.979   0.722   7.775 -0.0294 -0.2563 -0.6832
  873MOL0     C15115   8.870   0.737   7.887 -1.1418  0.1890 -0.2736
  873MOL0     C15116   8.731   0.724   7.819  0.7326  0.1132  0.3146
  873MOL0     C15117   8.613   0.720   7.926 -1.0805 -0.1668  0.5022
  873MOL0     C15118   8.604   0.595   8.011 -0.0446  0.4124 -0.8182
  873MOL0     C15119   8.595   0.458   7.948  0.5085 -0.5712  0.3177
  873MOL0     C15120   8.481   0.429   7.842  0.6901 -0.1550 -0.2952
  873MOL0     N15121   8.353   0.402   7.910  0.3310  0.1753  0.1651
  873MOL0     C15122   8.257   0.496   7.942  0.2148 -0.1625 -0.9730
  873MOL0     C15123   8.172   0.425   8.016 -0.1640  0.0968 -0.6735
  873MOL0     C15124   8.064   0.499   8.092  0.1175  0.8816  0.4297
  873MOL0     C15125   7.937   0.493   8.009 -0.3133  0.4340 -0.4516
  873MOL0     C15126   7.876   0.357   7.970 -0.6769 -0.5779 -0.5187
  873MOL0     C15127   7.882   0.257   8.087  0.0112  1.0785 -0.3306
  873MOL0     O15128   7.800   0.294   8.198  0.0784 -0.0459 -0.0387
  873MOL0     C15129   7.666   0.287   8.196  0.2979  0.0725  0.7123
  873MOL0     C15130   7.603   0.374   8.280  0.5087 -0.8920 -0.7100
  873MOL0     C15131   7.461   0.392   8.268  0.5368 -0.8265  0.4538
  873MOL0     C15132   7.386   0.320   8.171  0.3765 -0.1947 -0.1722
  873MOL0     C15133   7.244   0.338   8.155 -0.2168  0.1141 -0.6771
  873MOL0     O15134   7.176   0.268   8.053 -0.1927  0.4575  0.1222
  873MOL0     C15135   7.041   0.240   8.049 -0.6821 -0.1547  0.9011
  873MOL0     C15136   7.018   0.137   7.949  0.5722 -0.1444  0.3856
  873MOL0     C15137   6.889   0.082   7.926 -0.2001  0.4681 -0.5697
  873MOL0     C15138   6.787   0.139   7.987  0.3358 -0.1901 -1.0165
  873MOL0     O15139   6.660   0.109   7.955 -0.6314  0.7833 -0.4277
  873MOL0     C15140   6.621  -0.031   7.984  0.0596 -1.2772  0.6382
  873MOL0     C15141   6.506  -0.066   7.884 -0.2826  0.2635  0.5542
  873MOL0     C15142   6.486  -0.215   7.869  0.8174 -0.8004 -0.0351
  873MOL0     C15143   6.377  -0.262   7.770  0.8054 -0.2716 -0.8489
  873MOL0     C15144   6.371  -0.417   7.771 -0.6701 -0.2060 -0.4867
  873MOL0     C15145   6.275  -0.471   7.668 -0.7648  0.7943 -0.5201
  873MOL0     C15146   6.277  -0.632   7.671  0.1244 -0.9311 -0.2272
  873MOL0     C15147   6.177  -0.703   7.591 -0.0271 -0.8105 -0.8325
  873MOL0    Cl15148   6.155  -0.613   7.429  0.2355 -0.1290  0.1418
  873MOL0     C15149   6.803   0.244   8.080 -0.3861 -0.0358  0.3519
  873MOL0     C15150   6.929   0.302   8.107 -0.5362 -0.5954  0.0707
  873MOL0     O15151   7.187   0.406   8.242  0.4928  0.1656  0.0138
  873MOL0     C15152   7.465   0.235   8.091 -0.0453  1.5120  0.8748
  873MOL0     C15153   7.592   0.211   8.106  0.4141  0.3444 -0.1008
  873MOL0     N15154   8.199   0.288   8.019  0.1774  0.3140 -0.1912
  873MOL0     N15155   8.314   0.279   7.959 -0.0364  0.2036  0.1606
  873MOL0     C15156   9.281   0.860   7.856 -0.1471  0.2618 -0.5955
  873MOL0     C15157   9.405   0.898   7.919  0.1993  0.1797 -0.3495
  873MOL0     C15158   9.827   0.977   8.041  0.1250 -0.8540 -0.2096
  873MOL0     C15159   9.869   1.098   7.987  1.0345  0.3407  0.8506
  873MOL0     C15160   9.977   1.170   8.042 -0.6155 -0.1169  0.4053
  873MOL0     C15161  10.061   1.119   8.142 -0.0554  0.3619 -0.2623
  873MOL0     O15162  10.176   1.183   8.172  0.4791 -0.0052 -0.5622
  873MOL0     C15163  10.295   1.144   8.091 -0.2195 -0.1967  0.4545
  873MOL0     C15164  10.347   1.005   8.139 -0.6250 -0.3235 -0.8276
  873MOL0     C15165  10.492   0.971   8.093 -0.5552  0.0512 -0.4529
  873MOL0     C15166  10.516   0.817   8.097 -0.5098  0.4107 -0.0719
  873MOL0     C15167  10.641   0.790   8.020 -1.0284  1.0794 -0.2106
  873MOL0     C15168  10.740   0.770   7.959 -0.6719  0.0706 -0.2851
  873MOL0     C15169  10.024   0.989   8.194  0.1327 -0.0475  0.3147
  873MOL0     C15170   9.909   0.927   8.145 -0.1460 -0.0097 -0.5679
  873MOL0     H15171   9.582   0.975   7.638  0.0311  0.0237 -0.4722
  873MOL0     H15172   9.349   0.899   7.530 -3.4239 -0.5775  1.0860
  873MOL0     H15173   8.948   0.910   7.658 -1.1361  1.4734  2.2328
  873MOL0     H15174   9.032   0.916   7.810  0.4944 -1.4930  1.4600
  873MOL0     H15175   9.067   0.668   7.813 -1.6971 -0.3970  3.5220
  873MOL0     H15176   8.932   0.670   7.692 -1.8855 -0.7683  0.6132
  873MOL0     H15177   8.880   0.832   7.941  0.3277  0.7585 -1.4693
  873MOL0     H15178   8.887   0.654   7.956  0.2903  0.0971 -0.6987
  873MOL0     H15179   8.717   0.817   7.763 -1.5387 -0.3319  0.0466
  873MOL0     H15180   8.723   0.632   7.760 -3.5678  0.0610  0.6838
  873MOL0     H15181   8.519   0.728   7.869 -0.9650 -0.4647  0.2623
  873MOL0     H15182   8.637   0.803   7.992  1.2642 -0.6014  0.2668
  873MOL0     H15183   8.514   0.602   8.073 -1.0772  3.8705 -2.4303
  873MOL0     H15184   8.694   0.612   8.071 -0.1007  2.7964 -1.3046
  873MOL0     H15185   8.694   0.431   7.911  1.4920 -0.6148  2.8214
  873MOL0     H15186   8.584   0.387   8.030  0.1418  1.2092  1.8545
  873MOL0     H15187   8.509   0.345   7.778 -1.0493  0.3680 -1.8380
  873MOL0     H15188   8.464   0.512   7.773  1.2486  1.6033  1.5699
  873MOL0     H15189   8.246   0.603   7.930 -0.4287 -0.3030 -1.7448
  873MOL0     H15190   8.102   0.601   8.103  0.0048  1.0210 -0.4212
  873MOL0     H15191   8.051   0.463   8.195 -1.0362  2.1228  0.7597
  873MOL0     H15192   7.956   0.547   7.915 -0.2066 -0.6412 -1.0631
  873MOL0     H15193   7.854   0.552   8.050 -3.8869 -2.1366 -3.3270
  873MOL0     H15194   7.771   0.376   7.947 -1.2293 -2.0304  0.7030
  873MOL0     H15195   7.924   0.327   7.876 -0.5357 -1.0939 -0.2824
  873MOL0     H15196   7.988   0.249   8.113  0.1831 -0.6155 -1.3646
  873MOL0     H15197   7.844   0.160   8.053 -2.1164  1.2366  1.3146
  873MOL0     H15198   7.659   0.427   8.356 -1.7032  0.0777  0.3251
  873MOL0     H15199   7.417   0.471   8.328  1.5983 -0.1286  0.3287
  873MOL0     H15200   7.102   0.106   7.889 -0.3420 -0.9317 -0.5369
  873MOL0     H15201   6.880   0.007   7.848  1.5946  0.8220 -1.1666
  873MOL0     H15202   6.580  -0.019   8.085  0.0797  0.9908  0.4181
  873MOL0     H15203   6.705  -0.100   7.973 -0.9243 -2.1947 -1.9944
  873MOL0     H15204   6.534  -0.012   7.794 -1.2142 -0.3509 -0.1170
  873MOL0     H15205   6.411  -0.028   7.922 -0.2686 -0.3755  1.2572
  873MOL0     H15206   6.469  -0.260   7.968  0.4067  2.6006  1.5879
  873MOL0     H15207   6.578  -0.256   7.825  1.7671  1.8004 -0.6466
  873MOL0     H15208   6.280  -0.231   7.809 -0.2021 -1.2696 -2.4669
  873MOL0     H15209   6.395  -0.238   7.665 -0.2752 -0.7272 -1.1502
  873MOL0     H15210   6.331  -0.452   7.867 -4.1961  3.3418 -0.4302
  873MOL0     H15211   6.474  -0.453   7.758  0.0673  0.7372  2.0608
  873MOL0     H15212   6.316  -0.441   7.571  1.8887 -0.2662  0.1696
  873MOL0     H15213   6.174  -0.432   7.682 -1.1101  0.3155 -1.5926
  873MOL0     H15214   6.374  -0.654   7.626  0.5168  0.6085 -0.1928
  873MOL0     H15215   6.257  -0.675   7.770 -0.7211  0.5897  0.3029
  873MOL0     H15216   6.077  -0.692   7.634 -0.0674 -2.0049 -0.5825
  873MOL0     H15217   6.200  -0.810   7.583 -1.5652 -1.1282 -1.4429
  873MOL0     H15218   6.724   0.281   8.144 -0.1108  1.1148  0.0594
  873MOL0     H15219   6.940   0.383   8.179 -0.9656 -0.4577 -0.0128
  873MOL0     H15220   7.414   0.179   8.014  1.6912 -0.3657  0.9933
  873MOL0     H15221   7.639   0.139   8.040  1.4495  2.0060 -1.2674
  873MOL0     H15222   9.193   0.840   7.916  0.1925  2.7862  0.8747
  873MOL0     H15223   9.412   0.881   8.026 -0.7747 -0.8684 -0.4281
  873MOL0     H15224   9.821   1.139   7.899  0.2406 -4.9317 -1.5216
  873MOL0     H15225   9.989   1.264   7.989  0.2940 -1.8393 -2.6956
  873MOL0     H15226  10.363   1.230   8.096 -0.5239  0.1364 -0.8333
  873MOL0     H15227  10.289   1.130   7.983  3.4390 -0.6385  0.1743
  873MOL0     H15228  10.345   1.013   8.248 -0.4034  1.6001 -0.9238
  873MOL0     H15229  10.279   0.930   8.097 -2.6137  0.6662  0.4829
  873MOL0     H15230  10.572   1.015   8.153 -1.2600 -1.2110  1.4842
  873MOL0     H15231  10.503   1.009   7.990  0.4928 -2.7919 -1.4886
  873MOL0     H15232  10.535   0.778   8.198  0.9362  0.8721 -0.1451
  873MOL0     H15233  10.432   0.763   8.051  1.0467 -1.5353 -0.8138
  873MOL0     H15234  10.834   0.769   7.908 -1.2708 -1.0351 -1.4480
  873MOL0     H15235  10.076   0.945   8.278  1.2670  3.0331  1.3620
  873MOL0     H15236   9.873   0.836   8.192 -0.4428 -0.0799 -0.9258
  874MOL0     O15237  10.093  10.869   3.116  0.4653 -0.5220  0.5350
  874MOL0     C15238  10.105  10.958   3.019  0.3463  0.4212  0.0685
  874MOL0     O15239  10.023  11.063   2.998 -0.5220  0.1176  0.1050
  874MOL0     C15240   9.904  11.062   3.067 -0.1162  0.3512 -0.5594
  874MOL0     C15241   9.886  11.128   3.197  0.0319  0.8958  0.3070
  874MOL0     C15242   9.756  11.143   3.247  0.2618 -0.0192 -0.0838
  874MOL0     C15243   9.642  11.086   3.184  0.2993  0.1574  0.1425
  874MOL0     O15244   9.518  11.118   3.232  0.3889  0.2306 -0.8702
  874MOL0     C15245   9.407  11.032   3.189  0.4907  0.0364  0.9862
  874MOL0     C15246   9.275  11.069   3.260 -0.1938  0.7111 -0.1217
  874MOL0     C15247   9.146  10.991   3.227  0.2257 -0.7613 -0.3914
  874MOL0     C15248   9.033  11.058   3.288  0.2785  0.0326  0.5670
  874MOL0     C15249   8.976  11.180   3.212  0.3362 -0.1566 -0.1025
  874MOL0     C15250   8.837  11.225   3.257  0.5609  0.2487 -0.8475
  874MOL0     C15251   8.779  11.332   3.163 -0.6044  0.0963 -0.2123
  874MOL0     C15252   8.646  11.406   3.217 -0.1234 -1.0437  0.0358
  874MOL0     N15253   8.536  11.312   3.231 -0.2702 -0.5035 -0.6956
  874MOL0     C15254   8.424  11.345   3.309  0.0480  0.3398  0.0961
  874MOL0     C15255   8.331  11.254   3.275  0.1391  0.5976  0.9505
  874MOL0     C15256   8.204  11.229   3.345 -0.6186  0.4222  0.9758
  874MOL0     C15257   8.235  11.163   3.486  0.5060 -0.2029  0.1164
  874MOL0     C15258   8.114  11.100   3.556 -0.0216  0.4288 -0.2506
  874MOL0     C15259   7.983  11.174   3.542 -0.0511  0.0695  0.5809
  874MOL0     O15260   7.877  11.103   3.607  0.2355 -0.0523 -1.1777
  874MOL0     C15261   7.766  11.177   3.627 -0.5541  0.2887 -0.9237
  874MOL0     C15262   7.737  11.305   3.578  0.4866 -0.3097 -0.0438
  874MOL0     C15263   7.615  11.373   3.616  0.4610  0.0734  0.7717
  874MOL0     C15264   7.527  11.319   3.710  0.3889  0.0308  0.7391
  874MOL0     C15265   7.399  11.379   3.745 -0.9754 -0.4066  0.0055
  874MOL0     O15266   7.328  11.328   3.840  0.1150  0.9116 -0.1881
  874MOL0     C15267   7.214  11.396   3.879  0.4303  0.0047 -0.1976
  874MOL0     C15268   7.216  11.532   3.937 -0.5942 -0.2846  1.3693
  874MOL0     C15269   7.096  11.603   3.964  0.3773  0.1354 -1.1055
  874MOL0     C15270   6.970  11.532   3.946 -0.5614 -0.6833  0.3955
  874MOL0     O15271   6.854  11.603   3.968 -0.1375 -0.9108 -0.5818
  874MOL0     C15272   6.747  11.529   4.029  0.6420 -0.0429  0.5396
  874MOL0     C15273   6.643  11.629   4.090  0.7512  0.6389  0.7117
  874MOL0     C15274   6.496  11.560   4.081  0.1756  0.0349 -0.2818
  874MOL0     C15275   6.396  11.656   4.123 -0.4519  0.8630  0.0798
  874MOL0     C15276   6.257  11.580   4.119  0.3090 -0.3953  0.0613
  874MOL0     C15277   6.152  11.686   4.184  0.2605 -0.2943  0.0827
  874MOL0     C15278   6.022  11.623   4.227 -0.1912 -0.6185 -0.0430
  874MOL0     C15279   5.926  11.731   4.278 -0.1617 -0.5673 -0.7508
  874MOL0    Cl15280   5.857  11.828   4.149 -0.0951 -0.1701  0.3920
  874MOL0     C15281   6.977  11.402   3.901  0.3138 -0.2304 -0.3078
  874MOL0     C15282   7.094  11.338   3.868  1.2872  0.5755  0.5230
  874MOL0     O15283   7.376  11.478   3.672  0.2642  0.6025 -0.6691
  874MOL0     C15284   7.562  11.193   3.761  0.4631 -0.7163  0.0939
  874MOL0     C15285   7.681  11.132   3.731 -0.7180 -0.6808 -0.0529
  874MOL0     N15286   8.381  11.174   3.169 -0.4401 -0.7287  1.0358
  874MOL0     N15287   8.500  11.227   3.130  0.2104  0.3532 -0.2592
  874MOL0     C15288   9.671  11.001   3.072 -0.1924 -0.6305 -0.2582
  874MOL0     C15289   9.792  11.006   3.009 -1.0942 -0.6349 -0.4595
  874MOL0     C15290  10.207  10.939   2.919  0.4576 -0.8431 -0.3726
  874MOL0     C15291  10.315  10.846   2.926  0.2511 -0.8152 -0.3631
  874MOL0     C15292  10.399  10.816   2.821 -0.1494  0.0810  0.6468
  874MOL0     C15293  10.378  10.874   2.699 -1.2297  0.5843  0.3498
  874MOL0     O15294  10.454  10.853   2.590  0.4086 -0.1189  0.4516
  874MOL0     C15295  10.592  10.808   2.609 -0.4824  0.6247 -0.4594
  874MOL0     C15296  10.605  10.659   2.552  0.3196 -0.3073  0.3182
  874MOL0     C15297  10.738  10.587   2.604  0.3427  0.0930 -1.0133
  874MOL0     C15298  10.764  10.455   2.552  0.8671 -0.1548  0.5824
  874MOL0     C15299  10.661  10.352   2.586  0.0554  0.2550 -0.7557
  874MOL0     C15300  10.568  10.279   2.610  0.5756 -0.2136  0.2336
  874MOL0     C15301  10.266  10.956   2.678 -0.7136 -0.4717 -0.1501
  874MOL0     C15302  10.177  10.996   2.785 -0.8680 -0.8706  0.5215
  874MOL0     H15303   9.977  11.179   3.228 -0.7276 -0.7283  6.5924
  874MOL0     H15304   9.734  11.201   3.336 -1.1352  3.4842 -2.5300
  874MOL0     H15305   9.441  10.930   3.207  2.5738  0.8153  1.7640
  874MOL0     H15306   9.406  11.048   3.081  0.1974 -0.2783  0.9432
  874MOL0     H15307   9.248  11.167   3.220 -3.4998  0.7428  1.7702
  874MOL0     H15308   9.292  11.078   3.368  1.4028 -2.1723 -0.0315
  874MOL0     H15309   9.161  10.894   3.274  0.0421  0.4436  2.3368
  874MOL0     H15310   9.130  10.973   3.120 -0.0655  0.6859 -0.6168
  874MOL0     H15311   8.946  10.991   3.281  0.7485 -0.5708  0.4659
  874MOL0     H15312   9.056  11.091   3.390  1.8319 -1.8848  0.8836
  874MOL0     H15313   8.983  11.157   3.105 -1.8636 -1.5611 -0.0125
  874MOL0     H15314   9.044  11.262   3.236  0.0471 -0.1259  0.6220
  874MOL0     H15315   8.841  11.268   3.357  1.3186  0.0802 -0.8039
  874MOL0     H15316   8.766  11.143   3.267  1.0480 -0.0629  0.1167
  874MOL0     H15317   8.864  11.397   3.144  1.5398 -2.0559  1.4193
  874MOL0     H15318   8.759  11.292   3.063 -2.5213 -0.1197  0.2105
  874MOL0     H15319   8.612  11.490   3.156 -0.3322  0.8077  2.5445
  874MOL0     H15320   8.671  11.449   3.314 -2.2983  0.0017  0.2049
  874MOL0     H15321   8.421  11.417   3.390 -1.0782 -1.3665  1.6610
  874MOL0     H15322   8.146  11.154   3.289  0.1669  0.9868 -0.6479
  874MOL0     H15323   8.143  11.319   3.353  0.2076  0.9884  1.0095
  874MOL0     H15324   8.280  11.245   3.542  0.6260 -0.0785 -0.1619
  874MOL0     H15325   8.309  11.085   3.466  0.6229  0.3461 -1.7961
  874MOL0     H15326   8.107  11.000   3.512 -1.4948  2.0624 -4.2104
  874MOL0     H15327   8.149  11.088   3.659  1.3257 -0.3274 -0.7649
  874MOL0     H15328   7.958  11.183   3.436 -2.4673  0.8009  1.1487
  874MOL0     H15329   7.999  11.269   3.594 -0.2937  0.7414 -0.5500
  874MOL0     H15330   7.808  11.354   3.512 -2.0719  2.0748 -1.2298
  874MOL0     H15331   7.592  11.467   3.566 -0.4804 -1.0139 -0.9467
  874MOL0     H15332   7.305  11.594   3.945 -0.0017 -0.9290 -0.0349
  874MOL0     H15333   7.105  11.702   4.007  1.4816 -1.0989  1.6764
  874MOL0     H15334   6.778  11.468   4.114  1.0633 -0.7644 -0.1215
  874MOL0     H15335   6.699  11.475   3.947 -2.1440 -1.2506  2.8085
  874MOL0     H15336   6.639  11.718   4.027  2.3237  0.0029 -0.3566
  874MOL0     H15337   6.659  11.654   4.195 -0.2141 -0.2826  1.1060
  874MOL0     H15338   6.495  11.475   4.150  0.5494 -0.1665 -0.5225
  874MOL0     H15339   6.466  11.512   3.987  1.1059 -2.8007  0.7427
  874MOL0     H15340   6.433  11.692   4.219  2.7871  3.2398 -1.8838
  874MOL0     H15341   6.393  11.741   4.056 -0.7780 -0.7173 -2.0114
  874MOL0     H15342   6.264  11.491   4.182  0.7752 -1.4949 -1.4756
  874MOL0     H15343   6.230  11.559   4.015 -0.6822  1.6153 -0.1417
  874MOL0     H15344   6.143  11.768   4.114  0.5504 -0.2236  0.1244
  874MOL0     H15345   6.188  11.715   4.284 -2.2917 -1.4858  1.4611
  874MOL0     H15346   5.983  11.591   4.129 -0.9210  1.0926 -0.3520
  874MOL0     H15347   6.046  11.537   4.291  1.5838 -1.4220 -1.6857
  874MOL0     H15348   5.973  11.801   4.348  0.9237 -1.1398 -0.8773
  874MOL0     H15349   5.840  11.682   4.324 -1.1045  0.0212 -1.8413
  874MOL0     H15350   6.888  11.342   3.883  0.4289 -0.3108 -0.6082
  874MOL0     H15351   7.086  11.239   3.824 -0.8874  1.2532 -0.7959
  874MOL0     H15352   7.494  11.136   3.824  0.2467  0.5786  1.0627
  874MOL0     H15353   7.711  11.034   3.766  3.5217  0.8402  1.1335
  874MOL0     H15354   9.598  10.944   3.016  0.2253 -1.5146  0.0886
  874MOL0     H15355   9.804  10.955   2.914 -1.5928 -1.8766  0.1150
  874MOL0     H15356  10.341  10.799   3.020  1.6467 -4.6658 -2.4241
  874MOL0     H15357  10.478  10.747   2.848  0.9774  1.1087  0.0782
  874MOL0     H15358  10.632  10.809   2.710  0.1899  1.3466 -0.7266
  874MOL0     H15359  10.653  10.874   2.547  1.2234 -1.1618 -0.7884
  874MOL0     H15360  10.521  10.599   2.588  0.3838  1.2368  3.3411
  874MOL0     H15361  10.610  10.653   2.443 -2.5559 -1.7062  0.1908
  874MOL0     H15362  10.722  10.568   2.711 -0.0126 -1.0518 -1.2582
  874MOL0     H15363  10.827  10.649   2.593  1.5584 -1.3858 -0.0573
  874MOL0     H15364  10.771  10.462   2.443 -0.9135  0.1255  0.4573
  874MOL0     H15365  10.863  10.419   2.582  0.8026 -1.6179 -0.8418
  874MOL0     H15366  10.480  10.218   2.614  1.7754 -1.9414  1.3224
  874MOL0     H15367  10.255  10.982   2.573 -0.0037  2.3522  0.3813
  874MOL0     H15368  10.094  11.065   2.772  0.5853  1.3498  2.2832
  875MOL0     O15369   6.153   0.562   2.009 -0.1857 -0.1684  0.2493
  875MOL0     C15370   6.209   0.578   1.899 -0.4121 -0.0541  0.6129
  875MOL0     O15371   6.148   0.642   1.785  0.1740 -0.9783 -0.7152
  875MOL0     C15372   6.047   0.736   1.818 -0.1719 -0.6899  0.6885
  875MOL0     C15373   6.079   0.880   1.815  0.0146 -0.0053  0.1850
  875MOL0     C15374   5.990   0.973   1.856 -0.3500 -0.4551 -0.3965
  875MOL0     C15375   5.856   0.927   1.876  0.3841  0.0469  0.0056
  875MOL0     O15376   5.750   1.005   1.918 -0.0778  0.6187  0.0500
  875MOL0     C15377   5.773   1.147   1.927  0.8042  0.2330  0.2584
  875MOL0     C15378   5.638   1.230   1.937  0.4638 -0.3683 -0.2902
  875MOL0     C15379   5.564   1.224   1.799  0.5620  0.4233 -0.4586
  875MOL0     C15380   5.444   1.323   1.818  0.3089  0.1948  1.0781
  875MOL0     C15381   5.365   1.328   1.689  0.3643  0.0422 -0.2613
  875MOL0     C15382   5.243   1.418   1.701  0.0964 -0.6732 -0.4411
  875MOL0     C15383   5.274   1.564   1.697  0.3458 -0.2385 -0.5098
  875MOL0     C15384   5.163   1.649   1.744 -0.0437 -0.7969  0.1872
  875MOL0     N15385   5.086   1.693   1.630 -0.0530 -0.2455 -0.2808
  875MOL0     C15386   4.962   1.637   1.591 -0.4647  0.1036  0.5541
  875MOL0     C15387   4.929   1.719   1.482 -0.5642 -0.8054 -0.7149
  875MOL0     C15388   4.802   1.701   1.393 -1.0091 -0.3475 -0.2110
  875MOL0     C15389   4.853   1.640   1.257 -0.7344  0.2831 -0.1072
  875MOL0     C15390   4.729   1.591   1.171 -0.0174  0.0801 -0.5279
  875MOL0     C15391   4.644   1.706   1.117 -0.3822 -1.0542  0.4284
  875MOL0     O15392   4.548   1.660   1.017 -0.4330  0.0794  0.5058
  875MOL0     C15393   4.429   1.730   1.000 -0.2765  0.1018  0.0684
  875MOL0     C15394   4.408   1.868   1.029  0.3510  0.3317  0.4908
  875MOL0     C15395   4.273   1.922   1.033 -0.1263  0.0055  0.0293
  875MOL0     C15396   4.165   1.847   0.981 -0.2825 -0.1161 -0.2356
  875MOL0     C15397   4.031   1.905   0.955 -0.5956 -0.3096  0.7733
  875MOL0     O15398   3.928   1.819   0.934 -0.1198  0.5965 -0.4926
  875MOL0     C15399   3.799   1.863   0.927 -0.5090 -0.9479  0.2327
  875MOL0     C15400   3.729   1.801   0.816 -0.5222 -0.1580 -0.6532
  875MOL0     C15401   3.593   1.824   0.799 -0.4211 -1.1359  1.0433
  875MOL0     C15402   3.525   1.924   0.885 -0.5911 -0.4152  0.2423
  875MOL0     O15403   3.391   1.945   0.864  0.3911  0.0137  0.2049
  875MOL0     C15404   3.313   1.834   0.913 -0.6331 -0.7336  0.7799
  875MOL0     C15405   3.163   1.859   0.886 -0.5056  0.7607  0.9397
  875MOL0     C15406   3.108   1.977   0.973  0.1080 -0.3413  0.1065
  875MOL0     C15407   2.955   1.979   0.955  0.9124  0.2346  0.6908
  875MOL0     C15408   2.891   2.071   1.057  1.4430  0.1430  0.7832
  875MOL0     C15409   2.745   2.036   1.044  0.7794  0.6503  0.3269
  875MOL0     C15410   2.653   2.120   1.142 -0.2024 -0.4146 -0.6635
  875MOL0     C15411   2.691   2.276   1.127 -0.3336 -0.5643  1.0231
  875MOL0    Cl15412   2.669   2.322   0.954  0.0402  0.2156 -0.1225
  875MOL0     C15413   3.598   1.978   0.996 -0.2526 -0.5904 -0.4544
  875MOL0     C15414   3.734   1.951   1.016 -0.6030  0.3770  0.1823
  875MOL0     O15415   4.022   2.029   0.954  0.0646 -1.1077 -0.6829
  875MOL0     C15416   4.188   1.714   0.937 -0.6002  0.1228 -0.5597
  875MOL0     C15417   4.316   1.659   0.954  1.0444 -0.5811 -0.4795
  875MOL0     N15418   5.033   1.798   1.452  0.3005 -0.3523  0.6186
  875MOL0     N15419   5.125   1.784   1.537  0.0130 -0.7811  0.4664
  875MOL0     C15420   5.823   0.793   1.872  0.2165 -0.0010 -0.1184
  875MOL0     C15421   5.916   0.693   1.837 -0.6484 -0.2117 -0.1365
  875MOL0     C15422   6.333   0.495   1.879  0.2053 -0.3172 -0.6638
  875MOL0     C15423   6.363   0.444   1.750  0.3834 -0.4690 -0.2913
  875MOL0     C15424   6.464   0.361   1.721 -0.1497  0.0883  0.4256
  875MOL0     C15425   6.547   0.321   1.821  0.1393  0.8912 -0.6293
  875MOL0     O15426   6.641   0.223   1.797 -0.1227 -0.2198  0.1314
  875MOL0     C15427   6.629   0.120   1.699  0.4283 -0.1717 -0.0933
  875MOL0     C15428   6.768   0.065   1.669 -0.5479  0.1631 -1.1067
  875MOL0     C15429   6.823  -0.000   1.804  0.2003  0.1003 -0.4094
  875MOL0     C15430   6.966  -0.032   1.793  0.4978  0.3559 -0.0752
  875MOL0     C15431   7.022  -0.099   1.914  0.6015 -0.1848  0.2348
  875MOL0     C15432   7.095  -0.137   2.008 -0.3964  0.4402 -0.2683
  875MOL0     C15433   6.518   0.368   1.949  0.7515  0.2105 -0.4119
  875MOL0     C15434   6.418   0.462   1.982 -0.9181  0.1611  0.2670
  875MOL0     H15435   6.179   0.910   1.786 -0.9049  0.5540 -2.7827
  875MOL0     H15436   6.016   1.078   1.864 -0.6726 -0.3501 -0.6838
  875MOL0     H15437   5.836   1.181   1.843 -0.3428  0.7557 -0.4184
  875MOL0     H15438   5.826   1.173   2.019 -0.3053 -0.8013  1.2258
  875MOL0     H15439   5.644   1.332   1.976 -2.3708 -0.7482  1.4734
  875MOL0     H15440   5.578   1.169   2.006  0.3676 -0.1695 -0.1974
  875MOL0     H15441   5.520   1.125   1.784 -0.8759  0.7063  1.5142
  875MOL0     H15442   5.631   1.248   1.716 -0.9825  2.1352 -1.2847
  875MOL0     H15443   5.377   1.281   1.893 -0.4063 -0.3656  0.1434
  875MOL0     H15444   5.488   1.419   1.848  0.8419  1.8910 -4.1502
  875MOL0     H15445   5.329   1.230   1.656  2.1868  0.4650 -3.9696
  875MOL0     H15446   5.426   1.367   1.608 -0.4736  0.8171 -0.5476
  875MOL0     H15447   5.213   1.402   1.805  0.9057 -0.1954 -0.1207
  875MOL0     H15448   5.167   1.398   1.625  0.5562 -3.3211 -0.2890
  875MOL0     H15449   5.346   1.579   1.778 -0.0610 -3.5790  0.6142
  875MOL0     H15450   5.316   1.599   1.602 -1.9471  2.7115 -0.6032
  875MOL0     H15451   5.193   1.748   1.779  1.8176 -0.0541 -3.1079
  875MOL0     H15452   5.110   1.589   1.819  4.2357 -3.9828  1.0189
  875MOL0     H15453   4.897   1.563   1.635  1.1169 -1.8379 -0.1692
  875MOL0     H15454   4.752   1.797   1.378 -0.8864 -0.2604 -0.0747
  875MOL0     H15455   4.729   1.630   1.432 -0.8136  0.7212  2.3082
  875MOL0     H15456   4.922   1.558   1.280 -0.6118  0.8149  1.5448
  875MOL0     H15457   4.907   1.717   1.203 -1.9765  3.1762  2.4889
  875MOL0     H15458   4.771   1.539   1.085 -0.1491  1.4807 -1.4675
  875MOL0     H15459   4.675   1.517   1.231 -0.6201  1.2504  0.4347
  875MOL0     H15460   4.703   1.786   1.071 -1.7083  0.1048  0.6991
  875MOL0     H15461   4.598   1.758   1.201  0.3906  0.5916 -0.1308
  875MOL0     H15462   4.490   1.935   1.054 -0.2465  1.4130 -0.3977
  875MOL0     H15463   4.242   2.022   1.064 -0.0900  0.3057 -0.8791
  875MOL0     H15464   3.777   1.726   0.754  0.4513  3.3361 -4.5767
  875MOL0     H15465   3.538   1.777   0.718 -0.6263  1.0616 -0.1768
  875MOL0     H15466   3.326   1.831   1.022 -3.0084  1.4052  1.2044
  875MOL0     H15467   3.349   1.740   0.869  0.5253  0.5097 -1.0649
  875MOL0     H15468   3.117   1.766   0.923  3.4106 -0.9950  1.8758
  875MOL0     H15469   3.140   1.876   0.781  0.2788 -1.4198  0.3550
  875MOL0     H15470   3.151   2.066   0.927 -0.5030 -1.7072 -3.4422
  875MOL0     H15471   3.148   1.977   1.075  1.7573 -0.1973 -0.5080
  875MOL0     H15472   2.927   2.008   0.853 -2.5111  0.4407  1.5702
  875MOL0     H15473   2.912   1.879   0.964  0.1221  0.6384  1.6563
  875MOL0     H15474   2.925   2.171   1.029  1.3712 -0.5410 -2.1572
  875MOL0     H15475   2.927   2.055   1.159  0.0156 -0.3455  1.2389
  875MOL0     H15476   2.729   1.932   1.071 -1.6133  0.5655 -1.1269
  875MOL0     H15477   2.713   2.048   0.940  0.0992  2.3186  0.6818
  875MOL0     H15478   2.548   2.096   1.122  0.8968 -3.8952 -3.2825
  875MOL0     H15479   2.666   2.085   1.245 -2.9992  1.4961  0.4402
  875MOL0     H15480   2.795   2.295   1.157  0.1256  0.0329 -0.8164
  875MOL0     H15481   2.622   2.354   1.162 -0.5556  2.2086 -4.4748
  875MOL0     H15482   3.533   2.040   1.057 -1.7633 -1.4134 -1.1668
  875MOL0     H15483   3.789   1.996   1.098 -2.8268 -1.2280  2.7217
  875MOL0     H15484   4.105   1.661   0.892 -1.6088  0.8526  0.4008
  875MOL0     H15485   4.335   1.564   0.906  2.6180 -0.7336  0.3727
  875MOL0     H15486   5.721   0.757   1.879  1.2592 -3.2671 -0.1111
  875MOL0     H15487   5.888   0.588   1.846 -1.0424 -0.2104 -1.2299
  875MOL0     H15488   6.288   0.462   1.673 -0.9735  0.6002  1.2162
  875MOL0     H15489   6.476   0.338   1.616  0.5321 -2.9039  1.0688
  875MOL0     H15490   6.583   0.159   1.608  0.7008  2.6299  0.8991
  875MOL0     H15491   6.564   0.039   1.733  1.5031 -0.3056  1.7727
  875MOL0     H15492   6.765  -0.009   1.588  2.1796 -0.9964 -0.2335
  875MOL0     H15493   6.846   0.139   1.651 -0.3341  0.5173  1.0179
  875MOL0     H15494   6.761  -0.085   1.835 -0.6069  0.7664 -0.1665
  875MOL0     H15495   6.816   0.084   1.874 -2.8231  0.8464 -1.4853
  875MOL0     H15496   6.966  -0.109   1.715 -0.4203  0.0068  0.2572
  875MOL0     H15497   7.026   0.056   1.766  1.3291  0.1632  1.0810
  875MOL0     H15498   7.138  -0.171   2.100 -1.1595  1.2742  0.4154
  875MOL0     H15499   6.577   0.315   2.023 -0.6736  0.1718  0.7387
  875MOL0     H15500   6.397   0.480   2.087 -1.1577  0.2494  0.2023
  876MOL0     O15501   5.030   6.671   0.221 -0.4392 -0.1249 -0.2234
  876MOL0     C15502   4.967   6.651   0.321  0.3156 -0.7716  0.6481
  876MOL0     O15503   5.019   6.616   0.442 -0.3031 -0.0190 -1.1357
  876MOL0     C15504   5.151   6.613   0.454 -0.6057  0.4993 -0.1933
  876MOL0     C15505   5.215   6.504   0.407 -0.2523  0.9949 -0.5817
  876MOL0     C15506   5.357   6.499   0.410 -0.1692 -1.2072 -0.1002
  876MOL0     C15507   5.433   6.602   0.472  0.4218  0.5017  0.4934
  876MOL0     O15508   5.569   6.608   0.486 -0.4016  0.4763 -0.0699
  876MOL0     C15509   5.630   6.473   0.505  0.2778 -0.2392 -0.7912
  876MOL0     C15510   5.771   6.504   0.558  1.0437 -0.9244  0.2086
  876MOL0     C15511   5.855   6.387   0.609  0.8271 -0.1315 -1.0303
  876MOL0     C15512   5.997   6.437   0.636 -0.3179  0.4257 -0.7762
  876MOL0     C15513   6.077   6.415   0.512 -0.1470  0.0310  0.0971
  876MOL0     C15514   6.223   6.469   0.533 -0.5633 -0.5602  0.5698
  876MOL0     C15515   6.319   6.408   0.625 -0.6061 -0.3151 -0.2355
  876MOL0     C15516   6.447   6.491   0.622 -0.0657  0.1426 -0.5981
  876MOL0     N15517   6.459   6.593   0.727 -0.0905 -0.1740 -0.3680
  876MOL0     C15518   6.562   6.605   0.819 -0.0301  0.0622  0.1193
  876MOL0     C15519   6.537   6.715   0.885  0.5290 -0.0594 -0.1822
  876MOL0     C15520   6.620   6.763   1.012  0.8659  0.3938  0.2851
  876MOL0     C15521   6.741   6.839   0.984  0.4585 -0.3057  0.2953
  876MOL0     C15522   6.719   6.960   0.890  0.3550  0.5411 -0.3380
  876MOL0     C15523   6.771   7.088   0.961 -0.4606  0.1121  0.3638
  876MOL0     O15524   6.831   7.172   0.858  0.4565 -0.4539 -0.1628
  876MOL0     C15525   6.738   7.230   0.770  1.2834 -0.7375  0.1486
  876MOL0     C15526   6.800   7.308   0.670 -0.5734  0.0633  0.4612
  876MOL0     C15527   6.733   7.367   0.564  0.3704 -0.4229  0.5690
  876MOL0     C15528   6.593   7.359   0.557 -0.9928 -0.5143 -0.0422
  876MOL0     C15529   6.516   7.423   0.449  1.2433  0.2888 -0.1897
  876MOL0     O15530   6.579   7.481   0.347 -0.0337  0.0363 -0.5590
  876MOL0     C15531   6.519   7.524   0.232  0.2681  0.4749 -0.6015
  876MOL0     C15532   6.478   7.662   0.220 -0.7580 -0.4802  1.5245
  876MOL0     C15533   6.418   7.702   0.094 -0.2406  0.1225  0.4795
  876MOL0     C15534   6.402   7.617  -0.009  0.7632  0.5472 -0.0075
  876MOL0     O15535   6.354   7.662  -0.125  0.1829 -0.2244  0.3174
  876MOL0     C15536   6.452   7.719  -0.206 -0.3432 -1.1064 -0.2264
  876MOL0     C15537   6.397   7.773  -0.343  0.4701 -0.2586 -0.0037
  876MOL0     C15538   6.494   7.848  -0.437  0.1263  0.1212 -0.1415
  876MOL0     C15539   6.423   7.956  -0.525  0.6417 -0.0466  0.0064
  876MOL0     C15540   6.524   8.020  -0.619  0.2347  0.5539 -0.0266
  876MOL0     C15541   6.472   8.140  -0.696 -0.6064  0.7722 -1.0151
  876MOL0     C15542   6.588   8.195  -0.779  1.0230  0.0394  0.2585
  876MOL0     C15543   6.630   8.099  -0.900 -0.5352 -0.1124 -0.4390
  876MOL0    Cl15544   6.766   8.175  -0.982  0.0406 -0.0876  0.0329
  876MOL0     C15545   6.435   7.485   0.009 -0.2252  0.4156  0.5945
  876MOL0     C15546   6.492   7.440   0.125 -0.2779  0.3831  0.1226
  876MOL0     O15547   6.392   7.402   0.450  0.4765 -0.3929  0.0112
  876MOL0     C15548   6.525   7.286   0.653  0.3378  0.1101  0.1559
  876MOL0     C15549   6.594   7.220   0.757 -0.2105  1.2678  0.4709
  876MOL0     N15550   6.414   6.771   0.845 -0.5270 -0.9397  0.2605
  876MOL0     N15551   6.372   6.696   0.748  0.1550 -0.6424 -0.0029
  876MOL0     C15552   5.362   6.708   0.521  0.3748 -0.0048  0.2109
  876MOL0     C15553   5.220   6.722   0.523  0.0592  0.3088  0.4137
  876MOL0     C15554   4.814   6.654   0.309 -0.6516  0.6486  0.1693
  876MOL0     C15555   4.749   6.634   0.185  0.4618  0.2325 -0.0928
  876MOL0     C15556   4.610   6.648   0.182  0.4129  0.2303 -0.4038
  876MOL0     C15557   4.532   6.668   0.299  0.2635 -0.3157 -0.0506
  876MOL0     O15558   4.394   6.676   0.282 -0.2851 -0.6516  0.4626
  876MOL0     C15559   4.317   6.714   0.398 -0.3118  0.5192 -0.0279
  876MOL0     C15560   4.174   6.701   0.361 -0.2834 -0.1022 -0.3687
  876MOL0     C15561   4.130   6.551   0.380  0.3691  0.4951  0.3445
  876MOL0     C15562   3.980   6.535   0.408 -0.6366 -0.5435  0.2179
  876MOL0     C15563   3.887   6.605   0.330 -0.6260 -1.0092 -0.1680
  876MOL0     C15564   3.798   6.657   0.269 -0.6841 -0.2736  0.6989
  876MOL0     C15565   4.603   6.685   0.417  0.6626  0.5448 -0.1403
  876MOL0     C15566   4.741   6.682   0.421 -0.0196 -0.0497  0.0208
  876MOL0     H15567   5.174   6.418   0.356  1.4951  0.3589 -1.0001
  876MOL0     H15568   5.404   6.411   0.367 -0.3444 -1.9083  1.1056
  876MOL0     H15569   5.646   6.415   0.413 -0.2787  1.8467 -2.2519
  876MOL0     H15570   5.578   6.418   0.584 -0.9074  1.6538 -0.2080
  876MOL0     H15571   5.744   6.565   0.644 -1.9660 -0.4877 -0.9334
  876MOL0     H15572   5.832   6.560   0.487  0.5184  1.2020  1.3600
  876MOL0     H15573   5.847   6.311   0.530  0.7250  0.2354 -1.3781
  876MOL0     H15574   5.806   6.344   0.697 -1.2858 -0.6924 -2.3869
  876MOL0     H15575   5.993   6.541   0.668 -3.4466 -0.3817  2.0013
  876MOL0     H15576   6.042   6.397   0.728 -1.3716  1.5734  0.2771
  876MOL0     H15577   6.029   6.469   0.429 -0.3624  0.2280  0.3493
  876MOL0     H15578   6.082   6.307   0.497 -1.5085 -0.0145 -0.2079
  876MOL0     H15579   6.216   6.571   0.572  1.6990 -0.2277  0.2571
  876MOL0     H15580   6.271   6.483   0.436 -0.0514 -3.8692  0.2082
  876MOL0     H15581   6.283   6.414   0.728  0.6980  1.2403  0.1756
  876MOL0     H15582   6.337   6.303   0.599 -1.2752 -1.1322  2.3303
  876MOL0     H15583   6.462   6.540   0.526  1.1834  0.3579 -0.3175
  876MOL0     H15584   6.524   6.419   0.654 -1.0691 -0.6741  0.0587
  876MOL0     H15585   6.644   6.536   0.838 -1.8546 -1.9024  1.3285
  876MOL0     H15586   6.641   6.673   1.070  1.3615 -0.4382 -1.1280
  876MOL0     H15587   6.557   6.832   1.068 -0.7340  0.3701 -1.3929
  876MOL0     H15588   6.814   6.774   0.934  0.9181  1.5756 -1.6187
  876MOL0     H15589   6.795   6.867   1.075  1.6118 -0.6274 -0.2567
  876MOL0     H15590   6.774   6.942   0.797  1.8439 -0.3687  0.6669
  876MOL0     H15591   6.614   6.980   0.866 -0.3357 -1.3361  0.8789
  876MOL0     H15592   6.851   7.069   1.034  3.2167  2.1575 -2.7750
  876MOL0     H15593   6.685   7.128   1.014 -1.5389 -1.4566 -0.1393
  876MOL0     H15594   6.907   7.314   0.688 -0.1949  1.1474 -1.7682
  876MOL0     H15595   6.791   7.422   0.491 -1.3444  0.1810 -0.4011
  876MOL0     H15596   6.488   7.747   0.287  2.0020  1.3671 -0.9420
  876MOL0     H15597   6.385   7.805   0.083 -0.6855 -0.1664 -1.1043
  876MOL0     H15598   6.532   7.645  -0.221 -1.8757 -3.0198  0.7321
  876MOL0     H15599   6.503   7.804  -0.159 -0.6759 -0.7123 -0.5757
  876MOL0     H15600   6.305   7.830  -0.324 -0.9930 -2.6994  0.7342
  876MOL0     H15601   6.360   7.690  -0.405 -0.2307  1.9330 -2.7374
  876MOL0     H15602   6.556   7.782  -0.499  2.1174 -1.2402  3.0198
  876MOL0     H15603   6.575   7.893  -0.379  1.0710  0.2342 -1.5070
  876MOL0     H15604   6.342   7.910  -0.583  0.6546  1.1393 -0.9880
  876MOL0     H15605   6.368   8.028  -0.463  0.4497  0.3810 -0.6575
  876MOL0     H15606   6.551   7.942  -0.691  0.2309  1.6439 -1.2329
  876MOL0     H15607   6.608   8.044  -0.552  0.9231 -1.4608 -0.0779
  876MOL0     H15608   6.423   8.210  -0.627 -1.5824 -1.6425  0.8962
  876MOL0     H15609   6.407   8.103  -0.776 -0.4123  1.5009 -1.5214
  876MOL0     H15610   6.556   8.286  -0.832  1.7508 -0.0079 -0.2866
  876MOL0     H15611   6.673   8.214  -0.713 -0.6948  0.9451  2.3442
  876MOL0     H15612   6.540   8.089  -0.960  0.3495 -0.9496 -1.6747
  876MOL0     H15613   6.663   8.002  -0.862  3.1823  2.0683  2.7541
  876MOL0     H15614   6.431   7.413  -0.073  1.7898  0.4310  0.4380
  876MOL0     H15615   6.527   7.340   0.147  0.3756  0.7333  0.7279
  876MOL0     H15616   6.419   7.269   0.641  0.2500  1.0693 -0.5534
  876MOL0     H15617   6.526   7.177   0.829 -0.5184  1.0854  0.0800
  876MOL0     H15618   5.413   6.788   0.574 -0.4517  0.0300  0.9765
  876MOL0     H15619   5.178   6.796   0.590  1.7975  4.2743 -2.4629
  876MOL0     H15620   4.801   6.616   0.091  0.6600  0.7830 -0.0903
  876MOL0     H15621   4.563   6.657   0.084  0.2084  2.0443 -0.1827
  876MOL0     H15622   4.337   6.819   0.419 -2.2322  1.1592 -1.1857
  876MOL0     H15623   4.322   6.662   0.495 -1.5056  1.5933  0.6462
  876MOL0     H15624   4.123   6.768   0.432  2.7929 -0.4135  2.3752
  876MOL0     H15625   4.149   6.741   0.263 -0.6460  3.5189  1.0538
  876MOL0     H15626   4.187   6.490   0.450  0.4751 -1.0623 -1.0286
  876MOL0     H15627   4.148   6.500   0.285  1.8523 -0.1815  0.9533
  876MOL0     H15628   3.941   6.435   0.389 -1.0614 -0.5243  0.9540
  876MOL0     H15629   3.963   6.554   0.514 -0.4070  1.0104  0.0003
  876MOL0     H15630   3.711   6.709   0.234 -1.2999  0.9935  3.7830
  876MOL0     H15631   4.553   6.694   0.513 -2.7675 -3.4238 -1.2500
  876MOL0     H15632   4.795   6.693   0.515  0.1293  0.3679 -0.1129
  877MOL0     O15633   6.911   3.070   0.557  0.5800  0.1088  0.1026
  877MOL0     C15634   6.920   3.047   0.675 -0.0875 -0.3874  0.5032
  877MOL0     O15635   6.821   3.059   0.769  0.6818 -0.2212  0.3307
  877MOL0     C15636   6.689   3.094   0.726  0.3301 -0.2071  0.1317
  877MOL0     C15637   6.617   2.986   0.678 -0.1376 -0.5055 -0.1998
  877MOL0     C15638   6.482   3.003   0.655  0.1283 -0.0792  0.5276
  877MOL0     C15639   6.414   3.122   0.674 -0.4406  0.0487  1.0609
  877MOL0     O15640   6.283   3.154   0.650 -0.1196  0.1448 -0.3291
  877MOL0     C15641   6.189   3.051   0.627 -0.7656 -0.3054  0.6215
  877MOL0     C15642   6.056   3.131   0.600 -0.8196  1.1542 -0.2800
  877MOL0     C15643   5.970   3.031   0.542 -0.3069  0.0779 -0.2526
  877MOL0     C15644   5.843   3.102   0.487 -0.4399  0.4335  0.5244
  877MOL0     C15645   5.750   3.153   0.603  0.6344  0.2395 -0.1336
  877MOL0     C15646   5.646   3.259   0.554  0.0952 -0.3112 -0.4642
  877MOL0     C15647   5.558   3.317   0.674  0.7485 -0.3656  0.3051
  877MOL0     C15648   5.456   3.203   0.712 -0.6089 -0.7267 -0.8007
  877MOL0     N15649   5.357   3.257   0.816  0.5754  0.2056  0.1966
  877MOL0     C15650   5.363   3.222   0.946  1.0130  0.2949 -0.6237
  877MOL0     C15651   5.294   3.327   1.006  0.3771 -1.1499 -0.2165
  877MOL0     C15652   5.268   3.352   1.155 -0.7549 -1.3036 -0.0580
  877MOL0     C15653   5.127   3.344   1.188  0.5063  0.0571 -0.2912
  877MOL0     C15654   5.089   3.343   1.339  0.2250  0.2570 -0.8670
  877MOL0     C15655   4.938   3.362   1.368 -0.0776  0.1925  0.2578
  877MOL0     O15656   4.873   3.239   1.321  0.1625 -0.4986  0.4230
  877MOL0     C15657   4.738   3.221   1.347 -0.3504 -0.7512 -0.6240
  877MOL0     C15658   4.649   3.320   1.378  0.0416  0.4520 -0.1042
  877MOL0     C15659   4.514   3.280   1.401  0.4072 -0.1918 -0.2772
  877MOL0     C15660   4.469   3.145   1.386 -1.0195 -0.5301 -0.8753
  877MOL0     C15661   4.324   3.117   1.399 -0.5157  0.3324  0.0260
  877MOL0     O15662   4.241   3.214   1.449 -0.4865 -0.3240  1.1521
  877MOL0     C15663   4.104   3.203   1.456  1.3432 -0.5541 -0.1219
  877MOL0     C15664   4.037   3.324   1.480 -0.7391 -0.0357  0.1859
  877MOL0     C15665   3.894   3.337   1.475 -0.1168  0.3427  0.3482
  877MOL0     C15666   3.818   3.228   1.434 -0.7363  0.8332  1.0194
  877MOL0     O15667   3.684   3.258   1.420  0.1742 -0.3663 -0.2400
  877MOL0     C15668   3.600   3.153   1.376  0.3266 -0.4958  0.9368
  877MOL0     C15669   3.452   3.200   1.411 -0.5146  0.3782  0.1233
  877MOL0     C15670   3.360   3.085   1.363 -0.2144  0.2729 -0.4290
  877MOL0     C15671   3.214   3.125   1.377  0.2915  0.0352 -1.1496
  877MOL0     C15672   3.158   3.076   1.516 -0.6619 -0.8677 -1.0795
  877MOL0     C15673   3.013   3.098   1.525  0.1596 -0.6540  0.1410
  877MOL0     C15674   2.959   3.072   1.673 -0.3740  0.0062  0.1102
  877MOL0     C15675   2.826   2.992   1.677 -0.0588  0.2663 -0.3588
  877MOL0    Cl15676   2.853   2.816   1.664  0.2768 -0.2369  0.7257
  877MOL0     C15677   3.883   3.102   1.418  0.3422 -0.4212 -1.1501
  877MOL0     C15678   4.024   3.087   1.424 -0.4791 -1.3593 -0.4580
  877MOL0     O15679   4.297   3.006   1.358  0.9230  0.0587 -0.5691
  877MOL0     C15680   4.563   3.050   1.348 -0.0151  0.4245  0.6320
  877MOL0     C15681   4.696   3.094   1.327  0.9503  0.7030 -0.4353
  877MOL0     N15682   5.231   3.404   0.904  0.4041  0.5240  0.3158
  877MOL0     N15683   5.278   3.364   0.797 -0.1631  0.3334  0.3725
  877MOL0     C15684   6.485   3.236   0.708  0.2021  0.1040  0.2010
  877MOL0     C15685   6.621   3.219   0.741 -0.0953 -0.7074  0.7650
  877MOL0     C15686   7.052   3.004   0.720 -0.3099  0.1770 -0.2881
  877MOL0     C15687   7.145   2.949   0.629  0.3129  0.5514 -0.4109
  877MOL0     C15688   7.272   2.912   0.683  0.7401  0.0915 -0.3043
  877MOL0     C15689   7.304   2.938   0.819 -0.3050  1.0983 -0.5781
  877MOL0     O15690   7.430   2.894   0.859 -0.9213  0.7109 -0.4128
  877MOL0     C15691   7.469   2.895   0.996 -0.2620 -0.2985  0.2839
  877MOL0     C15692   7.610   2.840   1.013  0.2341 -0.5399  0.0213
  877MOL0     C15693   7.726   2.924   0.942 -0.6067 -0.3436  0.5159
  877MOL0     C15694   7.860   2.915   1.018  0.4842 -1.2394 -0.0859
  877MOL0     C15695   7.970   2.960   0.930  0.2258  0.3705  0.6604
  877MOL0     C15696   8.068   2.976   0.859 -0.5780 -0.0195 -0.6187
  877MOL0     C15697   7.212   2.998   0.901 -0.1835  1.4094 -0.8727
  877MOL0     C15698   7.090   3.040   0.855  1.3844 -0.0940 -0.6654
  877MOL0     H15699   6.684   2.902   0.671  0.5462 -0.1738  1.9188
  877MOL0     H15700   6.421   2.927   0.606 -0.0013  1.4063 -1.7791
  877MOL0     H15701   6.197   2.985   0.714  2.2976  0.7337  1.2270
  877MOL0     H15702   6.226   3.006   0.535 -1.9837  0.5820 -0.3383
  877MOL0     H15703   6.070   3.219   0.537  0.2223 -0.4647 -2.4618
  877MOL0     H15704   6.013   3.171   0.692 -0.4902 -0.0044  0.4087
  877MOL0     H15705   5.930   2.962   0.617 -2.2497  2.2909  0.9085
  877MOL0     H15706   6.023   2.984   0.459  0.5366 -0.1999  0.4319
  877MOL0     H15707   5.879   3.189   0.433 -0.5868 -0.2649 -0.7328
  877MOL0     H15708   5.789   3.028   0.426  1.0932 -0.2982  0.0076
  877MOL0     H15709   5.808   3.207   0.678 -1.5886 -0.7136  2.4106
  877MOL0     H15710   5.691   3.072   0.646  0.5244 -2.5611 -4.8758
  877MOL0     H15711   5.591   3.216   0.471  0.5362 -3.0151  0.5605
  877MOL0     H15712   5.692   3.355   0.526  2.9140 -1.3071  0.4130
  877MOL0     H15713   5.603   3.359   0.765 -2.7404  1.9086  1.2278
  877MOL0     H15714   5.494   3.395   0.632  0.5246 -0.1471  1.0315
  877MOL0     H15715   5.506   3.113   0.750 -0.7695 -0.8674 -0.9208
  877MOL0     H15716   5.399   3.165   0.628  0.0297  2.4604 -2.8626
  877MOL0     H15717   5.425   3.146   0.993 -2.2472 -0.7644  2.5090
  877MOL0     H15718   5.303   3.451   1.185 -0.7638 -0.3119 -3.0141
  877MOL0     H15719   5.335   3.282   1.205 -0.7154 -1.4178 -0.2718
  877MOL0     H15720   5.085   3.250   1.150 -0.2939 -0.1442  1.0335
  877MOL0     H15721   5.075   3.428   1.142 -0.3517 -0.0755  0.4194
  877MOL0     H15722   5.127   3.249   1.379 -3.6274 -2.1687 -2.2609
  877MOL0     H15723   5.143   3.411   1.405 -0.3531 -0.4828  0.4017
  877MOL0     H15724   4.901   3.455   1.325  2.7889 -0.1468 -3.5020
  877MOL0     H15725   4.929   3.363   1.477 -0.0188  0.9946  0.2569
  877MOL0     H15726   4.674   3.425   1.382 -0.5314  0.6393 -1.0740
  877MOL0     H15727   4.438   3.352   1.430 -0.3791 -0.4793 -1.5191
  877MOL0     H15728   4.102   3.408   1.501  0.4030 -0.4722 -1.4140
  877MOL0     H15729   3.851   3.436   1.486  2.8532  1.7905  0.0825
  877MOL0     H15730   3.608   3.057   1.429 -0.2027 -1.0702  0.0053
  877MOL0     H15731   3.608   3.139   1.268 -3.2630 -0.7715  0.6003
  877MOL0     H15732   3.434   3.298   1.366 -1.3017  1.3270  2.3388
  877MOL0     H15733   3.458   3.220   1.518  1.6468  1.7147 -0.2064
  877MOL0     H15734   3.389   2.990   1.408 -2.8805 -0.8843 -1.0003
  877MOL0     H15735   3.374   3.079   1.254 -0.1394 -0.3671 -0.3853
  877MOL0     H15736   3.207   3.234   1.370 -2.8596  0.3982  3.3386
  877MOL0     H15737   3.148   3.080   1.302 -1.9646  2.0071 -0.4590
  877MOL0     H15738   3.210   3.135   1.592 -0.5358 -0.0361 -1.8029
  877MOL0     H15739   3.184   2.970   1.525 -0.7010 -0.9515 -1.8692
  877MOL0     H15740   2.960   3.037   1.451  0.7183  1.0487 -1.7483
  877MOL0     H15741   2.998   3.205   1.510  2.6544 -0.3943 -1.0976
  877MOL0     H15742   3.029   3.023   1.742  0.7669  0.7215 -0.5033
  877MOL0     H15743   2.937   3.170   1.718 -0.5822 -0.4385  1.0002
  877MOL0     H15744   2.760   3.026   1.597  2.2709  0.4227 -2.3300
  877MOL0     H15745   2.788   3.014   1.777 -3.1941 -1.4750 -1.0542
  877MOL0     H15746   3.822   3.015   1.400  0.3289 -0.5981 -0.3090
  877MOL0     H15747   4.068   2.989   1.404  2.0311 -0.6618  1.1163
  877MOL0     H15748   4.521   2.952   1.329  0.4436  0.6441 -1.9010
  877MOL0     H15749   4.769   3.021   1.293  1.4030 -0.4100  2.5545
  877MOL0     H15750   6.440   3.334   0.723 -0.2711  0.1382 -1.3151
  877MOL0     H15751   6.673   3.308   0.774 -0.2425  0.3075 -1.5499
  877MOL0     H15752   7.122   2.924   0.526 -0.4666 -0.5067  0.0014
  877MOL0     H15753   7.340   2.865   0.613  0.5121 -0.0679 -0.4195
  877MOL0     H15754   7.386   2.841   1.042 -3.2126  2.7566 -1.0721
  877MOL0     H15755   7.466   2.991   1.047 -2.8670 -1.3363  2.3243
  877MOL0     H15756   7.613   2.846   1.122  0.6223  2.2153 -0.0840
  877MOL0     H15757   7.620   2.734   0.986 -0.9403 -0.3898 -1.1048
  877MOL0     H15758   7.707   3.031   0.938 -0.1790 -0.2853 -0.0379
  877MOL0     H15759   7.744   2.882   0.843 -1.9730  0.0997  0.0547
  877MOL0     H15760   7.849   2.976   1.108 -0.8558 -0.5843 -0.6571
  877MOL0     H15761   7.881   2.813   1.049 -1.8626 -2.0910 -1.0318
  877MOL0     H15762   8.164   2.993   0.816  0.7227  0.0542  2.1156
  877MOL0     H15763   7.250   3.018   1.000  0.7506 -2.0156 -0.4179
  877MOL0     H15764   7.026   3.100   0.918  2.1567  0.6340 -0.5635
  878MOL0     O15765   7.300   9.190  10.316 -0.5565 -0.5571  0.0956
  878MOL0     C15766   7.278   9.140  10.205  0.1706 -0.6360 -0.8040
  878MOL0     O15767   7.149   9.147  10.146 -0.0233  0.2269 -0.0562
  878MOL0     C15768   7.042   9.156  10.229  0.9046 -0.9947  0.4227
  878MOL0     C15769   6.971   9.277  10.238 -0.5144  0.7761  0.4750
  878MOL0     C15770   6.853   9.295  10.319  0.5621 -0.4855 -0.0896
  878MOL0     C15771   6.807   9.193  10.397  0.4745  0.5253 -0.0097
  878MOL0     O15772   6.701   9.191  10.483  0.3627 -0.8805 -0.6206
  878MOL0     C15773   6.627   9.314  10.513 -0.1107 -0.3173  0.1966
  878MOL0     C15774   6.505   9.328  10.416 -0.4756 -0.6854 -0.1227
  878MOL0     C15775   6.438   9.462  10.426 -0.0248 -0.0032  0.3655
  878MOL0     C15776   6.381   9.496  10.568  0.0034  0.7169 -0.2353
  878MOL0     C15777   6.303   9.625  10.578 -0.3771  0.0528  0.6772
  878MOL0     C15778   6.215   9.646  10.456 -0.3164  0.6643 -0.6887
  878MOL0     C15779   6.105   9.739  10.487 -0.0484 -0.5103 -0.6704
  878MOL0     C15780   6.140   9.878  10.538 -0.6744 -0.9123 -0.0312
  878MOL0     N15781   6.015   9.957  10.559  0.3890 -0.2748  0.1170
  878MOL0     C15782   5.954  10.039  10.466 -0.7756  0.4042  0.0138
  878MOL0     C15783   5.840  10.083  10.526  0.5855 -1.0710  0.3668
  878MOL0     C15784   5.740  10.169  10.458  0.3548  0.0211  0.2651
  878MOL0     C15785   5.669  10.103  10.346 -0.3702 -0.0452 -0.1913
  878MOL0     C15786   5.575   9.987  10.394  0.3094 -0.9830 -0.0275
  878MOL0     C15787   5.584   9.856  10.321 -0.2239  0.3013 -0.0706
  878MOL0     O15788   5.548   9.877  10.185 -0.6126  0.6830 -0.7721
  878MOL0     C15789   5.414   9.908  10.154 -0.1752 -0.1155 -0.3888
  878MOL0     C15790   5.392  10.033  10.092 -0.6011  0.8274  0.0623
  878MOL0     C15791   5.265  10.089  10.065 -0.0542 -0.3810  1.0664
  878MOL0     C15792   5.154  10.004  10.087  0.5412  0.8147  0.0016
  878MOL0     C15793   5.019  10.060  10.073  0.2878 -0.6149 -0.1744
  878MOL0     O15794   5.005  10.178  10.007 -0.0542  0.0984 -0.5590
  878MOL0     C15795   4.888  10.246   9.987 -1.0171 -0.2375  0.5146
  878MOL0     C15796   4.889  10.385   9.999  0.2021 -0.1728 -0.9854
  878MOL0     C15797   4.770  10.456   9.973 -0.7691 -0.2384 -0.6063
  878MOL0     C15798   4.661  10.394   9.919  0.2291  0.6952 -0.0168
  878MOL0     O15799   4.554  10.461   9.862  0.0652  0.3631  0.2921
  878MOL0     C15800   4.464  10.510   9.961 -0.3885  0.1747 -0.4710
  878MOL0     C15801   4.330  10.462   9.930 -0.3926  0.6491  0.7003
  878MOL0     C15802   4.216  10.528  10.007 -0.1157  0.4320  0.0983
  878MOL0     C15803   4.078  10.489   9.946  0.2704 -0.5036 -0.1441
  878MOL0     C15804   3.964  10.518  10.046 -0.0708 -0.4758 -0.6229
  878MOL0     C15805   3.824  10.505   9.991 -0.4178 -0.4348 -0.1331
  878MOL0     C15806   3.719  10.576  10.072  0.6944 -0.2638  0.1873
  878MOL0     C15807   3.578  10.543  10.024 -0.4668 -0.8413 -0.7640
  878MOL0    Cl15808   3.449  10.599  10.132  0.0013  0.0970  0.0516
  878MOL0     C15809   4.656  10.252   9.899  0.0076  0.0979  0.7322
  878MOL0     C15810   4.772  10.176   9.941  0.2617 -0.1209  0.4495
  878MOL0     O15811   4.933   9.996  10.128  0.0835  0.1409  0.2333
  878MOL0     C15812   5.168   9.871  10.134 -0.5199  0.0092 -0.4996
  878MOL0     C15813   5.303   9.816  10.169 -0.7026 -0.2588  0.2065
  878MOL0     N15814   5.824  10.019  10.647 -0.1567  0.2832 -0.2695
  878MOL0     N15815   5.936   9.945  10.667  1.1870 -0.8686  0.0723
  878MOL0     C15816   6.877   9.077  10.391 -0.1907 -0.0362 -0.2136
  878MOL0     C15817   6.985   9.045  10.307  0.4697  0.3357 -0.0878
  878MOL0     C15818   7.381   9.071  10.130 -0.3199  0.1347 -0.6747
  878MOL0     C15819   7.361   8.990  10.009 -0.6532  0.1430 -0.5321
  878MOL0     C15820   7.475   8.939   9.945 -0.7295  0.2220 -0.4627
  878MOL0     C15821   7.607   8.964   9.987  0.1051 -0.0803  0.4880
  878MOL0     O15822   7.721   8.908   9.929 -0.3171 -0.0138  0.2859
  878MOL0     C15823   7.763   8.782   9.989 -0.6280 -0.3848  0.1170
  878MOL0     C15824   7.839   8.690   9.891  0.2610 -0.2630 -0.8563
  878MOL0     C15825   7.978   8.746   9.842 -0.4828  0.2258  0.2655
  878MOL0     C15826   7.964   8.822   9.703  0.2272  0.7053  0.3722
  878MOL0     C15827   8.095   8.880   9.656  0.4608 -0.0858 -0.5133
  878MOL0     C15828   8.198   8.922   9.610  0.8336 -0.1880  0.1247
  878MOL0     C15829   7.627   9.034  10.108 -0.4591  0.2792  1.3660
  878MOL0     C15830   7.518   9.086  10.176 -0.4241 -0.6028  0.4511
  878MOL0     H15831   7.017   9.360  10.185  0.4120  1.3408  2.0923
  878MOL0     H15832   6.813   9.396  10.315  0.3527 -0.5996 -1.0710
  878MOL0     H15833   6.695   9.400  10.504 -0.0065 -0.3367  0.7518
  878MOL0     H15834   6.589   9.327  10.615  1.7076 -0.4040  0.9220
  878MOL0     H15835   6.440   9.244  10.444  1.4880 -2.4013 -0.4781
  878MOL0     H15836   6.534   9.310  10.312  2.1472  0.0519  0.4101
  878MOL0     H15837   6.352   9.456  10.358  0.7581 -0.2279 -0.6287
  878MOL0     H15838   6.516   9.533  10.399  2.7010 -1.7997  2.9091
  878MOL0     H15839   6.311   9.415  10.593 -1.5272  1.9667 -0.3093
  878MOL0     H15840   6.459   9.503  10.645  0.2877  1.2550 -0.5686
  878MOL0     H15841   6.379   9.704  10.579 -1.6380  1.3264 -0.0468
  878MOL0     H15842   6.249   9.623  10.673 -0.1996 -0.0608  0.7782
  878MOL0     H15843   6.167   9.552  10.428 -0.1437  0.8749 -1.7741
  878MOL0     H15844   6.264   9.680  10.364 -3.2008  1.2482 -2.1033
  878MOL0     H15845   6.033   9.750  10.405  0.2529  0.6336 -0.8105
  878MOL0     H15846   6.050   9.688  10.567 -0.8071 -1.0284 -1.4966
  878MOL0     H15847   6.202   9.934  10.467 -1.6746 -2.9854 -2.7168
  878MOL0     H15848   6.191   9.869  10.634  0.3866  0.3042 -0.4507
  878MOL0     H15849   5.991  10.061  10.367 -0.8025  0.0475 -0.0762
  878MOL0     H15850   5.794  10.257  10.421  2.0758 -0.9764  0.3106
  878MOL0     H15851   5.673  10.204  10.537  0.1055  1.5282 -0.5661
  878MOL0     H15852   5.741  10.058  10.277 -0.3053 -1.6623  0.8729
  878MOL0     H15853   5.604  10.181  10.307 -0.1818  1.8988  2.9858
  878MOL0     H15854   5.591   9.959  10.499  0.3871 -0.9188 -0.0225
  878MOL0     H15855   5.472  10.020  10.380 -0.0494 -2.1919 -0.3849
  878MOL0     H15856   5.511   9.790  10.368  1.1275 -0.1888  1.4096
  878MOL0     H15857   5.683   9.813  10.337  0.3813  2.0295  1.0588
  878MOL0     H15858   5.472  10.107  10.079  1.4610 -1.3718 -0.4852
  878MOL0     H15859   5.259  10.190  10.027 -0.1784 -1.1704 -1.1574
  878MOL0     H15860   4.976  10.431  10.046 -1.0810  0.9700  0.3637
  878MOL0     H15861   4.766  10.562   9.999  1.5381 -0.4895  1.0913
  878MOL0     H15862   4.471  10.619   9.956 -2.1766  0.3775  0.5688
  878MOL0     H15863   4.488  10.491  10.066 -1.7778  4.1777  0.7705
  878MOL0     H15864   4.320  10.356   9.954  0.0429  0.4619  0.0808
  878MOL0     H15865   4.324  10.483   9.823  2.4393  0.1048  0.3467
  878MOL0     H15866   4.234  10.636  10.016  4.1910 -0.2058  1.3616
  878MOL0     H15867   4.211  10.496  10.112  3.5091 -3.4103 -0.6742
  878MOL0     H15868   4.059  10.556   9.861  1.2736  1.1321  0.8714
  878MOL0     H15869   4.070  10.383   9.918 -0.0355 -0.8870  1.3428
  878MOL0     H15870   3.972  10.620  10.086  0.1879 -0.1867 -1.3928
  878MOL0     H15871   3.970  10.450  10.132  2.0115 -1.2410 -1.2989
  878MOL0     H15872   3.803  10.399   9.977  0.3477 -0.5718 -0.3009
  878MOL0     H15873   3.820  10.543   9.889 -2.5019  0.5429  0.2461
  878MOL0     H15874   3.723  10.545  10.176  0.3811  0.3896  0.3966
  878MOL0     H15875   3.731  10.684  10.065  0.0769 -0.1664  0.6018
  878MOL0     H15876   3.576  10.434  10.016  4.2874 -0.9987 -3.9831
  878MOL0     H15877   3.559  10.591   9.928  0.9417  0.6566 -0.3393
  878MOL0     H15878   4.578  10.189   9.857 -0.0379 -1.7069  3.3308
  878MOL0     H15879   4.756  10.069   9.929 -1.1133  0.2387 -1.3672
  878MOL0     H15880   5.080   9.808  10.147 -0.8974  0.4899 -0.7042
  878MOL0     H15881   5.319   9.715  10.208  2.1548  0.6802  1.8210
  878MOL0     H15882   6.837   8.995  10.449 -2.6493  2.2438  1.5669
  878MOL0     H15883   7.021   8.943  10.296 -1.2019 -0.5481  1.9858
  878MOL0     H15884   7.261   8.963   9.976 -1.5909  2.2555  0.3822
  878MOL0     H15885   7.470   8.880   9.854  2.6001  0.9405 -1.2297
  878MOL0     H15886   7.676   8.734  10.033  0.2483 -3.8897 -1.6080
  878MOL0     H15887   7.840   8.808  10.063  2.1714 -0.1430 -2.6628
  878MOL0     H15888   7.848   8.590   9.934 -3.6050 -0.5284 -0.3372
  878MOL0     H15889   7.768   8.675   9.810 -0.0329  1.0675 -0.8721
  878MOL0     H15890   8.050   8.664   9.829  1.4607  1.6768  1.2766
  878MOL0     H15891   8.025   8.819   9.909  1.6613 -1.5934  0.8649
  878MOL0     H15892   7.927   8.747   9.632 -0.0302  0.0044  1.2232
  878MOL0     H15893   7.895   8.907   9.704  0.4909  0.9173  0.9959
  878MOL0     H15894   8.290   8.960   9.571 -0.0646  1.0392 -0.9041
  878MOL0     H15895   7.730   9.054  10.133 -0.1910  1.6480 -0.5549
  878MOL0     H15896   7.540   9.151  10.259  1.5737  1.4276 -1.5042
  879MOL0     O15897   9.254   8.929   9.882 -0.3365  0.1082  0.2191
  879MOL0     C15898   9.323   8.963   9.783  0.6063  0.1678  0.1163
  879MOL0     O15899   9.259   9.020   9.674  0.1282 -0.2184  0.1829
  879MOL0     C15900   9.121   9.056   9.681 -0.3792 -0.0117  0.3726
  879MOL0     C15901   9.012   8.987   9.747 -0.7902  0.4039 -0.4462
  879MOL0     C15902   8.887   9.033   9.753  0.2685 -0.3521 -0.2014
  879MOL0     C15903   8.851   9.152   9.699  0.5454 -0.6490 -0.0861
  879MOL0     O15904   8.729   9.205   9.711  0.2541 -0.5085 -0.1875
  879MOL0     C15905   8.667   9.203   9.841 -0.7470  0.3568 -0.2707
  879MOL0     C15906   8.547   9.292   9.850 -0.1882 -0.2162  0.2774
  879MOL0     C15907   8.463   9.284   9.726  0.0202 -0.7692 -0.2643
  879MOL0     C15908   8.325   9.356   9.751 -0.5102  0.3197 -0.1691
  879MOL0     C15909   8.250   9.361   9.615 -0.4084  0.8774 -0.8221
  879MOL0     C15910   8.116   9.439   9.636 -0.5438 -0.0142 -0.1359
  879MOL0     C15911   8.005   9.354   9.698 -0.3481  0.4090  0.3937
  879MOL0     C15912   7.901   9.455   9.762  0.2293 -0.1463  0.3581
  879MOL0     N15913   7.835   9.536   9.655  0.3809 -0.1450  0.0100
  879MOL0     C15914   7.844   9.668   9.650 -0.1960  0.3289  0.4523
  879MOL0     C15915   7.783   9.699   9.529 -0.4369  0.0744  0.3865
  879MOL0     C15916   7.774   9.841   9.504 -0.3016 -0.4443 -0.4713
  879MOL0     C15917   7.661   9.913   9.587 -0.0684 -0.4070  0.2232
  879MOL0     C15918   7.524   9.845   9.606 -0.0263 -0.6540 -0.0836
  879MOL0     C15919   7.458   9.791   9.479 -0.3984  0.8653 -0.3716
  879MOL0     O15920   7.409   9.895   9.388 -0.1326 -0.0054  0.8185
  879MOL0     C15921   7.289   9.960   9.400  1.0907  0.4900 -0.8971
  879MOL0     C15922   7.278  10.075   9.328 -0.0959  1.3697 -0.5703
  879MOL0     C15923   7.161  10.143   9.318 -0.7359 -0.2020  0.0564
  879MOL0     C15924   7.047  10.116   9.388 -0.0144 -0.3421  0.0871
  879MOL0     C15925   6.933  10.195   9.361  1.1344  0.8056  0.7691
  879MOL0     O15926   6.818  10.162   9.426  0.1079 -0.4910  0.4937
  879MOL0     C15927   6.706  10.245   9.422 -0.4516  0.2427  0.6314
  879MOL0     C15928   6.583  10.182   9.443 -0.4860 -0.0289  0.3678
  879MOL0     C15929   6.463  10.259   9.441 -0.5209  0.3088 -0.2289
  879MOL0     C15930   6.466  10.399   9.418  1.0884 -0.1113  0.1883
  879MOL0     O15931   6.352  10.486   9.406  0.1914  0.4594 -0.0920
  879MOL0     C15932   6.228  10.450   9.482 -0.8099  0.9342  0.5433
  879MOL0     C15933   6.139  10.575   9.500 -0.3722  0.0847  0.1138
  879MOL0     C15934   6.090  10.648   9.374 -0.4626 -0.5374  0.3515
  879MOL0     C15935   5.973  10.745   9.401 -0.0010 -0.1654 -0.5918
  879MOL0     C15936   5.986  10.875   9.480  0.3978  0.8416  0.0243
  879MOL0     C15937   6.056  10.994   9.396 -0.5731 -0.4962 -0.6109
  879MOL0     C15938   6.210  10.977   9.382  0.8947  0.6339  0.7918
  879MOL0     C15939   6.284  11.094   9.310  0.0710  1.0336  0.3446
  879MOL0    Cl15940   6.456  11.040   9.298 -0.1816  0.2219 -0.0246
  879MOL0     C15941   6.596  10.455   9.406 -0.0553  0.2528 -0.4900
  879MOL0     C15942   6.711  10.385   9.406 -0.9970 -0.1098 -0.6548
  879MOL0     O15943   6.945  10.284   9.278 -0.4090  0.4050  0.4781
  879MOL0     C15944   7.058  10.007   9.475 -0.6828  0.7886 -0.1764
  879MOL0     C15945   7.171   9.925   9.481  0.5154  0.3720 -1.1570
  879MOL0     N15946   7.746   9.580   9.458 -0.4872 -0.3482 -0.0558
  879MOL0     N15947   7.774   9.486   9.543  0.8206  0.3618 -0.0329
  879MOL0     C15948   8.946   9.217   9.623 -0.6131  0.2713  0.9229
  879MOL0     C15949   9.078   9.170   9.613  0.1895  0.2821  0.0007
  879MOL0     C15950   9.478   8.969   9.803 -0.6892  0.1770 -0.2898
  879MOL0     C15951   9.546   8.905   9.908  0.5266  0.5051 -0.1596
  879MOL0     C15952   9.685   8.902   9.907 -0.2295 -0.4613  1.2344
  879MOL0     C15953   9.757   8.962   9.796  0.3178  0.1540 -0.0235
  879MOL0     O15954   9.889   8.930   9.769 -0.4326  0.1873 -0.0928
  879MOL0     C15955   9.973   8.969   9.879 -0.7807 -0.2843 -0.8295
  879MOL0     C15956  10.123   8.961   9.834 -0.1102  0.1568 -0.4050
  879MOL0     C15957  10.152   9.003   9.684  0.6081 -0.5166  0.6494
  879MOL0     C15958  10.303   9.037   9.662  0.8805  0.0555 -0.8207
  879MOL0     C15959  10.364   9.151   9.739  0.8677 -0.0376 -0.3177
  879MOL0     C15960  10.384   9.247   9.809 -0.1167  0.3761 -0.8366
  879MOL0     C15961   9.688   9.017   9.697 -0.0146  0.0301 -0.3067
  879MOL0     C15962   9.546   9.023   9.698  0.1409 -0.4640 -0.4665
  879MOL0     H15963   9.031   8.891   9.796  0.5724  1.4161  1.1073
  879MOL0     H15964   8.812   8.979   9.811  1.3045 -0.2027  1.3408
  879MOL0     H15965   8.738   9.223   9.922 -1.1920 -2.2421  0.8424
  879MOL0     H15966   8.622   9.106   9.863  0.4087  0.2493  1.9157
  879MOL0     H15967   8.584   9.395   9.850  0.8552 -0.5732 -0.6265
  879MOL0     H15968   8.490   9.271   9.940  0.3865  2.7127  1.4183
  879MOL0     H15969   8.434   9.180   9.708  0.2885 -0.9927  0.5754
  879MOL0     H15970   8.511   9.312   9.631 -0.4953 -2.2142 -0.9769
  879MOL0     H15971   8.265   9.306   9.827 -1.2109  0.5887 -0.5385
  879MOL0     H15972   8.328   9.454   9.800  0.5095 -0.0786  0.5999
  879MOL0     H15973   8.239   9.257   9.583 -2.4098 -0.0264  2.3239
  879MOL0     H15974   8.318   9.420   9.552 -0.2117  0.3926 -1.0656
  879MOL0     H15975   8.079   9.478   9.541  0.0348  1.7203  0.3104
  879MOL0     H15976   8.136   9.525   9.700  0.6141  1.4401 -2.3356
  879MOL0     H15977   7.955   9.296   9.620  0.7772 -0.7721  0.5140
  879MOL0     H15978   8.043   9.284   9.773 -0.2254 -1.3993 -1.2678
  879MOL0     H15979   7.950   9.516   9.838 -1.7002  0.5612  1.1175
  879MOL0     H15980   7.824   9.387   9.800 -0.2695 -0.7931 -1.6840
  879MOL0     H15981   7.889   9.734   9.724  2.0376 -0.9370  0.3177
  879MOL0     H15982   7.752   9.849   9.397  0.8333  2.0074 -0.6010
  879MOL0     H15983   7.865   9.898   9.526 -0.9135 -0.0316  1.2101
  879MOL0     H15984   7.648  10.005   9.528 -0.6831  0.2342  1.3297
  879MOL0     H15985   7.698   9.942   9.686 -0.9574 -1.0865  0.7678
  879MOL0     H15986   7.540   9.755   9.666  0.4072 -0.3467  0.2659
  879MOL0     H15987   7.459   9.908   9.667  1.1004 -0.9008  1.4486
  879MOL0     H15988   7.374   9.726   9.507 -0.0479 -0.0541 -1.3612
  879MOL0     H15989   7.532   9.735   9.421 -1.2585  0.0973 -0.7696
  879MOL0     H15990   7.363  10.100   9.265 -0.7416  3.4421 -0.6860
  879MOL0     H15991   7.167  10.216   9.238  1.3932 -0.3821 -0.0094
  879MOL0     H15992   6.583  10.073   9.448 -1.6532  0.0062  3.1258
  879MOL0     H15993   6.368  10.206   9.437  0.9071 -2.4232 -0.2711
  879MOL0     H15994   6.261  10.397   9.572 -1.1376  0.1296  0.2044
  879MOL0     H15995   6.184  10.368   9.424  3.0914 -1.7513  0.9685
  879MOL0     H15996   6.202  10.640   9.563 -0.8240 -0.9278  1.6808
  879MOL0     H15997   6.055  10.547   9.564 -2.4648  0.7562 -2.2295
  879MOL0     H15998   6.060  10.575   9.299 -0.6888 -0.4498  0.3530
  879MOL0     H15999   6.172  10.685   9.312 -1.8093 -1.9667 -2.4384
  879MOL0     H16000   5.927  10.782   9.309 -1.9245 -0.1541  0.3152
  879MOL0     H16001   5.894  10.688   9.450  0.4284 -2.1112 -2.0472
  879MOL0     H16002   6.047  10.854   9.569 -0.2513  2.6374  0.9500
  879MOL0     H16003   5.886  10.894   9.521  0.9972 -0.3792  2.2650
  879MOL0     H16004   6.048  11.088   9.450 -0.4686 -1.6178  1.4580
  879MOL0     H16005   6.012  11.000   9.296 -2.2676  1.6908  0.1918
  879MOL0     H16006   6.241  10.966   9.487 -1.0564  0.8077  1.4246
  879MOL0     H16007   6.223  10.887   9.321 -0.4286  0.6663  0.4429
  879MOL0     H16008   6.286  11.187   9.369  0.3960  0.7802  0.7429
  879MOL0     H16009   6.245  11.111   9.210  2.7735  2.3517 -0.5820
  879MOL0     H16010   6.607  10.563   9.408 -0.3022  0.3081  2.7106
  879MOL0     H16011   6.803  10.440   9.389 -2.2082  1.5491 -2.2505
  879MOL0     H16012   6.973   9.984   9.538 -2.4899 -0.0417 -2.7430
  879MOL0     H16013   7.173   9.835   9.541  0.4146 -1.1960 -3.3773
  879MOL0     H16014   8.918   9.300   9.558  2.1318  0.6237  0.0542
  879MOL0     H16015   9.165   9.205   9.559  0.5972 -3.8741 -2.5336
  879MOL0     H16016   9.496   8.870   9.998 -1.2278  1.1567 -0.8409
  879MOL0     H16017   9.735   8.861   9.994 -0.7762  0.4897  2.0038
  879MOL0     H16018   9.956   8.897   9.959 -2.3120  0.5546 -0.3795
  879MOL0     H16019   9.947   9.067   9.921 -1.0200 -0.0029 -1.6169
  879MOL0     H16020  10.171   9.038   9.895  0.7136  0.7367 -1.7285
  879MOL0     H16021  10.154   8.859   9.855 -0.5402  0.1896  0.4501
  879MOL0     H16022  10.088   9.085   9.651 -2.1396 -2.8625 -0.2407
  879MOL0     H16023  10.130   8.921   9.615 -0.1940  0.8699 -0.7857
  879MOL0     H16024  10.373   8.956   9.686  1.9732  1.3949  0.6532
  879MOL0     H16025  10.312   9.043   9.553 -0.3202 -1.9468 -1.0796
  879MOL0     H16026  10.417   9.320   9.880 -3.3695  1.1095  0.0612
  879MOL0     H16027   9.748   9.043   9.611 -2.9384  2.1528 -1.8856
  879MOL0     H16028   9.509   9.054   9.601  1.2495 -0.8106 -1.0256
  880MOL0     O16029   3.516   3.763   6.482 -0.7927  0.2062 -0.9136
  880MOL0     C16030   3.456   3.771   6.379 -1.0102 -0.2483 -0.1223
  880MOL0     O16031   3.509   3.814   6.258  0.7544 -0.2143 -1.0625
  880MOL0     C16032   3.646   3.835   6.250  0.2074 -0.1504  0.0009
  880MOL0     C16033   3.753   3.766   6.310  0.6322 -0.1445 -0.1841
  880MOL0     C16034   3.888   3.773   6.269 -0.0201 -0.8493 -0.2488
  880MOL0     C16035   3.924   3.881   6.188  0.2293 -0.1294  0.7694
  880MOL0     O16036   4.057   3.907   6.148  0.5184  0.3935 -0.3615
  880MOL0     C16037   4.167   3.889   6.244  0.1259  0.5819  0.3357
  880MOL0     C16038   4.306   3.894   6.174  0.0032  0.6597 -0.2460
  880MOL0     C16039   4.410   3.810   6.232  0.8321 -0.2912 -0.5840
  880MOL0     C16040   4.544   3.817   6.162 -0.5730  0.4139  0.6066
  880MOL0     C16041   4.640   3.927   6.215 -0.0851  0.1920  0.3214
  880MOL0     C16042   4.783   3.884   6.221 -0.2391  0.7728  0.8535
  880MOL0     C16043   4.831   3.853   6.075  0.1292 -1.0082 -0.7800
  880MOL0     C16044   4.974   3.803   6.063 -1.2514  0.7465 -0.0914
  880MOL0     N16045   4.992   3.659   6.088 -0.4746  0.2852 -0.0036
  880MOL0     C16046   4.904   3.573   6.146 -0.2876  0.2898 -0.1682
  880MOL0     C16047   4.972   3.460   6.175  0.0345 -0.4366 -0.0054
  880MOL0     C16048   4.908   3.334   6.230 -0.1437  0.3910  0.7831
  880MOL0     C16049   4.894   3.235   6.117 -0.0218 -0.0991  0.2290
  880MOL0     C16050   4.793   3.254   6.007  0.0484  0.3655  0.5853
  880MOL0     C16051   4.643   3.276   6.045  0.1236  0.1613 -0.8298
  880MOL0     O16052   4.628   3.184   6.157  0.2144  0.1551  0.6176
  880MOL0     C16053   4.499   3.174   6.203  0.5767 -1.1393  0.2903
  880MOL0     C16054   4.471   3.082   6.301  0.5134 -0.0198  0.2031
  880MOL0     C16055   4.343   3.056   6.349  0.0160 -0.1042  0.9769
  880MOL0     C16056   4.238   3.137   6.308 -0.0854 -0.3071 -0.7405
  880MOL0     C16057   4.108   3.096   6.356 -0.0607 -0.0921  0.1624
  880MOL0     O16058   4.095   2.989   6.439  0.0131  0.1577  0.2933
  880MOL0     C16059   3.971   2.958   6.493 -0.4978  1.0703  0.2934
  880MOL0     C16060   3.976   2.932   6.634 -0.2108 -1.0243 -0.4988
  880MOL0     C16061   3.855   2.891   6.692  0.1051  0.4674  0.3292
  880MOL0     C16062   3.732   2.867   6.621 -0.8111 -0.9955  0.4389
  880MOL0     O16063   3.616   2.828   6.676  0.2624  0.1105 -0.6663
  880MOL0     C16064   3.527   2.937   6.710 -0.7127  0.1798  0.5188
  880MOL0     C16065   3.435   2.906   6.834 -0.6880 -0.3492  1.1797
  880MOL0     C16066   3.301   2.836   6.787 -0.3063 -0.6003 -0.2333
  880MOL0     C16067   3.232   2.802   6.918 -0.5114  0.8410  0.3440
  880MOL0     C16068   3.108   2.705   6.909 -1.1537 -1.1279 -0.3114
  880MOL0     C16069   3.146   2.566   6.865  0.8235 -0.4196 -0.2778
  880MOL0     C16070   3.024   2.471   6.862  0.5460 -0.0449 -0.5423
  880MOL0     C16071   3.006   2.412   6.730  0.0847  0.1517 -0.2847
  880MOL0    Cl16072   3.142   2.303   6.682  0.1482 -0.5808  0.0719
  880MOL0     C16073   3.742   2.888   6.480 -0.1888 -0.0930  0.0382
  880MOL0     C16074   3.857   2.935   6.412  0.3594  0.1981 -0.3481
  880MOL0     O16075   4.017   3.170   6.325  0.3119  1.0348 -0.1869
  880MOL0     C16076   4.263   3.239   6.210  0.2663  0.4120  0.4180
  880MOL0     C16077   4.390   3.256   6.157  0.6152  0.3009 -0.2984
  880MOL0     N16078   5.107   3.481   6.131 -1.1236  0.1434 -0.7325
  880MOL0     N16079   5.107   3.592   6.071  0.2152 -0.1208  0.1601
  880MOL0     C16080   3.827   3.963   6.130 -0.9693 -1.7798  0.1732
  880MOL0     C16081   3.692   3.934   6.162  0.2051 -0.6608  0.0799
  880MOL0     C16082   3.309   3.726   6.386 -0.5282 -0.2191  0.4430
  880MOL0     C16083   3.255   3.668   6.496  0.5836  1.0228  0.0672
  880MOL0     C16084   3.128   3.615   6.495 -0.2249  0.2430  0.1362
  880MOL0     C16085   3.041   3.637   6.381  0.0171 -0.3872 -0.6203
  880MOL0     O16086   2.906   3.606   6.377 -0.2989 -1.1853 -0.0559
  880MOL0     C16087   2.861   3.495   6.454 -1.2261 -0.2894  0.1075
  880MOL0     C16088   2.724   3.472   6.402 -0.7098  0.5986 -0.0286
  880MOL0     C16089   2.650   3.367   6.472 -0.1786 -0.3553  0.7529
  880MOL0     C16090   2.497   3.363   6.435  0.3375 -0.9966 -0.7766
  880MOL0     C16091   2.463   3.270   6.328  0.7221  0.5245 -1.1030
  880MOL0     C16092   2.435   3.180   6.252  0.0633  0.1570  0.2396
  880MOL0     C16093   3.088   3.709   6.272 -0.0889  0.1119 -0.4693
  880MOL0     C16094   3.224   3.747   6.271 -0.2742  0.0166 -0.5555
  880MOL0     H16095   3.715   3.685   6.373 -2.0417  0.2667 -1.1391
  880MOL0     H16096   3.964   3.711   6.316  1.4916 -0.1044 -1.6153
  880MOL0     H16097   4.151   3.791   6.290 -0.1906  0.2769 -0.4029
  880MOL0     H16098   4.157   3.963   6.324 -1.5572  1.1653 -0.3575
  880MOL0     H16099   4.329   4.001   6.179 -0.5054  0.7373  0.5752
  880MOL0     H16100   4.307   3.860   6.070 -1.2019 -0.5933  0.1159
  880MOL0     H16101   4.362   3.711   6.234 -0.1139  0.1243 -1.6015
  880MOL0     H16102   4.426   3.836   6.337 -1.0385 -0.3259 -0.2577
  880MOL0     H16103   4.589   3.719   6.182  2.1568  1.7299  1.3800
  880MOL0     H16104   4.536   3.832   6.054  3.7644  0.3876  0.1010
  880MOL0     H16105   4.606   3.957   6.315 -0.6591 -0.2708  0.2728
  880MOL0     H16106   4.634   4.019   6.157 -2.6952 -1.2194 -1.8781
  880MOL0     H16107   4.787   3.797   6.287 -2.8419 -2.6425 -3.0420
  880MOL0     H16108   4.853   3.959   6.259 -0.3169  1.4005 -0.2033
  880MOL0     H16109   4.762   3.783   6.026 -2.1671 -0.0735  0.9012
  880MOL0     H16110   4.829   3.945   6.018 -0.3301 -0.0227  0.7543
  880MOL0     H16111   5.015   3.861   6.147 -1.7029 -2.5145  2.5702
  880MOL0     H16112   5.035   3.829   5.975  0.1660 -0.7088  0.4110
  880MOL0     H16113   4.805   3.601   6.179 -0.3282  0.1268 -0.1548
  880MOL0     H16114   4.817   3.366   6.281  0.3437  1.3368  1.0909
  880MOL0     H16115   4.966   3.280   6.305  0.6353 -1.4522 -1.0540
  880MOL0     H16116   4.868   3.138   6.159 -2.2463  1.2646  2.2967
  880MOL0     H16117   4.995   3.227   6.076  0.2945 -0.6030  1.0813
  880MOL0     H16118   4.824   3.338   5.944 -1.4290 -1.1738 -2.3971
  880MOL0     H16119   4.794   3.157   5.956 -1.4781 -0.0980  1.3764
  880MOL0     H16120   4.572   3.265   5.963 -1.0351  3.6362 -0.4138
  880MOL0     H16121   4.627   3.375   6.087 -2.0966  0.2195 -1.7170
  880MOL0     H16122   4.542   3.014   6.346  0.7991 -0.6183 -1.0900
  880MOL0     H16123   4.332   2.973   6.418  2.0773 -0.7955  0.5442
  880MOL0     H16124   4.073   2.952   6.679  0.0854  3.1306 -2.4994
  880MOL0     H16125   3.848   2.883   6.800 -0.5429  0.8032  0.3209
  880MOL0     H16126   3.462   2.953   6.624 -1.7771  1.4700  1.5119
  880MOL0     H16127   3.589   3.024   6.731 -0.5566 -0.2766  2.1328
  880MOL0     H16128   3.426   3.000   6.889 -0.6323 -1.2999  2.8902
  880MOL0     H16129   3.498   2.848   6.902  2.1101  1.0372 -0.0409
  880MOL0     H16130   3.322   2.748   6.726 -0.5613  0.1731 -1.4559
  880MOL0     H16131   3.237   2.906   6.734  0.6235  1.6550  1.4667
  880MOL0     H16132   3.307   2.752   6.981 -0.9827 -0.3307  0.0005
  880MOL0     H16133   3.201   2.896   6.965  0.7515  1.5123 -0.1034
  880MOL0     H16134   3.036   2.752   6.841  1.1924  2.5364 -0.5848
  880MOL0     H16135   3.062   2.712   7.008 -0.2393  1.7041  0.0254
  880MOL0     H16136   3.224   2.533   6.935  0.9398  0.7802  0.1806
  880MOL0     H16137   3.197   2.570   6.768 -0.6955 -0.9356 -1.1326
  880MOL0     H16138   3.011   2.386   6.930 -1.0453 -0.1568 -0.9340
  880MOL0     H16139   2.938   2.533   6.888  1.0641  0.2928  0.3971
  880MOL0     H16140   3.016   2.495   6.660  1.6599 -0.0989 -0.3845
  880MOL0     H16141   2.907   2.365   6.735  0.4620 -0.9010 -1.7961
  880MOL0     H16142   3.653   2.870   6.420  0.7447 -3.9475 -0.4364
  880MOL0     H16143   3.851   2.961   6.306 -0.5814 -0.3745 -0.4479
  880MOL0     H16144   4.183   3.298   6.167 -1.5177 -0.8324  1.8794
  880MOL0     H16145   4.396   3.334   6.082  1.0562  0.6637  0.1103
  880MOL0     H16146   3.861   4.041   6.062  2.3903 -2.8840  0.3971
  880MOL0     H16147   3.617   4.002   6.124  1.2050  0.6647  0.3670
  880MOL0     H16148   3.311   3.658   6.588 -2.2887 -1.4997  1.7169
  880MOL0     H16149   3.089   3.569   6.585 -0.4669  1.9858  0.9604
  880MOL0     H16150   2.844   3.517   6.560 -1.8609 -1.3538  0.2412
  880MOL0     H16151   2.924   3.408   6.434 -0.2457  0.6611 -1.1101
  880MOL0     H16152   2.661   3.561   6.413 -1.3083 -0.0266  2.1835
  880MOL0     H16153   2.726   3.448   6.296 -0.5664 -1.5382  0.4254
  880MOL0     H16154   2.649   3.391   6.578  1.1160  3.6068  0.0319
  880MOL0     H16155   2.710   3.276   6.464 -1.2362 -0.9576 -1.2516
  880MOL0     H16156   2.446   3.336   6.528  1.0701  0.3157  0.0214
  880MOL0     H16157   2.465   3.463   6.405  2.9727  0.7798  1.8126
  880MOL0     H16158   2.406   3.098   6.189  0.3033 -0.6306  1.1287
  880MOL0     H16159   3.022   3.731   6.189 -0.3624  0.6791 -0.1045
  880MOL0     H16160   3.256   3.805   6.184 -1.1365  0.8066 -0.3662
  881MOL0     O16161   9.859   1.986   2.643 -0.6618 -0.4550  0.9062
  881MOL0     C16162   9.866   1.865   2.643  0.4156  0.0547 -0.0299
  881MOL0     O16163   9.763   1.776   2.651 -0.3204  0.5846 -0.3493
  881MOL0     C16164   9.640   1.818   2.701 -0.1725 -0.9825  0.2441
  881MOL0     C16165   9.560   1.714   2.745 -0.3681  0.0072 -1.1213
  881MOL0     C16166   9.427   1.733   2.785 -0.0252  0.1407  0.2562
  881MOL0     C16167   9.372   1.866   2.782  0.3130  1.1175 -0.2937
  881MOL0     O16168   9.250   1.894   2.842  0.2940  0.7536  0.3882
  881MOL0     C16169   9.185   2.021   2.822  0.9571 -0.2013  1.1690
  881MOL0     C16170   9.052   2.009   2.889  0.8573  0.2849 -0.4753
  881MOL0     C16171   8.950   1.929   2.819  0.3703 -0.4513 -0.3765
  881MOL0     C16172   8.813   1.945   2.878 -0.1358  0.6680 -0.4243
  881MOL0     C16173   8.716   1.891   2.772  0.8061 -0.3255 -0.0306
  881MOL0     C16174   8.585   1.886   2.845  0.7626 -0.0812  0.2929
  881MOL0     C16175   8.467   1.860   2.752 -0.1383  0.0042  0.5478
  881MOL0     C16176   8.486   1.749   2.642 -0.3578  0.2545  0.4875
  881MOL0     N16177   8.347   1.719   2.595  0.7960 -0.2383  0.2937
  881MOL0     C16178   8.277   1.606   2.616  0.3569  0.7641 -0.5761
  881MOL0     C16179   8.160   1.613   2.545  0.8342 -1.1874  0.1729
  881MOL0     C16180   8.057   1.506   2.536 -0.4400  0.0582 -0.3874
  881MOL0     C16181   7.983   1.504   2.401 -0.4379  0.4615  0.2546
  881MOL0     C16182   7.883   1.626   2.388 -0.2270  0.5799 -0.6298
  881MOL0     C16183   7.776   1.604   2.283  0.1459 -0.0005  0.6068
  881MOL0     O16184   7.653   1.566   2.352 -0.7484 -0.4904 -0.3845
  881MOL0     C16185   7.536   1.562   2.284 -0.0228  0.5238 -1.2841
  881MOL0     C16186   7.431   1.621   2.346  0.1033  0.2888  0.8565
  881MOL0     C16187   7.304   1.621   2.290  0.2621  0.2664 -0.6809
  881MOL0     C16188   7.285   1.546   2.167  0.1094 -0.3857 -1.3000
  881MOL0     C16189   7.155   1.534   2.104  0.0912  0.0789  0.1820
  881MOL0     O16190   7.062   1.628   2.125 -0.0658  0.1020  0.1265
  881MOL0     C16191   6.949   1.631   2.044  0.8930 -0.5936 -0.8073
  881MOL0     C16192   6.862   1.522   2.026 -0.5547  1.1268  0.6498
  881MOL0     C16193   6.741   1.530   1.957  0.1752  0.5705 -0.6679
  881MOL0     C16194   6.698   1.657   1.904  0.0271  0.0863 -0.6349
  881MOL0     O16195   6.580   1.695   1.853  0.1961  0.0153 -0.1483
  881MOL0     C16196   6.479   1.589   1.845 -0.0891 -0.5354  0.6778
  881MOL0     C16197   6.351   1.657   1.820 -0.1082  0.2848  0.1322
  881MOL0     C16198   6.354   1.747   1.699 -0.2521  0.3710  0.4576
  881MOL0     C16199   6.211   1.790   1.672 -0.6103 -0.7636  1.1431
  881MOL0     C16200   6.209   1.908   1.566 -0.1941 -1.0287 -0.3694
  881MOL0     C16201   6.074   1.940   1.500 -0.1323  0.1212 -0.6169
  881MOL0     C16202   5.981   1.999   1.605  0.4471 -0.0001  0.5735
  881MOL0     C16203   5.840   2.015   1.552 -0.2242 -0.0675 -0.0596
  881MOL0    Cl16204   5.726   2.080   1.677  0.1107 -0.1730 -0.0994
  881MOL0     C16205   6.794   1.760   1.914 -0.3795  0.5145 -0.4421
  881MOL0     C16206   6.922   1.748   1.972  1.0366 -0.5111 -0.6715
  881MOL0     O16207   7.141   1.422   2.048  0.3501  0.2787 -0.6228
  881MOL0     C16208   7.397   1.491   2.104  0.8643  0.2612 -0.3405
  881MOL0     C16209   7.517   1.491   2.167 -0.1463  0.3124 -0.5307
  881MOL0     N16210   8.162   1.749   2.497 -0.5289 -0.4692 -0.3354
  881MOL0     N16211   8.266   1.812   2.524 -0.5695 -0.3249  0.2147
  881MOL0     C16212   9.445   1.972   2.740 -0.0890  0.3836  0.4990
  881MOL0     C16213   9.578   1.946   2.691 -0.2070  0.7652  0.2003
  881MOL0     C16214  10.001   1.804   2.647 -0.0735  0.2982  0.4664
  881MOL0     C16215  10.013   1.663   2.625 -0.1238  0.2439 -1.0020
  881MOL0     C16216  10.136   1.610   2.633 -1.0657  0.0140 -0.7588
  881MOL0     C16217  10.251   1.686   2.679  0.3451 -1.5346 -0.5501
  881MOL0     O16218  10.375   1.632   2.689 -1.1591  0.0165 -0.2814
  881MOL0     C16219  10.488   1.695   2.761 -0.8383  0.0326 -0.5151
  881MOL0     C16220  10.596   1.591   2.786  0.0745  0.2547  0.2207
  881MOL0     C16221  10.728   1.649   2.848  0.1596 -0.9343  0.1022
  881MOL0     C16222  10.838   1.553   2.811 -0.1768  0.1640  0.1642
  881MOL0     C16223  10.964   1.602   2.848  0.3815  0.1275  0.0972
  881MOL0     C16224  11.072   1.656   2.869 -0.2857  0.8475 -0.3168
  881MOL0     C16225  10.234   1.824   2.714 -0.0164 -0.1676 -0.0115
  881MOL0     C16226  10.108   1.886   2.689 -0.3711  0.5141  0.0545
  881MOL0     H16227   9.597   1.612   2.751  0.6710  0.2445 -2.7593
  881MOL0     H16228   9.382   1.639   2.816  1.6389 -0.0133  2.4589
  881MOL0     H16229   9.169   2.042   2.715 -0.4895 -1.7523  1.0319
  881MOL0     H16230   9.246   2.100   2.867  1.0547  1.4522 -1.6343
  881MOL0     H16231   9.013   2.111   2.902  1.1941  0.7323 -2.6217
  881MOL0     H16232   9.071   1.970   2.990  0.3493 -2.3472 -1.3265
  881MOL0     H16233   8.985   1.826   2.829 -1.3392 -0.9665  0.8503
  881MOL0     H16234   8.937   1.954   2.713 -2.0966 -1.3912 -0.3698
  881MOL0     H16235   8.821   1.897   2.975  0.8943  1.3906 -0.1330
  881MOL0     H16236   8.789   2.050   2.896 -0.3650  1.0568 -2.6519
  881MOL0     H16237   8.750   1.793   2.736  1.2779 -0.3325  0.4278
  881MOL0     H16238   8.704   1.956   2.685 -1.2933 -0.8641 -0.2032
  881MOL0     H16239   8.563   1.974   2.906 -2.3610 -0.0374 -0.7059
  881MOL0     H16240   8.574   1.801   2.912 -4.2511 -0.3757 -0.5066
  881MOL0     H16241   8.378   1.841   2.813 -1.6546  3.5404 -0.2818
  881MOL0     H16242   8.441   1.948   2.692  1.3790 -0.6491 -1.1491
  881MOL0     H16243   8.526   1.657   2.685 -0.7968 -0.2705 -0.2079
  881MOL0     H16244   8.553   1.774   2.559 -1.4731 -0.3552 -0.6232
  881MOL0     H16245   8.313   1.527   2.681  0.8589  1.5737  0.1343
  881MOL0     H16246   7.988   1.532   2.617  1.4960 -0.2585  1.4502
  881MOL0     H16247   8.111   1.412   2.550  3.2740  1.3692 -3.9207
  881MOL0     H16248   7.919   1.416   2.394 -1.2696  0.9595  1.2684
  881MOL0     H16249   8.057   1.494   2.321 -2.6849 -0.9592 -1.7689
  881MOL0     H16250   7.835   1.664   2.479  0.0745  1.7759 -0.9574
  881MOL0     H16251   7.945   1.709   2.353  1.6092 -1.0614 -1.3909
  881MOL0     H16252   7.800   1.527   2.210 -0.8497 -2.1734  2.4520
  881MOL0     H16253   7.773   1.701   2.233  2.4915  0.1905  0.7111
  881MOL0     H16254   7.450   1.685   2.431  1.3200  0.2083  0.6617
  881MOL0     H16255   7.218   1.675   2.328  0.9817 -0.9381  3.0727
  881MOL0     H16256   6.906   1.427   2.057 -0.9626  0.4908 -0.6731
  881MOL0     H16257   6.685   1.438   1.943  2.2062 -1.6443  3.7530
  881MOL0     H16258   6.463   1.532   1.937  2.2839 -3.9842 -0.8545
  881MOL0     H16259   6.513   1.514   1.773  0.0655 -1.5655  1.7880
  881MOL0     H16260   6.328   1.721   1.905  0.5649 -0.1462  0.6515
  881MOL0     H16261   6.274   1.581   1.805  0.7509 -0.2826 -1.7294
  881MOL0     H16262   6.383   1.696   1.606  0.9173 -0.2080  1.1269
  881MOL0     H16263   6.438   1.816   1.710 -0.1832  0.2049  0.9852
  881MOL0     H16264   6.149   1.710   1.630 -2.7676 -0.4691  3.4737
  881MOL0     H16265   6.161   1.821   1.765 -2.5900 -1.6495  0.4380
  881MOL0     H16266   6.266   1.864   1.484  0.8404  0.4971 -0.5099
  881MOL0     H16267   6.261   1.999   1.597 -0.7151 -0.2556 -1.6797
  881MOL0     H16268   6.020   1.853   1.463 -0.8233  0.4581 -0.4267
  881MOL0     H16269   6.082   2.010   1.416 -1.5632 -2.3501 -2.9560
  881MOL0     H16270   5.977   1.917   1.678 -3.6278  0.0371  0.6074
  881MOL0     H16271   6.018   2.086   1.660 -2.4861  1.3088  0.6454
  881MOL0     H16272   5.808   1.929   1.492  2.0132 -1.4166  0.5389
  881MOL0     H16273   5.863   2.089   1.475 -0.0037 -2.0783 -2.0276
  881MOL0     H16274   6.761   1.853   1.869  0.4000 -0.6785 -3.7544
  881MOL0     H16275   6.994   1.830   1.968  0.7369 -0.2771 -1.3355
  881MOL0     H16276   7.391   1.443   2.007  0.8154  2.4529 -1.5040
  881MOL0     H16277   7.603   1.440   2.126 -0.0302  0.7976 -0.9010
  881MOL0     H16278   9.396   2.064   2.708  2.0069  1.6462  0.6806
  881MOL0     H16279   9.628   2.028   2.641  1.1427 -0.4799 -0.5708
  881MOL0     H16280   9.927   1.597   2.614 -1.3263  1.2816  1.3869
  881MOL0     H16281  10.168   1.508   2.610 -1.2678 -0.0088 -0.9432
  881MOL0     H16282  10.442   1.735   2.852  0.7148  1.6930 -0.4122
  881MOL0     H16283  10.526   1.781   2.705 -2.8000  1.3344  0.0537
  881MOL0     H16284  10.549   1.511   2.843  1.1575 -2.3451 -2.2933
  881MOL0     H16285  10.631   1.563   2.686  4.3915 -1.0754  1.8968
  881MOL0     H16286  10.727   1.649   2.957 -0.9370 -1.1949  0.1013
  881MOL0     H16287  10.762   1.744   2.805  1.7185 -1.1528  0.7886
  881MOL0     H16288  10.819   1.456   2.857 -2.6595 -0.2422 -1.5127
  881MOL0     H16289  10.850   1.540   2.704  1.0602 -0.8275  0.4027
  881MOL0     H16290  11.168   1.692   2.901  2.6692 -4.1891 -2.3424
  881MOL0     H16291  10.317   1.882   2.754  1.5221 -1.2913 -1.4584
  881MOL0     H16292  10.098   1.993   2.705  1.4148  0.8162 -0.5786
  882MOL0     O16293  11.056   7.925   2.835 -0.5540 -0.3692  0.4272
  882MOL0     C16294  11.016   8.000   2.751 -0.6546 -0.4913  0.6981
  882MOL0     O16295  10.890   8.040   2.736 -0.0221 -0.2549  0.3473
  882MOL0     C16296  10.802   7.948   2.788 -0.3438 -0.9105 -0.0440
  882MOL0     C16297  10.774   7.829   2.715  0.0924 -0.9001 -0.3357
  882MOL0     C16298  10.664   7.754   2.744 -0.0964  0.9718  0.0477
  882MOL0     C16299  10.583   7.792   2.849  0.2047  0.3790 -0.1067
  882MOL0     O16300  10.467   7.730   2.891  0.2755 -0.6457  0.1735
  882MOL0     C16301  10.386   7.653   2.803 -0.3510  1.1235 -0.7598
  882MOL0     C16302  10.429   7.508   2.811  0.8743  0.2814  0.6326
  882MOL0     C16303  10.464   7.472   2.959 -0.1297  0.0452  0.1576
  882MOL0     C16304  10.532   7.335   2.969  0.1565  0.5303  0.2785
  882MOL0     C16305  10.573   7.272   3.104 -0.1570 -0.6259  0.3171
  882MOL0     C16306  10.449   7.266   3.196 -0.0709 -0.0014 -0.3637
  882MOL0     C16307  10.333   7.172   3.142 -0.3918 -0.8696  0.0160
  882MOL0     C16308  10.240   7.148   3.260 -0.1399  0.1084 -0.3167
  882MOL0     N16309  10.174   7.270   3.308  0.6149  0.5259  0.4164
  882MOL0     C16310  10.117   7.372   3.225 -0.3158 -1.3203 -0.4664
  882MOL0     C16311  10.057   7.454   3.319 -0.3028  0.3004 -0.8312
  882MOL0     C16312   9.997   7.592   3.297 -0.3224 -0.0275  0.4855
  882MOL0     C16313   9.850   7.562   3.264  0.5948  0.2036 -0.7169
  882MOL0     C16314   9.760   7.677   3.224 -0.4927 -0.8972  0.2195
  882MOL0     C16315   9.623   7.646   3.177 -0.4557 -0.3749  0.3163
  882MOL0     O16316   9.547   7.765   3.132  0.7583  0.0323 -0.6179
  882MOL0     C16317   9.430   7.743   3.069  0.0621  0.2521 -0.7371
  882MOL0     C16318   9.381   7.839   2.978  0.1867 -0.4471  0.6984
  882MOL0     C16319   9.258   7.826   2.908 -1.1894 -0.3997  0.2652
  882MOL0     C16320   9.192   7.704   2.921 -0.1892 -0.0028  1.1142
  882MOL0     C16321   9.068   7.696   2.841 -0.2534  0.4814  0.2522
  882MOL0     O16322   9.034   7.806   2.760 -0.5053 -0.1975  0.3434
  882MOL0     C16323   8.915   7.808   2.693  0.4683  0.7929 -0.0855
  882MOL0     C16324   8.903   7.815   2.554 -0.9891  0.3185 -0.4929
  882MOL0     C16325   8.777   7.799   2.488 -0.5118 -0.5351 -0.4812
  882MOL0     C16326   8.665   7.795   2.576  0.2576  1.0747  0.3772
  882MOL0     O16327   8.545   7.787   2.503 -0.5632 -0.3286  0.2669
  882MOL0     C16328   8.444   7.712   2.568 -0.4466 -0.5777  0.8806
  882MOL0     C16329   8.309   7.781   2.562  0.2683  0.0970 -0.1735
  882MOL0     C16330   8.211   7.710   2.661  0.7601  0.3594 -0.7343
  882MOL0     C16331   8.173   7.567   2.625  0.2150  0.2236 -0.6067
  882MOL0     C16332   8.030   7.534   2.643  0.0914  0.9452  0.2716
  882MOL0     C16333   7.991   7.403   2.559 -0.0550 -0.4878 -1.0170
  882MOL0     C16334   7.847   7.363   2.586  0.3204 -0.2620 -0.4808
  882MOL0     C16335   7.768   7.334   2.467 -0.7057 -0.1692  0.2840
  882MOL0    Cl16336   7.767   7.470   2.359 -0.0388 -0.0199 -0.3159
  882MOL0     C16337   8.678   7.818   2.711 -0.4206  0.1507  0.0758
  882MOL0     C16338   8.802   7.818   2.773  0.0520  0.5366  0.6394
  882MOL0     O16339   8.999   7.592   2.846 -1.1580 -0.6817 -0.6947
  882MOL0     C16340   9.236   7.611   3.011 -0.3781  0.2658  0.1790
  882MOL0     C16341   9.348   7.631   3.091 -0.0786 -0.7777 -0.1325
  882MOL0     N16342  10.074   7.400   3.444  0.1491  0.5823  0.2847
  882MOL0     N16343  10.149   7.286   3.441  0.2525 -0.7523  0.6409
  882MOL0     C16344  10.606   7.908   2.919  0.1191  0.3271  0.6115
  882MOL0     C16345  10.722   7.980   2.888  0.7371 -0.1741  0.3011
  882MOL0     C16346  11.127   8.064   2.664  0.3142 -0.0249  0.6031
  882MOL0     C16347  11.266   8.053   2.711  0.7228  0.1773 -0.1322
  882MOL0     C16348  11.372   8.112   2.639  0.1721  0.1955  0.3649
  882MOL0     C16349  11.344   8.189   2.528  0.3870 -0.3052 -0.4190
  882MOL0     O16350  11.455   8.256   2.467  0.2710 -0.5830  0.0080
  882MOL0     C16351  11.438   8.306   2.334  0.0532  0.3333  0.1280
  882MOL0     C16352  11.575   8.335   2.280  0.6355 -0.1136  0.1758
  882MOL0     C16353  11.635   8.479   2.323  0.5025  0.8642 -0.6287
  882MOL0     C16354  11.684   8.480   2.462 -1.0749 -0.0819  0.0252
  882MOL0     C16355  11.714   8.610   2.505  0.2297 -0.3672 -0.1343
  882MOL0     C16356  11.758   8.716   2.541  0.4217 -1.0094  0.0685
  882MOL0     C16357  11.213   8.195   2.480  0.4839 -0.0739 -0.0854
  882MOL0     C16358  11.105   8.136   2.549  0.0530 -0.2986  0.6855
  882MOL0     H16359  10.826   7.803   2.624 -2.2788  0.4641 -2.2055
  882MOL0     H16360  10.645   7.669   2.679 -1.3614  0.5187  0.9603
  882MOL0     H16361  10.389   7.679   2.697 -1.7733  0.6545 -0.9304
  882MOL0     H16362  10.284   7.657   2.843  0.2485  1.8165  0.7786
  882MOL0     H16363  10.518   7.497   2.747 -1.2174 -2.7474 -2.0658
  882MOL0     H16364  10.344   7.462   2.760  1.0568  0.4300  0.1878
  882MOL0     H16365  10.373   7.474   3.020  0.8693 -0.7128  1.7414
  882MOL0     H16366  10.535   7.544   3.002 -1.2630  1.3122  0.0000
  882MOL0     H16367  10.466   7.262   2.920  0.9756  0.6235 -1.0149
  882MOL0     H16368  10.623   7.340   2.908 -0.8298  2.0379 -1.1790
  882MOL0     H16369  10.635   7.346   3.156 -1.3163 -0.5522  1.6630
  882MOL0     H16370  10.631   7.181   3.089  2.2591  0.1765  3.5706
  882MOL0     H16371  10.417   7.370   3.196  2.6219  0.9052 -1.8249
  882MOL0     H16372  10.485   7.252   3.299  0.7955  1.7491 -0.3913
  882MOL0     H16373  10.286   7.223   3.058  2.1147  0.3158 -0.7660
  882MOL0     H16374  10.375   7.082   3.097  2.9144 -0.8718  2.6964
  882MOL0     H16375  10.284   7.099   3.347 -1.5728  0.4071  0.5963
  882MOL0     H16376  10.164   7.080   3.222 -1.4118  0.9322  0.6829
  882MOL0     H16377  10.123   7.372   3.116  2.0426  0.0944 -0.3993
  882MOL0     H16378  10.053   7.635   3.212 -0.9877  0.9622  0.5343
  882MOL0     H16379   9.998   7.656   3.385 -1.7389  1.5250 -0.5679
  882MOL0     H16380   9.827   7.504   3.354  3.9861 -2.1166 -1.1505
  882MOL0     H16381   9.846   7.494   3.178 -2.4407 -0.6334 -0.0168
  882MOL0     H16382   9.747   7.751   3.304  0.0143  0.5781 -1.0028
  882MOL0     H16383   9.811   7.732   3.144  3.0826 -0.9019  2.2459
  882MOL0     H16384   9.574   7.590   3.257 -1.8431 -0.7899 -0.7926
  882MOL0     H16385   9.632   7.575   3.095 -0.9744  0.7976 -0.7856
  882MOL0     H16386   9.443   7.927   2.963 -3.1940  2.7030  3.1311
  882MOL0     H16387   9.233   7.905   2.839 -0.6667 -2.1528 -2.0558
  882MOL0     H16388   8.990   7.833   2.491 -0.0534  0.8378  0.8942
  882MOL0     H16389   8.766   7.797   2.381 -0.7210 -0.3001 -0.4656
  882MOL0     H16390   8.474   7.685   2.670  0.8367  2.8269  1.5481
  882MOL0     H16391   8.448   7.617   2.513 -1.1011 -0.5996  0.8571
  882MOL0     H16392   8.271   7.777   2.459  1.5188  2.1542 -0.7624
  882MOL0     H16393   8.328   7.886   2.582  1.7682 -0.2939  0.6198
  882MOL0     H16394   8.123   7.774   2.666 -0.5690 -1.2733 -1.9656
  882MOL0     H16395   8.255   7.712   2.761 -1.0921  2.2667  0.1229
  882MOL0     H16396   8.201   7.544   2.522  1.5316  1.0501 -0.4623
  882MOL0     H16397   8.240   7.503   2.683  0.8565  1.2061 -0.2308
  882MOL0     H16398   7.966   7.615   2.607 -3.3302 -0.7559  1.9901
  882MOL0     H16399   8.004   7.523   2.749  0.3677  1.9284  0.4505
  882MOL0     H16400   8.046   7.317   2.597 -0.3387 -1.3578 -2.4935
  882MOL0     H16401   8.011   7.425   2.454 -0.1556  0.4575 -0.8467
  882MOL0     H16402   7.849   7.274   2.650  1.5045  0.6093  0.7179
  882MOL0     H16403   7.795   7.443   2.638 -0.2552 -1.1725  0.3783
  882MOL0     H16404   7.673   7.303   2.510 -0.3772 -1.4479  0.1336
  882MOL0     H16405   7.810   7.251   2.408  0.7343  0.3328  0.5587
  882MOL0     H16406   8.597   7.830   2.782 -0.4610 -2.7491  0.6498
  882MOL0     H16407   8.820   7.812   2.880  1.3863 -0.5473  0.3759
  882MOL0     H16408   9.185   7.517   3.031 -1.6866  1.0868  0.8672
  882MOL0     H16409   9.392   7.560   3.160  1.0204  1.2550  1.3452
  882MOL0     H16410  10.536   7.953   2.988 -4.1356 -2.0330 -1.7417
  882MOL0     H16411  10.737   8.084   2.917 -2.5781  1.0991 -1.9160
  882MOL0     H16412  11.284   8.002   2.805 -1.1909  0.6238  0.5300
  882MOL0     H16413  11.474   8.099   2.676  0.3691 -1.3297 -0.6291
  882MOL0     H16414  11.384   8.401   2.342 -0.7228 -0.2285  2.1540
  882MOL0     H16415  11.380   8.242   2.267 -1.8287 -0.5762  2.5062
  882MOL0     H16416  11.642   8.252   2.305 -0.9204 -1.2526  0.7137
  882MOL0     H16417  11.561   8.333   2.172  1.6498  3.0243 -0.1185
  882MOL0     H16418  11.562   8.559   2.316 -0.8803  0.1229  2.9152
  882MOL0     H16419  11.719   8.512   2.261  0.9070  0.4664 -0.2999
  882MOL0     H16420  11.608   8.448   2.534 -2.1201  1.3430 -0.4093
  882MOL0     H16421  11.775   8.419   2.468 -1.1216 -0.1395  0.1596
  882MOL0     H16422  11.776   8.811   2.587  1.8948 -2.5378  2.9498
  882MOL0     H16423  11.191   8.255   2.392 -0.3527  1.5010  1.1457
  882MOL0     H16424  11.003   8.165   2.526  0.7457  0.5870 -1.6387
  883MOL0     O16425   8.175   1.016   9.646 -0.8988  0.1214  0.4528
  883MOL0     C16426   8.227   0.985   9.543  0.2074 -0.1073  0.1192
  883MOL0     O16427   8.172   0.977   9.421  0.6082  0.7479 -0.0850
  883MOL0     C16428   8.037   0.973   9.413  0.3851 -0.2724 -0.7571
  883MOL0     C16429   7.963   1.059   9.331 -0.5764  0.1928  0.2005
  883MOL0     C16430   7.826   1.038   9.321  0.3598  0.9345 -0.2498
  883MOL0     C16431   7.754   0.946   9.394 -0.4506  0.4019 -0.1263
  883MOL0     O16432   7.622   0.932   9.377  1.3143 -0.9626  0.2908
  883MOL0     C16433   7.555   0.983   9.259 -0.1249  0.0672 -0.1135
  883MOL0     C16434   7.426   0.903   9.240  0.5555 -0.6348  0.1606
  883MOL0     C16435   7.453   0.769   9.197  0.3141 -0.5445  0.5600
  883MOL0     C16436   7.488   0.778   9.051 -0.3178 -0.3015  0.3919
  883MOL0     C16437   7.519   0.638   8.999 -0.2712 -0.9311 -0.3770
  883MOL0     C16438   7.404   0.550   8.968  0.5297 -0.1289 -0.0875
  883MOL0     C16439   7.437   0.405   8.962 -0.1798  0.6244 -0.1580
  883MOL0     C16440   7.468   0.355   8.814 -0.0205  0.2802 -0.5834
  883MOL0     N16441   7.595   0.405   8.755  0.1892  0.7082 -0.1492
  883MOL0     C16442   7.719   0.357   8.775 -0.4787  0.4178 -0.5264
  883MOL0     C16443   7.801   0.442   8.697 -0.0336  0.1973  0.0337
  883MOL0     C16444   7.955   0.438   8.691  0.4253  0.7384 -0.0370
  883MOL0     C16445   8.019   0.415   8.548  0.3053 -0.3675  0.0852
  883MOL0     C16446   8.100   0.284   8.550  0.4141  0.8162  1.1721
  883MOL0     C16447   8.159   0.245   8.409  0.3139 -0.1491  0.6992
  883MOL0     O16448   8.250   0.343   8.350  0.6465  0.0953  0.5049
  883MOL0     C16449   8.379   0.371   8.398 -0.3702 -0.4667 -0.4821
  883MOL0     C16450   8.446   0.475   8.330 -0.4105  1.0382 -0.0822
  883MOL0     C16451   8.562   0.530   8.389 -0.4082  0.6315 -0.1287
  883MOL0     C16452   8.614   0.479   8.513  0.5140 -0.4151  0.1871
  883MOL0     C16453   8.735   0.547   8.560 -0.1374 -0.3502 -0.0441
  883MOL0     O16454   8.767   0.667   8.511 -0.0109 -0.3136 -0.3706
  883MOL0     C16455   8.860   0.755   8.566  0.4627 -0.1852 -0.4880
  883MOL0     C16456   8.915   0.750   8.701  1.8596  0.0850  0.1790
  883MOL0     C16457   9.011   0.844   8.746 -0.6459  0.2188 -0.6728
  883MOL0     C16458   9.051   0.943   8.665  0.4395  0.2995 -0.8562
  883MOL0     O16459   9.126   1.042   8.722  0.4728 -0.0111  0.1893
  883MOL0     C16460   9.262   1.054   8.673 -0.0063 -0.2439 -1.0704
  883MOL0     C16461   9.355   0.990   8.770 -0.2086  0.3643 -0.6176
  883MOL0     C16462   9.499   1.046   8.744 -0.6194 -0.1787 -0.5201
  883MOL0     C16463   9.582   0.957   8.835  0.3613 -0.8279 -0.6516
  883MOL0     C16464   9.724   0.993   8.822 -0.8203 -0.5538  0.3123
  883MOL0     C16465   9.814   0.915   8.917  0.0524 -0.2658  0.8378
  883MOL0     C16466   9.963   0.955   8.892  0.9312  0.4037 -0.0146
  883MOL0     C16467  10.062   0.908   9.004  0.4198 -0.8466 -0.8112
  883MOL0    Cl16468  10.012   0.992   9.149 -0.0663 -0.1697  0.0792
  883MOL0     C16469   9.006   0.950   8.533  1.0652  0.3272  1.2180
  883MOL0     C16470   8.917   0.849   8.486  0.8028 -0.6482  0.1466
  883MOL0     O16471   8.787   0.493   8.655  0.1502 -0.1604 -0.0537
  883MOL0     C16472   8.545   0.375   8.580  0.6458  0.4452  0.1041
  883MOL0     C16473   8.433   0.326   8.514  0.0458 -0.3870  0.5730
  883MOL0     N16474   7.721   0.537   8.634  0.4870 -0.1706 -0.1301
  883MOL0     N16475   7.596   0.521   8.685  0.1523 -0.6960 -0.6332
  883MOL0     C16476   7.821   0.850   9.464 -0.6451 -0.2632  0.9925
  883MOL0     C16477   7.962   0.862   9.476  0.7432  0.1330  0.5499
  883MOL0     C16478   8.371   0.955   9.555 -0.7560  0.6448  0.3183
  883MOL0     C16479   8.440   0.894   9.442  0.2268 -0.4677 -0.2556
  883MOL0     C16480   8.571   0.852   9.451  0.3576 -0.5492 -0.7551
  883MOL0     C16481   8.648   0.873   9.571  0.6027  0.3367  0.1870
  883MOL0     O16482   8.772   0.822   9.600  0.0373  0.2697  0.5444
  883MOL0     C16483   8.844   0.741   9.512  0.2985 -0.0616  0.3098
  883MOL0     C16484   8.990   0.709   9.567  0.0113  0.5236 -0.5234
  883MOL0     C16485   9.067   0.619   9.462  1.4062  0.4292 -0.3435
  883MOL0     C16486   9.196   0.558   9.508 -0.2942 -0.3777 -0.2274
  883MOL0     C16487   9.301   0.657   9.525  0.8675  0.1812  0.2824
  883MOL0     C16488   9.389   0.737   9.540  0.1873 -0.9234  0.5701
  883MOL0     C16489   8.585   0.941   9.674  0.5985  0.3418 -1.7668
  883MOL0     C16490   8.445   0.984   9.669 -0.9890  0.2356  1.3479
  883MOL0     H16491   8.016   1.129   9.267  0.6205 -0.0076  0.9544
  883MOL0     H16492   7.780   1.111   9.256 -1.0820  1.0889  0.9026
  883MOL0     H16493   7.617   0.983   9.169  0.5389 -4.1073  0.1309
  883MOL0     H16494   7.527   1.086   9.280  1.9423  1.6005 -4.0190
  883MOL0     H16495   7.356   0.959   9.177  0.6109 -1.6900 -0.8716
  883MOL0     H16496   7.382   0.906   9.340  0.1125  2.3029 -0.0228
  883MOL0     H16497   7.363   0.709   9.214 -0.1542  0.5934  2.3274
  883MOL0     H16498   7.534   0.731   9.260 -0.3015 -1.5519  0.7651
  883MOL0     H16499   7.409   0.828   8.994  1.9928 -0.7451 -3.5731
  883MOL0     H16500   7.582   0.831   9.032  1.4286 -3.5191 -0.7591
  883MOL0     H16501   7.595   0.580   9.053  4.0736  1.9792 -2.7206
  883MOL0     H16502   7.578   0.648   8.907  1.3435  3.0617  0.8638
  883MOL0     H16503   7.349   0.563   8.874 -0.9290 -3.1192  0.2467
  883MOL0     H16504   7.330   0.568   9.046  0.3554  2.5750 -0.7875
  883MOL0     H16505   7.510   0.380   9.040 -1.6263  1.4186  1.5236
  883MOL0     H16506   7.346   0.346   8.981  0.1643  0.5216  1.3105
  883MOL0     H16507   7.382   0.387   8.754 -0.6466  0.6625  0.4876
  883MOL0     H16508   7.471   0.246   8.809  0.1352  0.2775 -0.4094
  883MOL0     H16509   7.753   0.286   8.850  1.7405  1.8651 -0.0773
  883MOL0     H16510   7.998   0.359   8.753 -2.9460  0.2583  1.9722
  883MOL0     H16511   7.980   0.539   8.724 -2.2042  1.1685  0.8984
  883MOL0     H16512   8.086   0.500   8.533  0.8401 -0.7256  0.3945
  883MOL0     H16513   7.938   0.415   8.475 -0.9808  3.0003  1.2933
  883MOL0     H16514   8.174   0.301   8.628  1.5580 -0.4911  0.4079
  883MOL0     H16515   8.030   0.205   8.578  0.6481 -0.4043 -1.3845
  883MOL0     H16516   8.081   0.221   8.336  2.6504  0.4496 -2.2043
  883MOL0     H16517   8.225   0.158   8.409  1.1219  0.4234 -0.6972
  883MOL0     H16518   8.410   0.501   8.230 -1.2510  1.0317  0.2106
  883MOL0     H16519   8.619   0.596   8.325 -2.5838  1.7446 -1.0331
  883MOL0     H16520   8.875   0.678   8.772  1.5477  1.9040  1.9340
  883MOL0     H16521   9.056   0.834   8.845  0.3961  1.8786 -0.9381
  883MOL0     H16522   9.280   1.162   8.673 -1.1162  0.0975  3.0758
  883MOL0     H16523   9.287   1.012   8.575  3.8358  0.8743 -0.7261
  883MOL0     H16524   9.363   0.881   8.757 -1.2712 -0.0329  1.6687
  883MOL0     H16525   9.323   1.010   8.872  1.0313 -1.5673  0.2171
  883MOL0     H16526   9.512   1.152   8.766  1.1693 -0.1675 -1.4432
  883MOL0     H16527   9.519   1.029   8.638 -3.1184 -1.4267 -0.8718
  883MOL0     H16528   9.552   0.975   8.939  2.3891 -1.0528  0.0103
  883MOL0     H16529   9.573   0.852   8.806 -3.0766 -0.5126 -1.2242
  883MOL0     H16530   9.732   1.102   8.826 -3.3646 -0.1390 -2.4103
  883MOL0     H16531   9.759   0.968   8.721 -1.9012  4.2116 -1.4964
  883MOL0     H16532   9.801   0.807   8.926  2.0407 -0.7650 -1.2720
  883MOL0     H16533   9.789   0.955   9.016  3.1440  1.3603  1.1016
  883MOL0     H16534   9.993   0.923   8.792 -1.3431 -1.5442 -0.1871
  883MOL0     H16535   9.967   1.064   8.890  1.5883  0.3637 -1.6403
  883MOL0     H16536  10.165   0.938   8.983  0.4724  1.1774  1.7796
  883MOL0     H16537  10.061   0.801   9.027 -0.7781 -0.8186 -0.6394
  883MOL0     H16538   9.014   1.023   8.453  2.5674 -2.0731 -0.9823
  883MOL0     H16539   8.874   0.848   8.386 -1.2764 -2.0629  0.9884
  883MOL0     H16540   8.586   0.328   8.669 -1.3498 -0.7930  0.4197
  883MOL0     H16541   8.380   0.243   8.561 -0.0857  0.2069  1.4979
  883MOL0     H16542   7.764   0.770   9.509 -0.3575  0.0225  1.8768
  883MOL0     H16543   8.009   0.786   9.537  0.1691 -0.4102  0.3305
  883MOL0     H16544   8.379   0.868   9.355  0.2790 -0.0413 -0.4182
  883MOL0     H16545   8.618   0.792   9.373 -1.4279 -2.6009 -0.3837
  883MOL0     H16546   8.848   0.787   9.413  0.2946  0.1820  0.4216
  883MOL0     H16547   8.785   0.650   9.502 -0.1742  0.1311  1.2280
  883MOL0     H16548   9.049   0.801   9.573  0.7952 -0.0471  3.0617
  883MOL0     H16549   8.979   0.658   9.664 -2.5734 -3.2411 -2.5343
  883MOL0     H16550   9.079   0.681   9.372 -1.4630 -0.2016 -1.2682
  883MOL0     H16551   9.003   0.535   9.435  2.3368 -0.1693 -0.7620
  883MOL0     H16552   9.185   0.508   9.605  1.1676  0.8481  0.6101
  883MOL0     H16553   9.211   0.484   9.428 -1.3398  1.4294 -2.1845
  883MOL0     H16554   9.472   0.804   9.553  1.1732 -1.5650 -1.8159
  883MOL0     H16555   8.631   0.942   9.772 -1.6863  0.2790 -0.6379
  883MOL0     H16556   8.405   1.050   9.746 -0.7447  1.6660  0.3043
  884MOL0     O16557   7.694   9.648   4.673 -0.6089 -0.6462 -0.3474
  884MOL0     C16558   7.712   9.597   4.785  1.1239  0.3127 -0.0187
  884MOL0     O16559   7.807   9.634   4.882  0.6326  0.6866 -0.1851
  884MOL0     C16560   7.901   9.736   4.862 -0.1054 -0.5348  0.6789
  884MOL0     C16561   8.019   9.724   4.938 -0.4774  0.7024 -0.4100
  884MOL0     C16562   8.114   9.819   4.940 -0.4020 -0.8867  0.1137
  884MOL0     C16563   8.107   9.934   4.863  1.1078 -0.1441  0.6065
  884MOL0     O16564   8.212  10.033   4.856  0.6493 -0.2833  0.3073
  884MOL0     C16565   8.293  10.059   4.976  0.5054  0.7125 -0.4345
  884MOL0     C16566   8.341  10.200   4.969  0.8772 -1.3283  0.7381
  884MOL0     C16567   8.246  10.301   5.034  0.3129 -0.3445  0.7335
  884MOL0     C16568   8.103  10.285   4.994 -0.3126 -0.2043 -0.1504
  884MOL0     C16569   8.022  10.391   5.077  0.0635 -0.3832 -0.7071
  884MOL0     C16570   7.871  10.382   5.033 -0.2198  0.1253 -0.4187
  884MOL0     C16571   7.781  10.407   5.157  0.0674  0.0998 -0.6956
  884MOL0     C16572   7.631  10.439   5.115  0.1867 -0.4166  0.9094
  884MOL0     N16573   7.534  10.488   5.209  0.4704  0.1094  0.0858
  884MOL0     C16574   7.484  10.412   5.310  0.1240  0.5644  0.4540
  884MOL0     C16575   7.387  10.494   5.363 -0.0302 -0.9240  0.4010
  884MOL0     C16576   7.300  10.438   5.474 -0.2384 -0.0025 -0.8074
  884MOL0     C16577   7.277  10.289   5.486 -1.0546  0.2072 -0.2954
  884MOL0     C16578   7.201  10.241   5.603  0.4885  0.2752 -0.2081
  884MOL0     C16579   7.061  10.305   5.610 -0.5703  1.0294 -0.3572
  884MOL0     O16580   6.985  10.228   5.710  0.2625  0.0468 -0.0235
  884MOL0     C16581   6.940  10.097   5.683 -0.6836 -0.1867  0.5182
  884MOL0     C16582   6.916  10.016   5.782 -0.3489  1.1553  0.1468
  884MOL0     C16583   6.857   9.889   5.759  0.3462 -1.0860 -0.7320
  884MOL0     C16584   6.822   9.841   5.633  0.1527 -0.6762 -0.5050
  884MOL0     C16585   6.726   9.729   5.618 -0.7685 -0.3598  0.5173
  884MOL0     O16586   6.690   9.682   5.494  0.0877 -0.0851 -0.2708
  884MOL0     C16587   6.577   9.604   5.485  0.6891  1.0733 -0.6972
  884MOL0     C16588   6.533   9.504   5.577  0.4092 -0.9424 -0.9919
  884MOL0     C16589   6.407   9.444   5.559 -0.0179 -0.4883 -0.0102
  884MOL0     C16590   6.321   9.481   5.457  0.0297  0.4718  0.0965
  884MOL0     O16591   6.193   9.436   5.441  1.2775 -0.3420 -0.8041
  884MOL0     C16592   6.192   9.333   5.348 -0.6289 -0.1791 -0.4758
  884MOL0     C16593   6.054   9.292   5.310  0.8307 -0.4397 -0.0131
  884MOL0     C16594   5.960   9.244   5.415 -0.3348  0.1616  0.0681
  884MOL0     C16595   5.827   9.180   5.361  0.1124 -0.6521 -0.2372
  884MOL0     C16596   5.741   9.159   5.490 -0.1769  0.6184  0.3879
  884MOL0     C16597   5.615   9.064   5.451  0.0419 -1.0800 -0.4467
  884MOL0     C16598   5.553   9.009   5.580  0.3323 -0.6509  0.4906
  884MOL0     C16599   5.503   8.866   5.562  0.5261  0.3780  0.4049
  884MOL0    Cl16600   5.361   8.857   5.435  0.0934 -0.2939 -0.4255
  884MOL0     C16601   6.363   9.576   5.370 -0.1528  0.4086  0.1118
  884MOL0     C16602   6.498   9.624   5.374 -0.0618  0.0772  0.0688
  884MOL0     O16603   6.687   9.683   5.725 -0.4461 -0.3356  0.7399
  884MOL0     C16604   6.863   9.918   5.524 -0.0037  0.4638  0.3333
  884MOL0     C16605   6.918  10.046   5.551  0.6623 -0.0426  0.0716
  884MOL0     N16606   7.377  10.610   5.284 -0.2812  0.2011 -0.0872
  884MOL0     N16607   7.478  10.608   5.201  0.0388 -0.4640 -1.0955
  884MOL0     C16608   7.987   9.954   4.784  0.0451  0.2174  0.6423
  884MOL0     C16609   7.889   9.853   4.781  1.6046 -0.4910  0.3815
  884MOL0     C16610   7.628   9.476   4.825 -0.4767  0.6331  0.7646
  884MOL0     C16611   7.648   9.419   4.952  0.4381  0.5847 -0.4585
  884MOL0     C16612   7.588   9.300   4.990 -0.5592  0.2748  0.1468
  884MOL0     C16613   7.492   9.240   4.901 -0.4536  0.3873 -0.2707
  884MOL0     O16614   7.433   9.128   4.942 -0.5717  0.4364  0.1434
  884MOL0     C16615   7.370   9.044   4.848 -0.8427 -0.2452  0.1261
  884MOL0     C16616   7.336   8.907   4.907 -0.2638  0.7542 -0.3982
  884MOL0     C16617   7.457   8.813   4.888 -0.2340 -1.0010  0.4801
  884MOL0     C16618   7.451   8.679   4.965  0.0973 -0.3547  0.6269
  884MOL0     C16619   7.322   8.612   4.960 -0.0646  0.2159  0.3382
  884MOL0     C16620   7.210   8.567   4.970  0.4585  0.3616  0.1793
  884MOL0     C16621   7.487   9.283   4.768 -0.4590 -0.8113 -0.6171
  884MOL0     C16622   7.544   9.407   4.738 -0.1719 -0.0181  0.1723
  884MOL0     H16623   8.026   9.648   5.015  0.5276  1.9449  0.7902
  884MOL0     H16624   8.197   9.800   5.008  1.4841 -1.6786 -2.2324
  884MOL0     H16625   8.383   9.998   4.963 -0.2642 -0.6758  0.5339
  884MOL0     H16626   8.254  10.029   5.074  4.6350 -1.0201  0.9475
  884MOL0     H16627   8.349  10.233   4.865 -1.2043 -1.8013  0.3817
  884MOL0     H16628   8.435  10.215   5.022  1.0977  0.8498 -0.1635
  884MOL0     H16629   8.290  10.399   5.013  2.1955 -1.0747  1.0554
  884MOL0     H16630   8.252  10.284   5.141  2.7322 -4.1132  0.1949
  884MOL0     H16631   8.088  10.285   4.886 -1.8754 -5.7871 -0.2534
  884MOL0     H16632   8.071  10.186   5.028 -0.8752 -0.1748 -0.5978
  884MOL0     H16633   8.060  10.493   5.064 -0.6394 -0.1259 -0.7895
  884MOL0     H16634   8.037  10.379   5.185  0.3259  2.1887 -0.4040
  884MOL0     H16635   7.855  10.278   5.005 -0.4074 -0.1246  0.5846
  884MOL0     H16636   7.865  10.446   4.944  1.2288  0.5770 -0.2314
  884MOL0     H16637   7.785  10.321   5.224 -2.2782  1.0299  0.7725
  884MOL0     H16638   7.814  10.496   5.211  1.0761 -2.0678  2.5317
  884MOL0     H16639   7.582  10.357   5.062 -2.7118  0.9099  1.3052
  884MOL0     H16640   7.643  10.532   5.059  2.2898  0.1916  2.2577
  884MOL0     H16641   7.524  10.311   5.320  0.2610  0.6021  0.2915
  884MOL0     H16642   7.204  10.490   5.466 -1.4479 -1.5586  2.0741
  884MOL0     H16643   7.340  10.475   5.569 -0.7751 -1.6065  0.0892
  884MOL0     H16644   7.372  10.237   5.505 -0.7796 -0.6538 -3.4732
  884MOL0     H16645   7.227  10.244   5.400 -2.3474  0.5410  0.2566
  884MOL0     H16646   7.197  10.132   5.606 -4.5050  0.1082 -2.2783
  884MOL0     H16647   7.257  10.281   5.688  0.5774 -1.2288  0.4523
  884MOL0     H16648   7.008  10.306   5.514 -0.4539 -0.3415 -0.4437
  884MOL0     H16649   7.075  10.409   5.643 -0.3077  0.5564  1.0633
  884MOL0     H16650   6.947  10.051   5.880  1.8573  2.4767 -0.9441
  884MOL0     H16651   6.827   9.828   5.844 -0.3775  1.6877  1.1403
  884MOL0     H16652   6.590   9.479   5.666  0.7048 -1.3331 -1.2873
  884MOL0     H16653   6.381   9.362   5.626 -2.4436 -0.4043 -0.7868
  884MOL0     H16654   6.234   9.242   5.392  0.7622  0.6634  0.0065
  884MOL0     H16655   6.249   9.342   5.255  0.4402 -4.7571 -0.4853
  884MOL0     H16656   6.072   9.211   5.239  3.2085  0.5762 -0.6491
  884MOL0     H16657   6.012   9.376   5.253  2.5530 -0.2600 -1.1004
  884MOL0     H16658   5.939   9.325   5.484 -1.0628 -1.1745  1.4766
  884MOL0     H16659   6.012   9.169   5.475  1.6915  1.2587 -0.2321
  884MOL0     H16660   5.783   9.253   5.292 -0.6062  1.1074  1.9517
  884MOL0     H16661   5.843   9.083   5.313 -3.8752 -0.9124 -1.4539
  884MOL0     H16662   5.707   9.259   5.517 -0.7533  0.7489 -0.7528
  884MOL0     H16663   5.803   9.115   5.569  0.1734  4.1617  2.3194
  884MOL0     H16664   5.656   8.975   5.401  2.4802  0.2426 -0.9762
  884MOL0     H16665   5.539   9.112   5.390  0.3109  0.5334  0.4302
  884MOL0     H16666   5.596   9.017   5.681  0.1675  0.2724  0.4969
  884MOL0     H16667   5.460   9.063   5.596  0.1639 -1.3706  2.2161
  884MOL0     H16668   5.459   8.833   5.656  0.8698  0.7305  0.6927
  884MOL0     H16669   5.581   8.793   5.540  1.1250  0.7728  1.2069
  884MOL0     H16670   6.292   9.597   5.290  1.1284  2.0238 -0.6553
  884MOL0     H16671   6.528   9.701   5.305 -0.7213  0.0171 -0.2909
  884MOL0     H16672   6.845   9.880   5.424  1.5456  0.2564  0.1148
  884MOL0     H16673   6.938  10.107   5.463 -0.4407 -0.1093 -0.2440
  884MOL0     H16674   7.975  10.043   4.723 -1.3458 -0.1481  0.3456
  884MOL0     H16675   7.799   9.870   4.723  1.3879  0.2021  0.9033
  884MOL0     H16676   7.719   9.463   5.022  0.9752 -0.6049 -0.2415
  884MOL0     H16677   7.616   9.248   5.080  2.5380  2.2420  0.4746
  884MOL0     H16678   7.430   9.015   4.761 -0.5823  1.6412 -0.3699
  884MOL0     H16679   7.273   9.088   4.821 -2.2139 -1.2499  3.0483
  884MOL0     H16680   7.299   8.916   5.009 -0.6693  0.6261 -0.5282
  884MOL0     H16681   7.242   8.870   4.863 -2.0020  2.7739  1.3867
  884MOL0     H16682   7.543   8.874   4.918 -1.3490  0.2285  1.2720
  884MOL0     H16683   7.451   8.794   4.780  0.0268  1.2447  0.0034
  884MOL0     H16684   7.520   8.604   4.925 -0.4448  0.1765 -1.3956
  884MOL0     H16685   7.472   8.695   5.071 -0.0738 -1.1421  0.7927
  884MOL0     H16686   7.112   8.532   4.998 -0.4398  2.2779 -0.4207
  884MOL0     H16687   7.412   9.238   4.703 -1.9999 -0.3984  0.7885
  884MOL0     H16688   7.525   9.452   4.642 -2.0800  0.1958  0.6033
  885MOL0     O16689  10.848  10.778   5.266  0.1884  0.1200 -0.2104
  885MOL0     C16690  10.784  10.701   5.197  0.6164 -0.0865  0.8630
  885MOL0     O16691  10.834  10.628   5.090  0.1883 -0.1559 -0.0791
  885MOL0     C16692  10.957  10.652   5.036  0.0474 -0.5003  0.7203
  885MOL0     C16693  11.072  10.693   5.108  0.2595  0.1455 -0.7129
  885MOL0     C16694  11.191  10.712   5.048  0.0221  0.4466  0.5052
  885MOL0     C16695  11.209  10.697   4.909  0.4524  0.6795 -0.0394
  885MOL0     O16696  11.321  10.725   4.833  0.8823  0.2202 -0.1254
  885MOL0     C16697  11.440  10.764   4.904  0.1799  0.0109 -1.2746
  885MOL0     C16698  11.554  10.808   4.811 -1.2345 -0.0541 -0.2411
  885MOL0     C16699  11.692  10.826   4.883  0.0792  0.4200 -0.3556
  885MOL0     C16700  11.802  10.881   4.786  0.1192  0.1140  0.5406
  885MOL0     C16701  11.882  10.973   4.866 -0.0143  1.4816  0.3163
  885MOL0     C16702  11.976  10.899   4.961  0.4124 -0.1071 -0.3964
  885MOL0     C16703  12.063  10.993   5.052  0.1956  0.3610  0.4005
  885MOL0     C16704  12.183  11.052   4.972  0.5354 -0.8889 -0.1787
  885MOL0     N16705  12.254  11.157   5.046  0.0981 -0.3037  0.3250
  885MOL0     C16706  12.266  11.153   5.182 -0.0260  0.5834  1.1878
  885MOL0     C16707  12.301  11.282   5.224  0.0496  1.0899  0.3351
  885MOL0     C16708  12.343  11.330   5.361  0.0612 -0.3598 -0.6419
  885MOL0     C16709  12.289  11.254   5.475 -0.3922  0.1091  0.7056
  885MOL0     C16710  12.136  11.266   5.497 -0.4988  0.4351  0.0189
  885MOL0     C16711  12.034  11.218   5.389 -0.7416 -0.4016  0.3486
  885MOL0     O16712  12.026  11.076   5.396  0.1153  0.0097  0.7604
  885MOL0     C16713  11.913  10.993   5.357  0.2255 -0.6708  0.5149
  885MOL0     C16714  11.914  10.862   5.394  0.5678 -0.2960 -0.4087
  885MOL0     C16715  11.800  10.777   5.369 -0.5804  0.5069 -0.5961
  885MOL0     C16716  11.693  10.842   5.292  0.4888 -0.4635  0.8710
  885MOL0     C16717  11.569  10.762   5.254  0.2645 -0.4295  0.4908
  885MOL0     O16718  11.568  10.627   5.302  0.0482  0.3277 -0.0407
  885MOL0     C16719  11.454  10.555   5.287 -0.3997 -1.2305  0.7013
  885MOL0     C16720  11.371  10.535   5.386  0.2682 -0.8658 -0.6216
  885MOL0     C16721  11.268  10.438   5.379  0.0182 -0.5181 -0.8336
  885MOL0     C16722  11.239  10.386   5.252 -0.2474  0.4089 -0.4095
  885MOL0     O16723  11.141  10.296   5.225  0.8170  0.3113  0.2139
  885MOL0     C16724  11.004  10.350   5.242 -0.1876 -0.8157  0.3835
  885MOL0     C16725  10.907  10.243   5.288  0.0624  1.3356 -0.0732
  885MOL0     C16726  10.765  10.284   5.299  0.0565  0.0685 -0.1669
  885MOL0     C16727  10.694  10.175   5.373  0.1961  0.1108  0.1617
  885MOL0     C16728  10.538  10.177   5.356 -0.6248 -0.7467  0.2811
  885MOL0     C16729  10.500  10.118   5.223  1.1994  0.2726  0.1323
  885MOL0     C16730  10.349  10.132   5.216 -0.3170 -0.6701 -0.1823
  885MOL0     C16731  10.288  10.007   5.266 -0.1111 -0.4942  0.0051
  885MOL0    Cl16732  10.121  10.044   5.269  0.0403  0.1649 -0.4363
  885MOL0     C16733  11.328  10.401   5.149  0.1129  0.5973 -0.2508
  885MOL0     C16734  11.437  10.490   5.162  0.1713  0.1920 -0.7030
  885MOL0     O16735  11.468  10.814   5.200  0.2676 -0.5986  0.7422
  885MOL0     C16736  11.696  10.974   5.261  0.5834 -0.0694  0.3329
  885MOL0     C16737  11.810  11.048   5.286  0.5283 -0.2513 -0.4941
  885MOL0     N16738  12.307  11.354   5.104 -0.2611  0.7685 -0.3938
  885MOL0     N16739  12.288  11.283   4.996  0.5470  0.0099  0.5938
  885MOL0     C16740  11.096  10.644   4.834 -0.2885  0.1268 -0.3305
  885MOL0     C16741  10.974  10.625   4.899 -0.0619  0.7057 -0.5264
  885MOL0     C16742  10.653  10.662   5.256 -0.5403  0.9848  0.7001
  885MOL0     C16743  10.612  10.704   5.379  0.0778 -0.1413 -0.3379
  885MOL0     C16744  10.489  10.647   5.432  0.2904  0.6200 -0.2837
  885MOL0     C16745  10.411  10.553   5.370 -0.8400  0.3664  0.6476
  885MOL0     O16746  10.297  10.487   5.408 -0.3142  0.2162 -0.0967
  885MOL0     C16747  10.271  10.492   5.545 -0.6610 -0.3553 -0.5760
  885MOL0     C16748  10.122  10.470   5.563  0.4650  0.5915  0.5039
  885MOL0     C16749  10.085  10.322   5.527 -0.4746  0.5140  0.0563
  885MOL0     C16750   9.935  10.291   5.566 -0.0947 -0.1990  0.4257
  885MOL0     C16751   9.890  10.174   5.486 -0.5783 -0.0396  0.3671
  885MOL0     C16752   9.847  10.078   5.429  0.3497 -0.4393  0.1476
  885MOL0     C16753  10.460  10.518   5.246  0.7145 -0.8829 -0.2577
  885MOL0     C16754  10.580  10.569   5.182 -0.1845  0.0976 -0.5664
  885MOL0     H16755  11.068  10.715   5.215 -0.4985 -1.7000 -0.3093
  885MOL0     H16756  11.268  10.756   5.110  0.9279  0.5459 -0.6325
  885MOL0     H16757  11.470  10.686   4.974 -0.7383  0.4897 -0.3285
  885MOL0     H16758  11.413  10.860   4.950 -0.9310 -0.8006 -0.1854
  885MOL0     H16759  11.528  10.891   4.746 -0.2626 -0.1284 -0.7485
  885MOL0     H16760  11.569  10.715   4.755 -2.1119 -0.7124  0.5792
  885MOL0     H16761  11.737  10.731   4.914  1.0345  1.0488  0.2405
  885MOL0     H16762  11.672  10.892   4.968  0.1365 -1.8840  1.5652
  885MOL0     H16763  11.849  10.791   4.746  1.0141  0.5942  0.4855
  885MOL0     H16764  11.754  10.943   4.709 -2.3468  1.1894  2.7690
  885MOL0     H16765  11.817  11.041   4.922  0.5580  0.0087  2.9239
  885MOL0     H16766  11.952  11.034   4.807  1.5777  0.6226  1.2337
  885MOL0     H16767  12.044  10.829   4.912  3.3731  1.8417  0.6266
  885MOL0     H16768  11.920  10.830   5.023 -0.0559  1.0485  0.5042
  885MOL0     H16769  12.003  11.080   5.080 -0.7126 -0.1622  0.1254
  885MOL0     H16770  12.102  10.935   5.136 -2.9416 -1.8940  0.4467
  885MOL0     H16771  12.150  11.093   4.876 -1.1967 -1.3672  0.1775
  885MOL0     H16772  12.252  10.968   4.960  0.8468 -0.5307 -1.0012
  885MOL0     H16773  12.256  11.070   5.251  2.2214 -0.8994 -0.1351
  885MOL0     H16774  12.321  11.436   5.379 -0.6850 -0.7352  0.8005
  885MOL0     H16775  12.451  11.321   5.346 -0.3496 -2.0434 -3.5603
  885MOL0     H16776  12.345  11.279   5.566 -0.4801  1.2796  0.4496
  885MOL0     H16777  12.311  11.147   5.460 -1.2223 -0.2085  1.6530
  885MOL0     H16778  12.130  11.228   5.599  2.5410  2.5615  1.1372
  885MOL0     H16779  12.121  11.374   5.500  1.0111  0.8016 -2.4601
  885MOL0     H16780  12.070  11.250   5.291  2.6529 -2.9480  0.5947
  885MOL0     H16781  11.936  11.256   5.419  0.1137 -0.1479  3.0905
  885MOL0     H16782  11.989  10.817   5.458  1.0807  2.0860  0.7755
  885MOL0     H16783  11.800  10.678   5.413  1.8524  0.4299 -0.6594
  885MOL0     H16784  11.404  10.572   5.483  3.5243 -0.9467 -1.6013
  885MOL0     H16785  11.212  10.397   5.462 -1.6093  1.3631 -0.9224
  885MOL0     H16786  10.965  10.383   5.145 -1.9317 -3.4438  0.0934
  885MOL0     H16787  11.007  10.429   5.318 -1.5316 -1.3792  1.0628
  885MOL0     H16788  10.950  10.211   5.384  2.7193 -0.4899 -1.7380
  885MOL0     H16789  10.906  10.155   5.223 -0.2400  2.4854 -1.6716
  885MOL0     H16790  10.716  10.301   5.202 -4.9513 -1.3824  1.7947
  885MOL0     H16791  10.751  10.373   5.360  0.8854  0.2465 -0.2214
  885MOL0     H16792  10.734  10.080   5.335 -1.5402 -0.3002 -0.7585
  885MOL0     H16793  10.721  10.175   5.479 -0.0886 -0.0433  0.2355
  885MOL0     H16794  10.496  10.276   5.376  1.1115 -0.6897  4.9570
  885MOL0     H16795  10.502  10.121   5.443  0.1491 -1.7045 -0.0007
  885MOL0     H16796  10.544  10.019   5.205  0.3773 -0.0304 -0.2431
  885MOL0     H16797  10.546  10.183   5.148 -1.7071  0.1370 -1.9465
  885MOL0     H16798  10.308  10.209   5.282  2.6496 -0.1044  1.1316
  885MOL0     H16799  10.303  10.145   5.117 -0.9301 -0.9090  0.0659
  885MOL0     H16800  10.316   9.997   5.372  1.2212  2.1836 -0.0141
  885MOL0     H16801  10.320   9.913   5.219 -0.6521  0.8422 -3.2540
  885MOL0     H16802  11.314  10.375   5.045  1.9790  1.3303 -0.7205
  885MOL0     H16803  11.509  10.511   5.084  2.1156  1.0358  1.2073
  885MOL0     H16804  11.609  11.009   5.206  0.5390 -0.8101 -0.0829
  885MOL0     H16805  11.811  11.150   5.250 -1.2603  0.3550  1.0265
  885MOL0     H16806  11.115  10.620   4.729 -0.4010  1.8504 -0.7905
  885MOL0     H16807  10.885  10.586   4.849  0.6868 -1.0772 -0.5696
  885MOL0     H16808  10.685  10.758   5.438  1.3097  0.8154 -2.5880
  885MOL0     H16809  10.459  10.682   5.530 -0.5959 -2.2568  0.5671
  885MOL0     H16810  10.288  10.590   5.590 -1.4867 -0.5789  0.2409
  885MOL0     H16811  10.335  10.419   5.595  0.4038  2.2113  2.1196
  885MOL0     H16812  10.106  10.494   5.668  1.7096  1.3891  0.5338
  885MOL0     H16813  10.065  10.545   5.509  0.0034 -0.3999 -0.4387
  885MOL0     H16814  10.141  10.252   5.589 -0.9767 -1.2774 -1.4028
  885MOL0     H16815  10.089  10.310   5.418  0.6744  0.4193  0.1054
  885MOL0     H16816   9.938  10.272   5.673  1.6937 -0.8099  0.3102
  885MOL0     H16817   9.871  10.374   5.536  2.7368  1.6390 -0.9612
  885MOL0     H16818   9.821   9.987   5.379  1.4918 -0.7025  0.0011
  885MOL0     H16819  10.408  10.439   5.192 -4.1123  0.2354  2.1609
  885MOL0     H16820  10.615  10.520   5.092 -1.9691  0.1458 -1.3316
  886MOL0     O16821   4.052   9.066   2.317 -0.9584  0.3138 -0.1014
  886MOL0     C16822   4.073   9.109   2.202  0.8201  0.5231 -0.6716
  886MOL0     O16823   3.982   9.199   2.140 -0.0270 -0.1762  0.1123
  886MOL0     C16824   3.850   9.227   2.189  0.6945  0.6419 -0.4590
  886MOL0     C16825   3.747   9.254   2.097 -0.5198 -0.1981  0.1287
  886MOL0     C16826   3.625   9.283   2.135  0.1825 -0.5157 -0.6852
  886MOL0     C16827   3.595   9.301   2.269 -0.5352 -0.0318 -0.2481
  886MOL0     O16828   3.471   9.349   2.308  0.1294  0.8664 -0.0918
  886MOL0     C16829   3.355   9.302   2.242 -1.2555  0.0701 -0.0933
  886MOL0     C16830   3.243   9.381   2.299 -0.4403 -0.0968 -0.3220
  886MOL0     C16831   3.105   9.320   2.272 -0.2705 -0.2569 -0.9707
  886MOL0     C16832   2.997   9.353   2.383  0.3082  0.4185  0.0693
  886MOL0     C16833   2.870   9.427   2.329 -0.7438 -0.1393  0.4238
  886MOL0     C16834   2.764   9.460   2.435 -0.3819 -0.2983  0.2072
  886MOL0     C16835   2.733   9.340   2.526  0.4633  0.7192  0.5823
  886MOL0     C16836   2.638   9.356   2.638  0.3787 -0.2424 -0.1089
  886MOL0     N16837   2.507   9.409   2.602  0.3512 -0.3349  0.1898
  886MOL0     C16838   2.463   9.528   2.657 -0.1592 -0.0369  0.0578
  886MOL0     C16839   2.336   9.529   2.607  0.1675 -0.4402 -0.8688
  886MOL0     C16840   2.237   9.643   2.616  0.0892 -0.4730  0.3176
  886MOL0     C16841   2.279   9.769   2.698 -0.8620 -0.6284  0.5409
  886MOL0     C16842   2.176   9.875   2.701  0.0559  0.6995 -0.0085
  886MOL0     C16843   2.040   9.825   2.748 -0.4341  0.0097 -0.2043
  886MOL0     O16844   1.974   9.952   2.770  0.1970  0.2119 -0.3503
  886MOL0     C16845   1.841   9.968   2.759  1.1460 -1.0076 -0.2421
  886MOL0     C16846   1.790  10.088   2.719  0.8417  0.2117 -0.6462
  886MOL0     C16847   1.654  10.104   2.697  0.6109 -0.5704 -0.3764
  886MOL0     C16848   1.564   9.991   2.701  0.4209 -0.6226  0.1475
  886MOL0     C16849   1.417  10.017   2.676 -0.2525  0.2830  0.6464
  886MOL0     O16850   1.328   9.917   2.652  0.6616  0.3774  0.3177
  886MOL0     C16851   1.196   9.942   2.625 -0.1341 -0.1468  0.2972
  886MOL0     C16852   1.120  10.013   2.712 -0.2644 -0.8023  0.3821
  886MOL0     C16853   0.989  10.049   2.683  0.0461  0.2764 -0.1485
  886MOL0     C16854   0.917   9.995   2.576 -0.1929  0.2935 -1.6088
  886MOL0     O16855   0.791  10.043   2.552 -0.0823 -0.0892  0.5765
  886MOL0     C16856   0.713   9.957   2.467  0.6802  0.4813  0.3598
  886MOL0     C16857   0.579   9.916   2.528 -0.1608  0.1125  0.4172
  886MOL0     C16858   0.506  10.021   2.597 -0.2146 -0.4825 -0.4543
  886MOL0     C16859   0.376   9.988   2.661  0.3772 -0.6339  0.2190
  886MOL0     C16860   0.335  10.102   2.742 -0.9241  0.3462 -0.1606
  886MOL0     C16861   0.189  10.093   2.789  0.3630 -0.0953  0.5555
  886MOL0     C16862   0.130  10.230   2.833  0.0996  0.7061 -0.3860
  886MOL0     C16863  -0.020  10.203   2.854 -0.5082  0.2530 -0.4869
  886MOL0    Cl16864  -0.045  10.122   3.014 -0.0214 -0.9826  0.0572
  886MOL0     C16865   1.002   9.935   2.479  0.0170 -0.3284 -0.0144
  886MOL0     C16866   1.141   9.899   2.503  0.1882  0.0679  0.1313
  886MOL0     O16867   1.384  10.139   2.683  0.7531  0.3645 -0.3473
  886MOL0     C16868   1.614   9.864   2.754 -0.5481 -0.7580  1.2470
  886MOL0     C16869   1.749   9.859   2.791  0.6166  0.4136  0.4558
  886MOL0     N16870   2.307   9.415   2.532  0.1689 -0.2233 -0.5534
  886MOL0     N16871   2.410   9.341   2.530  0.2124  0.2369 -0.3962
  886MOL0     C16872   3.690   9.262   2.364  0.4867 -0.6707  0.6985
  886MOL0     C16873   3.811   9.229   2.325 -0.3321 -0.0667  1.0468
  886MOL0     C16874   4.204   9.090   2.142 -0.4106 -0.6781  0.3333
  886MOL0     C16875   4.205   9.093   1.997 -0.1104 -0.0997  0.1805
  886MOL0     C16876   4.323   9.079   1.925  0.7311  0.1716  0.7034
  886MOL0     C16877   4.445   9.071   1.995 -0.5026  1.0360  0.5694
  886MOL0     O16878   4.567   9.076   1.923 -0.2424  0.6681 -0.0012
  886MOL0     C16879   4.665   9.172   1.953 -0.4793 -0.1093  1.1903
  886MOL0     C16880   4.765   9.186   1.829  0.2603 -0.3009 -0.8528
  886MOL0     C16881   4.682   9.236   1.713  0.7063  0.1797  0.7320
  886MOL0     C16882   4.780   9.253   1.598 -0.2515 -0.5222 -0.6977
  886MOL0     C16883   4.729   9.332   1.489  0.8713  0.4520 -0.4502
  886MOL0     C16884   4.668   9.407   1.418  0.6523  0.0764 -0.5737
  886MOL0     C16885   4.450   9.062   2.134 -0.5325 -0.1227 -0.4924
  886MOL0     C16886   4.324   9.066   2.206 -1.4870 -0.1706  0.2948
  886MOL0     H16887   3.778   9.261   1.993  2.2384  0.1025  0.8975
  886MOL0     H16888   3.542   9.307   2.068 -0.0439  3.1120  0.6743
  886MOL0     H16889   3.348   9.194   2.261 -0.9009  0.3469  1.7762
  886MOL0     H16890   3.359   9.321   2.134  2.0238  3.5646  0.4352
  886MOL0     H16891   3.241   9.483   2.260  2.2578  0.7294  1.4604
  886MOL0     H16892   3.275   9.394   2.402  0.3085  1.1524 -0.6960
  886MOL0     H16893   3.122   9.212   2.272 -3.0549 -0.7748 -0.0933
  886MOL0     H16894   3.070   9.357   2.175  1.4373  1.8191 -0.8709
  886MOL0     H16895   2.952   9.257   2.411 -1.2183  1.4621  1.3391
  886MOL0     H16896   3.039   9.401   2.471 -0.9995  1.3044  0.2321
  886MOL0     H16897   2.819   9.354   2.265 -0.6119 -1.0778  1.3788
  886MOL0     H16898   2.902   9.519   2.278  1.1196 -1.2191 -0.4328
  886MOL0     H16899   2.672   9.500   2.390 -0.3157 -0.7723 -0.3477
  886MOL0     H16900   2.809   9.538   2.497  2.2307 -1.8999  0.4513
  886MOL0     H16901   2.690   9.267   2.457 -2.4918  0.0371  2.9155
  886MOL0     H16902   2.825   9.305   2.574  0.4842 -0.1572 -0.0776
  886MOL0     H16903   2.686   9.416   2.716  0.2948  2.0895 -1.7803
  886MOL0     H16904   2.612   9.256   2.676 -0.8979  0.5565  1.2801
  886MOL0     H16905   2.511   9.606   2.716 -2.2706  0.6800  0.9209
  886MOL0     H16906   2.148   9.607   2.668 -0.3436  0.0948 -0.0148
  886MOL0     H16907   2.210   9.683   2.518  1.6056 -1.5586 -0.5998
  886MOL0     H16908   2.380   9.807   2.679 -1.0601  0.7914  2.0977
  886MOL0     H16909   2.300   9.741   2.801  1.2467  1.3700  0.7227
  886MOL0     H16910   2.213   9.952   2.770  2.3246  0.3972 -0.7794
  886MOL0     H16911   2.175   9.921   2.602  1.6952 -0.0140 -0.4031
  886MOL0     H16912   2.040   9.759   2.835 -0.1492  0.0996 -0.1335
  886MOL0     H16913   1.997   9.771   2.664  1.4776 -0.0030 -1.2391
  886MOL0     H16914   1.856  10.174   2.706  0.7316  0.2551 -0.9415
  886MOL0     H16915   1.618  10.206   2.691 -2.8172 -1.6359  0.1106
  886MOL0     H16916   1.169  10.031   2.807  0.7842 -1.0453 -0.0980
  886MOL0     H16917   0.938  10.104   2.761 -3.5956 -2.1663 -0.5709
  886MOL0     H16918   0.763   9.863   2.444 -0.3122 -0.1187  0.5828
  886MOL0     H16919   0.697  10.011   2.373 -0.9421 -0.7826 -0.1329
  886MOL0     H16920   0.575   9.824   2.587 -0.8025 -0.5614 -0.6320
  886MOL0     H16921   0.524   9.881   2.440  0.1407 -1.5362  0.8355
  886MOL0     H16922   0.500  10.106   2.528 -0.2000  2.7378  3.1680
  886MOL0     H16923   0.576  10.034   2.679  0.6275  0.5231 -1.3022
  886MOL0     H16924   0.303   9.972   2.581  0.3298 -0.6325  0.2623
  886MOL0     H16925   0.390   9.902   2.728  1.1098 -0.2108  0.6133
  886MOL0     H16926   0.346  10.189   2.676 -2.0412 -0.9058 -2.1208
  886MOL0     H16927   0.399  10.122   2.829 -0.1607 -2.9974  0.1766
  886MOL0     H16928   0.167  10.028   2.874 -3.6860 -1.9510 -1.6196
  886MOL0     H16929   0.134  10.048   2.706  2.2902 -0.2129 -0.7243
  886MOL0     H16930   0.179  10.265   2.924 -0.9797  3.4471 -0.7596
  886MOL0     H16931   0.147  10.311   2.761  0.0472  0.7482 -0.3509
  886MOL0     H16932  -0.072  10.148   2.775 -2.3289  0.4314  0.5466
  886MOL0     H16933  -0.066  10.300   2.872 -0.9957  0.0734 -0.7453
  886MOL0     H16934   0.964   9.918   2.379 -1.8101  0.3552  0.5388
  886MOL0     H16935   1.194   9.840   2.430 -2.9519 -0.4342 -1.9502
  886MOL0     H16936   1.556   9.772   2.755  0.9582 -1.7653  2.8800
  886MOL0     H16937   1.799   9.771   2.830  2.1363  0.7373 -0.6784
  886MOL0     H16938   3.667   9.251   2.470 -3.8941  3.0278  0.4125
  886MOL0     H16939   3.889   9.216   2.399  1.0718  1.1617 -0.1542
  886MOL0     H16940   4.117   9.125   1.942 -0.8910 -2.7521 -0.2610
  886MOL0     H16941   4.322   9.096   1.818 -1.3592 -0.1446  0.6204
  886MOL0     H16942   4.725   9.141   2.039  2.9866  2.4076 -0.0866
  886MOL0     H16943   4.634   9.272   1.985 -0.4754  0.5858 -0.8595
  886MOL0     H16944   4.841   9.260   1.857 -1.6134  0.7767  1.8042
  886MOL0     H16945   4.799   9.089   1.794 -1.4803 -1.3516  0.2161
  886MOL0     H16946   4.640   9.332   1.744  1.7487  0.5803  0.9432
  886MOL0     H16947   4.594   9.174   1.693  0.0255  1.3642 -0.0579
  886MOL0     H16948   4.872   9.302   1.632 -0.5045 -0.3439 -0.2641
  886MOL0     H16949   4.808   9.156   1.557  1.9676 -1.0260  1.7299
  886MOL0     H16950   4.603   9.475   1.366 -1.4159  0.5617  2.3786
  886MOL0     H16951   4.543   9.057   2.189 -0.8549  1.0394  0.1904
  886MOL0     H16952   4.330   9.055   2.314 -2.3791 -0.9355  0.2760
  887MOL0     O16953   1.317   2.747   1.251 -0.6478  0.8834 -0.0307
  887MOL0     C16954   1.302   2.647   1.177 -0.4653 -0.3091  0.4865
  887MOL0     O16955   1.396   2.563   1.130 -0.3651 -0.7611  0.5404
  887MOL0     C16956   1.525   2.581   1.176  0.3166 -0.0995  0.4469
  887MOL0     C16957   1.549   2.532   1.307 -0.1957 -0.3896 -0.0769
  887MOL0     C16958   1.675   2.563   1.370 -0.3118  0.0530 -0.2170
  887MOL0     C16959   1.771   2.638   1.301 -0.3463  0.4532  0.8734
  887MOL0     O16960   1.893   2.652   1.359  0.0142 -1.0084  0.2194
  887MOL0     C16961   1.925   2.790   1.379 -0.1889  0.0827 -0.3138
  887MOL0     C16962   2.063   2.815   1.329  0.6599 -0.2923  0.6957
  887MOL0     C16963   2.164   2.769   1.427  0.0938  0.2291 -0.2167
  887MOL0     C16964   2.301   2.801   1.365 -0.1742  0.2268  0.3710
  887MOL0     C16965   2.413   2.728   1.433  0.2981 -0.0254 -0.8240
  887MOL0     C16966   2.406   2.759   1.592  0.1686  0.6579  0.0676
  887MOL0     C16967   2.408   2.917   1.625 -0.5115 -0.4677  0.2430
  887MOL0     C16968   2.397   2.956   1.774  0.7734  0.0598  0.0952
  887MOL0     N16969   2.279   2.897   1.848  0.2252 -0.1027 -0.5811
  887MOL0     C16970   2.279   2.771   1.907  0.3771 -0.3099 -0.0517
  887MOL0     C16971   2.148   2.741   1.919 -0.2062  1.0052  0.0905
  887MOL0     C16972   2.104   2.603   1.970 -0.3402 -1.4866  0.3511
  887MOL0     C16973   1.971   2.623   2.045 -0.6582 -0.4781 -0.6306
  887MOL0     C16974   1.944   2.493   2.128 -0.2495 -0.3925  0.1344
  887MOL0     C16975   1.802   2.493   2.194  1.1425 -0.0104  0.0589
  887MOL0     O16976   1.797   2.383   2.279  0.0645  0.2034  0.3088
  887MOL0     C16977   1.673   2.347   2.323  0.7315  0.7066  0.1461
  887MOL0     C16978   1.625   2.213   2.291 -0.1063 -0.5670  0.9358
  887MOL0     C16979   1.499   2.180   2.330  0.9646 -0.0697  0.0210
  887MOL0     C16980   1.412   2.270   2.396 -0.2452  0.0466  0.0216
  887MOL0     C16981   1.278   2.230   2.432 -0.2265  0.0226 -0.5014
  887MOL0     O16982   1.268   2.107   2.489 -0.5463  0.2054  0.2938
  887MOL0     C16983   1.149   2.065   2.518 -0.5405  0.2435  0.0210
  887MOL0     C16984   1.089   1.976   2.431  0.3560  0.5971  0.8904
  887MOL0     C16985   0.961   1.928   2.462 -0.5490  0.6178  0.4958
  887MOL0     C16986   0.895   1.979   2.565  0.2672  0.4778 -0.3929
  887MOL0     O16987   0.769   1.931   2.588  1.1129 -0.0785  0.5030
  887MOL0     C16988   0.703   1.975   2.697  1.2388 -0.3724 -0.9470
  887MOL0     C16989   0.571   1.902   2.726 -0.1269  0.5295 -0.8874
  887MOL0     C16990   0.478   1.915   2.598  0.2774 -0.1365  0.4511
  887MOL0     C16991   0.322   1.931   2.626 -1.2014  0.7491  0.1759
  887MOL0     C16992   0.241   1.876   2.510  0.0516 -0.5798 -0.7115
  887MOL0     C16993   0.094   1.876   2.564  0.0361 -0.5902  0.2974
  887MOL0     C16994  -0.006   1.826   2.451 -0.0139 -0.2218  0.3422
  887MOL0     C16995  -0.140   1.826   2.515  0.7057 -0.1316  0.1335
  887MOL0    Cl16996  -0.256   1.720   2.419 -0.4812  0.4033 -0.6152
  887MOL0     C16997   0.952   2.081   2.649 -0.9440 -1.1133 -0.4081
  887MOL0     C16998   1.078   2.127   2.625 -0.6071  1.1738  0.6109
  887MOL0     O16999   1.191   2.315   2.437 -0.5383 -0.3349 -0.1729
  887MOL0     C17000   1.471   2.388   2.434 -0.0985 -0.0359 -0.1880
  887MOL0     C17001   1.592   2.431   2.401 -1.1721 -0.3694 -0.5298
  887MOL0     N17002   2.071   2.841   1.863 -0.5309  0.2611  0.4821
  887MOL0     N17003   2.152   2.941   1.834 -0.3160  0.3258 -0.3929
  887MOL0     C17004   1.748   2.657   1.162 -0.7755 -0.0506 -0.2396
  887MOL0     C17005   1.632   2.629   1.102  0.3349 -0.6883  0.0268
  887MOL0     C17006   1.164   2.622   1.134  0.3045 -0.7367 -1.1383
  887MOL0     C17007   1.053   2.686   1.202 -0.3330  0.4884 -0.3760
  887MOL0     C17008   0.920   2.658   1.166 -0.0513  0.3798  0.0655
  887MOL0     C17009   0.892   2.564   1.067 -0.2268 -0.5599  0.6069
  887MOL0     O17010   0.770   2.529   1.028 -0.0138 -0.4427  0.3556
  887MOL0     C17011   0.653   2.609   1.074 -0.0580 -0.2747 -0.4537
  887MOL0     C17012   0.516   2.591   1.002  1.0000  0.2277  0.2076
  887MOL0     C17013   0.390   2.655   1.072  0.7458  0.6305 -0.1168
  887MOL0     C17014   0.278   2.663   0.964  0.6157  0.6747  0.3970
  887MOL0     C17015   0.165   2.606   1.033 -0.0521 -1.2867 -0.7674
  887MOL0     C17016   0.079   2.545   1.094 -0.6498 -0.0172 -0.0268
  887MOL0     C17017   1.001   2.512   0.995 -0.2838 -0.2938  0.1037
  887MOL0     C17018   1.133   2.536   1.020  0.2250 -0.8825 -0.3796
  887MOL0     H17019   1.465   2.495   1.366 -2.7644  2.6351 -1.5419
  887MOL0     H17020   1.698   2.531   1.472 -3.1754 -2.0730 -0.1197
  887MOL0     H17021   1.919   2.803   1.488 -1.5625  1.3208 -0.5186
  887MOL0     H17022   1.859   2.871   1.348 -0.9674  0.8295  2.8710
  887MOL0     H17023   2.078   2.922   1.310  1.9290 -0.8346 -1.7280
  887MOL0     H17024   2.072   2.771   1.229  2.1934 -0.5042  0.8984
  887MOL0     H17025   2.166   2.663   1.453 -0.0076  0.1718 -0.4328
  887MOL0     H17026   2.152   2.817   1.524  0.5373 -0.2496  0.0744
  887MOL0     H17027   2.299   2.776   1.258 -1.8413  0.3168  0.3524
  887MOL0     H17028   2.315   2.908   1.351  1.8838 -0.2995 -2.6285
  887MOL0     H17029   2.508   2.752   1.383  0.3272 -2.9117 -2.3981
  887MOL0     H17030   2.397   2.620   1.428 -1.4477  0.2496 -2.4655
  887MOL0     H17031   2.489   2.705   1.639 -1.7461 -3.4323 -0.8663
  887MOL0     H17032   2.316   2.713   1.633  0.8956 -2.1412 -1.2598
  887MOL0     H17033   2.500   2.962   1.585 -0.4635  0.0188  0.8986
  887MOL0     H17034   2.322   2.964   1.576 -1.7045 -2.0972  0.6753
  887MOL0     H17035   2.406   3.065   1.778 -0.3348  0.1253  1.4196
  887MOL0     H17036   2.485   2.913   1.824  0.2378  0.5543  1.5170
  887MOL0     H17037   2.366   2.709   1.925  0.7320  0.1305 -0.2367
  887MOL0     H17038   2.178   2.571   2.044 -0.4239 -1.2923  0.5192
  887MOL0     H17039   2.084   2.531   1.891 -1.1027 -1.6746  0.7040
  887MOL0     H17040   1.898   2.636   1.965  0.1104 -2.1368 -1.6642
  887MOL0     H17041   1.989   2.708   2.111 -0.6320 -0.3708 -0.7746
  887MOL0     H17042   1.953   2.397   2.077  0.0538 -0.4069  0.2104
  887MOL0     H17043   2.015   2.485   2.211  0.6419  1.1512 -0.4285
  887MOL0     H17044   1.737   2.485   2.107 -0.1707 -0.7136  1.0584
  887MOL0     H17045   1.768   2.583   2.247  0.8292 -0.3988  0.5338
  887MOL0     H17046   1.683   2.129   2.253 -2.2849 -1.0694 -1.5313
  887MOL0     H17047   1.464   2.077   2.324 -0.3962  0.0059  3.8115
  887MOL0     H17048   1.125   1.932   2.338 -2.0681  0.3311  0.0042
  887MOL0     H17049   0.902   1.863   2.399 -3.4698  0.7840  2.8150
  887MOL0     H17050   0.685   2.082   2.684 -0.4630 -0.1322  2.3102
  887MOL0     H17051   0.753   1.975   2.794  0.4793  1.5626 -0.5092
  887MOL0     H17052   0.523   1.936   2.818  0.3336  0.1656 -0.5060
  887MOL0     H17053   0.586   1.797   2.752 -1.2663  0.7361  0.7932
  887MOL0     H17054   0.512   1.841   2.524 -0.0559 -1.3125  1.4437
  887MOL0     H17055   0.502   2.013   2.556  0.8735  0.6852  2.5771
  887MOL0     H17056   0.298   1.885   2.722  0.7173  1.0878  0.8706
  887MOL0     H17057   0.301   2.038   2.639 -0.6907  0.9996 -0.9222
  887MOL0     H17058   0.273   1.775   2.482 -1.2410 -1.0040 -0.7193
  887MOL0     H17059   0.253   1.947   2.428  0.5320  2.7878  2.0262
  887MOL0     H17060   0.069   1.974   2.606 -1.1095 -0.3113 -0.9781
  887MOL0     H17061   0.088   1.807   2.649 -0.4724 -1.1068 -0.1515
  887MOL0     H17062  -0.017   1.881   2.357  0.1176 -4.5235 -2.4650
  887MOL0     H17063   0.025   1.724   2.428 -3.1831 -1.2517  0.1143
  887MOL0     H17064  -0.177   1.928   2.506  1.6648  0.2918  0.8039
  887MOL0     H17065  -0.147   1.794   2.620 -1.1439  1.3694  0.5286
  887MOL0     H17066   0.900   2.137   2.725 -0.2568  0.6366 -1.1695
  887MOL0     H17067   1.122   2.202   2.690 -2.1010  1.2298  1.6164
  887MOL0     H17068   1.414   2.446   2.505  0.7577  1.1841 -0.4540
  887MOL0     H17069   1.618   2.525   2.448 -2.2807 -0.1389 -0.3409
  887MOL0     H17070   1.820   2.697   1.091 -3.5396  0.7439 -2.8551
  887MOL0     H17071   1.622   2.654   0.997  2.0232 -0.2195 -0.0538
  887MOL0     H17072   1.067   2.750   1.289  0.9393  1.0912 -0.9944
  887MOL0     H17073   0.837   2.694   1.226  0.6991  1.2950  0.5676
  887MOL0     H17074   0.669   2.717   1.063 -1.7375 -0.1238 -2.0947
  887MOL0     H17075   0.646   2.575   1.177  0.0337 -0.9939 -0.6786
  887MOL0     H17076   0.521   2.652   0.912  0.8387  2.0475  1.3685
  887MOL0     H17077   0.502   2.486   0.974  0.6243  0.3924 -0.2485
  887MOL0     H17078   0.410   2.756   1.109 -0.4563  0.0479  2.3309
  887MOL0     H17079   0.372   2.593   1.160  1.4757  0.6822  0.0805
  887MOL0     H17080   0.242   2.765   0.948  1.0125  0.9692  1.3781
  887MOL0     H17081   0.308   2.625   0.866  1.4026  0.1010  0.8504
  887MOL0     H17082   0.028   2.496   1.174  0.1138  0.7655  0.9530
  887MOL0     H17083   0.998   2.435   0.919  1.9728  0.9847 -1.3929
  887MOL0     H17084   1.201   2.484   0.954  0.9935 -2.9232  1.8782
  888MOL0     O17085   4.148   6.318   5.552  0.2125 -1.0539  0.6843
  888MOL0     C17086   4.183   6.206   5.552  0.1522  0.5830 -0.8134
  888MOL0     O17087   4.097   6.102   5.511 -0.2653  0.2433 -0.6130
  888MOL0     C17088   3.974   6.131   5.470 -0.5328  0.0602 -1.0007
  888MOL0     C17089   3.872   6.106   5.557  0.5738  0.1007  0.0712
  888MOL0     C17090   3.735   6.124   5.525  0.1649  0.1616  0.4185
  888MOL0     C17091   3.706   6.170   5.399  0.9273  0.0669 -0.1764
  888MOL0     O17092   3.572   6.173   5.360 -0.1725 -0.0673 -0.7209
  888MOL0     C17093   3.530   6.204   5.224  0.6470  0.1079 -0.0963
  888MOL0     C17094   3.503   6.359   5.218  0.1181 -0.1772 -0.4638
  888MOL0     C17095   3.374   6.407   5.144  0.1775 -0.1917  0.0358
  888MOL0     C17096   3.327   6.329   5.011 -0.5186  0.7101 -0.0891
  888MOL0     C17097   3.206   6.394   4.952 -0.3602 -0.8325 -0.0435
  888MOL0     C17098   3.073   6.383   5.029 -0.0640  0.1483  0.3266
  888MOL0     C17099   2.993   6.512   5.003 -0.2492 -0.2985  0.3381
  888MOL0     C17100   2.859   6.490   5.067  1.4679 -0.5090  0.0390
  888MOL0     N17101   2.773   6.613   5.073 -0.3017  0.5576  0.2813
  888MOL0     C17102   2.685   6.652   4.979 -0.2074 -0.1325 -0.1214
  888MOL0     C17103   2.627   6.763   5.030  0.3600 -0.3244  0.2897
  888MOL0     C17104   2.509   6.832   4.969 -0.0060  0.3646 -0.0840
  888MOL0     C17105   2.464   6.958   5.036  0.1814 -0.1459  0.6751
  888MOL0     C17106   2.336   7.033   4.992 -0.5031 -0.1373  0.3065
  888MOL0     C17107   2.209   7.010   5.069  0.5534 -0.1344 -0.1494
  888MOL0     O17108   2.101   7.070   4.993 -0.4801  0.1594 -0.3511
  888MOL0     C17109   1.972   7.054   5.028  0.4830  0.2939 -0.0348
  888MOL0     C17110   1.930   7.052   5.163 -0.3083  0.1077  0.3034
  888MOL0     C17111   1.803   7.004   5.188 -0.8056  0.5240  0.2643
  888MOL0     C17112   1.718   6.943   5.082 -0.1705 -0.5230 -0.5589
  888MOL0     C17113   1.589   6.872   5.109 -0.0443 -0.1655 -0.3339
  888MOL0     O17114   1.561   6.840   5.238 -0.3081  0.3447  0.2549
  888MOL0     C17115   1.450   6.770   5.269  0.1859  0.6242  0.4917
  888MOL0     C17116   1.384   6.809   5.390  0.4967  0.3654 -0.6929
  888MOL0     C17117   1.268   6.746   5.425 -0.5472  0.0145  0.3871
  888MOL0     C17118   1.226   6.626   5.355 -0.2498  1.0599  0.0129
  888MOL0     O17119   1.127   6.560   5.425  0.2819  0.3541 -0.1000
  888MOL0     C17120   1.083   6.427   5.383 -0.1684  0.1770  0.7200
  888MOL0     C17121   0.955   6.405   5.462  0.2309  0.2482 -0.6029
  888MOL0     C17122   0.829   6.475   5.405 -0.1764  0.5444  0.7417
  888MOL0     C17123   0.810   6.607   5.471 -1.1478  0.9943 -0.5812
  888MOL0     C17124   0.712   6.689   5.384 -0.2598  0.0075  0.4610
  888MOL0     C17125   0.574   6.623   5.386  0.3783  0.4300  0.3664
  888MOL0     C17126   0.471   6.708   5.330  0.3041 -0.9072  0.7314
  888MOL0     C17127   0.345   6.641   5.311  0.7993 -0.5515 -1.2087
  888MOL0    Cl17128   0.360   6.501   5.201  0.2357  0.0043  0.2241
  888MOL0     C17129   1.302   6.577   5.252 -0.3021  0.7812  0.3080
  888MOL0     C17130   1.408   6.650   5.207  0.2286 -1.0759 -1.2065
  888MOL0     O17131   1.513   6.861   5.011  0.2683 -0.3321  0.3001
  888MOL0     C17132   1.772   6.948   4.949 -0.7332 -0.9157 -0.3520
  888MOL0     C17133   1.895   7.013   4.924  0.1124 -0.0619  0.9450
  888MOL0     N17134   2.694   6.791   5.152  0.5780  0.0039 -0.7126
  888MOL0     N17135   2.781   6.700   5.177 -0.3092 -0.5928  0.8479
  888MOL0     C17136   3.817   6.200   5.309 -0.0909  0.1022 -0.2734
  888MOL0     C17137   3.946   6.174   5.347 -0.0728 -0.6746  0.2519
  888MOL0     C17138   4.310   6.163   5.600  0.6733  0.9162  0.5002
  888MOL0     C17139   4.352   6.028   5.604 -0.6149  0.6097 -1.6014
  888MOL0     C17140   4.480   5.993   5.641 -0.5149  1.2269 -0.3446
  888MOL0     C17141   4.574   6.087   5.677 -0.0318  0.2022 -0.3788
  888MOL0     O17142   4.702   6.063   5.733  0.8054 -0.9688 -0.4941
  888MOL0     C17143   4.737   5.930   5.730 -0.4592 -0.1488  0.1295
  888MOL0     C17144   4.880   5.918   5.777  0.4794 -0.0242 -0.4901
  888MOL0     C17145   4.979   5.940   5.667  0.6199  0.0886 -0.3219
  888MOL0     C17146   5.123   5.910   5.720 -0.0053  0.2186 -0.4395
  888MOL0     C17147   5.234   5.978   5.644  0.8655 -0.0349 -0.0077
  888MOL0     C17148   5.321   6.032   5.581 -0.3058 -0.0305  0.0804
  888MOL0     C17149   4.532   6.220   5.685  0.2838  0.2011  0.2803
  888MOL0     C17150   4.402   6.256   5.646 -0.0901 -0.0799 -0.7237
  888MOL0     H17151   3.892   6.065   5.656 -3.7422  0.5666  1.3507
  888MOL0     H17152   3.644   6.097   5.578  0.4225 -2.2279 -0.2263
  888MOL0     H17153   3.435   6.155   5.201  0.1849  0.8944  0.1003
  888MOL0     H17154   3.601   6.171   5.147  3.7589  1.0301  2.1651
  888MOL0     H17155   3.590   6.405   5.171 -0.3164  0.9391 -0.2095
  888MOL0     H17156   3.525   6.414   5.310  1.3347  1.7142 -1.8020
  888MOL0     H17157   3.382   6.513   5.119 -2.0701 -0.6217 -3.2832
  888MOL0     H17158   3.300   6.393   5.223 -0.0679 -0.1323 -0.1776
  888MOL0     H17159   3.414   6.331   4.944  0.8515  1.3505  1.6421
  888MOL0     H17160   3.319   6.222   5.031 -0.7912  1.3918  4.3840
  888MOL0     H17161   3.196   6.350   4.852  1.8478  2.6577 -2.0231
  888MOL0     H17162   3.232   6.497   4.929  3.5550 -1.1998  1.9375
  888MOL0     H17163   3.093   6.370   5.136  2.5013  1.2425  0.0515
  888MOL0     H17164   3.019   6.291   5.006  1.0128 -1.3415  3.2538
  888MOL0     H17165   3.036   6.600   5.050 -1.0741  0.5773 -0.5019
  888MOL0     H17166   2.993   6.539   4.897  2.3542 -3.2656 -0.5929
  888MOL0     H17167   2.856   6.452   5.170 -3.6324 -1.0315 -0.0226
  888MOL0     H17168   2.785   6.432   5.011 -0.8993  1.0138  1.4070
  888MOL0     H17169   2.674   6.615   4.878 -0.5880 -0.8891  0.1918
  888MOL0     H17170   2.425   6.763   4.964  1.0680 -1.0787  0.9575
  888MOL0     H17171   2.528   6.844   4.861 -0.6415  0.8754 -0.1395
  888MOL0     H17172   2.552   7.024   5.041  1.7613 -2.2183  1.8750
  888MOL0     H17173   2.438   6.920   5.135 -1.6136  0.4554  0.4748
  888MOL0     H17174   2.354   7.140   5.003  1.7455 -0.3405 -0.8490
  888MOL0     H17175   2.316   7.014   4.886 -2.6303 -0.4554  0.7155
  888MOL0     H17176   2.204   7.053   5.169 -1.1600  0.2146 -0.3523
  888MOL0     H17177   2.193   6.903   5.082 -2.1827  0.1772 -0.3192
  888MOL0     H17178   1.994   7.093   5.240 -0.5220  0.0027  0.5373
  888MOL0     H17179   1.761   6.992   5.288 -0.6494  1.4109  0.4489
  888MOL0     H17180   1.416   6.901   5.437 -3.4666  2.0980 -1.0272
  888MOL0     H17181   1.206   6.770   5.511 -1.7270 -1.0237 -0.1342
  888MOL0     H17182   1.161   6.357   5.412 -1.5736 -2.0151 -0.5667
  888MOL0     H17183   1.062   6.436   5.276  1.1995  3.8585  0.6239
  888MOL0     H17184   0.976   6.438   5.565  2.1534 -0.8450 -0.5978
  888MOL0     H17185   0.948   6.296   5.465  0.4626  0.2451  1.2551
  888MOL0     H17186   0.743   6.408   5.418  1.0448 -2.0648 -2.8457
  888MOL0     H17187   0.834   6.482   5.296  0.6964  0.0613  0.7438
  888MOL0     H17188   0.779   6.596   5.575 -0.1017 -0.2634 -0.3765
  888MOL0     H17189   0.909   6.653   5.466 -0.1954 -1.0280 -1.6686
  888MOL0     H17190   0.751   6.708   5.283  6.3519 -2.0968  2.0820
  888MOL0     H17191   0.700   6.789   5.425  2.2822 -0.3779  2.3401
  888MOL0     H17192   0.537   6.605   5.487 -0.5232 -0.0339 -0.0337
  888MOL0     H17193   0.576   6.524   5.339 -1.0849  2.0264 -3.4855
  888MOL0     H17194   0.455   6.794   5.395 -0.5542 -0.5552  0.0765
  888MOL0     H17195   0.494   6.760   5.237 -0.1494 -0.1860  1.0128
  888MOL0     H17196   0.267   6.704   5.269 -0.7880 -2.4314 -1.2285
  888MOL0     H17197   0.314   6.623   5.414 -2.4411  3.4216 -1.2369
  888MOL0     H17198   1.276   6.480   5.211 -0.9006  0.4748  1.3798
  888MOL0     H17199   1.455   6.607   5.119  0.1886 -3.2435 -0.2320
  888MOL0     H17200   1.721   6.906   4.863 -0.6987 -2.0979  0.1846
  888MOL0     H17201   1.923   7.033   4.821 -1.6146  0.4682  0.5449
  888MOL0     H17202   3.792   6.248   5.216 -0.5794  0.6488  0.1323
  888MOL0     H17203   4.025   6.192   5.274 -1.2017  2.0045 -0.4193
  888MOL0     H17204   4.293   5.944   5.569  0.5183 -0.6185 -0.6645
  888MOL0     H17205   4.503   5.888   5.656 -0.5879  1.1770 -0.5827
  888MOL0     H17206   4.731   5.884   5.631  1.1749 -2.1273  0.8661
  888MOL0     H17207   4.683   5.867   5.801  2.2167 -0.7946  1.7183
  888MOL0     H17208   4.909   5.990   5.854 -1.3775  0.2899 -0.0323
  888MOL0     H17209   4.894   5.821   5.826 -0.2433 -0.3896 -0.9882
  888MOL0     H17210   4.968   6.046   5.639 -1.2021 -0.7777 -3.4411
  888MOL0     H17211   4.948   5.881   5.580  0.2980  0.9600 -0.8187
  888MOL0     H17212   5.124   5.958   5.819 -1.6060 -0.3720 -0.1065
  888MOL0     H17213   5.140   5.802   5.721  1.4448  0.4052 -1.3922
  888MOL0     H17214   5.407   6.076   5.535  0.3387 -4.0674 -3.1443
  888MOL0     H17215   4.603   6.295   5.721 -0.0483  1.3351 -1.3211
  888MOL0     H17216   4.353   6.353   5.650 -0.9369 -0.4614 -1.5171
  889MOL0     O17217   0.664   8.201   0.062 -0.1670  0.0351  0.3129
  889MOL0     C17218   0.595   8.102   0.025 -0.1087  0.2116 -0.9962
  889MOL0     O17219   0.649   7.975   0.021  0.0016 -0.4054 -0.4253
  889MOL0     C17220   0.776   7.950   0.068  0.9757  0.3195 -0.3483
  889MOL0     C17221   0.796   7.872   0.183 -0.4174  0.0176 -0.2896
  889MOL0     C17222   0.928   7.854   0.213 -0.0231  0.0666 -0.0287
  889MOL0     C17223   1.041   7.902   0.139 -1.2334 -0.2326  0.3875
  889MOL0     O17224   1.163   7.881   0.193 -0.4498 -0.4385 -0.0077
  889MOL0     C17225   1.279   7.895   0.110  0.6202  0.2764 -0.5311
  889MOL0     C17226   1.327   8.042   0.115 -0.9242  0.4125  0.0390
  889MOL0     C17227   1.455   8.062   0.025  0.1631  0.1518 -0.7281
  889MOL0     C17228   1.424   8.097  -0.125 -0.1402 -0.0435  0.3953
  889MOL0     C17229   1.547   8.104  -0.213  0.8264 -0.0807 -0.6580
  889MOL0     C17230   1.659   8.199  -0.162  0.2544  0.5892  0.9833
  889MOL0     C17231   1.763   8.216  -0.278  0.2659  0.2990 -0.5712
  889MOL0     C17232   1.863   8.321  -0.230 -0.1549 -0.1231 -0.0722
  889MOL0     N17233   1.796   8.454  -0.213  0.1343 -1.1869 -0.1301
  889MOL0     C17234   1.718   8.520  -0.296 -0.4565  0.3207  0.0119
  889MOL0     C17235   1.668   8.624  -0.233 -0.9030 -0.2314 -0.9619
  889MOL0     C17236   1.577   8.724  -0.271  0.1061 -0.7472  0.0965
  889MOL0     C17237   1.550   8.747  -0.420 -0.3522 -0.8672  1.4827
  889MOL0     C17238   1.427   8.844  -0.445 -0.5149 -0.5626 -0.1779
  889MOL0     C17239   1.406   8.893  -0.582 -0.0896  0.5898  1.0751
  889MOL0     O17240   1.360   8.778  -0.655 -0.2467 -0.3205 -0.6185
  889MOL0     C17241   1.282   8.809  -0.769  0.8069  0.3379 -0.1038
  889MOL0     C17242   1.218   8.926  -0.810  0.3436  0.3355 -0.3321
  889MOL0     C17243   1.144   8.934  -0.923  0.2895 -0.1115 -0.1794
  889MOL0     C17244   1.122   8.827  -1.012  0.2354  0.5204  0.5035
  889MOL0     C17245   1.034   8.859  -1.138 -0.0262  0.5216 -0.1814
  889MOL0     O17246   1.058   8.767  -1.241 -0.0895 -0.3592 -0.2699
  889MOL0     C17247   0.979   8.762  -1.350  0.1470 -0.0354 -0.8341
  889MOL0     C17248   0.902   8.871  -1.409 -0.1122  0.8315 -0.6001
  889MOL0     C17249   0.835   8.855  -1.529  0.2191  0.2721  0.5962
  889MOL0     C17250   0.839   8.732  -1.594  0.6524 -0.2292  0.4414
  889MOL0     O17251   0.784   8.691  -1.713 -0.5440  0.6213  0.9021
  889MOL0     C17252   0.740   8.784  -1.809  0.6447 -0.4487 -0.0271
  889MOL0     C17253   0.705   8.701  -1.939 -0.2743  0.5358 -0.0517
  889MOL0     C17254   0.614   8.776  -2.032 -0.1828 -0.6731  0.3218
  889MOL0     C17255   0.587   8.717  -2.170  0.1943  0.9196  0.3139
  889MOL0     C17256   0.524   8.822  -2.262 -0.0805  0.1542  0.1304
  889MOL0     C17257   0.486   8.757  -2.405 -0.2246 -0.8626 -0.6120
  889MOL0     C17258   0.462   8.875  -2.498  0.6604  0.2034 -0.7375
  889MOL0     C17259   0.423   8.831  -2.643  0.2808  0.0841 -0.7656
  889MOL0    Cl17260   0.555   8.734  -2.705 -0.2259 -0.3547  0.1263
  889MOL0     C17261   0.917   8.625  -1.541  0.0725  1.7426  0.5658
  889MOL0     C17262   0.983   8.640  -1.422  0.0136  0.3176 -0.2627
  889MOL0     O17263   0.947   8.943  -1.125 -0.7800 -0.4380  0.7914
  889MOL0     C17264   1.168   8.706  -0.968  1.1625 -0.0320  0.0160
  889MOL0     C17265   1.248   8.705  -0.855 -0.3293  0.7881 -0.7960
  889MOL0     N17266   1.725   8.620  -0.111 -1.0080 -1.0032  0.4245
  889MOL0     N17267   1.816   8.531  -0.101 -0.1990  0.2881  0.0998
  889MOL0     C17268   1.013   7.980   0.025  0.2953  0.6110 -0.4596
  889MOL0     C17269   0.878   8.009  -0.006 -0.6393 -1.2917 -0.5223
  889MOL0     C17270   0.455   8.107   0.005  0.6356  0.2078  0.8312
  889MOL0     C17271   0.383   7.987  -0.015 -0.0935  0.5358 -0.1446
  889MOL0     C17272   0.243   7.988  -0.036  0.1202  0.3408 -0.6185
  889MOL0     C17273   0.165   8.101  -0.029  0.0669 -0.9489 -0.6992
  889MOL0     O17274   0.033   8.087  -0.053  0.0193 -0.6492 -0.3049
  889MOL0     C17275  -0.053   8.207  -0.039  0.7775 -0.2732  0.2621
  889MOL0     C17276  -0.074   8.296  -0.164  0.2216 -0.5646  1.2846
  889MOL0     C17277  -0.177   8.421  -0.156  0.2689  0.0775  1.3776
  889MOL0     C17278  -0.237   8.466  -0.285  0.2866  0.4144  1.0473
  889MOL0     C17279  -0.351   8.558  -0.261  0.2444 -0.0442  0.0164
  889MOL0     C17280  -0.459   8.604  -0.213 -0.6676 -0.1503 -0.2919
  889MOL0     C17281   0.236   8.222  -0.004  1.3234 -0.1339  0.2309
  889MOL0     C17282   0.378   8.228   0.005 -0.2133 -0.8374 -1.5700
  889MOL0     H17283   0.715   7.848   0.251  0.4301  1.0210  1.1319
  889MOL0     H17284   0.959   7.791   0.296  1.5196  0.3871 -0.3243
  889MOL0     H17285   1.264   7.863   0.006 -1.3305 -0.4354 -0.0820
  889MOL0     H17286   1.367   7.841   0.146  1.1631  0.1792 -1.9413
  889MOL0     H17287   1.358   8.068   0.217  3.4642  1.4267 -1.3153
  889MOL0     H17288   1.244   8.103   0.078 -2.0602 -1.9828 -1.5672
  889MOL0     H17289   1.516   7.972   0.041 -0.7283 -0.8534 -2.6550
  889MOL0     H17290   1.513   8.147   0.063 -1.7476  2.7862 -3.3021
  889MOL0     H17291   1.359   8.016  -0.159 -1.8276  0.7409  1.5938
  889MOL0     H17292   1.368   8.191  -0.129  1.5945  1.1486  1.9894
  889MOL0     H17293   1.514   8.117  -0.317  0.7565 -1.4108 -0.8148
  889MOL0     H17294   1.606   8.012  -0.219  4.3499  1.8997  0.7804
  889MOL0     H17295   1.711   8.157  -0.075  0.7904 -3.0857 -0.8902
  889MOL0     H17296   1.605   8.288  -0.130 -1.0970 -0.0918  0.6688
  889MOL0     H17297   1.819   8.122  -0.283  1.9519  0.8687  3.5125
  889MOL0     H17298   1.719   8.243  -0.375  2.6188  0.8177 -1.5822
  889MOL0     H17299   1.941   8.328  -0.306 -0.3861  3.3336 -0.1289
  889MOL0     H17300   1.919   8.286  -0.142  1.9826  0.3638 -1.1593
  889MOL0     H17301   1.696   8.498  -0.400 -1.1700 -1.1936  0.4519
  889MOL0     H17302   1.613   8.818  -0.228 -2.1004  0.6459 -0.9395
  889MOL0     H17303   1.481   8.691  -0.230  1.3730  0.5819  4.7295
  889MOL0     H17304   1.528   8.650  -0.467 -0.0373 -0.0503 -0.4763
  889MOL0     H17305   1.639   8.789  -0.469 -2.2854  0.0499 -1.5132
  889MOL0     H17306   1.344   8.790  -0.398  0.2331 -0.1456  1.6943
  889MOL0     H17307   1.452   8.935  -0.391  0.7285 -0.9723 -0.0347
  889MOL0     H17308   1.492   8.943  -0.627 -0.4234 -0.9294 -1.4448
  889MOL0     H17309   1.332   8.971  -0.567 -0.6540  0.2702  0.0573
  889MOL0     H17310   1.240   9.021  -0.761  2.8900  0.0747 -0.8411
  889MOL0     H17311   1.113   9.028  -0.968  0.6062 -0.3297 -0.8729
  889MOL0     H17312   0.881   8.968  -1.365  2.2010  1.4575 -0.7533
  889MOL0     H17313   0.783   8.934  -1.581 -0.5422 -1.8665 -2.1180
  889MOL0     H17314   0.828   8.845  -1.833  1.4133 -1.2643  0.6239
  889MOL0     H17315   0.663   8.853  -1.775  3.5536  2.6575  0.8768
  889MOL0     H17316   0.666   8.603  -1.910  0.6172  0.9906  3.0580
  889MOL0     H17317   0.792   8.681  -2.002 -0.9351 -1.8159 -0.2963
  889MOL0     H17318   0.646   8.881  -2.037  2.7242 -1.4470  1.2930
  889MOL0     H17319   0.512   8.780  -1.992 -0.8435 -0.9201 -1.2547
  889MOL0     H17320   0.677   8.675  -2.216 -1.4703 -1.3849 -1.1229
  889MOL0     H17321   0.519   8.631  -2.168  0.6417  0.4719 -1.4835
  889MOL0     H17322   0.577   8.917  -2.278 -2.5380  1.9887  1.9503
  889MOL0     H17323   0.428   8.862  -2.229 -0.4057  0.9294 -1.6354
  889MOL0     H17324   0.398   8.693  -2.399 -1.1617  0.2824 -1.6173
  889MOL0     H17325   0.573   8.703  -2.444  1.0134  0.0972  0.6812
  889MOL0     H17326   0.377   8.933  -2.461  1.6431  2.8562 -2.3092
  889MOL0     H17327   0.544   8.948  -2.505  0.6101  0.3902  0.4854
  889MOL0     H17328   0.407   8.922  -2.703  0.1753  0.3903 -0.2762
  889MOL0     H17329   0.331   8.772  -2.651  0.9485 -0.8883 -1.6587
  889MOL0     H17330   0.926   8.531  -1.595 -0.3346  3.6528 -3.1265
  889MOL0     H17331   1.045   8.559  -1.385  0.4408  0.0821 -1.4381
  889MOL0     H17332   1.172   8.610  -1.019  1.1947  1.6514 -3.4767
  889MOL0     H17333   1.275   8.603  -0.827  0.2640  1.3256  0.6815
  889MOL0     H17334   1.091   8.016  -0.041  0.3853  0.5930 -0.3636
  889MOL0     H17335   0.847   8.059  -0.097  1.3137 -2.6610 -2.0337
  889MOL0     H17336   0.435   7.892  -0.022 -1.7069 -0.3498 -0.6515
  889MOL0     H17337   0.191   7.893  -0.045 -1.7148  0.9935  1.7931
  889MOL0     H17338  -0.007   8.261   0.045  1.3781 -0.5723  0.1321
  889MOL0     H17339  -0.151   8.174  -0.006  0.4508  0.5264  0.1324
  889MOL0     H17340   0.018   8.334  -0.209 -1.8156  0.4336 -2.4355
  889MOL0     H17341  -0.120   8.231  -0.239  0.8443  0.6065 -0.1630
  889MOL0     H17342  -0.132   8.505  -0.102 -1.0855 -0.0286  2.7297
  889MOL0     H17343  -0.251   8.394  -0.080  0.3546  0.2870  1.5346
  889MOL0     H17344  -0.165   8.532  -0.334 -1.5907  3.4867  2.1071
  889MOL0     H17345  -0.271   8.386  -0.351 -1.5431  2.6772 -0.9331
  889MOL0     H17346  -0.553   8.642  -0.178 -2.8750 -3.0527 -2.5085
  889MOL0     H17347   0.184   8.313   0.023 -0.0882 -1.5098  2.4181
  889MOL0     H17348   0.421   8.325   0.030 -1.1878 -0.3328 -1.7926
  890MOL0     O17349   8.351   2.506   6.616 -0.3003  0.0207  0.1374
  890MOL0     C17350   8.426   2.414   6.651  0.4600  0.2695 -0.9255
  890MOL0     O17351   8.385   2.290   6.683  0.4527 -0.6835  0.0186
  890MOL0     C17352   8.254   2.257   6.660  1.0196  0.4937  0.7481
  890MOL0     C17353   8.230   2.150   6.575  0.8665  0.7260  0.3620
  890MOL0     C17354   8.101   2.120   6.536  0.1396  0.4307 -0.0863
  890MOL0     C17355   7.995   2.196   6.589 -0.2100 -0.8642 -0.1980
  890MOL0     O17356   7.868   2.176   6.548  0.8989  0.6953  0.3278
  890MOL0     C17357   7.764   2.129   6.637  0.5224  0.3239  0.7178
  890MOL0     C17358   7.739   1.976   6.614 -0.8722 -0.5804  0.5725
  890MOL0     C17359   7.637   1.932   6.717  0.1982 -0.2977  1.2925
  890MOL0     C17360   7.591   1.791   6.680  0.1432 -0.4734  0.3794
  890MOL0     C17361   7.518   1.732   6.791 -0.1848 -0.0190 -0.2823
  890MOL0     C17362   7.445   1.607   6.735 -0.0210  0.7059 -0.3886
  890MOL0     C17363   7.360   1.539   6.842  0.3930 -0.0509  0.1527
  890MOL0     C17364   7.229   1.609   6.860 -0.5146  0.4255  0.1634
  890MOL0     N17365   7.133   1.547   6.957  0.2809 -0.5737  0.3105
  890MOL0     C17366   6.998   1.579   6.961 -0.3631 -0.6060 -0.7390
  890MOL0     C17367   6.950   1.519   7.075 -0.3408  0.2802  0.3696
  890MOL0     C17368   6.800   1.516   7.120 -0.5144 -0.7851 -0.6697
  890MOL0     C17369   6.749   1.373   7.164 -0.6549 -0.1275  0.2250
  890MOL0     C17370   6.605   1.368   7.196  0.3691 -0.4302  0.1104
  890MOL0     C17371   6.577   1.457   7.316 -0.9984  0.3544  0.0060
  890MOL0     O17372   6.446   1.423   7.358 -0.5934 -0.1501 -0.2955
  890MOL0     C17373   6.342   1.491   7.300  0.5430 -0.6095 -0.7288
  890MOL0     C17374   6.214   1.461   7.353  0.1702  0.0850  0.8176
  890MOL0     C17375   6.109   1.542   7.319  0.4639  0.7451  1.0347
  890MOL0     C17376   6.115   1.635   7.217 -0.2585  0.8837 -0.1734
  890MOL0     C17377   5.987   1.689   7.164  0.0686  1.1733 -0.3315
  890MOL0     O17378   5.877   1.606   7.184  1.4506 -0.0834  0.0564
  890MOL0     C17379   5.776   1.634   7.095  0.2481  1.2175  0.3610
  890MOL0     C17380   5.676   1.722   7.134  0.4483 -0.9695  0.5977
  890MOL0     C17381   5.558   1.743   7.063  0.1675  0.3901 -0.8022
  890MOL0     C17382   5.538   1.679   6.939  0.5198 -0.3068 -0.5261
  890MOL0     O17383   5.424   1.704   6.874  0.5404  0.0617  0.6597
  890MOL0     C17384   5.360   1.605   6.793  0.9161  0.0358 -0.4522
  890MOL0     C17385   5.211   1.637   6.780  0.2712  0.0295  0.2597
  890MOL0     C17386   5.137   1.600   6.905 -0.2730  0.4572  0.0933
  890MOL0     C17387   4.997   1.638   6.881 -0.0529  0.5030  0.2791
  890MOL0     C17388   4.913   1.597   6.993  0.7682  0.4174  0.0582
  890MOL0     C17389   4.774   1.570   6.964 -1.2672 -0.2375  1.0126
  890MOL0     C17390   4.763   1.426   6.906 -0.4059 -0.4786 -0.3858
  890MOL0     C17391   4.617   1.394   6.867  0.2416  0.4148 -0.2419
  890MOL0    Cl17392   4.549   1.496   6.726 -0.3364  0.0909 -0.0525
  890MOL0     C17393   5.634   1.589   6.893  0.2985 -0.0275 -0.3281
  890MOL0     C17394   5.743   1.564   6.973 -0.4857  0.8849 -0.4155
  890MOL0     O17395   5.985   1.792   7.097  0.1591  1.0403 -0.5625
  890MOL0     C17396   6.239   1.665   7.163  0.5266 -0.7989 -0.9683
  890MOL0     C17397   6.349   1.595   7.214  0.7913  0.8029  0.5625
  890MOL0     N17398   7.051   1.440   7.130  0.7158  0.1365  0.7899
  890MOL0     N17399   7.160   1.459   7.058  0.8322  0.3649  0.5443
  890MOL0     C17400   8.012   2.294   6.696 -0.5200  0.2069  0.1498
  890MOL0     C17401   8.154   2.320   6.730  0.7823 -0.2225  0.5054
  890MOL0     C17402   8.572   2.436   6.670 -0.1491 -0.4656 -0.1040
  890MOL0     C17403   8.651   2.334   6.720 -0.3418  0.6205 -0.0329
  890MOL0     C17404   8.793   2.357   6.732  0.0629 -0.4121  0.3621
  890MOL0     C17405   8.851   2.483   6.711 -0.0563 -0.2310  0.7243
  890MOL0     O17406   8.989   2.508   6.718  0.7699  0.6473 -0.3499
  890MOL0     C17407   9.076   2.417   6.792  0.5891  0.2636 -0.1278
  890MOL0     C17408   9.212   2.473   6.829  0.4340  0.2355  0.0259
  890MOL0     C17409   9.290   2.379   6.914 -0.4215  0.5892 -0.0141
  890MOL0     C17410   9.435   2.411   6.952  0.6485  0.0248  0.7505
  890MOL0     C17411   9.530   2.322   6.881 -0.8113  0.2290 -0.2088
  890MOL0     C17412   9.599   2.263   6.805  0.0758 -0.1275 -0.8486
  890MOL0     C17413   8.767   2.580   6.661  0.0283 -0.6591 -0.0728
  890MOL0     C17414   8.627   2.559   6.647 -0.1407 -0.9805 -0.3982
  890MOL0     H17415   8.315   2.098   6.532 -0.3766 -1.3253  0.2675
  890MOL0     H17416   8.076   2.039   6.468 -1.3857  0.9688 -0.2074
  890MOL0     H17417   7.665   2.177   6.633 -0.1977 -1.1385  0.1860
  890MOL0     H17418   7.791   2.135   6.743 -2.5089  1.6830  1.5446
  890MOL0     H17419   7.834   1.924   6.623  0.0300  0.2323 -2.8117
  890MOL0     H17420   7.705   1.965   6.511 -0.4148  0.5503  0.2843
  890MOL0     H17421   7.552   2.001   6.720  0.8442  0.4940  1.8559
  890MOL0     H17422   7.677   1.942   6.819  1.4034  4.8495  0.6375
  890MOL0     H17423   7.526   1.813   6.595 -0.4049  0.5481  1.0393
  890MOL0     H17424   7.678   1.734   6.648  0.6835  0.6358 -0.1713
  890MOL0     H17425   7.441   1.802   6.827 -3.3804 -3.0494 -0.6372
  890MOL0     H17426   7.580   1.718   6.880 -0.4753 -0.8924 -0.2049
  890MOL0     H17427   7.527   1.543   6.702 -2.2541 -1.8026 -1.5051
  890MOL0     H17428   7.390   1.622   6.641  2.7121 -3.4384 -2.9588
  890MOL0     H17429   7.356   1.431   6.821  1.9073  0.0512 -0.8270
  890MOL0     H17430   7.414   1.564   6.934  3.5559  1.4625 -1.9431
  890MOL0     H17431   7.180   1.603   6.762  1.2477 -0.6679 -0.6841
  890MOL0     H17432   7.250   1.713   6.888  3.4522 -0.0937 -0.3177
  890MOL0     H17433   6.943   1.651   6.900  3.0459  3.1546  0.1687
  890MOL0     H17434   6.736   1.567   7.047  0.0062 -1.6066 -1.7228
  890MOL0     H17435   6.804   1.575   7.212  0.1160 -0.8155 -0.6684
  890MOL0     H17436   6.815   1.335   7.242 -0.6689  0.1558  0.3746
  890MOL0     H17437   6.761   1.300   7.083 -2.3258  0.4608 -0.5982
  890MOL0     H17438   6.532   1.383   7.115 -2.2880 -5.9222  1.0075
  890MOL0     H17439   6.586   1.264   7.224  0.8920 -0.6618 -0.3873
  890MOL0     H17440   6.593   1.562   7.290  2.3029 -0.1082 -0.2281
  890MOL0     H17441   6.641   1.425   7.399 -2.0144  0.0657  0.7027
  890MOL0     H17442   6.200   1.384   7.427  1.3056 -0.8208  0.1249
  890MOL0     H17443   6.016   1.499   7.354  0.7121 -0.9379 -0.1990
  890MOL0     H17444   5.689   1.773   7.229 -2.1304  1.6376 -0.2904
  890MOL0     H17445   5.490   1.820   7.098  0.6804  1.5218 -2.1700
  890MOL0     H17446   5.360   1.505   6.837 -0.9158  1.0364  2.0294
  890MOL0     H17447   5.408   1.609   6.695  1.5397  1.7859 -0.1078
  890MOL0     H17448   5.174   1.570   6.701 -0.5719 -1.4238  1.8211
  890MOL0     H17449   5.193   1.742   6.756  1.4666 -0.0865 -1.3673
  890MOL0     H17450   5.182   1.662   6.982  1.0818  0.5505 -0.7422
  890MOL0     H17451   5.157   1.494   6.923  0.0560  0.0121 -2.4535
  890MOL0     H17452   4.990   1.747   6.877 -0.8689  0.4182 -1.5136
  890MOL0     H17453   4.960   1.594   6.788 -2.1760 -0.1728  1.3771
  890MOL0     H17454   4.916   1.676   7.069 -0.9250  1.0593 -0.4986
  890MOL0     H17455   4.968   1.522   7.051 -3.5077 -1.9152  1.5695
  890MOL0     H17456   4.743   1.636   6.882  2.0881  1.4564  0.9423
  890MOL0     H17457   4.723   1.583   7.060 -0.5485 -3.1872  1.9112
  890MOL0     H17458   4.819   1.422   6.812  2.1847  0.9243  0.9818
  890MOL0     H17459   4.809   1.352   6.973  0.8538 -1.8755 -2.6879
  890MOL0     H17460   4.558   1.401   6.959  2.0723  0.1623  1.0006
  890MOL0     H17461   4.605   1.291   6.833  2.0349  0.0482  0.1735
  890MOL0     H17462   5.615   1.522   6.810  1.1048  0.2796 -0.7757
  890MOL0     H17463   5.804   1.474   6.967 -1.8738 -0.2335  1.2420
  890MOL0     H17464   6.247   1.730   7.076  1.2391 -1.5092 -1.4524
  890MOL0     H17465   6.444   1.628   7.173  1.5352  3.2727  3.8656
  890MOL0     H17466   7.925   2.350   6.729 -1.3040 -0.4689 -0.7013
  890MOL0     H17467   8.178   2.401   6.797  0.0015  1.5399 -1.2328
  890MOL0     H17468   8.614   2.235   6.741  2.7532 -1.0294 -1.7093
  890MOL0     H17469   8.853   2.276   6.774 -0.5262 -1.2958 -0.4685
  890MOL0     H17470   9.079   2.322   6.737  0.0302 -0.9473  1.8128
  890MOL0     H17471   9.026   2.393   6.887  5.0776 -0.5947  2.2930
  890MOL0     H17472   9.270   2.485   6.737  0.5585  0.4564  0.1328
  890MOL0     H17473   9.199   2.572   6.874  1.1719  0.9197 -1.2047
  890MOL0     H17474   9.283   2.275   6.882 -4.8950  0.7889 -0.3090
  890MOL0     H17475   9.242   2.382   7.012  0.1192  0.3669  0.2571
  890MOL0     H17476   9.454   2.515   6.928  4.4335 -0.3521  1.5499
  890MOL0     H17477   9.445   2.400   7.061 -0.2873 -0.9323  0.7568
  890MOL0     H17478   9.663   2.218   6.733 -2.9390 -3.6078 -1.6958
  890MOL0     H17479   8.804   2.678   6.635 -0.7019 -0.3381  0.0805
  890MOL0     H17480   8.572   2.644   6.607  3.5938 -0.1622 -4.5356
  891MOL0     O17481   5.260   7.129  10.313 -0.0911  0.3885 -0.0326
  891MOL0     C17482   5.307   7.074  10.414  0.6768 -1.1356 -0.4008
  891MOL0     O17483   5.248   7.073  10.533 -0.2705  0.1809 -0.0545
  891MOL0     C17484   5.141   7.157  10.567  0.5762 -0.0139  0.0016
  891MOL0     C17485   5.105   7.286  10.511  1.2030  0.6564 -0.5402
  891MOL0     C17486   4.987   7.348  10.547 -0.1440  0.4411 -0.1511
  891MOL0     C17487   4.901   7.286  10.641  0.1339 -1.0974 -0.2025
  891MOL0     O17488   4.775   7.350  10.668 -0.0528  0.4482  0.0209
  891MOL0     C17489   4.707   7.318  10.786  0.0311 -0.4914 -0.0888
  891MOL0     C17490   4.579   7.414  10.796 -0.6866  0.4048  0.2407
  891MOL0     C17491   4.618   7.558  10.838  0.5802  0.3646  0.0891
  891MOL0     C17492   4.496   7.651  10.843  0.4078 -0.1780  0.5314
  891MOL0     C17493   4.511   7.780  10.923 -0.4554 -0.0859  0.0783
  891MOL0     C17494   4.631   7.871  10.873 -0.0422 -1.1428  0.2308
  891MOL0     C17495   4.633   8.007  10.943 -0.5567 -1.1561  1.2743
  891MOL0     C17496   4.746   8.102  10.880 -0.6255  0.1816  0.1158
  891MOL0     N17497   4.701   8.237  10.914 -0.0265  0.6459  0.6005
  891MOL0     C17498   4.621   8.294  10.816  0.4474 -0.4916  0.1318
  891MOL0     C17499   4.657   8.426  10.821  0.5097 -0.5389  0.3917
  891MOL0     C17500   4.614   8.526  10.722 -0.5270 -0.3360  0.1685
  891MOL0     C17501   4.592   8.666  10.784  0.1121 -0.1175 -0.6982
  891MOL0     C17502   4.586   8.785  10.674  0.2346  0.0251 -0.3701
  891MOL0     C17503   4.590   8.931  10.721  0.3382 -0.3161 -0.4990
  891MOL0     O17504   4.502   9.017  10.644 -0.3614 -0.6637  1.2150
  891MOL0     C17505   4.363   9.001  10.638 -0.2847  0.7864 -0.1257
  891MOL0     C17506   4.306   8.909  10.726  0.4026 -0.3505 -0.4636
  891MOL0     C17507   4.172   8.870  10.716 -0.8124 -0.1492 -0.1352
  891MOL0     C17508   4.092   8.917  10.609 -0.9648  0.2090 -0.7789
  891MOL0     C17509   3.953   8.872  10.603  0.1870  0.5383 -0.5472
  891MOL0     O17510   3.905   8.776  10.697  0.7079 -0.2029 -0.2813
  891MOL0     C17511   3.776   8.723  10.682  0.8507  0.7000 -0.2884
  891MOL0     C17512   3.711   8.688  10.803 -0.1403 -0.4322  0.8735
  891MOL0     C17513   3.594   8.616  10.807  0.2614  0.0409 -0.3361
  891MOL0     C17514   3.534   8.567  10.686 -0.1803  1.2893  0.3421
  891MOL0     O17515   3.427   8.488  10.702  0.2668  0.5023  0.0613
  891MOL0     C17516   3.328   8.466  10.601  1.7489 -0.4168 -1.2470
  891MOL0     C17517   3.224   8.372  10.667  0.2408 -0.9349  0.8883
  891MOL0     C17518   3.106   8.348  10.564  0.3275  0.3240 -0.0112
  891MOL0     C17519   3.023   8.468  10.535  0.0090 -0.4388 -0.1407
  891MOL0     C17520   2.884   8.430  10.468 -0.3117  0.0098  0.3894
  891MOL0     C17521   2.771   8.535  10.461  0.5494 -0.0708 -0.6943
  891MOL0     C17522   2.648   8.500  10.381  0.3900  1.0744  0.3899
  891MOL0     C17523   2.550   8.609  10.388  0.8677  0.0873 -0.0268
  891MOL0    Cl17524   2.393   8.529  10.384 -0.2930  0.2447 -0.0000
  891MOL0     C17525   3.601   8.608  10.565  0.0556  0.5702 -1.4437
  891MOL0     C17526   3.721   8.676  10.562 -0.3507  0.0103  0.1764
  891MOL0     O17527   3.885   8.928  10.519  0.0121 -0.2458  0.2515
  891MOL0     C17528   4.145   9.017  10.525  0.3093 -0.1054  0.0285
  891MOL0     C17529   4.281   9.057  10.539  0.5248  0.3977 -0.7378
  891MOL0     N17530   4.751   8.448  10.927 -0.8180 -0.2985  0.2234
  891MOL0     N17531   4.772   8.328  10.985 -0.0459 -0.6495 -0.1903
  891MOL0     C17532   4.930   7.161  10.694 -0.7445 -0.0959 -0.3751
  891MOL0     C17533   5.054   7.098  10.661  0.3838  0.2880  0.3608
  891MOL0     C17534   5.418   6.975  10.408 -0.6959 -0.3168  0.1546
  891MOL0     C17535   5.469   6.915  10.524 -0.1316 -0.0507 -0.4127
  891MOL0     C17536   5.574   6.820  10.512 -1.4077  0.5444  0.2919
  891MOL0     C17537   5.625   6.777  10.389  0.2818  0.2280 -0.1357
  891MOL0     O17538   5.712   6.662  10.379  0.1801  0.4490 -0.2292
  891MOL0     C17539   5.808   6.669  10.277 -0.1147 -0.0277 -0.5576
  891MOL0     C17540   5.948   6.665  10.344 -0.0262  0.7364  0.1922
  891MOL0     C17541   6.061   6.664  10.238  0.0204 -0.0281 -0.0979
  891MOL0     C17542   6.201   6.660  10.310  0.0752  0.8337 -0.0169
  891MOL0     C17543   6.211   6.533  10.376  0.9069 -0.1475 -0.9285
  891MOL0     C17544   6.230   6.427  10.438 -0.3473  0.0307  0.7707
  891MOL0     C17545   5.569   6.841  10.274 -0.0927 -0.1105 -0.0997
  891MOL0     C17546   5.473   6.937  10.284  0.4229 -1.1896  0.3113
  891MOL0     H17547   5.149   7.312  10.416 -1.7064  1.6971 -1.7203
  891MOL0     H17548   4.957   7.435  10.489  2.4449  1.4868 -0.0571
  891MOL0     H17549   4.769   7.326  10.875 -0.6846  4.5469  0.2803
  891MOL0     H17550   4.660   7.220  10.784 -1.7488  0.3211 -0.4195
  891MOL0     H17551   4.498   7.379  10.860  0.3947 -1.2339  0.7876
  891MOL0     H17552   4.544   7.420  10.692 -0.3349  0.3572  0.1152
  891MOL0     H17553   4.691   7.602  10.770 -0.8936 -0.7374 -2.3409
  891MOL0     H17554   4.664   7.552  10.937 -1.3581 -0.6891  0.9788
  891MOL0     H17555   4.476   7.691  10.743  0.2449  1.2790  1.1346
  891MOL0     H17556   4.402   7.600  10.869 -0.1889 -0.6175 -2.1322
  891MOL0     H17557   4.535   7.758  11.027 -0.5405 -2.4232 -0.3373
  891MOL0     H17558   4.414   7.831  10.928  0.5331  1.9535 -0.8055
  891MOL0     H17559   4.615   7.887  10.766  0.5484 -0.4614  0.2346
  891MOL0     H17560   4.731   7.830  10.890  0.0864 -0.0743  2.3452
  891MOL0     H17561   4.532   8.047  10.926 -0.5422 -1.8641 -0.7815
  891MOL0     H17562   4.647   7.993  11.050 -1.8192 -2.8973  1.2586
  891MOL0     H17563   4.747   8.078  10.773 -0.1978 -2.5034  0.6459
  891MOL0     H17564   4.843   8.079  10.925  0.1108 -0.2045 -1.6015
  891MOL0     H17565   4.563   8.248  10.736  0.1862  0.4535 -0.2318
  891MOL0     H17566   4.519   8.501  10.675 -1.8922  0.0317  2.5919
  891MOL0     H17567   4.682   8.528  10.636 -0.9126  2.9549 -0.2055
  891MOL0     H17568   4.666   8.684  10.862  0.8145 -3.1103 -0.5642
  891MOL0     H17569   4.495   8.650  10.833 -0.1435  1.2512 -0.7107
  891MOL0     H17570   4.667   8.781  10.601 -0.0999  0.1241 -0.7491
  891MOL0     H17571   4.495   8.758  10.620 -0.8383 -0.6992  1.6843
  891MOL0     H17572   4.694   8.960  10.704  0.6538 -1.1615 -0.0878
  891MOL0     H17573   4.579   8.945  10.829 -1.5102  1.1072 -0.8290
  891MOL0     H17574   4.370   8.877  10.807  2.9688 -0.6509 -2.4724
  891MOL0     H17575   4.129   8.808  10.793 -1.1252  0.6764  0.3695
  891MOL0     H17576   3.749   8.726  10.898 -3.0003  1.1840  1.4941
  891MOL0     H17577   3.552   8.610  10.906 -0.1485  1.4151 -0.3979
  891MOL0     H17578   3.377   8.414  10.519  4.8291  1.1997 -0.6304
  891MOL0     H17579   3.296   8.568  10.576  0.3856 -0.6220 -0.4411
  891MOL0     H17580   3.172   8.410  10.756 -1.7576 -0.5367 -0.3899
  891MOL0     H17581   3.268   8.274  10.688  1.4691 -0.8988 -1.2809
  891MOL0     H17582   3.049   8.266  10.609  3.0892 -2.9153 -1.8600
  891MOL0     H17583   3.140   8.291  10.477 -1.1600 -5.2089  2.5693
  891MOL0     H17584   2.998   8.512  10.631 -2.7439 -1.3752 -0.3239
  891MOL0     H17585   3.071   8.547  10.476 -0.9594  0.7152  0.5742
  891MOL0     H17586   2.837   8.343  10.515 -0.0754 -0.8913 -0.9736
  891MOL0     H17587   2.906   8.398  10.366  0.0230  1.0966  0.1181
  891MOL0     H17588   2.815   8.631  10.431 -0.6162  0.6956 -0.0545
  891MOL0     H17589   2.746   8.544  10.567 -0.2117 -1.4027 -0.7344
  891MOL0     H17590   2.675   8.484  10.276  0.4624  3.4238 -0.0117
  891MOL0     H17591   2.605   8.402  10.402 -1.4894  1.7446 -0.0671
  891MOL0     H17592   2.561   8.683  10.307  0.5322 -0.9938 -1.0910
  891MOL0     H17593   2.556   8.659  10.485 -0.0663  2.9576 -1.3165
  891MOL0     H17594   3.567   8.566  10.470 -0.8214 -4.4048  0.6990
  891MOL0     H17595   3.776   8.688  10.469  0.4481  0.9871  0.7451
  891MOL0     H17596   4.089   9.070  10.449 -1.6079 -0.9967  0.7503
  891MOL0     H17597   4.324   9.130  10.471  0.4869  0.8447 -0.2925
  891MOL0     H17598   4.867   7.111  10.767  1.4956 -0.9011  1.0816
  891MOL0     H17599   5.069   6.995  10.691 -1.3249  0.3332  1.5013
  891MOL0     H17600   5.440   6.940  10.625  3.1183  2.0017  0.1839
  891MOL0     H17601   5.619   6.771  10.598 -2.6055 -3.7653 -1.2594
  891MOL0     H17602   5.796   6.754  10.209 -0.7515  0.3146 -0.0337
  891MOL0     H17603   5.806   6.573  10.223  0.9697 -1.0352  1.1244
  891MOL0     H17604   5.964   6.752  10.409 -0.3911  1.0457 -0.1266
  891MOL0     H17605   5.950   6.570  10.397  2.0769 -1.0382 -2.7842
  891MOL0     H17606   6.054   6.753  10.176  0.3024 -0.6463 -1.0451
  891MOL0     H17607   6.045   6.572  10.181 -0.1829  0.4125 -0.7499
  891MOL0     H17608   6.281   6.669  10.237  0.9895  2.3522  1.0968
  891MOL0     H17609   6.215   6.740  10.385 -3.8584  0.8083  0.9782
  891MOL0     H17610   6.256   6.339  10.493  1.1115  0.7063  1.2250
  891MOL0     H17611   5.591   6.802  10.175  0.0549 -2.1554  0.6917
  891MOL0     H17612   5.430   6.983  10.196 -2.1542  2.4227  3.1134
  892MOL0     O17613   1.445   8.535   2.456 -0.2527  0.3735  0.0833
  892MOL0     C17614   1.457   8.498   2.337 -0.1234 -0.5823  0.0413
  892MOL0     O17615   1.378   8.413   2.265  0.5702  0.4893  0.1252
  892MOL0     C17616   1.280   8.327   2.321  0.0163 -0.0533 -0.3462
  892MOL0     C17617   1.299   8.258   2.439  0.8001 -0.0025  0.1773
  892MOL0     C17618   1.208   8.166   2.484 -0.2767  0.1768  0.4818
  892MOL0     C17619   1.096   8.133   2.398  0.4300  0.7353  0.5125
  892MOL0     O17620   0.997   8.035   2.419 -0.0979 -0.0899  0.3692
  892MOL0     C17621   0.996   7.996   2.557  0.1382  0.5782  0.8001
  892MOL0     C17622   0.872   7.896   2.562 -0.1231 -0.3147 -0.8983
  892MOL0     C17623   0.853   7.862   2.710  0.2652  0.2312  0.9411
  892MOL0     C17624   0.949   7.760   2.777 -0.1857 -0.5138 -0.3688
  892MOL0     C17625   0.891   7.719   2.915  0.3213 -0.0894 -0.2627
  892MOL0     C17626   0.869   7.831   3.012 -0.1115  0.4062 -1.5465
  892MOL0     C17627   0.993   7.916   3.049  0.8384  0.1397  0.0920
  892MOL0     C17628   0.972   8.007   3.171 -0.4039  0.8617 -0.0181
  892MOL0     N17629   1.046   8.133   3.145  0.4116 -0.0514  0.3698
  892MOL0     C17630   1.000   8.231   3.062  0.4658  0.2917 -0.8820
  892MOL0     C17631   1.112   8.313   3.050  0.9942 -1.2284 -1.0411
  892MOL0     C17632   1.128   8.440   2.980 -0.0141 -0.1135  0.6664
  892MOL0     C17633   1.272   8.447   2.917  0.8459 -0.0531  0.4068
  892MOL0     C17634   1.268   8.559   2.814 -0.4837 -0.4761  0.0701
  892MOL0     C17635   1.410   8.592   2.763  0.4140 -0.1450 -0.0798
  892MOL0     O17636   1.501   8.658   2.859 -0.5985  0.3728 -0.6781
  892MOL0     C17637   1.634   8.648   2.814 -0.1159 -0.8047 -0.0478
  892MOL0     C17638   1.728   8.585   2.897 -0.8617  0.8556 -0.5265
  892MOL0     C17639   1.861   8.562   2.857 -0.3653 -0.7604  0.1121
  892MOL0     C17640   1.904   8.610   2.731 -0.3824  0.3291  0.5943
  892MOL0     C17641   2.032   8.571   2.649  0.5255  0.4420 -0.2842
  892MOL0     O17642   2.044   8.609   2.522  0.0429 -0.0393 -0.2644
  892MOL0     C17643   2.170   8.594   2.460  0.1155  1.2641  0.8779
  892MOL0     C17644   2.291   8.619   2.525 -0.7762  0.2099  0.1527
  892MOL0     C17645   2.409   8.624   2.445  0.5142  0.4668  0.2777
  892MOL0     C17646   2.411   8.608   2.302  0.1982  0.2552 -0.6045
  892MOL0     O17647   2.532   8.607   2.235  0.4310 -0.6679  0.3086
  892MOL0     C17648   2.662   8.638   2.290  0.5064 -0.5046 -0.9089
  892MOL0     C17649   2.771   8.612   2.190  0.3107 -1.1152 -0.4273
  892MOL0     C17650   2.914   8.630   2.236  0.5886 -1.0053  0.1859
  892MOL0     C17651   3.027   8.627   2.132 -0.9873  0.2600 -0.8096
  892MOL0     C17652   3.153   8.648   2.214 -0.2056 -0.6465  1.0671
  892MOL0     C17653   3.282   8.606   2.140 -1.0554 -0.5063 -0.4103
  892MOL0     C17654   3.402   8.630   2.232  0.2179 -0.0128 -0.2173
  892MOL0     C17655   3.545   8.601   2.174 -0.2099 -0.3077 -0.3101
  892MOL0    Cl17656   3.652   8.527   2.303  0.3572 -0.0468 -0.3021
  892MOL0     C17657   2.287   8.595   2.240 -0.1058  0.4841  0.2400
  892MOL0     C17658   2.167   8.593   2.323  0.5058  0.6164  0.4307
  892MOL0     O17659   2.107   8.490   2.704 -1.4896 -0.0514 -0.1507
  892MOL0     C17660   1.813   8.676   2.649 -0.5286 -0.4517  0.0730
  892MOL0     C17661   1.683   8.699   2.690 -0.1452 -0.2865 -0.1813
  892MOL0     N17662   1.213   8.263   3.126  0.8149  0.4810  0.1194
  892MOL0     N17663   1.177   8.152   3.176 -0.1813  0.1723  0.0190
  892MOL0     C17664   1.086   8.191   2.271 -1.0815 -0.1562 -0.8575
  892MOL0     C17665   1.172   8.297   2.239 -0.0028  0.2522 -0.1442
  892MOL0     C17666   1.566   8.560   2.260  0.5498 -0.6440  0.5882
  892MOL0     C17667   1.676   8.618   2.318 -0.0520 -0.1204 -0.1806
  892MOL0     C17668   1.772   8.696   2.251 -0.0961  0.6718 -0.0550
  892MOL0     C17669   1.750   8.729   2.118 -0.6528  0.0595  0.2011
  892MOL0     O17670   1.830   8.802   2.039 -0.9669 -0.3525 -0.3375
  892MOL0     C17671   1.926   8.890   2.091  0.0136  0.4315  0.1080
  892MOL0     C17672   1.972   8.995   1.986  0.1511 -0.8087 -0.8690
  892MOL0     C17673   2.042   8.934   1.867  0.7511 -0.0896  0.0626
  892MOL0     C17674   2.156   9.022   1.817  0.7090 -0.2201 -0.0615
  892MOL0     C17675   2.109   9.150   1.769 -0.1440 -0.2663 -0.8125
  892MOL0     C17676   2.050   9.258   1.754  0.0591  0.5286  0.0776
  892MOL0     C17677   1.642   8.659   2.046 -0.2325  1.0285 -0.1847
  892MOL0     C17678   1.558   8.568   2.113  0.2784 -0.1094  0.4904
  892MOL0     H17679   1.389   8.281   2.495  0.4517  0.8442  0.4131
  892MOL0     H17680   1.229   8.134   2.586 -0.0978 -0.6807  0.1896
  892MOL0     H17681   1.001   8.084   2.622 -1.8951  2.5826 -1.5823
  892MOL0     H17682   1.094   7.956   2.583 -0.7916 -1.6255  1.2137
  892MOL0     H17683   0.894   7.807   2.503  2.4829 -0.2851 -0.0985
  892MOL0     H17684   0.780   7.946   2.531 -0.0708 -0.0585 -0.6498
  892MOL0     H17685   0.754   7.815   2.711 -0.0529  0.7793 -0.9472
  892MOL0     H17686   0.847   7.957   2.763  0.1504  0.9869 -0.3800
  892MOL0     H17687   0.951   7.678   2.705  1.6512  0.8526 -1.9841
  892MOL0     H17688   1.048   7.807   2.783  1.2449 -3.3817  0.5123
  892MOL0     H17689   0.948   7.645   2.971 -1.7061 -0.7711  1.0351
  892MOL0     H17690   0.794   7.676   2.888  0.5617  0.7849 -2.8322
  892MOL0     H17691   0.836   7.789   3.108  1.7995  1.4937 -0.3263
  892MOL0     H17692   0.784   7.894   2.986 -1.3471  0.4197  1.9513
  892MOL0     H17693   1.084   7.858   3.069  1.8677  1.4564 -0.5649
  892MOL0     H17694   1.022   7.980   2.965  0.3174 -0.8670 -0.8815
  892MOL0     H17695   1.004   7.961   3.265 -2.6202 -2.3169 -0.6534
  892MOL0     H17696   0.865   8.031   3.169 -0.2026  1.9378 -2.8882
  892MOL0     H17697   0.903   8.252   3.017  0.4250  2.1548 -0.0371
  892MOL0     H17698   1.123   8.527   3.046  3.5267 -1.1995  2.6180
  892MOL0     H17699   1.057   8.435   2.896  1.4288  1.0752 -0.6837
  892MOL0     H17700   1.309   8.356   2.867  0.4459  0.3767 -0.6989
  892MOL0     H17701   1.339   8.483   2.996  1.3438  2.0284 -0.8836
  892MOL0     H17702   1.195   8.546   2.734 -2.4525  0.0536  1.6932
  892MOL0     H17703   1.233   8.645   2.873 -3.8927 -2.0736  0.6421
  892MOL0     H17704   1.393   8.651   2.672 -2.3237 -0.7391 -0.0448
  892MOL0     H17705   1.446   8.491   2.744 -0.8845 -0.3751 -1.5893
  892MOL0     H17706   1.689   8.549   2.991 -0.3138 -0.2786 -0.7270
  892MOL0     H17707   1.930   8.509   2.922  0.3851  0.7854  0.6413
  892MOL0     H17708   2.292   8.633   2.633 -1.0279 -2.5077  0.5816
  892MOL0     H17709   2.502   8.645   2.498  1.3368 -0.5684 -0.7216
  892MOL0     H17710   2.677   8.586   2.385  0.7069  1.7922  0.4159
  892MOL0     H17711   2.674   8.744   2.317  0.5475 -0.4317 -1.2101
  892MOL0     H17712   2.741   8.677   2.107 -1.2823 -0.1333  0.8622
  892MOL0     H17713   2.761   8.511   2.148  1.2402 -0.2526 -2.9166
  892MOL0     H17714   2.936   8.559   2.317  0.1240 -2.5765 -1.0186
  892MOL0     H17715   2.921   8.731   2.279 -0.7206 -1.4517  1.5234
  892MOL0     H17716   3.018   8.526   2.091  1.1203  1.3311 -4.3633
  892MOL0     H17717   2.999   8.702   2.057  0.5940  0.1307 -1.5780
  892MOL0     H17718   3.161   8.575   2.295  0.6828 -0.3218  1.2782
  892MOL0     H17719   3.155   8.752   2.246  0.4912 -0.2146 -0.3090
  892MOL0     H17720   3.300   8.666   2.050  2.3221  0.5439  0.8214
  892MOL0     H17721   3.272   8.500   2.114 -2.8194  0.2366 -3.2592
  892MOL0     H17722   3.399   8.733   2.266  1.3605  0.7918 -2.3287
  892MOL0     H17723   3.397   8.558   2.315 -0.9074 -0.7447 -0.8974
  892MOL0     H17724   3.577   8.693   2.125 -1.9592  0.7408  0.4298
  892MOL0     H17725   3.531   8.524   2.097 -2.6515 -0.4634  0.2111
  892MOL0     H17726   2.286   8.585   2.132 -1.2881  0.3328  0.2539
  892MOL0     H17727   2.071   8.589   2.273  0.3050 -0.6073  0.8688
  892MOL0     H17728   1.834   8.719   2.552 -0.6222  0.9647  0.6482
  892MOL0     H17729   1.623   8.762   2.624  0.8229  2.3764  1.3283
  892MOL0     H17730   1.009   8.151   2.206 -2.9508  2.0674 -0.1776
  892MOL0     H17731   1.168   8.338   2.138 -1.6706  0.8293  0.1346
  892MOL0     H17732   1.685   8.610   2.426 -0.6287 -1.6839 -0.2268
  892MOL0     H17733   1.851   8.743   2.308 -2.6141  1.1640  3.3709
  892MOL0     H17734   2.012   8.833   2.128  0.0173 -0.8477 -1.7105
  892MOL0     H17735   1.884   8.952   2.170  1.2936  1.1976  0.2156
  892MOL0     H17736   1.892   9.057   1.943  0.2401  0.7991  1.1318
  892MOL0     H17737   2.038   9.057   2.047 -0.7234 -1.6069  0.9894
  892MOL0     H17738   1.957   8.921   1.798 -0.6583  1.0690  1.4821
  892MOL0     H17739   2.078   8.835   1.894  0.1825 -0.4397 -0.4174
  892MOL0     H17740   2.228   9.033   1.898 -0.1567 -0.1209  0.7033
  892MOL0     H17741   2.209   8.964   1.740  1.0434  0.7821 -0.6038
  892MOL0     H17742   2.006   9.355   1.740 -1.1977  0.1281  1.0171
  892MOL0     H17743   1.630   8.675   1.939  2.8930  1.2821 -0.6169
  892MOL0     H17744   1.483   8.512   2.058  2.9223 -1.8397 -1.6047
  893MOL0     O17745   7.171   6.555   9.655  0.1455  0.0381  0.2281
  893MOL0     C17746   7.222   6.651   9.593 -0.2098  0.0782 -0.7482
  893MOL0     O17747   7.152   6.735   9.508  0.7007 -0.1338  0.5562
  893MOL0     C17748   7.019   6.739   9.522 -0.4453  0.2989 -0.7718
  893MOL0     C17749   6.940   6.627   9.496  0.4463  0.4398 -0.4110
  893MOL0     C17750   6.802   6.635   9.531 -0.3510  0.6761  0.4561
  893MOL0     C17751   6.752   6.751   9.588  0.1912  0.2137 -0.6108
  893MOL0     O17752   6.617   6.777   9.622  0.2805 -0.0467 -0.2642
  893MOL0     C17753   6.529   6.725   9.524 -0.0981  0.3599 -0.6517
  893MOL0     C17754   6.392   6.792   9.524  0.0559  0.1201 -0.1471
  893MOL0     C17755   6.289   6.721   9.428 -0.5458 -0.1388 -0.7415
  893MOL0     C17756   6.154   6.789   9.439 -0.3558  0.9204  0.6764
  893MOL0     C17757   6.037   6.702   9.388 -0.5057 -0.0573 -0.2622
  893MOL0     C17758   5.894   6.769   9.402 -0.3059 -0.4606  0.0773
  893MOL0     C17759   5.794   6.685   9.339 -0.0149  0.3372  0.0518
  893MOL0     C17760   5.653   6.735   9.369 -0.7029  0.0830 -0.1410
  893MOL0     N17761   5.552   6.681   9.280  0.0954 -0.0713  0.4677
  893MOL0     C17762   5.489   6.560   9.285  0.4952  0.1318  0.0262
  893MOL0     C17763   5.420   6.552   9.173  0.7728  0.5701  0.1154
  893MOL0     C17764   5.334   6.436   9.146  1.6014  0.2097  0.3797
  893MOL0     C17765   5.230   6.473   9.033  0.2134  0.2024 -0.3320
  893MOL0     C17766   5.116   6.542   9.102 -0.8130  0.5481 -0.0178
  893MOL0     C17767   5.012   6.566   8.996  0.2113  0.4895  0.4321
  893MOL0     O17768   4.912   6.659   9.053 -0.2104  0.2742  0.6325
  893MOL0     C17769   4.814   6.617   9.131 -0.1146 -0.3594 -0.3469
  893MOL0     C17770   4.772   6.479   9.141 -0.0868 -0.1505 -0.0369
  893MOL0     C17771   4.650   6.443   9.181 -0.1633 -0.1427 -0.3244
  893MOL0     C17772   4.567   6.539   9.250  0.7466  1.2886  0.4871
  893MOL0     C17773   4.431   6.497   9.302 -0.6169 -0.2632 -1.3988
  893MOL0     O17774   4.339   6.593   9.326 -0.0666 -0.0779 -1.0461
  893MOL0     C17775   4.211   6.566   9.368  0.4788 -0.1401 -0.4881
  893MOL0     C17776   4.108   6.638   9.316 -0.2542 -0.4093  0.4526
  893MOL0     C17777   3.982   6.643   9.357  0.4899  0.3588 -0.1029
  893MOL0     C17778   3.936   6.554   9.457  1.0752  0.0623 -0.0963
  893MOL0     O17779   3.803   6.555   9.486  0.3423  0.2528 -0.6798
  893MOL0     C17780   3.753   6.472   9.591 -0.7869  0.1077  0.1485
  893MOL0     C17781   3.603   6.524   9.609 -0.0057 -0.4125 -0.5895
  893MOL0     C17782   3.525   6.470   9.726 -0.5252  0.1559  0.0746
  893MOL0     C17783   3.413   6.575   9.753 -0.1382 -0.2059 -0.7462
  893MOL0     C17784   3.308   6.511   9.854 -0.2487 -1.2744  0.8246
  893MOL0     C17785   3.234   6.626   9.921  0.4514 -0.3926  0.7647
  893MOL0     C17786   3.102   6.561   9.984 -0.4622 -0.6220  0.4404
  893MOL0     C17787   3.011   6.489   9.886 -0.3115  0.2822  0.2953
  893MOL0    Cl17788   2.835   6.494   9.962 -0.3451  0.2926 -0.2376
  893MOL0     C17789   4.039   6.462   9.515  0.0339 -0.2767 -0.2312
  893MOL0     C17790   4.174   6.478   9.476  0.0539 -0.5260 -0.6445
  893MOL0     O17791   4.411   6.375   9.311  0.3068 -0.6991  0.8830
  893MOL0     C17792   4.614   6.668   9.262 -0.3974 -0.3058  0.2839
  893MOL0     C17793   4.729   6.709   9.196 -0.0920 -0.6235  1.4427
  893MOL0     N17794   5.444   6.662   9.096  0.6371 -0.4371 -0.6600
  893MOL0     N17795   5.518   6.743   9.168  0.8168 -0.2435 -0.3797
  893MOL0     C17796   6.837   6.858   9.614  0.4921 -0.4350 -0.7056
  893MOL0     C17797   6.970   6.857   9.576 -0.2190  0.6099 -0.3528
  893MOL0     C17798   7.366   6.662   9.600  0.0529  0.1923 -1.0969
  893MOL0     C17799   7.445   6.759   9.533 -0.0664 -0.0458 -1.1551
  893MOL0     C17800   7.588   6.749   9.538 -0.2400 -0.2328  0.5953
  893MOL0     C17801   7.659   6.651   9.599  0.1672  0.3086  0.4007
  893MOL0     O17802   7.795   6.646   9.588 -0.9224  0.0473  0.2012
  893MOL0     C17803   7.880   6.555   9.655 -0.2190  0.7415 -0.1498
  893MOL0     C17804   7.962   6.464   9.562  0.6204 -1.0868  0.7418
  893MOL0     C17805   7.874   6.389   9.466 -0.1595 -0.2821  0.3820
  893MOL0     C17806   7.846   6.458   9.330 -0.2455  0.4608  0.0524
  893MOL0     C17807   7.969   6.493   9.260  0.6840 -0.1051  1.0350
  893MOL0     C17808   8.053   6.536   9.189 -0.1226 -0.3636  0.8135
  893MOL0     C17809   7.585   6.555   9.674  0.4878 -0.7229  0.0419
  893MOL0     C17810   7.447   6.560   9.666 -0.8261 -0.3585  0.8084
  893MOL0     H17811   6.982   6.535   9.457  0.4953 -0.4086  1.5035
  893MOL0     H17812   6.742   6.546   9.511  0.6976 -0.1435  0.8495
  893MOL0     H17813   6.521   6.620   9.552 -1.9431  0.5869 -0.1980
  893MOL0     H17814   6.564   6.729   9.420 -0.5108  0.0708 -0.8083
  893MOL0     H17815   6.396   6.894   9.486 -1.2643 -0.4036 -1.8173
  893MOL0     H17816   6.354   6.777   9.625 -1.9449  2.3271 -0.4968
  893MOL0     H17817   6.291   6.614   9.452  1.4449  0.3082  1.4429
  893MOL0     H17818   6.325   6.723   9.325  0.7966  1.4158 -0.2827
  893MOL0     H17819   6.145   6.820   9.544  0.2861 -1.6285  1.5390
  893MOL0     H17820   6.167   6.878   9.376  3.7158 -0.7711 -1.2187
  893MOL0     H17821   6.026   6.619   9.459  1.0135  0.5474  0.7258
  893MOL0     H17822   6.046   6.679   9.282  0.0973  0.6294 -0.3672
  893MOL0     H17823   5.898   6.871   9.362 -0.6739 -0.0242  1.1141
  893MOL0     H17824   5.860   6.766   9.506  0.2029 -2.7440  0.2248
  893MOL0     H17825   5.807   6.683   9.231 -1.6020 -3.2794 -0.2144
  893MOL0     H17826   5.806   6.582   9.373  3.0149 -0.2109 -2.2649
  893MOL0     H17827   5.668   6.842   9.351  1.5903 -0.3248 -1.0612
  893MOL0     H17828   5.625   6.733   9.474 -2.0312 -2.3929 -0.4529
  893MOL0     H17829   5.488   6.483   9.362 -0.9468  0.8529  0.7812
  893MOL0     H17830   5.281   6.409   9.238  1.0015 -2.0232 -0.5558
  893MOL0     H17831   5.395   6.351   9.113 -1.0063 -0.8785 -2.0225
  893MOL0     H17832   5.195   6.382   8.982  0.4796 -0.2199  0.2237
  893MOL0     H17833   5.279   6.539   8.961 -1.6003  0.2951 -1.5572
  893MOL0     H17834   5.062   6.467   9.161 -1.4571 -1.4395 -2.9121
  893MOL0     H17835   5.148   6.627   9.163  0.4210 -0.8677  1.4300
  893MOL0     H17836   4.964   6.471   8.970  1.5388 -0.8341  2.4921
  893MOL0     H17837   5.046   6.593   8.895  1.1264 -1.7139  0.0996
  893MOL0     H17838   4.828   6.400   9.093 -1.1131 -1.5754  1.0125
  893MOL0     H17839   4.619   6.339   9.180  2.2669 -0.9271 -1.4078
  893MOL0     H17840   4.125   6.699   9.228 -3.1595  1.0811  0.8005
  893MOL0     H17841   3.911   6.691   9.290  0.2845 -2.4058 -2.0318
  893MOL0     H17842   3.809   6.489   9.683  4.5108  1.9336 -2.9334
  893MOL0     H17843   3.754   6.366   9.566  4.0493 -0.5391  2.0721
  893MOL0     H17844   3.549   6.498   9.517  0.8322 -1.3763 -0.8205
  893MOL0     H17845   3.612   6.632   9.626 -0.4175 -0.8346  3.0134
  893MOL0     H17846   3.595   6.447   9.807 -2.3715 -1.7296  1.2557
  893MOL0     H17847   3.489   6.371   9.697  0.0059  1.1965 -5.1090
  893MOL0     H17848   3.459   6.665   9.794  1.0697 -0.8766 -0.5903
  893MOL0     H17849   3.371   6.595   9.654 -0.4110 -2.5050 -1.1575
  893MOL0     H17850   3.360   6.456   9.933  1.5407 -0.5062  0.2222
  893MOL0     H17851   3.236   6.449   9.800 -2.1937  0.3820  1.3993
  893MOL0     H17852   3.210   6.707   9.851 -0.4039 -0.9007  0.4517
  893MOL0     H17853   3.293   6.668  10.003  0.1050  1.2598  0.2048
  893MOL0     H17854   3.141   6.485  10.053 -1.0560 -3.6569 -2.3175
  893MOL0     H17855   3.051   6.644  10.034  2.6100  0.9685  1.1512
  893MOL0     H17856   3.052   6.390   9.868 -1.5836  0.2933 -3.6408
  893MOL0     H17857   3.013   6.551   9.796  2.1303 -0.0172  0.0879
  893MOL0     H17858   4.013   6.384   9.585 -0.4090 -2.2544 -2.4623
  893MOL0     H17859   4.248   6.413   9.522  1.0221 -1.0926 -2.8734
  893MOL0     H17860   4.554   6.736   9.321  2.0505  0.5039  1.9987
  893MOL0     H17861   4.769   6.809   9.190  0.8438 -1.0727 -2.4490
  893MOL0     H17862   6.798   6.950   9.654 -0.6749 -0.7648 -1.0541
  893MOL0     H17863   7.035   6.943   9.589 -2.5506  2.4652 -0.3380
  893MOL0     H17864   7.399   6.844   9.482  3.4779  0.2317 -4.3112
  893MOL0     H17865   7.651   6.809   9.473 -0.7736 -0.0245  0.2692
  893MOL0     H17866   7.822   6.489   9.721 -1.3933 -0.9123 -2.7001
  893MOL0     H17867   7.950   6.609   9.719  2.3919 -1.5421 -0.8758
  893MOL0     H17868   8.022   6.534   9.505 -1.5602  0.5025  0.2818
  893MOL0     H17869   8.024   6.394   9.619  0.3751 -2.1302 -0.2364
  893MOL0     H17870   7.778   6.380   9.517 -0.7929  1.4105 -0.4412
  893MOL0     H17871   7.912   6.288   9.449  0.2461  0.1599 -1.6044
  893MOL0     H17872   7.779   6.394   9.273  1.5840  1.4420 -3.5108
  893MOL0     H17873   7.797   6.552   9.355 -1.1109  0.2070 -0.6238
  893MOL0     H17874   8.113   6.592   9.121 -1.9348  1.7195  0.7744
  893MOL0     H17875   7.626   6.473   9.732 -1.6600 -2.5185 -0.8355
  893MOL0     H17876   7.398   6.488   9.730 -2.1594 -0.0025  0.2179
  894MOL0     O17877   3.471   7.353   2.709  0.5370  0.1257 -0.1670
  894MOL0     C17878   3.494   7.471   2.689 -0.0225  0.7176  0.0089
  894MOL0     O17879   3.423   7.573   2.747 -0.4052  0.1297 -0.8293
  894MOL0     C17880   3.295   7.566   2.795 -0.3293  0.2972  0.6081
  894MOL0     C17881   3.237   7.679   2.844 -0.4849 -0.0684 -0.1067
  894MOL0     C17882   3.115   7.684   2.894  0.1526 -0.6855 -0.8750
  894MOL0     C17883   3.035   7.576   2.905 -0.5961  0.2713 -0.4668
  894MOL0     O17884   2.914   7.596   2.961 -0.1370  0.3421  0.6969
  894MOL0     C17885   2.819   7.487   2.958  0.3982  0.2776 -0.1370
  894MOL0     C17886   2.690   7.532   3.033  0.4534 -0.4405 -0.2816
  894MOL0     C17887   2.604   7.637   2.984 -0.4722 -0.2209  0.6489
  894MOL0     C17888   2.498   7.671   3.081  0.4054 -0.2017 -0.7131
  894MOL0     C17889   2.358   7.702   3.019  0.1339 -0.3789  0.0006
  894MOL0     C17890   2.239   7.718   3.109  0.1752  0.1247 -0.2008
  894MOL0     C17891   2.110   7.777   3.037  0.4058  0.4157  0.2467
  894MOL0     C17892   2.070   7.903   3.105 -0.1018  0.2678 -0.3281
  894MOL0     N17893   2.160   8.017   3.085 -0.3912  0.0605  0.3239
  894MOL0     C17894   2.163   8.103   2.968  0.0047  1.0855 -0.3572
  894MOL0     C17895   2.248   8.198   3.005  0.2013 -1.1733  0.3768
  894MOL0     C17896   2.275   8.326   2.929 -0.3414  0.1633  0.1429
  894MOL0     C17897   2.429   8.365   2.913 -0.1945 -0.3899  0.1806
  894MOL0     C17898   2.458   8.505   2.843 -0.0670  0.0395 -0.6532
  894MOL0     C17899   2.619   8.521   2.826  0.6988 -0.2841  0.9101
  894MOL0     O17900   2.652   8.451   2.702  0.1691 -0.0422 -0.1174
  894MOL0     C17901   2.789   8.440   2.673  0.2709 -0.0410 -0.7768
  894MOL0     C17902   2.830   8.365   2.565 -0.7896  0.2148 -0.1268
  894MOL0     C17903   2.958   8.357   2.520 -0.2892 -0.1391  0.1391
  894MOL0     C17904   3.059   8.422   2.601  0.5678 -0.4653  0.4146
  894MOL0     C17905   3.198   8.413   2.577  0.1249  0.4496 -0.2287
  894MOL0     O17906   3.287   8.486   2.655  0.5663 -0.0270 -0.1331
  894MOL0     C17907   3.423   8.479   2.653 -0.3491  1.1587  0.2377
  894MOL0     C17908   3.508   8.379   2.597  0.9557  0.1433 -0.4059
  894MOL0     C17909   3.650   8.381   2.616 -0.3611  0.3705  0.2991
  894MOL0     C17910   3.710   8.490   2.678  0.5412 -0.3228  0.1894
  894MOL0     O17911   3.845   8.508   2.689  0.2373  0.5698 -0.1817
  894MOL0     C17912   3.943   8.406   2.647 -0.2494  0.3962  0.6669
  894MOL0     C17913   3.973   8.415   2.492 -0.4492  0.1286 -0.4619
  894MOL0     C17914   4.073   8.526   2.447  0.9418 -0.4768  0.0096
  894MOL0     C17915   4.101   8.512   2.303  0.1533 -0.5982  0.7009
  894MOL0     C17916   4.179   8.639   2.253 -0.0965  0.3854 -0.6445
  894MOL0     C17917   4.220   8.616   2.109  0.2368 -0.1376 -0.0045
  894MOL0     C17918   4.330   8.716   2.067  0.3885  0.5093 -0.3226
  894MOL0     C17919   4.470   8.670   2.094 -0.0757  0.4323  0.2006
  894MOL0    Cl17920   4.494   8.520   1.993  0.1847  0.1415  0.1980
  894MOL0     C17921   3.625   8.587   2.729  0.4407 -0.5033 -0.0354
  894MOL0     C17922   3.489   8.574   2.720 -0.9384 -0.0900 -0.1447
  894MOL0     O17923   3.226   8.336   2.487 -0.0878 -0.1217  0.4155
  894MOL0     C17924   3.022   8.505   2.711 -1.0685  0.9905  0.5043
  894MOL0     C17925   2.884   8.524   2.738 -0.7102 -0.3582  0.5868
  894MOL0     N17926   2.300   8.173   3.126 -0.6244  0.4480  0.0866
  894MOL0     N17927   2.246   8.070   3.180  0.1631 -0.0588 -0.2701
  894MOL0     C17928   3.082   7.454   2.863  0.1193  0.0593  0.3386
  894MOL0     C17929   3.208   7.448   2.794  0.5696 -0.0875 -0.2350
  894MOL0     C17930   3.609   7.501   2.609  0.1092  0.4713  0.0907
  894MOL0     C17931   3.720   7.421   2.586 -0.3603  0.7574 -0.6610
  894MOL0     C17932   3.825   7.460   2.509  0.4760  0.0221 -0.4703
  894MOL0     C17933   3.822   7.575   2.435 -0.6943 -0.0524  0.2626
  894MOL0     O17934   3.925   7.599   2.354 -0.6574  0.4829 -0.4656
  894MOL0     C17935   3.978   7.732   2.381  0.0669 -0.3528 -0.1896
  894MOL0     C17936   4.114   7.725   2.299  0.1813 -0.3043  0.1234
  894MOL0     C17937   4.235   7.692   2.386 -0.1932  0.3192 -1.2750
  894MOL0     C17938   4.352   7.662   2.301  0.3126 -0.3716 -0.2352
  894MOL0     C17939   4.480   7.707   2.363 -0.2659  0.6022 -0.2795
  894MOL0     C17940   4.587   7.747   2.404  0.0094 -0.0310  0.1686
  894MOL0     C17941   3.714   7.662   2.450  0.2957  0.7277  0.3419
  894MOL0     C17942   3.618   7.626   2.542 -0.8385 -0.2493 -0.6693
  894MOL0     H17943   3.289   7.774   2.843 -1.0323  0.3144  1.8329
  894MOL0     H17944   3.089   7.780   2.939  3.5627 -0.0194 -0.0582
  894MOL0     H17945   2.854   7.409   3.026  0.0414  0.2179 -0.0197
  894MOL0     H17946   2.808   7.457   2.853 -1.2109  1.7635 -0.4458
  894MOL0     H17947   2.715   7.560   3.136 -2.7066  2.9581 -0.1828
  894MOL0     H17948   2.619   7.449   3.032 -1.5233  1.1085 -2.5383
  894MOL0     H17949   2.566   7.601   2.888  2.1850 -3.8567  0.7492
  894MOL0     H17950   2.664   7.728   2.971 -1.2457  0.1644 -0.4114
  894MOL0     H17951   2.472   7.585   3.144 -1.4995  0.4543 -0.5440
  894MOL0     H17952   2.533   7.755   3.141 -2.8816  0.0811  1.0306
  894MOL0     H17953   2.330   7.617   2.954 -1.7830 -0.1784  0.4912
  894MOL0     H17954   2.365   7.794   2.960 -1.2676  0.2839  0.8087
  894MOL0     H17955   2.267   7.783   3.192  1.2443 -1.0146  0.3678
  894MOL0     H17956   2.213   7.618   3.145 -2.9117  0.3607 -1.4674
  894MOL0     H17957   2.125   7.786   2.929  2.8509 -0.3810  0.4629
  894MOL0     H17958   2.028   7.710   3.066 -0.5533  2.2065  1.8931
  894MOL0     H17959   2.057   7.874   3.210  0.5486 -0.6083 -0.4704
  894MOL0     H17960   1.975   7.933   3.060  0.1340  1.7796  0.1413
  894MOL0     H17961   2.097   8.097   2.881 -0.5396  0.4471  0.0865
  894MOL0     H17962   2.216   8.402   2.983  2.0489  1.6344  0.8374
  894MOL0     H17963   2.237   8.311   2.827 -5.4100 -3.5343  2.1389
  894MOL0     H17964   2.482   8.288   2.855  1.3146 -0.2670  1.3401
  894MOL0     H17965   2.467   8.371   3.015 -0.6648 -0.0981  0.3373
  894MOL0     H17966   2.418   8.495   2.742  1.7230 -0.9461 -1.3285
  894MOL0     H17967   2.408   8.581   2.903  0.6979 -0.5642  0.8103
  894MOL0     H17968   2.658   8.490   2.923  0.4272 -0.5276  0.9400
  894MOL0     H17969   2.638   8.628   2.813  2.4861 -0.7288 -0.6749
  894MOL0     H17970   2.748   8.306   2.525 -1.0810 -0.9384  1.9899
  894MOL0     H17971   2.976   8.275   2.451 -1.7029 -1.8774  1.7235
  894MOL0     H17972   3.455   8.298   2.547 -0.1017  1.1451 -0.9599
  894MOL0     H17973   3.715   8.303   2.579  0.0618  0.6300  0.4832
  894MOL0     H17974   3.909   8.308   2.681  0.5884 -0.7373 -1.5532
  894MOL0     H17975   4.033   8.433   2.703  3.0806  0.2107 -4.0357
  894MOL0     H17976   3.878   8.430   2.440 -0.1613  0.2173 -0.9677
  894MOL0     H17977   4.007   8.314   2.468 -0.5553 -0.1847  0.6379
  894MOL0     H17978   4.165   8.528   2.506  0.6517 -2.2604  0.5639
  894MOL0     H17979   4.020   8.621   2.463 -0.5906 -1.2778 -0.1697
  894MOL0     H17980   4.168   8.426   2.300  1.7478  0.4006  3.5754
  894MOL0     H17981   4.003   8.500   2.257 -2.8031  0.6487  5.8137
  894MOL0     H17982   4.269   8.661   2.312  0.0382 -1.0988 -0.2450
  894MOL0     H17983   4.113   8.725   2.266 -1.7041 -0.9011  0.0683
  894MOL0     H17984   4.134   8.625   2.041 -1.5064 -2.1492  1.7718
  894MOL0     H17985   4.251   8.512   2.096 -1.5964 -0.4138 -3.5715
  894MOL0     H17986   4.322   8.746   1.962  0.0912  2.1473  0.1328
  894MOL0     H17987   4.311   8.805   2.129 -1.5854 -0.2641  0.2831
  894MOL0     H17988   4.476   8.655   2.203 -0.7470  0.9122  0.3138
  894MOL0     H17989   4.551   8.741   2.079 -1.6660  2.5652  1.2292
  894MOL0     H17990   3.670   8.665   2.790  0.7355 -3.2056  3.4994
  894MOL0     H17991   3.437   8.652   2.775  1.3098 -0.1925  2.3401
  894MOL0     H17992   3.096   8.557   2.771 -1.5817  1.0537  1.0970
  894MOL0     H17993   2.862   8.607   2.803  5.3351  2.1118  0.0625
  894MOL0     H17994   3.019   7.366   2.876 -1.9670  1.2293 -1.2396
  894MOL0     H17995   3.232   7.353   2.746 -2.1921  0.3815 -2.9159
  894MOL0     H17996   3.726   7.325   2.637 -0.3779  0.1108 -1.8395
  894MOL0     H17997   3.916   7.402   2.499  1.6208  1.5318  0.8222
  894MOL0     H17998   3.980   7.768   2.484 -0.3622  2.1983 -1.0033
  894MOL0     H17999   3.918   7.806   2.326 -0.3263 -0.8555 -0.4501
  894MOL0     H18000   4.104   7.649   2.221  0.4248 -1.2557  1.0026
  894MOL0     H18001   4.137   7.819   2.249 -1.0219  1.7412  3.1084
  894MOL0     H18002   4.227   7.613   2.461  2.7093  0.7391 -0.3677
  894MOL0     H18003   4.256   7.785   2.440 -1.9843 -0.2757  0.5676
  894MOL0     H18004   4.363   7.555   2.278  1.1082 -0.6645  1.3536
  894MOL0     H18005   4.353   7.715   2.205  2.5283 -1.1329 -0.6972
  894MOL0     H18006   4.686   7.775   2.431 -1.2443  1.8881  3.3143
  894MOL0     H18007   3.705   7.763   2.411  1.6904  0.4901 -0.7125
  894MOL0     H18008   3.553   7.706   2.576 -0.1264  0.4209 -0.8596
  895MOL0     O18009   0.349  10.068   0.994 -0.5257  0.2247  0.4517
  895MOL0     C18010   0.318   9.950   0.993  1.3266  0.2877  0.2104
  895MOL0     O18011   0.401   9.839   0.963 -0.6035 -0.3391  0.2992
  895MOL0     C18012   0.531   9.860   0.924  0.1593 -0.3137 -0.7266
  895MOL0     C18013   0.621   9.751   0.954  0.8697  0.4893 -0.7071
  895MOL0     C18014   0.754   9.751   0.920  0.8140 -0.6215  0.4847
  895MOL0     C18015   0.807   9.867   0.863 -0.7360  0.5068 -1.0705
  895MOL0     O18016   0.944   9.862   0.839  0.3064 -0.3879  0.6064
  895MOL0     C18017   1.016   9.982   0.825  0.1627 -1.0793 -0.2695
  895MOL0     C18018   1.166   9.968   0.856 -0.3133  0.0517  0.0846
  895MOL0     C18019   1.208   9.945   1.006  0.2501  0.1517  0.9684
  895MOL0     C18020   1.156   9.816   1.069 -0.6173 -0.2491 -0.3321
  895MOL0     C18021   1.122   9.835   1.216  0.3347  0.2159  0.1483
  895MOL0     C18022   1.011   9.748   1.254  0.4427 -0.9074 -0.0594
  895MOL0     C18023   0.995   9.713   1.401  0.2090  0.4599 -0.0803
  895MOL0     C18024   0.909   9.596   1.420  0.4553 -0.1901 -0.6017
  895MOL0     N18025   0.774   9.622   1.361 -1.3056 -0.1099 -0.0784
  895MOL0     C18026   0.691   9.728   1.388  1.1666  0.6991 -0.5313
  895MOL0     C18027   0.581   9.694   1.312  1.1758 -0.4966  0.2024
  895MOL0     C18028   0.452   9.777   1.308 -1.1879  0.6832 -0.1033
  895MOL0     C18029   0.438   9.884   1.410 -0.5005  0.4860  0.0267
  895MOL0     C18030   0.339   9.995   1.364 -0.3846 -0.4625 -0.1051
  895MOL0     C18031   0.192   9.956   1.377  0.5155  0.0940  0.4971
  895MOL0     O18032   0.175   9.893   1.501  1.0303  0.7813 -0.8578
  895MOL0     C18033   0.069   9.931   1.577  0.3798 -0.1393  0.3911
  895MOL0     C18034   0.081  10.012   1.697 -0.0096  0.4677 -0.4041
  895MOL0     C18035  -0.029  10.061   1.762 -0.0210 -0.1306 -0.4078
  895MOL0     C18036  -0.164  10.015   1.721 -0.4096 -1.1320 -0.4124
  895MOL0     C18037  -0.283  10.069   1.788  0.6700  0.3577 -0.2334
  895MOL0     O18038  -0.270  10.155   1.901 -0.1939 -0.2045  0.2629
  895MOL0     C18039  -0.377  10.215   1.948 -0.7914 -0.5334  1.0090
  895MOL0     C18040  -0.409  10.218   2.078  0.4657 -0.3194 -0.2053
  895MOL0     C18041  -0.518  10.271   2.145  0.5667 -0.5659 -0.0475
  895MOL0     C18042  -0.615  10.335   2.057  0.0693 -0.6144  0.0695
  895MOL0     O18043  -0.744  10.379   2.094 -0.5693  0.1013  0.4007
  895MOL0     C18044  -0.762  10.382   2.239 -0.9931  0.5448  0.5884
  895MOL0     C18045  -0.888  10.455   2.278 -0.1782 -0.9091  0.2513
  895MOL0     C18046  -1.011  10.379   2.238 -0.7349  0.1878  0.0311
  895MOL0     C18047  -1.144  10.435   2.280 -0.3159  0.6173 -0.0839
  895MOL0     C18048  -1.252  10.344   2.233  0.0642  0.4022  0.1504
  895MOL0     C18049  -1.384  10.389   2.308 -0.2327  0.6681  0.4707
  895MOL0     C18050  -1.417  10.536   2.283  0.7084 -0.2311  0.1454
  895MOL0     C18051  -1.563  10.559   2.333 -0.5466 -0.1328 -0.1159
  895MOL0    Cl18052  -1.552  10.553   2.513  0.1310 -0.2190  0.0189
  895MOL0     C18053  -0.584  10.353   1.925 -0.2366  0.0288  0.0412
  895MOL0     C18054  -0.466  10.296   1.871  0.2408  0.9586  0.0235
  895MOL0     O18055  -0.391  10.035   1.736  0.9094  0.3998  0.0234
  895MOL0     C18056  -0.173   9.930   1.609  0.0004 -0.0730  0.2947
  895MOL0     C18057  -0.063   9.886   1.545 -0.4561  0.4120  0.1937
  895MOL0     N18058   0.598   9.569   1.256  0.1075 -0.9650 -0.2607
  895MOL0     N18059   0.717   9.533   1.279 -0.4271  0.1085  0.4788
  895MOL0     C18060   0.727   9.980   0.848  0.8577  0.3648  0.4613
  895MOL0     C18061   0.596   9.976   0.872 -0.5425  0.7499  1.4976
  895MOL0     C18062   0.172   9.922   1.015  0.1419  0.4929  0.1330
  895MOL0     C18063   0.088  10.023   1.047 -0.0897  0.3736 -0.2062
  895MOL0     C18064  -0.046   9.998   1.065 -0.3497  0.2603 -0.2873
  895MOL0     C18065  -0.103   9.872   1.065  0.3770  0.3461  0.3522
  895MOL0     O18066  -0.236   9.843   1.084 -0.4092 -0.4863 -0.4098
  895MOL0     C18067  -0.289   9.887   1.206 -0.3837  0.1270 -0.1395
  895MOL0     C18068  -0.422   9.815   1.227 -0.0605  0.4321  0.1255
  895MOL0     C18069  -0.482   9.843   1.366  1.1127  0.4217  0.7570
  895MOL0     C18070  -0.609   9.759   1.381  0.5529 -0.6892 -0.3486
  895MOL0     C18071  -0.722   9.811   1.299 -0.6187 -0.3200  0.6768
  895MOL0     C18072  -0.801   9.858   1.213 -0.8264 -0.1631 -0.0437
  895MOL0     C18073  -0.016   9.767   1.027  0.1557  0.4661 -0.2898
  895MOL0     C18074   0.120   9.797   1.006  0.6168 -0.0918 -0.0527
  895MOL0     H18075   0.582   9.676   1.022 -1.7765  2.1830 -0.1957
  895MOL0     H18076   0.815   9.666   0.946  1.0132 -0.0843  1.8182
  895MOL0     H18077   0.990  10.055   0.902  1.4625  1.7382 -2.3480
  895MOL0     H18078   1.001  10.023   0.725  0.9460 -2.0511 -0.8078
  895MOL0     H18079   1.197  10.066   0.816 -3.5528  0.0827 -2.8938
  895MOL0     H18080   1.222   9.891   0.803 -3.6158 -2.4563 -0.0222
  895MOL0     H18081   1.167  10.028   1.064 -1.5834 -0.6577  0.8781
  895MOL0     H18082   1.317   9.961   1.010  0.2006  0.9745 -0.3884
  895MOL0     H18083   1.069   9.791   1.008 -3.2031  2.3672  1.9553
  895MOL0     H18084   1.237   9.742   1.061 -0.6296 -0.4782  1.3373
  895MOL0     H18085   1.089   9.938   1.228 -0.0626 -0.1307  2.2538
  895MOL0     H18086   1.209   9.806   1.276  0.6917 -1.9665 -1.3164
  895MOL0     H18087   1.018   9.656   1.195  1.8658 -0.7626 -0.1483
  895MOL0     H18088   0.920   9.792   1.212  1.6382  2.0229  0.1836
  895MOL0     H18089   1.097   9.685   1.429 -0.2769 -3.4184 -1.4995
  895MOL0     H18090   0.951   9.791   1.463 -2.0659 -0.9473  0.2120
  895MOL0     H18091   0.903   9.578   1.528  1.3550  1.4221 -0.2442
  895MOL0     H18092   0.960   9.508   1.378  1.0247 -1.7452  2.9705
  895MOL0     H18093   0.712   9.822   1.438  0.5973 -0.1141  1.3167
  895MOL0     H18094   0.366   9.708   1.308 -1.3344  0.8294 -1.9673
  895MOL0     H18095   0.451   9.831   1.213  1.9301  0.1300 -0.5313
  895MOL0     H18096   0.530   9.943   1.416 -0.5190  0.5563 -0.3669
  895MOL0     H18097   0.430   9.839   1.510  0.1752  1.6746  0.6378
  895MOL0     H18098   0.356  10.085   1.426 -1.5915 -0.2131 -0.1171
  895MOL0     H18099   0.363  10.028   1.263  0.5945 -0.4508  0.1244
  895MOL0     H18100   0.162   9.882   1.302 -0.6738  0.2911  0.7661
  895MOL0     H18101   0.131  10.042   1.350  0.4468 -0.6870 -2.1185
  895MOL0     H18102   0.182  10.040   1.725 -0.0835  1.6984 -1.2877
  895MOL0     H18103  -0.015  10.126   1.847  2.3998 -2.2922  1.0012
  895MOL0     H18104  -0.348  10.146   2.133  0.6179  0.5097  0.7344
  895MOL0     H18105  -0.537  10.247   2.249 -0.0999  0.5304  0.1000
  895MOL0     H18106  -0.677  10.432   2.288  1.2743 -1.5573 -0.9140
  895MOL0     H18107  -0.766  10.278   2.274  0.3646  0.6151  1.0393
  895MOL0     H18108  -0.890  10.555   2.234 -2.6609 -1.2638 -0.6180
  895MOL0     H18109  -0.887  10.482   2.384 -2.5762 -0.4156  0.1993
  895MOL0     H18110  -0.999  10.280   2.283  1.5278  0.6470  0.5710
  895MOL0     H18111  -1.005  10.351   2.133  0.9886  0.2561  0.0892
  895MOL0     H18112  -1.143  10.443   2.389 -0.6029 -0.2236 -0.0094
  895MOL0     H18113  -1.147  10.533   2.232  0.7120  0.7874  0.1838
  895MOL0     H18114  -1.233  10.240   2.264 -0.6977  0.3888  0.6296
  895MOL0     H18115  -1.249  10.351   2.124  3.0088  0.4581  0.1636
  895MOL0     H18116  -1.374  10.363   2.414  1.7313 -0.9303 -0.0400
  895MOL0     H18117  -1.460  10.331   2.255  0.9870  0.4387 -1.0993
  895MOL0     H18118  -1.354  10.600   2.347 -0.6655 -0.1642  1.4963
  895MOL0     H18119  -1.407  10.561   2.177 -2.5862  2.3795  0.2754
  895MOL0     H18120  -1.630  10.482   2.293  0.9640 -2.4795  1.5993
  895MOL0     H18121  -1.593  10.658   2.300 -1.8801 -0.1580  0.9479
  895MOL0     H18122  -0.648  10.409   1.858  0.2358  0.2209 -0.2578
  895MOL0     H18123  -0.448  10.297   1.764 -0.3694 -0.4381 -0.1044
  895MOL0     H18124  -0.270   9.892   1.578 -0.8442  1.2715  1.1871
  895MOL0     H18125  -0.071   9.812   1.466  0.7290 -0.7050  1.0526
  895MOL0     H18126   0.781  10.068   0.814  1.1207 -0.4399 -1.3065
  895MOL0     H18127   0.539  10.067   0.859  1.0367  1.5822  0.0542
  895MOL0     H18128   0.116  10.127   1.051  2.6052  0.0159 -4.2530
  895MOL0     H18129  -0.116  10.079   1.082 -1.0499  0.8450 -4.6400
  895MOL0     H18130  -0.296   9.995   1.216 -0.0505  0.1222  0.1909
  895MOL0     H18131  -0.224   9.857   1.290 -0.8588 -2.7103 -0.6699
  895MOL0     H18132  -0.484   9.855   1.147  0.2373  0.0069 -0.3234
  895MOL0     H18133  -0.396   9.709   1.223  0.6138  0.5906  0.0478
  895MOL0     H18134  -0.508   9.948   1.381 -1.1394 -0.2969  2.4713
  895MOL0     H18135  -0.414   9.810   1.445  1.0284  1.1973  1.1696
  895MOL0     H18136  -0.595   9.655   1.350  1.1210 -0.1812 -1.8773
  895MOL0     H18137  -0.647   9.745   1.483  0.3988  0.1089 -0.2855
  895MOL0     H18138  -0.861   9.917   1.147  1.0295  1.7680 -0.1309
  895MOL0     H18139  -0.051   9.669   0.996  2.3789 -0.2154 -0.7821
  895MOL0     H18140   0.181   9.712   0.975 -0.0090 -0.1701 -1.1539
  896MOL0     O18141   6.757   2.826   1.111  0.5051 -0.1830 -0.0152
  896MOL0     C18142   6.823   2.863   1.206 -0.5276  0.3022 -0.7130
  896MOL0     O18143   6.793   2.967   1.289  0.1113 -0.5098  0.0299
  896MOL0     C18144   6.703   3.059   1.257 -0.6557 -0.3059 -0.3487
  896MOL0     C18145   6.659   3.144   1.365 -0.4137  0.4937 -0.2082
  896MOL0     C18146   6.561   3.241   1.341  0.0008  0.9840 -0.0305
  896MOL0     C18147   6.509   3.267   1.214 -0.2591  0.1871 -0.5421
  896MOL0     O18148   6.412   3.365   1.194 -0.1586 -0.3331  0.4135
  896MOL0     C18149   6.337   3.367   1.073  0.2536  0.5889  0.4210
  896MOL0     C18150   6.206   3.453   1.085  0.1657  1.2013  0.0843
  896MOL0     C18151   6.244   3.596   1.129  0.8993 -0.3863 -0.1268
  896MOL0     C18152   6.113   3.675   1.138 -0.3126  0.9508  0.2632
  896MOL0     C18153   6.125   3.824   1.143 -0.4885 -0.0062  0.5594
  896MOL0     C18154   6.064   3.887   1.013  0.3124 -0.4901  0.2861
  896MOL0     C18155   6.127   4.032   0.980 -0.5446 -0.3419  0.0432
  896MOL0     C18156   6.053   4.147   1.051  0.5761  0.4578  0.5871
  896MOL0     N18157   6.037   4.248   0.953  0.7652 -0.3155 -0.2408
  896MOL0     C18158   5.930   4.241   0.867 -0.6952  0.1088  0.4482
  896MOL0     C18159   5.919   4.368   0.813 -0.7276 -0.1364  0.4397
  896MOL0     C18160   5.805   4.411   0.722 -0.5659 -0.1814 -0.4215
  896MOL0     C18161   5.676   4.435   0.796  0.5997  0.4127  0.0160
  896MOL0     C18162   5.673   4.576   0.850 -0.4667  0.6095  0.0651
  896MOL0     C18163   5.540   4.598   0.925 -0.2358 -0.2096  0.6374
  896MOL0     O18164   5.429   4.586   0.830 -0.7610 -0.8393  0.2581
  896MOL0     C18165   5.317   4.658   0.850 -0.1465  0.1739 -0.4016
  896MOL0     C18166   5.230   4.661   0.740  0.2697 -0.1064 -0.9461
  896MOL0     C18167   5.120   4.746   0.745 -0.0842 -0.4488 -0.2812
  896MOL0     C18168   5.087   4.834   0.852  0.1943 -0.3675 -0.3423
  896MOL0     C18169   4.958   4.919   0.854 -0.2170 -0.1062 -0.2532
  896MOL0     O18170   4.936   5.000   0.966 -0.1380  0.1412 -0.2631
  896MOL0     C18171   4.841   5.097   0.950  0.0630  0.1663 -0.4699
  896MOL0     C18172   4.869   5.208   0.877 -0.2438  0.2280 -0.3919
  896MOL0     C18173   4.774   5.307   0.858  0.3056  0.4264 -0.1145
  896MOL0     C18174   4.645   5.304   0.925 -0.6103 -0.1524  0.1812
  896MOL0     O18175   4.556   5.413   0.901 -0.6148 -0.0195  0.1030
  896MOL0     C18176   4.453   5.438   0.989  0.3910 -0.2440 -0.6092
  896MOL0     C18177   4.328   5.383   0.933 -0.6059 -0.4890  0.0491
  896MOL0     C18178   4.192   5.459   0.957 -0.8223  0.3672  0.2597
  896MOL0     C18179   4.113   5.394   1.078  0.5767  0.4657  0.1204
  896MOL0     C18180   4.022   5.502   1.139  0.5802  0.3036 -0.4762
  896MOL0     C18181   3.912   5.444   1.229  0.4847  0.0603 -0.2270
  896MOL0     C18182   3.844   5.549   1.317 -1.1806  0.5790  0.1949
  896MOL0     C18183   3.930   5.595   1.426  0.0077 -0.7576  0.1693
  896MOL0    Cl18184   3.833   5.696   1.529 -0.2025 -0.4501  0.1150
  896MOL0     C18185   4.615   5.187   0.992  0.2933 -0.2399  0.2758
  896MOL0     C18186   4.710   5.084   1.001  0.1571 -0.8360 -0.1875
  896MOL0     O18187   4.879   4.907   0.762 -0.5688 -0.0050 -0.3818
  896MOL0     C18188   5.181   4.828   0.958  0.5689  0.6269 -1.6495
  896MOL0     C18189   5.291   4.743   0.965  0.0716 -0.1629  0.4718
  896MOL0     N18190   6.015   4.456   0.870  0.0936  0.2225 -0.4806
  896MOL0     N18191   6.095   4.373   0.949  0.2347  0.0158 -0.2440
  896MOL0     C18192   6.553   3.186   1.109 -0.1456  0.0510  0.8578
  896MOL0     C18193   6.652   3.086   1.127 -0.7153 -0.3918  0.9655
  896MOL0     C18194   6.941   2.791   1.246  0.1778 -0.0812 -0.0762
  896MOL0     C18195   7.018   2.852   1.346 -1.3960  0.2557  0.5220
  896MOL0     C18196   7.146   2.790   1.387 -0.3029 -0.6601  0.5160
  896MOL0     C18197   7.184   2.666   1.328 -1.1615 -0.7947  0.3350
  896MOL0     O18198   7.303   2.604   1.384 -0.7218  0.1562 -0.8676
  896MOL0     C18199   7.300   2.462   1.392  0.0495  0.2142 -1.2450
  896MOL0     C18200   7.428   2.392   1.450  0.4650  1.0193 -0.4892
  896MOL0     C18201   7.549   2.380   1.357  0.6108 -0.6979  0.7365
  896MOL0     C18202   7.570   2.499   1.261 -0.5871 -0.4067  0.2555
  896MOL0     C18203   7.708   2.512   1.210 -0.0178  0.6923 -0.2393
  896MOL0     C18204   7.825   2.531   1.210  0.3748  0.0901 -0.4542
  896MOL0     C18205   7.094   2.606   1.240 -0.4225 -1.0312  0.8025
  896MOL0     C18206   6.977   2.664   1.200 -0.1051 -0.3526  0.3594
  896MOL0     H18207   6.704   3.136   1.463 -0.9883 -2.7733 -0.1186
  896MOL0     H18208   6.516   3.296   1.423 -0.1850 -2.2997  2.2381
  896MOL0     H18209   6.299   3.267   1.053 -1.3381  0.9900  1.3436
  896MOL0     H18210   6.399   3.394   0.986 -2.1484  1.2473 -1.1825
  896MOL0     H18211   6.139   3.413   1.162  0.6895 -1.2492 -0.6462
  896MOL0     H18212   6.166   3.441   0.984  2.2822 -3.2067 -0.4912
  896MOL0     H18213   6.302   3.640   1.047  0.6899  1.0314  0.4567
  896MOL0     H18214   6.298   3.606   1.223  1.7381 -1.6276 -0.4530
  896MOL0     H18215   6.048   3.638   1.058  1.1642 -0.3184 -0.3811
  896MOL0     H18216   6.072   3.637   1.232  3.4794 -1.2979  1.2269
  896MOL0     H18217   6.231   3.853   1.150 -0.3421 -0.2026 -0.6151
  896MOL0     H18218   6.078   3.865   1.233 -1.3542  0.8471 -0.2644
  896MOL0     H18219   5.957   3.901   1.028  0.7238  1.4793  1.9051
  896MOL0     H18220   6.087   3.823   0.928 -0.9959  0.6312 -0.9582
  896MOL0     H18221   6.233   4.028   1.005 -0.6732  1.6944  1.1153
  896MOL0     H18222   6.122   4.037   0.871 -2.5772 -0.8642  0.0680
  896MOL0     H18223   6.112   4.195   1.130 -1.4366  3.1621  0.6143
  896MOL0     H18224   5.957   4.113   1.090  0.2194 -2.2624 -2.2859
  896MOL0     H18225   5.870   4.157   0.834  1.8241 -0.7783 -2.2714
  896MOL0     H18226   5.787   4.343   0.638  0.7059 -1.3745  0.2441
  896MOL0     H18227   5.835   4.503   0.672  0.3653 -1.1589 -1.7353
  896MOL0     H18228   5.666   4.366   0.881  4.0756 -0.4300 -0.1171
  896MOL0     H18229   5.593   4.412   0.729  2.8275  0.3702 -2.9174
  896MOL0     H18230   5.748   4.602   0.925 -2.4596  1.1786  1.9544
  896MOL0     H18231   5.680   4.648   0.768  1.5348  1.5850  1.0113
  896MOL0     H18232   5.543   4.702   0.957 -0.1962 -0.0530  0.1393
  896MOL0     H18233   5.523   4.543   1.018 -0.7086  1.6483  1.6930
  896MOL0     H18234   5.262   4.603   0.654 -1.7103  1.0004 -2.5186
  896MOL0     H18235   5.047   4.730   0.666 -0.6464 -2.7379  0.6219
  896MOL0     H18236   4.968   5.207   0.833  0.3705  0.7470  0.9329
  896MOL0     H18237   4.812   5.383   0.791  3.7338 -0.7522  0.3172
  896MOL0     H18238   4.442   5.545   1.004 -3.0277 -0.5942  0.3423
  896MOL0     H18239   4.459   5.398   1.091 -0.4551  0.3547 -0.3216
  896MOL0     H18240   4.321   5.279   0.967  1.2269 -0.2717  1.2805
  896MOL0     H18241   4.338   5.376   0.824 -3.3834 -0.4652 -0.2588
  896MOL0     H18242   4.138   5.461   0.862  1.1852  4.2984 -1.0057
  896MOL0     H18243   4.208   5.559   0.997  2.0820 -0.5195  1.5945
  896MOL0     H18244   4.056   5.304   1.054  0.2942 -0.5031  3.9116
  896MOL0     H18245   4.186   5.367   1.155  1.6083  2.0356 -0.2494
  896MOL0     H18246   3.982   5.560   1.055  3.6096  1.3709 -1.2978
  896MOL0     H18247   4.082   5.564   1.204 -1.0720  0.1134  1.3218
  896MOL0     H18248   3.953   5.359   1.284 -0.6935 -2.3264 -2.8402
  896MOL0     H18249   3.845   5.392   1.161 -0.6122  0.4827  0.5035
  896MOL0     H18250   3.830   5.634   1.250 -1.8060  1.3030  1.2159
  896MOL0     H18251   3.757   5.502   1.364 -0.9836  0.3472  0.3293
  896MOL0     H18252   4.019   5.644   1.385  2.9811 -3.1194  3.2284
  896MOL0     H18253   3.963   5.499   1.466  0.4920 -1.3414 -1.5170
  896MOL0     H18254   4.520   5.170   1.042 -0.8623  0.6182 -1.5146
  896MOL0     H18255   4.682   4.986   1.038  0.0074 -1.0284 -0.8024
  896MOL0     H18256   5.172   4.905   1.034 -3.3979 -0.9384 -0.3200
  896MOL0     H18257   5.364   4.761   1.043 -1.7232 -1.3383  2.5205
  896MOL0     H18258   6.526   3.200   1.005  0.2107  0.5596  0.8323
  896MOL0     H18259   6.686   3.039   1.035  2.1610  1.0707  1.1451
  896MOL0     H18260   7.005   2.948   1.397  0.0769  2.6353 -3.1839
  896MOL0     H18261   7.212   2.838   1.458  0.0366 -2.6361  1.6080
  896MOL0     H18262   7.271   2.415   1.297 -0.1267 -0.2703 -0.9580
  896MOL0     H18263   7.211   2.445   1.453 -0.4948  2.0261 -1.4844
  896MOL0     H18264   7.457   2.440   1.544  1.1649 -1.3315  0.5614
  896MOL0     H18265   7.398   2.288   1.468 -1.7311  1.4998 -1.0731
  896MOL0     H18266   7.554   2.290   1.296  3.0916  0.6273 -1.2351
  896MOL0     H18267   7.627   2.373   1.434 -0.7462  3.2288  2.7470
  896MOL0     H18268   7.501   2.485   1.177 -1.3768 -0.0870  0.8383
  896MOL0     H18269   7.543   2.589   1.317 -0.4426 -1.6282  2.4293
  896MOL0     H18270   7.926   2.568   1.205 -0.2036  1.6248 -1.5773
  896MOL0     H18271   7.109   2.511   1.191 -3.5508  0.3138 -3.3370
  896MOL0     H18272   6.912   2.597   1.145  0.4231  1.1516 -2.2934
  897MOL0     O18273   6.560   6.314   8.243 -0.1481  0.4590  0.3293
  897MOL0     C18274   6.594   6.324   8.128  0.5760  0.6210  1.2715
  897MOL0     O18275   6.514   6.308   8.013  0.1839  0.6152  0.5371
  897MOL0     C18276   6.374   6.311   8.010 -0.1541 -0.2967 -0.3736
  897MOL0     C18277   6.294   6.382   8.099 -0.1838 -0.2088 -0.4990
  897MOL0     C18278   6.162   6.394   8.062 -0.1245  0.0030  0.1592
  897MOL0     C18279   6.102   6.339   7.949  0.4921 -1.0313 -0.4506
  897MOL0     O18280   5.969   6.364   7.938 -0.2547  0.6923 -0.3226
  897MOL0     C18281   5.883   6.370   8.052  0.0506  0.2248 -0.0574
  897MOL0     C18282   5.746   6.351   8.010  0.5116  0.9811 -0.5040
  897MOL0     C18283   5.649   6.295   8.121  0.4924 -0.2041 -0.2629
  897MOL0     C18284   5.507   6.303   8.051  0.0625  0.1087  0.6304
  897MOL0     C18285   5.382   6.267   8.134  0.0656  0.4040  0.5430
  897MOL0     C18286   5.267   6.281   8.033 -0.4964  0.6501 -0.3531
  897MOL0     C18287   5.134   6.267   8.108  1.0613  0.0173 -0.2856
  897MOL0     C18288   5.033   6.285   7.998  0.1555 -0.3236 -0.0449
  897MOL0     N18289   4.900   6.301   8.065 -0.5454  0.5152  0.2021
  897MOL0     C18290   4.849   6.408   8.131  0.0512 -0.0560  0.2856
  897MOL0     C18291   4.716   6.372   8.155  0.0176  0.5407 -0.5305
  897MOL0     C18292   4.623   6.462   8.235 -1.3389  0.0104  1.3782
  897MOL0     C18293   4.515   6.393   8.325 -0.0277  0.4994 -0.0902
  897MOL0     C18294   4.430   6.489   8.408 -0.5270  0.7796  0.2922
  897MOL0     C18295   4.336   6.414   8.510 -0.0462 -0.5764 -0.6225
  897MOL0     O18296   4.333   6.491   8.633  0.8633 -0.7009 -0.2241
  897MOL0     C18297   4.215   6.514   8.704 -0.0390  0.4062 -0.6215
  897MOL0     C18298   4.209   6.630   8.775  0.8692  0.0891 -0.1899
  897MOL0     C18299   4.106   6.653   8.865  0.1113 -0.9300  0.2953
  897MOL0     C18300   3.996   6.559   8.874 -0.3941  0.3397 -0.1910
  897MOL0     C18301   3.874   6.598   8.943 -0.2765 -0.7446  0.4092
  897MOL0     O18302   3.763   6.531   8.924 -0.4704 -0.4190  0.0456
  897MOL0     C18303   3.648   6.572   9.000  0.0727  0.4324 -0.0224
  897MOL0     C18304   3.540   6.625   8.930  0.9719 -0.3352 -0.1705
  897MOL0     C18305   3.419   6.653   8.998 -0.8688  0.3330  0.5650
  897MOL0     C18306   3.407   6.633   9.134  0.5126 -0.4874 -1.1168
  897MOL0     O18307   3.299   6.682   9.200  0.6804 -0.2642 -0.3191
  897MOL0     C18308   3.190   6.584   9.192  1.0957  0.5024  0.2010
  897MOL0     C18309   3.112   6.616   9.065  0.0780  0.0017  1.0389
  897MOL0     C18310   2.963   6.622   9.098 -0.2910  0.4847  1.2123
  897MOL0     C18311   2.882   6.662   8.969 -0.1303  0.6288 -0.6491
  897MOL0     C18312   2.855   6.553   8.865  0.3197 -0.7082 -0.2420
  897MOL0     C18313   2.785   6.427   8.905 -0.0851  1.4185 -0.4417
  897MOL0     C18314   2.762   6.331   8.784 -0.3866 -0.0833  0.6528
  897MOL0     C18315   2.691   6.207   8.821 -0.4994  0.6101  0.3823
  897MOL0    Cl18316   2.793   6.108   8.927 -0.4950 -0.5098  0.0429
  897MOL0     C18317   3.510   6.577   9.208 -0.6482  0.3302  0.0699
  897MOL0     C18318   3.633   6.547   9.135  0.2409 -0.4078 -0.3916
  897MOL0     O18319   3.881   6.705   9.008 -0.5091  0.5953  0.1367
  897MOL0     C18320   4.003   6.436   8.800 -0.0249  0.4117  0.9440
  897MOL0     C18321   4.109   6.422   8.713 -0.2083  0.4906  0.0660
  897MOL0     N18322   4.694   6.244   8.105  0.3109 -1.1996  0.3662
  897MOL0     N18323   4.797   6.212   8.040  0.8825  0.4546 -1.0321
  897MOL0     C18324   6.182   6.276   7.851 -0.9533  0.0027 -0.6698
  897MOL0     C18325   6.316   6.265   7.885 -0.6774  0.0531 -0.4566
  897MOL0     C18326   6.735   6.326   8.089  0.2492 -0.8379 -0.2203
  897MOL0     C18327   6.778   6.387   7.973  0.3031 -0.8601 -0.7640
  897MOL0     C18328   6.913   6.401   7.937 -0.2423 -0.0986 -0.3301
  897MOL0     C18329   7.020   6.362   8.025  0.0164 -0.1383  0.5418
  897MOL0     O18330   7.147   6.375   7.995  0.2828 -0.1792 -0.2665
  897MOL0     C18331   7.259   6.323   8.065  0.2083  0.0995 -0.5214
  897MOL0     C18332   7.392   6.389   8.025  0.2438  0.4746  0.8982
  897MOL0     C18333   7.463   6.317   7.916  0.3774 -0.0252  0.0022
  897MOL0     C18334   7.576   6.405   7.860  0.2332  0.3546  0.1732
  897MOL0     C18335   7.684   6.330   7.796  0.2826 -0.2606  0.3704
  897MOL0     C18336   7.777   6.282   7.746  0.2103  0.0820  0.2622
  897MOL0     C18337   6.971   6.293   8.142  0.0835 -0.1713  1.0945
  897MOL0     C18338   6.832   6.276   8.181 -0.7259 -0.1046  0.7993
  897MOL0     H18339   6.345   6.430   8.182 -2.1970 -1.0032  1.3223
  897MOL0     H18340   6.103   6.445   8.138  2.3939  1.5109  1.2612
  897MOL0     H18341   5.892   6.468   8.099 -2.8861  0.1400  0.9123
  897MOL0     H18342   5.914   6.295   8.125  1.0913 -3.1934 -3.6380
  897MOL0     H18343   5.749   6.290   7.919 -0.2908  0.6191 -0.2936
  897MOL0     H18344   5.706   6.446   7.971  1.7100  0.4839 -3.1986
  897MOL0     H18345   5.646   6.361   8.209 -0.5053 -0.3302 -0.1881
  897MOL0     H18346   5.672   6.192   8.147  1.6137 -0.0670 -0.6591
  897MOL0     H18347   5.495   6.404   8.011 -0.2123  0.6829  2.1049
  897MOL0     H18348   5.502   6.235   7.966 -3.9683 -1.5162  1.9587
  897MOL0     H18349   5.377   6.339   8.216  1.1868 -0.2006  1.1731
  897MOL0     H18350   5.387   6.162   8.165  0.2964 -0.1785 -1.3090
  897MOL0     H18351   5.270   6.195   7.965  0.7343  1.5511 -1.4915
  897MOL0     H18352   5.283   6.368   7.969  1.7107  1.0097  0.5840
  897MOL0     H18353   5.119   6.168   8.152 -3.0334  0.9929  0.9734
  897MOL0     H18354   5.126   6.352   8.176  1.6587  0.5916 -0.9198
  897MOL0     H18355   5.026   6.191   7.943  2.0395 -1.0893  0.9327
  897MOL0     H18356   5.057   6.374   7.938 -1.4380  2.0944  2.6708
  897MOL0     H18357   4.885   6.501   8.173 -1.9910  0.1796  1.6392
  897MOL0     H18358   4.571   6.518   8.156 -1.5164 -0.9517  0.8001
  897MOL0     H18359   4.674   6.543   8.287  1.4894 -2.5642  2.9028
  897MOL0     H18360   4.579   6.348   8.402 -1.6634  1.4436  1.9151
  897MOL0     H18361   4.459   6.309   8.283  0.6021 -0.5515  1.1086
  897MOL0     H18362   4.482   6.568   8.462  2.2907 -0.7891  0.0575
  897MOL0     H18363   4.372   6.539   8.330  0.6499  1.5658 -0.0883
  897MOL0     H18364   4.383   6.319   8.539  2.5926  0.8098 -0.0106
  897MOL0     H18365   4.237   6.404   8.464  0.2759  0.1810 -1.5028
  897MOL0     H18366   4.285   6.707   8.770  1.3935 -0.4461 -0.7333
  897MOL0     H18367   4.103   6.754   8.903 -1.8249 -1.0312  0.5066
  897MOL0     H18368   3.542   6.650   8.825 -2.7118  2.3491  0.2034
  897MOL0     H18369   3.342   6.686   8.928 -0.0265 -1.1510 -1.1547
  897MOL0     H18370   3.124   6.587   9.280  0.0042  0.2622 -0.5811
  897MOL0     H18371   3.229   6.482   9.196 -0.7846 -0.4214 -2.5665
  897MOL0     H18372   3.142   6.537   8.995  1.2755 -0.8209  2.4095
  897MOL0     H18373   3.145   6.713   9.029  0.7625 -1.3222 -2.2514
  897MOL0     H18374   2.946   6.685   9.186  0.0444 -2.1054  3.2561
  897MOL0     H18375   2.911   6.537   9.143  0.2666 -0.5315  0.0048
  897MOL0     H18376   2.783   6.686   9.009 -0.3580 -1.9644  0.5449
  897MOL0     H18377   2.927   6.746   8.915 -1.0776  0.0338 -2.4285
  897MOL0     H18378   2.952   6.534   8.816 -0.1010 -1.5833 -0.7567
  897MOL0     H18379   2.795   6.594   8.784  1.6591  0.4651 -0.6861
  897MOL0     H18380   2.688   6.445   8.952 -0.7090 -2.2469 -0.0416
  897MOL0     H18381   2.848   6.373   8.977  0.1886  2.6009  0.2335
  897MOL0     H18382   2.697   6.386   8.715  0.5280 -0.7543 -0.7914
  897MOL0     H18383   2.849   6.308   8.722 -1.4491  1.7550 -1.6608
  897MOL0     H18384   2.674   6.139   8.737  2.6507 -0.1219  0.1959
  897MOL0     H18385   2.599   6.241   8.868 -1.1837  2.9352 -2.3623
  897MOL0     H18386   3.510   6.550   9.313  1.2806 -0.4820 -0.0970
  897MOL0     H18387   3.719   6.517   9.193  0.1660  2.5152  1.4702
  897MOL0     H18388   3.919   6.372   8.824 -0.9836  1.5492  0.7598
  897MOL0     H18389   4.113   6.333   8.652 -1.4212 -0.0024  0.6864
  897MOL0     H18390   6.137   6.253   7.756 -2.3994  0.8054 -0.2105
  897MOL0     H18391   6.386   6.217   7.818 -2.3623 -3.9069  0.2974
  897MOL0     H18392   6.704   6.428   7.904 -0.7255  1.9065  1.7510
  897MOL0     H18393   6.928   6.448   7.840 -1.5341  1.7682  0.3143
  897MOL0     H18394   7.276   6.215   8.056  0.4072 -0.0503  1.3073
  897MOL0     H18395   7.254   6.335   8.173 -0.6383  1.1596 -0.6644
  897MOL0     H18396   7.367   6.489   7.988 -0.8891  0.4489  1.5432
  897MOL0     H18397   7.452   6.398   8.116 -1.5159 -1.5320  2.3596
  897MOL0     H18398   7.405   6.289   7.827  1.5790  2.1500 -1.5599
  897MOL0     H18399   7.503   6.222   7.951  0.9731 -0.5600 -1.9748
  897MOL0     H18400   7.534   6.478   7.790  0.6886  0.9771  0.5453
  897MOL0     H18401   7.619   6.455   7.947  1.3706 -1.2456  0.5760
  897MOL0     H18402   7.869   6.240   7.711 -0.2842  1.4267 -2.8865
  897MOL0     H18403   7.037   6.235   8.205  0.2608 -1.4967 -0.2411
  897MOL0     H18404   6.790   6.223   8.266 -3.9221 -2.5947 -2.0088
  898MOL0     O18405   3.934   9.225   9.486  0.2328 -0.1398 -0.0607
  898MOL0     C18406   3.973   9.270   9.590 -0.1710 -1.0051  0.1773
  898MOL0     O18407   3.890   9.285   9.701  0.0341  0.6103 -0.4080
  898MOL0     C18408   3.765   9.231   9.704 -0.3452  0.2907 -0.5148
  898MOL0     C18409   3.732   9.163   9.820 -0.7945 -0.0077 -0.6409
  898MOL0     C18410   3.610   9.108   9.844 -0.4640  0.1435 -0.0404
  898MOL0     C18411   3.515   9.121   9.743 -0.4499 -1.8041  0.1999
  898MOL0     O18412   3.384   9.085   9.756  0.3496 -0.7627 -1.1507
  898MOL0     C18413   3.326   9.071   9.882 -0.8578  0.6682  0.9131
  898MOL0     C18414   3.179   9.046   9.877 -0.0709  0.4314  0.1793
  898MOL0     C18415   3.088   9.156   9.807 -0.7913 -0.2005  0.9681
  898MOL0     C18416   2.936   9.143   9.837  0.4665  0.7647  0.4598
  898MOL0     C18417   2.862   9.217   9.719 -0.2519 -0.4350 -0.5283
  898MOL0     C18418   2.710   9.213   9.750 -0.6475  0.3879  0.2709
  898MOL0     C18419   2.630   9.282   9.642  0.2984 -0.2169 -0.7463
  898MOL0     C18420   2.482   9.252   9.667  0.5910  1.0023  1.0860
  898MOL0     N18421   2.407   9.312   9.563  0.0867  0.1190  0.8150
  898MOL0     C18422   2.425   9.286   9.429  0.0174  0.9215  0.0962
  898MOL0     C18423   2.321   9.350   9.364 -0.6904  0.4118 -1.0407
  898MOL0     C18424   2.290   9.346   9.213  0.5449 -0.2894 -0.1924
  898MOL0     C18425   2.212   9.479   9.170 -0.1097  0.0670 -0.9694
  898MOL0     C18426   2.170   9.463   9.015 -0.6945 -0.3030 -0.2330
  898MOL0     C18427   2.075   9.587   8.990 -0.3764  0.7275  0.2202
  898MOL0     O18428   1.997   9.548   8.879  0.5553  0.1549  0.2595
  898MOL0     C18429   1.858   9.584   8.874  0.5998 -0.4452 -1.2514
  898MOL0     C18430   1.808   9.700   8.931  0.2462  0.0946  0.0391
  898MOL0     C18431   1.671   9.724   8.922  0.0085 -0.0288  0.0403
  898MOL0     C18432   1.588   9.640   8.848 -0.7409 -1.0812 -0.3556
  898MOL0     C18433   1.448   9.672   8.844 -0.0258  0.6780 -0.0595
  898MOL0     O18434   1.385   9.630   8.732  0.6464 -0.0995  0.9481
  898MOL0     C18435   1.251   9.658   8.726  0.0367 -0.5768  1.1068
  898MOL0     C18436   1.206   9.746   8.620  0.5154 -0.2185 -1.2281
  898MOL0     C18437   1.063   9.775   8.615 -0.4948 -0.1885 -0.0084
  898MOL0     C18438   0.982   9.725   8.712  0.4727  0.3474  1.3057
  898MOL0     O18439   0.848   9.757   8.709  0.1749  0.5045  0.2197
  898MOL0     C18440   0.785   9.836   8.603 -0.5974 -0.2977  0.0272
  898MOL0     C18441   0.638   9.837   8.618  0.5527  0.1565 -0.3935
  898MOL0     C18442   0.567   9.972   8.648 -0.2138 -0.7567 -0.1259
  898MOL0     C18443   0.420   9.951   8.688 -0.1184  0.5910 -0.1871
  898MOL0     C18444   0.330  10.074   8.662  0.3464 -0.3860  0.1453
  898MOL0     C18445   0.185  10.048   8.654  0.2832 -0.1116  0.0214
  898MOL0     C18446   0.105  10.172   8.609  0.3091  0.1023 -0.9952
  898MOL0     C18447  -0.038  10.128   8.582 -0.4920 -0.1846  0.0521
  898MOL0    Cl18448  -0.163  10.259   8.564 -0.4481 -0.0572 -0.2016
  898MOL0     C18449   1.026   9.646   8.814  0.2328  0.5315 -0.8195
  898MOL0     C18450   1.158   9.608   8.814 -1.3223 -0.3658 -0.0711
  898MOL0     O18451   1.399   9.719   8.944  1.3124 -0.6411  0.1660
  898MOL0     C18452   1.640   9.531   8.783 -0.1922  1.0056  0.4136
  898MOL0     C18453   1.773   9.504   8.799 -0.3604 -0.8200 -0.2743
  898MOL0     N18454   2.243   9.407   9.458 -0.3362 -0.4893 -0.1188
  898MOL0     N18455   2.286   9.374   9.577 -0.3815 -0.2024 -0.4745
  898MOL0     C18456   3.542   9.173   9.618  0.2204  0.3063  0.2012
  898MOL0     C18457   3.671   9.225   9.604 -0.8380 -0.4009 -1.1726
  898MOL0     C18458   4.101   9.341   9.595  0.5772 -0.3831  0.1779
  898MOL0     C18459   4.160   9.368   9.718  0.0772  0.0968  0.0146
  898MOL0     C18460   4.267   9.451   9.731 -0.1202  0.4377 -0.0086
  898MOL0     C18461   4.330   9.496   9.613 -0.7651  0.0032  0.0968
  898MOL0     O18462   4.436   9.583   9.612  1.1267 -0.4894  0.3463
  898MOL0     C18463   4.557   9.557   9.684 -0.8854 -0.5831  0.2211
  898MOL0     C18464   4.621   9.422   9.652 -0.5377 -0.3728  0.6409
  898MOL0     C18465   4.670   9.423   9.506 -0.2184 -0.3239 -0.1917
  898MOL0     C18466   4.696   9.284   9.452  0.0836  0.3877  0.5235
  898MOL0     C18467   4.752   9.294   9.317  0.1569  0.3498 -0.3255
  898MOL0     C18468   4.788   9.328   9.204 -0.5746  0.2686  0.5379
  898MOL0     C18469   4.272   9.463   9.491 -0.0993 -0.1965 -0.2009
  898MOL0     C18470   4.153   9.398   9.483  0.8522  0.5782 -0.0363
  898MOL0     H18471   3.814   9.166   9.892  1.5063  0.8060 -3.1059
  898MOL0     H18472   3.590   9.065   9.942 -0.9387 -0.5748 -0.4450
  898MOL0     H18473   3.353   9.160   9.939 -0.7331  0.4001  1.2781
  898MOL0     H18474   3.370   8.980   9.924  0.4118  1.4292  1.2939
  898MOL0     H18475   3.146   9.046   9.981 -0.1060  0.8743  0.1705
  898MOL0     H18476   3.150   8.949   9.835 -0.2448  0.0952  1.0517
  898MOL0     H18477   3.100   9.134   9.700 -1.8686  1.8953  0.3757
  898MOL0     H18478   3.123   9.257   9.827 -0.2692 -0.1732  0.0153
  898MOL0     H18479   2.913   9.036   9.833 -0.1535  0.8901  0.5347
  898MOL0     H18480   2.914   9.187   9.935  0.3125 -0.8582  1.1899
  898MOL0     H18481   2.879   9.167   9.624  2.1928 -0.1404 -0.3155
  898MOL0     H18482   2.900   9.318   9.703 -2.8860  0.7267  0.0591
  898MOL0     H18483   2.684   9.265   9.843 -2.2540 -2.6697  1.6785
  898MOL0     H18484   2.688   9.107   9.765  0.1526  0.0859 -0.6017
  898MOL0     H18485   2.632   9.391   9.648  0.1157 -0.2032 -0.9439
  898MOL0     H18486   2.666   9.248   9.545  2.2996  0.7973 -0.4266
  898MOL0     H18487   2.460   9.284   9.770  0.7250 -1.7836  2.0721
  898MOL0     H18488   2.476   9.143   9.667 -0.7616  0.9940 -1.8947
  898MOL0     H18489   2.495   9.215   9.386 -1.8140 -0.2510 -1.0732
  898MOL0     H18490   2.232   9.255   9.194  0.7387 -0.7095  1.1569
  898MOL0     H18491   2.387   9.338   9.163  1.9958  1.4930  2.1608
  898MOL0     H18492   2.276   9.562   9.200  1.7521 -0.7894 -2.3860
  898MOL0     H18493   2.122   9.481   9.232  0.3290 -0.0454 -0.3177
  898MOL0     H18494   2.259   9.464   8.953  0.1934 -0.2939  1.0070
  898MOL0     H18495   2.122   9.366   8.996  1.7160 -1.7696  0.7811
  898MOL0     H18496   2.136   9.674   8.966 -2.5253  2.8389  1.8979
  898MOL0     H18497   2.007   9.597   9.075 -0.0012 -2.0440  0.9694
  898MOL0     H18498   1.874   9.771   8.980 -0.1683  0.3972  0.1683
  898MOL0     H18499   1.644   9.818   8.969  3.9754  2.6576 -2.4264
  898MOL0     H18500   1.278   9.788   8.550  0.7166  0.8022 -0.4344
  898MOL0     H18501   1.041   9.844   8.534  1.2937 -2.0072 -2.2024
  898MOL0     H18502   0.809   9.788   8.508 -3.5229  1.6001 -1.8039
  898MOL0     H18503   0.827   9.937   8.605 -1.5925  0.1615 -1.5242
  898MOL0     H18504   0.611   9.772   8.703  0.2107 -0.6594 -1.1063
  898MOL0     H18505   0.606   9.794   8.523  2.0793  1.0388 -1.3290
  898MOL0     H18506   0.577  10.040   8.563  2.8344  0.0240  0.7327
  898MOL0     H18507   0.626  10.019   8.726  2.2258 -1.9006 -1.1567
  898MOL0     H18508   0.385   9.868   8.627 -1.7529  0.5355  0.7542
  898MOL0     H18509   0.427   9.929   8.795  4.0292  0.5627 -0.3007
  898MOL0     H18510   0.355  10.134   8.575 -4.4982  1.5228 -0.2077
  898MOL0     H18511   0.345  10.147   8.742  0.6685 -0.1580 -0.1189
  898MOL0     H18512   0.151  10.006   8.749  0.5006  0.1769  0.2290
  898MOL0     H18513   0.156   9.976   8.576  0.0421  1.6344 -1.5565
  898MOL0     H18514   0.110  10.253   8.682  2.0579  0.1364 -1.1002
  898MOL0     H18515   0.146  10.209   8.515  0.5268  0.5513 -0.7303
  898MOL0     H18516  -0.072  10.062   8.662 -3.2875 -0.0817 -0.9513
  898MOL0     H18517  -0.038  10.073   8.488 -2.2297  0.5004 -0.3946
  898MOL0     H18518   0.960   9.606   8.890  1.3024 -3.1117 -1.5907
  898MOL0     H18519   1.202   9.540   8.887 -1.4429  1.2705  1.5972
  898MOL0     H18520   1.587   9.460   8.721  3.2650 -0.8857 -0.6056
  898MOL0     H18521   1.823   9.411   8.771  3.0396 -0.2424  3.0638
  898MOL0     H18522   3.469   9.161   9.540 -0.3609 -4.2040  1.1559
  898MOL0     H18523   3.705   9.273   9.513  1.3720 -0.6729 -0.5410
  898MOL0     H18524   4.111   9.333   9.808 -1.0584 -0.7713 -0.8988
  898MOL0     H18525   4.300   9.488   9.827  0.1700 -0.5641  0.2805
  898MOL0     H18526   4.532   9.548   9.790 -0.5812 -2.8764  0.1341
  898MOL0     H18527   4.618   9.646   9.664  0.3135 -1.7973 -1.8403
  898MOL0     H18528   4.701   9.394   9.722 -0.2994  1.3760  1.1264
  898MOL0     H18529   4.544   9.345   9.655 -0.9808  0.0502  0.1558
  898MOL0     H18530   4.765   9.477   9.493  0.9356 -2.8245 -3.9463
  898MOL0     H18531   4.589   9.466   9.447  0.2899  0.3513 -0.4147
  898MOL0     H18532   4.777   9.247   9.516  1.6607  0.8100 -1.1538
  898MOL0     H18533   4.612   9.214   9.458 -1.6127  2.0133 -2.3163
  898MOL0     H18534   4.824   9.337   9.103 -0.7835 -2.2110  0.1883
  898MOL0     H18535   4.317   9.517   9.407  0.8008  2.6069  1.9114
  898MOL0     H18536   4.097   9.385   9.391  1.2209  0.0300 -0.1876
  899MOL0     O18537   4.484  10.934   8.328  0.0059  0.3025  0.0653
  899MOL0     C18538   4.569  10.987   8.259 -0.8007  0.2521  0.6234
  899MOL0     O18539   4.566  11.118   8.207  0.1034  0.2931  0.3997
  899MOL0     C18540   4.457  11.203   8.230  0.1138 -0.6406 -0.3504
  899MOL0     C18541   4.496  11.332   8.274  0.3646 -0.3635  0.7308
  899MOL0     C18542   4.399  11.424   8.318  0.6194 -0.0259 -0.2271
  899MOL0     C18543   4.262  11.400   8.308 -0.4892  0.6438  0.3191
  899MOL0     O18544   4.173  11.498   8.351 -0.4053 -0.7033 -0.7439
  899MOL0     C18545   4.022  11.482   8.365 -1.1138 -0.0510  0.2938
  899MOL0     C18546   3.980  11.415   8.491  0.3714  0.3525 -0.2709
  899MOL0     C18547   3.826  11.415   8.499 -0.4457  0.4347  0.2377
  899MOL0     C18548   3.774  11.360   8.632  0.2558  0.2938  0.8568
  899MOL0     C18549   3.633  11.303   8.627  1.3351  0.0340 -0.2480
  899MOL0     C18550   3.518  11.375   8.564 -0.2018  0.6299  0.2515
  899MOL0     C18551   3.388  11.291   8.558 -0.0900  0.1182 -0.4248
  899MOL0     C18552   3.274  11.402   8.551  0.2112  0.4255 -0.8984
  899MOL0     N18553   3.302  11.490   8.429 -0.5607 -1.0316  0.0772
  899MOL0     C18554   3.279  11.461   8.305 -0.6084 -0.0283 -0.3552
  899MOL0     C18555   3.274  11.584   8.235 -0.0304  0.4322  0.8814
  899MOL0     C18556   3.272  11.604   8.077  0.8984 -0.4048  0.3662
  899MOL0     C18557   3.365  11.510   8.007  0.0570 -0.0600  0.9405
  899MOL0     C18558   3.366  11.546   7.861 -0.0240 -0.5396  0.0578
  899MOL0     C18559   3.232  11.547   7.788  0.4137 -0.1097  2.1385
  899MOL0     O18560   3.247  11.501   7.653  0.3100 -0.7374  0.4824
  899MOL0     C18561   3.150  11.522   7.561  0.8387  0.0530  1.3664
  899MOL0     C18562   3.009  11.531   7.593 -0.1837 -0.0404  0.3840
  899MOL0     C18563   2.909  11.546   7.491  1.2719 -1.1015 -0.1930
  899MOL0     C18564   2.944  11.568   7.353  0.3663  0.4654 -1.0482
  899MOL0     C18565   2.838  11.588   7.249 -0.6154 -0.2602  0.4196
  899MOL0     O18566   2.873  11.597   7.123 -0.3687 -0.1771 -0.0295
  899MOL0     C18567   2.776  11.602   7.022 -1.2148  0.0650 -0.0560
  899MOL0     C18568   2.801  11.542   6.904  0.6431  0.4517  0.4303
  899MOL0     C18569   2.705  11.538   6.801  0.4011  0.2634 -0.0868
  899MOL0     C18570   2.591  11.625   6.814 -1.1992  1.4691  0.0912
  899MOL0     O18571   2.476  11.626   6.736 -0.5553 -0.1130  0.5810
  899MOL0     C18572   2.445  11.506   6.665  0.2833 -0.3812 -1.0205
  899MOL0     C18573   2.342  11.544   6.554 -0.4587  0.5554 -0.8983
  899MOL0     C18574   2.268  11.426   6.498  0.5454  0.2995  0.3920
  899MOL0     C18575   2.172  11.487   6.392  0.1011  0.2682  0.2721
  899MOL0     C18576   2.107  11.372   6.305 -0.2159 -0.4267  0.3922
  899MOL0     C18577   1.959  11.418   6.266  0.2120  0.2172  0.7506
  899MOL0     C18578   1.894  11.305   6.184 -0.8519 -0.3650 -0.7374
  899MOL0     C18579   1.754  11.328   6.147 -0.4581 -0.9154 -1.2317
  899MOL0    Cl18580   1.693  11.201   6.033 -0.3197  0.6141 -0.1533
  899MOL0     C18581   2.578  11.700   6.930 -0.2023 -0.3119 -0.2449
  899MOL0     C18582   2.677  11.689   7.025  0.9853 -0.2163 -0.6879
  899MOL0     O18583   2.730  11.561   7.284  0.0924  0.7197 -0.1066
  899MOL0     C18584   3.077  11.559   7.322  0.1367 -0.4000  0.1649
  899MOL0     C18585   3.180  11.523   7.414  0.0112  0.7722 -0.2050
  899MOL0     N18586   3.297  11.685   8.327 -0.7404  0.4892 -0.7267
  899MOL0     N18587   3.312  11.625   8.448  0.9080  0.0846 -0.5063
  899MOL0     C18588   4.224  11.272   8.251  0.3788  0.3463  0.1834
  899MOL0     C18589   4.320  11.170   8.213  0.1231  0.4556  0.2436
  899MOL0     C18590   4.691  10.916   8.208 -0.6810 -0.5266 -0.0676
  899MOL0     C18591   4.728  10.798   8.257  0.2207  0.1135 -0.2594
  899MOL0     C18592   4.849  10.731   8.224 -0.0319 -0.7282  0.3094
  899MOL0     C18593   4.940  10.789   8.142  0.2639 -0.0731  0.2342
  899MOL0     O18594   5.058  10.725   8.108 -0.4553 -0.1715  1.4549
  899MOL0     C18595   5.140  10.770   8.003  0.1829  0.0540  0.2745
  899MOL0     C18596   5.290  10.796   8.033 -0.3371 -0.0302  0.2770
  899MOL0     C18597   5.306  10.942   8.091 -1.1864  0.9422  0.5354
  899MOL0     C18598   5.429  10.951   8.182 -1.1936 -0.3814 -0.6599
  899MOL0     C18599   5.435  11.095   8.219  0.1586  0.2274 -0.4523
  899MOL0     C18600   5.458  11.211   8.240 -0.0949 -0.2175 -0.1139
  899MOL0     C18601   4.903  10.915   8.090 -0.2841  0.0291  0.0619
  899MOL0     C18602   4.783  10.977   8.119 -0.2129  0.4893  0.1170
  899MOL0     H18603   4.604  11.335   8.288  0.6465  0.2311 -1.3157
  899MOL0     H18604   4.429  11.519   8.361 -0.6389  0.4495 -0.3450
  899MOL0     H18605   3.987  11.417   8.284 -2.8613  1.2073 -0.0103
  899MOL0     H18606   3.967  11.576   8.365 -0.9157  0.1225  2.8999
  899MOL0     H18607   4.016  11.464   8.582  0.7278  2.0309 -1.2663
  899MOL0     H18608   4.020  11.313   8.486  0.6482  0.3570  1.2573
  899MOL0     H18609   3.803  11.346   8.418  0.6424 -0.3264  0.5573
  899MOL0     H18610   3.782  11.513   8.479 -0.1965 -0.1291 -3.9829
  899MOL0     H18611   3.848  11.288   8.667  1.4103  1.8780  1.8015
  899MOL0     H18612   3.775  11.442   8.705  0.8729  1.2369 -0.1826
  899MOL0     H18613   3.599  11.262   8.723 -1.2160  0.8534 -0.7073
  899MOL0     H18614   3.648  11.208   8.575 -2.5591 -1.9905  1.8827
  899MOL0     H18615   3.560  11.388   8.464  2.0423 -0.6746  0.9200
  899MOL0     H18616   3.506  11.472   8.613 -0.3661  1.9809 -2.3039
  899MOL0     H18617   3.395  11.238   8.462  1.3482  3.2763 -2.1966
  899MOL0     H18618   3.375  11.221   8.641  2.1551 -1.2521 -1.1473
  899MOL0     H18619   3.260  11.457   8.645 -2.1659  1.8046 -1.9517
  899MOL0     H18620   3.184  11.342   8.535  0.0225  0.7378 -1.0152
  899MOL0     H18621   3.260  11.360   8.268 -1.5898  0.4333 -1.1806
  899MOL0     H18622   3.292  11.707   8.049 -1.1216 -0.0627  0.0062
  899MOL0     H18623   3.166  11.586   8.056  0.1496  1.2767  2.3271
  899MOL0     H18624   3.327  11.407   8.009 -0.6729 -0.2686 -5.0050
  899MOL0     H18625   3.467  11.520   8.046  1.5199 -5.2523 -0.7006
  899MOL0     H18626   3.414  11.643   7.851  2.5413 -1.8106 -0.6950
  899MOL0     H18627   3.421  11.473   7.801 -2.7296 -2.3028 -0.4803
  899MOL0     H18628   3.172  11.638   7.792 -4.7016 -3.0113  0.3381
  899MOL0     H18629   3.159  11.480   7.834 -2.6325  0.6739 -1.1565
  899MOL0     H18630   2.970  11.537   7.694 -1.4944  0.5394 -0.1389
  899MOL0     H18631   2.805  11.558   7.519  1.4102 -0.7986  0.1937
  899MOL0     H18632   2.894  11.486   6.902  0.9957  1.0433 -0.1418
  899MOL0     H18633   2.733  11.477   6.716  0.8343  0.4683 -0.0952
  899MOL0     H18634   2.399  11.442   6.741  4.4364 -1.1179  1.1806
  899MOL0     H18635   2.532  11.450   6.631  1.6612  1.4955 -0.7762
  899MOL0     H18636   2.395  11.588   6.469  4.2903 -1.1015  0.8835
  899MOL0     H18637   2.275  11.621   6.591  0.0307  0.6850 -0.2676
  899MOL0     H18638   2.205  11.383   6.576 -0.1455  2.3579  1.0473
  899MOL0     H18639   2.346  11.356   6.467  0.8728  0.4670  0.8350
  899MOL0     H18640   2.092  11.535   6.449  0.1089 -0.3454  0.8109
  899MOL0     H18641   2.220  11.569   6.338 -0.2701 -0.1654 -0.7418
  899MOL0     H18642   2.101  11.285   6.371  0.2408  0.7587  2.0588
  899MOL0     H18643   2.164  11.347   6.215 -2.5258 -1.1707 -0.9763
  899MOL0     H18644   1.957  11.506   6.202  0.2713 -1.9919 -2.5443
  899MOL0     H18645   1.889  11.436   6.348 -2.7844  0.1015 -1.6076
  899MOL0     H18646   1.946  11.285   6.090 -1.1954 -1.7471 -0.6610
  899MOL0     H18647   1.903  11.209   6.236  2.6286 -0.1303 -0.6713
  899MOL0     H18648   1.745  11.422   6.091 -2.0767 -1.0775 -1.3093
  899MOL0     H18649   1.699  11.324   6.241 -2.0581  0.0129 -2.0777
  899MOL0     H18650   2.494  11.759   6.963 -0.2193 -0.6032  0.2421
  899MOL0     H18651   2.677  11.754   7.112  0.0694 -0.0091 -0.8270
  899MOL0     H18652   3.110  11.577   7.220 -1.7098  0.7204 -0.2688
  899MOL0     H18653   3.279  11.496   7.378  0.3748 -0.8321  1.8321
  899MOL0     H18654   4.118  11.254   8.238  0.2679  0.8633  0.3486
  899MOL0     H18655   4.300  11.066   8.188  1.5583  0.3131 -0.3769
  899MOL0     H18656   4.659  10.745   8.322 -0.3689 -0.8888 -1.6601
  899MOL0     H18657   4.844  10.625   8.246 -2.2145 -0.5582  0.8636
  899MOL0     H18658   5.102  10.858   7.951 -0.2344 -0.5285 -0.4132
  899MOL0     H18659   5.128  10.689   7.931 -0.2495 -0.9994  1.4864
  899MOL0     H18660   5.317  10.720   8.107 -1.1475 -0.3476  0.2584
  899MOL0     H18661   5.345  10.784   7.939 -1.3247 -3.3269 -0.0172
  899MOL0     H18662   5.219  10.953   8.156 -0.3083 -0.9715  2.1410
  899MOL0     H18663   5.300  11.014   8.009 -1.8162  0.7763  0.4337
  899MOL0     H18664   5.418  10.913   8.284  1.1894 -1.0578 -0.5849
  899MOL0     H18665   5.521  10.911   8.137 -0.3755  0.6045  0.0784
  899MOL0     H18666   5.492  11.312   8.252  1.3727  0.0488 -4.6482
  899MOL0     H18667   4.961  10.970   8.017 -0.2962  1.6398  1.2180
  899MOL0     H18668   4.745  11.067   8.073 -2.7715 -0.1973  0.7586
  900MOL0     O18669   7.917   1.794  10.060 -0.1246  0.6725 -0.5657
  900MOL0     C18670   8.031   1.837  10.055 -0.0548  0.9013 -0.2022
  900MOL0     O18671   8.094   1.886   9.933  0.3177 -0.0654  0.3620
  900MOL0     C18672   8.009   1.912   9.833 -0.3873  0.7427 -0.2663
  900MOL0     C18673   7.910   2.012   9.849  0.2916  0.0902 -0.3026
  900MOL0     C18674   7.833   2.055   9.739  0.6133  0.0217 -0.4081
  900MOL0     C18675   7.847   1.988   9.620  0.4063 -0.7672  0.0892
  900MOL0     O18676   7.765   2.018   9.513 -0.3809  0.4355 -0.0894
  900MOL0     C18677   7.632   2.051   9.533  0.6878 -0.4632  0.1344
  900MOL0     C18678   7.562   2.012   9.399 -0.6642  0.4153 -0.6302
  900MOL0     C18679   7.409   2.041   9.399 -0.0137 -0.4318  0.1070
  900MOL0     C18680   7.393   2.187   9.364 -0.3109 -0.0048 -0.2330
  900MOL0     C18681   7.256   2.229   9.383 -0.2888 -0.2500 -0.5477
  900MOL0     C18682   7.159   2.181   9.278  0.1629 -1.0272  0.7907
  900MOL0     C18683   7.023   2.248   9.288  0.1061  0.1748 -0.4164
  900MOL0     C18684   6.929   2.200   9.187  0.1099  0.4426 -0.0354
  900MOL0     N18685   6.805   2.277   9.191 -0.1268 -0.3198  0.0181
  900MOL0     C18686   6.759   2.350   9.290  0.6585  0.9348 -0.3159
  900MOL0     C18687   6.663   2.428   9.232 -0.3145  1.4126 -0.6918
  900MOL0     C18688   6.578   2.527   9.317 -0.3174  0.6172 -0.0335
  900MOL0     C18689   6.444   2.555   9.263  0.2491  0.3102  0.4286
  900MOL0     C18690   6.351   2.433   9.262 -0.2794 -0.8632  0.1241
  900MOL0     C18691   6.204   2.485   9.253  0.1743  0.3947  0.4704
  900MOL0     O18692   6.169   2.552   9.131 -0.3921 -0.4101 -0.1963
  900MOL0     C18693   6.040   2.564   9.101 -0.3309  0.9789 -0.0687
  900MOL0     C18694   5.941   2.576   9.199 -0.6346 -0.1931  0.0014
  900MOL0     C18695   5.811   2.572   9.158  0.7649 -0.7821 -0.1262
  900MOL0     C18696   5.771   2.543   9.026  0.4830 -0.6211 -0.0237
  900MOL0     C18697   5.627   2.535   8.983  0.1303  0.4036  0.3352
  900MOL0     O18698   5.530   2.590   9.067 -0.0095 -0.4945  0.2544
  900MOL0     C18699   5.399   2.589   9.021  0.7362 -0.6404  0.1378
  900MOL0     C18700   5.350   2.654   8.902  0.1294  0.3240 -0.0917
  900MOL0     C18701   5.206   2.649   8.861 -0.1803  0.6423  1.2861
  900MOL0     C18702   5.116   2.589   8.945 -0.5929 -0.8137 -0.6434
  900MOL0     O18703   4.983   2.594   8.910 -0.3082  0.0224  0.1471
  900MOL0     C18704   4.891   2.501   8.970  0.2068 -0.6229  0.7128
  900MOL0     C18705   4.920   2.355   8.912  0.3146  0.0845  0.4986
  900MOL0     C18706   4.817   2.254   8.977 -0.3022  0.0993  0.2917
  900MOL0     C18707   4.669   2.281   8.976 -0.0062 -0.7323  0.2224
  900MOL0     C18708   4.613   2.306   8.829  0.0217 -0.1307 -0.7289
  900MOL0     C18709   4.470   2.370   8.852 -0.8696  0.0422  0.6606
  900MOL0     C18710   4.371   2.252   8.868  0.6265 -0.9551  0.0939
  900MOL0     C18711   4.223   2.310   8.868 -0.4377 -0.0339  0.1645
  900MOL0    Cl18712   4.181   2.443   8.984 -0.6436  0.2881 -0.2705
  900MOL0     C18713   5.169   2.534   9.065  0.0111 -0.5348 -0.5353
  900MOL0     C18714   5.306   2.528   9.096 -0.1988 -0.0426  0.0305
  900MOL0     O18715   5.611   2.512   8.863  0.1469  0.4991 -0.0219
  900MOL0     C18716   5.870   2.540   8.932  0.6521  0.4381 -0.5551
  900MOL0     C18717   6.000   2.555   8.968  0.2595  0.4750  0.5121
  900MOL0     N18718   6.643   2.377   9.101  0.1421  0.1587  0.5273
  900MOL0     N18719   6.720   2.274   9.089  0.1031  0.1910  0.0384
  900MOL0     C18720   7.932   1.889   9.607  0.8034 -0.1928  0.3754
  900MOL0     C18721   8.014   1.850   9.712  0.2430 -0.3309 -0.0723
  900MOL0     C18722   8.108   1.841  10.174 -0.2978 -0.0971 -0.0553
  900MOL0     C18723   8.052   1.861  10.304 -0.1836 -0.4594  0.3489
  900MOL0     C18724   8.125   1.867  10.417 -0.4732 -0.1789 -0.1061
  900MOL0     C18725   8.263   1.860  10.410 -0.3759  0.2876 -1.1000
  900MOL0     O18726   8.329   1.868  10.524 -0.5505  1.0825 -0.1604
  900MOL0     C18727   8.463   1.812  10.543  0.0505 -0.0457  0.3451
  900MOL0     C18728   8.574   1.902  10.497  0.1614 -0.3047  0.1135
  900MOL0     C18729   8.702   1.827  10.497  0.4911 -0.0687  1.2871
  900MOL0     C18730   8.810   1.922  10.453 -0.3330  0.3450  0.1948
  900MOL0     C18731   8.938   1.849  10.466 -0.2216  0.4714  0.5906
  900MOL0     C18732   9.034   1.787  10.480 -0.5167  0.3716  0.1580
  900MOL0     C18733   8.321   1.845  10.286  0.6691  0.4477 -0.3705
  900MOL0     C18734   8.248   1.841  10.175 -0.0733 -0.1936  0.1814
  900MOL0     H18735   7.895   2.064   9.943  0.3834 -4.3088  2.4639
  900MOL0     H18736   7.764   2.139   9.744 -0.4010 -0.8076 -0.1389
  900MOL0     H18737   7.618   2.158   9.547  0.1551 -0.7166  1.7462
  900MOL0     H18738   7.578   2.001   9.614 -0.4838 -1.7116 -1.3263
  900MOL0     H18739   7.566   1.903   9.390 -0.4331  0.5295 -2.3518
  900MOL0     H18740   7.608   2.057   9.310  0.3733  1.6310  0.4842
  900MOL0     H18741   7.371   2.005   9.495  0.5871 -1.9483 -0.2007
  900MOL0     H18742   7.377   1.973   9.320  3.2646 -1.2407 -0.6642
  900MOL0     H18743   7.460   2.258   9.414  0.0991  0.2080 -1.0593
  900MOL0     H18744   7.420   2.196   9.258  1.4775  2.3166  0.3261
  900MOL0     H18745   7.249   2.339   9.385  1.3055 -0.1152 -0.8950
  900MOL0     H18746   7.228   2.192   9.482 -1.5824 -0.1630 -0.8719
  900MOL0     H18747   7.150   2.074   9.297  0.7278 -0.9334  1.6569
  900MOL0     H18748   7.190   2.211   9.178 -1.6052 -1.7275 -0.0100
  900MOL0     H18749   6.986   2.228   9.389  2.9013 -1.9074  0.3022
  900MOL0     H18750   7.031   2.356   9.275  0.6699  0.2142  0.1725
  900MOL0     H18751   6.901   2.099   9.217 -1.5110  0.5222 -1.1509
  900MOL0     H18752   6.965   2.214   9.085  2.3661  0.9742  0.7870
  900MOL0     H18753   6.802   2.368   9.388  2.3401  2.6872 -1.3120
  900MOL0     H18754   6.636   2.620   9.312  0.1824  0.2381 -2.8953
  900MOL0     H18755   6.565   2.496   9.421 -2.5428 -2.9909 -1.1987
  900MOL0     H18756   6.444   2.584   9.157  1.1015 -0.5576  0.1785
  900MOL0     H18757   6.407   2.636   9.326  1.2069  1.0391  0.0902
  900MOL0     H18758   6.360   2.369   9.174 -2.6072 -0.8042 -0.2257
  900MOL0     H18759   6.364   2.368   9.350 -2.8712 -4.4621 -1.8692
  900MOL0     H18760   6.180   2.544   9.342  1.2942  1.9548 -0.2183
  900MOL0     H18761   6.145   2.392   9.256  0.8247 -0.0113  0.9767
  900MOL0     H18762   5.980   2.598   9.298  0.0435  0.3321 -0.3655
  900MOL0     H18763   5.727   2.583   9.225  0.6190 -1.5278 -0.1798
  900MOL0     H18764   5.425   2.691   8.833  0.7799 -2.3614 -0.9649
  900MOL0     H18765   5.177   2.687   8.764  2.5137  0.3604  0.2727
  900MOL0     H18766   4.790   2.534   8.946  0.7382  0.6317  0.1322
  900MOL0     H18767   4.884   2.504   9.079 -1.9523 -0.3703  0.6199
  900MOL0     H18768   5.024   2.335   8.938  1.5999  3.8225 -1.0247
  900MOL0     H18769   4.908   2.348   8.803 -1.1151 -0.7796  0.6822
  900MOL0     H18770   4.845   2.252   9.082 -0.2134  2.0022  0.3387
  900MOL0     H18771   4.826   2.156   8.929  0.5206 -0.9613  2.5243
  900MOL0     H18772   4.614   2.202   9.027  1.1756  0.7723  4.2530
  900MOL0     H18773   4.652   2.374   9.031 -0.2534 -0.8701  0.3797
  900MOL0     H18774   4.618   2.212   8.773 -3.9318  0.7622 -2.9548
  900MOL0     H18775   4.663   2.385   8.772 -1.6658  1.1973 -0.4429
  900MOL0     H18776   4.460   2.425   8.758 -0.8053  3.8277  2.6654
  900MOL0     H18777   4.470   2.452   8.925  0.1782 -0.6027  1.4242
  900MOL0     H18778   4.392   2.182   8.786  4.3198 -1.2094  1.0828
  900MOL0     H18779   4.392   2.199   8.961  1.3995 -0.5536  0.1519
  900MOL0     H18780   4.155   2.228   8.894 -0.1008 -0.9584 -1.6988
  900MOL0     H18781   4.201   2.341   8.765  2.1830 -0.5285 -0.6212
  900MOL0     H18782   5.093   2.498   9.134  1.9516 -0.0606  2.0252
  900MOL0     H18783   5.347   2.483   9.186 -0.2117 -0.8056 -0.3425
  900MOL0     H18784   5.851   2.532   8.826  0.6313 -2.0364 -0.4262
  900MOL0     H18785   6.078   2.561   8.893  1.4755 -1.5227  1.5347
  900MOL0     H18786   7.956   1.837   9.515  0.3593  2.5774 -1.4629
  900MOL0     H18787   8.076   1.761   9.708  1.3905  0.4916 -2.3674
  900MOL0     H18788   7.946   1.882  10.314 -0.6231 -1.9732 -0.7754
  900MOL0     H18789   8.078   1.893  10.511  2.9614  0.7404  1.4963
  900MOL0     H18790   8.473   1.718  10.487 -3.2700  0.2878 -1.0197
  900MOL0     H18791   8.465   1.802  10.652  0.1513  4.1359  0.8849
  900MOL0     H18792   8.547   1.941  10.399 -0.4904 -0.6655  0.1418
  900MOL0     H18793   8.585   1.988  10.564  2.5008 -2.0343  2.1341
  900MOL0     H18794   8.686   1.744  10.428  0.7548 -0.4806  1.7159
  900MOL0     H18795   8.733   1.781  10.592  0.8107 -0.9795  0.7488
  900MOL0     H18796   8.793   1.943  10.347  2.1865 -2.5957 -0.9527
  900MOL0     H18797   8.807   2.007  10.521  1.2397  1.7319 -1.3815
  900MOL0     H18798   9.114   1.716  10.489 -0.8368 -0.3159 -1.8923
  900MOL0     H18799   8.429   1.840  10.272  0.5484 -1.7431 -0.8823
  900MOL0     H18800   8.310   1.830  10.087  2.1722  0.1401  1.6308
  901MOL0     O18801   6.551   4.305   7.201 -0.0199 -0.4061  0.6078
  901MOL0     C18802   6.649   4.374   7.252  0.5025  0.3152 -0.1178
  901MOL0     O18803   6.739   4.432   7.174  0.4197 -0.1755  0.3727
  901MOL0     C18804   6.691   4.510   7.072 -0.4884  0.2338  0.3910
  901MOL0     C18805   6.560   4.550   7.056 -0.0451  0.5181  0.7444
  901MOL0     C18806   6.524   4.640   6.955 -0.3352 -0.2637  0.0387
  901MOL0     C18807   6.628   4.685   6.859  0.4640  0.1814 -0.7965
  901MOL0     O18808   6.595   4.739   6.742 -1.5035  0.3214  0.1554
  901MOL0     C18809   6.460   4.764   6.697 -0.5324  0.1699  0.5442
  901MOL0     C18810   6.469   4.861   6.584  1.0059 -0.5535 -0.5325
  901MOL0     C18811   6.325   4.912   6.555 -0.2308 -0.3647 -0.7261
  901MOL0     C18812   6.315   5.009   6.440 -0.1484 -0.8238  0.5143
  901MOL0     C18813   6.175   5.061   6.423  0.4170  0.2971  0.6000
  901MOL0     C18814   6.173   5.158   6.300  0.5602 -0.0782  0.3695
  901MOL0     C18815   6.028   5.187   6.241 -0.6553  0.0112  0.0569
  901MOL0     C18816   6.022   5.313   6.148 -0.0466  0.2465  0.1164
  901MOL0     N18817   5.896   5.365   6.124 -0.1977 -0.6943 -0.1464
  901MOL0     C18818   5.816   5.327   6.028  0.2131 -0.9179  0.4259
  901MOL0     C18819   5.717   5.424   6.019 -1.2214  0.4253 -0.9754
  901MOL0     C18820   5.609   5.444   5.921 -0.1049  1.0523 -0.4410
  901MOL0     C18821   5.477   5.481   5.979  0.0655 -0.0822  0.0683
  901MOL0     C18822   5.382   5.526   5.870 -0.2200 -0.7692  0.2828
  901MOL0     C18823   5.243   5.529   5.926  0.0659 -0.6798 -0.0107
  901MOL0     O18824   5.159   5.550   5.809 -0.0808 -0.6858 -0.2647
  901MOL0     C18825   5.024   5.559   5.836  0.6111 -0.5080 -1.0395
  901MOL0     C18826   4.963   5.568   5.968  0.5197  0.0640 -0.1119
  901MOL0     C18827   4.830   5.574   5.970 -0.0537 -0.4046  0.8091
  901MOL0     C18828   4.749   5.593   5.853  0.1602  0.9191 -0.2299
  901MOL0     C18829   4.594   5.585   5.856 -0.6244 -0.0550 -0.5429
  901MOL0     O18830   4.536   5.585   5.732  0.4062 -0.3331 -0.3188
  901MOL0     C18831   4.404   5.606   5.697  0.2720 -0.0590  0.2216
  901MOL0     C18832   4.297   5.658   5.778  0.1756  0.6910 -0.3662
  901MOL0     C18833   4.172   5.686   5.727 -0.1329 -0.2206  1.8691
  901MOL0     C18834   4.144   5.652   5.590  0.4603  0.1950 -0.7574
  901MOL0     O18835   4.033   5.684   5.516  0.4798 -0.2089 -0.4207
  901MOL0     C18836   3.932   5.762   5.592  0.3727 -0.0584  0.8703
  901MOL0     C18837   3.833   5.673   5.675  0.8962 -0.1865  1.1168
  901MOL0     C18838   3.685   5.730   5.685  0.5424  0.8848  0.8058
  901MOL0     C18839   3.590   5.625   5.731  0.1706 -0.5987 -0.1733
  901MOL0     C18840   3.441   5.672   5.700 -0.7207  0.5652 -0.1366
  901MOL0     C18841   3.390   5.797   5.775 -0.1270  0.2829  0.3384
  901MOL0     C18842   3.238   5.816   5.743 -1.1492 -0.6934  0.0688
  901MOL0     C18843   3.143   5.720   5.815 -0.0830  0.7244 -0.0095
  901MOL0    Cl18844   3.153   5.748   5.988 -0.5659  0.2189  0.2595
  901MOL0     C18845   4.249   5.600   5.516 -0.1367 -0.3013  0.7166
  901MOL0     C18846   4.382   5.583   5.562  0.7726 -0.2186  0.6592
  901MOL0     O18847   4.536   5.593   5.969 -0.1799  0.3001 -0.4492
  901MOL0     C18848   4.807   5.592   5.729  0.7379  0.0853  0.0194
  901MOL0     C18849   4.946   5.575   5.724 -0.9229 -0.2863 -0.2654
  901MOL0     N18850   5.741   5.507   6.126 -0.3084  0.3934 -0.4693
  901MOL0     N18851   5.857   5.482   6.178  0.3749 -0.1332  0.5451
  901MOL0     C18852   6.753   4.633   6.869  0.4506 -0.1448  0.6159
  901MOL0     C18853   6.780   4.557   6.984  0.5635 -0.5497 -0.8068
  901MOL0     C18854   6.696   4.345   7.386  0.2916  0.5011 -0.3036
  901MOL0     C18855   6.622   4.251   7.457 -0.5060 -0.1452 -0.9222
  901MOL0     C18856   6.664   4.203   7.586 -0.0810 -1.1908 -0.0419
  901MOL0     C18857   6.778   4.246   7.643 -0.1676 -0.2760  0.2169
  901MOL0     O18858   6.803   4.192   7.773  0.2153 -0.5009  0.6294
  901MOL0     C18859   6.908   4.252   7.842  0.2761 -0.2480 -0.0994
  901MOL0     C18860   6.923   4.202   7.983  0.1437 -0.3391 -0.0145
  901MOL0     C18861   6.817   4.240   8.080  0.8854 -0.7148  0.0452
  901MOL0     C18862   6.791   4.384   8.083  0.6366  0.3852 -0.3037
  901MOL0     C18863   6.699   4.427   8.195 -0.1741 -0.0203  0.6670
  901MOL0     C18864   6.609   4.458   8.277  0.2612  0.8642  0.3350
  901MOL0     C18865   6.856   4.345   7.576 -0.9060 -0.6185 -0.2938
  901MOL0     C18866   6.812   4.399   7.449  0.3762 -0.0545  0.3852
  901MOL0     H18867   6.483   4.520   7.127  0.7296 -1.2799  0.8784
  901MOL0     H18868   6.423   4.679   6.946  0.2007  0.9676 -0.7930
  901MOL0     H18869   6.403   4.815   6.775  0.8889  0.2084  1.5855
  901MOL0     H18870   6.412   4.667   6.677 -1.5946  0.8171 -0.1515
  901MOL0     H18871   6.504   4.820   6.488  0.9357 -3.1764  0.4690
  901MOL0     H18872   6.531   4.944   6.619 -2.3320  2.8975 -2.0600
  901MOL0     H18873   6.291   4.948   6.652  1.5586 -2.6864  0.8598
  901MOL0     H18874   6.253   4.835   6.523 -3.0842  0.9602  1.9777
  901MOL0     H18875   6.383   5.094   6.453  2.0319 -2.7116  2.1945
  901MOL0     H18876   6.344   4.951   6.353 -0.1914 -0.0146 -0.0506
  901MOL0     H18877   6.145   5.120   6.510  0.8199  0.4700  0.6220
  901MOL0     H18878   6.117   4.971   6.402  1.8124 -0.9490  1.8474
  901MOL0     H18879   6.232   5.122   6.216  0.9213 -1.3094  1.1291
  901MOL0     H18880   6.210   5.258   6.325 -0.0915  0.6037 -1.3076
  901MOL0     H18881   5.994   5.097   6.188 -1.4962  0.4472 -0.1664
  901MOL0     H18882   5.965   5.190   6.331  0.7218 -4.1380  1.4171
  901MOL0     H18883   6.061   5.288   6.048  1.3229  0.5609  0.5480
  901MOL0     H18884   6.078   5.393   6.197 -1.0563  0.9251  0.1829
  901MOL0     H18885   5.824   5.242   5.961 -1.5969 -1.4822  0.8771
  901MOL0     H18886   5.593   5.350   5.867 -1.3063  3.3252 -4.3680
  901MOL0     H18887   5.634   5.519   5.846  1.5879 -2.7857 -4.0846
  901MOL0     H18888   5.486   5.573   6.037  1.1072 -0.5367  0.6520
  901MOL0     H18889   5.438   5.398   6.039  1.8496  0.4009  2.0150
  901MOL0     H18890   5.403   5.629   5.839 -2.9892 -0.1646  0.2186
  901MOL0     H18891   5.378   5.458   5.784  0.6280  1.2284 -1.4128
  901MOL0     H18892   5.226   5.617   5.988 -1.4304  1.0845 -2.7159
  901MOL0     H18893   5.227   5.432   5.973  1.4633 -0.9383 -0.0339
  901MOL0     H18894   5.014   5.567   6.064 -1.5350  1.5345  1.0875
  901MOL0     H18895   4.791   5.579   6.071  0.2502 -2.3091  1.0600
  901MOL0     H18896   4.313   5.694   5.879  1.5857  0.5796 -0.5312
  901MOL0     H18897   4.093   5.741   5.777  0.0578  0.5121  1.3822
  901MOL0     H18898   3.869   5.807   5.515  1.0171  1.6260  1.2573
  901MOL0     H18899   3.970   5.847   5.650 -1.2827  0.6954  0.9223
  901MOL0     H18900   3.877   5.671   5.776  1.5290  1.0772  0.8869
  901MOL0     H18901   3.830   5.572   5.632  1.2735  0.1386  0.3028
  901MOL0     H18902   3.659   5.759   5.583  0.7354 -1.0525  0.1780
  901MOL0     H18903   3.689   5.824   5.743 -2.3914  2.3279 -1.0851
  901MOL0     H18904   3.612   5.528   5.685 -1.0041 -0.3149 -1.4354
  901MOL0     H18905   3.607   5.605   5.837 -1.1353 -1.2711 -0.0718
  901MOL0     H18906   3.378   5.587   5.725 -2.8378  1.5387 -1.8730
  901MOL0     H18907   3.419   5.678   5.593  0.8916  3.2664 -0.4131
  901MOL0     H18908   3.447   5.880   5.732  1.3767 -1.2989 -0.8746
  901MOL0     H18909   3.414   5.790   5.882  2.7909  1.9474 -0.1038
  901MOL0     H18910   3.210   5.920   5.756 -0.3022 -0.5457  0.8162
  901MOL0     H18911   3.223   5.804   5.635 -1.3883  1.7151 -0.2185
  901MOL0     H18912   3.167   5.618   5.786  2.1104  1.0374  0.4631
  901MOL0     H18913   3.047   5.751   5.773 -0.8482 -0.5974  0.7232
  901MOL0     H18914   4.232   5.587   5.409 -0.5392 -2.3495  0.9948
  901MOL0     H18915   4.457   5.531   5.503  0.1382 -1.5230  0.9599
  901MOL0     H18916   4.745   5.609   5.641 -1.0386 -0.5459  1.0937
  901MOL0     H18917   4.998   5.570   5.629  1.3351 -1.8441  0.9802
  901MOL0     H18918   6.826   4.654   6.791 -1.7984 -0.8463 -1.8302
  901MOL0     H18919   6.887   4.548   7.002  0.2820 -2.6378  0.1520
  901MOL0     H18920   6.529   4.209   7.420  0.2726 -1.7277 -1.2009
  901MOL0     H18921   6.605   4.133   7.644 -2.2483 -1.7187 -2.6934
  901MOL0     H18922   6.910   4.362   7.843  1.7544 -0.2575  0.2072
  901MOL0     H18923   6.998   4.224   7.786 -1.4220  0.6466 -3.5717
  901MOL0     H18924   6.939   4.094   7.973  4.4347  0.2633 -1.8737
  901MOL0     H18925   7.022   4.236   8.017 -0.3671  2.7481 -1.2996
  901MOL0     H18926   6.853   4.214   8.180  0.7241 -5.4147 -0.8609
  901MOL0     H18927   6.718   4.198   8.060  0.0470  1.0585  0.2579
  901MOL0     H18928   6.888   4.434   8.096  1.2697 -0.2579 -2.3211
  901MOL0     H18929   6.741   4.419   7.992  0.7080 -1.7273 -1.2042
  901MOL0     H18930   6.534   4.490   8.346 -1.7646 -0.1541 -1.2621
  901MOL0     H18931   6.953   4.378   7.612  0.5691 -1.8391 -2.9125
  901MOL0     H18932   6.872   4.479   7.406  0.0003  0.0616  0.0815
  902MOL0     O18933   4.452   8.306   8.298 -0.2453 -0.6138 -0.5681
  902MOL0     C18934   4.489   8.251   8.194 -0.0239  0.4071  0.4379
  902MOL0     O18935   4.401   8.188   8.102  0.1180 -0.4258  0.2025
  902MOL0     C18936   4.269   8.230   8.109  0.1417 -0.0514 -0.2314
  902MOL0     C18937   4.226   8.359   8.104 -0.1170  0.8912 -0.3461
  902MOL0     C18938   4.091   8.385   8.104  0.2464 -0.2699  0.1499
  902MOL0     C18939   3.995   8.285   8.093  1.2373 -0.2116  0.1538
  902MOL0     O18940   3.860   8.305   8.083 -0.1054  0.2742 -1.3233
  902MOL0     C18941   3.803   8.344   8.215  0.1524 -0.4140  0.6689
  902MOL0     C18942   3.666   8.279   8.240  0.2032 -0.3921  0.5850
  902MOL0     C18943   3.640   8.236   8.386  0.2918 -0.3051 -0.2221
  902MOL0     C18944   3.650   8.359   8.487  0.3254  0.1638  0.1386
  902MOL0     C18945   3.591   8.328   8.632 -0.4495  0.2059 -0.9018
  902MOL0     C18946   3.582   8.456   8.711  0.4732 -0.1074 -0.4677
  902MOL0     C18947   3.524   8.421   8.846 -0.5034  0.4755 -0.1635
  902MOL0     C18948   3.502   8.546   8.926  0.3699  0.1930  0.0474
  902MOL0     N18949   3.472   8.535   9.073  0.2953 -0.2142  0.0439
  902MOL0     C18950   3.373   8.608   9.121  0.1644  1.1734 -0.3488
  902MOL0     C18951   3.355   8.569   9.250 -0.6341  0.0687 -0.5685
  902MOL0     C18952   3.253   8.622   9.345 -0.5939 -0.5335 -0.1844
  902MOL0     C18953   3.106   8.613   9.293 -0.2982  0.1283 -0.7411
  902MOL0     C18954   3.036   8.485   9.334  0.3719 -1.5009 -0.7641
  902MOL0     C18955   3.064   8.373   9.242 -0.0169  0.5042  0.0499
  902MOL0     O18956   3.012   8.410   9.108 -0.1137  0.4356 -0.0008
  902MOL0     C18957   2.875   8.398   9.080 -0.2171  0.1720  0.3457
  902MOL0     C18958   2.805   8.275   9.101  0.7718 -0.0189 -0.2169
  902MOL0     C18959   2.665   8.267   9.083  0.3977 -0.6428  0.2071
  902MOL0     C18960   2.588   8.385   9.043 -1.0633 -0.3655 -0.0394
  902MOL0     C18961   2.440   8.372   9.058 -0.0447  0.4204  0.2152
  902MOL0     O18962   2.389   8.246   9.061  0.2073 -0.4502 -0.2824
  902MOL0     C18963   2.258   8.229   9.074  0.3182  0.3687 -0.2312
  902MOL0     C18964   2.217   8.196   9.198  0.8251  0.1893  0.7687
  902MOL0     C18965   2.079   8.184   9.228  0.0026 -0.0530  1.0010
  902MOL0     C18966   1.982   8.211   9.124 -1.0866 -0.3151 -0.2840
  902MOL0     O18967   1.848   8.208   9.143  0.1276  0.4647  0.6356
  902MOL0     C18968   1.793   8.150   9.266 -0.3411 -0.4135  0.7256
  902MOL0     C18969   1.640   8.130   9.253 -0.2862  1.0661 -0.5016
  902MOL0     C18970   1.565   8.258   9.225  0.7404  0.6480  0.4449
  902MOL0     C18971   1.414   8.232   9.197 -0.1262  0.5419 -0.4679
  902MOL0     C18972   1.334   8.361   9.208 -0.1152 -0.6566 -1.5853
  902MOL0     C18973   1.189   8.347   9.170  0.2788 -0.2858 -0.0459
  902MOL0     C18974   1.114   8.483   9.141 -0.3480 -0.0328  0.2385
  902MOL0     C18975   0.990   8.476   9.054  0.1969  0.2016  0.4363
  902MOL0    Cl18976   0.866   8.379   9.142  0.1929 -0.1927  0.3110
  902MOL0     C18977   2.032   8.241   8.996 -0.6491 -0.5391 -0.0385
  902MOL0     C18978   2.170   8.242   8.969 -0.2942  0.6945 -0.5494
  902MOL0     O18979   2.374   8.471   9.034 -0.1232 -0.0239 -0.4177
  902MOL0     C18980   2.660   8.503   9.010 -0.7393 -0.0029  0.4144
  902MOL0     C18981   2.803   8.505   9.033  0.2992  0.4483  0.2098
  902MOL0     N18982   3.429   8.456   9.266  0.0312 -0.3857  0.1478
  902MOL0     N18983   3.507   8.442   9.165  0.4355  0.4253 -0.5782
  902MOL0     C18984   4.034   8.152   8.079  0.2433  0.1410 -0.2568
  902MOL0     C18985   4.171   8.128   8.101 -1.2573  0.2376  0.2389
  902MOL0     C18986   4.629   8.234   8.166  0.2867 -0.0789  0.4334
  902MOL0     C18987   4.673   8.135   8.074 -0.1799 -0.3526 -0.1258
  902MOL0     C18988   4.815   8.109   8.050 -0.0722  0.2512  0.5751
  902MOL0     C18989   4.908   8.175   8.133  0.0104 -0.0469 -0.6630
  902MOL0     O18990   5.042   8.147   8.121  1.0412  0.4390  0.2247
  902MOL0     C18991   5.064   8.015   8.152 -0.2280 -0.1468 -0.1363
  902MOL0     C18992   5.212   7.999   8.196 -0.2632  0.1990 -0.1800
  902MOL0     C18993   5.261   7.848   8.207  0.1413 -0.9343 -0.2304
  902MOL0     C18994   5.411   7.840   8.183 -0.6244  0.6240  0.1395
  902MOL0     C18995   5.491   7.909   8.283  0.1833 -0.2667  0.2490
  902MOL0     C18996   5.558   7.965   8.370 -0.1942 -0.1094 -0.4024
  902MOL0     C18997   4.861   8.267   8.221 -0.5056 -0.7128 -0.1573
  902MOL0     C18998   4.725   8.296   8.245 -0.2215  0.2515 -0.4637
  902MOL0     H18999   4.300   8.434   8.078  2.2637 -1.4759 -0.7892
  902MOL0     H19000   4.063   8.490   8.095 -0.3627 -0.6278 -3.2305
  902MOL0     H19001   3.770   8.447   8.199 -1.2582 -0.9390  0.0172
  902MOL0     H19002   3.877   8.341   8.296  1.0504  3.1109  0.1486
  902MOL0     H19003   3.670   8.189   8.179  0.5161 -1.7767  2.5382
  902MOL0     H19004   3.596   8.356   8.207  0.3742 -0.5386 -0.1274
  902MOL0     H19005   3.716   8.163   8.415  1.2690  0.9870  0.5430
  902MOL0     H19006   3.540   8.191   8.393 -0.4606  1.4122  0.9925
  902MOL0     H19007   3.754   8.394   8.495  0.5015 -0.6978  2.6366
  902MOL0     H19008   3.587   8.438   8.446 -0.1666 -0.5554 -0.4892
  902MOL0     H19009   3.660   8.271   8.696  0.4568 -0.8539 -2.7462
  902MOL0     H19010   3.489   8.290   8.630 -0.3936  0.0963 -2.2077
  902MOL0     H19011   3.504   8.512   8.660 -0.9370 -1.3896  0.2101
  902MOL0     H19012   3.671   8.520   8.704  0.7031 -0.5899 -2.6367
  902MOL0     H19013   3.429   8.366   8.845  0.3063 -1.0157  1.1983
  902MOL0     H19014   3.587   8.352   8.903 -2.0425  0.2497  1.3711
  902MOL0     H19015   3.419   8.596   8.876  1.0525  0.7527 -0.5531
  902MOL0     H19016   3.591   8.609   8.919  0.9196 -0.5553  0.1755
  902MOL0     H19017   3.328   8.689   9.065 -1.6315  1.3241  1.2213
  902MOL0     H19018   3.276   8.726   9.369 -0.0959 -1.0763  1.9086
  902MOL0     H19019   3.267   8.567   9.438  0.3715 -0.5268 -0.3190
  902MOL0     H19020   3.108   8.612   9.184 -1.8222 -3.8684 -0.9107
  902MOL0     H19021   3.044   8.698   9.322 -0.3784 -0.2281  0.1621
  902MOL0     H19022   3.066   8.456   9.435  0.6843 -3.3420 -1.3583
  902MOL0     H19023   2.928   8.503   9.341  0.2477 -1.7404 -1.8999
  902MOL0     H19024   3.001   8.290   9.275  1.5464 -1.8509 -2.5192
  902MOL0     H19025   3.172   8.360   9.240  0.3730  2.7246  2.1598
  902MOL0     H19026   2.844   8.179   9.133 -1.6609 -0.4129  1.8559
  902MOL0     H19027   2.617   8.172   9.107 -1.0806 -1.0683 -3.7036
  902MOL0     H19028   2.290   8.179   9.276  1.0449  0.9136  0.7301
  902MOL0     H19029   2.059   8.169   9.333  0.4368 -2.4830  0.7817
  902MOL0     H19030   1.822   8.208   9.354  0.9820  0.4660 -0.2475
  902MOL0     H19031   1.850   8.057   9.274 -0.2039 -0.2786  1.3651
  902MOL0     H19032   1.594   8.095   9.345 -1.4624 -0.6541 -1.6739
  902MOL0     H19033   1.607   8.047   9.189  2.4740 -1.3485  0.9902
  902MOL0     H19034   1.607   8.317   9.143 -4.5040  3.8617 -0.4054
  902MOL0     H19035   1.577   8.323   9.312 -0.7704  1.9696 -0.2861
  902MOL0     H19036   1.399   8.189   9.098  0.0152  0.0656 -0.2868
  902MOL0     H19037   1.369   8.166   9.272 -0.5097  0.8295 -0.4416
  902MOL0     H19038   1.381   8.437   9.145  0.1735  2.9440  2.4609
  902MOL0     H19039   1.355   8.415   9.301 -1.0100  1.0645 -2.3400
  902MOL0     H19040   1.128   8.285   9.236 -0.5666 -1.4827 -1.8909
  902MOL0     H19041   1.199   8.300   9.072 -1.1529 -0.8266  0.0431
  902MOL0     H19042   1.083   8.518   9.241  0.9980  2.2648 -0.0770
  902MOL0     H19043   1.175   8.564   9.100 -1.1719  1.3301  1.5647
  902MOL0     H19044   1.008   8.425   8.959  1.4349  3.0727 -1.0148
  902MOL0     H19045   0.944   8.574   9.042  1.3308  0.9835  2.1207
  902MOL0     H19046   1.957   8.258   8.919 -0.2450 -3.4843 -1.2469
  902MOL0     H19047   2.209   8.263   8.870 -0.6458  4.7606  0.0006
  902MOL0     H19048   2.602   8.588   8.975 -0.5367  0.6213  1.5484
  902MOL0     H19049   2.853   8.601   9.021  2.9596 -0.6063  1.9922
  902MOL0     H19050   3.962   8.072   8.069  3.0477 -2.6691  0.5260
  902MOL0     H19051   4.212   8.028   8.098 -3.3121 -0.6466 -0.5401
  902MOL0     H19052   4.596   8.077   8.024 -0.2343  0.3480 -0.8847
  902MOL0     H19053   4.838   8.035   7.974 -2.4537  0.0229 -0.0079
  902MOL0     H19054   5.053   7.958   8.060 -2.0550 -2.6657  1.4953
  902MOL0     H19055   4.996   7.981   8.231 -1.6574  1.9134 -0.4127
  902MOL0     H19056   5.279   8.047   8.123  1.5950  0.2299  1.4495
  902MOL0     H19057   5.217   8.047   8.294  0.8339 -0.6172  0.1816
  902MOL0     H19058   5.217   7.775   8.138 -0.1270 -0.6661 -0.3463
  902MOL0     H19059   5.241   7.806   8.306 -0.2450 -0.4754 -0.1038
  902MOL0     H19060   5.427   7.732   8.180  0.8302  0.8373 -1.1735
  902MOL0     H19061   5.427   7.877   8.082  0.1543 -1.6367 -0.6066
  902MOL0     H19062   5.635   8.007   8.433  3.2121 -3.0966 -2.1909
  902MOL0     H19063   4.938   8.323   8.273 -0.0838 -1.5777  0.1813
  902MOL0     H19064   4.710   8.360   8.332  1.2179 -1.4710  1.1666
  903MOL0     O19065   5.116   0.140  11.190  0.4374 -0.3099 -0.9598
  903MOL0     C19066   5.165   0.253  11.184 -0.2372  0.3412  0.0175
  903MOL0     O19067   5.234   0.305  11.292  0.4917  1.1428  0.3545
  903MOL0     C19068   5.250   0.211  11.394 -0.2662 -0.1295  0.5225
  903MOL0     C19069   5.165   0.225  11.500 -0.0863  0.7945  0.1532
  903MOL0     C19070   5.177   0.131  11.604  1.1255 -0.0516 -0.4052
  903MOL0     C19071   5.271   0.024  11.616  0.6555 -0.6347  0.1394
  903MOL0     O19072   5.263  -0.052  11.731  0.4057 -0.2044 -1.1369
  903MOL0     C19073   5.382  -0.135  11.759 -0.4005  0.3153  0.0618
  903MOL0     C19074   5.374  -0.184  11.904 -0.8585  0.1488 -1.1450
  903MOL0     C19075   5.509  -0.254  11.941 -0.0190  0.3310 -0.1755
  903MOL0     C19076   5.491  -0.346  12.064 -0.6060  0.1747  0.6054
  903MOL0     C19077   5.633  -0.390  12.107 -0.4266  0.6996  0.2425
  903MOL0     C19078   5.637  -0.498  12.222  0.1511 -0.3418 -0.3364
  903MOL0     C19079   5.589  -0.636  12.183 -0.0785 -0.7327 -0.2521
  903MOL0     C19080   5.565  -0.742  12.296 -0.5022 -0.5082  0.5109
  903MOL0     N19081   5.488  -0.678  12.401  0.1644 -0.3302 -0.1893
  903MOL0     C19082   5.370  -0.615  12.382  0.2102  0.1298  0.2499
  903MOL0     C19083   5.358  -0.538  12.488  0.9793 -0.5786 -0.0753
  903MOL0     C19084   5.236  -0.445  12.508  0.2280  0.3813 -0.0873
  903MOL0     C19085   5.194  -0.384  12.376  0.4331 -0.0354 -0.2365
  903MOL0     C19086   5.068  -0.303  12.406 -0.6502  0.5607  0.5157
  903MOL0     C19087   5.047  -0.194  12.294 -0.5055 -0.4982  1.0925
  903MOL0     O19088   5.015  -0.243  12.160 -0.4440  0.4510 -0.1505
  903MOL0     C19089   4.962  -0.141  12.081  0.3982 -0.1929 -0.2929
  903MOL0     C19090   4.831  -0.133  12.041  0.5309  0.3865  0.4002
  903MOL0     C19091   4.790  -0.021  11.972  0.2703  0.1438  0.1697
  903MOL0     C19092   4.877   0.074  11.921 -0.1116 -1.4449  0.2737
  903MOL0     C19093   4.827   0.192  11.850  0.1893 -0.4150  0.4004
  903MOL0     O19094   4.684   0.204  11.835 -0.6824 -0.1660  0.8698
  903MOL0     C19095   4.634   0.317  11.774  0.2355 -0.1070  0.1193
  903MOL0     C19096   4.666   0.451  11.808  0.0389 -0.4557  0.7040
  903MOL0     C19097   4.598   0.556  11.743  0.8809 -0.0795 -0.5088
  903MOL0     C19098   4.500   0.531  11.651 -1.0363 -0.0364  0.7841
  903MOL0     O19099   4.426   0.636  11.598  0.1266 -0.1636 -0.1587
  903MOL0     C19100   4.381   0.623  11.454  0.8157 -0.2649 -0.5612
  903MOL0     C19101   4.232   0.673  11.443 -0.7339 -0.0039  0.1582
  903MOL0     C19102   4.216   0.832  11.471 -0.7376  0.3038 -0.0133
  903MOL0     C19103   4.072   0.878  11.443  0.2127 -0.2429  0.3809
  903MOL0     C19104   4.067   1.039  11.459  0.5382  1.3515 -0.8116
  903MOL0     C19105   3.928   1.101  11.432  0.7021  0.4357  0.0337
  903MOL0     C19106   3.839   1.091  11.561 -0.3056  0.0119 -0.4964
  903MOL0     C19107   3.714   1.180  11.549  1.3027 -0.5549 -0.3036
  903MOL0    Cl19108   3.606   1.109  11.427 -0.3498  0.0140 -0.3966
  903MOL0     C19109   4.470   0.396  11.608 -0.5816  0.4078 -1.1000
  903MOL0     C19110   4.531   0.288  11.678 -0.4376 -0.2079  0.2017
  903MOL0     O19111   4.921   0.258  11.797  1.2524  0.0712  0.7031
  903MOL0     C19112   5.013   0.064  11.953 -0.5386 -0.3762 -0.0453
  903MOL0     C19113   5.047  -0.046  12.029 -0.1021  0.9780  0.4211
  903MOL0     N19114   5.464  -0.575  12.575  1.2147  0.2965 -0.4124
  903MOL0     N19115   5.532  -0.665  12.522 -0.1579  0.4299 -0.4692
  903MOL0     C19116   5.355   0.020  11.502 -0.1526  0.3128  0.4273
  903MOL0     C19117   5.347   0.110  11.393 -0.1144 -0.2352 -0.1203
  903MOL0     C19118   5.140   0.332  11.052 -0.2983 -0.2560 -0.6235
  903MOL0     C19119   5.045   0.289  10.955 -0.0172 -0.8851 -0.7170
  903MOL0     C19120   5.033   0.351  10.834  0.1435 -0.3251 -0.5104
  903MOL0     C19121   5.110   0.467  10.808 -0.4748 -0.6429 -0.7337
  903MOL0     O19122   5.076   0.536  10.686  0.0887 -0.0609 -0.2531
  903MOL0     C19123   5.164   0.643  10.642  0.1737  0.1973  0.3676
  903MOL0     C19124   5.132   0.779  10.707  0.4510  0.0867  0.9471
  903MOL0     C19125   4.987   0.827  10.672 -0.7436 -0.3645  0.2277
  903MOL0     C19126   4.923   0.901  10.788 -0.1544 -0.9554 -0.4236
  903MOL0     C19127   4.778   0.921  10.759 -0.3756  0.6008 -0.0196
  903MOL0     C19128   4.659   0.924  10.762  0.1837  0.6055 -0.2001
  903MOL0     C19129   5.196   0.518  10.905 -0.4566  1.1781 -0.5395
  903MOL0     C19130   5.210   0.457  11.025  0.4018  0.5321 -0.5425
  903MOL0     H19131   5.077   0.289  11.496 -0.2465  0.5333 -0.4725
  903MOL0     H19132   5.104   0.126  11.684 -0.5817 -1.7776 -1.9568
  903MOL0     H19133   5.467  -0.065  11.756 -1.9631  2.2726 -1.2315
  903MOL0     H19134   5.392  -0.219  11.690 -0.4309  0.3891 -0.0319
  903MOL0     H19135   5.303  -0.266  11.919  1.9384 -2.5256 -1.4290
  903MOL0     H19136   5.354  -0.100  11.971  0.9838 -0.1468 -0.1695
  903MOL0     H19137   5.592  -0.188  11.968  1.5008 -1.9878  1.0908
  903MOL0     H19138   5.543  -0.312  11.855  3.0944  2.6777 -0.7312
  903MOL0     H19139   5.434  -0.303  12.146 -1.0824 -0.4062  0.5862
  903MOL0     H19140   5.434  -0.433  12.031 -0.0544  0.9187 -2.6875
  903MOL0     H19141   5.697  -0.308  12.140  4.2478 -1.8632 -1.5910
  903MOL0     H19142   5.684  -0.434  12.021  0.4358 -1.5554  1.8161
  903MOL0     H19143   5.571  -0.463  12.302  0.9145 -0.5917  0.4199
  903MOL0     H19144   5.738  -0.508  12.265 -0.7498 -1.9417  1.5871
  903MOL0     H19145   5.495  -0.628  12.127  0.0479 -0.2484 -0.3943
  903MOL0     H19146   5.652  -0.684  12.108 -0.7317 -1.0326 -0.6148
  903MOL0     H19147   5.664  -0.771  12.334  2.1808  3.9245 -2.1303
  903MOL0     H19148   5.524  -0.831  12.249  1.3408 -1.2855  0.3005
  903MOL0     H19149   5.309  -0.620  12.292 -1.6254 -1.0482  1.4674
  903MOL0     H19150   5.271  -0.363  12.571  0.8340  1.2321 -1.4833
  903MOL0     H19151   5.150  -0.494  12.554  1.4063  1.7748  3.9979
  903MOL0     H19152   5.168  -0.463  12.305  0.5680  0.3574 -0.7279
  903MOL0     H19153   5.273  -0.316  12.341 -0.8718  2.6390  1.6407
  903MOL0     H19154   4.987  -0.371  12.432 -1.4670  0.8146 -1.2651
  903MOL0     H19155   5.090  -0.248  12.499  0.5578  1.0516 -0.0419
  903MOL0     H19156   5.134  -0.128  12.285 -3.0561  2.7569 -2.4488
  903MOL0     H19157   4.961  -0.128  12.306 -0.1659  0.9750 -3.0175
  903MOL0     H19158   4.760  -0.213  12.059  2.7568 -2.4573 -2.4687
  903MOL0     H19159   4.689  -0.007  11.935  0.8933  4.0592 -0.6014
  903MOL0     H19160   4.748   0.467  11.876  1.8216  0.6474 -1.5828
  903MOL0     H19161   4.611   0.659  11.776  1.6221 -0.2051 -0.3786
  903MOL0     H19162   4.386   0.522  11.414 -1.2966 -0.1914 -1.1385
  903MOL0     H19163   4.451   0.684  11.395  2.1433  0.2295  1.4176
  903MOL0     H19164   4.167   0.612  11.505  0.8009 -2.0522 -0.1547
  903MOL0     H19165   4.201   0.662  11.338  0.6635  2.1994 -0.5591
  903MOL0     H19166   4.292   0.883  11.411  0.8045 -1.6713  0.1488
  903MOL0     H19167   4.237   0.845  11.578  0.1879  0.4013 -0.1961
  903MOL0     H19168   4.059   0.852  11.338  4.4965 -1.5185 -0.0330
  903MOL0     H19169   3.995   0.823  11.499  0.7056 -0.5171  0.8049
  903MOL0     H19170   4.136   1.073  11.381  0.8981 -1.0765 -1.6550
  903MOL0     H19171   4.109   1.078  11.551 -1.1922 -0.8916  1.0569
  903MOL0     H19172   3.891   1.041  11.348  5.2691 -5.4744  1.5387
  903MOL0     H19173   3.950   1.207  11.417  2.6656  0.2480  1.1960
  903MOL0     H19174   3.808   0.990  11.588  1.5833 -0.4673 -0.0080
  903MOL0     H19175   3.896   1.132  11.645 -1.1644  1.0690 -0.3924
  903MOL0     H19176   3.735   1.285  11.527 -2.0910  0.2952 -0.1274
  903MOL0     H19177   3.667   1.180  11.648  0.5593 -4.3057 -0.4998
  903MOL0     H19178   4.387   0.368  11.544  0.3144 -2.8049 -0.9979
  903MOL0     H19179   4.508   0.185  11.652  1.0438 -0.0449 -2.0178
  903MOL0     H19180   5.091   0.132  11.922  1.1559 -2.7553 -1.2840
  903MOL0     H19181   5.153  -0.064  12.042  0.2878  3.0810  0.3520
  903MOL0     H19182   5.434  -0.055  11.510 -0.5370 -0.2281 -0.5972
  903MOL0     H19183   5.413   0.132  11.309  0.0755  1.6791  0.4852
  903MOL0     H19184   4.980   0.204  10.974  0.4359 -1.0548  0.1238
  903MOL0     H19185   4.966   0.329  10.752  2.5862 -0.5910 -2.5690
  903MOL0     H19186   5.158   0.645  10.533 -0.5438 -1.7342  0.3265
  903MOL0     H19187   5.268   0.618  10.662 -0.4005 -1.8920  1.0033
  903MOL0     H19188   5.144   0.789  10.816 -0.1239  1.3791  0.9050
  903MOL0     H19189   5.196   0.850  10.654  2.0922  0.0556  2.7699
  903MOL0     H19190   4.916   0.746  10.654 -2.6698  1.4414 -0.8203
  903MOL0     H19191   4.981   0.887  10.580 -2.0301  0.2725  0.6884
  903MOL0     H19192   4.934   0.844  10.881  0.9988 -1.0185 -0.5917
  903MOL0     H19193   4.965   0.999  10.813 -1.9004  0.2058 -1.7881
  903MOL0     H19194   4.554   0.943  10.757 -0.0776  0.1897  2.5122
  903MOL0     H19195   5.261   0.603  10.883  0.0279  1.5239  1.9192
  903MOL0     H19196   5.287   0.487  11.096  1.7598 -0.9695 -1.3005
  904MOL0     O19197   9.004   5.828   3.587  0.0030  0.1065 -0.8278
  904MOL0     C19198   8.948   5.752   3.671  0.7295 -0.2965  0.3013
  904MOL0     O19199   9.008   5.708   3.782  0.5731 -0.4620  0.2555
  904MOL0     C19200   9.137   5.737   3.820 -0.3104 -0.1397  0.0203
  904MOL0     C19201   9.144   5.810   3.943  0.2365 -0.3678 -0.4628
  904MOL0     C19202   9.278   5.821   4.001 -0.1186 -0.3461 -0.3678
  904MOL0     C19203   9.381   5.762   3.940  0.4302  0.4449  0.4501
  904MOL0     O19204   9.509   5.775   3.993 -0.4025  0.3005 -0.6153
  904MOL0     C19205   9.529   5.696   4.114  0.1512  0.3740  0.5224
  904MOL0     C19206   9.662   5.722   4.172 -0.3429 -0.2234 -0.1373
  904MOL0     C19207   9.681   5.866   4.222 -0.5412 -0.2880  0.5016
  904MOL0     C19208   9.819   5.885   4.278 -0.0968 -0.2721  0.3187
  904MOL0     C19209   9.934   5.860   4.167 -0.3478 -0.0743 -0.0654
  904MOL0     C19210  10.068   5.844   4.236  0.4220 -1.2748  0.3512
  904MOL0     C19211  10.071   5.720   4.323 -0.7985 -0.5335  0.6489
  904MOL0     C19212  10.122   5.595   4.242 -0.3251 -1.1731  0.3121
  904MOL0     N19213  10.064   5.468   4.296  0.1296 -0.2170  0.4304
  904MOL0     C19214   9.972   5.388   4.240 -0.1435 -0.4297  0.8089
  904MOL0     C19215   9.981   5.271   4.315 -0.4341 -0.3525  0.0979
  904MOL0     C19216   9.899   5.148   4.294 -0.5180  0.9151 -0.1638
  904MOL0     C19217   9.900   5.075   4.427  0.3816 -0.5095 -0.1620
  904MOL0     C19218   9.789   4.966   4.415  0.8092 -1.1962 -0.7521
  904MOL0     C19219   9.813   4.860   4.300  0.4154  0.5789 -0.6213
  904MOL0     O19220   9.700   4.768   4.300  0.5209 -0.3326 -0.6195
  904MOL0     C19221   9.578   4.822   4.264 -0.1797  0.6961  0.5765
  904MOL0     C19222   9.558   4.883   4.140 -0.0500  0.4114  0.5101
  904MOL0     C19223   9.434   4.923   4.101  0.4665  0.8413 -0.5744
  904MOL0     C19224   9.324   4.910   4.193 -0.0655 -0.4603 -0.4954
  904MOL0     C19225   9.177   4.938   4.146 -0.4331  0.3221  0.0968
  904MOL0     O19226   9.084   4.943   4.239  0.4795 -0.8743 -0.1440
  904MOL0     C19227   8.955   4.981   4.224  0.1243  0.1322 -0.7989
  904MOL0     C19228   8.871   4.952   4.333 -0.6619  0.8515 -0.1432
  904MOL0     C19229   8.735   4.989   4.331 -0.9930  0.1322 -0.4195
  904MOL0     C19230   8.676   5.048   4.215  0.5689 -0.6667 -0.1278
  904MOL0     O19231   8.543   5.082   4.200  0.1645  0.3680 -0.6774
  904MOL0     C19232   8.451   5.043   4.309 -0.1938 -0.2729 -0.0438
  904MOL0     C19233   8.300   5.048   4.265 -0.0800  0.5645 -0.0933
  904MOL0     C19234   8.213   4.974   4.370  0.9090 -0.0801  0.3802
  904MOL0     C19235   8.063   4.996   4.341 -0.8282  0.1113  1.2706
  904MOL0     C19236   7.970   4.941   4.443 -0.5626 -0.1683  0.4937
  904MOL0     C19237   7.999   4.971   4.594  0.2296  0.1810 -0.3034
  904MOL0     C19238   7.894   4.910   4.682  0.7648 -0.2323  0.2703
  904MOL0     C19239   7.952   4.886   4.823  0.4876  0.1877  0.3558
  904MOL0    Cl19240   7.837   4.791   4.920  0.2535  0.0709 -0.1696
  904MOL0     C19241   8.759   5.078   4.104 -0.0872 -0.3897 -0.8666
  904MOL0     C19242   8.900   5.054   4.114  0.4554  0.5201 -0.0044
  904MOL0     O19243   9.157   4.960   4.025  0.4551 -0.0918  0.8737
  904MOL0     C19244   9.344   4.857   4.320  0.7176 -0.0136 -0.0090
  904MOL0     C19245   9.470   4.811   4.347  0.2511  0.7241 -0.3739
  904MOL0     N19246  10.077   5.290   4.409  0.0278 -0.4738 -0.1346
  904MOL0     N19247  10.121   5.407   4.401 -0.2556  1.1202 -0.0715
  904MOL0     C19248   9.371   5.697   3.820  0.0742 -0.2127  1.3974
  904MOL0     C19249   9.250   5.682   3.758 -0.3068  0.4941  0.3468
  904MOL0     C19250   8.806   5.697   3.634 -0.4391 -1.0175  0.4547
  904MOL0     C19251   8.726   5.764   3.539  0.1936  0.3704  0.0812
  904MOL0     C19252   8.585   5.735   3.524  0.0140 -1.0535 -0.5384
  904MOL0     C19253   8.530   5.629   3.598  0.4304  0.0854  0.3197
  904MOL0     O19254   8.397   5.602   3.560 -0.1868 -0.5835  0.1095
  904MOL0     C19255   8.342   5.478   3.598 -0.1374 -0.3873 -0.6899
  904MOL0     C19256   8.263   5.416   3.469 -0.3934  0.5243  0.8953
  904MOL0     C19257   8.351   5.382   3.347 -1.4680  0.0922  0.0695
  904MOL0     C19258   8.283   5.354   3.215  0.4132 -0.6810  1.4709
  904MOL0     C19259   8.182   5.252   3.235  1.1126 -0.0257  0.3880
  904MOL0     C19260   8.101   5.161   3.241  1.0318 -0.4640  0.4449
  904MOL0     C19261   8.608   5.561   3.687 -0.2338  0.2315 -0.3174
  904MOL0     C19262   8.746   5.590   3.705 -0.2107  0.1022  0.3318
  904MOL0     H19263   9.051   5.843   3.989 -1.6923 -3.1546 -2.0449
  904MOL0     H19264   9.301   5.888   4.083 -1.7161 -0.0615 -0.1056
  904MOL0     H19265   9.507   5.589   4.104 -0.4399  0.6622 -1.6597
  904MOL0     H19266   9.459   5.748   4.180  1.8356  0.9343  1.9507
  904MOL0     H19267   9.718   5.694   4.083 -2.1028 -1.8846 -0.7980
  904MOL0     H19268   9.694   5.654   4.252  0.4002  0.9880  0.6330
  904MOL0     H19269   9.619   5.895   4.307  3.3340  1.4927  2.9993
  904MOL0     H19270   9.669   5.934   4.137  0.4355 -0.7480 -0.0203
  904MOL0     H19271   9.839   5.991   4.297  0.2908 -0.3606  0.4219
  904MOL0     H19272   9.827   5.822   4.367 -0.0896 -2.5006 -1.1752
  904MOL0     H19273   9.933   5.948   4.102  1.2794  0.9925  1.2802
  904MOL0     H19274   9.918   5.769   4.108 -0.0909 -0.0930 -0.1081
  904MOL0     H19275  10.088   5.926   4.306 -2.5461  0.0527 -0.2129
  904MOL0     H19276  10.153   5.846   4.167 -0.9397 -0.2346 -1.4087
  904MOL0     H19277  10.138   5.745   4.406 -1.8718  2.0682  0.8336
  904MOL0     H19278   9.974   5.692   4.365 -2.3950  2.9455 -0.3440
  904MOL0     H19279  10.231   5.600   4.236 -0.1798  4.6162  1.9289
  904MOL0     H19280  10.080   5.611   4.142 -0.0552 -3.0279 -0.1416
  904MOL0     H19281   9.909   5.410   4.155  1.0259  1.1134  0.2953
  904MOL0     H19282   9.939   5.093   4.209  2.1660 -0.1594  1.6498
  904MOL0     H19283   9.796   5.176   4.271 -0.9400 -0.3580  0.0605
  904MOL0     H19284   9.865   5.136   4.510  0.8690 -0.4794  0.0231
  904MOL0     H19285   9.993   5.024   4.454 -0.2712 -1.4247  0.4009
  904MOL0     H19286   9.784   4.936   4.520  0.9341  2.5180  0.4772
  904MOL0     H19287   9.695   5.020   4.398  1.9662  1.0333 -0.5210
  904MOL0     H19288   9.901   4.801   4.327 -1.3040 -1.9774 -0.1676
  904MOL0     H19289   9.831   4.909   4.204  1.8719  1.7139  0.2098
  904MOL0     H19290   9.636   4.883   4.064  0.5490 -0.1764  1.1185
  904MOL0     H19291   9.418   4.960   4.000  1.0510  1.6443 -0.3837
  904MOL0     H19292   8.913   4.892   4.414  0.3319  1.8554  0.1063
  904MOL0     H19293   8.681   4.973   4.424 -2.5889 -0.5100 -1.4262
  904MOL0     H19294   8.463   5.103   4.399 -1.7330  1.6525 -1.0417
  904MOL0     H19295   8.480   4.941   4.337  1.6434  0.8409  2.5149
  904MOL0     H19296   8.291   4.999   4.168  1.6966  0.0217 -0.0149
  904MOL0     H19297   8.253   5.146   4.256 -0.0226  0.9199  2.6011
  904MOL0     H19298   8.231   5.020   4.468 -0.1501  0.6213  0.2653
  904MOL0     H19299   8.243   4.869   4.371  0.2003 -0.2929 -0.1842
  904MOL0     H19300   8.048   5.104   4.345  1.0082  0.6001 -1.7240
  904MOL0     H19301   8.052   4.956   4.240  2.8158 -0.0252  0.7790
  904MOL0     H19302   7.971   4.833   4.429  1.1111 -0.0501 -0.5507
  904MOL0     H19303   7.873   4.989   4.423  0.5242  2.0421  0.2685
  904MOL0     H19304   7.998   5.079   4.610 -1.1855  0.0350  0.8191
  904MOL0     H19305   8.102   4.943   4.617  0.5080  1.5594  0.2400
  904MOL0     H19306   7.816   4.986   4.690 -0.7780 -1.8239  0.8368
  904MOL0     H19307   7.855   4.819   4.635 -1.2264 -0.9186  3.0293
  904MOL0     H19308   7.964   4.986   4.865  1.6334  0.5061 -0.6957
  904MOL0     H19309   8.049   4.836   4.815 -0.4705 -1.8739  0.9360
  904MOL0     H19310   8.715   5.121   4.015 -0.6788  0.9071  0.0218
  904MOL0     H19311   8.970   5.101   4.046  0.2701  2.6612  1.1921
  904MOL0     H19312   9.262   4.834   4.387 -0.6323  0.2862 -1.5014
  904MOL0     H19313   9.492   4.770   4.445  0.1062 -1.2153 -1.1059
  904MOL0     H19314   9.461   5.648   3.784 -1.3490 -0.8403 -1.6522
  904MOL0     H19315   9.238   5.619   3.670  2.0839  0.7425 -0.2518
  904MOL0     H19316   8.773   5.850   3.492 -3.4779  1.3781 -2.1296
  904MOL0     H19317   8.520   5.790   3.456 -0.3637 -0.6022  0.1680
  904MOL0     H19318   8.268   5.489   3.678  0.8433 -2.3033  0.5560
  904MOL0     H19319   8.413   5.403   3.631 -0.5195 -0.3069  0.3678
  904MOL0     H19320   8.210   5.325   3.500  0.3814  0.1908  1.2702
  904MOL0     H19321   8.181   5.485   3.448  0.8439  1.7695  0.0627
  904MOL0     H19322   8.397   5.284   3.364  1.1733  1.0159 -1.2735
  904MOL0     H19323   8.419   5.467   3.333 -0.0326 -1.1653 -0.8897
  904MOL0     H19324   8.234   5.448   3.186 -2.3002 -2.3718  0.1634
  904MOL0     H19325   8.347   5.320   3.134  3.1761 -1.0396  3.6435
  904MOL0     H19326   8.036   5.077   3.252  1.5057 -0.5918  2.5887
  904MOL0     H19327   8.563   5.479   3.742 -1.5799  0.3934 -1.1320
  904MOL0     H19328   8.798   5.527   3.777 -0.5449 -3.4042 -2.2518
  905MOL0     O19329  11.191   9.872   9.054 -0.4633 -0.4249 -0.1438
  905MOL0     C19330  11.278   9.956   9.015 -0.1137  1.0607  0.7056
  905MOL0     O19331  11.245  10.064   8.938  0.4269  0.0736 -0.2281
  905MOL0     C19332  11.124  10.131   8.946  0.1159  0.0200 -0.2629
  905MOL0     C19333  11.127  10.275   8.903  0.1794  0.3554 -0.7243
  905MOL0     C19334  11.011  10.350   8.920 -0.0160 -0.1929  0.2600
  905MOL0     C19335  10.894  10.297   8.971 -0.5120  0.5633 -0.3246
  905MOL0     O19336  10.786  10.375   8.986 -0.6268 -0.1150  0.7134
  905MOL0     C19337  10.737  10.437   8.863 -0.6966  0.0020  0.1004
  905MOL0     C19338  10.594  10.471   8.878 -0.0407 -0.2853  0.4665
  905MOL0     C19339  10.525  10.558   8.771 -0.0711 -0.1254  0.4754
  905MOL0     C19340  10.539  10.508   8.626 -0.0682  0.0476 -0.4201
  905MOL0     C19341  10.467  10.584   8.520 -0.2854  1.1480  0.1337
  905MOL0     C19342  10.496  10.500   8.385  0.6701 -0.3536  0.0163
  905MOL0     C19343  10.431  10.575   8.262 -0.7771  0.5101  0.7582
  905MOL0     C19344  10.417  10.474   8.142  0.2554  0.3807 -0.8826
  905MOL0     N19345  10.325  10.367   8.175  0.0188 -0.1166 -0.7007
  905MOL0     C19346  10.211  10.370   8.254 -0.2402 -0.1052  0.5017
  905MOL0     C19347  10.166  10.240   8.241  0.0111 -0.0632  1.2033
  905MOL0     C19348  10.041  10.175   8.295  0.7741  0.2906  0.0708
  905MOL0     C19349   9.923  10.192   8.202  0.6562 -0.1902 -0.0316
  905MOL0     C19350   9.804  10.096   8.227 -0.8835 -1.0018  0.0785
  905MOL0     C19351   9.740  10.126   8.360 -0.3590 -0.0606  0.5470
  905MOL0     O19352   9.635  10.231   8.352  0.1979  0.5664 -0.2506
  905MOL0     C19353   9.498  10.193   8.332  0.5283  0.7217  0.1451
  905MOL0     C19354   9.399  10.287   8.363 -0.2877  0.0269  0.2704
  905MOL0     C19355   9.265  10.251   8.360 -0.1700 -0.3427  0.5207
  905MOL0     C19356   9.221  10.126   8.328 -0.5413  0.7169  0.2595
  905MOL0     C19357   9.084  10.097   8.326  0.5125 -0.2017  0.3015
  905MOL0     O19358   9.036   9.993   8.256 -1.0013  0.3280  0.0166
  905MOL0     C19359   8.905   9.963   8.261  0.3250  0.0102 -0.2153
  905MOL0     C19360   8.811   9.993   8.162 -0.1967  0.6157  0.6451
  905MOL0     C19361   8.676   9.955   8.167 -0.1635  0.3617 -0.0858
  905MOL0     C19362   8.630   9.886   8.280 -0.0854 -0.0422 -0.2490
  905MOL0     O19363   8.497   9.846   8.303 -0.0865  0.1010 -0.1984
  905MOL0     C19364   8.395   9.883   8.204 -0.0849  1.0641 -0.3925
  905MOL0     C19365   8.258   9.838   8.265  0.1335 -0.7115 -0.4272
  905MOL0     C19366   8.150   9.805   8.155 -0.6724  0.0814 -0.1272
  905MOL0     C19367   8.028   9.745   8.210  0.7930 -1.0534 -0.5057
  905MOL0     C19368   7.925   9.728   8.104 -0.5212 -0.5769 -0.6177
  905MOL0     C19369   7.785   9.711   8.150  0.7598  0.3318 -0.3096
  905MOL0     C19370   7.709   9.843   8.169 -0.5596 -0.7223 -0.1339
  905MOL0     C19371   7.557   9.816   8.174  0.3435 -0.7090 -0.1031
  905MOL0    Cl19372   7.473   9.976   8.177 -0.0140  0.1096 -0.0491
  905MOL0     C19373   8.716   9.860   8.391 -0.8380  0.1989  0.2218
  905MOL0     C19374   8.855   9.888   8.372  0.3645  0.2585 -0.6024
  905MOL0     O19375   9.021  10.174   8.400  0.0143  0.5365  0.0986
  905MOL0     C19376   9.323  10.030   8.298 -0.2757 -0.4437  0.4746
  905MOL0     C19377   9.453  10.066   8.300 -0.3908  0.4472 -0.6038
  905MOL0     N19378  10.261  10.167   8.161  0.7543 -0.0240 -0.3140
  905MOL0     N19379  10.338  10.248   8.111  0.0942 -0.0614 -0.4461
  905MOL0     C19380  10.886  10.160   9.000  0.1744  0.0521 -0.2964
  905MOL0     C19381  10.999  10.084   8.990 -0.4848  0.6791 -0.4623
  905MOL0     C19382  11.418   9.932   9.053 -0.8547  0.8326  0.0550
  905MOL0     C19383  11.457   9.808   9.122  0.1225  0.3443  0.0985
  905MOL0     C19384  11.589   9.800   9.169 -0.1325 -0.8313  0.9966
  905MOL0     C19385  11.680   9.913   9.166  0.0907 -0.4365  1.1018
  905MOL0     O19386  11.807   9.930   9.220  0.3250 -0.1023 -0.5053
  905MOL0     C19387  11.910   9.841   9.189 -0.2059  0.7211  1.0531
  905MOL0     C19388  12.013   9.929   9.108  0.9118  0.4889  0.5229
  905MOL0     C19389  12.135   9.852   9.061  0.1662 -0.6018 -0.6892
  905MOL0     C19390  12.204   9.794   9.191 -1.0342 -0.2627  0.0380
  905MOL0     C19391  12.346   9.764   9.166  0.4490 -0.0456  0.4847
  905MOL0     C19392  12.463   9.736   9.144 -0.1497  0.6714  0.1706
  905MOL0     C19393  11.639  10.025   9.093 -0.4710  0.1835 -0.2202
  905MOL0     C19394  11.517  10.030   9.025 -0.7915 -0.5690 -0.4195
  905MOL0     H19395  11.219  10.315   8.861  1.7749 -2.2489  0.1198
  905MOL0     H19396  11.011  10.457   8.898 -0.3518  0.1683  1.8853
  905MOL0     H19397  10.739  10.370   8.777 -1.8535 -0.1224  0.1573
  905MOL0     H19398  10.798  10.524   8.840  0.0561  0.0878  2.2274
  905MOL0     H19399  10.580  10.522   8.974 -0.3285  2.0224 -0.7334
  905MOL0     H19400  10.541  10.375   8.882  2.4164 -1.7141  0.7506
  905MOL0     H19401  10.576  10.654   8.776  1.0295 -0.5441 -1.6889
  905MOL0     H19402  10.418  10.573   8.791 -0.1522  2.2838 -1.4046
  905MOL0     H19403  10.645  10.522   8.601 -0.3573  2.1517 -0.6635
  905MOL0     H19404  10.502  10.405   8.630 -1.9827  0.6036 -1.9964
  905MOL0     H19405  10.504  10.687   8.509 -2.2490  1.8316 -0.5509
  905MOL0     H19406  10.359  10.578   8.538 -0.3404 -1.5398 -0.7516
  905MOL0     H19407  10.437  10.409   8.399  1.7847 -0.8559  1.7519
  905MOL0     H19408  10.603  10.482   8.392  0.6692  0.2070  3.7112
  905MOL0     H19409  10.331  10.615   8.282 -1.2217 -0.6437  0.8924
  905MOL0     H19410  10.502  10.655   8.241  2.2709 -1.5825  2.3596
  905MOL0     H19411  10.512  10.434   8.106  0.3904  0.1998 -0.3388
  905MOL0     H19412  10.374  10.525   8.055 -1.5016  0.4563 -0.0222
  905MOL0     H19413  10.176  10.452   8.317  0.6569  0.2627  0.5364
  905MOL0     H19414  10.013  10.232   8.384  0.5684  1.3978 -0.6764
  905MOL0     H19415  10.054  10.068   8.314 -3.6734  0.0943  3.8302
  905MOL0     H19416   9.952  10.174   8.098 -1.9580  1.0682 -1.0809
  905MOL0     H19417   9.895  10.298   8.210  1.9147  0.1287  0.4798
  905MOL0     H19418   9.728  10.122   8.152 -0.1047  0.9606 -0.0848
  905MOL0     H19419   9.849   9.997   8.228 -0.8127 -0.9829  1.8018
  905MOL0     H19420   9.814  10.159   8.433 -1.5683 -1.4791  2.5225
  905MOL0     H19421   9.706  10.030   8.401  1.0071 -0.9275 -0.2720
  905MOL0     H19422   9.422  10.383   8.407 -2.7249  0.2044  1.3081
  905MOL0     H19423   9.196  10.330   8.387  0.8794  1.7182 -2.2889
  905MOL0     H19424   8.857  10.030   8.071 -2.0043 -0.0858 -0.6010
  905MOL0     H19425   8.616   9.976   8.078  0.2235 -3.2704 -1.3830
  905MOL0     H19426   8.408   9.812   8.122  1.1727 -2.0451  2.2983
  905MOL0     H19427   8.385   9.988   8.172 -1.0764  1.0919 -0.0303
  905MOL0     H19428   8.220   9.926   8.318 -0.9296 -0.8559 -0.9019
  905MOL0     H19429   8.277   9.754   8.332  1.1017  1.1073  1.6780
  905MOL0     H19430   8.195   9.751   8.072 -1.4368  1.8497 -1.7794
  905MOL0     H19431   8.130   9.898   8.101  1.5678 -0.3955 -1.9413
  905MOL0     H19432   8.049   9.649   8.257  1.2302 -2.9689 -4.2425
  905MOL0     H19433   7.993   9.817   8.284  1.9363 -0.4353 -0.5411
  905MOL0     H19434   7.955   9.635   8.055 -3.8100 -3.1248  1.7181
  905MOL0     H19435   7.929   9.811   8.033 -2.9867  0.8818  0.8184
  905MOL0     H19436   7.787   9.658   8.246  0.4153 -1.3384 -1.1873
  905MOL0     H19437   7.730   9.659   8.071 -0.2301  1.8073 -0.6429
  905MOL0     H19438   7.745   9.892   8.260  0.5203 -3.9755  1.3339
  905MOL0     H19439   7.725   9.902   8.078  0.2599 -2.7560 -1.3725
  905MOL0     H19440   7.515   9.751   8.252  0.1588  0.0376  0.4320
  905MOL0     H19441   7.523   9.772   8.080 -1.4896 -0.7931  0.5605
  905MOL0     H19442   8.668   9.802   8.469  0.6029 -2.4176 -0.7008
  905MOL0     H19443   8.918   9.857   8.455  0.1100 -2.9381 -1.4701
  905MOL0     H19444   9.284   9.931   8.275 -4.3596  1.0045  0.4628
  905MOL0     H19445   9.528   9.988   8.289  1.2930  1.8913  0.0885
  905MOL0     H19446  10.800  10.116   9.048  2.1628 -0.0322  3.5139
  905MOL0     H19447  10.997   9.981   9.027  1.6385  1.3152  1.6859
  905MOL0     H19448  11.390   9.726   9.146 -0.5855  0.3162 -1.7676
  905MOL0     H19449  11.633   9.717   9.223  0.0004 -1.3751  0.0656
  905MOL0     H19450  11.877   9.766   9.117  0.2718  1.9733 -0.5296
  905MOL0     H19451  11.947   9.798   9.283  1.7964  0.8202  0.3554
  905MOL0     H19452  11.969   9.963   9.014  1.7932 -0.8617 -0.4075
  905MOL0     H19453  12.048  10.014   9.168 -1.2282  1.2262  0.8321
  905MOL0     H19454  12.200   9.922   9.007 -1.1593  0.3268 -1.1336
  905MOL0     H19455  12.113   9.762   9.003 -0.6675 -1.1472  0.4321
  905MOL0     H19456  12.199   9.872   9.267 -1.4267  1.0475 -1.2794
  905MOL0     H19457  12.155   9.706   9.234  2.4278 -1.1219  2.6745
  905MOL0     H19458  12.564   9.706   9.129 -1.2554 -2.2042 -2.6544
  905MOL0     H19459  11.706  10.110   9.093  0.9819 -0.9369 -0.3753
  905MOL0     H19460  11.493  10.119   8.967 -1.3184 -1.6023 -1.8398
  906MOL0     O19461   9.197   7.278  10.661  0.4425 -0.2680  0.1148
  906MOL0     C19462   9.253   7.253  10.769 -0.1840  0.5143  0.5249
  906MOL0     O19463   9.196   7.186  10.878  0.1540 -0.3760  0.3477
  906MOL0     C19464   9.061   7.167  10.877  0.0643  0.8537  0.6566
  906MOL0     C19465   9.014   7.049  10.826  0.0898 -0.4369  0.3817
  906MOL0     C19466   8.875   7.024  10.822  0.5731  0.4984 -0.1854
  906MOL0     C19467   8.778   7.121  10.852  0.5888  0.5027  0.0491
  906MOL0     O19468   8.644   7.100  10.828  0.0303 -1.0212  0.9047
  906MOL0     C19469   8.583   6.976  10.870 -0.0523  0.2500 -0.1111
  906MOL0     C19470   8.437   7.012  10.878  0.0301  0.3390  0.0092
  906MOL0     C19471   8.362   6.891  10.923  1.3546 -0.4774 -0.5324
  906MOL0     C19472   8.217   6.933  10.939  0.6293  0.3395 -0.8229
  906MOL0     C19473   8.132   6.828  11.018 -0.5459 -0.2022 -1.1790
  906MOL0     C19474   7.980   6.866  11.016 -0.0760 -1.0126  0.5179
  906MOL0     C19475   7.936   6.996  11.090 -0.5094 -0.1949  0.9825
  906MOL0     C19476   7.789   7.011  11.106  0.3114 -1.5075  1.5383
  906MOL0     N19477   7.720   6.907  11.179 -0.2311 -1.0611 -0.1538
  906MOL0     C19478   7.618   6.836  11.134 -1.5291 -0.3854  0.1175
  906MOL0     C19479   7.580   6.752  11.233 -0.7889  0.3028  0.3374
  906MOL0     C19480   7.465   6.651  11.232 -0.2958 -0.3027 -0.1378
  906MOL0     C19481   7.327   6.713  11.248  0.4301  0.2656 -0.3015
  906MOL0     C19482   7.236   6.602  11.302  0.3354  0.0165 -0.4015
  906MOL0     C19483   7.100   6.654  11.317  1.1757 -0.4667 -0.0349
  906MOL0     O19484   7.017   6.549  11.367  0.3247 -0.3362 -0.1535
  906MOL0     C19485   6.879   6.581  11.393 -1.5196 -0.0723  0.0293
  906MOL0     C19486   6.816   6.699  11.354  0.2730 -0.3911 -0.0360
  906MOL0     C19487   6.672   6.710  11.378  0.1410 -0.9688 -1.1526
  906MOL0     C19488   6.600   6.612  11.448  0.7440 -1.3743  1.0117
  906MOL0     C19489   6.452   6.624  11.461  0.1992 -0.1594 -0.8775
  906MOL0     O19490   6.395   6.736  11.426 -0.5991 -0.1155 -0.0452
  906MOL0     C19491   6.258   6.741  11.432 -0.1579 -0.3475  0.7690
  906MOL0     C19492   6.201   6.789  11.315  0.4644 -0.0098 -0.0614
  906MOL0     C19493   6.065   6.821  11.309  0.1755  0.7851  0.0407
  906MOL0     C19494   5.980   6.779  11.407 -0.2129 -0.1273 -0.3580
  906MOL0     O19495   5.843   6.797  11.411  0.4029 -0.5038  0.1674
  906MOL0     C19496   5.750   6.829  11.311 -0.1922 -0.4381  0.1246
  906MOL0     C19497   5.624   6.758  11.337  0.7470 -0.4489  0.0403
  906MOL0     C19498   5.640   6.603  11.334 -0.4668 -0.0596  0.0559
  906MOL0     C19499   5.513   6.532  11.370  0.2571  0.0788 -0.6561
  906MOL0     C19500   5.522   6.381  11.392  0.2821  0.8394 -0.3315
  906MOL0     C19501   5.574   6.301  11.264 -0.1911 -0.1671 -0.0379
  906MOL0     C19502   5.522   6.166  11.252 -0.5989  0.0692  0.3595
  906MOL0     C19503   5.582   6.079  11.138  0.5362  0.6821  0.0213
  906MOL0    Cl19504   5.474   5.931  11.144  0.0114 -0.2388 -0.3062
  906MOL0     C19505   6.035   6.724  11.522  0.3775  0.9200  0.4178
  906MOL0     C19506   6.176   6.725  11.542  0.5680  0.8227  0.5119
  906MOL0     O19507   6.389   6.521  11.486  0.1324 -0.0691 -0.3372
  906MOL0     C19508   6.671   6.502  11.496 -0.2577 -0.7208  0.0384
  906MOL0     C19509   6.805   6.486  11.463  0.5321  0.1727  0.0125
  906MOL0     N19510   7.660   6.782  11.337  0.3431 -0.1370 -0.6621
  906MOL0     N19511   7.747   6.877  11.310 -0.0019 -1.3515  0.7169
  906MOL0     C19512   8.827   7.239  10.894  0.1064 -1.2163  0.0835
  906MOL0     C19513   8.962   7.266  10.899  0.1099  0.1347  0.6504
  906MOL0     C19514   9.400   7.285  10.784 -0.0087  0.8851 -0.1880
  906MOL0     C19515   9.468   7.269  10.911 -1.7090 -0.4727 -0.1355
  906MOL0     C19516   9.605   7.283  10.917 -0.0072 -0.2075 -0.3573
  906MOL0     C19517   9.686   7.323  10.810  0.1952 -0.3324  0.6667
  906MOL0     O19518   9.822   7.326  10.813  0.1479  0.1009 -0.1854
  906MOL0     C19519   9.902   7.360  10.698 -0.0320  0.1272 -0.6516
  906MOL0     C19520  10.023   7.271  10.698  0.5879  0.3482  1.2350
  906MOL0     C19521  10.156   7.342  10.678  1.2311 -0.3743 -0.2347
  906MOL0     C19522  10.261   7.231  10.671 -0.7780  0.1984  0.1871
  906MOL0     C19523  10.395   7.296  10.632  0.0299  0.6797 -0.5831
  906MOL0     C19524  10.501   7.341  10.607 -0.5358  1.2818 -0.2786
  906MOL0     C19525   9.612   7.372  10.697 -1.2246  0.6626 -0.1939
  906MOL0     C19526   9.483   7.336  10.682  0.5441  0.1587 -0.5936
  906MOL0     H19527   9.075   6.960  10.812 -1.6080 -1.3323 -2.0465
  906MOL0     H19528   8.847   6.925  10.787  1.3133  0.8723 -1.9237
  906MOL0     H19529   8.632   6.946  10.963  1.6737  0.7149 -0.8234
  906MOL0     H19530   8.606   6.895  10.800  0.0990 -0.9744  1.3029
  906MOL0     H19531   8.418   7.054  10.779 -1.3443 -1.2580 -0.4487
  906MOL0     H19532   8.423   7.091  10.953 -1.6380 -1.9820  2.3466
  906MOL0     H19533   8.406   6.845  11.012 -3.1385 -1.0821  1.6689
  906MOL0     H19534   8.358   6.823  10.838 -2.3914  0.8698 -1.6157
  906MOL0     H19535   8.203   7.031  10.988 -1.4017 -0.0024 -0.6478
  906MOL0     H19536   8.162   6.940  10.845 -4.3449 -3.1082  1.4047
  906MOL0     H19537   8.169   6.798  11.117 -1.9791  0.0171 -0.5481
  906MOL0     H19538   8.146   6.741  10.954  0.2882 -0.3234 -0.8478
  906MOL0     H19539   7.919   6.779  11.044  0.3571 -1.4662  0.0744
  906MOL0     H19540   7.948   6.886  10.914 -2.4918  2.2989  1.7644
  906MOL0     H19541   7.977   6.987  11.191 -0.8056 -0.5851  1.0699
  906MOL0     H19542   7.981   7.090  11.057  1.7456 -1.5089  0.1396
  906MOL0     H19543   7.749   7.014  11.004  1.1521  0.3455  1.2214
  906MOL0     H19544   7.771   7.110  11.148  0.2082 -0.7608 -0.1987
  906MOL0     H19545   7.575   6.852  11.035  2.0027 -1.3690 -1.7762
  906MOL0     H19546   7.487   6.580  11.313 -0.3180  0.8357  0.8817
  906MOL0     H19547   7.475   6.586  11.145 -2.5716 -4.2847  2.2352
  906MOL0     H19548   7.280   6.758  11.160 -0.7402  0.2796  0.3165
  906MOL0     H19549   7.340   6.781  11.332 -1.4956 -1.0122  1.1245
  906MOL0     H19550   7.243   6.519  11.232 -0.2534 -0.1984 -0.2138
  906MOL0     H19551   7.264   6.580  11.405  0.2005 -0.7361 -0.5256
  906MOL0     H19552   7.061   6.689  11.221  0.3129  0.9648  0.7815
  906MOL0     H19553   7.091   6.737  11.388 -2.0738  2.0240 -2.9634
  906MOL0     H19554   6.857   6.787  11.306  0.8818 -0.6207  0.0558
  906MOL0     H19555   6.623   6.800  11.341 -2.9175 -1.2581  1.7925
  906MOL0     H19556   6.270   6.798  11.231  2.0372  1.8200  1.3542
  906MOL0     H19557   6.030   6.861  11.214 -1.7592  1.7524  1.1175
  906MOL0     H19558   5.788   6.821  11.209 -4.7579  4.1274 -2.3758
  906MOL0     H19559   5.729   6.932  11.339 -2.2078 -1.0364  0.9917
  906MOL0     H19560   5.551   6.791  11.262  0.6637 -0.5543  0.0735
  906MOL0     H19561   5.587   6.783  11.437  2.0779  4.3378 -0.4254
  906MOL0     H19562   5.721   6.576  11.402  1.3712 -1.2934 -2.4976
  906MOL0     H19563   5.665   6.576  11.231 -0.3603  0.2885 -0.0116
  906MOL0     H19564   5.464   6.577  11.456 -0.6465 -1.7118 -0.1862
  906MOL0     H19565   5.443   6.542  11.286 -1.6698 -2.7236  0.4524
  906MOL0     H19566   5.417   6.356  11.407 -0.3131  1.0553 -3.4109
  906MOL0     H19567   5.586   6.354  11.477  0.1334 -1.9029 -0.9948
  906MOL0     H19568   5.683   6.301  11.268 -0.1745  1.7082  2.5200
  906MOL0     H19569   5.548   6.355  11.172  0.7554  1.4171  0.5709
  906MOL0     H19570   5.547   6.111  11.343 -0.6718 -2.6159 -1.1412
  906MOL0     H19571   5.414   6.170  11.237 -0.8663  1.3322  2.1936
  906MOL0     H19572   5.687   6.051  11.152  0.5006  0.9456  0.9132
  906MOL0     H19573   5.577   6.125  11.039  0.4160  0.2296 -0.1847
  906MOL0     H19574   5.965   6.707  11.604  2.3187  0.2369  2.0364
  906MOL0     H19575   6.238   6.690  11.624 -0.3067  2.7345  2.0477
  906MOL0     H19576   6.620   6.433  11.563  0.4965 -0.3619  1.0046
  906MOL0     H19577   6.851   6.399  11.509  0.3893 -0.2819 -0.6892
  906MOL0     H19578   8.767   7.326  10.920  0.3161 -1.0134 -0.1034
  906MOL0     H19579   8.990   7.369  10.919 -0.0795  0.6833 -1.5686
  906MOL0     H19580   9.412   7.241  11.000 -1.5461  3.9667  1.6359
  906MOL0     H19581   9.656   7.257  11.010 -2.9723  0.4389  1.6054
  906MOL0     H19582   9.923   7.468  10.701 -3.0558  0.7836  1.4043
  906MOL0     H19583   9.844   7.336  10.608  1.5286 -3.0836 -0.9441
  906MOL0     H19584  10.031   7.207  10.786  1.9874 -0.3804  0.6105
  906MOL0     H19585  10.008   7.209  10.609  0.1679  0.0122  1.5339
  906MOL0     H19586  10.169   7.412  10.761  0.7730 -0.5404 -0.0200
  906MOL0     H19587  10.152   7.385  10.577 -3.0926  1.0099  0.2954
  906MOL0     H19588  10.269   7.180  10.767 -0.1821 -0.7962 -0.3767
  906MOL0     H19589  10.245   7.153  10.596  0.3133  3.0555 -3.3260
  906MOL0     H19590  10.596   7.388  10.593 -0.6247  1.9930  1.2885
  906MOL0     H19591   9.660   7.434  10.622 -0.7881 -0.2054 -0.6517
  906MOL0     H19592   9.433   7.355  10.588  1.1625  0.6557 -0.8212
  907MOL0     O19593   8.779   3.025   0.329  0.0522 -0.3052 -0.2064
  907MOL0     C19594   8.833   3.134   0.361 -0.2223 -0.2555  0.2233
  907MOL0     O19595   8.773   3.255   0.349 -0.8983  0.0961  0.0318
  907MOL0     C19596   8.656   3.264   0.273 -0.1580  0.9424  0.0681
  907MOL0     C19597   8.656   3.272   0.131  0.5076  0.1304  0.0369
  907MOL0     C19598   8.543   3.269   0.055  0.9808 -0.2577  0.6653
  907MOL0     C19599   8.420   3.228   0.112 -0.8684 -0.8263  0.5570
  907MOL0     O19600   8.311   3.202   0.038 -0.2675  0.4972  0.5527
  907MOL0     C19601   8.258   3.316  -0.035  0.0974 -0.0394  0.8350
  907MOL0     C19602   8.207   3.413   0.071 -0.8451 -0.0143 -0.5005
  907MOL0     C19603   8.095   3.497   0.011  0.1344  0.2377 -0.0235
  907MOL0     C19604   7.957   3.433   0.036 -0.3613  0.5580  0.3310
  907MOL0     C19605   7.845   3.531   0.007 -0.4433 -0.6397 -0.0504
  907MOL0     C19606   7.709   3.481   0.044 -0.0355 -0.0012 -0.4660
  907MOL0     C19607   7.681   3.448   0.191 -0.2715  1.6393  0.3733
  907MOL0     C19608   7.535   3.374   0.195  0.5042  0.8159 -0.9003
  907MOL0     N19609   7.430   3.455   0.256 -0.4601 -0.5912 -1.3888
  907MOL0     C19610   7.424   3.467   0.395 -0.1590 -1.0786  0.3650
  907MOL0     C19611   7.313   3.537   0.419  0.7038 -0.1542 -0.1562
  907MOL0     C19612   7.243   3.548   0.557 -0.5391 -0.4098 -1.0197
  907MOL0     C19613   7.206   3.410   0.618 -0.0320  0.4579 -0.2673
  907MOL0     C19614   7.158   3.426   0.758 -0.1965 -0.5883 -0.0532
  907MOL0     C19615   7.258   3.487   0.857 -0.9626  0.2043 -1.5874
  907MOL0     O19616   7.275   3.411   0.977 -0.7241 -0.0022  0.0509
  907MOL0     C19617   7.397   3.393   1.029 -0.8871  0.7768 -0.0792
  907MOL0     C19618   7.503   3.339   0.946  0.3110  0.1231 -0.5559
  907MOL0     C19619   7.631   3.328   0.996  1.0507  0.1868  1.1538
  907MOL0     C19620   7.661   3.380   1.127  0.3485 -1.0031  0.4114
  907MOL0     C19621   7.793   3.371   1.190  0.2182 -0.2136  0.3946
  907MOL0     O19622   7.898   3.326   1.105  0.2096  0.1543  0.0323
  907MOL0     C19623   8.025   3.324   1.158 -0.0804 -0.2370 -0.6783
  907MOL0     C19624   8.089   3.452   1.177 -0.3364  0.6007  0.4461
  907MOL0     C19625   8.220   3.460   1.210 -0.1776 -0.0764 -0.4581
  907MOL0     C19626   8.295   3.344   1.219  0.4560 -0.0189  0.6172
  907MOL0     O19627   8.422   3.351   1.257  0.1189 -0.2283 -0.0834
  907MOL0     C19628   8.516   3.242   1.230 -0.6230 -0.3019 -0.1965
  907MOL0     C19629   8.649   3.307   1.254  0.5963 -0.4905 -0.1064
  907MOL0     C19630   8.751   3.194   1.263  0.3934 -0.7832  0.9102
  907MOL0     C19631   8.893   3.261   1.260 -0.0887 -0.3548  0.6353
  907MOL0     C19632   9.014   3.166   1.283  0.1263  0.4568 -0.0770
  907MOL0     C19633   9.028   3.113   1.426  0.0274  0.6823 -0.9764
  907MOL0     C19634   9.157   3.055   1.456  0.5477 -0.4637 -0.4305
  907MOL0     C19635   9.171   3.009   1.600  0.0359  0.0435 -0.8251
  907MOL0    Cl19636   9.323   2.935   1.640  0.5695  0.3935  0.1199
  907MOL0     C19637   8.230   3.218   1.210 -0.4873  1.0054  0.5906
  907MOL0     C19638   8.098   3.208   1.175 -1.0174 -0.0068 -0.4527
  907MOL0     O19639   7.802   3.411   1.305 -0.4751  0.1540 -0.0138
  907MOL0     C19640   7.555   3.434   1.206 -0.2345  0.5977 -0.7147
  907MOL0     C19641   7.426   3.437   1.152  0.8106 -0.0064  0.5748
  907MOL0     N19642   7.265   3.577   0.298  0.0409 -1.2534 -0.1028
  907MOL0     N19643   7.324   3.517   0.203  0.1110  0.1749  0.9703
  907MOL0     C19644   8.417   3.205   0.245 -1.0808  0.8458  0.5463
  907MOL0     C19645   8.535   3.233   0.325 -1.1360  0.5184 -0.2428
  907MOL0     C19646   8.972   3.122   0.421  0.1301  0.0749 -0.2505
  907MOL0     C19647   9.046   2.997   0.415 -1.1263  0.6207 -0.8853
  907MOL0     C19648   9.172   2.982   0.472 -0.1277  1.1457  0.7562
  907MOL0     C19649   9.226   3.085   0.546 -1.0145 -0.2659 -0.1314
  907MOL0     O19650   9.339   3.069   0.624  0.6594  0.2684 -0.3160
  907MOL0     C19651   9.324   2.960   0.721 -0.4526  0.2272 -0.2266
  907MOL0     C19652   9.430   2.862   0.696 -0.3730 -0.7344  0.2981
  907MOL0     C19653   9.553   2.859   0.783  0.0185 -0.0778 -0.5859
  907MOL0     C19654   9.649   2.976   0.744 -0.8109 -0.7028  0.7551
  907MOL0     C19655   9.789   2.950   0.771 -1.1511  0.0029 -0.0543
  907MOL0     C19656   9.899   2.916   0.810 -0.6148  0.1803 -0.5073
  907MOL0     C19657   9.163   3.207   0.555  0.6677  0.1215 -1.0266
  907MOL0     C19658   9.042   3.225   0.488  1.1646 -0.2632 -0.8623
  907MOL0     H19659   8.745   3.292   0.072 -0.2299  0.4910 -0.9894
  907MOL0     H19660   8.553   3.263  -0.053  1.0950 -3.4883  0.7721
  907MOL0     H19661   8.183   3.276  -0.105  1.1861 -0.9323  0.1330
  907MOL0     H19662   8.337   3.370  -0.088 -1.3490  1.9177  0.5508
  907MOL0     H19663   8.277   3.494   0.091 -1.1908 -0.0262  0.8654
  907MOL0     H19664   8.190   3.364   0.167  3.2343  1.6972  1.3232
  907MOL0     H19665   8.111   3.518  -0.096 -0.7647 -1.6386 -0.5696
  907MOL0     H19666   8.082   3.590   0.066  1.2907 -1.5378  3.5246
  907MOL0     H19667   7.944   3.349  -0.033  1.5369 -0.5586  1.2378
  907MOL0     H19668   7.946   3.385   0.133 -0.1754 -2.4710 -1.0197
  907MOL0     H19669   7.844   3.555  -0.099 -2.5345 -3.2882 -0.7353
  907MOL0     H19670   7.870   3.618   0.069  0.1485 -0.7681 -0.0969
  907MOL0     H19671   7.692   3.396  -0.022  3.3028  0.5167 -2.2077
  907MOL0     H19672   7.638   3.558   0.012 -0.6143  1.0305  2.9376
  907MOL0     H19673   7.753   3.383   0.240 -1.2294 -0.0209 -0.3355
  907MOL0     H19674   7.678   3.545   0.242 -0.8881  1.5977  0.4230
  907MOL0     H19675   7.532   3.272   0.232 -0.6063  0.9350 -0.6118
  907MOL0     H19676   7.490   3.370   0.095 -1.4134  3.3842 -0.2504
  907MOL0     H19677   7.487   3.421   0.471  2.1445  0.0202 -0.7929
  907MOL0     H19678   7.154   3.612   0.557 -0.7641 -0.6222 -3.8729
  907MOL0     H19679   7.323   3.596   0.615  2.2285 -3.2573 -2.1595
  907MOL0     H19680   7.298   3.351   0.617  1.5151  2.6502  1.7400
  907MOL0     H19681   7.124   3.368   0.559 -1.2768  0.1394  1.6312
  907MOL0     H19682   7.063   3.480   0.750  1.3595  2.0151 -3.5874
  907MOL0     H19683   7.135   3.328   0.801  0.5256 -0.7206  0.0493
  907MOL0     H19684   7.234   3.593   0.875  0.9958  0.5275 -0.6095
  907MOL0     H19685   7.352   3.494   0.802  1.6068  1.1238  2.5220
  907MOL0     H19686   7.490   3.289   0.851 -1.2468  0.2653 -0.4399
  907MOL0     H19687   7.704   3.284   0.929  0.4901 -1.0700  1.3455
  907MOL0     H19688   8.026   3.539   1.164 -3.4838 -1.2470  2.0325
  907MOL0     H19689   8.265   3.556   1.235 -1.7155  0.5110  0.1558
  907MOL0     H19690   8.512   3.206   1.127  0.9423 -0.7445 -0.1344
  907MOL0     H19691   8.490   3.162   1.301 -0.3666  1.0739  1.5195
  907MOL0     H19692   8.646   3.370   1.343  3.2033 -4.0827  2.8392
  907MOL0     H19693   8.673   3.369   1.167  0.1432 -1.7541 -1.1547
  907MOL0     H19694   8.726   3.113   1.193 -0.2501  0.2452 -0.1044
  907MOL0     H19695   8.737   3.158   1.365  0.3926 -2.3375  0.3882
  907MOL0     H19696   8.902   3.303   1.159 -0.4264 -1.3290  0.1877
  907MOL0     H19697   8.895   3.336   1.339 -1.7838  1.4245 -0.9011
  907MOL0     H19698   9.108   3.213   1.252  0.5476 -1.3697 -1.7712
  907MOL0     H19699   9.019   3.075   1.222 -1.7361 -0.5221  1.1290
  907MOL0     H19700   8.951   3.038   1.445  1.5527 -1.7366 -3.4955
  907MOL0     H19701   8.996   3.191   1.495  1.2106  1.1400 -0.9259
  907MOL0     H19702   9.181   2.963   1.402  2.6852  0.6793 -1.5721
  907MOL0     H19703   9.234   3.133   1.445 -0.9362  1.1360  0.0931
  907MOL0     H19704   9.091   2.939   1.629  1.7287 -1.8645 -0.5594
  907MOL0     H19705   9.167   3.103   1.656 -0.0909 -0.2273 -0.3768
  907MOL0     H19706   8.291   3.129   1.223 -1.4601  0.4596  1.6387
  907MOL0     H19707   8.055   3.110   1.156  3.4376 -1.9703 -1.6412
  907MOL0     H19708   7.571   3.470   1.307  1.9018 -0.3524 -0.6480
  907MOL0     H19709   7.340   3.470   1.210 -0.3592 -1.1525 -0.4583
  907MOL0     H19710   8.328   3.160   0.288 -1.9234  1.1939 -0.7955
  907MOL0     H19711   8.536   3.227   0.433  1.5464  2.6735 -0.0565
  907MOL0     H19712   9.003   2.911   0.365  0.7621 -1.0373  0.2000
  907MOL0     H19713   9.231   2.892   0.460  1.7605  2.6312 -2.4942
  907MOL0     H19714   9.225   2.917   0.704 -0.6252  0.9122 -0.9830
  907MOL0     H19715   9.340   2.984   0.826 -0.3028  0.2728 -0.2587
  907MOL0     H19716   9.386   2.762   0.700  1.0674 -1.4674 -0.9782
  907MOL0     H19717   9.458   2.882   0.592 -2.7005  0.5585 -0.1439
  907MOL0     H19718   9.597   2.758   0.775 -3.0829 -1.8348  2.2486
  907MOL0     H19719   9.525   2.873   0.887 -2.6125 -2.1982 -0.9108
  907MOL0     H19720   9.630   3.000   0.639  0.5503  3.3871  1.2932
  907MOL0     H19721   9.623   3.066   0.800  0.9209  0.6565 -0.5327
  907MOL0     H19722   9.999   2.887   0.835 -0.6349 -2.2760 -2.8286
  907MOL0     H19723   9.216   3.280   0.616  0.7826  0.6271 -1.7180
  907MOL0     H19724   8.987   3.317   0.503 -0.1876 -1.3004  0.9865
  908MOL0     O19725   2.453   4.448   0.061  0.2334  0.4282 -0.9247
  908MOL0     C19726   2.524   4.411   0.148  0.0429  0.2085  0.2199
  908MOL0     O19727   2.490   4.314   0.244  0.6883  0.2667  0.1775
  908MOL0     C19728   2.365   4.258   0.240  1.1743 -0.1154 -1.0308
  908MOL0     C19729   2.335   4.198   0.366  0.1225 -0.3594  0.4110
  908MOL0     C19730   2.213   4.124   0.377 -0.2097  0.5097 -0.6603
  908MOL0     C19731   2.128   4.098   0.274  1.1253  0.7270 -0.0773
  908MOL0     O19732   2.007   4.030   0.296  0.5420 -0.8307 -0.4928
  908MOL0     C19733   1.899   4.038   0.203 -0.7451  0.2116  0.3308
  908MOL0     C19734   1.801   3.926   0.244 -0.8506  0.4822  0.5789
  908MOL0     C19735   1.708   3.958   0.361  0.3101 -0.7370 -0.2795
  908MOL0     C19736   1.596   3.852   0.371  1.0818 -0.0862  0.1181
  908MOL0     C19737   1.480   3.894   0.451  0.3551  0.3163 -1.0306
  908MOL0     C19738   1.509   3.936   0.594  0.2246 -0.1744 -1.3992
  908MOL0     C19739   1.407   3.882   0.685 -0.1544 -0.9149 -0.1232
  908MOL0     C19740   1.264   3.954   0.656  0.1390  0.0770 -0.1150
  908MOL0     N19741   1.180   3.914   0.771 -0.4880  0.1176 -0.4105
  908MOL0     C19742   1.133   3.791   0.802  0.2220  0.1499 -0.3671
  908MOL0     C19743   1.072   3.792   0.923 -0.3060 -0.0802  0.1070
  908MOL0     C19744   1.000   3.669   0.984  0.0979 -0.1392 -0.3027
  908MOL0     C19745   0.868   3.627   0.918  0.0542  0.6155  0.1644
  908MOL0     C19746   0.767   3.741   0.926  0.3574 -0.9403 -0.2495
  908MOL0     C19747   0.629   3.718   0.871  0.8004 -0.0688 -0.2463
  908MOL0     O19748   0.565   3.600   0.923 -0.1961 -0.4350  0.7011
  908MOL0     C19749   0.428   3.590   0.914  0.3221  1.1954  0.5387
  908MOL0     C19750   0.370   3.486   0.976  0.2923  0.9538  0.0012
  908MOL0     C19751   0.233   3.456   0.951  0.1218  0.3370  0.2182
  908MOL0     C19752   0.155   3.537   0.866 -0.6353  0.1943 -0.0538
  908MOL0     C19753   0.006   3.518   0.847 -0.0484  0.3487 -0.0047
  908MOL0     O19754  -0.045   3.422   0.927  1.3130  0.1464  0.5131
  908MOL0     C19755  -0.183   3.400   0.913 -0.0269 -0.0815  0.1109
  908MOL0     C19756  -0.275   3.501   0.945 -0.3312 -0.7994 -0.5769
  908MOL0     C19757  -0.418   3.490   0.941 -0.6094 -0.1190  0.5279
  908MOL0     C19758  -0.464   3.363   0.914 -0.3602 -0.1001 -0.2418
  908MOL0     O19759  -0.601   3.337   0.918 -0.1434 -0.0451 -0.1073
  908MOL0     C19760  -0.688   3.416   1.001 -0.3840 -0.2703 -0.4845
  908MOL0     C19761  -0.815   3.339   1.033  0.1229  0.8737  0.2015
  908MOL0     C19762  -0.918   3.345   0.925 -1.1183  0.1276 -0.5539
  908MOL0     C19763  -1.043   3.263   0.966 -0.2868 -0.1660 -0.9768
  908MOL0     C19764  -1.126   3.226   0.849 -0.4120 -0.4631  0.0115
  908MOL0     C19765  -1.063   3.127   0.749  0.1864  0.8375  0.9554
  908MOL0     C19766  -1.143   3.100   0.631  0.1679  0.2107  0.3482
  908MOL0     C19767  -1.121   2.961   0.567  0.7452 -0.4295  0.0566
  908MOL0    Cl19768  -1.189   2.950   0.404 -0.2442  0.0907 -0.1577
  908MOL0     C19769  -0.372   3.252   0.885  0.8026  0.1663  0.3187
  908MOL0     C19770  -0.235   3.275   0.879  0.1251 -0.4408 -0.2628
  908MOL0     O19771  -0.056   3.592   0.771  0.0684  0.0045 -0.0724
  908MOL0     C19772   0.218   3.645   0.803  0.3332 -0.3585  0.3833
  908MOL0     C19773   0.353   3.671   0.830 -0.2837  1.0262 -0.0067
  908MOL0     N19774   1.094   3.918   0.970 -0.1702 -0.6422  0.1468
  908MOL0     N19775   1.157   3.994   0.883  0.2584 -0.0347 -0.1451
  908MOL0     C19776   2.153   4.168   0.156 -0.5538  0.1334  0.1182
  908MOL0     C19777   2.266   4.246   0.143  0.8794  0.8417  0.9261
  908MOL0     C19778   2.657   4.475   0.155  0.2598 -0.4085  0.5834
  908MOL0     C19779   2.756   4.437   0.241 -0.3371  0.4306  0.7813
  908MOL0     C19780   2.882   4.498   0.256 -0.8650  0.3251  0.0059
  908MOL0     C19781   2.907   4.618   0.184  0.5946  0.2662  0.2757
  908MOL0     O19782   3.022   4.691   0.194  0.3091 -0.4228 -0.8579
  908MOL0     C19783   3.097   4.669   0.316 -0.8913  0.1215 -0.3380
  908MOL0     C19784   3.196   4.775   0.338 -0.7509  0.0690 -0.0422
  908MOL0     C19785   3.313   4.723   0.438  0.2722 -0.4749  0.2214
  908MOL0     C19786   3.415   4.836   0.470 -0.1951  0.3361  0.1325
  908MOL0     C19787   3.352   4.954   0.523 -0.1561  0.3357  0.7483
  908MOL0     C19788   3.299   5.054   0.565 -0.4244 -0.1527  0.6523
  908MOL0     C19789   2.810   4.654   0.085  0.0454  0.2594 -0.4995
  908MOL0     C19790   2.683   4.591   0.076 -1.1100 -0.6049 -1.0248
  908MOL0     H19791   2.407   4.195   0.448  0.9011  0.4577 -0.2239
  908MOL0     H19792   2.191   4.066   0.466 -2.4925 -0.2990 -1.6576
  908MOL0     H19793   1.931   4.012   0.102 -2.2494  0.0107 -0.1150
  908MOL0     H19794   1.868   4.143   0.195  2.6218  1.2707 -0.7376
  908MOL0     H19795   1.857   3.835   0.268  1.8440  2.0583  0.6632
  908MOL0     H19796   1.744   3.902   0.154 -1.0845 -1.6203  1.2285
  908MOL0     H19797   1.670   4.061   0.356 -1.7064 -1.3981  0.3000
  908MOL0     H19798   1.770   3.960   0.452  0.5636 -0.2150 -0.4606
  908MOL0     H19799   1.562   3.831   0.269 -0.0506  0.0878  0.4486
  908MOL0     H19800   1.643   3.768   0.423 -0.7990 -0.0840  1.9340
  908MOL0     H19801   1.405   3.814   0.446 -1.0226  1.4459  0.6671
  908MOL0     H19802   1.438   3.980   0.398  0.4368  1.4815  0.7266
  908MOL0     H19803   1.510   4.043   0.613  1.6976 -0.5890  1.5322
  908MOL0     H19804   1.607   3.897   0.625  1.0570  1.0057 -2.4252
  908MOL0     H19805   1.400   3.775   0.668  0.1963 -0.5860 -2.7917
  908MOL0     H19806   1.441   3.904   0.787 -0.5605 -0.7985 -0.0125
  908MOL0     H19807   1.214   3.927   0.562 -0.6338 -0.3688  0.4159
  908MOL0     H19808   1.265   4.062   0.674 -3.5128  0.3932 -0.9286
  908MOL0     H19809   1.135   3.712   0.728 -0.5064  0.0635 -0.3004
  908MOL0     H19810   0.981   3.683   1.091 -0.2975  0.0517 -0.3940
  908MOL0     H19811   1.069   3.583   0.982  0.5191  0.2096 -1.1305
  908MOL0     H19812   0.835   3.529   0.953  2.4553 -0.3815 -0.1234
  908MOL0     H19813   0.897   3.602   0.815 -0.2119  1.4158 -0.1081
  908MOL0     H19814   0.755   3.773   1.029 -0.4925  0.2643 -0.6989
  908MOL0     H19815   0.809   3.825   0.870 -1.9079 -0.4043 -1.2774
  908MOL0     H19816   0.636   3.711   0.762  0.2410 -0.7706 -0.2450
  908MOL0     H19817   0.573   3.806   0.904  0.6338  0.2025 -1.2214
  908MOL0     H19818   0.424   3.416   1.040  1.1346  0.8587 -0.8149
  908MOL0     H19819   0.202   3.364   1.000  0.5005  0.2972  0.3907
  908MOL0     H19820  -0.241   3.594   0.988 -2.0577  0.9762 -2.7710
  908MOL0     H19821  -0.481   3.576   0.964 -0.6003 -0.4441  1.8594
  908MOL0     H19822  -0.706   3.512   0.952 -0.0904 -0.0173 -0.1068
  908MOL0     H19823  -0.631   3.443   1.090  0.5522  2.4856 -1.7915
  908MOL0     H19824  -0.853   3.373   1.130 -4.8511 -1.5228 -0.5568
  908MOL0     H19825  -0.806   3.232   1.051 -1.6707  0.8949  1.5498
  908MOL0     H19826  -0.856   3.311   0.841  1.2940 -0.4755  1.3692
  908MOL0     H19827  -0.954   3.445   0.898  2.5102  1.5470 -0.6492
  908MOL0     H19828  -1.014   3.177   1.027 -2.9119 -0.5236 -0.0908
  908MOL0     H19829  -1.098   3.329   1.034  0.5404  1.9721 -2.2833
  908MOL0     H19830  -1.165   3.315   0.798  0.1193 -0.6478 -0.7324
  908MOL0     H19831  -1.211   3.171   0.888  0.5761 -0.1396  2.8429
  908MOL0     H19832  -1.043   3.035   0.804 -1.3480  0.9645  1.7947
  908MOL0     H19833  -0.974   3.176   0.707 -0.3677 -0.1592 -1.5100
  908MOL0     H19834  -1.250   3.110   0.648 -0.4383 -3.8742 -0.0382
  908MOL0     H19835  -1.123   3.173   0.552  2.7652  0.6393  1.2842
  908MOL0     H19836  -1.167   2.887   0.633 -0.6249  1.6932  1.6456
  908MOL0     H19837  -1.013   2.941   0.571  1.0465  0.7572 -1.2494
  908MOL0     H19838  -0.399   3.149   0.868 -1.7524  0.2456  3.0969
  908MOL0     H19839  -0.167   3.192   0.864  0.0839 -0.5891  0.3327
  908MOL0     H19840   0.149   3.704   0.745 -2.4104 -2.3891  1.4036
  908MOL0     H19841   0.401   3.755   0.781  0.8377 -0.6681 -2.0051
  908MOL0     H19842   2.088   4.160   0.070  0.2265  0.7753 -0.5425
  908MOL0     H19843   2.277   4.299   0.049  0.3347  0.8459  0.8614
  908MOL0     H19844   2.737   4.346   0.297 -0.1208 -0.4256 -0.4851
  908MOL0     H19845   2.957   4.457   0.323 -0.4952  0.4350 -0.3379
  908MOL0     H19846   3.161   4.582   0.297  1.2050  1.4530  0.3367
  908MOL0     H19847   3.032   4.648   0.401 -1.8258 -1.5338 -1.3865
  908MOL0     H19848   3.246   4.796   0.243  0.9907 -2.9637  0.0897
  908MOL0     H19849   3.139   4.862   0.372 -2.1799 -0.8819  0.0728
  908MOL0     H19850   3.364   4.645   0.380  1.1647 -1.0239  1.6860
  908MOL0     H19851   3.272   4.672   0.525 -1.2051 -0.9707 -0.7354
  908MOL0     H19852   3.488   4.791   0.538 -1.8991 -2.3379  0.3488
  908MOL0     H19853   3.477   4.861   0.383 -0.2991 -1.6641 -0.5663
  908MOL0     H19854   3.258   5.135   0.623 -2.1807 -0.9298  0.5583
  908MOL0     H19855   2.828   4.746   0.031 -0.8591  0.7164 -0.0310
  908MOL0     H19856   2.604   4.635   0.016 -1.8674 -0.9600 -0.2953
  909MOL0     O19857  10.055   0.411   9.551 -0.0177  0.0140 -0.1166
  909MOL0     C19858  10.081   0.529   9.593  0.4388  0.9430  0.3793
  909MOL0     O19859   9.988   0.633   9.602 -0.7971  0.1001 -0.0445
  909MOL0     C19860   9.882   0.650   9.524 -0.4837  0.5104 -0.4654
  909MOL0     C19861   9.789   0.555   9.529  0.1754 -0.4705 -0.0115
  909MOL0     C19862   9.677   0.563   9.451  0.6769  0.0359 -0.3158
  909MOL0     C19863   9.660   0.664   9.367 -0.0028 -0.7145 -0.1176
  909MOL0     O19864   9.544   0.657   9.290  0.2282 -0.0433 -0.4395
  909MOL0     C19865   9.523   0.761   9.193 -0.1848  0.6634 -0.0961
  909MOL0     C19866   9.398   0.747   9.122  0.5274  0.9222  0.5706
  909MOL0     C19867   9.400   0.631   9.019  0.1088  0.4023 -0.8516
  909MOL0     C19868   9.394   0.488   9.080 -0.1741 -0.6100  0.5138
  909MOL0     C19869   9.390   0.371   8.992  0.6447 -0.7095  0.1339
  909MOL0     C19870   9.504   0.373   8.886  0.2927  0.0946 -0.0826
  909MOL0     C19871   9.507   0.247   8.803 -0.8458  0.3089  0.2491
  909MOL0     C19872   9.603   0.146   8.874 -0.2275  0.7910  0.0701
  909MOL0     N19873   9.582   0.008   8.814 -0.3648 -0.9222 -0.0851
  909MOL0     C19874   9.465  -0.067   8.832 -0.0019  1.2970 -0.3153
  909MOL0     C19875   9.491  -0.189   8.779 -0.5034  0.4816 -1.0444
  909MOL0     C19876   9.392  -0.312   8.777 -0.5498 -0.3251  0.2361
  909MOL0     C19877   9.259  -0.265   8.717  0.6435  0.0717  0.1394
  909MOL0     C19878   9.164  -0.377   8.679 -0.7674  0.7975  0.9787
  909MOL0     C19879   9.030  -0.337   8.630 -0.2972  0.0392  0.2915
  909MOL0     O19880   8.940  -0.294   8.734  0.0867  0.8528 -0.2218
  909MOL0     C19881   8.815  -0.252   8.703  0.6544  1.0969 -0.3935
  909MOL0     C19882   8.705  -0.279   8.794  0.0203  0.4745  0.3363
  909MOL0     C19883   8.577  -0.252   8.752  0.9031 -1.2844 -0.4724
  909MOL0     C19884   8.555  -0.194   8.626  0.2522  0.9720 -0.2097
  909MOL0     C19885   8.423  -0.182   8.568 -0.1352 -0.2841 -1.1037
  909MOL0     O19886   8.322  -0.247   8.640 -0.2852  0.5806  0.5885
  909MOL0     C19887   8.218  -0.172   8.689  0.5018  0.1753  0.0253
  909MOL0     C19888   8.218  -0.038   8.717 -0.1637  0.1155  0.2797
  909MOL0     C19889   8.108   0.022   8.782  0.1939  0.2709  0.3991
  909MOL0     C19890   7.992  -0.048   8.821 -0.9528 -0.6037  0.2045
  909MOL0     O19891   7.885   0.022   8.874 -0.2564 -0.9547  0.4890
  909MOL0     C19892   7.785  -0.056   8.948  0.6172  0.1674  1.4838
  909MOL0     C19893   7.676   0.043   9.001  0.1833 -0.7426  0.1138
  909MOL0     C19894   7.584  -0.042   9.082 -0.1940 -0.2757  0.3911
  909MOL0     C19895   7.451   0.035   9.102  0.0526 -0.6676  0.5841
  909MOL0     C19896   7.347  -0.055   9.171  0.7596 -0.1372  0.3149
  909MOL0     C19897   7.205  -0.002   9.136  0.0716  0.6512  0.4112
  909MOL0     C19898   7.095  -0.083   9.224  0.1185  0.5191  1.1179
  909MOL0     C19899   6.954  -0.003   9.209  0.2736 -0.0094  0.2718
  909MOL0    Cl19900   6.823  -0.081   9.313 -0.2529  0.2109 -0.1204
  909MOL0     C19901   7.992  -0.185   8.786 -0.5126  0.2173 -0.9704
  909MOL0     C19902   8.102  -0.247   8.734 -0.2738 -0.8241  0.2700
  909MOL0     O19903   8.407  -0.125   8.462  1.1465  0.8172 -0.1120
  909MOL0     C19904   8.660  -0.164   8.545  0.8051  0.2691  0.4121
  909MOL0     C19905   8.785  -0.198   8.577 -0.0486 -0.1913 -0.9098
  909MOL0     N19906   9.626  -0.194   8.738  0.3524  0.0001 -0.2006
  909MOL0     N19907   9.672  -0.073   8.752 -0.2384  0.8394 -0.4433
  909MOL0     C19908   9.758   0.756   9.349  0.1013 -0.4586 -0.4083
  909MOL0     C19909   9.873   0.748   9.428 -0.6909 -0.8510  0.0535
  909MOL0     C19910  10.224   0.563   9.624 -0.0353 -0.3747  0.1154
  909MOL0     C19911  10.274   0.697   9.646  0.4027 -0.6748  0.1361
  909MOL0     C19912  10.405   0.718   9.684 -0.2007  0.2660 -0.6941
  909MOL0     C19913  10.492   0.606   9.709  0.7132  0.1410  0.0301
  909MOL0     O19914  10.618   0.635   9.749  0.6106 -0.2403  0.4757
  909MOL0     C19915  10.699   0.539   9.805 -0.0890 -0.6276  0.1183
  909MOL0     C19916  10.833   0.613   9.829  1.0098  0.3377  0.1119
  909MOL0     C19917  10.821   0.745   9.904  0.2815 -0.6450 -0.0268
  909MOL0     C19918  10.968   0.799   9.921  0.7413 -0.2197  0.2679
  909MOL0     C19919  10.984   0.922   9.991  0.6057 -0.2665  0.0161
  909MOL0     C19920  10.995   1.034  10.043  0.6258 -0.3788  1.0335
  909MOL0     C19921  10.447   0.478   9.698  0.7791 -0.4534 -0.3679
  909MOL0     C19922  10.315   0.457   9.649 -0.2685  0.2497  0.4472
  909MOL0     H19923   9.791   0.481   9.608  2.6689 -0.8140 -0.3236
  909MOL0     H19924   9.591   0.499   9.469 -0.6126  1.0944 -2.2731
  909MOL0     H19925   9.605   0.746   9.122 -0.0615  1.2684 -0.0856
  909MOL0     H19926   9.525   0.859   9.241 -2.7364  0.1227  1.3221
  909MOL0     H19927   9.366   0.839   9.074  0.5594  0.4155 -0.4408
  909MOL0     H19928   9.321   0.718   9.195  1.9814 -4.3872  0.4688
  909MOL0     H19929   9.495   0.644   8.966  0.9911 -0.6938  0.4076
  909MOL0     H19930   9.317   0.646   8.949  0.5270 -0.7300 -1.6224
  909MOL0     H19931   9.488   0.466   9.130  0.8022 -0.3076 -1.1056
  909MOL0     H19932   9.308   0.479   9.148  1.7115 -0.1397  3.0937
  909MOL0     H19933   9.294   0.363   8.940  0.4025 -1.7148  0.7193
  909MOL0     H19934   9.394   0.277   9.047  2.4741 -1.6860 -1.5168
  909MOL0     H19935   9.596   0.386   8.943  0.2291  0.9798 -0.1666
  909MOL0     H19936   9.492   0.461   8.822 -1.2523  0.5543  0.7675
  909MOL0     H19937   9.410   0.204   8.776 -1.1817  0.4987  1.1289
  909MOL0     H19938   9.552   0.275   8.707 -0.1398  2.1224  1.0714
  909MOL0     H19939   9.579   0.140   8.981  0.2415  1.0704  0.1961
  909MOL0     H19940   9.710   0.167   8.862  0.2587 -2.2280 -1.9716
  909MOL0     H19941   9.371  -0.035   8.876 -0.3095  2.5511 -1.7759
  909MOL0     H19942   9.382  -0.357   8.876 -0.8453  0.4562  0.5634
  909MOL0     H19943   9.432  -0.394   8.716 -0.0887 -1.5626  2.1238
  909MOL0     H19944   9.283  -0.199   8.632  0.3160 -0.3782 -0.3050
  909MOL0     H19945   9.221  -0.195   8.793  3.6348  1.5852  0.4039
  909MOL0     H19946   9.213  -0.444   8.609 -2.0131  0.9749 -0.1148
  909MOL0     H19947   9.156  -0.437   8.770  0.2684 -2.7767 -1.0887
  909MOL0     H19948   8.989  -0.425   8.581 -1.0480  0.4825  0.1013
  909MOL0     H19949   9.040  -0.260   8.553 -2.1807  2.0101  1.8779
  909MOL0     H19950   8.722  -0.327   8.890 -0.1824  1.2693  0.7868
  909MOL0     H19951   8.489  -0.281   8.809  2.4258 -2.6065  1.3733
  909MOL0     H19952   8.307   0.022   8.702 -1.5178  1.6288 -2.2418
  909MOL0     H19953   8.106   0.128   8.805 -0.1214  0.9688 -2.5065
  909MOL0     H19954   7.827  -0.101   9.038  0.0984  2.3155  2.8696
  909MOL0     H19955   7.739  -0.122   8.873  0.0226  3.1854 -1.0261
  909MOL0     H19956   7.619   0.079   8.914 -1.6877 -0.0766  1.5509
  909MOL0     H19957   7.723   0.127   9.054  2.5475 -2.2192  0.5067
  909MOL0     H19958   7.635  -0.044   9.178  0.7310  3.1260  0.1184
  909MOL0     H19959   7.554  -0.134   9.032 -0.1195  0.8586 -1.8703
  909MOL0     H19960   7.463   0.127   9.159  0.0934  0.1033 -0.6236
  909MOL0     H19961   7.413   0.070   9.005  3.0407 -0.8627 -0.7844
  909MOL0     H19962   7.367  -0.036   9.277  2.2396  1.9679 -0.2746
  909MOL0     H19963   7.348  -0.159   9.138 -1.7684 -0.5348  1.2300
  909MOL0     H19964   7.192  -0.026   9.030  2.2902  1.7718 -0.1811
  909MOL0     H19965   7.198   0.107   9.140  0.5860  0.7003  0.0458
  909MOL0     H19966   7.088  -0.183   9.180 -0.2043  1.4048 -0.9210
  909MOL0     H19967   7.128  -0.093   9.328  0.5196 -2.3982  0.7917
  909MOL0     H19968   6.916  -0.007   9.106 -1.3758  0.1939  0.8462
  909MOL0     H19969   6.970   0.104   9.224  0.8650 -0.2590  1.5360
  909MOL0     H19970   7.909  -0.249   8.814  0.3279 -0.4647  0.0685
  909MOL0     H19971   8.100  -0.353   8.710  1.6441 -0.5077 -1.5835
  909MOL0     H19972   8.655  -0.112   8.450  2.2765  0.2613  0.3110
  909MOL0     H19973   8.860  -0.183   8.500  1.0654  4.2381  0.6859
  909MOL0     H19974   9.751   0.836   9.275 -0.5830 -1.6461 -1.6714
  909MOL0     H19975   9.951   0.823   9.415 -0.3085 -0.9595  1.4903
  909MOL0     H19976  10.208   0.783   9.637  0.1972 -0.6845  1.3447
  909MOL0     H19977  10.437   0.822   9.684 -3.3441  1.3168 -1.6554
  909MOL0     H19978  10.710   0.451   9.740 -0.0867  0.2007 -1.0384
  909MOL0     H19979  10.656   0.501   9.898 -2.4624  0.0359 -0.6433
  909MOL0     H19980  10.894   0.540   9.883  2.2173  0.2759 -1.2797
  909MOL0     H19981  10.888   0.633   9.737 -0.1750  1.7947 -0.3249
  909MOL0     H19982  10.771   0.719   9.997 -0.8534 -1.5926 -0.8709
  909MOL0     H19983  10.747   0.815   9.863  0.8316 -0.5090 -0.8051
  909MOL0     H19984  11.018   0.729   9.989 -2.7907 -0.6934  2.6388
  909MOL0     H19985  11.024   0.809   9.828 -0.8289  0.8364 -0.6010
  909MOL0     H19986  11.019   1.133  10.077  0.8094 -0.1924  0.3780
  909MOL0     H19987  10.499   0.388   9.728  0.3932 -0.3375  0.7250
  909MOL0     H19988  10.281   0.355   9.637  0.7972  0.0558 -1.2188
  910MOL0     O19989   9.031   3.179   6.846 -0.4374  0.3954  0.3077
  910MOL0     C19990   9.038   3.163   6.967 -0.3958  0.4795 -0.2458
  910MOL0     O19991   8.936   3.165   7.057  0.2345 -0.4890 -0.1857
  910MOL0     C19992   8.807   3.219   7.030 -1.2344  0.0821 -0.3571
  910MOL0     C19993   8.697   3.158   7.089  0.1557 -0.8086 -0.0300
  910MOL0     C19994   8.569   3.214   7.083  0.3952 -0.2777  0.0952
  910MOL0     C19995   8.548   3.346   7.021  0.1406  0.2047  0.0366
  910MOL0     O19996   8.433   3.415   7.007 -0.3936 -0.7919  0.1652
  910MOL0     C19997   8.323   3.382   7.090 -0.3781 -1.1741 -0.1879
  910MOL0     C19998   8.225   3.304   6.992 -0.7071  0.4699 -0.0482
  910MOL0     C19999   8.085   3.291   7.033 -0.4318 -0.0041 -0.5882
  910MOL0     C20000   8.007   3.213   6.931  0.4442  0.1902 -0.0656
  910MOL0     C20001   7.862   3.179   6.984 -0.4903  0.1677 -0.5037
  910MOL0     C20002   7.802   3.075   6.889  0.3209 -0.2020 -0.2438
  910MOL0     C20003   7.646   3.067   6.913 -0.0141 -0.2933 -0.0381
  910MOL0     C20004   7.596   3.017   7.051  0.4829 -0.0488 -0.6998
  910MOL0     N20005   7.654   2.886   7.091  0.0422 -0.1771  0.2922
  910MOL0     C20006   7.786   2.866   7.151  0.1364  0.0698  0.6302
  910MOL0     C20007   7.766   2.742   7.207  0.1624 -0.4743  0.2013
  910MOL0     C20008   7.857   2.662   7.297 -0.1706  0.0343  0.1289
  910MOL0     C20009   7.843   2.723   7.440  0.4486 -0.3395 -0.1010
  910MOL0     C20010   7.897   2.640   7.557  0.3258 -0.1755  0.6963
  910MOL0     C20011   7.852   2.684   7.695  1.5050 -0.5661  0.6470
  910MOL0     O20012   7.886   2.822   7.729 -0.0023  0.0740  0.8054
  910MOL0     C20013   8.011   2.847   7.786 -0.4814  0.0731 -1.1040
  910MOL0     C20014   8.048   2.978   7.818  0.3602  0.0550  0.6692
  910MOL0     C20015   8.154   3.012   7.897  0.2768 -0.0807 -0.5291
  910MOL0     C20016   8.240   2.903   7.937 -0.1482 -1.0078 -0.5022
  910MOL0     C20017   8.365   2.926   8.022 -0.2156  0.1059  0.3665
  910MOL0     O20018   8.383   3.054   8.059  0.4116  0.1402  0.3049
  910MOL0     C20019   8.497   3.105   8.123  0.8901  0.3017 -0.0340
  910MOL0     C20020   8.523   3.244   8.123  0.0791 -0.3992 -0.6627
  910MOL0     C20021   8.622   3.305   8.200  0.0322  0.7088 -0.1888
  910MOL0     C20022   8.715   3.227   8.273  1.2765 -0.8886 -0.4260
  910MOL0     O20023   8.821   3.288   8.342  0.5668  0.6174  0.9222
  910MOL0     C20024   8.874   3.232   8.456  0.8098  0.0034  0.1775
  910MOL0     C20025   8.981   3.331   8.499  0.4680 -0.7898  0.2047
  910MOL0     C20026   9.062   3.272   8.619  0.7826  0.4482 -0.8332
  910MOL0     C20027   9.195   3.343   8.624  0.3383 -0.0903 -0.1639
  910MOL0     C20028   9.264   3.309   8.755  1.1860 -0.0051 -0.3745
  910MOL0     C20029   9.413   3.363   8.756 -0.3937  0.3779  0.0307
  910MOL0     C20030   9.501   3.302   8.868  0.4610  0.3281 -0.0322
  910MOL0     C20031   9.439   3.318   9.006  0.5201  0.1119 -0.4095
  910MOL0    Cl20032   9.419   3.494   9.048  0.4564  0.0639 -0.3802
  910MOL0     C20033   8.689   3.093   8.287  0.5721 -0.4076  0.1377
  910MOL0     C20034   8.586   3.035   8.214 -0.2859 -0.4290 -0.1016
  910MOL0     O20035   8.440   2.829   8.050 -0.2191  0.2337  0.6900
  910MOL0     C20036   8.219   2.768   7.891 -0.3445 -0.2441  1.2103
  910MOL0     C20037   8.109   2.740   7.817 -0.4416  0.5975  0.9805
  910MOL0     N20038   7.641   2.693   7.183 -0.0655  0.1086  0.3018
  910MOL0     N20039   7.584   2.772   7.097  0.2582  0.3223  0.1040
  910MOL0     C20040   8.662   3.405   6.963  0.2898  0.3345  0.3174
  910MOL0     C20041   8.788   3.339   6.962  0.2398  0.0958 -0.4102
  910MOL0     C20042   9.162   3.121   7.034  0.1849  0.4412  0.1788
  910MOL0     C20043   9.168   3.100   7.175 -0.8641 -0.2903  0.3255
  910MOL0     C20044   9.284   3.048   7.223  0.4022  0.4657 -0.7215
  910MOL0     C20045   9.398   3.025   7.155 -0.1233  0.6232 -0.4303
  910MOL0     O20046   9.505   2.976   7.227  0.5214 -0.3140 -0.3351
  910MOL0     C20047   9.627   2.938   7.152  1.2171 -0.0674 -0.5213
  910MOL0     C20048   9.743   2.901   7.242 -0.0586  0.4037 -0.3861
  910MOL0     C20049   9.783   3.013   7.343  0.7103 -0.8463 -0.4518
  910MOL0     C20050   9.926   3.027   7.398  0.3948  0.0600 -0.1509
  910MOL0     C20051   9.996   2.900   7.407 -0.0430  0.4761  0.0610
  910MOL0     C20052  10.039   2.786   7.416 -0.5633 -0.0936 -0.6025
  910MOL0     C20053   9.400   3.057   7.022  0.9912 -0.0646  1.0045
  910MOL0     C20054   9.283   3.099   6.958 -0.4904  1.1542 -0.1972
  910MOL0     H20055   8.711   3.067   7.147  0.0400 -2.3576 -2.3190
  910MOL0     H20056   8.486   3.156   7.125 -0.9440  0.7739 -1.0037
  910MOL0     H20057   8.275   3.474   7.126 -0.5047 -0.3597 -2.2897
  910MOL0     H20058   8.361   3.327   7.177 -0.6677  0.7746  1.2392
  910MOL0     H20059   8.267   3.204   6.980  3.9196  2.1428  0.1338
  910MOL0     H20060   8.227   3.346   6.891  0.2068  0.2105 -0.1448
  910MOL0     H20061   8.037   3.389   7.043 -0.3178  0.2129 -1.8942
  910MOL0     H20062   8.094   3.217   7.112  1.5326 -1.6982 -2.2774
  910MOL0     H20063   7.991   3.262   6.835  0.2453 -0.9178 -0.6204
  910MOL0     H20064   8.052   3.118   6.901 -4.1978 -1.8982 -1.3135
  910MOL0     H20065   7.798   3.267   6.983  0.7343  1.0965 -0.3150
  910MOL0     H20066   7.861   3.152   7.090  2.8543  3.7046  0.6595
  910MOL0     H20067   7.844   2.976   6.911  0.5461 -0.3222 -1.1886
  910MOL0     H20068   7.815   3.095   6.783 -3.2911  0.7413 -0.6636
  910MOL0     H20069   7.598   3.160   6.882  1.2368 -0.2300 -1.9354
  910MOL0     H20070   7.611   2.993   6.841  2.0287 -3.0543  1.6040
  910MOL0     H20071   7.487   3.017   7.037  0.2392  0.6230  1.0345
  910MOL0     H20072   7.614   3.096   7.124  0.9352 -0.1258 -0.7276
  910MOL0     H20073   7.872   2.932   7.160 -1.3860  2.4985 -1.1394
  910MOL0     H20074   7.959   2.672   7.257  0.2655  1.2947  1.4556
  910MOL0     H20075   7.828   2.557   7.289  0.1482 -0.1302  0.9890
  910MOL0     H20076   7.736   2.731   7.461  0.3032 -2.2451 -0.0016
  910MOL0     H20077   7.887   2.823   7.439 -1.1050  0.3670 -0.9392
  910MOL0     H20078   7.864   2.537   7.547 -0.2796  0.0669  0.0646
  910MOL0     H20079   8.007   2.642   7.552  0.2871 -0.5303 -1.3949
  910MOL0     H20080   7.889   2.623   7.778  3.2621  3.5975  3.2714
  910MOL0     H20081   7.743   2.682   7.688  1.5347  1.7922 -2.5403
  910MOL0     H20082   7.988   3.056   7.772  0.7096  1.1632  2.0121
  910MOL0     H20083   8.162   3.113   7.934 -0.8758 -0.3555  0.5387
  910MOL0     H20084   8.454   3.307   8.067 -1.0681 -2.8121 -2.1168
  910MOL0     H20085   8.635   3.412   8.206 -4.0918  1.3305  0.7231
  910MOL0     H20086   8.928   3.140   8.434  0.8450 -0.3035  1.4444
  910MOL0     H20087   8.790   3.218   8.526  0.4856 -0.6211 -0.3198
  910MOL0     H20088   8.953   3.434   8.520  0.1186 -0.2021 -2.7408
  910MOL0     H20089   9.049   3.354   8.416 -0.1907 -2.1659 -0.7589
  910MOL0     H20090   9.081   3.166   8.601  1.0124  0.2539  0.4018
  910MOL0     H20091   8.999   3.278   8.708 -1.0055 -2.1482 -1.8110
  910MOL0     H20092   9.253   3.307   8.539 -1.1725  0.0590 -1.3203
  910MOL0     H20093   9.182   3.452   8.622  1.7369  0.0932 -2.3477
  910MOL0     H20094   9.262   3.201   8.774  0.6435 -0.5091 -2.8954
  910MOL0     H20095   9.201   3.361   8.827  0.3459 -1.3518 -0.0918
  910MOL0     H20096   9.413   3.472   8.765 -0.7777  0.4841 -1.0589
  910MOL0     H20097   9.456   3.339   8.658  0.3655 -1.7933  0.8352
  910MOL0     H20098   9.506   3.193   8.855 -1.5652  0.3479 -1.4350
  910MOL0     H20099   9.599   3.350   8.865  1.3473 -1.0459  3.2297
  910MOL0     H20100   9.500   3.268   9.082 -1.9844  1.2293  2.5521
  910MOL0     H20101   9.337   3.279   9.011  0.8713 -0.9895 -1.3008
  910MOL0     H20102   8.745   3.042   8.365 -1.4165  2.0850  3.5082
  910MOL0     H20103   8.572   2.928   8.229  0.3885 -0.5301 -0.1467
  910MOL0     H20104   8.289   2.688   7.913  2.2045  0.7639 -2.3094
  910MOL0     H20105   8.097   2.642   7.772  0.4169  1.1913 -0.6294
  910MOL0     H20106   8.640   3.492   6.901 -1.6523 -0.7204 -0.5783
  910MOL0     H20107   8.881   3.381   6.925 -0.1153  0.0855 -1.3503
  910MOL0     H20108   9.082   3.113   7.240 -2.0106 -2.0107 -0.7722
  910MOL0     H20109   9.279   3.020   7.328 -5.4694  2.4434 -0.1021
  910MOL0     H20110   9.661   3.025   7.095 -0.8662  0.8383 -0.4866
  910MOL0     H20111   9.600   2.849   7.094 -3.7881 -0.8761  2.4128
  910MOL0     H20112   9.735   2.814   7.308 -1.8506  1.4631  0.8974
  910MOL0     H20113   9.830   2.879   7.181 -0.8188  2.2547 -2.2697
  910MOL0     H20114   9.722   3.011   7.433  0.8990 -3.5199 -0.2923
  910MOL0     H20115   9.750   3.105   7.295  0.7370 -0.5819  0.0322
  910MOL0     H20116   9.982   3.080   7.321 -1.0718  4.4057  1.4812
  910MOL0     H20117   9.920   3.096   7.483  0.6425  1.9374 -1.6098
  910MOL0     H20118  10.073   2.684   7.419 -0.5785 -0.0740  1.6117
  910MOL0     H20119   9.488   3.034   6.962  0.5753  0.9059 -0.0200
  910MOL0     H20120   9.277   3.107   6.850 -1.0013 -1.2193 -0.4086
  911MOL0     O20121   5.270   6.448   6.364 -0.4937 -0.0537 -0.0923
  911MOL0     C20122   5.331   6.551   6.403 -0.9136  0.1324  0.4291
  911MOL0     O20123   5.267   6.654   6.467 -0.0729  0.4138 -0.3127
  911MOL0     C20124   5.135   6.654   6.461  0.1778  0.0196  0.4406
  911MOL0     C20125   5.069   6.663   6.339 -0.3455 -0.3508 -0.8446
  911MOL0     C20126   4.931   6.686   6.340  0.4065 -0.3152  0.0795
  911MOL0     C20127   4.861   6.698   6.460 -0.9236 -0.4344 -0.4313
  911MOL0     O20128   4.731   6.729   6.434  0.7752  0.2445  0.0634
  911MOL0     C20129   4.628   6.682   6.530  0.3176  0.3953  0.8792
  911MOL0     C20130   4.527   6.795   6.551 -1.1101  0.7306 -0.1893
  911MOL0     C20131   4.382   6.731   6.567 -0.3168 -1.2072 -0.2453
  911MOL0     C20132   4.279   6.840   6.599 -0.7345 -0.4952  0.0672
  911MOL0     C20133   4.134   6.790   6.594 -0.2554  0.5361 -0.0499
  911MOL0     C20134   4.096   6.673   6.687 -0.0768 -0.4275  0.7234
  911MOL0     C20135   3.948   6.665   6.706 -0.0976  0.2741 -1.0729
  911MOL0     C20136   3.914   6.568   6.811  0.0362  0.3228 -0.2609
  911MOL0     N20137   3.771   6.545   6.823  0.2482 -0.1956  0.4231
  911MOL0     C20138   3.661   6.590   6.750 -0.3148  1.0178  0.3051
  911MOL0     C20139   3.547   6.512   6.788 -0.5873 -0.5748  0.1138
  911MOL0     C20140   3.400   6.516   6.753 -0.8403  0.1889  0.2954
  911MOL0     C20141   3.320   6.532   6.883 -0.1872 -0.4439  0.4495
  911MOL0     C20142   3.192   6.614   6.857 -0.4353  0.4366 -0.1288
  911MOL0     C20143   3.101   6.577   6.747  0.1544 -1.1344 -0.1231
  911MOL0     O20144   3.018   6.460   6.776 -0.4475  0.2255 -0.0371
  911MOL0     C20145   2.885   6.477   6.803  0.5178  0.7172 -0.4775
  911MOL0     C20146   2.815   6.362   6.849 -0.1240 -0.5223 -0.2197
  911MOL0     C20147   2.683   6.356   6.865 -0.4091 -0.0777 -0.5213
  911MOL0     C20148   2.601   6.465   6.829 -0.0590 -0.0237 -0.2090
  911MOL0     C20149   2.453   6.449   6.839  0.6354 -0.4359 -0.1985
  911MOL0     O20150   2.372   6.530   6.767  0.4762  0.5937  0.1521
  911MOL0     C20151   2.236   6.525   6.786 -0.1626 -0.5659 -0.4076
  911MOL0     C20152   2.183   6.518   6.916  0.2810  0.6077 -0.7875
  911MOL0     C20153   2.051   6.501   6.936  0.0773 -0.1502  0.0648
  911MOL0     C20154   1.952   6.521   6.832  0.2229 -0.5852  0.0318
  911MOL0     O20155   1.819   6.503   6.838 -0.0495  0.2705 -0.7637
  911MOL0     C20156   1.765   6.465   6.967 -0.2137 -0.6900 -0.5066
  911MOL0     C20157   1.607   6.466   6.952 -0.2196  0.5324 -0.2018
  911MOL0     C20158   1.525   6.415   7.076  0.3649 -0.8102 -1.1712
  911MOL0     C20159   1.375   6.395   7.053  0.6480  0.6294 -0.4005
  911MOL0     C20160   1.345   6.270   6.962 -1.1631  0.5666  0.6373
  911MOL0     C20161   1.197   6.256   6.961 -0.1406 -0.3526  0.1774
  911MOL0     C20162   1.156   6.137   6.870 -0.8922 -1.0716  0.1494
  911MOL0     C20163   1.075   6.186   6.747  0.3083  0.1778 -0.0189
  911MOL0    Cl20164   0.907   6.234   6.806  0.0681 -0.0005 -0.5291
  911MOL0     C20165   2.008   6.558   6.706 -0.0021  0.0424  0.2719
  911MOL0     C20166   2.144   6.549   6.684 -0.4878 -1.2603 -0.1175
  911MOL0     O20167   2.415   6.336   6.877  0.0625 -0.0766 -0.9461
  911MOL0     C20168   2.667   6.584   6.790  1.2136 -0.0770  0.2204
  911MOL0     C20169   2.810   6.586   6.774  1.0850 -0.6142  0.8210
  911MOL0     N20170   3.598   6.419   6.877  1.2131  0.0283  0.6404
  911MOL0     N20171   3.724   6.448   6.900  0.4210 -0.2152  0.1831
  911MOL0     C20172   4.926   6.682   6.582  0.2388 -0.0705 -0.6137
  911MOL0     C20173   5.070   6.664   6.582  1.2339 -0.2283  0.5267
  911MOL0     C20174   5.478   6.553   6.385  0.6368 -0.1851  0.2491
  911MOL0     C20175   5.540   6.661   6.446  0.3899 -0.0606  0.6382
  911MOL0     C20176   5.673   6.675   6.428  0.2419  0.5892 -0.8761
  911MOL0     C20177   5.752   6.586   6.359 -0.0285  0.2961  0.1771
  911MOL0     O20178   5.885   6.590   6.364 -0.5454 -0.6478 -0.6942
  911MOL0     C20179   5.973   6.512   6.273 -0.0051  0.4175  0.6180
  911MOL0     C20180   6.114   6.572   6.278 -0.4372 -0.4540 -0.0874
  911MOL0     C20181   6.220   6.503   6.188  0.4429  0.5552  0.1080
  911MOL0     C20182   6.358   6.568   6.194 -0.3113  0.6670  0.8931
  911MOL0     C20183   6.457   6.476   6.241 -0.1342 -0.0098 -0.0794
  911MOL0     C20184   6.549   6.405   6.284 -0.0977  0.3115 -0.8304
  911MOL0     C20185   5.682   6.484   6.295 -0.0550  0.5760  0.2251
  911MOL0     C20186   5.543   6.463   6.301 -0.3151  0.2481  0.8570
  911MOL0     H20187   5.118   6.658   6.243 -1.3285  0.1410 -1.3751
  911MOL0     H20188   4.883   6.693   6.243  1.7914  0.4078 -0.5834
  911MOL0     H20189   4.678   6.647   6.621  2.3126  2.5960  0.7341
  911MOL0     H20190   4.580   6.594   6.487  0.5160  1.4441 -1.6345
  911MOL0     H20191   4.533   6.862   6.465  0.7558 -1.1975 -1.6576
  911MOL0     H20192   4.567   6.850   6.638  1.7668 -2.1244  0.4901
  911MOL0     H20193   4.380   6.653   6.643  2.3617  1.9540  3.5090
  911MOL0     H20194   4.351   6.685   6.472 -0.2790  1.7584 -1.8188
  911MOL0     H20195   4.299   6.881   6.699 -5.0538  0.4751  0.7089
  911MOL0     H20196   4.288   6.921   6.526 -2.0923 -1.3876 -1.1373
  911MOL0     H20197   4.116   6.766   6.489 -1.1230  0.8989  0.0093
  911MOL0     H20198   4.065   6.870   6.622  0.8188  0.5805  2.8460
  911MOL0     H20199   4.138   6.709   6.782  0.3598 -0.3132  0.4899
  911MOL0     H20200   4.152   6.583   6.661  4.2237  2.3026 -0.4521
  911MOL0     H20201   3.901   6.760   6.734 -0.5029  0.5053 -2.4277
  911MOL0     H20202   3.902   6.646   6.608  1.4748  0.0046 -1.7904
  911MOL0     H20203   3.941   6.603   6.911 -0.8471 -1.7080  0.7809
  911MOL0     H20204   3.969   6.474   6.802  2.5893  1.2082  3.6194
  911MOL0     H20205   3.669   6.674   6.682  3.8806  0.3364 -0.3011
  911MOL0     H20206   3.383   6.429   6.689  3.2857  0.3248 -1.3553
  911MOL0     H20207   3.381   6.609   6.698  2.7731 -0.0831 -1.7505
  911MOL0     H20208   3.384   6.578   6.958  0.9583  1.7129 -1.7313
  911MOL0     H20209   3.296   6.431   6.917  0.6366 -0.3361  1.3695
  911MOL0     H20210   3.143   6.617   6.955  1.3592  0.6737  0.8197
  911MOL0     H20211   3.227   6.715   6.833  3.9577 -0.8174  0.1683
  911MOL0     H20212   3.159   6.550   6.658 -0.1873  3.5161 -2.0064
  911MOL0     H20213   3.047   6.668   6.720  1.1185 -0.8661 -1.2118
  911MOL0     H20214   2.869   6.274   6.882  0.6671  0.3971  1.0091
  911MOL0     H20215   2.642   6.266   6.909 -1.3276  0.2283 -0.7297
  911MOL0     H20216   2.250   6.497   6.999 -3.1303  1.0794  2.3211
  911MOL0     H20217   2.024   6.484   7.039  4.0659 -0.1959  1.2609
  911MOL0     H20218   1.793   6.540   7.042  1.4869 -0.5083 -1.2704
  911MOL0     H20219   1.807   6.366   6.989 -1.1749 -0.6637  1.7056
  911MOL0     H20220   1.578   6.409   6.864  1.2367  0.4839 -0.6724
  911MOL0     H20221   1.567   6.563   6.923 -2.2499 -0.1438  0.1544
  911MOL0     H20222   1.558   6.482   7.155  3.9103  0.7849 -3.7105
  911MOL0     H20223   1.564   6.321   7.116  1.4490  0.5047  1.0382
  911MOL0     H20224   1.328   6.389   7.151  0.0375  2.3563 -0.5519
  911MOL0     H20225   1.335   6.489   7.013 -0.0879  1.8443  2.8881
  911MOL0     H20226   1.396   6.183   7.005  3.9178  2.0641 -1.5604
  911MOL0     H20227   1.379   6.288   6.859  0.1491  3.5274  1.4893
  911MOL0     H20228   1.139   6.340   6.920 -1.5994 -2.5315 -2.6441
  911MOL0     H20229   1.157   6.239   7.061  0.8931  0.7666  0.8068
  911MOL0     H20230   1.250   6.094   6.834 -0.3569  1.9752 -2.5409
  911MOL0     H20231   1.106   6.056   6.923  0.2098 -2.5638 -1.0006
  911MOL0     H20232   1.076   6.110   6.669 -1.1157  3.8481 -4.0659
  911MOL0     H20233   1.125   6.268   6.694 -0.1442 -0.0838 -0.8693
  911MOL0     H20234   1.946   6.586   6.622 -1.4604  2.9302  2.1406
  911MOL0     H20235   2.187   6.566   6.586 -1.8877 -0.2798 -0.5954
  911MOL0     H20236   2.589   6.657   6.770 -2.3119 -3.7883 -1.0516
  911MOL0     H20237   2.851   6.683   6.745  0.1877 -0.4121  0.1888
  911MOL0     H20238   4.879   6.686   6.679 -1.1709  0.9599 -1.3069
  911MOL0     H20239   5.124   6.650   6.675  2.4325 -1.2380 -0.2921
  911MOL0     H20240   5.486   6.734   6.505 -1.0732  2.0210 -2.9010
  911MOL0     H20241   5.731   6.746   6.488 -0.1667 -0.8519  1.3426
  911MOL0     H20242   5.941   6.522   6.168 -0.7837 -0.0167  0.8070
  911MOL0     H20243   5.976   6.407   6.301  2.3177  0.0373 -0.7664
  911MOL0     H20244   6.100   6.679   6.256  0.5645 -0.5023 -1.0503
  911MOL0     H20245   6.138   6.570   6.385 -0.6592 -1.2883 -0.0508
  911MOL0     H20246   6.174   6.517   6.089  0.7027 -1.5028 -0.3431
  911MOL0     H20247   6.227   6.399   6.221 -0.1192  1.3587  3.0725
  911MOL0     H20248   6.391   6.618   6.102  3.2817  1.2998  2.3701
  911MOL0     H20249   6.363   6.645   6.271  1.2803  0.8096  0.6820
  911MOL0     H20250   6.624   6.330   6.300 -0.2688  0.2923 -0.0758
  911MOL0     H20251   5.721   6.404   6.233 -3.8103  0.6842 -2.6264
  911MOL0     H20252   5.490   6.389   6.241  0.0617 -1.1891  2.2105
  912MOL0     O20253   1.465   4.876   3.351 -0.3218 -0.3553  0.1496
  912MOL0     C20254   1.432   4.977   3.285 -0.3825 -0.6440 -0.7622
  912MOL0     O20255   1.502   5.090   3.287 -0.1531 -0.3316 -0.3985
  912MOL0     C20256   1.600   5.107   3.382  0.4968  0.1171 -0.5345
  912MOL0     C20257   1.733   5.096   3.331 -0.1265  0.4854  0.6004
  912MOL0     C20258   1.840   5.123   3.419  0.1488  0.0159 -0.4065
  912MOL0     C20259   1.816   5.160   3.557  0.3001 -0.2822  0.7462
  912MOL0     O20260   1.903   5.183   3.653 -0.4344 -0.6261  0.9611
  912MOL0     C20261   2.037   5.148   3.618  0.0083  0.8561  0.0319
  912MOL0     C20262   2.142   5.168   3.736  0.3587 -0.6750 -0.8525
  912MOL0     C20263   2.087   5.125   3.878  0.0768  1.4105 -0.4249
  912MOL0     C20264   2.186   5.157   3.997 -0.3727  0.1935 -0.6262
  912MOL0     C20265   2.147   5.079   4.127  0.1587  0.1007 -0.1480
  912MOL0     C20266   2.001   5.093   4.175 -0.0842  0.6757 -0.2645
  912MOL0     C20267   1.976   5.235   4.241 -1.0625 -0.2784 -0.8767
  912MOL0     C20268   2.057   5.255   4.368 -0.3086 -0.0718  0.9211
  912MOL0     N20269   2.036   5.160   4.474  0.9169 -0.7689 -0.7789
  912MOL0     C20270   1.921   5.082   4.489 -0.8354  0.1861  0.8094
  912MOL0     C20271   1.939   5.015   4.607 -0.0787  0.0948 -0.0269
  912MOL0     C20272   1.856   4.913   4.687 -0.3288  0.8892 -0.7903
  912MOL0     C20273   1.707   4.966   4.703 -0.0656  0.5602  0.2207
  912MOL0     C20274   1.626   4.853   4.765 -0.1580 -0.2380 -0.5357
  912MOL0     C20275   1.478   4.891   4.767 -0.2153  0.1594 -0.2614
  912MOL0     O20276   1.452   4.999   4.688  0.8602 -0.1895  0.0075
  912MOL0     C20277   1.324   5.045   4.674 -0.3064  0.3100  0.5743
  912MOL0     C20278   1.210   5.016   4.757  0.2301  0.3880 -0.6473
  912MOL0     C20279   1.083   5.071   4.737 -0.2185 -0.3059  0.6794
  912MOL0     C20280   1.069   5.149   4.622  0.2174  0.3652 -0.7088
  912MOL0     C20281   0.938   5.214   4.605 -0.2034 -0.3995 -0.3000
  912MOL0     O20282   0.837   5.156   4.674  0.6652  0.5424 -0.0194
  912MOL0     C20283   0.715   5.203   4.651  0.2274 -0.8967  0.5001
  912MOL0     C20284   0.651   5.169   4.527  1.3317  0.0352 -0.1885
  912MOL0     C20285   0.529   5.239   4.497 -0.4767  0.3176  0.1471
  912MOL0     C20286   0.475   5.327   4.579  0.0529 -0.7708 -0.4541
  912MOL0     O20287   0.359   5.390   4.538  0.1189  0.0985 -0.1347
  912MOL0     C20288   0.305   5.506   4.601 -0.1433  0.2843 -0.3874
  912MOL0     C20289   0.219   5.479   4.727  0.4404 -0.2248  0.4517
  912MOL0     C20290   0.074   5.435   4.701  0.7430 -0.4368 -0.1766
  912MOL0     C20291   0.004   5.551   4.625 -1.0088 -0.3838  0.0195
  912MOL0     C20292  -0.145   5.527   4.631  0.4215 -0.6188 -0.2329
  912MOL0     C20293  -0.224   5.641   4.567 -0.1656  0.1981 -0.0589
  912MOL0     C20294  -0.373   5.606   4.583 -0.3582  0.8177 -0.0301
  912MOL0     C20295  -0.446   5.699   4.484  0.1032  0.4260  0.4901
  912MOL0    Cl20296  -0.623   5.678   4.516  0.4199  0.2822  0.0560
  912MOL0     C20297   0.535   5.349   4.702 -0.0461 -0.0396 -0.2796
  912MOL0     C20298   0.645   5.287   4.744  0.4825  0.7419  0.9965
  912MOL0     O20299   0.927   5.309   4.518  0.4849 -0.2743 -0.4753
  912MOL0     C20300   1.174   5.170   4.531 -0.3631  0.9731  0.1551
  912MOL0     C20301   1.304   5.124   4.560  0.3477 -0.1125 -0.7218
  912MOL0     N20302   2.071   5.037   4.645 -0.1014 -0.2680  1.9009
  912MOL0     N20303   2.123   5.129   4.571 -0.2209  0.5414  1.3261
  912MOL0     C20304   1.684   5.160   3.601  0.1260 -0.4276  0.4466
  912MOL0     C20305   1.568   5.138   3.512 -0.9335  0.5350 -0.1240
  912MOL0     C20306   1.314   4.977   3.198 -0.5625  0.3578  0.0355
  912MOL0     C20307   1.270   5.091   3.133 -0.5786 -0.0472  0.0997
  912MOL0     C20308   1.151   5.091   3.052 -0.1995 -0.0401  0.3738
  912MOL0     C20309   1.075   4.975   3.040 -0.2326  0.0122  0.8288
  912MOL0     O20310   0.967   4.980   2.960  0.8973 -0.0298 -0.2754
  912MOL0     C20311   0.889   4.850   2.954  0.0963 -0.5665  0.2678
  912MOL0     C20312   0.746   4.865   2.897  0.5576 -0.2145  0.8594
  912MOL0     C20313   0.674   4.730   2.900 -0.1116 -0.9956 -0.0925
  912MOL0     C20314   0.536   4.722   2.831  0.4319 -0.2217 -0.6668
  912MOL0     C20315   0.471   4.586   2.858  0.5024 -0.7868  0.4301
  912MOL0     C20316   0.421   4.480   2.884 -0.5784 -0.5102 -0.9215
  912MOL0     C20317   1.126   4.852   3.100  0.0118 -0.5008  0.8574
  912MOL0     C20318   1.242   4.853   3.176  0.7672 -0.3581  0.0519
  912MOL0     H20319   1.756   5.074   3.227  0.4497  1.9622  0.3899
  912MOL0     H20320   1.937   5.127   3.370  0.0511 -2.6506 -0.9470
  912MOL0     H20321   2.071   5.204   3.531  1.9697 -1.1678 -0.6101
  912MOL0     H20322   2.047   5.040   3.599 -2.0878 -0.3418  4.3807
  912MOL0     H20323   2.170   5.272   3.753  2.8219 -1.7804  3.6307
  912MOL0     H20324   2.234   5.109   3.724  0.8817 -0.3681  1.2054
  912MOL0     H20325   2.059   5.020   3.883 -0.6423  1.5759 -0.9320
  912MOL0     H20326   1.990   5.166   3.907 -3.3423 -4.2314 -2.3866
  912MOL0     H20327   2.292   5.138   3.978  0.0994  0.7252  1.2177
  912MOL0     H20328   2.176   5.264   4.021 -2.3074  0.1347 -0.9657
  912MOL0     H20329   2.217   5.105   4.206 -0.3382  0.4350  0.1867
  912MOL0     H20330   2.153   4.971   4.108 -0.6513  0.0549 -0.1852
  912MOL0     H20331   1.972   5.014   4.245 -0.0177  0.1604 -0.8097
  912MOL0     H20332   1.931   5.104   4.093  2.3245  2.1570 -2.2555
  912MOL0     H20333   2.014   5.298   4.161  4.5819 -1.1776  0.6483
  912MOL0     H20334   1.873   5.262   4.267 -0.4177  2.8046 -1.0696
  912MOL0     H20335   2.028   5.357   4.398 -1.6595 -0.2230  0.2095
  912MOL0     H20336   2.163   5.250   4.342 -1.0400  0.3763 -2.5431
  912MOL0     H20337   1.829   5.085   4.431 -0.2532 -2.4111 -0.4383
  912MOL0     H20338   1.906   4.905   4.784 -1.5360 -0.6718 -0.2597
  912MOL0     H20339   1.851   4.815   4.639  0.8996 -0.4015  1.5445
  912MOL0     H20340   1.670   4.990   4.603 -2.2568 -2.0181  0.3150
  912MOL0     H20341   1.699   5.056   4.764  2.1319 -0.2267  1.8074
  912MOL0     H20342   1.626   4.764   4.701  0.7361 -0.1514 -0.6596
  912MOL0     H20343   1.653   4.829   4.869  1.5965 -4.0695 -1.6670
  912MOL0     H20344   1.452   4.916   4.870  0.9207  0.7118 -0.0974
  912MOL0     H20345   1.407   4.809   4.753 -2.6669  1.7205  2.0791
  912MOL0     H20346   1.216   4.945   4.839 -2.4024  0.0241 -0.6981
  912MOL0     H20347   1.003   5.055   4.809  0.7628 -1.5998  1.5372
  912MOL0     H20348   0.690   5.095   4.457 -2.4839  2.0232 -5.0558
  912MOL0     H20349   0.485   5.212   4.401 -0.3329 -0.2365  0.2360
  912MOL0     H20350   0.235   5.558   4.535  0.3881 -0.8055 -1.8547
  912MOL0     H20351   0.389   5.569   4.631  0.0540 -0.7404  1.3381
  912MOL0     H20352   0.211   5.572   4.784  1.6504 -1.5532  2.9653
  912MOL0     H20353   0.256   5.399   4.792  1.4689  0.2982  0.5346
  912MOL0     H20354   0.021   5.428   4.796 -1.7904  0.7837 -1.4071
  912MOL0     H20355   0.054   5.339   4.654  3.0501 -1.2367  0.3373
  912MOL0     H20356   0.032   5.648   4.667 -0.4423  0.1137 -1.4306
  912MOL0     H20357   0.030   5.555   4.519  0.6857  4.4727  0.3650
  912MOL0     H20358  -0.173   5.524   4.737  1.3530 -1.4856  0.0035
  912MOL0     H20359  -0.171   5.431   4.585  2.9042 -1.3297 -0.2979
  912MOL0     H20360  -0.188   5.669   4.468 -0.4604 -1.0406 -0.5388
  912MOL0     H20361  -0.203   5.732   4.623 -0.7270  2.2696 -3.0034
  912MOL0     H20362  -0.396   5.506   4.546 -0.3308  1.5457 -2.1519
  912MOL0     H20363  -0.401   5.612   4.689  2.6112 -0.9584  0.9780
  912MOL0     H20364  -0.421   5.674   4.381  1.0846 -2.4636  1.3138
  912MOL0     H20365  -0.418   5.802   4.508  4.3242 -0.3005 -0.4214
  912MOL0     H20366   0.497   5.424   4.771  0.0592  1.0866 -1.4159
  912MOL0     H20367   0.693   5.333   4.830  1.1352 -0.1488  1.1281
  912MOL0     H20368   1.149   5.224   4.440 -1.5789  3.1950  1.7123
  912MOL0     H20369   1.382   5.112   4.485  0.0852 -3.5969 -0.5726
  912MOL0     H20370   1.656   5.171   3.705  3.1243 -0.3401  1.3282
  912MOL0     H20371   1.464   5.141   3.543 -1.4962  0.4712 -1.9025
  912MOL0     H20372   1.335   5.177   3.119  1.2708 -1.6282 -1.7675
  912MOL0     H20373   1.122   5.187   3.010  2.7121  0.2552 -1.2203
  912MOL0     H20374   0.877   4.788   3.043 -0.7953 -2.5885 -1.1783
  912MOL0     H20375   0.944   4.787   2.884  0.4076 -0.8777  0.7955
  912MOL0     H20376   0.688   4.934   2.959 -0.7514 -1.7101  1.3560
  912MOL0     H20377   0.739   4.916   2.800 -2.0808 -0.7329  0.6968
  912MOL0     H20378   0.670   4.704   3.006 -1.1069  1.2496  0.4737
  912MOL0     H20379   0.747   4.666   2.848 -0.7378 -0.9255 -1.0876
  912MOL0     H20380   0.473   4.802   2.871  2.5863  0.1838  2.2209
  912MOL0     H20381   0.534   4.740   2.723 -2.1508  0.3604 -0.5865
  912MOL0     H20382   0.358   4.403   2.925 -0.7626  0.4358  0.6408
  912MOL0     H20383   1.066   4.762   3.095  0.5507 -0.9333  1.8831
  912MOL0     H20384   1.283   4.763   3.220 -0.3363 -2.0292 -2.1630
  913MOL0     O20385   8.054   4.077   3.753  1.3872  0.2964  0.8225
  913MOL0     C20386   8.106   4.175   3.802  0.5264  0.2791  0.4657
  913MOL0     O20387   8.054   4.297   3.810  0.2028 -0.1953  0.4241
  913MOL0     C20388   7.933   4.322   3.755 -0.7478 -0.0956 -0.8394
  913MOL0     C20389   7.863   4.254   3.659 -0.4364 -0.0307  0.0914
  913MOL0     C20390   7.732   4.293   3.621  0.2454  0.7978 -0.7958
  913MOL0     C20391   7.675   4.415   3.660  0.1658 -0.0123  0.2101
  913MOL0     O20392   7.554   4.457   3.608 -0.4451  0.1122  0.0339
  913MOL0     C20393   7.473   4.558   3.673  0.2675  0.0931 -0.5384
  913MOL0     C20394   7.346   4.585   3.591  1.1994  0.2319  0.3371
  913MOL0     C20395   7.275   4.696   3.674 -0.1035  0.3967 -0.2237
  913MOL0     C20396   7.134   4.712   3.614  0.2102 -0.6603  0.4865
  913MOL0     C20397   7.078   4.853   3.632  0.9633 -0.1207 -0.2939
  913MOL0     C20398   6.935   4.859   3.579  0.0810  0.5562  0.2013
  913MOL0     C20399   6.867   4.992   3.588 -0.2481 -0.4993  0.2845
  913MOL0     C20400   6.730   4.983   3.525 -0.3994  1.1260 -1.1265
  913MOL0     N20401   6.673   5.117   3.485 -0.2601 -0.1969  0.1975
  913MOL0     C20402   6.548   5.141   3.427 -0.1805 -0.4890 -0.3611
  913MOL0     C20403   6.535   5.278   3.428 -0.5942  0.7877 -0.6426
  913MOL0     C20404   6.417   5.356   3.368 -0.8844  0.1825  0.3732
  913MOL0     C20405   6.334   5.417   3.475  0.5891  0.3903 -0.3391
  913MOL0     C20406   6.191   5.450   3.425  0.8647  0.6915  0.0559
  913MOL0     C20407   6.201   5.536   3.301  0.5304 -0.3993 -0.3491
  913MOL0     O20408   6.071   5.593   3.271  0.2079  0.0001  0.3136
  913MOL0     C20409   6.057   5.690   3.178 -0.2198 -0.0988 -0.0617
  913MOL0     C20410   5.936   5.750   3.157 -0.0164 -0.2799 -0.1090
  913MOL0     C20411   5.907   5.848   3.062  0.6043 -0.2604  0.6276
  913MOL0     C20412   6.011   5.907   2.984 -0.1106  0.4559 -0.5938
  913MOL0     C20413   5.989   6.023   2.890 -0.1383 -0.6635 -0.6807
  913MOL0     O20414   6.092   6.051   2.795 -0.3315  0.3395  0.8396
  913MOL0     C20415   6.105   6.177   2.739 -1.3221 -0.6663 -0.5195
  913MOL0     C20416   6.187   6.185   2.620 -0.3186 -0.2745  0.2269
  913MOL0     C20417   6.203   6.304   2.558  0.4901  0.8273  0.3357
  913MOL0     C20418   6.148   6.420   2.610  0.3066  0.0395  0.0933
  913MOL0     O20419   6.163   6.540   2.532  0.0803 -0.6075 -0.0660
  913MOL0     C20420   6.097   6.551   2.402 -0.4292 -0.1871 -0.5585
  913MOL0     C20421   5.977   6.645   2.405  0.3078  0.3615  0.5141
  913MOL0     C20422   5.906   6.654   2.544 -0.4596  0.1213 -0.0398
  913MOL0     C20423   5.779   6.746   2.550 -0.3911  0.1396  0.1483
  913MOL0     C20424   5.741   6.780   2.693  0.9305  0.5047 -0.3603
  913MOL0     C20425   5.616   6.875   2.698  0.0294  0.2499  0.6174
  913MOL0     C20426   5.487   6.833   2.614 -0.0114 -0.3624  0.0602
  913MOL0     C20427   5.382   6.938   2.603 -1.0527 -0.8993  0.0571
  913MOL0    Cl20428   5.439   7.068   2.496 -0.2727 -0.4849  0.3066
  913MOL0     C20429   6.098   6.412   2.738 -0.1310  0.9205 -0.2050
  913MOL0     C20430   6.078   6.290   2.800  0.9425  0.0242  0.8850
  913MOL0     O20431   5.884   6.092   2.907 -0.4510 -0.3895  0.2261
  913MOL0     C20432   6.143   5.850   3.007  0.2535  0.7643 -0.7544
  913MOL0     C20433   6.161   5.746   3.098  0.0801 -0.3750  0.0062
  913MOL0     N20434   6.649   5.332   3.480 -0.1670 -0.4435 -0.3746
  913MOL0     N20435   6.734   5.239   3.508  0.2662  0.1268 -0.8660
  913MOL0     C20436   7.732   4.474   3.773  0.0339 -0.5727 -0.3377
  913MOL0     C20437   7.865   4.431   3.814  0.6754  0.2831  0.3779
  913MOL0     C20438   8.237   4.172   3.870  0.5908  0.6779 -0.7694
  913MOL0     C20439   8.313   4.052   3.879  0.3076  0.4174 -0.7618
  913MOL0     C20440   8.437   4.044   3.945 -0.0197 -0.0329 -0.0397
  913MOL0     C20441   8.496   4.160   3.991  1.0176  0.6533  0.2628
  913MOL0     O20442   8.617   4.143   4.047  0.5256  0.7672  0.0627
  913MOL0     C20443   8.694   4.261   4.071 -0.7324 -0.8362 -0.4850
  913MOL0     C20444   8.727   4.339   3.946  1.0184  0.1669 -0.0536
  913MOL0     C20445   8.773   4.252   3.825  0.2527  0.9134  0.1612
  913MOL0     C20446   8.925   4.250   3.821 -0.0990 -0.5065  0.6327
  913MOL0     C20447   8.968   4.146   3.917 -0.2198  0.8711 -0.5380
  913MOL0     C20448   8.991   4.043   3.978 -0.0944 -0.0571 -0.7384
  913MOL0     C20449   8.420   4.281   3.980  0.3850  0.0896  0.0576
  913MOL0     C20450   8.294   4.286   3.928  0.2446 -0.7587  0.6415
  913MOL0     H20451   7.902   4.169   3.605  0.0778  0.1001  0.2519
  913MOL0     H20452   7.672   4.237   3.550 -2.1026  3.1952 -0.8261
  913MOL0     H20453   7.521   4.655   3.692 -2.0721  1.2006  0.0386
  913MOL0     H20454   7.457   4.519   3.774  3.1926 -2.1635 -0.8265
  913MOL0     H20455   7.280   4.499   3.578  1.6579 -0.0877  0.0763
  913MOL0     H20456   7.378   4.613   3.490 -0.2540 -0.0614 -0.2220
  913MOL0     H20457   7.335   4.788   3.663  0.5652  0.1578  1.1850
  913MOL0     H20458   7.270   4.671   3.780 -4.1399 -4.5455 -1.2212
  913MOL0     H20459   7.128   4.689   3.507  2.5539  1.2078 -0.1296
  913MOL0     H20460   7.060   4.649   3.664 -1.4491  0.6983 -0.1406
  913MOL0     H20461   7.146   4.923   3.582  0.3241 -0.0447 -1.0604
  913MOL0     H20462   7.083   4.870   3.740  1.7430 -2.4128  0.0764
  913MOL0     H20463   6.875   4.781   3.627 -0.0959 -1.5500 -3.0752
  913MOL0     H20464   6.938   4.827   3.474 -3.3762  2.1593 -0.5416
  913MOL0     H20465   6.857   5.029   3.691 -0.4315 -0.7260  0.3478
  913MOL0     H20466   6.915   5.066   3.523  1.0105 -1.8072 -0.3297
  913MOL0     H20467   6.668   4.937   3.603  1.1809 -0.2555 -0.6037
  913MOL0     H20468   6.728   4.919   3.437 -1.6765 -1.1468  0.4269
  913MOL0     H20469   6.475   5.066   3.399 -0.9324 -0.4670  1.4442
  913MOL0     H20470   6.355   5.297   3.299 -1.3147  0.8152  0.2151
  913MOL0     H20471   6.467   5.430   3.304  0.5227  0.0896  1.3326
  913MOL0     H20472   6.389   5.500   3.520  2.6472 -0.8428 -0.4483
  913MOL0     H20473   6.323   5.349   3.560  0.7037 -0.9069 -1.3246
  913MOL0     H20474   6.137   5.356   3.414 -0.0375  1.1417  0.5381
  913MOL0     H20475   6.140   5.497   3.510  0.6310 -2.1404  1.6126
  913MOL0     H20476   6.242   5.476   3.219 -0.0674  1.1921 -1.8560
  913MOL0     H20477   6.269   5.619   3.319 -0.2951  0.7102 -2.0974
  913MOL0     H20478   5.863   5.698   3.218  0.6279 -0.3781  0.6002
  913MOL0     H20479   5.806   5.882   3.043 -0.5516 -1.1672  4.3801
  913MOL0     H20480   6.214   6.095   2.566  0.5091  0.5305 -0.7405
  913MOL0     H20481   6.253   6.321   2.463 -1.3935  0.6237 -0.7422
  913MOL0     H20482   6.062   6.451   2.373 -0.1547 -1.1880  2.1860
  913MOL0     H20483   6.168   6.598   2.333  1.1068 -0.5629  0.7054
  913MOL0     H20484   5.902   6.607   2.335  1.4967  3.7620 -2.9439
  913MOL0     H20485   6.008   6.743   2.366 -0.3409  1.2878  2.1893
  913MOL0     H20486   5.974   6.685   2.624  0.6436 -1.9550 -0.1246
  913MOL0     H20487   5.872   6.552   2.562 -3.2303  0.5119 -2.3132
  913MOL0     H20488   5.795   6.831   2.483 -3.3033 -2.0378 -3.7098
  913MOL0     H20489   5.695   6.691   2.508  0.1715 -0.7817  0.2166
  913MOL0     H20490   5.829   6.831   2.735  1.6964  1.5243 -3.0142
  913MOL0     H20491   5.722   6.685   2.745 -1.4654  0.8339 -0.5227
  913MOL0     H20492   5.662   6.963   2.652  1.5469 -1.1265 -0.6536
  913MOL0     H20493   5.595   6.903   2.801 -1.4238  1.6000 -0.0113
  913MOL0     H20494   5.499   6.780   2.518 -1.7807  0.9496 -0.9374
  913MOL0     H20495   5.457   6.752   2.681 -1.5522 -0.8054 -1.1123
  913MOL0     H20496   5.378   6.985   2.702  1.3001  2.1473 -1.1227
  913MOL0     H20497   5.279   6.909   2.584 -1.5660  1.3463 -0.8834
  913MOL0     H20498   6.072   6.506   2.785  0.9330  0.4322  1.4247
  913MOL0     H20499   6.037   6.300   2.900  1.5059  0.3122  1.0914
  913MOL0     H20500   6.236   5.879   2.958  0.4057  1.1609 -0.2445
  913MOL0     H20501   6.258   5.699   3.107 -1.3050 -3.7566 -0.9032
  913MOL0     H20502   7.698   4.563   3.825 -0.1785  0.5863 -2.3358
  913MOL0     H20503   7.924   4.492   3.882  1.9866 -1.1076  0.5446
  913MOL0     H20504   8.279   3.951   3.861  4.2009 -1.5202  1.5570
  913MOL0     H20505   8.496   3.953   3.948  0.2346  0.1475  0.6723
  913MOL0     H20506   8.775   4.228   4.136 -2.2157 -1.2600  1.2105
  913MOL0     H20507   8.643   4.322   4.147 -1.2784 -2.2477  0.3114
  913MOL0     H20508   8.647   4.406   3.912  0.7952  0.4380  0.9773
  913MOL0     H20509   8.805   4.413   3.965 -0.6895  2.2638 -0.7728
  913MOL0     H20510   8.739   4.300   3.733  1.7483  1.9337  0.1102
  913MOL0     H20511   8.750   4.145   3.823 -1.6729  1.2166  1.9903
  913MOL0     H20512   8.966   4.228   3.722  1.0251 -0.9924  1.2009
  913MOL0     H20513   8.971   4.341   3.860 -2.0428 -0.5649  3.3718
  913MOL0     H20514   9.015   3.942   4.007 -1.8041 -1.4533 -3.7465
  913MOL0     H20515   8.466   4.373   4.014  2.0814 -0.6175 -0.2471
  913MOL0     H20516   8.248   4.385   3.924  4.4513  1.4394  0.9660
  914MOL0     O20517   5.512   7.123   9.330 -0.0859  0.3777 -0.6326
  914MOL0     C20518   5.538   7.078   9.220 -0.1850 -0.4259 -0.0311
  914MOL0     O20519   5.433   7.057   9.120  0.4281 -1.1386 -0.4676
  914MOL0     C20520   5.303   7.053   9.180 -0.1384 -0.1556 -0.5114
  914MOL0     C20521   5.235   7.170   9.234  0.0959  0.7758  1.3448
  914MOL0     C20522   5.099   7.165   9.252  0.2984  0.3494 -0.3380
  914MOL0     C20523   5.021   7.045   9.245 -0.7781 -0.4141 -0.4578
  914MOL0     O20524   4.884   7.030   9.242 -0.6109 -0.0633 -0.7625
  914MOL0     C20525   4.814   7.145   9.285 -0.1686  0.1689  0.3960
  914MOL0     C20526   4.676   7.105   9.318  0.2341 -0.1218 -1.8682
  914MOL0     C20527   4.608   7.231   9.349  0.1039 -0.2996 -1.6516
  914MOL0     C20528   4.494   7.206   9.441  0.1656  1.1359 -0.7823
  914MOL0     C20529   4.392   7.327   9.454 -0.0929  0.0678  0.1684
  914MOL0     C20530   4.313   7.303   9.585 -0.8776  0.3400 -0.1445
  914MOL0     C20531   4.213   7.415   9.615  0.9023 -0.0711 -0.1268
  914MOL0     C20532   4.108   7.364   9.723 -0.4739  0.0642 -0.4539
  914MOL0     N20533   4.012   7.471   9.759 -0.0260 -1.1402 -0.5624
  914MOL0     C20534   3.884   7.494   9.701 -0.0430  0.0189 -0.1552
  914MOL0     C20535   3.814   7.547   9.803 -0.1313 -0.5118  0.0041
  914MOL0     C20536   3.673   7.603   9.771  0.3095  0.1463  0.3864
  914MOL0     C20537   3.561   7.503   9.803 -0.0873  0.2372 -0.0993
  914MOL0     C20538   3.572   7.357   9.749 -0.8065 -0.4130 -0.3512
  914MOL0     C20539   3.583   7.339   9.597  0.5737 -0.4343 -1.1389
  914MOL0     O20540   3.545   7.203   9.570  0.2975 -0.0355  0.6833
  914MOL0     C20541   3.410   7.161   9.567 -0.1889  0.7754  0.4127
  914MOL0     C20542   3.400   7.024   9.567 -0.0309  0.7270 -0.6413
  914MOL0     C20543   3.269   6.966   9.569  0.1744 -0.0631 -0.1535
  914MOL0     C20544   3.154   7.036   9.571  0.3038  1.1495  0.3244
  914MOL0     C20545   3.016   6.969   9.588  0.2427  0.5023  0.7858
  914MOL0     O20546   3.006   6.832   9.593 -0.3556 -0.6875  0.0459
  914MOL0     C20547   2.882   6.772   9.607 -0.8582  0.9491  0.6492
  914MOL0     C20548   2.821   6.709   9.501  0.8281 -0.1081  0.8008
  914MOL0     C20549   2.694   6.636   9.509 -0.4369  0.2567  0.0500
  914MOL0     C20550   2.638   6.632   9.640  1.1219 -1.3687  0.0394
  914MOL0     O20551   2.527   6.559   9.642  0.4121 -0.3932 -0.1890
  914MOL0     C20552   2.479   6.512   9.771  0.6564 -0.7011  0.5908
  914MOL0     C20553   2.342   6.444   9.739  0.1761  0.1462 -0.0254
  914MOL0     C20554   2.260   6.444   9.875 -0.2153  1.0742  0.8870
  914MOL0     C20555   2.142   6.344   9.879  0.6149 -0.1875 -0.2967
  914MOL0     C20556   2.097   6.309  10.017 -0.6272 -0.8737  0.1493
  914MOL0     C20557   1.981   6.200  10.014  0.5085  0.3247  0.0699
  914MOL0     C20558   1.865   6.248   9.918  0.2426 -0.3720  0.0530
  914MOL0     C20559   1.755   6.137   9.914 -0.2318 -0.4647 -0.1141
  914MOL0    Cl20560   1.691   6.072  10.063  0.4671 -0.2858 -0.3713
  914MOL0     C20561   2.691   6.706   9.740 -0.1006 -1.1472 -0.5550
  914MOL0     C20562   2.811   6.775   9.725 -0.4933 -0.2930 -0.6441
  914MOL0     O20563   2.925   7.047   9.613  0.3843  0.4650 -0.2659
  914MOL0     C20564   3.164   7.176   9.564  0.4901  1.0225  0.1769
  914MOL0     C20565   3.289   7.235   9.553 -0.2775  0.7570 -0.2943
  914MOL0     N20566   3.893   7.573   9.913  0.1860 -0.1457 -0.7059
  914MOL0     N20567   4.009   7.534   9.878 -0.1013  0.2301 -0.4107
  914MOL0     C20568   5.093   6.926   9.219 -1.2085 -0.9178  0.7644
  914MOL0     C20569   5.222   6.939   9.164  0.4343 -0.7060  0.8538
  914MOL0     C20570   5.678   7.074   9.186  0.2793 -1.2080  0.6001
  914MOL0     C20571   5.729   7.007   9.075 -0.6198 -0.4556 -0.6621
  914MOL0     C20572   5.867   6.999   9.045  0.3204  0.6956 -0.4487
  914MOL0     C20573   5.957   7.070   9.121 -0.2088  0.2274  0.4416
  914MOL0     O20574   6.099   7.061   9.083 -0.1825  0.3033  0.0785
  914MOL0     C20575   6.192   7.141   9.162  0.2986  0.5766 -0.2056
  914MOL0     C20576   6.328   7.099   9.131  0.3270  1.2408 -0.3442
  914MOL0     C20577   6.346   6.950   9.130  0.8158  0.1768  0.7430
  914MOL0     C20578   6.497   6.926   9.102  0.5914  0.1726  0.6458
  914MOL0     C20579   6.575   6.959   9.218 -0.8448 -0.9827 -0.6482
  914MOL0     C20580   6.641   6.989   9.320  0.1657 -0.1376  0.4227
  914MOL0     C20581   5.902   7.150   9.223 -0.2178 -0.1168 -0.1678
  914MOL0     C20582   5.771   7.154   9.254  0.2656  1.1166 -0.0037
  914MOL0     H20583   5.281   7.268   9.245 -2.0596  2.0746 -0.4430
  914MOL0     H20584   5.055   7.261   9.281  1.4677 -0.1954  4.0218
  914MOL0     H20585   4.806   7.231   9.218 -2.4420 -0.9609 -0.8908
  914MOL0     H20586   4.855   7.175   9.382 -0.7120  0.4010  0.5617
  914MOL0     H20587   4.671   7.036   9.404 -3.1137  1.9261 -0.1819
  914MOL0     H20588   4.624   7.055   9.235 -1.1753 -2.1771  0.1108
  914MOL0     H20589   4.581   7.277   9.253  1.2236 -1.6643 -2.6609
  914MOL0     H20590   4.677   7.303   9.393 -1.3682 -1.0501  2.3151
  914MOL0     H20591   4.443   7.116   9.405  2.2012 -0.1117 -0.6948
  914MOL0     H20592   4.529   7.179   9.540  0.3510  1.2570 -0.8160
  914MOL0     H20593   4.325   7.327   9.367  0.6055 -1.4368 -0.4029
  914MOL0     H20594   4.450   7.419   9.454  2.0459 -1.1265 -2.3554
  914MOL0     H20595   4.382   7.293   9.670 -0.8138  2.2792  0.0812
  914MOL0     H20596   4.246   7.219   9.567 -1.0798  0.2134  1.1047
  914MOL0     H20597   4.263   7.510   9.638  2.2585 -0.2862 -1.9129
  914MOL0     H20598   4.155   7.440   9.526  1.6831 -1.1305 -0.9714
  914MOL0     H20599   4.169   7.330   9.808  2.7330  1.4811 -2.0188
  914MOL0     H20600   4.049   7.282   9.680  1.7858 -2.3050  0.7061
  914MOL0     H20601   3.857   7.480   9.597  0.6439 -1.5116 -0.1559
  914MOL0     H20602   3.672   7.627   9.665 -0.7157 -0.0043  0.3523
  914MOL0     H20603   3.659   7.699   9.822 -2.0873 -1.2580  2.5845
  914MOL0     H20604   3.475   7.553   9.758  1.7699  2.5881 -1.3062
  914MOL0     H20605   3.544   7.499   9.911 -0.8160 -0.7957 -0.2409
  914MOL0     H20606   3.667   7.322   9.790 -0.7205 -0.0827 -0.2613
  914MOL0     H20607   3.490   7.301   9.795 -1.4758  3.6018  4.1852
  914MOL0     H20608   3.685   7.358   9.562  1.1234  0.7084  0.9656
  914MOL0     H20609   3.525   7.410   9.537  1.8938  0.9413 -0.8262
  914MOL0     H20610   3.491   6.968   9.548 -0.3930 -0.8817  1.8769
  914MOL0     H20611   3.267   6.857   9.576  0.8226 -0.2856 -2.5278
  914MOL0     H20612   2.858   6.728   9.401  0.4266  0.5693  0.7749
  914MOL0     H20613   2.646   6.593   9.422 -0.0348 -0.7531  0.3160
  914MOL0     H20614   2.460   6.603   9.829 -0.9650  0.8161 -2.1228
  914MOL0     H20615   2.551   6.443   9.815 -0.6782 -2.5584 -0.0523
  914MOL0     H20616   2.359   6.342   9.704  3.3581  0.6028 -0.0746
  914MOL0     H20617   2.292   6.505   9.663 -1.3970 -1.2088 -0.1369
  914MOL0     H20618   2.214   6.543   9.880  0.7037  1.6489 -1.0184
  914MOL0     H20619   2.328   6.425   9.958  0.8707  0.4128 -0.1272
  914MOL0     H20620   2.059   6.380   9.817  1.0200 -0.4554 -1.0105
  914MOL0     H20621   2.174   6.248   9.839 -0.3121 -1.1814  1.2636
  914MOL0     H20622   2.052   6.397  10.063  0.5252  0.3648 -0.9767
  914MOL0     H20623   2.186   6.283  10.075 -0.8308 -1.4296  0.2125
  914MOL0     H20624   1.941   6.183  10.114  1.1785 -2.5274 -0.0569
  914MOL0     H20625   2.033   6.111   9.978  2.1310  1.6989 -1.1927
  914MOL0     H20626   1.832   6.341   9.964  0.1488  0.1291 -0.9894
  914MOL0     H20627   1.897   6.261   9.814 -1.1499 -0.9574 -0.4661
  914MOL0     H20628   1.802   6.053   9.863 -0.0573  0.7316 -2.0018
  914MOL0     H20629   1.664   6.163   9.859  0.6901 -0.6766 -1.8077
  914MOL0     H20630   2.628   6.715   9.828 -1.1777  0.5546 -1.4427
  914MOL0     H20631   2.839   6.844   9.804 -0.5807  0.2223 -1.0561
  914MOL0     H20632   3.073   7.235   9.570  0.0838  0.3008  1.3447
  914MOL0     H20633   3.289   7.343   9.542 -0.0790  0.6034 -2.2992
  914MOL0     H20634   5.037   6.833   9.218 -3.5566  0.4109 -1.2813
  914MOL0     H20635   5.272   6.863   9.105 -0.5806  1.5600 -3.2533
  914MOL0     H20636   5.655   6.959   9.013 -1.5329  0.2960 -0.1904
  914MOL0     H20637   5.902   6.936   8.963 -0.7971 -0.6315  0.0681
  914MOL0     H20638   6.170   7.129   9.268 -1.5862  0.7734 -0.5363
  914MOL0     H20639   6.176   7.244   9.129  1.7267  0.5435 -1.0937
  914MOL0     H20640   6.349   7.122   9.027 -1.3981 -1.3933 -1.3902
  914MOL0     H20641   6.402   7.155   9.189  0.8154  0.3094 -0.0434
  914MOL0     H20642   6.286   6.915   9.046 -0.9981 -0.7221  2.3343
  914MOL0     H20643   6.309   6.916   9.227  0.3311 -0.9719  0.1804
  914MOL0     H20644   6.521   6.821   9.082  0.8523 -0.0955  2.2489
  914MOL0     H20645   6.524   6.973   9.007 -1.3409 -2.0524 -1.1285
  914MOL0     H20646   6.709   7.002   9.402  1.9290  1.3915 -1.1836
  914MOL0     H20647   5.961   7.211   9.291 -1.8280 -0.0119  1.2058
  914MOL0     H20648   5.733   7.221   9.331 -1.6174 -1.9355  1.9229
  915MOL0     O20649   7.973   8.368   5.769  0.3078  0.2162  0.2157
  915MOL0     C20650   7.994   8.335   5.653 -0.2417  0.1355 -0.1788
  915MOL0     O20651   7.910   8.267   5.573 -0.1447 -0.1524 -0.2407
  915MOL0     C20652   7.791   8.201   5.627 -0.6077  0.0066  0.5093
  915MOL0     C20653   7.671   8.217   5.559 -0.4140  0.5149  0.3535
  915MOL0     C20654   7.566   8.133   5.587  1.1244 -0.2027  0.3783
  915MOL0     C20655   7.553   8.064   5.707 -0.5862  0.3181  0.2796
  915MOL0     O20656   7.437   7.997   5.737  0.4472  0.0501  0.1920
  915MOL0     C20657   7.317   8.084   5.724  0.1090  0.0424  0.2874
  915MOL0     C20658   7.207   8.018   5.809 -0.2594 -0.8919  0.0258
  915MOL0     C20659   7.065   8.050   5.755  0.1897  0.5006 -0.0533
  915MOL0     C20660   6.973   7.973   5.842 -0.2483  0.1961 -0.4483
  915MOL0     C20661   6.830   7.993   5.794  0.7844  0.6560  1.2726
  915MOL0     C20662   6.734   7.929   5.903  0.0823 -0.6488  0.2821
  915MOL0     C20663   6.583   7.925   5.859 -0.2305  0.0939 -1.1620
  915MOL0     C20664   6.475   7.950   5.969  0.3890 -0.0330 -1.2854
  915MOL0     N20665   6.345   7.892   5.939 -0.9222 -0.3195  0.2145
  915MOL0     C20666   6.316   7.762   5.970 -0.3888  0.5107 -0.1125
  915MOL0     C20667   6.197   7.747   5.908 -0.7706  0.3033  0.4000
  915MOL0     C20668   6.095   7.633   5.933  0.0221  0.8899 -0.5935
  915MOL0     C20669   5.945   7.669   5.909 -0.1935 -0.3540  1.1990
  915MOL0     C20670   5.855   7.545   5.922  0.2890 -0.1503 -0.3085
  915MOL0     C20671   5.709   7.581   5.908 -0.2418 -1.0440 -0.0778
  915MOL0     O20672   5.636   7.460   5.881  0.5644  0.1691  0.1314
  915MOL0     C20673   5.504   7.482   5.878 -0.6462  0.1539 -0.1345
  915MOL0     C20674   5.434   7.606   5.883  0.3889  0.7866 -0.2399
  915MOL0     C20675   5.296   7.597   5.883  0.9119  0.4517 -0.2353
  915MOL0     C20676   5.224   7.478   5.888 -0.3324 -0.6620  0.8808
  915MOL0     C20677   5.074   7.483   5.874 -0.7941 -0.1999  0.2557
  915MOL0     O20678   5.007   7.371   5.900  0.2995 -0.1652 -0.0063
  915MOL0     C20679   4.864   7.384   5.904 -0.2227  0.0948 -0.1095
  915MOL0     C20680   4.811   7.336   6.021  0.3662  0.1620  0.5733
  915MOL0     C20681   4.676   7.324   6.046  0.2417 -0.8283 -0.3709
  915MOL0     C20682   4.589   7.360   5.937  0.0796 -1.2014 -0.0502
  915MOL0     O20683   4.456   7.364   5.946 -0.0269 -0.2062 -0.2178
  915MOL0     C20684   4.408   7.414   6.072 -0.7466  0.3769 -0.2661
  915MOL0     C20685   4.250   7.432   6.045  0.7074 -0.0696  0.4259
  915MOL0     C20686   4.222   7.553   5.967 -0.8911  0.2408  0.1558
  915MOL0     C20687   4.076   7.574   5.931  0.2558  0.5157 -0.2807
  915MOL0     C20688   4.047   7.706   5.858  1.2628 -0.2589 -0.1303
  915MOL0     C20689   4.064   7.839   5.946  0.2447 -0.2750  1.1301
  915MOL0     C20690   3.987   7.960   5.884  0.8995  0.1201 -0.1657
  915MOL0     C20691   4.013   8.078   5.984 -0.3794  0.2176 -0.4518
  915MOL0    Cl20692   3.959   8.231   5.920  0.0949  0.0322  0.0509
  915MOL0     C20693   4.643   7.409   5.810 -0.4042  1.0549  0.0903
  915MOL0     C20694   4.784   7.415   5.799 -0.3075 -0.1234 -0.1869
  915MOL0     O20695   5.022   7.599   5.857 -0.5095  0.0493  0.3690
  915MOL0     C20696   5.300   7.358   5.873  0.8041 -0.4662  0.2312
  915MOL0     C20697   5.437   7.360   5.875  0.8841  0.4088  0.1104
  915MOL0     N20698   6.156   7.864   5.846  0.2448 -0.1639 -0.2052
  915MOL0     N20699   6.251   7.951   5.866  0.4777  0.0757 -0.2568
  915MOL0     C20700   7.659   8.054   5.783 -0.3535  0.3851 -0.2992
  915MOL0     C20701   7.785   8.120   5.745  0.1772  0.3301 -0.3632
  915MOL0     C20702   8.127   8.374   5.594 -0.4260  0.5034 -0.5450
  915MOL0     C20703   8.159   8.341   5.461 -0.2350 -0.0623  0.5768
  915MOL0     C20704   8.280   8.388   5.402 -0.1800 -0.3205  0.3115
  915MOL0     C20705   8.370   8.464   5.483 -1.4668  0.2667  0.4582
  915MOL0     O20706   8.495   8.488   5.435 -0.1905 -0.6573  0.1156
  915MOL0     C20707   8.495   8.603   5.349 -0.1149 -0.2188 -0.2078
  915MOL0     C20708   8.640   8.619   5.302 -0.0797 -0.4653  0.1592
  915MOL0     C20709   8.708   8.500   5.228 -0.0966 -0.1320  0.8335
  915MOL0     C20710   8.610   8.441   5.116  0.4323  0.7065 -0.5934
  915MOL0     C20711   8.652   8.314   5.053  0.1077  0.5144 -0.5194
  915MOL0     C20712   8.705   8.209   5.013 -0.1625 -0.2967  0.8524
  915MOL0     C20713   8.335   8.506   5.619  0.6524 -0.6092 -0.7169
  915MOL0     C20714   8.212   8.469   5.669 -0.9225  0.5489  0.4139
  915MOL0     H20715   7.652   8.280   5.473  1.5616  0.9612  0.1921
  915MOL0     H20716   7.481   8.161   5.526  0.4561  2.2958  2.2956
  915MOL0     H20717   7.277   8.075   5.622  0.6381  2.3228 -0.1764
  915MOL0     H20718   7.330   8.189   5.751  1.9528 -0.6702  2.4394
  915MOL0     H20719   7.208   8.047   5.914  0.0117 -1.6763  0.2437
  915MOL0     H20720   7.226   7.911   5.814  0.2578 -0.9173 -1.8222
  915MOL0     H20721   7.055   8.010   5.653 -1.5494  1.0843 -0.1513
  915MOL0     H20722   7.051   8.158   5.765  3.1473  0.7564  2.7450
  915MOL0     H20723   7.000   7.869   5.862 -3.8922 -0.6325  1.2098
  915MOL0     H20724   6.984   8.027   5.937  2.6867  0.2220 -0.7371
  915MOL0     H20725   6.811   7.953   5.694  0.9493  0.2401  1.4078
  915MOL0     H20726   6.802   8.098   5.782 -0.9821 -0.0561 -2.1003
  915MOL0     H20727   6.745   8.000   5.986  0.3034  1.6653 -1.6218
  915MOL0     H20728   6.765   7.829   5.936 -0.2160 -0.9821 -0.4225
  915MOL0     H20729   6.565   8.002   5.783  1.5573  2.7509  0.9190
  915MOL0     H20730   6.568   7.832   5.803 -2.5550  1.7821 -3.6014
  915MOL0     H20731   6.450   8.057   5.963 -2.6564 -0.7437 -2.7118
  915MOL0     H20732   6.509   7.925   6.070  1.1036  0.1468 -1.4704
  915MOL0     H20733   6.361   7.675   6.016 -3.3733 -2.2377 -2.0276
  915MOL0     H20734   6.101   7.582   6.029 -1.3085 -2.7260 -2.2406
  915MOL0     H20735   6.125   7.563   5.855 -0.8735 -2.2501  1.6716
  915MOL0     H20736   5.931   7.718   5.812 -0.9451  0.3055  1.6212
  915MOL0     H20737   5.912   7.742   5.984 -0.3619 -0.4002  1.1718
  915MOL0     H20738   5.885   7.469   5.848 -1.5999  0.0072 -1.2952
  915MOL0     H20739   5.868   7.503   6.022  0.5161  2.9699  1.0670
  915MOL0     H20740   5.697   7.636   5.814 -0.6898  1.2463  1.2575
  915MOL0     H20741   5.672   7.642   5.991  0.0375 -0.5435 -0.3185
  915MOL0     H20742   5.491   7.698   5.884 -0.2913  1.3075 -2.7031
  915MOL0     H20743   5.258   7.698   5.871  0.6785  0.1030 -3.4473
  915MOL0     H20744   4.880   7.305   6.099 -0.5636  1.3446  1.9143
  915MOL0     H20745   4.636   7.281   6.138 -0.4564  1.4069  0.4381
  915MOL0     H20746   4.457   7.505   6.104  1.0327 -1.0714  1.3481
  915MOL0     H20747   4.419   7.349   6.160  3.8470 -1.3730 -1.8163
  915MOL0     H20748   4.216   7.424   6.148  0.0909 -0.1602  0.2175
  915MOL0     H20749   4.208   7.354   5.981  2.0476  0.3556 -1.0281
  915MOL0     H20750   4.279   7.552   5.873  0.1223 -1.8207  0.7323
  915MOL0     H20751   4.251   7.640   6.026  0.6574  0.1220 -0.3816
  915MOL0     H20752   4.054   7.501   5.852  0.3221 -0.5839  0.6929
  915MOL0     H20753   4.015   7.568   6.021  2.6126  3.7389  1.7356
  915MOL0     H20754   3.943   7.704   5.828  1.4028  2.3569 -1.0734
  915MOL0     H20755   4.092   7.719   5.759 -0.5811  0.3305 -0.9172
  915MOL0     H20756   4.171   7.859   5.941  0.9242 -3.5487 -0.1556
  915MOL0     H20757   4.022   7.825   6.046 -4.4023  0.4060 -0.4585
  915MOL0     H20758   4.012   7.979   5.779 -2.7076 -0.2415 -1.1997
  915MOL0     H20759   3.881   7.935   5.879  0.7855  0.4879  0.3475
  915MOL0     H20760   4.121   8.091   5.995 -0.2360 -0.3301 -1.1392
  915MOL0     H20761   3.970   8.064   6.084 -2.6485  0.2322 -1.3524
  915MOL0     H20762   4.588   7.440   5.722  2.5519 -1.7861 -3.0561
  915MOL0     H20763   4.823   7.455   5.706 -0.9654  2.7371  0.6484
  915MOL0     H20764   5.243   7.268   5.850 -2.2701  1.6433 -1.0456
  915MOL0     H20765   5.487   7.264   5.879  0.2156  0.0435 -0.1122
  915MOL0     H20766   7.680   7.973   5.852  3.4477 -0.6266 -2.3429
  915MOL0     H20767   7.877   8.095   5.795  1.2587  0.4335 -2.2206
  915MOL0     H20768   8.095   8.267   5.412  0.3985  0.4973 -1.1652
  915MOL0     H20769   8.310   8.365   5.300  1.0828 -0.2892  0.6683
  915MOL0     H20770   8.477   8.698   5.401  2.2109 -0.9253  2.1250
  915MOL0     H20771   8.438   8.600   5.256  1.0880  0.3540 -0.9951
  915MOL0     H20772   8.661   8.706   5.238 -2.2284  0.0831  0.1117
  915MOL0     H20773   8.700   8.630   5.392 -0.4820 -0.1079  0.3912
  915MOL0     H20774   8.735   8.420   5.297  1.8808  1.4387  1.9806
  915MOL0     H20775   8.800   8.540   5.185 -0.4203  1.5381  1.5970
  915MOL0     H20776   8.522   8.416   5.176 -0.2749  1.1524 -1.4241
  915MOL0     H20777   8.578   8.513   5.041 -0.0007  0.4871 -0.6242
  915MOL0     H20778   8.746   8.121   4.967 -0.1633  0.0641  0.1417
  915MOL0     H20779   8.398   8.569   5.681 -2.8131  3.6615 -1.0687
  915MOL0     H20780   8.201   8.497   5.773 -1.2293  0.8339  0.3063
  916MOL0     O20781   0.784   6.220   3.304 -0.2329  0.4292  0.0901
  916MOL0     C20782   0.737   6.267   3.207 -0.4489  0.6391 -0.0679
  916MOL0     O20783   0.804   6.347   3.112  0.1003  0.6200 -0.8218
  916MOL0     C20784   0.936   6.377   3.135  0.0568  0.2430  0.7941
  916MOL0     C20785   0.998   6.422   3.254  0.7970  1.0098  0.3716
  916MOL0     C20786   1.135   6.457   3.256  0.4198  0.1836  0.5159
  916MOL0     C20787   1.211   6.448   3.136  0.2500 -0.7038 -0.7911
  916MOL0     O20788   1.345   6.491   3.151  0.4423  0.1887  0.2518
  916MOL0     C20789   1.371   6.612   3.077 -0.1928  0.1089 -1.0558
  916MOL0     C20790   1.505   6.675   3.100  0.1904 -0.0742  0.9480
  916MOL0     C20791   1.583   6.687   2.968 -0.5138 -0.0988 -0.0713
  916MOL0     C20792   1.714   6.766   2.969  0.3819  0.1716 -0.8007
  916MOL0     C20793   1.677   6.916   2.959  0.1754 -0.1537  0.0994
  916MOL0     C20794   1.655   6.957   2.815  0.1455  0.0215  0.9516
  916MOL0     C20795   1.618   7.102   2.794 -0.8125 -0.4801  0.1311
  916MOL0     C20796   1.631   7.153   2.647  0.8207 -0.1385  0.7087
  916MOL0     N20797   1.569   7.082   2.530  0.4059  0.1442 -0.0882
  916MOL0     C20798   1.568   7.142   2.402  0.6185  0.7214  0.2896
  916MOL0     C20799   1.452   7.095   2.341 -0.4890  0.3798  0.2928
  916MOL0     C20800   1.394   7.123   2.204  0.7934  0.4845 -0.0701
  916MOL0     C20801   1.270   7.218   2.208  1.1396 -0.4355  0.0165
  916MOL0     C20802   1.212   7.242   2.064 -0.7569 -0.0134 -0.2256
  916MOL0     C20803   1.060   7.262   2.068 -0.1047 -0.2569 -0.6543
  916MOL0     O20804   0.987   7.137   2.050 -0.0238 -0.4195  0.0835
  916MOL0     C20805   0.850   7.149   2.049 -0.5321 -0.1659 -0.0531
  916MOL0     C20806   0.782   7.029   2.088  0.0466 -0.1959 -0.4009
  916MOL0     C20807   0.644   7.018   2.094 -0.8156  0.4082 -0.2504
  916MOL0     C20808   0.565   7.131   2.063 -0.3954 -0.5986 -0.1176
  916MOL0     C20809   0.417   7.098   2.051 -0.0433  0.2520 -0.0346
  916MOL0     O20810   0.380   6.977   2.099  0.7053  0.0280 -0.7216
  916MOL0     C20811   0.253   6.918   2.084  0.0365 -0.0731 -0.0089
  916MOL0     C20812   0.145   6.978   2.138  0.3399 -1.2598 -0.2102
  916MOL0     C20813   0.013   6.922   2.141  0.7623 -0.6290  0.1482
  916MOL0     C20814  -0.005   6.794   2.084 -0.7070 -0.5938 -0.7838
  916MOL0     O20815  -0.132   6.749   2.089  0.2945 -0.1522  0.8447
  916MOL0     C20816  -0.141   6.609   2.118  0.0253  1.0041 -0.5932
  916MOL0     C20817  -0.284   6.565   2.131  0.2518 -1.0418  0.0173
  916MOL0     C20818  -0.353   6.542   1.992 -0.2949  0.0962 -0.7571
  916MOL0     C20819  -0.507   6.574   2.015 -1.3605  0.3611 -0.3732
  916MOL0     C20820  -0.571   6.601   1.883 -0.1913 -0.3423  0.4480
  916MOL0     C20821  -0.588   6.463   1.809  0.1997  0.5817 -0.5696
  916MOL0     C20822  -0.669   6.493   1.681 -0.2048 -0.0073  0.2000
  916MOL0     C20823  -0.741   6.372   1.621 -0.7680  0.3590 -0.0415
  916MOL0    Cl20824  -0.888   6.318   1.709 -0.2223 -0.0812  0.4050
  916MOL0     C20825   0.111   6.728   2.033 -0.1025  0.0599  0.3258
  916MOL0     C20826   0.238   6.786   2.035  0.0593 -0.7322  0.0984
  916MOL0     O20827   0.344   7.177   1.993 -0.7199 -0.2272  0.1444
  916MOL0     C20828   0.625   7.253   2.046  0.6933  0.5394 -0.2733
  916MOL0     C20829   0.765   7.260   2.030  0.6127  0.1615 -0.6631
  916MOL0     N20830   1.384   7.008   2.434 -0.8435 -0.0289 -0.1564
  916MOL0     N20831   1.455   7.004   2.541 -0.4195 -0.0810  1.0025
  916MOL0     C20832   1.149   6.401   3.015  0.4370 -0.1083 -0.1531
  916MOL0     C20833   1.018   6.360   3.019  0.7303  0.4829  0.2236
  916MOL0     C20834   0.604   6.226   3.168  0.5952  0.5828  0.1533
  916MOL0     C20835   0.506   6.199   3.263  0.2214  0.9140  0.0664
  916MOL0     C20836   0.378   6.156   3.233  0.1134  0.2698 -0.0853
  916MOL0     C20837   0.338   6.151   3.096  0.1694  0.4061 -0.7968
  916MOL0     O20838   0.211   6.126   3.060 -0.2039  0.1591  0.1099
  916MOL0     C20839   0.111   6.073   3.146  0.4464 -0.3095  0.1073
  916MOL0     C20840  -0.014   6.041   3.064 -0.2327 -0.1356  0.8119
  916MOL0     C20841  -0.140   6.051   3.152  0.3598 -0.7228 -0.2933
  916MOL0     C20842  -0.270   6.013   3.086 -0.5039  0.7657  0.9392
  916MOL0     C20843  -0.252   5.874   3.039  0.0150 -0.1478  0.5453
  916MOL0     C20844  -0.234   5.773   2.975  0.3102 -0.2689  0.8399
  916MOL0     C20845   0.427   6.176   3.001  0.8378 -1.3409 -0.8355
  916MOL0     C20846   0.564   6.213   3.038  0.4984  0.3218 -0.5243
  916MOL0     H20847   0.952   6.427   3.352 -0.6806  1.7182 -0.3166
  916MOL0     H20848   1.181   6.490   3.348  0.3448 -0.5156  0.8056
  916MOL0     H20849   1.301   6.694   3.101  0.7445  0.3255  1.1699
  916MOL0     H20850   1.358   6.586   2.971  0.3594 -1.4398 -0.7529
  916MOL0     H20851   1.551   6.602   3.168  0.7827  0.2690  0.9188
  916MOL0     H20852   1.489   6.779   3.128  0.0175  0.8872 -2.2862
  916MOL0     H20853   1.522   6.734   2.890 -0.2380 -1.4323 -1.1148
  916MOL0     H20854   1.601   6.584   2.935  0.7039  0.5186 -1.4412
  916MOL0     H20855   1.775   6.748   3.058 -1.8129 -0.8534  0.5822
  916MOL0     H20856   1.768   6.737   2.879  0.4467 -1.9105 -0.1435
  916MOL0     H20857   1.765   6.966   3.001  2.2442 -1.4663 -2.3821
  916MOL0     H20858   1.595   6.939   3.028  1.6242  1.6535  1.3109
  916MOL0     H20859   1.571   6.901   2.772  1.6854 -1.7952  0.1485
  916MOL0     H20860   1.741   6.933   2.751 -1.3759 -1.7231 -0.5840
  916MOL0     H20861   1.518   7.124   2.833 -0.6705  0.3614  0.0390
  916MOL0     H20862   1.684   7.172   2.845 -4.0865  1.8164  1.5797
  916MOL0     H20863   1.737   7.141   2.621  0.1336  1.2078 -3.5886
  916MOL0     H20864   1.593   7.255   2.637 -0.3584 -0.3948  2.2484
  916MOL0     H20865   1.634   7.217   2.360  0.2597  1.6370  1.3176
  916MOL0     H20866   1.352   7.028   2.171  1.6943 -0.3507  1.1123
  916MOL0     H20867   1.471   7.161   2.136  0.1733  2.2904  0.1846
  916MOL0     H20868   1.283   7.320   2.247  2.4795 -0.0508 -1.3182
  916MOL0     H20869   1.198   7.165   2.270 -1.2483 -0.0735 -2.2707
  916MOL0     H20870   1.261   7.325   2.011  0.7914 -1.3087 -0.9106
  916MOL0     H20871   1.251   7.161   2.002 -1.6426 -0.1805 -0.5780
  916MOL0     H20872   1.036   7.325   1.982  0.3149  0.1459 -0.4800
  916MOL0     H20873   1.050   7.323   2.158  0.6224  0.7739 -1.2552
  916MOL0     H20874   0.849   6.946   2.109  2.0333  1.4462  0.0829
  916MOL0     H20875   0.609   6.918   2.116  0.4496  0.3176  1.5040
  916MOL0     H20876   0.153   7.074   2.188 -2.6345  0.1543 -2.2126
  916MOL0     H20877  -0.066   6.981   2.187 -0.1523  0.4599 -2.5752
  916MOL0     H20878  -0.080   6.579   2.204 -1.0392 -3.1853 -1.1115
  916MOL0     H20879  -0.087   6.559   2.037  0.2407  1.4448 -0.7277
  916MOL0     H20880  -0.337   6.644   2.183  1.2207  1.1247 -2.1115
  916MOL0     H20881  -0.291   6.476   2.195 -0.1079 -1.2062 -0.2461
  916MOL0     H20882  -0.343   6.434   1.976  0.3508 -0.0447  0.4428
  916MOL0     H20883  -0.307   6.601   1.913 -0.5449 -0.1478 -1.0926
  916MOL0     H20884  -0.547   6.491   2.075  0.1897 -1.4736 -1.7348
  916MOL0     H20885  -0.505   6.667   2.072 -0.7779 -0.4656  1.0319
  916MOL0     H20886  -0.528   6.680   1.821  0.3220 -1.8777 -1.2313
  916MOL0     H20887  -0.668   6.644   1.908  0.5547  0.6926  1.7070
  916MOL0     H20888  -0.636   6.389   1.873  0.9771  1.6631  1.3308
  916MOL0     H20889  -0.490   6.423   1.783  1.5312  1.6893  2.3162
  916MOL0     H20890  -0.753   6.560   1.704 -1.1956 -1.4476  0.9579
  916MOL0     H20891  -0.604   6.530   1.601 -1.2698  1.1005 -0.1747
  916MOL0     H20892  -0.671   6.290   1.604  0.6652  1.6127 -0.4046
  916MOL0     H20893  -0.776   6.412   1.526  0.0651 -1.1903 -1.0467
  916MOL0     H20894   0.108   6.626   1.996  3.1371 -0.0852  0.1110
  916MOL0     H20895   0.328   6.737   2.000 -0.5116  0.4310 -3.4525
  916MOL0     H20896   0.567   7.345   2.035 -0.1821  0.1454  0.8938
  916MOL0     H20897   0.809   7.353   1.998 -1.5022  0.8379 -1.8055
  916MOL0     H20898   1.216   6.395   2.929  0.1727  2.9748 -0.6668
  916MOL0     H20899   0.966   6.318   2.934  2.1692 -0.2029 -0.3602
  916MOL0     H20900   0.520   6.200   3.371 -2.5508 -1.1297  0.5612
  916MOL0     H20901   0.321   6.112   3.314  2.1114 -1.4914  0.4384
  916MOL0     H20902   0.095   6.133   3.236 -0.0739 -0.2812 -0.0016
  916MOL0     H20903   0.145   5.977   3.186 -2.4370 -2.0172 -1.2072
  916MOL0     H20904  -0.034   6.097   2.973 -2.4974  1.2751  2.0717
  916MOL0     H20905   0.004   5.947   3.011  1.8268  1.0200 -0.6583
  916MOL0     H20906  -0.149   6.149   3.199  0.3905 -1.6543  1.7627
  916MOL0     H20907  -0.125   5.992   3.243 -1.0661  1.9431  1.7859
  916MOL0     H20908  -0.360   6.016   3.149 -1.4902  2.1692 -0.4401
  916MOL0     H20909  -0.296   6.084   3.006  1.3160  1.1806  0.6859
  916MOL0     H20910  -0.230   5.697   2.899  2.8700 -0.6189  1.2679
  916MOL0     H20911   0.397   6.163   2.898 -0.3458  0.8775 -0.8448
  916MOL0     H20912   0.633   6.232   2.956  2.3179  2.0185  1.2867
  917MOL0     O20913  10.427   9.693   9.886  0.4447 -0.0798 -0.0126
  917MOL0     C20914  10.517   9.771   9.906  0.2895 -0.4513 -0.3002
  917MOL0     O20915  10.511   9.907   9.887 -0.1637  0.0970  0.9339
  917MOL0     C20916  10.419   9.974   9.814 -0.1099 -0.7255  0.2374
  917MOL0     C20917  10.327   9.905   9.721  0.8463 -0.0230 -0.9362
  917MOL0     C20918  10.219   9.970   9.674  0.0943  0.5166 -0.0638
  917MOL0     C20919  10.216  10.109   9.701  0.7265  0.0562 -0.3241
  917MOL0     O20920  10.106  10.189   9.663 -0.0866  1.2844 -0.3807
  917MOL0     C20921   9.976  10.130   9.710  0.1336 -0.6895  1.3106
  917MOL0     C20922   9.853  10.224   9.688 -0.2814  0.1120 -0.7780
  917MOL0     C20923   9.728  10.187   9.769 -0.4714 -0.1918  0.9500
  917MOL0     C20924   9.638  10.094   9.685 -0.2785 -0.6644  0.6808
  917MOL0     C20925   9.496  10.064   9.752  0.1744 -0.6203  0.8461
  917MOL0     C20926   9.401   9.997   9.656  0.5512 -0.1438  0.9549
  917MOL0     C20927   9.265   9.960   9.720 -0.3718  0.0363 -0.6264
  917MOL0     C20928   9.275   9.857   9.837  0.5944 -0.1512 -0.0770
  917MOL0     N20929   9.139   9.844   9.878  0.3337  0.0551  0.1995
  917MOL0     C20930   9.048   9.741   9.846 -0.1896  0.2016 -0.3366
  917MOL0     C20931   8.937   9.771   9.911  0.5678 -0.3929 -0.2636
  917MOL0     C20932   8.810   9.707   9.866  0.4933 -0.5814 -0.2769
  917MOL0     C20933   8.681   9.788   9.860  0.2591  0.4824 -0.6250
  917MOL0     C20934   8.551   9.712   9.827  0.7737  0.0977 -0.2200
  917MOL0     C20935   8.430   9.801   9.829  0.0269  0.0702  0.2271
  917MOL0     O20936   8.422   9.887   9.720  0.3873  0.3662 -0.9286
  917MOL0     C20937   8.297   9.955   9.715 -0.7010  0.6218  0.5466
  917MOL0     C20938   8.251   9.992   9.588 -0.6031  0.1192  0.5397
  917MOL0     C20939   8.134  10.059   9.574 -0.5349  1.2561  0.5867
  917MOL0     C20940   8.063  10.109   9.680 -0.1606 -0.1731 -0.2581
  917MOL0     C20941   7.943  10.191   9.651  0.7359  0.2014 -0.3045
  917MOL0     O20942   7.864  10.240   9.748 -0.0913  0.4277 -0.2447
  917MOL0     C20943   7.764  10.330   9.715  0.2581  0.3197 -0.3511
  917MOL0     C20944   7.634  10.283   9.686  0.5545 -0.4101  0.3013
  917MOL0     C20945   7.532  10.369   9.660  0.0619  0.3433  0.3758
  917MOL0     C20946   7.545  10.511   9.665  0.3061 -0.2038  0.8299
  917MOL0     O20947   7.430  10.584   9.654  0.1122 -0.2286 -1.0757
  917MOL0     C20948   7.427  10.705   9.725 -0.1583 -0.1158 -0.3056
  917MOL0     C20949   7.329  10.798   9.656  1.1076  0.5491 -0.3142
  917MOL0     C20950   7.190  10.746   9.666 -0.1031 -0.6033 -0.6487
  917MOL0     C20951   7.074  10.840   9.609  0.2990  0.6021  0.5828
  917MOL0     C20952   6.940  10.779   9.646 -0.2962 -0.5571 -0.2845
  917MOL0     C20953   6.824  10.852   9.583  0.1180 -0.1182 -0.3106
  917MOL0     C20954   6.697  10.822   9.667 -0.0157 -0.1137 -0.1487
  917MOL0     C20955   6.583  10.889   9.599 -0.1344 -0.1894 -1.2889
  917MOL0    Cl20956   6.414  10.837   9.663 -0.5634  0.0482 -0.5876
  917MOL0     C20957   7.675  10.555   9.681 -0.1683  0.7800  0.3469
  917MOL0     C20958   7.778  10.471   9.720 -0.3340  0.3488  0.3472
  917MOL0     O20959   7.917  10.198   9.532  0.6095  0.5194  0.5584
  917MOL0     C20960   8.108  10.069   9.809 -0.0825 -0.0180 -0.8081
  917MOL0     C20961   8.222   9.990   9.828 -0.0530 -0.0667 -0.5494
  917MOL0     N20962   8.945   9.890   9.986 -0.1011  0.3778  0.1224
  917MOL0     N20963   9.068   9.931   9.964 -0.0217  0.0632  0.1826
  917MOL0     C20964  10.313  10.179   9.767 -0.3472 -0.2587  0.1198
  917MOL0     C20965  10.415  10.110   9.818 -0.0763 -0.0465 -0.6733
  917MOL0     C20966  10.645   9.715   9.963  0.2804 -0.5052 -0.4706
  917MOL0     C20967  10.733   9.801  10.032 -0.8640  0.8214  0.9257
  917MOL0     C20968  10.864   9.756  10.070 -0.4836 -0.8388 -0.4735
  917MOL0     C20969  10.886   9.617  10.067 -0.2097  0.1195  0.0489
  917MOL0     O20970  10.998   9.548  10.116  0.3909  0.2055  0.2524
  917MOL0     C20971  11.105   9.615  10.181 -0.0205 -0.5515 -0.5345
  917MOL0     C20972  11.196   9.523  10.256  0.3700  0.0627 -0.0534
  917MOL0     C20973  11.331   9.582  10.296 -0.2595  0.2998  0.2473
  917MOL0     C20974  11.431   9.471  10.342 -0.2228 -0.5023 -0.9031
  917MOL0     C20975  11.387   9.412  10.468  0.2075 -0.6974 -0.0121
  917MOL0     C20976  11.346   9.377  10.576 -0.3416 -0.0348 -0.0181
  917MOL0     C20977  10.790   9.527  10.015  0.2165 -0.0838  0.3114
  917MOL0     C20978  10.670   9.577   9.965 -1.0147 -0.0652  0.5817
  917MOL0     H20979  10.353   9.804   9.688  0.1792 -0.2430 -0.8184
  917MOL0     H20980  10.154   9.923   9.601 -0.7875 -2.9656  2.6800
  917MOL0     H20981   9.988  10.110   9.817 -1.5332 -1.0211  1.4731
  917MOL0     H20982   9.959  10.031   9.667 -1.2185  0.4257 -0.9024
  917MOL0     H20983   9.844  10.236   9.580  2.1682  0.9493 -0.9540
  917MOL0     H20984   9.887  10.321   9.725 -2.0646  0.9661 -1.2719
  917MOL0     H20985   9.671  10.280   9.778  0.5801  0.4557  0.9362
  917MOL0     H20986   9.741  10.136   9.865 -1.6863 -3.0168 -0.2662
  917MOL0     H20987   9.626  10.142   9.587 -4.8115 -1.1597  0.7526
  917MOL0     H20988   9.685  10.000   9.653  2.2087  1.2325 -1.6430
  917MOL0     H20989   9.453  10.159   9.785 -1.0106 -1.2745  1.2264
  917MOL0     H20990   9.508   9.993   9.835  0.7713  0.8816  2.1047
  917MOL0     H20991   9.444   9.901   9.626  1.9267  0.8570 -0.4370
  917MOL0     H20992   9.389  10.051   9.561  0.5461 -2.4958 -0.4778
  917MOL0     H20993   9.220  10.049   9.764  1.6603  0.7378  0.1692
  917MOL0     H20994   9.195   9.916   9.648 -1.4152 -1.3146  1.1246
  917MOL0     H20995   9.334   9.890   9.923  2.0134 -1.6231 -0.4273
  917MOL0     H20996   9.314   9.766   9.791  0.3317  0.3225 -1.2758
  917MOL0     H20997   9.074   9.672   9.766  2.0497  3.1941 -2.4019
  917MOL0     H20998   8.803   9.620   9.933  2.0331 -2.2680 -2.1870
  917MOL0     H20999   8.824   9.664   9.767  0.1490 -1.0098 -0.1410
  917MOL0     H21000   8.697   9.867   9.786 -0.4183 -1.7965 -3.3985
  917MOL0     H21001   8.668   9.831   9.960  1.5074 -0.9155  0.1998
  917MOL0     H21002   8.564   9.672   9.726 -0.7133 -1.0865  0.0142
  917MOL0     H21003   8.535   9.635   9.902  2.5590 -1.1822 -1.0884
  917MOL0     H21004   8.451   9.848   9.926  1.5047 -0.0998  0.0202
  917MOL0     H21005   8.346   9.731   9.829 -0.6972  0.8801 -1.6890
  917MOL0     H21006   8.312   9.967   9.502 -0.4055  0.3270  0.6169
  917MOL0     H21007   8.111  10.078   9.469  1.6849  2.4593  0.2653
  917MOL0     H21008   7.604  10.179   9.690 -1.7761  0.2304  0.6872
  917MOL0     H21009   7.431  10.340   9.632 -0.5423  2.4358  0.2304
  917MOL0     H21010   7.524  10.754   9.740 -1.1914  1.3085  2.3750
  917MOL0     H21011   7.398  10.697   9.830  1.1137 -1.9779 -0.0472
  917MOL0     H21012   7.356  10.819   9.552 -2.2432 -1.0800 -1.6743
  917MOL0     H21013   7.329  10.889   9.715 -0.0430  0.3107  0.0874
  917MOL0     H21014   7.181  10.738   9.775 -1.8130  1.8929 -0.5106
  917MOL0     H21015   7.182  10.654   9.609 -2.7366  1.2490 -3.6104
  917MOL0     H21016   7.083  10.939   9.654  1.5905  1.0487 -0.5595
  917MOL0     H21017   7.091  10.863   9.503  2.2672  0.6360  0.8575
  917MOL0     H21018   6.929  10.783   9.755  3.5042 -1.4785  0.2702
  917MOL0     H21019   6.934  10.675   9.612 -3.6325 -0.2028 -1.1169
  917MOL0     H21020   6.814  10.819   9.479  1.5063  2.1815 -1.2400
  917MOL0     H21021   6.845  10.959   9.578 -2.2377  0.4163  0.0485
  917MOL0     H21022   6.673  10.715   9.668 -0.0710 -0.1002  1.2305
  917MOL0     H21023   6.709  10.855   9.770  0.0524  2.0893 -0.8169
  917MOL0     H21024   6.581  10.864   9.493 -2.0165  1.2715 -1.6471
  917MOL0     H21025   6.595  10.998   9.598  3.1105 -0.4769 -1.8556
  917MOL0     H21026   7.692  10.660   9.664  0.8163  0.6141  0.2453
  917MOL0     H21027   7.880  10.508   9.731 -0.6356  1.2312  0.2484
  917MOL0     H21028   8.054  10.109   9.894  0.7040 -0.8227  0.1085
  917MOL0     H21029   8.250   9.956   9.927 -0.1000  0.9347 -0.1847
  917MOL0     H21030  10.304  10.287   9.769 -2.1643 -0.3541  2.7116
  917MOL0     H21031  10.497  10.150   9.876 -0.2097 -0.3207 -0.2946
  917MOL0     H21032  10.699   9.904  10.022  0.9432  1.3225 -0.6322
  917MOL0     H21033  10.938   9.824  10.113 -1.8346  1.9198 -2.1849
  917MOL0     H21034  11.068   9.694  10.247  1.5294 -0.3180  0.1160
  917MOL0     H21035  11.164   9.669  10.106 -1.8146  0.7406 -1.0972
  917MOL0     H21036  11.155   9.476  10.346 -0.3898  0.1084 -0.3715
  917MOL0     H21037  11.206   9.454  10.172 -3.9500  3.0495 -3.4670
  917MOL0     H21038  11.313   9.648  10.382  2.1881 -1.0573  1.8835
  917MOL0     H21039  11.366   9.636  10.207 -2.8844  1.7812 -0.0216
  917MOL0     H21040  11.448   9.389  10.271  3.5185  1.0054 -1.9670
  917MOL0     H21041  11.533   9.507  10.354  0.2228 -1.6509 -1.1005
  917MOL0     H21042  11.322   9.341  10.674 -0.2919  2.3239  0.9206
  917MOL0     H21043  10.811   9.422   9.997  0.2399 -0.6517  3.1321
  917MOL0     H21044  10.605   9.502   9.923  1.3127 -0.5979 -2.3241
  918MOL0     O21045   2.181   9.744   7.478 -0.0392  0.0799  0.4106
  918MOL0     C21046   2.119   9.730   7.583 -0.4993 -0.2528  0.7055
  918MOL0     O21047   2.174   9.726   7.702  0.2407 -0.8520  0.0787
  918MOL0     C21048   2.304   9.733   7.725 -0.1007 -0.1315 -0.0379
  918MOL0     C21049   2.367   9.621   7.776  0.0935 -0.1969 -0.0536
  918MOL0     C21050   2.504   9.627   7.804 -1.0522  0.3926 -0.8470
  918MOL0     C21051   2.583   9.740   7.756  0.1120  0.9000 -0.3284
  918MOL0     O21052   2.713   9.747   7.782 -0.6650 -0.0546  0.0589
  918MOL0     C21053   2.799   9.646   7.737 -0.2022  0.2304 -0.0091
  918MOL0     C21054   2.888   9.702   7.622  0.2871 -0.5324 -0.3998
  918MOL0     C21055   2.992   9.799   7.669 -0.0435  0.0999  0.3152
  918MOL0     C21056   2.943   9.944   7.693 -0.1476 -1.2108 -0.3474
  918MOL0     C21057   3.052  10.062   7.696  1.0558  0.5862 -0.3298
  918MOL0     C21058   3.163  10.060   7.588  0.9693  0.5384  1.1217
  918MOL0     C21059   3.114  10.068   7.444  0.2806 -0.1984 -0.4111
  918MOL0     C21060   3.215  10.113   7.343 -0.8121 -0.2864 -0.9542
  918MOL0     N21061   3.222  10.259   7.335 -0.3761 -0.7216 -0.0565
  918MOL0     C21062   3.121  10.344   7.322  0.1145  0.0904  1.0544
  918MOL0     C21063   3.168  10.465   7.325 -0.3796 -0.6939 -0.3887
  918MOL0     C21064   3.102  10.592   7.299 -0.2364 -0.3710 -0.4932
  918MOL0     C21065   3.144  10.664   7.164  0.0619  0.4441 -0.8612
  918MOL0     C21066   3.026  10.732   7.098 -0.2812  0.1023 -0.1879
  918MOL0     C21067   2.892  10.650   7.088 -0.2651 -0.1922  0.0060
  918MOL0     O21068   2.899  10.527   7.025 -0.3689 -0.0629  0.6918
  918MOL0     C21069   2.777  10.483   6.988 -0.2068  0.2451 -0.2567
  918MOL0     C21070   2.788  10.345   6.943  0.4017 -0.0663  0.5956
  918MOL0     C21071   2.679  10.265   6.917 -0.0548 -0.1405 -0.9085
  918MOL0     C21072   2.545  10.322   6.936 -0.3501 -0.2285 -0.7280
  918MOL0     C21073   2.425  10.240   6.914  0.2257  0.6298  0.4703
  918MOL0     O21074   2.299  10.291   6.930 -0.9648  0.5128  0.0062
  918MOL0     C21075   2.192  10.205   6.937  1.0756 -1.0378 -0.0422
  918MOL0     C21076   2.160  10.128   7.040  0.2700 -0.6158 -0.1535
  918MOL0     C21077   2.039  10.055   7.044 -0.0305  0.5880  0.0321
  918MOL0     C21078   1.959  10.056   6.934  0.0489 -0.5101 -0.0960
  918MOL0     O21079   1.849   9.971   6.932 -0.4305 -0.1228 -0.1604
  918MOL0     C21080   1.744   9.999   7.025  1.1467  0.0459 -0.3170
  918MOL0     C21081   1.730   9.887   7.137 -0.5255 -0.1827 -0.5398
  918MOL0     C21082   1.599   9.884   7.209  0.7769 -0.2254  0.2718
  918MOL0     C21083   1.467   9.902   7.139 -0.9951  0.8253  0.2934
  918MOL0     C21084   1.356   9.849   7.235  0.7133 -0.4453  1.1255
  918MOL0     C21085   1.202   9.877   7.195 -0.1692  0.3654 -0.5275
  918MOL0     C21086   1.126   9.766   7.267 -1.0524  0.3239 -0.2245
  918MOL0     C21087   0.975   9.789   7.258 -0.9357 -0.3942  0.4440
  918MOL0    Cl21088   0.924   9.786   7.090 -0.2117 -0.1340  0.0795
  918MOL0     C21089   1.985  10.136   6.828 -0.1773 -0.7004 -0.3966
  918MOL0     C21090   2.108  10.208   6.825  0.4525  0.4647  0.5385
  918MOL0     O21091   2.447  10.126   6.873  0.4435 -0.1289  0.0172
  918MOL0     C21092   2.540  10.457   6.977  0.1337 -0.8776  0.7839
  918MOL0     C21093   2.652  10.540   6.997  0.3108 -0.2676 -0.4485
  918MOL0     N21094   3.298  10.448   7.363  0.6994 -0.0946 -0.1654
  918MOL0     N21095   3.328  10.324   7.368 -0.6144  0.6035 -0.5693
  918MOL0     C21096   2.513   9.857   7.712  0.3456 -0.2095  1.2658
  918MOL0     C21097   2.374   9.852   7.701  0.7010 -0.2473 -0.8219
  918MOL0     C21098   1.984   9.686   7.571 -1.2297 -0.6119 -0.2004
  918MOL0     C21099   1.911   9.648   7.685 -0.1661  0.4314  0.7932
  918MOL0     C21100   1.785   9.597   7.684 -0.4516  0.1223 -0.2259
  918MOL0     C21101   1.717   9.588   7.564 -0.4684  0.7442  0.0200
  918MOL0     O21102   1.595   9.529   7.579 -0.6291  0.0250  0.6379
  918MOL0     C21103   1.498   9.532   7.472 -0.5874  0.6603 -0.3281
  918MOL0     C21104   1.374   9.449   7.511 -0.9003 -0.5626  0.2365
  918MOL0     C21105   1.321   9.485   7.652  0.1528 -0.2868 -0.0095
  918MOL0     C21106   1.191   9.412   7.690  0.9385 -0.0889 -0.0519
  918MOL0     C21107   1.080   9.471   7.609  0.0729 -0.0296 -0.2314
  918MOL0     C21108   0.980   9.510   7.548  1.0236  0.0911  0.2812
  918MOL0     C21109   1.780   9.626   7.450  0.7863 -0.6518 -0.0659
  918MOL0     C21110   1.913   9.670   7.448  0.0904  0.3544 -0.0425
  918MOL0     H21111   2.316   9.526   7.788  1.3421 -0.7737  0.9455
  918MOL0     H21112   2.571   9.545   7.831 -2.5963 -0.6381  0.0007
  918MOL0     H21113   2.738   9.564   7.697  0.5453 -1.3986  2.0577
  918MOL0     H21114   2.844   9.586   7.816 -1.4396  0.3550  0.8100
  918MOL0     H21115   2.820   9.741   7.545 -0.9596 -1.7559  0.0378
  918MOL0     H21116   2.946   9.622   7.575  3.3173  0.9413  0.5829
  918MOL0     H21117   3.072   9.794   7.594  0.0491  0.9495  0.3455
  918MOL0     H21118   3.049   9.760   7.753  0.9813 -1.0939 -0.8965
  918MOL0     H21119   2.885   9.970   7.604  1.9363 -2.0811 -2.0664
  918MOL0     H21120   2.881   9.953   7.782 -1.2329  0.7620 -1.2311
  918MOL0     H21121   3.094  10.057   7.797 -3.9282  0.5092  2.0628
  918MOL0     H21122   2.999  10.158   7.694  3.3100  1.9509  0.9871
  918MOL0     H21123   3.222   9.973   7.617  1.0700  0.2391  0.0664
  918MOL0     H21124   3.225  10.148   7.608 -0.0743  1.3044  1.0843
  918MOL0     H21125   3.091   9.968   7.406 -0.7954  0.2994 -1.1175
  918MOL0     H21126   3.025  10.130   7.450 -1.8523 -3.1315  0.9992
  918MOL0     H21127   3.189  10.085   7.241 -1.3798 -0.2156 -0.8284
  918MOL0     H21128   3.317  10.085   7.373  0.3205  3.0561 -1.2727
  918MOL0     H21129   3.019  10.313   7.298  0.0284  2.3380 -2.1752
  918MOL0     H21130   3.106  10.661   7.384 -0.9896  1.7126 -2.0678
  918MOL0     H21131   2.995  10.571   7.289 -0.5758  0.4224  1.1626
  918MOL0     H21132   3.198  10.596   7.097 -1.6445  0.0129 -1.8492
  918MOL0     H21133   3.209  10.750   7.183 -1.4281  1.7762 -1.5755
  918MOL0     H21134   3.007  10.830   7.143  0.9484  0.3318 -0.1372
  918MOL0     H21135   3.059  10.755   6.997 -0.4043  1.1168 -0.0085
  918MOL0     H21136   2.822  10.718   7.038 -1.8296 -0.1686  2.0881
  918MOL0     H21137   2.844  10.625   7.183  2.5087  3.3388  2.6428
  918MOL0     H21138   2.890  10.308   6.933  0.8034  1.2674 -0.5515
  918MOL0     H21139   2.692  10.163   6.884 -0.0172 -0.2956 -0.4183
  918MOL0     H21140   2.228  10.128   7.125  0.3371 -1.8751 -0.1964
  918MOL0     H21141   2.001   9.992   7.124 -0.6439 -0.8098 -1.3112
  918MOL0     H21142   1.659   9.996   6.956  0.9735 -1.2610 -0.0805
  918MOL0     H21143   1.762  10.098   7.067  2.1799  0.5278 -1.8061
  918MOL0     H21144   1.818   9.897   7.202  0.1902  1.0061 -1.6425
  918MOL0     H21145   1.752   9.787   7.099  0.1094 -1.2980  2.5014
  918MOL0     H21146   1.610   9.968   7.279 -2.2010  1.6776 -1.2979
  918MOL0     H21147   1.599   9.793   7.269  1.5667 -2.5630 -2.9945
  918MOL0     H21148   1.448  10.005   7.109 -0.0937  0.3914 -1.9927
  918MOL0     H21149   1.462   9.840   7.049  0.0604  2.1831 -0.7380
  918MOL0     H21150   1.372   9.861   7.342 -0.4878  0.3393  1.2416
  918MOL0     H21151   1.363   9.741   7.218  0.3462 -0.4824  1.2036
  918MOL0     H21152   1.183   9.859   7.088 -0.8744  0.0966 -0.3653
  918MOL0     H21153   1.168   9.976   7.226 -1.2218  0.7218 -2.6338
  918MOL0     H21154   1.148   9.668   7.224  4.1449  1.4948 -0.8129
  918MOL0     H21155   1.156   9.757   7.372  0.0994 -0.2824 -0.5937
  918MOL0     H21156   0.945   9.883   7.305  0.7855 -0.0997  0.9978
  918MOL0     H21157   0.929   9.711   7.320  1.2834 -0.4391  2.1488
  918MOL0     H21158   1.923  10.133   6.739  0.5451 -0.4197 -0.9163
  918MOL0     H21159   2.126  10.278   6.743 -0.4252  0.4779  0.3540
  918MOL0     H21160   2.440  10.499   6.987  0.5541  0.9273 -1.6371
  918MOL0     H21161   2.629  10.636   7.042 -0.4464  1.1426 -3.6172
  918MOL0     H21162   2.559   9.953   7.691 -2.8662  1.0725 -0.5762
  918MOL0     H21163   2.327   9.945   7.670  1.3942 -0.4081 -2.4209
  918MOL0     H21164   1.945   9.675   7.785 -2.8992  3.6896  1.0280
  918MOL0     H21165   1.736   9.574   7.778  1.3349  0.5425  0.8635
  918MOL0     H21166   1.541   9.486   7.382  0.8359  0.6919  0.3115
  918MOL0     H21167   1.472   9.635   7.445  1.1688  1.7662  1.9462
  918MOL0     H21168   1.297   9.465   7.436  0.6321  1.4484 -1.0014
  918MOL0     H21169   1.384   9.340   7.517  2.4496 -0.4050 -0.3974
  918MOL0     H21170   1.294   9.590   7.644 -0.5236 -0.6068 -2.9306
  918MOL0     H21171   1.396   9.468   7.730 -0.3220 -1.1749  0.2823
  918MOL0     H21172   1.204   9.304   7.700 -1.5738 -0.2967  2.0799
  918MOL0     H21173   1.171   9.439   7.795  2.3574 -0.4791  0.3427
  918MOL0     H21174   0.887   9.534   7.501  1.7016 -1.0679 -1.7808
  918MOL0     H21175   1.729   9.608   7.356 -0.4118 -1.4922  0.7185
  918MOL0     H21176   1.967   9.687   7.356 -1.7979 -2.4981 -1.8160
  919MOL0     O21177   8.286   9.399   7.448  0.1373 -0.5413  0.5437
  919MOL0     C21178   8.293   9.384   7.328 -0.1800  0.7967  0.2253
  919MOL0     O21179   8.220   9.295   7.255  0.6623  0.7324  0.1721
  919MOL0     C21180   8.138   9.218   7.328  0.2763 -0.5974  0.3587
  919MOL0     C21181   8.158   9.083   7.317 -0.0981 -0.0336  0.6785
  919MOL0     C21182   8.077   8.996   7.397 -0.0796  0.2497 -0.0219
  919MOL0     C21183   7.978   9.042   7.480  0.5251 -0.7430 -0.4758
  919MOL0     O21184   7.912   8.944   7.551 -0.3484 -0.0633  0.6977
  919MOL0     C21185   7.769   8.952   7.525  0.4686  0.3047 -0.0777
  919MOL0     C21186   7.747   8.835   7.437  0.0323 -0.1326  0.0521
  919MOL0     C21187   7.787   8.693   7.497 -0.0596 -0.0354  0.5471
  919MOL0     C21188   7.728   8.572   7.410 -0.6205 -0.5616 -0.4618
  919MOL0     C21189   7.759   8.576   7.261  0.6564  0.4697 -0.6125
  919MOL0     C21190   7.902   8.558   7.223  0.5445 -0.5536  0.0035
  919MOL0     C21191   7.944   8.673   7.127 -0.2522  1.1868 -0.2205
  919MOL0     C21192   8.087   8.636   7.083  1.0165 -0.4210  0.4976
  919MOL0     N21193   8.156   8.750   7.033  1.2626  0.5707 -0.0461
  919MOL0     C21194   8.111   8.828   6.923  0.9589  0.0093  0.1257
  919MOL0     C21195   8.204   8.916   6.898 -0.2146 -0.4387  0.4746
  919MOL0     C21196   8.202   9.033   6.806  0.2050 -0.7646 -0.4027
  919MOL0     C21197   8.171   9.151   6.894  0.4799 -0.2949  0.4987
  919MOL0     C21198   8.195   9.295   6.825 -0.3436  0.1811 -0.7573
  919MOL0     C21199   8.339   9.316   6.776  0.1973 -0.5872  1.7720
  919MOL0     O21200   8.354   9.434   6.699 -0.2480  0.0157 -0.2674
  919MOL0     C21201   8.483   9.466   6.670 -0.2597 -0.9943 -0.2604
  919MOL0     C21202   8.507   9.597   6.622  0.5566 -1.2535 -0.2607
  919MOL0     C21203   8.632   9.640   6.585  1.3158  0.2928 -0.2877
  919MOL0     C21204   8.740   9.562   6.609  0.4713  1.4210  0.5574
  919MOL0     C21205   8.870   9.606   6.572 -0.8523  0.8041  0.3077
  919MOL0     O21206   8.876   9.689   6.468 -0.0701 -0.4514  0.1586
  919MOL0     C21207   9.000   9.742   6.426 -0.0596  0.0489  0.3690
  919MOL0     C21208   9.089   9.802   6.509 -1.0321  0.7295 -0.0518
  919MOL0     C21209   9.204   9.868   6.459  0.4317  0.4141  0.0440
  919MOL0     C21210   9.218   9.893   6.323 -0.8459  0.3285 -0.2795
  919MOL0     O21211   9.319   9.967   6.270 -0.0067  0.1523  0.1726
  919MOL0     C21212   9.332  10.105   6.314  0.5698  0.5989  0.3239
  919MOL0     C21213   9.323  10.200   6.190  0.9424 -0.3013 -1.0065
  919MOL0     C21214   9.166  10.208   6.148 -0.4845  0.1539  0.2629
  919MOL0     C21215   9.162  10.290   6.011 -0.8274  0.5143 -0.1230
  919MOL0     C21216   9.013  10.335   5.981 -0.0207  1.3128 -0.6063
  919MOL0     C21217   8.985  10.462   6.059 -1.1118  0.1606 -0.0153
  919MOL0     C21218   8.851  10.511   6.018  0.2721  0.6305  0.3741
  919MOL0     C21219   8.741  10.448   6.107  0.5943  0.6462  0.1847
  919MOL0    Cl21220   8.746  10.493   6.279 -0.4368 -0.1440  0.2326
  919MOL0     C21221   9.116   9.843   6.243 -0.1271  0.2648  0.0802
  919MOL0     C21222   9.002   9.778   6.296  0.0943  0.7831 -0.0011
  919MOL0     O21223   8.968   9.562   6.628  0.3269  0.4085  0.1374
  919MOL0     C21224   8.720   9.432   6.656 -0.6329 -0.9348 -0.2351
  919MOL0     C21225   8.592   9.377   6.679  1.0357 -0.0722 -0.1865
  919MOL0     N21226   8.293   8.898   6.999 -0.1036  0.7059  0.1580
  919MOL0     N21227   8.266   8.806   7.073 -0.5933  0.6872  0.4603
  919MOL0     C21228   7.963   9.183   7.492  0.0124  0.2733 -0.0462
  919MOL0     C21229   8.032   9.266   7.405 -0.2824  0.6072 -1.0235
  919MOL0     C21230   8.398   9.459   7.257  0.1314  0.0891 -1.1896
  919MOL0     C21231   8.503   9.517   7.326 -0.3189 -0.4941  0.2607
  919MOL0     C21232   8.598   9.595   7.251 -1.2093  0.0033 -0.0984
  919MOL0     C21233   8.597   9.605   7.115 -0.4070  0.4128  0.4718
  919MOL0     O21234   8.679   9.684   7.039  0.0051 -0.8089  0.5277
  919MOL0     C21235   8.784   9.766   7.090  1.0153 -0.2743  0.2827
  919MOL0     C21236   8.759   9.911   7.063  0.2082  0.0761 -1.0829
  919MOL0     C21237   8.696   9.935   6.926  0.1864  0.2260  0.5060
  919MOL0     C21238   8.790   9.878   6.810 -0.1679 -0.0349  0.3032
  919MOL0     C21239   8.915   9.947   6.812 -0.2866  0.1537  0.3582
  919MOL0     C21240   9.030   9.991   6.804  0.0748 -0.5584  0.4962
  919MOL0     C21241   8.498   9.533   7.047  0.0495  0.6685 -0.5579
  919MOL0     C21242   8.392   9.470   7.119 -0.6673 -0.1443 -0.0959
  919MOL0     H21243   8.219   9.035   7.241 -1.6100 -2.1236  0.6950
  919MOL0     H21244   8.088   8.890   7.378  1.4583  0.7093 -2.1676
  919MOL0     H21245   7.737   9.051   7.490 -1.6180 -0.3502 -0.1129
  919MOL0     H21246   7.712   8.947   7.618 -0.2790  1.4675 -0.4424
  919MOL0     H21247   7.792   8.843   7.338  1.1412  3.4921  0.7262
  919MOL0     H21248   7.639   8.830   7.421 -0.1519 -0.4781  1.2552
  919MOL0     H21249   7.735   8.692   7.593 -0.5697  1.8879  0.3363
  919MOL0     H21250   7.896   8.698   7.510 -0.0702  1.3168  0.2612
  919MOL0     H21251   7.760   8.476   7.451  0.3814 -0.8195 -1.7715
  919MOL0     H21252   7.619   8.580   7.418 -0.9439  1.6209 -4.3202
  919MOL0     H21253   7.717   8.671   7.227  1.0261  1.7369  2.2073
  919MOL0     H21254   7.702   8.497   7.213 -0.1885  1.1818 -0.8135
  919MOL0     H21255   7.910   8.452   7.196  1.7951 -1.4274  3.2309
  919MOL0     H21256   7.965   8.561   7.313 -0.5764 -0.7761  0.8241
  919MOL0     H21257   7.875   8.685   7.043  0.7066 -1.5550 -1.5130
  919MOL0     H21258   7.950   8.763   7.189 -2.9664  0.2870  1.5418
  919MOL0     H21259   8.076   8.567   6.999 -0.8169 -0.2250  0.5356
  919MOL0     H21260   8.128   8.591   7.174 -2.2315  0.0081  2.3258
  919MOL0     H21261   8.007   8.827   6.891  0.5094 -2.7405  1.4319
  919MOL0     H21262   8.119   9.014   6.738 -0.0679 -2.5035  0.3435
  919MOL0     H21263   8.298   9.035   6.753  0.1931 -0.9615 -0.4325
  919MOL0     H21264   8.241   9.143   6.978  0.4010 -0.2778  0.5666
  919MOL0     H21265   8.067   9.154   6.928  0.5928  2.8975  0.9036
  919MOL0     H21266   8.136   9.311   6.735  2.2085  0.8826 -2.4129
  919MOL0     H21267   8.173   9.371   6.900  1.2221  1.0984 -1.1974
  919MOL0     H21268   8.367   9.229   6.716 -1.8597 -1.0356  1.3830
  919MOL0     H21269   8.403   9.322   6.864  1.2872 -3.5415  1.2905
  919MOL0     H21270   8.420   9.661   6.628  2.0174  0.7343  1.8136
  919MOL0     H21271   8.643   9.738   6.542  1.8475  0.4191  0.1305
  919MOL0     H21272   9.073   9.789   6.615 -2.2776 -2.1447 -0.5184
  919MOL0     H21273   9.276   9.912   6.527  0.3724  0.4815  0.0623
  919MOL0     H21274   9.424  10.112   6.373  0.6103  1.1376  0.1985
  919MOL0     H21275   9.247  10.135   6.376  0.0902  0.2628 -0.1581
  919MOL0     H21276   9.379  10.162   6.104  2.0242  0.4360 -0.6361
  919MOL0     H21277   9.357  10.300   6.219 -0.0134 -0.5304  1.1183
  919MOL0     H21278   9.098  10.252   6.221 -0.2305  1.3661 -0.2089
  919MOL0     H21279   9.123  10.109   6.130  1.5542 -0.6487 -0.4671
  919MOL0     H21280   9.229  10.377   6.011 -1.4585  1.1413  3.0277
  919MOL0     H21281   9.195  10.224   5.930 -2.5659  0.3404 -0.7184
  919MOL0     H21282   8.938  10.257   5.997  0.8908  0.9436  2.6986
  919MOL0     H21283   8.998  10.355   5.875 -0.5219  0.5275 -0.6898
  919MOL0     H21284   9.070  10.529   6.042  0.4302 -1.4345  0.9774
  919MOL0     H21285   8.984  10.446   6.168 -0.8192  2.5593  0.3827
  919MOL0     H21286   8.848  10.620   6.017  3.9063  0.8795  0.2723
  919MOL0     H21287   8.824  10.492   5.914 -2.4366  1.8810  0.7760
  919MOL0     H21288   8.743  10.338   6.110  3.5970  0.5869 -0.8215
  919MOL0     H21289   8.641  10.483   6.076  0.9949  0.0180 -2.0271
  919MOL0     H21290   9.117   9.869   6.138  0.9014 -0.4140 -0.0891
  919MOL0     H21291   8.917   9.756   6.232  0.1363 -2.1782  0.8406
  919MOL0     H21292   8.810   9.376   6.679 -1.2116 -1.4714  0.7539
  919MOL0     H21293   8.576   9.272   6.702  0.3711  0.4049  1.6943
  919MOL0     H21294   7.883   9.221   7.554  0.2235 -0.3445  0.6177
  919MOL0     H21295   8.007   9.370   7.426 -1.9687 -0.2421  1.8207
  919MOL0     H21296   8.505   9.512   7.435  0.8198 -0.7456  0.2442
  919MOL0     H21297   8.683   9.631   7.307 -0.0571 -1.1449 -1.0160
  919MOL0     H21298   8.876   9.739   7.037  0.4135  2.1334 -2.2053
  919MOL0     H21299   8.795   9.752   7.198 -0.5813 -3.1460  0.1680
  919MOL0     H21300   8.685   9.941   7.138  2.0070  1.3778  0.2510
  919MOL0     H21301   8.851   9.968   7.079  0.4333 -0.1591 -1.5266
  919MOL0     H21302   8.684  10.043   6.918  2.9242  0.7931  2.5033
  919MOL0     H21303   8.595   9.892   6.929  0.2316  0.0011 -0.8173
  919MOL0     H21304   8.812   9.773   6.829  0.7941  0.2732  0.9782
  919MOL0     H21305   8.748   9.877   6.709 -0.0586 -2.4055  0.2436
  919MOL0     H21306   9.133  10.021   6.801  0.0198 -0.1022  2.1106
  919MOL0     H21307   8.497   9.541   6.939  0.5948 -1.9401 -0.8275
  919MOL0     H21308   8.310   9.436   7.056 -1.9777 -0.6297  1.7810
  920MOL0     O21309   6.438   4.788   5.907  0.0913 -0.9093  0.2790
  920MOL0     C21310   6.443   4.903   5.949  0.4070 -0.5134  0.1041
  920MOL0     O21311   6.360   5.006   5.919  0.0250  0.1322 -0.5214
  920MOL0     C21312   6.268   4.988   5.814 -0.2106  0.1448 -0.3916
  920MOL0     C21313   6.149   5.065   5.836 -0.7602 -0.7546  0.0096
  920MOL0     C21314   6.045   5.074   5.744  0.3462  0.2143  0.2605
  920MOL0     C21315   6.068   5.008   5.622 -0.0520 -1.2428 -0.0415
  920MOL0     O21316   5.984   5.009   5.516 -0.0489  0.4006 -0.2143
  920MOL0     C21317   5.872   5.099   5.519 -0.1048  0.0580  0.1985
  920MOL0     C21318   5.796   5.059   5.390 -0.8717  0.6577 -0.1469
  920MOL0     C21319   5.691   5.165   5.356  0.3299  0.2404  0.9768
  920MOL0     C21320   5.592   5.202   5.479 -0.1564  0.1801 -0.9009
  920MOL0     C21321   5.460   5.277   5.436  0.0396 -0.3076 -0.6252
  920MOL0     C21322   5.367   5.177   5.359 -0.0375  0.1552 -0.0093
  920MOL0     C21323   5.217   5.190   5.376  0.6433 -0.7335  0.1291
  920MOL0     C21324   5.166   5.326   5.315 -0.3641  0.4995  0.5209
  920MOL0     N21325   5.018   5.328   5.345 -0.9025  0.4590  0.4576
  920MOL0     C21326   4.920   5.307   5.252 -0.2707  0.5811 -0.5475
  920MOL0     C21327   4.801   5.309   5.317 -0.3677 -0.5347  0.2060
  920MOL0     C21328   4.682   5.258   5.247  0.8651 -0.9872 -0.1404
  920MOL0     C21329   4.549   5.304   5.307 -0.3526 -0.4559 -0.1091
  920MOL0     C21330   4.434   5.219   5.240 -0.0318 -0.5265  0.5058
  920MOL0     C21331   4.302   5.244   5.297 -0.0431  0.3980 -0.1754
  920MOL0     O21332   4.247   5.365   5.240 -0.2914  1.5165 -0.2368
  920MOL0     C21333   4.118   5.380   5.239  0.5311 -0.3204  0.3235
  920MOL0     C21334   4.028   5.310   5.323  0.8122  0.7796 -0.0328
  920MOL0     C21335   3.887   5.321   5.301 -0.2914  0.0060  0.1542
  920MOL0     C21336   3.831   5.420   5.213  0.0159  0.1479 -0.5820
  920MOL0     C21337   3.680   5.432   5.184  0.5099 -0.0133 -0.2055
  920MOL0     O21338   3.598   5.360   5.259  0.5979  0.0357 -0.4683
  920MOL0     C21339   3.461   5.369   5.250 -0.8995 -0.7505  0.6068
  920MOL0     C21340   3.396   5.336   5.131 -0.3075  0.0579  0.0273
  920MOL0     C21341   3.261   5.355   5.120 -0.1506  0.4368 -0.2723
  920MOL0     C21342   3.175   5.400   5.226  0.6351 -0.1718 -0.2201
  920MOL0     O21343   3.037   5.418   5.207  0.6324  0.4550  0.4976
  920MOL0     C21344   2.951   5.370   5.317  0.0041  0.4461 -0.0911
  920MOL0     C21345   2.889   5.466   5.419  0.6161 -0.8456  0.4985
  920MOL0     C21346   2.854   5.593   5.348 -0.1744  1.2666  0.7978
  920MOL0     C21347   2.781   5.705   5.416 -0.6640  1.5543 -0.3457
  920MOL0     C21348   2.809   5.839   5.350  0.7829  0.0607 -0.1922
  920MOL0     C21349   2.779   5.845   5.204  0.2052 -0.0756 -0.1241
  920MOL0     C21350   2.765   5.992   5.164  0.1638  0.5863 -1.1755
  920MOL0     C21351   2.717   6.004   5.024  0.1188  0.3800 -0.2576
  920MOL0    Cl21352   2.721   6.171   4.968 -0.2653  0.0196  0.0331
  920MOL0     C21353   3.247   5.435   5.343 -0.9563 -0.7703 -0.3599
  920MOL0     C21354   3.384   5.415   5.361 -0.8173  0.2143  0.7641
  920MOL0     O21355   3.644   5.516   5.100 -0.5723  0.1973  0.3591
  920MOL0     C21356   3.919   5.484   5.129  0.1169  0.4172 -0.0488
  920MOL0     C21357   4.059   5.464   5.142 -0.2598 -0.0376  0.4165
  920MOL0     N21358   4.824   5.342   5.451 -0.3934 -0.5063  0.2336
  920MOL0     N21359   4.953   5.372   5.455 -0.1661  0.3422 -0.7965
  920MOL0     C21360   6.178   4.927   5.604  0.1877  0.3278 -0.8903
  920MOL0     C21361   6.276   4.912   5.701 -0.3467 -0.5854  0.9375
  920MOL0     C21362   6.522   4.914   6.068  0.4448 -0.1980  0.1203
  920MOL0     C21363   6.520   5.037   6.144  0.6719  0.6235  0.0998
  920MOL0     C21364   6.604   5.052   6.256 -0.4195 -0.5127  0.4217
  920MOL0     C21365   6.689   4.947   6.300  0.1624 -0.5295  0.0476
  920MOL0     O21366   6.763   4.981   6.416 -0.8407  0.2674 -0.1632
  920MOL0     C21367   6.867   4.889   6.462  0.9253  0.5627  0.1270
  920MOL0     C21368   6.928   4.941   6.588  0.2121  0.0629  0.5031
  920MOL0     C21369   7.021   5.052   6.548 -0.6861 -0.4879  0.5243
  920MOL0     C21370   7.072   5.112   6.685  0.3528 -0.0207  0.5191
  920MOL0     C21371   7.198   5.063   6.736 -0.0403 -1.5047 -0.0499
  920MOL0     C21372   7.291   5.022   6.808 -0.7727  0.1683  0.7267
  920MOL0     C21373   6.689   4.826   6.224  0.3103  0.6859  0.2833
  920MOL0     C21374   6.603   4.803   6.113 -0.2921 -0.6026 -0.5980
  920MOL0     H21375   6.147   5.121   5.929  0.6223 -2.3787  1.0637
  920MOL0     H21376   5.963   5.143   5.763  1.2924  1.7010 -0.8260
  920MOL0     H21377   5.905   5.203   5.512  0.9301 -0.3573 -1.7989
  920MOL0     H21378   5.809   5.065   5.602  0.9915 -1.2098  0.5381
  920MOL0     H21379   5.754   4.959   5.407  0.6342  0.1734  0.8656
  920MOL0     H21380   5.860   5.045   5.303  0.4338  1.1533  0.7170
  920MOL0     H21381   5.631   5.129   5.272  1.8673 -2.7764  1.0394
  920MOL0     H21382   5.750   5.249   5.318  1.5341 -0.2332  1.7419
  920MOL0     H21383   5.572   5.110   5.535  5.2755 -1.8888 -1.7897
  920MOL0     H21384   5.636   5.262   5.559 -2.8647 -0.7703  1.5180
  920MOL0     H21385   5.487   5.362   5.371  1.7233 -0.2400  0.1097
  920MOL0     H21386   5.409   5.317   5.525  0.7538 -1.7106  0.4526
  920MOL0     H21387   5.400   5.078   5.393  2.2022  0.0574 -2.1303
  920MOL0     H21388   5.398   5.193   5.255  0.1668 -0.0826  0.0132
  920MOL0     H21389   5.156   5.109   5.336 -1.7867  0.3377  1.4263
  920MOL0     H21390   5.195   5.199   5.483  0.3887  0.8351 -0.0299
  920MOL0     H21391   5.174   5.322   5.206 -0.1341  1.4434  0.4964
  920MOL0     H21392   5.221   5.408   5.362 -0.4285  0.5353  0.5351
  920MOL0     H21393   4.925   5.272   5.149 -0.7614 -1.2332  0.0225
  920MOL0     H21394   4.692   5.150   5.237 -0.3842 -1.0357 -1.0353
  920MOL0     H21395   4.686   5.292   5.143 -0.2416 -0.1617  0.0688
  920MOL0     H21396   4.541   5.406   5.268  2.1732  0.3280  1.2153
  920MOL0     H21397   4.543   5.298   5.416  2.2675 -0.3345  0.1072
  920MOL0     H21398   4.442   5.236   5.132 -0.5824  2.2329  0.8357
  920MOL0     H21399   4.438   5.112   5.260 -0.9264 -0.2398  2.3901
  920MOL0     H21400   4.313   5.241   5.406  0.2015  0.4742 -0.1973
  920MOL0     H21401   4.236   5.158   5.279  1.4308 -1.2613  1.8887
  920MOL0     H21402   4.058   5.243   5.402 -1.7133  1.1394  1.3476
  920MOL0     H21403   3.816   5.268   5.363 -0.9668 -0.4656 -0.9867
  920MOL0     H21404   3.458   5.299   5.050 -0.5568 -0.1301 -0.0774
  920MOL0     H21405   3.214   5.340   5.023 -0.4141 -1.5270  0.1183
  920MOL0     H21406   3.007   5.298   5.377  0.2092  0.6772 -0.0036
  920MOL0     H21407   2.876   5.316   5.260  0.2642  0.1850 -0.1863
  920MOL0     H21408   2.957   5.499   5.499  1.5734  0.9619 -0.9857
  920MOL0     H21409   2.804   5.422   5.471 -0.7167 -0.8687 -1.6147
  920MOL0     H21410   2.804   5.555   5.258  1.1018 -4.1169  1.9587
  920MOL0     H21411   2.949   5.634   5.314  1.5808 -2.5328  0.5320
  920MOL0     H21412   2.674   5.683   5.416 -0.4066  0.2083 -1.1151
  920MOL0     H21413   2.820   5.710   5.518 -0.8668 -3.5757  0.2314
  920MOL0     H21414   2.916   5.859   5.351  1.0044 -0.9365  1.4963
  920MOL0     H21415   2.755   5.916   5.405 -1.3822 -1.8215  0.5129
  920MOL0     H21416   2.688   5.787   5.185 -1.1609  1.8131  0.3050
  920MOL0     H21417   2.861   5.800   5.147 -1.1970  1.9306 -4.1488
  920MOL0     H21418   2.694   6.039   5.232  1.1816  1.0285 -0.3919
  920MOL0     H21419   2.860   6.045   5.174 -0.6186  2.4636 -3.0458
  920MOL0     H21420   2.622   5.951   5.019  0.7556 -0.9277  0.7976
  920MOL0     H21421   2.773   5.932   4.964 -0.7304 -0.5284  0.0122
  920MOL0     H21422   3.200   5.471   5.433  1.3235 -0.7314  0.8861
  920MOL0     H21423   3.433   5.429   5.457  0.0395 -0.2974  0.4132
  920MOL0     H21424   3.875   5.554   5.059 -2.6922  0.4409  1.5744
  920MOL0     H21425   4.122   5.512   5.068  2.3442 -3.3240  0.2479
  920MOL0     H21426   6.198   4.872   5.512 -0.8970 -1.7709  0.0529
  920MOL0     H21427   6.370   4.866   5.672 -0.1160 -0.4985  1.5208
  920MOL0     H21428   6.466   5.126   6.113 -2.2643  1.5773  6.3275
  920MOL0     H21429   6.609   5.135   6.325  0.9126 -1.1153  1.0931
  920MOL0     H21430   6.949   4.874   6.392  0.6057 -2.0562  0.1934
  920MOL0     H21431   6.818   4.791   6.473 -1.0549  0.9582 -3.6287
  920MOL0     H21432   6.851   4.973   6.659 -1.3010 -2.6514  0.2233
  920MOL0     H21433   6.982   4.858   6.637  0.7847  0.3211  0.3147
  920MOL0     H21434   6.962   5.136   6.511 -1.7531 -0.6417  1.7738
  920MOL0     H21435   7.105   5.029   6.482 -0.1043  2.5831  0.0495
  920MOL0     H21436   7.079   5.221   6.685 -1.4360  0.2386  3.9124
  920MOL0     H21437   6.995   5.103   6.763 -0.2480  2.6664  0.3427
  920MOL0     H21438   7.359   4.968   6.871 -2.1332 -0.5946  1.5745
  920MOL0     H21439   6.755   4.745   6.253 -0.8960 -0.0125  1.1418
  920MOL0     H21440   6.624   4.712   6.058  4.3270  0.3591 -0.8227
  921MOL0     O21441   8.627   3.645   2.103  0.1380 -0.2284 -0.0670
  921MOL0     C21442   8.598   3.530   2.139  0.4596 -0.3577  0.0882
  921MOL0     O21443   8.467   3.488   2.144 -0.6736  0.7071 -0.4257
  921MOL0     C21444   8.359   3.574   2.129 -0.0993 -0.1102  0.0851
  921MOL0     C21445   8.258   3.536   2.038 -0.1674  0.0775  1.0466
  921MOL0     C21446   8.152   3.616   2.021  0.0808  0.3342  0.0798
  921MOL0     C21447   8.132   3.733   2.099 -0.7843 -0.3170  0.0844
  921MOL0     O21448   8.029   3.821   2.095 -0.0043  0.0448 -0.8028
  921MOL0     C21449   7.915   3.804   2.008 -0.2801  0.5661 -0.0429
  921MOL0     C21450   7.851   3.945   1.980 -0.0484  0.2476 -0.0155
  921MOL0     C21451   7.783   4.004   2.111 -1.5458  0.0130  1.5554
  921MOL0     C21452   7.724   4.140   2.076  0.1773  0.1854 -0.0775
  921MOL0     C21453   7.643   4.199   2.192 -1.0634  0.4793  0.6718
  921MOL0     C21454   7.585   4.338   2.156  0.7276  0.3287  0.7143
  921MOL0     C21455   7.465   4.320   2.059 -0.0062 -0.0703  0.1868
  921MOL0     C21456   7.372   4.444   2.059 -0.3635  0.0476  0.3880
  921MOL0     N21457   7.241   4.423   2.000 -0.6822  0.5613 -0.0435
  921MOL0     C21458   7.141   4.353   2.071  0.0980  0.5249 -0.4623
  921MOL0     C21459   7.054   4.316   1.973 -0.6336 -0.4561  0.3093
  921MOL0     C21460   6.944   4.220   1.978 -0.1575 -0.4357  0.0783
  921MOL0     C21461   6.816   4.269   2.034  0.2803  0.1406 -0.7103
  921MOL0     C21462   6.753   4.365   1.931  0.3386  0.5119  0.5980
  921MOL0     C21463   6.636   4.434   1.998  1.5660 -0.0240  0.5046
  921MOL0     O21464   6.556   4.479   1.894  0.2243 -0.1645 -0.7851
  921MOL0     C21465   6.439   4.544   1.912 -0.4645  0.1258 -0.8147
  921MOL0     C21466   6.374   4.567   2.033  0.4431  0.3235  0.0468
  921MOL0     C21467   6.244   4.624   2.040  0.3958 -0.6099  0.8362
  921MOL0     C21468   6.186   4.680   1.916  0.3852  0.0083  0.0772
  921MOL0     C21469   6.048   4.743   1.903  0.4663  0.1081 -0.5747
  921MOL0     O21470   5.968   4.743   2.014  0.2204  0.4809 -0.0082
  921MOL0     C21471   5.864   4.835   2.013  0.0019  0.7555  0.9627
  921MOL0     C21472   5.743   4.787   2.060 -0.1029 -0.5328  0.1963
  921MOL0     C21473   5.638   4.880   2.074  0.4465  0.4189 -1.4684
  921MOL0     C21474   5.650   5.015   2.049 -0.3844  1.1340  0.4408
  921MOL0     O21475   5.563   5.113   2.079 -0.4909 -0.3381 -0.1580
  921MOL0     C21476   5.446   5.121   2.013 -0.0396  0.9312 -0.0867
  921MOL0     C21477   5.322   5.177   2.086 -0.4675 -0.4206  0.5651
  921MOL0     C21478   5.188   5.096   2.066 -0.3017  0.1495 -0.1225
  921MOL0     C21479   5.078   5.186   2.137  0.2853  0.6411 -0.8718
  921MOL0     C21480   4.958   5.109   2.117  0.2209  0.2865  0.4222
  921MOL0     C21481   4.838   5.156   2.200 -0.9351 -0.2257 -0.0062
  921MOL0     C21482   4.718   5.070   2.175  0.5985 -0.0860 -0.3129
  921MOL0     C21483   4.597   5.103   2.257 -0.0124 -0.5307  0.0029
  921MOL0    Cl21484   4.638   5.084   2.433  0.3560 -0.0886  0.0081
  921MOL0     C21485   5.772   5.058   1.989  1.1888  0.2973  0.2759
  921MOL0     C21486   5.881   4.967   1.976 -0.3339 -0.2186  0.2195
  921MOL0     O21487   6.015   4.792   1.796  0.1697  1.1296  0.0875
  921MOL0     C21488   6.261   4.668   1.804 -0.6547  0.1966  0.5056
  921MOL0     C21489   6.379   4.592   1.796 -0.2459  0.7424 -0.7161
  921MOL0     N21490   7.090   4.375   1.852  0.3026 -0.0312  0.6660
  921MOL0     N21491   7.211   4.431   1.866 -0.0844  0.5589  0.2671
  921MOL0     C21492   8.232   3.777   2.180 -0.8049  0.0459 -0.4413
  921MOL0     C21493   8.346   3.700   2.196  0.5641 -0.4724  0.0285
  921MOL0     C21494   8.708   3.433   2.176 -0.7765  0.7868  0.4069
  921MOL0     C21495   8.844   3.470   2.192 -0.0384  0.4038  0.7644
  921MOL0     C21496   8.949   3.376   2.218 -0.3187 -0.5307  0.9308
  921MOL0     C21497   8.922   3.246   2.221 -1.1274  0.7302  0.8853
  921MOL0     O21498   9.017   3.152   2.268  0.6516  0.1496 -0.0004
  921MOL0     C21499   9.130   3.178   2.350 -0.3304  0.5049  0.6805
  921MOL0     C21500   9.253   3.186   2.268  0.5305  0.7392 -1.0336
  921MOL0     C21501   9.389   3.175   2.349  0.0740 -0.5891  0.7742
  921MOL0     C21502   9.430   3.036   2.400 -0.6122 -0.1021 -0.3427
  921MOL0     C21503   9.559   2.978   2.357  0.2589 -0.2312  0.1729
  921MOL0     C21504   9.666   2.922   2.329  0.4973  0.1006 -0.1530
  921MOL0     C21505   8.794   3.205   2.200  0.3487  0.8627 -0.5878
  921MOL0     C21506   8.691   3.293   2.166  0.1897  0.5015 -0.5891
  921MOL0     H21507   8.277   3.448   1.978 -0.7443  0.3511  0.4476
  921MOL0     H21508   8.083   3.591   1.941 -1.4315  1.5359  0.9536
  921MOL0     H21509   7.840   3.733   2.046  0.2546  0.4806  0.8949
  921MOL0     H21510   7.945   3.764   1.911 -0.0949 -1.9392  0.9798
  921MOL0     H21511   7.774   3.942   1.903 -0.0271  1.6308 -0.1168
  921MOL0     H21512   7.930   4.016   1.956  1.2664 -0.7357  1.2008
  921MOL0     H21513   7.861   4.011   2.188  2.0180  0.6155 -1.7646
  921MOL0     H21514   7.704   3.943   2.156  1.0478 -1.4059  4.6061
  921MOL0     H21515   7.805   4.205   2.041 -0.0611  0.0731 -0.8527
  921MOL0     H21516   7.646   4.123   2.000 -1.6723  1.7894  1.3495
  921MOL0     H21517   7.707   4.227   2.276  0.6496 -0.3077 -0.3163
  921MOL0     H21518   7.564   4.132   2.227 -1.8772  1.1674  0.1834
  921MOL0     H21519   7.667   4.393   2.110  3.0683 -2.5034  1.1961
  921MOL0     H21520   7.545   4.393   2.241  1.3550  0.3034  1.0322
  921MOL0     H21521   7.513   4.308   1.962  0.1332  4.6975 -0.5798
  921MOL0     H21522   7.410   4.235   2.101 -1.7511 -0.0181 -1.8691
  921MOL0     H21523   7.429   4.524   2.012  0.1907 -0.3196  0.4167
  921MOL0     H21524   7.363   4.468   2.166 -2.9091  0.0516  0.2341
  921MOL0     H21525   7.142   4.328   2.176  1.6823 -1.6996 -0.9439
  921MOL0     H21526   6.979   4.140   2.044  2.2318 -0.0906 -0.6651
  921MOL0     H21527   6.927   4.168   1.883  0.7434 -1.1066  0.2685
  921MOL0     H21528   6.840   4.336   2.116  3.8159 -1.1306 -0.5269
  921MOL0     H21529   6.748   4.187   2.059  1.0553 -0.2364  0.2192
  921MOL0     H21530   6.820   4.444   1.895  0.7321  0.8870  2.0784
  921MOL0     H21531   6.722   4.310   1.843 -2.1303 -0.6451  2.0916
  921MOL0     H21532   6.661   4.521   2.060 -1.9919  0.0215  2.1306
  921MOL0     H21533   6.576   4.369   2.063  0.7123  1.3734  1.1757
  921MOL0     H21534   6.435   4.535   2.116 -0.7056  0.3225  0.9165
  921MOL0     H21535   6.186   4.639   2.131  0.8326  3.2608  0.6462
  921MOL0     H21536   5.741   4.684   2.097  1.0196  0.2830  2.7766
  921MOL0     H21537   5.550   4.842   2.126 -0.3449  1.8426 -1.6984
  921MOL0     H21538   5.425   5.019   1.980  1.5343  0.2776  0.7954
  921MOL0     H21539   5.466   5.190   1.931  1.9645 -0.0415 -0.4733
  921MOL0     H21540   5.296   5.276   2.048  0.1148  0.1150  1.5210
  921MOL0     H21541   5.340   5.195   2.192 -2.1958 -0.9308  0.9683
  921MOL0     H21542   5.206   5.001   2.118  0.9405 -1.3961 -3.1351
  921MOL0     H21543   5.175   5.080   1.959  2.3874 -1.1949 -0.3531
  921MOL0     H21544   5.089   5.202   2.245 -0.5376  1.6572 -0.9296
  921MOL0     H21545   5.061   5.283   2.091 -3.1410  0.8881  0.5654
  921MOL0     H21546   4.978   5.004   2.143 -0.3856 -0.4958 -2.0528
  921MOL0     H21547   4.921   5.114   2.014 -0.0692  0.9039  0.5513
  921MOL0     H21548   4.827   5.261   2.171  1.0248  0.0924  0.2303
  921MOL0     H21549   4.864   5.149   2.306 -2.3255  1.6233  0.5193
  921MOL0     H21550   4.703   5.067   2.067  3.7754 -2.9039 -0.8317
  921MOL0     H21551   4.748   4.969   2.204  0.2002 -1.1815 -3.3736
  921MOL0     H21552   4.510   5.040   2.236 -0.9033  1.6340 -3.9519
  921MOL0     H21553   4.563   5.206   2.240 -3.1375 -1.1918  1.5029
  921MOL0     H21554   5.785   5.158   1.950  1.0205  0.0356 -0.4637
  921MOL0     H21555   5.976   4.999   1.936 -0.6793 -3.8847 -4.4411
  921MOL0     H21556   6.222   4.721   1.718  1.1756  0.9585  0.0971
  921MOL0     H21557   6.439   4.573   1.708 -0.1442  0.0342 -0.5040
  921MOL0     H21558   8.226   3.868   2.238 -2.9729  1.5961 -2.8694
  921MOL0     H21559   8.436   3.709   2.256  0.7191  0.7884 -0.3728
  921MOL0     H21560   8.872   3.575   2.181 -0.6891  0.4159 -1.2119
  921MOL0     H21561   9.046   3.424   2.226 -0.9674  1.6772 -2.3200
  921MOL0     H21562   9.147   3.085   2.405 -4.6983 -2.1134 -1.8301
  921MOL0     H21563   9.118   3.271   2.407  1.6363  0.0192  1.9980
  921MOL0     H21564   9.258   3.094   2.208  0.6265  0.3640 -0.4626
  921MOL0     H21565   9.248   3.271   2.199 -1.5483  0.9881 -0.6308
  921MOL0     H21566   9.396   3.256   2.422 -2.6196  1.0872 -0.6207
  921MOL0     H21567   9.470   3.198   2.279 -0.1986  0.2639  0.7297
  921MOL0     H21568   9.428   3.044   2.509 -1.0917 -0.8879 -0.2867
  921MOL0     H21569   9.355   2.961   2.376  0.9405 -0.8143 -3.5605
  921MOL0     H21570   9.763   2.879   2.317  1.9210  2.2354  2.4594
  921MOL0     H21571   8.784   3.097   2.204  0.8189  0.8507  0.8460
  921MOL0     H21572   8.591   3.262   2.139 -0.4209  1.1672  0.8116
  922MOL0     O21573   7.970   6.959   1.249 -0.8030 -0.7954  0.8051
  922MOL0     C21574   8.038   6.932   1.154 -0.2880  0.3288  1.1615
  922MOL0     O21575   8.002   6.848   1.052  0.1168 -0.0239 -1.0618
  922MOL0     C21576   7.863   6.821   1.036 -0.5929  0.4530 -0.2818
  922MOL0     C21577   7.781   6.933   1.008 -0.8161 -0.9317 -0.0626
  922MOL0     C21578   7.652   6.914   0.967  0.2805 -0.2259 -0.3024
  922MOL0     C21579   7.602   6.784   0.969  0.4596  0.3639  0.3571
  922MOL0     O21580   7.469   6.752   0.945 -0.2744  0.9546  0.2334
  922MOL0     C21581   7.370   6.841   0.890 -0.4371 -0.0928  1.2143
  922MOL0     C21582   7.232   6.781   0.870  0.6774 -0.4125 -0.2301
  922MOL0     C21583   7.193   6.681   0.978 -0.6865 -0.1087  0.0222
  922MOL0     C21584   7.195   6.737   1.123 -0.3086  0.2941  0.1881
  922MOL0     C21585   7.149   6.629   1.209  0.4800  0.0036 -0.2680
  922MOL0     C21586   7.122   6.677   1.352  0.0533  0.2291  0.2600
  922MOL0     C21587   7.136   6.557   1.455  0.8407 -0.2632  0.0979
  922MOL0     C21588   7.005   6.476   1.448 -0.1374 -0.3439  0.4833
  922MOL0     N21589   7.015   6.359   1.531 -0.1523  0.3929 -0.3878
  922MOL0     C21590   7.010   6.363   1.667  0.0997  0.3198  0.0338
  922MOL0     C21591   7.049   6.230   1.697 -0.2327 -1.2836 -0.1992
  922MOL0     C21592   7.092   6.175   1.828 -0.0204  0.3013  1.2989
  922MOL0     C21593   7.234   6.217   1.880  1.0044  1.0117  0.2350
  922MOL0     C21594   7.279   6.166   2.021  0.4389  0.1248  0.0938
  922MOL0     C21595   7.284   6.018   2.037 -0.8715 -0.2202 -0.0220
  922MOL0     O21596   7.368   5.957   1.935  0.4992  0.7539 -0.1163
  922MOL0     C21597   7.496   5.989   1.931 -1.2876 -0.0034  0.2031
  922MOL0     C21598   7.572   6.059   2.025 -0.0270  0.6062 -0.2771
  922MOL0     C21599   7.704   6.097   2.000 -0.6702  0.1433  0.8238
  922MOL0     C21600   7.774   6.050   1.886 -0.1728 -0.6677  0.4809
  922MOL0     C21601   7.906   6.111   1.851  0.2250  0.6286  0.1810
  922MOL0     O21602   7.916   6.133   1.722  1.4063 -0.5928 -0.1369
  922MOL0     C21603   8.031   6.106   1.658  0.0029 -0.3361 -0.5881
  922MOL0     C21604   8.028   6.027   1.546  0.2318 -1.0131  0.2828
  922MOL0     C21605   8.155   5.995   1.478 -0.5264 -0.7396  0.3153
  922MOL0     C21606   8.265   6.068   1.516 -0.1570 -0.9756  0.7952
  922MOL0     O21607   8.390   6.049   1.462 -0.7152  0.1481 -0.6578
  922MOL0     C21608   8.441   5.915   1.435  0.1183  0.1717  0.7409
  922MOL0     C21609   8.598   5.904   1.402 -0.0611 -0.2303 -0.3014
  922MOL0     C21610   8.615   5.959   1.257  0.4915 -0.3914  0.1347
  922MOL0     C21611   8.749   5.915   1.201  0.2349  0.5366 -0.2583
  922MOL0     C21612   8.785   5.975   1.069 -0.6471 -0.1797  0.8621
  922MOL0     C21613   8.924   5.921   1.002 -0.1774  0.0959 -0.4193
  922MOL0     C21614   9.042   5.951   1.095  0.4347 -0.0980  0.3002
  922MOL0     C21615   9.174   5.916   1.024 -0.3178 -0.6513  0.2258
  922MOL0    Cl21616   9.179   5.740   0.983  0.4137 -0.4377  0.1256
  922MOL0     C21617   8.268   6.151   1.632  0.3669  0.8000 -0.1703
  922MOL0     C21618   8.147   6.173   1.696  0.1367  0.6970  0.6430
  922MOL0     O21619   7.983   6.142   1.938 -0.3819 -1.5311  0.2211
  922MOL0     C21620   7.708   5.979   1.789  0.5408  0.4322  0.9523
  922MOL0     C21621   7.564   5.947   1.814 -0.6084 -0.5827  0.1269
  922MOL0     N21622   7.062   6.163   1.576 -0.2212 -1.1062  0.3503
  922MOL0     N21623   7.031   6.237   1.478  0.0991  0.2042 -0.0771
  922MOL0     C21624   7.674   6.674   1.008 -0.0303 -0.2726 -0.3764
  922MOL0     C21625   7.805   6.692   1.034 -0.8291  0.6022 -0.3635
  922MOL0     C21626   8.174   6.986   1.169 -0.0506  0.3769  0.2883
  922MOL0     C21627   8.195   7.089   1.263 -0.1594  1.2432  0.5389
  922MOL0     C21628   8.315   7.155   1.265 -0.4024 -0.3395  0.9030
  922MOL0     C21629   8.421   7.121   1.182 -0.0772 -0.1359  0.3409
  922MOL0     O21630   8.537   7.198   1.197 -0.5408  0.6568 -0.1075
  922MOL0     C21631   8.650   7.181   1.109 -0.2826 -0.4492  0.3592
  922MOL0     C21632   8.729   7.044   1.136 -0.4273 -0.7183  0.4060
  922MOL0     C21633   8.876   7.087   1.153 -0.3563 -0.0932  0.3410
  922MOL0     C21634   8.988   6.983   1.161 -0.3541  0.7980  1.1352
  922MOL0     C21635   8.999   6.934   1.020 -0.2406  0.3603  0.2417
  922MOL0     C21636   9.006   6.887   0.910 -0.6143 -0.3670 -0.1728
  922MOL0     C21637   8.409   7.014   1.090 -1.3563 -1.2684  0.3145
  922MOL0     C21638   8.274   6.946   1.079 -0.3343 -0.2843 -0.2412
  922MOL0     H21639   7.838   7.026   1.009  0.2583 -1.5736  0.8003
  922MOL0     H21640   7.595   7.005   0.948  0.5974 -0.3174 -1.7887
  922MOL0     H21641   7.412   6.877   0.796  0.2079  0.7115  1.7945
  922MOL0     H21642   7.356   6.926   0.957 -0.1734 -0.0797  1.2541
  922MOL0     H21643   7.212   6.742   0.770 -0.3905 -2.5461  0.7328
  922MOL0     H21644   7.167   6.869   0.872  1.5122  0.2394 -1.1791
  922MOL0     H21645   7.257   6.593   0.970 -1.9577 -1.0772  0.1965
  922MOL0     H21646   7.091   6.648   0.955 -1.7431  2.2258  1.0496
  922MOL0     H21647   7.294   6.773   1.153 -0.7327  2.1405 -0.4719
  922MOL0     H21648   7.117   6.814   1.134 -2.1310 -1.5600  0.7634
  922MOL0     H21649   7.227   6.553   1.207  0.9294  0.4036  1.0530
  922MOL0     H21650   7.054   6.586   1.176  0.1182 -0.1829  0.9627
  922MOL0     H21651   7.030   6.732   1.372  1.2269  2.0917  0.7790
  922MOL0     H21652   7.215   6.735   1.360  1.6313 -1.1515 -4.5968
  922MOL0     H21653   7.222   6.496   1.426  0.3471 -0.8053 -0.2306
  922MOL0     H21654   7.153   6.602   1.553  0.9514 -1.2809  0.5484
  922MOL0     H21655   6.995   6.426   1.351 -0.0965 -2.4366  1.5148
  922MOL0     H21656   6.916   6.538   1.467  0.4654  0.8276 -0.4014
  922MOL0     H21657   6.997   6.455   1.723  0.5037  0.7223 -0.5345
  922MOL0     H21658   7.106   6.071   1.799  1.2378  1.3570 -2.4803
  922MOL0     H21659   7.017   6.204   1.902  0.6933  1.9733  1.4061
  922MOL0     H21660   7.232   6.326   1.882 -0.0494  0.9992  0.4495
  922MOL0     H21661   7.309   6.189   1.805  1.2205 -1.8258  1.3773
  922MOL0     H21662   7.377   6.210   2.038  0.2028 -0.3523  3.2242
  922MOL0     H21663   7.209   6.216   2.088  1.3917  0.4948  0.8278
  922MOL0     H21664   7.177   5.997   2.042 -0.7535 -0.4321  2.9272
  922MOL0     H21665   7.315   5.984   2.136  1.5760  0.8597 -0.3400
  922MOL0     H21666   7.538   6.100   2.119  1.6261  3.8494 -0.9176
  922MOL0     H21667   7.766   6.165   2.056  1.0541 -0.7189  0.0399
  922MOL0     H21668   7.936   5.984   1.510  0.0116  1.0198 -1.8230
  922MOL0     H21669   8.153   5.926   1.394  0.9868 -1.2789  0.7070
  922MOL0     H21670   8.384   5.860   1.359 -0.2550 -1.1068  1.9022
  922MOL0     H21671   8.437   5.856   1.527  3.4040 -0.4017  0.6536
  922MOL0     H21672   8.636   5.802   1.412  0.2317 -0.2479 -1.5017
  922MOL0     H21673   8.658   5.970   1.465 -3.1736  2.1695  0.3732
  922MOL0     H21674   8.620   6.067   1.271 -1.1356 -0.1592 -0.8144
  922MOL0     H21675   8.540   5.930   1.183  0.2902 -0.8385  0.5108
  922MOL0     H21676   8.823   5.942   1.276  1.5424  0.9212 -1.6381
  922MOL0     H21677   8.763   5.810   1.172  2.6373  0.3424  1.3258
  922MOL0     H21678   8.795   6.084   1.076  1.3068 -0.1260 -1.4454
  922MOL0     H21679   8.704   5.964   0.996  0.0523  4.9825 -1.1112
  922MOL0     H21680   8.949   5.966   0.905 -0.7451 -0.4867 -0.8422
  922MOL0     H21681   8.923   5.811   1.001  0.0460 -0.0251  2.8161
  922MOL0     H21682   9.042   6.055   1.129  2.7254 -0.7469  2.6697
  922MOL0     H21683   9.023   5.900   1.191 -2.5929  0.0339 -0.1359
  922MOL0     H21684   9.252   5.949   1.093 -0.0593  0.5001 -0.6000
  922MOL0     H21685   9.184   5.959   0.924 -2.9242 -2.1813 -0.7737
  922MOL0     H21686   8.359   6.205   1.655 -0.0218  0.5768  2.0430
  922MOL0     H21687   8.148   6.249   1.774 -2.4309  2.0365 -0.5206
  922MOL0     H21688   7.749   5.927   1.703 -1.1645 -0.5121  0.6603
  922MOL0     H21689   7.504   5.897   1.738  0.4255  0.9512 -1.8053
  922MOL0     H21690   7.627   6.576   1.016 -1.4594  0.3750 -0.5512
  922MOL0     H21691   7.865   6.603   1.049 -3.6207 -1.4316 -0.7277
  922MOL0     H21692   8.116   7.116   1.333 -1.8227 -1.6347 -0.0716
  922MOL0     H21693   8.324   7.234   1.340  0.7588 -1.3248  1.8318
  922MOL0     H21694   8.718   7.265   1.091 -2.7722  0.8902 -4.6433
  922MOL0     H21695   8.606   7.172   1.009  2.0857 -4.2507 -0.5313
  922MOL0     H21696   8.700   6.992   1.228  1.8979  0.7990  2.1017
  922MOL0     H21697   8.718   6.974   1.052  1.5119 -0.1551 -0.3717
  922MOL0     H21698   8.878   7.153   1.240 -1.5915 -0.7357  0.8807
  922MOL0     H21699   8.895   7.147   1.064 -3.3309 -0.0557 -0.3802
  922MOL0     H21700   9.080   7.040   1.176  0.3271  0.8210 -2.4424
  922MOL0     H21701   8.957   6.902   1.228 -0.7891 -0.8788 -1.0144
  922MOL0     H21702   9.022   6.835   0.817 -1.5380 -1.5499  0.3018
  922MOL0     H21703   8.495   6.990   1.028  0.6473 -2.6660  3.3960
  922MOL0     H21704   8.254   6.860   1.015  1.4999 -0.1398 -1.0548
  923MOL0     O21705   6.177   8.072   0.142 -0.0715 -0.5544  0.1270
  923MOL0     C21706   6.110   8.100   0.244 -0.6931 -0.0693 -0.1871
  923MOL0     O21707   5.995   8.175   0.249  0.5504  0.2656 -0.2046
  923MOL0     C21708   5.940   8.212   0.125 -0.6993  0.1042  0.3507
  923MOL0     C21709   6.011   8.308   0.047  0.5911  0.0188 -0.0636
  923MOL0     C21710   5.947   8.359  -0.070  0.4308 -0.8530  0.2294
  923MOL0     C21711   5.828   8.308  -0.121 -0.8247  0.2178  0.4505
  923MOL0     O21712   5.772   8.378  -0.228 -0.7174  0.1771 -0.1260
  923MOL0     C21713   5.747   8.289  -0.341 -0.6317 -0.6460 -0.0625
  923MOL0     C21714   5.678   8.365  -0.449 -0.3894 -0.3546  0.4759
  923MOL0     C21715   5.631   8.266  -0.565 -0.1837 -0.0755 -0.8012
  923MOL0     C21716   5.554   8.339  -0.681 -0.0292  0.3293 -0.0918
  923MOL0     C21717   5.427   8.410  -0.646  0.0034 -0.5721 -1.3113
  923MOL0     C21718   5.326   8.307  -0.581  1.0015 -1.1891  0.2349
  923MOL0     C21719   5.195   8.387  -0.552  0.3453 -0.2268 -0.1391
  923MOL0     C21720   5.071   8.285  -0.546 -0.5652  0.7129 -0.0172
  923MOL0     N21721   5.090   8.156  -0.475 -0.4924  0.1115  0.0306
  923MOL0     C21722   5.145   8.129  -0.348 -0.3638  0.8292  0.5095
  923MOL0     C21723   5.160   7.997  -0.323  0.6339  0.5770  0.2739
  923MOL0     C21724   5.159   7.936  -0.188  0.2596 -0.3528 -0.7016
  923MOL0     C21725   5.008   7.920  -0.144 -0.0696  0.0607 -0.6604
  923MOL0     C21726   4.986   7.862   0.004  0.3433  0.5363 -1.0685
  923MOL0     C21727   4.844   7.897   0.043 -0.1201 -0.1560 -0.2858
  923MOL0     O21728   4.834   8.032   0.099 -1.0076  0.0701 -0.6640
  923MOL0     C21729   4.707   8.073   0.113 -0.1927 -0.1505  0.0973
  923MOL0     C21730   4.660   8.163   0.020  0.0657 -0.9249  0.5198
  923MOL0     C21731   4.536   8.220   0.044  0.6585  0.4795  0.4370
  923MOL0     C21732   4.452   8.184   0.148  0.5892  0.0453 -0.3168
  923MOL0     C21733   4.316   8.242   0.156  0.1309 -0.4164 -0.0251
  923MOL0     O21734   4.261   8.221   0.279 -0.1328  0.2271 -0.3317
  923MOL0     C21735   4.136   8.272   0.300  0.3839  0.0010 -0.1066
  923MOL0     C21736   4.042   8.189   0.353  0.6947  1.0271  0.1405
  923MOL0     C21737   3.919   8.242   0.399  0.7495  1.1218 -1.6709
  923MOL0     C21738   3.881   8.374   0.376 -0.5343  0.8886 -0.8961
  923MOL0     O21739   3.761   8.410   0.421 -0.2757 -0.1549 -0.3989
  923MOL0     C21740   3.737   8.548   0.432 -0.2577 -0.3376 -0.1403
  923MOL0     C21741   3.587   8.589   0.465  0.4566  0.2040  0.8873
  923MOL0     C21742   3.492   8.535   0.363 -0.5203 -0.5639 -0.0914
  923MOL0     C21743   3.358   8.619   0.353 -1.1475 -0.0031 -0.3265
  923MOL0     C21744   3.279   8.571   0.240  0.8476  0.5952 -0.2384
  923MOL0     C21745   3.135   8.628   0.257  0.0326 -0.1032  0.0156
  923MOL0     C21746   3.046   8.575   0.147 -0.1751 -0.3953  0.4313
  923MOL0     C21747   2.917   8.651   0.142  0.4431  0.1068  0.1771
  923MOL0    Cl21748   2.914   8.811   0.074 -0.3313  0.0720 -0.4018
  923MOL0     C21749   3.979   8.459   0.323 -0.5826  0.2671 -0.4857
  923MOL0     C21750   4.104   8.409   0.287 -0.2854  0.7316  0.2741
  923MOL0     O21751   4.267   8.307   0.066 -0.5153 -0.2653  0.2502
  923MOL0     C21752   4.514   8.111   0.250  0.4596 -0.0372  0.8648
  923MOL0     C21753   4.636   8.052   0.229 -0.8539  0.9825 -0.0591
  923MOL0     N21754   5.110   7.937  -0.432 -0.4075  0.8076  0.4422
  923MOL0     N21755   5.065   8.032  -0.520 -0.4965 -0.4478 -0.4258
  923MOL0     C21756   5.775   8.200  -0.057 -0.0253  0.1968  0.0820
  923MOL0     C21757   5.823   8.151   0.065  0.2173 -0.1511 -0.0356
  923MOL0     C21758   6.173   8.050   0.372 -0.3296  0.2568  0.9312
  923MOL0     C21759   6.137   8.109   0.488  0.3878 -0.0077  0.8079
  923MOL0     C21760   6.179   8.055   0.605  0.4414 -0.0203 -0.0775
  923MOL0     C21761   6.272   7.955   0.615  0.9539  0.9960  0.1530
  923MOL0     O21762   6.313   7.894   0.731  0.4463 -0.1188 -0.2415
  923MOL0     C21763   6.284   7.951   0.859 -0.1523  0.3073  0.0583
  923MOL0     C21764   6.361   7.887   0.973 -0.0562  0.1941  0.1769
  923MOL0     C21765   6.509   7.951   0.979  0.4577  0.3907  0.1724
  923MOL0     C21766   6.588   7.894   1.097 -0.2186 -0.1163 -0.3585
  923MOL0     C21767   6.582   7.981   1.218 -0.3968 -0.0694 -0.6130
  923MOL0     C21768   6.594   8.045   1.320  0.6952 -1.0733  0.2638
  923MOL0     C21769   6.327   7.901   0.497  0.6398 -0.1012 -0.1153
  923MOL0     C21770   6.274   7.947   0.376  0.0274  0.3236  0.6060
  923MOL0     H21771   6.101   8.357   0.084 -0.0033  1.2636 -0.2235
  923MOL0     H21772   5.986   8.444  -0.126  0.6264 -1.5276 -0.6857
  923MOL0     H21773   5.681   8.206  -0.311 -0.3646 -0.4736  1.0352
  923MOL0     H21774   5.842   8.250  -0.379  0.3108  1.0819  0.4164
  923MOL0     H21775   5.746   8.443  -0.486 -2.3459  1.5539  0.7502
  923MOL0     H21776   5.589   8.413  -0.407 -1.0870 -1.7201  0.6128
  923MOL0     H21777   5.572   8.182  -0.528  0.2914  0.7729  2.1767
  923MOL0     H21778   5.725   8.223  -0.602  0.4258  0.9784 -0.5271
  923MOL0     H21779   5.614   8.417  -0.729 -1.9563  2.2392  0.4247
  923MOL0     H21780   5.519   8.262  -0.750  0.2283  0.4571 -0.3694
  923MOL0     H21781   5.387   8.455  -0.737  2.4426 -1.0936 -2.7402
  923MOL0     H21782   5.464   8.487  -0.578  1.7886 -2.6043  0.1686
  923MOL0     H21783   5.361   8.264  -0.487  1.5140  0.9630  1.0964
  923MOL0     H21784   5.300   8.229  -0.653  0.8671 -0.5066 -0.4699
  923MOL0     H21785   5.200   8.436  -0.455 -1.7493 -1.1526  0.5069
  923MOL0     H21786   5.168   8.466  -0.623 -0.3097  0.2064  0.5746
  923MOL0     H21787   5.046   8.262  -0.650 -0.7052  2.0299 -0.2878
  923MOL0     H21788   4.981   8.334  -0.507 -1.0483 -0.1904  0.0356
  923MOL0     H21789   5.170   8.216  -0.289  4.5167  0.3941 -0.4867
  923MOL0     H21790   5.213   8.002  -0.119 -1.7376  3.2952 -2.2905
  923MOL0     H21791   5.209   7.841  -0.203  0.4125 -0.5138  0.7245
  923MOL0     H21792   4.952   7.864  -0.221  0.2708 -2.6684  0.9387
  923MOL0     H21793   4.968   8.022  -0.146  2.3018  1.0551 -0.0717
  923MOL0     H21794   5.011   7.755   0.010 -0.8229  0.2252 -1.4042
  923MOL0     H21795   5.057   7.909   0.072 -0.1685  2.2356 -1.6561
  923MOL0     H21796   4.805   7.827   0.118  0.2466  1.3432  1.3867
  923MOL0     H21797   4.781   7.890  -0.046 -0.0924 -0.5940 -0.2704
  923MOL0     H21798   4.720   8.199  -0.063  0.2908 -1.1974  0.5655
  923MOL0     H21799   4.504   8.303  -0.018  0.5176  0.7035  0.8025
  923MOL0     H21800   4.073   8.086   0.360  1.5719  1.2203 -0.6487
  923MOL0     H21801   3.841   8.176   0.436  0.4922  2.5682  0.4982
  923MOL0     H21802   3.752   8.597   0.335 -1.1743 -1.7258 -1.0199
  923MOL0     H21803   3.805   8.593   0.505  0.3086  0.8148 -1.3451
  923MOL0     H21804   3.586   8.698   0.468  0.4484  0.2063  0.7979
  923MOL0     H21805   3.557   8.575   0.569  0.8680  0.5991  1.0631
  923MOL0     H21806   3.464   8.435   0.398  1.7796 -0.9499  0.8386
  923MOL0     H21807   3.538   8.545   0.264  0.3196  2.6063  0.5228
  923MOL0     H21808   3.300   8.607   0.445  0.2515 -1.7339  0.3954
  923MOL0     H21809   3.376   8.727   0.352 -0.4202 -0.0069  2.8820
  923MOL0     H21810   3.293   8.463   0.231 -1.6926 -0.1156  2.6157
  923MOL0     H21811   3.334   8.606   0.152  1.3431  2.2441  0.6922
  923MOL0     H21812   3.158   8.734   0.247  4.7282 -0.9787 -0.6830
  923MOL0     H21813   3.089   8.613   0.355 -1.2565  1.6287 -0.2772
  923MOL0     H21814   3.093   8.574   0.048 -0.8565 -1.2017  0.1061
  923MOL0     H21815   3.012   8.474   0.169  0.5985 -1.0135 -1.0587
  923MOL0     H21816   2.871   8.662   0.241 -0.6087 -1.3036 -0.1190
  923MOL0     H21817   2.843   8.587   0.093  1.3728 -0.9295  0.0997
  923MOL0     H21818   3.964   8.566   0.312 -1.7873  0.0430 -1.2841
  923MOL0     H21819   4.179   8.482   0.259  1.9684 -2.2141 -1.9571
  923MOL0     H21820   4.462   8.090   0.343  1.3961  1.4347  1.7574
  923MOL0     H21821   4.677   7.985   0.304 -2.1270 -0.6565 -0.7599
  923MOL0     H21822   5.687   8.153  -0.099 -2.1809  4.1629 -0.2960
  923MOL0     H21823   5.778   8.062   0.108 -0.1202  1.4907  3.2813
  923MOL0     H21824   6.053   8.177   0.501 -0.6949 -1.2594  0.5577
  923MOL0     H21825   6.138   8.089   0.700 -2.5910 -1.7716 -0.6312
  923MOL0     H21826   6.180   7.942   0.893  0.8969 -1.5505  3.0690
  923MOL0     H21827   6.304   8.059   0.866  0.0967  0.2683 -0.0237
  923MOL0     H21828   6.298   7.900   1.061 -1.2104  0.1714 -0.6230
  923MOL0     H21829   6.374   7.779   0.964 -1.2757  0.2029 -2.4729
  923MOL0     H21830   6.503   8.060   0.973 -0.1927  0.4986  2.1043
  923MOL0     H21831   6.555   7.904   0.891  0.0324  1.9501 -0.9142
  923MOL0     H21832   6.546   7.797   1.129 -0.7012  0.0405 -0.5040
  923MOL0     H21833   6.692   7.900   1.065 -0.7666  2.5197 -1.9150
  923MOL0     H21834   6.597   8.113   1.403  2.2497  0.2973 -0.8467
  923MOL0     H21835   6.399   7.822   0.513  2.5274  1.5266 -0.2265
  923MOL0     H21836   6.309   7.910   0.280 -2.3566  4.1737 -2.0242
  924MOL0     O21837   8.895  10.530   8.716 -0.2277  0.8292 -0.1675
  924MOL0     C21838   8.955  10.425   8.732  0.4785 -0.4993 -0.7329
  924MOL0     O21839   8.899  10.303   8.749  0.6291 -0.1622 -0.4932
  924MOL0     C21840   8.767  10.293   8.712 -0.2402 -0.4089  0.1319
  924MOL0     C21841   8.655  10.349   8.776 -0.5390 -0.7013 -0.0075
  924MOL0     C21842   8.528  10.341   8.724  0.7228 -0.0897  0.0651
  924MOL0     C21843   8.500  10.255   8.613  0.5865 -0.2662 -0.4719
  924MOL0     O21844   8.375  10.269   8.562 -0.1239 -0.4963  0.8605
  924MOL0     C21845   8.354  10.212   8.431  0.2746  0.2070 -0.7415
  924MOL0     C21846   8.206  10.257   8.395 -0.3006  0.2555 -0.0334
  924MOL0     C21847   8.096  10.197   8.483 -0.1307  0.4273 -1.0182
  924MOL0     C21848   7.954  10.217   8.437 -0.1931 -0.7064 -1.0400
  924MOL0     C21849   7.849  10.158   8.540  0.1470  0.2836 -0.3701
  924MOL0     C21850   7.712  10.190   8.474 -0.1156 -0.4782 -0.3045
  924MOL0     C21851   7.600  10.120   8.553  0.4559 -1.1585 -1.0888
  924MOL0     C21852   7.457  10.141   8.503 -0.7611 -0.1924  0.2809
  924MOL0     N21853   7.371  10.045   8.558 -0.6240  0.8176 -0.3523
  924MOL0     C21854   7.312   9.945   8.491  0.6603 -0.1652 -0.2048
  924MOL0     C21855   7.261   9.862   8.581 -0.3480 -0.3675 -0.0726
  924MOL0     C21856   7.182   9.741   8.540  0.1183  0.2204 -0.0962
  924MOL0     C21857   7.045   9.761   8.479  0.0037 -0.0933  0.1262
  924MOL0     C21858   6.952   9.844   8.565 -0.1452 -0.0293 -0.4970
  924MOL0     C21859   6.800   9.822   8.537  0.1126  0.0929  0.6890
  924MOL0     O21860   6.736   9.888   8.640  0.3754 -0.4086 -0.4256
  924MOL0     C21861   6.605   9.885   8.644  0.9417  0.2347 -0.6280
  924MOL0     C21862   6.513   9.872   8.542  0.0738 -0.6909 -0.2084
  924MOL0     C21863   6.376   9.879   8.569  0.7102  0.0865 -0.6963
  924MOL0     C21864   6.329   9.909   8.699  0.2378 -0.9723 -0.8117
  924MOL0     C21865   6.187   9.943   8.721  0.0122 -0.9455  0.3562
  924MOL0     O21866   6.116   9.983   8.607 -0.4602  0.1345 -0.0819
  924MOL0     C21867   5.986  10.028   8.614  0.0994  0.2632 -0.1336
  924MOL0     C21868   5.958  10.136   8.531 -0.2044 -0.3056  0.3701
  924MOL0     C21869   5.826  10.176   8.524 -0.4914 -0.7034 -0.2519
  924MOL0     C21870   5.726  10.115   8.593 -0.8361 -0.6176  0.3842
  924MOL0     O21871   5.592  10.154   8.585  0.1285  0.4039  1.0950
  924MOL0     C21872   5.540  10.211   8.467  0.4848 -0.0997 -0.2458
  924MOL0     C21873   5.404  10.141   8.446  0.3855 -0.9175 -0.4213
  924MOL0     C21874   5.301  10.191   8.551  1.0471 -0.2185 -0.7038
  924MOL0     C21875   5.161  10.135   8.526  0.9193 -0.3712 -0.1686
  924MOL0     C21876   5.104  10.072   8.658  0.1051 -0.3126 -0.5995
  924MOL0     C21877   4.969   9.994   8.643 -0.1515 -0.0961 -0.6485
  924MOL0     C21878   4.991   9.876   8.550 -1.2013 -0.1270  0.1296
  924MOL0     C21879   4.890   9.765   8.572  0.8959 -0.5114  0.2372
  924MOL0    Cl21880   4.733   9.815   8.513 -0.4720  0.1863  0.0150
  924MOL0     C21881   5.764  10.023   8.687 -0.1783 -0.3589 -0.2509
  924MOL0     C21882   5.890   9.968   8.694  0.7377 -0.2304 -0.2123
  924MOL0     O21883   6.150   9.936   8.837  0.4767 -0.7529  0.2677
  924MOL0     C21884   6.425   9.914   8.803 -0.1146  0.0461 -0.1655
  924MOL0     C21885   6.563   9.900   8.772  0.5528 -1.1545 -0.9073
  924MOL0     N21886   7.287   9.908   8.713 -0.0555 -0.5197 -0.0923
  924MOL0     N21887   7.362  10.008   8.695  0.4707 -0.4171 -0.3585
  924MOL0     C21888   8.609  10.188   8.557 -0.3775  0.0073 -0.7896
  924MOL0     C21889   8.742  10.202   8.609  0.2727  0.2809 -0.1477
  924MOL0     C21890   9.106  10.426   8.731  0.6164 -1.0696  0.0548
  924MOL0     C21891   9.171  10.550   8.714  0.8027 -0.0519 -1.0678
  924MOL0     C21892   9.310  10.565   8.715 -0.9337  0.7108  0.8508
  924MOL0     C21893   9.388  10.443   8.725 -0.4807 -0.1838  0.5705
  924MOL0     O21894   9.529  10.439   8.715  0.3502 -0.5960 -0.4352
  924MOL0     C21895   9.586  10.537   8.630  0.3005  0.0219  0.1705
  924MOL0     C21896   9.728  10.518   8.606  0.1222  0.1995  0.5368
  924MOL0     C21897   9.805  10.618   8.516 -0.4145  0.1459  0.3484
  924MOL0     C21898   9.918  10.549   8.439 -0.1106 -0.1739  0.3281
  924MOL0     C21899  10.003  10.482   8.527 -0.7452 -0.2074  0.5802
  924MOL0     C21900  10.075  10.435   8.603 -0.0240 -0.2287 -0.4448
  924MOL0     C21901   9.330  10.318   8.743 -0.1098  0.8565 -0.0375
  924MOL0     C21902   9.186  10.318   8.752 -0.5383  0.0249  0.4147
  924MOL0     H21903   8.678  10.413   8.861 -1.1193  1.7674 -1.5907
  924MOL0     H21904   8.444  10.385   8.777 -0.1365 -3.2100  1.5870
  924MOL0     H21905   8.367  10.104   8.437  1.1454  0.3830  1.4917
  924MOL0     H21906   8.429  10.249   8.360  1.6909  2.3386  1.6902
  924MOL0     H21907   8.194  10.236   8.289  3.5931 -1.4335 -0.2955
  924MOL0     H21908   8.206  10.366   8.410 -0.9561  0.8297 -3.4251
  924MOL0     H21909   8.105  10.235   8.585 -1.7266  4.2373 -2.1248
  924MOL0     H21910   8.111  10.089   8.494 -1.3953  0.4220  1.0304
  924MOL0     H21911   7.936  10.324   8.426  0.8027 -0.6764 -2.9696
  924MOL0     H21912   7.946  10.170   8.338 -0.6793  0.1827 -1.4362
  924MOL0     H21913   7.871  10.206   8.636 -2.0390 -2.8324  1.8744
  924MOL0     H21914   7.861  10.050   8.548 -1.7051 -0.0542 -1.4348
  924MOL0     H21915   7.711  10.161   8.369 -1.3207  0.0622 -0.4646
  924MOL0     H21916   7.685  10.296   8.476 -2.1799 -0.9327  1.9131
  924MOL0     H21917   7.623  10.015   8.534 -0.8025 -0.8980 -4.7350
  924MOL0     H21918   7.602  10.146   8.659 -1.8104 -0.0007 -1.2686
  924MOL0     H21919   7.463  10.143   8.394  0.3733  1.2978  0.3445
  924MOL0     H21920   7.403  10.226   8.545 -4.6196 -3.2198  2.1883
  924MOL0     H21921   7.284   9.931   8.387 -0.6337  1.8921 -0.1865
  924MOL0     H21922   7.174   9.689   8.636  0.9823  1.4211  0.6463
  924MOL0     H21923   7.247   9.687   8.471  0.9056  2.3627 -1.1150
  924MOL0     H21924   6.999   9.665   8.458  1.3680 -0.2095 -2.8579
  924MOL0     H21925   7.061   9.810   8.382 -0.3634 -2.8861 -1.4308
  924MOL0     H21926   6.974   9.824   8.670 -1.1767 -0.4235 -0.3464
  924MOL0     H21927   6.975   9.948   8.539  2.0519 -0.0062  1.2443
  924MOL0     H21928   6.774   9.717   8.556 -3.8332  0.8398  0.2968
  924MOL0     H21929   6.777   9.852   8.434  2.8629 -0.7004 -0.2450
  924MOL0     H21930   6.536   9.860   8.437 -0.3032 -0.8375 -0.2748
  924MOL0     H21931   6.313   9.880   8.481 -0.3913  0.5311  0.0685
  924MOL0     H21932   6.037  10.187   8.477 -1.1797  2.6447  1.5164
  924MOL0     H21933   5.803  10.252   8.450  1.0626  1.1646  1.0950
  924MOL0     H21934   5.600  10.206   8.376  1.5320  1.4732  0.3155
  924MOL0     H21935   5.524  10.317   8.490 -1.8332 -0.6462  0.9868
  924MOL0     H21936   5.416  10.032   8.455  1.6032 -0.6336  3.3842
  924MOL0     H21937   5.374  10.162   8.343  3.4573 -2.3416 -1.7386
  924MOL0     H21938   5.283  10.299   8.543 -1.2230 -0.6816 -3.3570
  924MOL0     H21939   5.323  10.164   8.655  2.0204  3.7858  0.3069
  924MOL0     H21940   5.094  10.216   8.497  0.2606 -1.4198 -1.6635
  924MOL0     H21941   5.160  10.064   8.443  1.0563 -0.2226 -0.2978
  924MOL0     H21942   5.101  10.154   8.730  0.2601  0.5819 -1.5991
  924MOL0     H21943   5.173   9.999   8.701 -0.5189  1.5068  4.1843
  924MOL0     H21944   4.889  10.061   8.611 -1.1369 -2.6090 -3.9814
  924MOL0     H21945   4.935   9.964   8.742  2.7063 -2.3350 -0.1686
  924MOL0     H21946   4.972   9.908   8.447 -2.4756 -1.6311 -0.1272
  924MOL0     H21947   5.094   9.838   8.558 -0.8617 -0.0578 -2.8308
  924MOL0     H21948   4.874   9.760   8.681  1.7752  1.1041  0.4650
  924MOL0     H21949   4.921   9.672   8.523  3.7593  0.9760 -0.9418
  924MOL0     H21950   5.690   9.979   8.754 -0.6921  1.2928  0.3018
  924MOL0     H21951   5.914   9.886   8.761  1.7779  0.5620  0.4245
  924MOL0     H21952   6.399   9.939   8.905 -0.8387 -1.6158  0.0962
  924MOL0     H21953   6.641   9.918   8.845  0.2129 -3.2909  0.0359
  924MOL0     H21954   8.582  10.117   8.479 -2.3626  0.0090 -0.1582
  924MOL0     H21955   8.824  10.146   8.565  0.1058 -0.0810 -0.0082
  924MOL0     H21956   9.113  10.636   8.680  2.0385  0.6699 -1.3948
  924MOL0     H21957   9.359  10.661   8.704 -1.2683  0.8015  0.0965
  924MOL0     H21958   9.574  10.640   8.663  0.1563  0.3771 -0.9471
  924MOL0     H21959   9.527  10.526   8.538 -0.1660 -1.3730  0.6068
  924MOL0     H21960   9.782  10.522   8.702  1.6581 -2.8939 -0.0575
  924MOL0     H21961   9.742  10.421   8.558  0.2470 -0.1073  1.1710
  924MOL0     H21962   9.853  10.700   8.571  0.9546 -0.1607 -0.3425
  924MOL0     H21963   9.736  10.685   8.464  0.0444  1.5834  1.4949
  924MOL0     H21964   9.874  10.472   8.375 -0.0565  0.7295 -0.8380
  924MOL0     H21965   9.972  10.624   8.380 -0.9606  0.1896 -0.0009
  924MOL0     H21966  10.145  10.399   8.676  0.2528  2.4888  0.7646
  924MOL0     H21967   9.394  10.230   8.752  1.2559  1.5848 -1.9988
  924MOL0     H21968   9.145  10.217   8.754 -0.4234 -0.1481 -2.3536
  925MOL0     O21969   7.595   4.576   0.236  0.2810  0.1032 -0.2847
  925MOL0     C21970   7.674   4.538   0.324 -0.4114 -0.5483 -0.1077
  925MOL0     O21971   7.639   4.542   0.453  0.2938  0.6540  0.0969
  925MOL0     C21972   7.507   4.522   0.486 -0.2780 -0.0747 -0.5171
  925MOL0     C21973   7.455   4.577   0.608  0.7408  0.8008 -0.3197
  925MOL0     C21974   7.331   4.547   0.647  0.1916  0.0440 -1.3985
  925MOL0     C21975   7.252   4.452   0.576  0.9420  0.4229  0.0317
  925MOL0     O21976   7.139   4.405   0.631  0.5096  0.5803 -0.1362
  925MOL0     C21977   7.024   4.396   0.540  0.4074 -0.2565 -0.3434
  925MOL0     C21978   6.890   4.357   0.621 -0.1688  0.5595 -0.4010
  925MOL0     C21979   6.783   4.322   0.529  0.1506  0.1264  0.1179
  925MOL0     C21980   6.659   4.267   0.595  0.0009  1.0149 -0.3394
  925MOL0     C21981   6.540   4.291   0.500  0.6244 -0.2105  0.0231
  925MOL0     C21982   6.408   4.265   0.581 -0.0802 -0.4218 -0.0457
  925MOL0     C21983   6.285   4.304   0.493  0.3183  0.4580 -0.0864
  925MOL0     C21984   6.167   4.347   0.580 -0.1586 -0.1043  0.0846
  925MOL0     N21985   6.049   4.349   0.501  0.3560 -0.5270 -0.0986
  925MOL0     C21986   6.011   4.463   0.432  0.5441 -0.5415  0.2075
  925MOL0     C21987   5.933   4.415   0.334 -0.3047 -0.1945  0.5129
  925MOL0     C21988   5.855   4.499   0.226  0.1891  0.4218 -0.2295
  925MOL0     C21989   5.720   4.542   0.297 -0.7928 -0.3211  0.0038
  925MOL0     C21990   5.662   4.658   0.218  0.7050 -0.5573 -0.5828
  925MOL0     C21991   5.537   4.717   0.301  0.3537  0.0192  0.6090
  925MOL0     O21992   5.429   4.620   0.285  0.0888  0.0581  0.4323
  925MOL0     C21993   5.297   4.658   0.272 -0.1172  0.6089 -0.8365
  925MOL0     C21994   5.203   4.578   0.216  0.5008  0.0966  0.8306
  925MOL0     C21995   5.069   4.614   0.220 -0.0401 -0.3054  0.7410
  925MOL0     C21996   5.017   4.727   0.292  0.8220  0.6482  0.2828
  925MOL0     C21997   4.875   4.759   0.296  0.7297 -0.3703 -0.4196
  925MOL0     O21998   4.835   4.863   0.370 -0.0197 -0.2823 -0.2354
  925MOL0     C21999   4.707   4.922   0.376  1.0445  0.0537 -0.3952
  925MOL0     C22000   4.689   5.039   0.452 -0.3349  0.8242  0.1471
  925MOL0     C22001   4.561   5.092   0.471  0.3044  0.7752 -0.1382
  925MOL0     C22002   4.446   5.040   0.401  1.0215 -0.5915 -0.2269
  925MOL0     O22003   4.322   5.097   0.407  0.0612  0.0781 -0.1969
  925MOL0     C22004   4.302   5.199   0.507  0.9416 -0.2963  0.6399
  925MOL0     C22005   4.313   5.342   0.447  0.2387 -0.0055 -0.6422
  925MOL0     C22006   4.295   5.452   0.547  0.5083 -0.0425  0.4813
  925MOL0     C22007   4.318   5.587   0.471 -0.6160  0.9631  0.5389
  925MOL0     C22008   4.392   5.675   0.563  0.2438 -0.8400  0.5991
  925MOL0     C22009   4.312   5.738   0.678  0.3535 -0.0387  0.7474
  925MOL0     C22010   4.189   5.826   0.629  0.1830 -0.6295 -0.0158
  925MOL0     C22011   4.124   5.905   0.736 -0.2194  0.0217  0.4726
  925MOL0    Cl22012   4.234   6.029   0.811 -0.4039  0.1752  0.1890
  925MOL0     C22013   4.462   4.926   0.324  0.6960 -0.0166 -0.0852
  925MOL0     C22014   4.590   4.869   0.314 -0.3070  0.4906 -0.1419
  925MOL0     O22015   4.808   4.711   0.207 -0.9494  0.0979  0.6128
  925MOL0     C22016   5.117   4.804   0.362  0.2833  0.1168  0.9634
  925MOL0     C22017   5.249   4.764   0.352  0.2357  0.8544 -0.9338
  925MOL0     N22018   5.918   4.278   0.357  0.2866 -0.2514 -0.2762
  925MOL0     N22019   5.981   4.240   0.456 -0.1892 -0.3098 -0.1249
  925MOL0     C22020   7.308   4.386   0.465 -0.7646 -0.3554 -0.5957
  925MOL0     C22021   7.434   4.420   0.423 -0.4859 -0.0187  0.4347
  925MOL0     C22022   7.810   4.562   0.281 -0.8756  0.1444  0.0971
  925MOL0     C22023   7.836   4.554   0.141 -0.5575  0.7115  0.8390
  925MOL0     C22024   7.962   4.582   0.096  0.3195 -0.0278  0.6080
  925MOL0     C22025   8.067   4.620   0.186 -0.0018  0.3474  0.5690
  925MOL0     O22026   8.198   4.640   0.148 -0.5635  0.6177  0.3971
  925MOL0     C22027   8.257   4.549   0.050  1.2828  0.1390  0.4511
  925MOL0     C22028   8.385   4.474   0.092  0.5544  0.5452 -0.4781
  925MOL0     C22029   8.494   4.580   0.130  0.3287 -0.4723 -0.1272
  925MOL0     C22030   8.626   4.519   0.176  0.1354 -0.5332  0.5574
  925MOL0     C22031   8.692   4.621   0.253  0.5434 -0.4058  0.2479
  925MOL0     C22032   8.745   4.714   0.312  0.5192 -0.5210 -0.0909
  925MOL0     C22033   8.041   4.626   0.328 -0.1781  0.1373 -0.0800
  925MOL0     C22034   7.919   4.591   0.375  0.5585  0.6609  1.3485
  925MOL0     H22035   7.525   4.631   0.670  0.6341 -1.2775  1.7469
  925MOL0     H22036   7.286   4.592   0.735 -2.3085 -0.2109 -2.4602
  925MOL0     H22037   7.040   4.326   0.457  2.0544 -2.3358  1.6107
  925MOL0     H22038   7.018   4.496   0.494 -0.8694 -0.1916 -0.0795
  925MOL0     H22039   6.863   4.440   0.686  0.9316 -0.7492  1.8564
  925MOL0     H22040   6.922   4.277   0.688  1.7739 -0.1527 -2.0796
  925MOL0     H22041   6.825   4.245   0.463  1.5718  2.2313 -1.5503
  925MOL0     H22042   6.762   4.409   0.467 -1.4621 -0.2380  0.1028
  925MOL0     H22043   6.675   4.161   0.616 -2.8008  0.4733 -0.5086
  925MOL0     H22044   6.638   4.323   0.687  1.1005  2.9664 -1.2091
  925MOL0     H22045   6.537   4.221   0.416 -3.0355 -0.5288  0.2786
  925MOL0     H22046   6.537   4.390   0.454 -3.4961 -0.2397 -0.1394
  925MOL0     H22047   6.407   4.331   0.668  2.0055 -1.8927  1.1758
  925MOL0     H22048   6.393   4.164   0.621 -1.6036  0.7792  2.6670
  925MOL0     H22049   6.309   4.386   0.425 -1.8702  0.6483 -0.7102
  925MOL0     H22050   6.245   4.223   0.432  1.7170 -0.7272  0.5208
  925MOL0     H22051   6.174   4.447   0.623 -1.1157  0.1752 -0.3922
  925MOL0     H22052   6.153   4.272   0.658 -1.2101 -1.6786 -1.5438
  925MOL0     H22053   6.051   4.563   0.442  3.7414 -1.2252 -3.6423
  925MOL0     H22054   5.830   4.447   0.133 -1.6021 -0.1911  0.5622
  925MOL0     H22055   5.925   4.581   0.205  0.2582  1.0574  2.1882
  925MOL0     H22056   5.733   4.568   0.402  2.1636  1.5157 -0.7037
  925MOL0     H22057   5.657   4.452   0.288 -0.2944 -0.6437 -0.2895
  925MOL0     H22058   5.737   4.732   0.186 -1.8802  1.0853 -3.3895
  925MOL0     H22059   5.613   4.625   0.126  0.1271  1.9745 -1.2499
  925MOL0     H22060   5.514   4.804   0.237 -0.0842 -1.8606 -1.9610
  925MOL0     H22061   5.568   4.747   0.401  2.4906 -1.8538  0.5727
  925MOL0     H22062   5.244   4.485   0.179 -1.2345 -0.1704 -0.5475
  925MOL0     H22063   4.990   4.548   0.185  0.0353 -1.0285  1.8470
  925MOL0     H22064   4.764   5.087   0.514 -0.6319 -0.8949  1.9304
  925MOL0     H22065   4.559   5.182   0.531 -0.7834  1.5154 -1.2161
  925MOL0     H22066   4.365   5.159   0.587  1.8314 -3.9826 -1.6695
  925MOL0     H22067   4.204   5.189   0.554  1.3729 -1.1013  1.3912
  925MOL0     H22068   4.246   5.359   0.363 -0.2178 -0.0457 -0.2917
  925MOL0     H22069   4.416   5.354   0.413 -0.2124  0.5887 -1.8500
  925MOL0     H22070   4.368   5.446   0.628  1.1622  0.9851 -0.0028
  925MOL0     H22071   4.201   5.457   0.603  0.7199  0.3189  0.8158
  925MOL0     H22072   4.383   5.585   0.383  0.8882  3.4176  1.4963
  925MOL0     H22073   4.221   5.627   0.439 -1.1824 -0.8754 -0.2019
  925MOL0     H22074   4.433   5.749   0.494 -1.5716 -1.3546 -1.1030
  925MOL0     H22075   4.478   5.626   0.610  1.8523 -1.6658 -2.9031
  925MOL0     H22076   4.384   5.790   0.743 -0.0956 -0.9000  1.9518
  925MOL0     H22077   4.267   5.660   0.740 -0.0366 -0.3781  0.0427
  925MOL0     H22078   4.233   5.895   0.556  0.5550 -1.9940 -1.1186
  925MOL0     H22079   4.108   5.783   0.570  0.6267 -0.2370 -0.9276
  925MOL0     H22080   4.091   5.831   0.809  0.8861  0.8047  1.8132
  925MOL0     H22081   4.040   5.957   0.691  0.5966 -0.3631 -1.6298
  925MOL0     H22082   4.391   4.865   0.269  0.8249 -1.1649  0.9905
  925MOL0     H22083   4.595   4.776   0.258 -0.0484  1.5373 -1.9537
  925MOL0     H22084   5.077   4.888   0.418 -0.6868  1.5077 -1.6525
  925MOL0     H22085   5.314   4.829   0.410 -2.1150  1.9541  0.6268
  925MOL0     H22086   7.267   4.300   0.413  1.4248 -1.4740 -0.6084
  925MOL0     H22087   7.481   4.370   0.339  1.0849 -0.8152  1.7153
  925MOL0     H22088   7.763   4.523   0.066 -0.5443  1.9665  0.2836
  925MOL0     H22089   7.997   4.576  -0.006  0.4756  2.2256  0.4839
  925MOL0     H22090   8.273   4.606  -0.042  3.0963  0.6229  1.0318
  925MOL0     H22091   8.182   4.472   0.030  0.1509  1.3116  0.0476
  925MOL0     H22092   8.375   4.410   0.180  0.4462 -0.8962 -1.5041
  925MOL0     H22093   8.425   4.405   0.018  0.5754  0.9620 -0.8575
  925MOL0     H22094   8.456   4.660   0.194  0.8614 -0.3645  0.0584
  925MOL0     H22095   8.510   4.644   0.042 -3.2292  0.2760 -0.3897
  925MOL0     H22096   8.609   4.427   0.234  3.0171 -2.2141 -1.0148
  925MOL0     H22097   8.685   4.500   0.086  0.0496  2.0143 -0.0969
  925MOL0     H22098   8.782   4.805   0.357  1.0314 -1.1818  0.8728
  925MOL0     H22099   8.123   4.654   0.393 -1.1221  1.1679  0.7109
  925MOL0     H22100   7.903   4.587   0.482  0.9956  1.8435  1.4697
  926MOL0     O22101   1.402   3.166   4.067  0.0393 -0.2403 -0.4872
  926MOL0     C22102   1.525   3.184   4.076 -0.2860 -0.0838  0.6141
  926MOL0     O22103   1.605   3.167   4.184  0.3334 -0.3414  0.1431
  926MOL0     C22104   1.572   3.107   4.303  0.4852 -0.2967  0.4084
  926MOL0     C22105   1.664   3.131   4.404  0.4143  0.8513 -0.5497
  926MOL0     C22106   1.636   3.066   4.530  0.8054 -0.1964 -0.5550
  926MOL0     C22107   1.523   2.995   4.561  0.1078 -0.3539 -0.6591
  926MOL0     O22108   1.504   2.932   4.677  0.6962  0.0310  0.0961
  926MOL0     C22109   1.545   2.993   4.802 -0.6672  0.4126  0.3397
  926MOL0     C22110   1.502   3.135   4.823 -0.2029 -0.3474 -0.6396
  926MOL0     C22111   1.596   3.209   4.911 -0.3187  0.2946 -0.2310
  926MOL0     C22112   1.583   3.369   4.910  0.7895  0.3847  0.0545
  926MOL0     C22113   1.699   3.432   4.982 -0.0957 -0.8014 -1.2729
  926MOL0     C22114   1.709   3.402   5.138  0.2040 -1.2465 -0.2697
  926MOL0     C22115   1.584   3.426   5.225  0.6373  0.1658 -0.2489
  926MOL0     C22116   1.556   3.573   5.237 -0.5249 -0.8047  0.8826
  926MOL0     N22117   1.443   3.591   5.331  0.0399 -0.0790  0.1565
  926MOL0     C22118   1.317   3.635   5.293  0.7909  0.5776 -0.0969
  926MOL0     C22119   1.239   3.622   5.396  0.5131 -0.4002  0.1442
  926MOL0     C22120   1.089   3.649   5.409 -0.4761 -0.4238 -0.1654
  926MOL0     C22121   1.013   3.601   5.289  0.1516 -0.1882 -0.3255
  926MOL0     C22122   0.860   3.625   5.306 -0.3623  0.2380 -0.3661
  926MOL0     C22123   0.792   3.571   5.188  0.5382 -0.1508 -0.2574
  926MOL0     O22124   0.654   3.545   5.219  0.4238 -0.0420  0.1002
  926MOL0     C22125   0.559   3.540   5.118 -0.6924  0.9325  0.5886
  926MOL0     C22126   0.592   3.480   4.996  0.1436 -0.7586  0.6739
  926MOL0     C22127   0.490   3.462   4.900 -0.3833  0.4773 -0.0263
  926MOL0     C22128   0.358   3.485   4.933  0.0299  0.3297 -0.4128
  926MOL0     C22129   0.248   3.458   4.837  0.9410  0.5665 -0.5339
  926MOL0     O22130   0.288   3.395   4.722  0.0180  0.2502 -0.0598
  926MOL0     C22131   0.184   3.402   4.640 -0.2483 -0.8384 -0.2838
  926MOL0     C22132   0.151   3.518   4.570 -0.3264 -0.6060 -0.0254
  926MOL0     C22133   0.050   3.517   4.473  0.4508  0.5446 -0.4153
  926MOL0     C22134  -0.020   3.397   4.436 -0.5814 -0.5393 -0.1568
  926MOL0     O22135  -0.101   3.419   4.327 -0.1136  0.1676  0.6756
  926MOL0     C22136  -0.188   3.316   4.277  0.7061  0.5238 -1.6549
  926MOL0     C22137  -0.330   3.382   4.242 -1.0200 -0.2885  0.9699
  926MOL0     C22138  -0.427   3.392   4.369 -0.1088 -0.5776 -0.2695
  926MOL0     C22139  -0.545   3.471   4.334 -0.2646  0.2098  0.7539
  926MOL0     C22140  -0.637   3.512   4.456 -0.8531  0.6283 -0.4094
  926MOL0     C22141  -0.667   3.393   4.552  0.5210 -0.0192  0.8448
  926MOL0     C22142  -0.768   3.441   4.657 -0.1299  0.4704 -0.4382
  926MOL0     C22143  -0.790   3.338   4.755  0.1857  0.5585 -0.1703
  926MOL0    Cl22144  -0.664   3.360   4.890  0.3624  0.6049 -0.3619
  926MOL0     C22145   0.015   3.281   4.501 -0.1988  0.1879  0.1723
  926MOL0     C22146   0.115   3.283   4.600  0.4691 -0.0119 -0.5363
  926MOL0     O22147   0.133   3.482   4.872  0.2124  0.0760 -0.0967
  926MOL0     C22148   0.326   3.536   5.060  0.2163 -0.0762 -0.8116
  926MOL0     C22149   0.430   3.558   5.156 -0.0450 -0.1537  0.2494
  926MOL0     N22150   1.311   3.576   5.502  0.1339 -0.2776 -0.0721
  926MOL0     N22151   1.437   3.564   5.465  0.3350 -0.0026  0.2387
  926MOL0     C22152   1.437   2.974   4.458  1.0869 -0.1034 -0.0914
  926MOL0     C22153   1.453   3.033   4.332 -0.0107 -0.3865  0.2734
  926MOL0     C22154   1.600   3.249   3.960  0.5856  0.7650  0.2639
  926MOL0     C22155   1.720   3.317   3.982 -0.9808 -0.1991 -0.0580
  926MOL0     C22156   1.785   3.375   3.871  0.3762 -0.6791 -1.8319
  926MOL0     C22157   1.728   3.363   3.742 -0.2932 -0.3208  0.0785
  926MOL0     O22158   1.806   3.431   3.653 -0.1212  0.0379  0.0552
  926MOL0     C22159   1.745   3.435   3.519  1.1574  0.0632  0.9770
  926MOL0     C22160   1.625   3.523   3.503  0.1238  0.9215 -0.1266
  926MOL0     C22161   1.644   3.665   3.556 -0.1420 -0.6843 -0.9686
  926MOL0     C22162   1.571   3.779   3.476 -0.0190  0.2217 -0.0839
  926MOL0     C22163   1.582   3.903   3.549 -0.3203  0.0201 -1.0319
  926MOL0     C22164   1.621   3.993   3.623 -0.1262  0.5476 -0.5593
  926MOL0     C22165   1.617   3.281   3.716  0.3703  0.7453  0.3635
  926MOL0     C22166   1.547   3.234   3.828 -1.0292  0.0524 -0.1765
  926MOL0     H22167   1.760   3.178   4.388  1.9072 -1.8049  0.1187
  926MOL0     H22168   1.718   3.082   4.600 -0.4211  1.5450  0.5642
  926MOL0     H22169   1.655   2.992   4.802 -0.6677  0.3044 -0.2350
  926MOL0     H22170   1.520   2.935   4.891  1.9607 -1.1250  0.1831
  926MOL0     H22171   1.399   3.139   4.861  0.3982 -0.2835  1.0452
  926MOL0     H22172   1.510   3.190   4.729 -0.8091  1.1683  0.1554
  926MOL0     H22173   1.702   3.185   4.900 -0.6860 -0.8426 -1.5766
  926MOL0     H22174   1.567   3.173   5.010  2.2388 -1.7234 -0.1103
  926MOL0     H22175   1.589   3.407   4.807 -0.5727  0.1901 -0.1127
  926MOL0     H22176   1.484   3.392   4.949 -0.1489 -0.1764 -1.8338
  926MOL0     H22177   1.708   3.540   4.972 -1.8750 -0.2363  1.9139
  926MOL0     H22178   1.791   3.393   4.937  0.8761  1.7522 -1.6565
  926MOL0     H22179   1.791   3.466   5.172  0.4120 -0.0303 -2.8150
  926MOL0     H22180   1.735   3.297   5.146 -3.2659 -2.3972 -1.8988
  926MOL0     H22181   1.496   3.376   5.184 -1.6345  1.2326  2.9507
  926MOL0     H22182   1.608   3.387   5.324  0.7108  1.3478  0.2215
  926MOL0     H22183   1.524   3.598   5.136 -3.0333  0.4448  1.8990
  926MOL0     H22184   1.646   3.630   5.261 -1.3415 -0.3333  3.1519
  926MOL0     H22185   1.292   3.679   5.197 -2.5340  3.5012  1.8809
  926MOL0     H22186   1.074   3.751   5.444  0.0509 -1.2546  2.8502
  926MOL0     H22187   1.058   3.591   5.497  0.7036  0.7106  1.0444
  926MOL0     H22188   1.034   3.495   5.270  1.3774  0.1077 -0.6857
  926MOL0     H22189   1.049   3.651   5.199  0.2502  0.3744  0.0224
  926MOL0     H22190   0.815   3.578   5.395  1.6997 -3.0785 -0.9265
  926MOL0     H22191   0.835   3.732   5.303 -0.4929  0.1829 -2.6215
  926MOL0     H22192   0.842   3.475   5.175  0.7458  0.2518 -3.0998
  926MOL0     H22193   0.801   3.640   5.103  1.9516  3.7782  2.7242
  926MOL0     H22194   0.693   3.468   4.959  0.3576  2.5098 -0.0685
  926MOL0     H22195   0.509   3.436   4.796  0.3251  4.7955 -1.1654
  926MOL0     H22196   0.204   3.608   4.599 -0.4645 -1.3377  2.7641
  926MOL0     H22197   0.023   3.595   4.402 -1.4377 -1.3531 -1.9387
  926MOL0     H22198  -0.200   3.244   4.358 -3.0736  1.3213 -1.3062
  926MOL0     H22199  -0.147   3.266   4.189 -0.2699  1.1817 -2.5137
  926MOL0     H22200  -0.382   3.323   4.166 -0.2487  1.2868 -0.8327
  926MOL0     H22201  -0.300   3.483   4.214  0.3993 -0.8850  0.2538
  926MOL0     H22202  -0.373   3.459   4.437 -1.9451  1.8714 -1.1012
  926MOL0     H22203  -0.458   3.297   4.413 -1.0438  0.5031  1.5496
  926MOL0     H22204  -0.510   3.561   4.281  1.8210  0.0449  1.7610
  926MOL0     H22205  -0.607   3.423   4.257  0.5117  0.1984  0.1253
  926MOL0     H22206  -0.728   3.557   4.418  1.1189  1.8330 -4.1973
  926MOL0     H22207  -0.581   3.581   4.520 -0.1075  0.0512 -0.4156
  926MOL0     H22208  -0.572   3.360   4.594  1.1322 -1.6601 -1.6496
  926MOL0     H22209  -0.717   3.317   4.492  0.5864  0.5650  0.0397
  926MOL0     H22210  -0.741   3.539   4.698  1.4067 -0.1110 -0.0046
  926MOL0     H22211  -0.863   3.458   4.605  0.8860 -1.5489 -3.1621
  926MOL0     H22212  -0.774   3.237   4.717  0.8109  0.6927 -0.2680
  926MOL0     H22213  -0.890   3.345   4.799 -0.6211 -0.8059 -1.6704
  926MOL0     H22214  -0.019   3.181   4.478  1.4673  0.2222 -2.9973
  926MOL0     H22215   0.143   3.183   4.632 -1.3349 -1.3630 -2.9055
  926MOL0     H22216   0.224   3.555   5.091  0.9658  1.1823  1.0909
  926MOL0     H22217   0.409   3.602   5.253 -0.1019  0.4926 -0.0525
  926MOL0     H22218   1.360   2.898   4.473  0.5955  0.5004  0.5449
  926MOL0     H22219   1.383   3.011   4.252 -2.6390 -1.8523  2.8064
  926MOL0     H22220   1.772   3.333   4.076  0.6006  2.5724 -1.2887
  926MOL0     H22221   1.878   3.426   3.893  0.0073 -1.3992  2.2571
  926MOL0     H22222   1.731   3.333   3.480  0.9068  0.5423 -0.2165
  926MOL0     H22223   1.819   3.477   3.451 -0.5064  0.3711 -0.7370
  926MOL0     H22224   1.609   3.523   3.394  2.4933  0.4790 -0.5173
  926MOL0     H22225   1.535   3.486   3.553  0.1623 -0.0772 -0.7800
  926MOL0     H22226   1.750   3.685   3.574 -0.2246 -0.7386 -0.4040
  926MOL0     H22227   1.602   3.665   3.657  0.1907  1.4704 -0.7789
  926MOL0     H22228   1.629   3.789   3.384  0.5835 -0.3007  0.2288
  926MOL0     H22229   1.468   3.752   3.452  0.1963 -1.0718  0.3442
  926MOL0     H22230   1.659   4.069   3.689  0.5074  1.9886 -2.4862
  926MOL0     H22231   1.574   3.256   3.619 -1.2040 -4.4800  2.0897
  926MOL0     H22232   1.455   3.175   3.827 -1.2149  0.3012  0.7927
  927MOL0     O22233   5.151   2.985  10.344 -0.2669  0.2330  0.3233
  927MOL0     C22234   5.191   3.069  10.269 -0.5259 -0.4738 -0.5908
  927MOL0     O22235   5.121   3.129  10.171 -0.0994 -0.7460 -1.1419
  927MOL0     C22236   4.985   3.091  10.151 -1.3365  0.4693  0.2168
  927MOL0     C22237   4.897   3.188  10.114  0.3081  0.9832 -0.1946
  927MOL0     C22238   4.770   3.160  10.073  0.4450 -0.3031 -0.5882
  927MOL0     C22239   4.718   3.030  10.072  0.6334  0.2144  0.4164
  927MOL0     O22240   4.593   2.985  10.059  0.3090 -0.3291  0.3745
  927MOL0     C22241   4.495   3.091  10.052 -0.0907 -0.0062  0.3250
  927MOL0     C22242   4.368   3.011  10.043 -0.8661  0.6828  0.9686
  927MOL0     C22243   4.371   2.905   9.930 -0.4490 -0.0200 -0.4388
  927MOL0     C22244   4.427   2.949   9.790 -0.5146 -0.1091 -0.5871
  927MOL0     C22245   4.331   3.043   9.719  0.4892  0.5102 -1.3417
  927MOL0     C22246   4.203   2.971   9.665  0.0484  0.1341 -0.2754
  927MOL0     C22247   4.116   3.064   9.576  1.2545  0.4918 -0.1139
  927MOL0     C22248   3.994   2.994   9.515 -0.0077 -0.0718  0.0694
  927MOL0     N22249   3.907   3.088   9.441  0.2639 -0.3659  0.3200
  927MOL0     C22250   3.930   3.149   9.320 -0.3562 -0.0533 -0.3496
  927MOL0     C22251   3.823   3.222   9.300 -0.7855 -0.0815  0.5832
  927MOL0     C22252   3.799   3.318   9.188  0.7264 -0.0710 -0.1781
  927MOL0     C22253   3.780   3.239   9.056 -1.3838  0.9273 -0.1189
  927MOL0     C22254   3.763   3.335   8.937 -0.5319 -0.3583 -0.8422
  927MOL0     C22255   3.787   3.281   8.803  0.5245  0.1810  0.3167
  927MOL0     O22256   3.742   3.151   8.782 -0.2459  0.4297 -0.4396
  927MOL0     C22257   3.603   3.116   8.795 -1.0089  0.2321  0.1681
  927MOL0     C22258   3.578   2.982   8.827  0.4617  0.3215 -0.0752
  927MOL0     C22259   3.443   2.941   8.852  0.8173 -0.1273 -0.8719
  927MOL0     C22260   3.335   3.034   8.842 -0.3385  0.2307  0.4384
  927MOL0     C22261   3.195   2.982   8.856  0.2616  0.2061 -0.3771
  927MOL0     O22262   3.180   2.845   8.864  0.6758  0.1020  0.0364
  927MOL0     C22263   3.050   2.788   8.859  0.9795 -0.3000 -0.1896
  927MOL0     C22264   2.955   2.810   8.965 -0.6702  0.0611  0.4548
  927MOL0     C22265   2.826   2.757   8.956 -0.7745 -0.0138  0.1791
  927MOL0     C22266   2.786   2.690   8.841 -0.2479  0.0010 -0.2740
  927MOL0     O22267   2.666   2.634   8.847 -0.0025  0.2003 -0.1698
  927MOL0     C22268   2.625   2.539   8.751 -0.3430  0.2272  0.4494
  927MOL0     C22269   2.485   2.480   8.793  0.3231  0.1538  0.1217
  927MOL0     C22270   2.489   2.425   8.944 -0.6512  0.1451 -0.0170
  927MOL0     C22271   2.351   2.359   8.978  0.0052 -0.5027 -0.5636
  927MOL0     C22272   2.271   2.456   9.064 -0.0394 -0.5425 -0.7116
  927MOL0     C22273   2.123   2.420   9.064  0.2103  0.4510  0.6614
  927MOL0     C22274   2.033   2.522   9.132  0.0987 -0.4909 -0.5563
  927MOL0     C22275   2.066   2.545   9.282 -0.1170 -0.3719  0.1889
  927MOL0    Cl22276   2.038   2.399   9.381  0.0474  0.3365  0.3158
  927MOL0     C22277   2.881   2.662   8.745 -0.4864 -0.1510 -0.7036
  927MOL0     C22278   3.012   2.712   8.750  0.0306  0.1806  0.5881
  927MOL0     O22279   3.102   3.068   8.864  0.2877 -0.2527  0.3943
  927MOL0     C22280   3.373   3.167   8.816 -0.0975 -0.1640 -0.9071
  927MOL0     C22281   3.505   3.211   8.795 -0.0534  0.3449  0.5594
  927MOL0     N22282   3.739   3.210   9.406  0.1830  0.2810  0.1064
  927MOL0     N22283   3.785   3.128   9.488 -0.3133  0.7723 -0.1370
  927MOL0     C22284   4.803   2.932  10.109  0.1687  1.1996 -0.2258
  927MOL0     C22285   4.941   2.959  10.139  0.4838  0.3865  0.4255
  927MOL0     C22286   5.337   3.095  10.277 -0.4214 -0.0967  0.5263
  927MOL0     C22287   5.427   3.016  10.346 -0.6526 -0.4897  0.0734
  927MOL0     C22288   5.566   3.050  10.356  0.4739 -0.2434  0.4732
  927MOL0     C22289   5.612   3.167  10.300 -0.3454  0.0133  0.0486
  927MOL0     O22290   5.747   3.205  10.295  0.1214 -0.1440 -1.0641
  927MOL0     C22291   5.840   3.155  10.399 -0.0547 -0.7464  0.0822
  927MOL0     C22292   5.973   3.218  10.365  0.2442 -0.1969  0.0572
  927MOL0     C22293   6.074   3.137  10.288 -0.3455  0.2675  0.5583
  927MOL0     C22294   6.032   3.114  10.142 -0.5141  0.0806  1.0537
  927MOL0     C22295   6.127   3.036  10.059 -0.9224  0.0250  0.2420
  927MOL0     C22296   6.199   2.960   9.986 -0.0391  0.0217 -0.8347
  927MOL0     C22297   5.520   3.247  10.226  0.0831  0.1062  1.0351
  927MOL0     C22298   5.391   3.209  10.202 -0.1305 -0.1211 -0.3762
  927MOL0     H22299   4.928   3.292  10.108 -1.0830  1.3203 -2.9235
  927MOL0     H22300   4.701   3.236  10.036  0.6467  1.1408  1.8018
  927MOL0     H22301   4.500   3.154   9.963  4.6119 -0.3364  0.1379
  927MOL0     H22302   4.497   3.151  10.144 -0.1509  0.6853 -0.1147
  927MOL0     H22303   4.290   3.086  10.026  1.1187  2.5442 -0.4546
  927MOL0     H22304   4.356   2.957  10.138  0.9498 -2.2402 -0.3192
  927MOL0     H22305   4.269   2.865   9.921 -0.6052  0.4066 -0.5839
  927MOL0     H22306   4.439   2.826   9.965  0.1200  1.1636  1.2223
  927MOL0     H22307   4.526   2.986   9.817 -0.7388  0.4465 -0.5251
  927MOL0     H22308   4.443   2.858   9.730  1.9223 -0.5229  0.5892
  927MOL0     H22309   4.383   3.078   9.630  1.3020 -0.4504 -1.2583
  927MOL0     H22310   4.313   3.130   9.782  0.6910 -0.2393 -0.2235
  927MOL0     H22311   4.147   2.933   9.751  1.4217  0.3566  0.7558
  927MOL0     H22312   4.235   2.889   9.600 -2.4267  1.4336 -3.3935
  927MOL0     H22313   4.078   3.141   9.642  1.3175  0.2559  0.1994
  927MOL0     H22314   4.185   3.089   9.495  0.6198  0.7852 -0.5736
  927MOL0     H22315   3.933   2.947   9.593 -2.0072 -0.2672 -1.5413
  927MOL0     H22316   4.023   2.908   9.454 -1.1770  0.3789 -1.1675
  927MOL0     H22317   4.016   3.134   9.256  0.2814 -3.8390  1.1710
  927MOL0     H22318   3.871   3.399   9.175  2.4605 -1.9325 -3.4833
  927MOL0     H22319   3.705   3.366   9.216  2.3432  2.3689  1.4156
  927MOL0     H22320   3.705   3.160   9.068  3.9959 -4.7573  0.8396
  927MOL0     H22321   3.864   3.171   9.039 -0.0170  1.9221  2.1724
  927MOL0     H22322   3.668   3.389   8.934 -0.6988 -0.5410  0.6031
  927MOL0     H22323   3.840   3.412   8.947 -0.7207 -0.3304  0.5390
  927MOL0     H22324   3.895   3.274   8.786  0.0260 -2.5014 -2.4364
  927MOL0     H22325   3.747   3.342   8.722  1.5148 -0.6716 -0.8430
  927MOL0     H22326   3.665   2.918   8.840  0.3896 -0.2425 -1.9912
  927MOL0     H22327   3.424   2.836   8.875 -1.0852  1.1733  5.2010
  927MOL0     H22328   2.971   2.856   9.062 -0.9882 -2.7722  1.9419
  927MOL0     H22329   2.759   2.788   9.035  0.7892 -0.3890  1.7068
  927MOL0     H22330   2.693   2.453   8.750 -1.0325 -0.3516  1.2495
  927MOL0     H22331   2.623   2.584   8.652 -1.0193 -0.1640  0.2738
  927MOL0     H22332   2.459   2.398   8.725 -0.1897 -0.0144  0.5167
  927MOL0     H22333   2.413   2.561   8.785  1.8637  1.7157  1.4663
  927MOL0     H22334   2.518   2.504   9.014  0.0861 -0.7581  0.7261
  927MOL0     H22335   2.574   2.358   8.959  4.6168  5.9651  0.1498
  927MOL0     H22336   2.294   2.329   8.890 -0.8707  0.0245 -0.1900
  927MOL0     H22337   2.374   2.271   9.039  0.9729  0.1455  0.0496
  927MOL0     H22338   2.274   2.554   9.014  3.9641 -1.1334 -1.9484
  927MOL0     H22339   2.328   2.462   9.157  1.9379 -0.1034 -1.8979
  927MOL0     H22340   2.103   2.323   9.111  0.0903 -0.4077 -1.0680
  927MOL0     H22341   2.097   2.400   8.960 -1.2355  0.9799  0.8964
  927MOL0     H22342   2.039   2.611   9.069  0.5881 -1.1778 -1.5187
  927MOL0     H22343   1.930   2.485   9.140 -0.7481  1.9085  0.3103
  927MOL0     H22344   2.007   2.634   9.306 -0.3261  0.5240 -3.1113
  927MOL0     H22345   2.170   2.578   9.292 -0.1490  0.1224 -0.9241
  927MOL0     H22346   2.841   2.615   8.656  1.0966  0.2574 -1.6728
  927MOL0     H22347   3.077   2.696   8.665  1.1378  2.0902  1.0162
  927MOL0     H22348   3.301   3.248   8.820  0.8857  0.7260 -0.4456
  927MOL0     H22349   3.534   3.307   8.755 -2.0009  0.0856 -1.6661
  927MOL0     H22350   4.767   2.830  10.100  1.2974  0.8787 -1.4275
  927MOL0     H22351   4.998   2.874  10.174 -2.5339 -1.1507  2.0734
  927MOL0     H22352   5.398   2.926  10.400  1.6825 -3.0655 -2.6015
  927MOL0     H22353   5.629   2.986  10.417 -2.4528 -1.7452  2.0910
  927MOL0     H22354   5.844   3.046  10.402  0.3356 -0.7101  1.6572
  927MOL0     H22355   5.807   3.187  10.498  0.9618  0.7071 -0.0183
  927MOL0     H22356   5.957   3.315  10.316 -1.5292 -1.6078 -2.3484
  927MOL0     H22357   6.016   3.241  10.463  3.2686 -2.1376 -0.6643
  927MOL0     H22358   6.086   3.038  10.334 -0.7831 -1.1292 -2.0950
  927MOL0     H22359   6.170   3.187  10.303 -1.8308  3.1606  1.1676
  927MOL0     H22360   5.934   3.064  10.149 -0.7304  0.4590  0.7322
  927MOL0     H22361   6.007   3.209  10.095  0.7792 -0.8527 -1.6899
  927MOL0     H22362   6.263   2.886   9.942  0.7372 -0.3715  0.8941
  927MOL0     H22363   5.543   3.330  10.160  0.4243 -0.8424 -0.0742
  927MOL0     H22364   5.329   3.275  10.142  0.2345  1.4625  0.9162
  928MOL0     O22365   1.659   0.076   4.522 -0.0001  0.5926  0.2569
  928MOL0     C22366   1.724   0.180   4.532  0.3602 -0.6282  0.1177
  928MOL0     O22367   1.709   0.286   4.448 -0.0815  0.6764 -0.0233
  928MOL0     C22368   1.624   0.265   4.346 -0.6320 -0.0299 -0.3655
  928MOL0     C22369   1.487   0.290   4.356  0.2246 -0.2195  0.6764
  928MOL0     C22370   1.405   0.288   4.243 -0.3266  0.4249 -0.2643
  928MOL0     C22371   1.462   0.233   4.124 -0.1924 -0.4307  0.6474
  928MOL0     O22372   1.380   0.220   4.014  0.0289 -0.3694 -0.2041
  928MOL0     C22373   1.379   0.080   3.979  0.4525 -0.0701  0.1852
  928MOL0     C22374   1.286   0.054   3.864 -0.0779 -0.6044  0.2783
  928MOL0     C22375   1.297  -0.091   3.842  0.4219  0.5001 -0.1288
  928MOL0     C22376   1.185  -0.137   3.746  0.0497 -0.4138 -0.9537
  928MOL0     C22377   1.215  -0.272   3.695 -0.1589 -0.4722  0.5932
  928MOL0     C22378   1.093  -0.332   3.628  0.4957  0.3050 -0.1592
  928MOL0     C22379   1.006  -0.398   3.735  0.3575  0.5068 -0.3442
  928MOL0     C22380   0.884  -0.468   3.668  0.2473 -0.7792 -1.2174
  928MOL0     N22381   0.794  -0.519   3.770 -0.8139  1.2048  0.0476
  928MOL0     C22382   0.669  -0.474   3.805  0.6328  0.6788 -0.8801
  928MOL0     C22383   0.615  -0.567   3.890 -0.7177  0.0575  0.2777
  928MOL0     C22384   0.491  -0.565   3.974 -0.6337  0.4069 -0.0244
  928MOL0     C22385   0.410  -0.441   3.947  0.2451 -0.1844 -0.7006
  928MOL0     C22386   0.300  -0.423   4.047  0.4519  0.8267 -0.3859
  928MOL0     C22387   0.208  -0.541   4.054 -0.0700  0.3110  0.2019
  928MOL0     O22388   0.085  -0.521   4.127  0.5184 -0.6075 -0.6007
  928MOL0     C22389  -0.005  -0.619   4.081  0.4990 -0.3151  0.2200
  928MOL0     C22390   0.021  -0.754   4.074 -0.2794  0.3967 -1.2569
  928MOL0     C22391  -0.068  -0.847   4.017 -1.2381 -0.1511 -0.3120
  928MOL0     C22392  -0.195  -0.815   3.979  0.2652  0.3982 -0.1801
  928MOL0     C22393  -0.294  -0.918   3.939 -0.3453 -0.3910  0.2026
  928MOL0     O22394  -0.230  -1.037   3.899  0.0405  0.0014 -0.6732
  928MOL0     C22395  -0.290  -1.141   3.827 -0.5707 -0.1332 -0.0124
  928MOL0     C22396  -0.426  -1.188   3.836 -0.8283  0.0902 -0.5377
  928MOL0     C22397  -0.482  -1.292   3.772  0.2308 -0.8353 -0.0966
  928MOL0     C22398  -0.406  -1.360   3.677  0.6319  0.3013 -0.2926
  928MOL0     O22399  -0.458  -1.464   3.602  0.2892 -0.3797 -0.6837
  928MOL0     C22400  -0.603  -1.478   3.582 -1.2522  0.5457  0.3010
  928MOL0     C22401  -0.660  -1.356   3.501 -0.5134 -0.1379 -0.5664
  928MOL0     C22402  -0.622  -1.357   3.352 -1.2646 -0.3382  0.3604
  928MOL0     C22403  -0.694  -1.257   3.264 -0.6903 -0.8858  0.5678
  928MOL0     C22404  -0.672  -1.294   3.112  0.2335 -0.9404  0.1746
  928MOL0     C22405  -0.529  -1.276   3.059  0.0189 -0.6788  0.4267
  928MOL0     C22406  -0.513  -1.131   3.004 -0.0048  0.4728  0.0843
  928MOL0     C22407  -0.384  -1.112   2.925  0.5224  0.6706 -0.2820
  928MOL0    Cl22408  -0.381  -0.931   2.893 -0.0316  0.7181 -0.1941
  928MOL0     C22409  -0.273  -1.327   3.664  0.0562 -0.7178  0.2572
  928MOL0     C22410  -0.216  -1.221   3.736 -0.1046 -0.4354  0.0831
  928MOL0     O22411  -0.411  -0.882   3.913 -0.3376 -0.3212  0.0791
  928MOL0     C22412  -0.224  -0.681   3.991 -0.2785  0.2737  0.2753
  928MOL0     C22413  -0.134  -0.582   4.036  0.3353 -0.2881 -0.0251
  928MOL0     N22414   0.708  -0.671   3.892 -0.2351 -0.3589  0.1330
  928MOL0     N22415   0.814  -0.645   3.820 -0.3833  0.4277 -0.1280
  928MOL0     C22416   1.598   0.193   4.121  0.7610 -0.0475 -0.8657
  928MOL0     C22417   1.686   0.220   4.230  0.0560 -0.1321 -0.0715
  928MOL0     C22418   1.822   0.213   4.635  0.0446  0.0124  0.4598
  928MOL0     C22419   1.878   0.110   4.708 -0.3457  0.9082  0.0434
  928MOL0     C22420   1.973   0.129   4.811 -0.3241 -0.2645 -0.0557
  928MOL0     C22421   2.010   0.263   4.840  0.7092  0.1080 -0.3691
  928MOL0     O22422   2.090   0.277   4.944  0.1137  1.3342 -0.5533
  928MOL0     C22423   2.174   0.386   4.950  0.0019  0.2937  0.5195
  928MOL0     C22424   2.291   0.375   5.046 -1.0219  0.1966  0.2641
  928MOL0     C22425   2.369   0.501   5.070  0.9113 -0.4251 -1.0152
  928MOL0     C22426   2.440   0.505   5.212  0.2932 -0.0553 -0.4979
  928MOL0     C22427   2.526   0.385   5.244  0.3455  0.0754 -0.1359
  928MOL0     C22428   2.588   0.285   5.277 -0.2996  0.2244  0.4743
  928MOL0     C22429   1.944   0.369   4.776  0.0011 -0.4762 -0.0306
  928MOL0     C22430   1.862   0.350   4.664 -0.7644  0.4496 -0.2810
  928MOL0     H22431   1.445   0.312   4.454 -2.6133  0.2221 -0.5406
  928MOL0     H22432   1.302   0.321   4.244  0.1014  1.8152  0.6688
  928MOL0     H22433   1.360   0.018   4.067  2.3733  2.0396  2.2219
  928MOL0     H22434   1.481   0.055   3.946  0.4249 -3.6225  2.1893
  928MOL0     H22435   1.317   0.115   3.779 -3.5899  1.2438  0.1439
  928MOL0     H22436   1.184   0.084   3.889  0.5734  1.2877  0.7948
  928MOL0     H22437   1.291  -0.167   3.922  1.2818  0.7237  0.1510
  928MOL0     H22438   1.388  -0.115   3.788 -0.0660 -0.1836 -0.6760
  928MOL0     H22439   1.090  -0.133   3.801  0.3960 -0.4447 -0.3417
  928MOL0     H22440   1.183  -0.057   3.671  0.8360  2.9948  2.3177
  928MOL0     H22441   1.238  -0.343   3.775 -1.0354 -0.9607  0.4292
  928MOL0     H22442   1.291  -0.262   3.617 -2.2557  6.6027 -1.2796
  928MOL0     H22443   1.116  -0.406   3.551 -0.4458 -1.8783  1.5671
  928MOL0     H22444   1.032  -0.260   3.572  0.3347  1.7466  1.7677
  928MOL0     H22445   1.065  -0.475   3.785 -1.3708  1.4246  3.5177
  928MOL0     H22446   0.982  -0.325   3.814  2.5769  1.4162 -0.4616
  928MOL0     H22447   0.914  -0.542   3.592  1.4691  0.9109 -2.4694
  928MOL0     H22448   0.824  -0.393   3.615 -3.7478 -2.3363  0.6806
  928MOL0     H22449   0.624  -0.381   3.770  0.5995  0.4627 -1.4205
  928MOL0     H22450   0.514  -0.563   4.080 -0.3395  1.8802 -0.0974
  928MOL0     H22451   0.435  -0.652   3.938  0.2621 -0.3655  0.4200
  928MOL0     H22452   0.367  -0.454   3.848 -0.8956  0.9592 -0.3804
  928MOL0     H22453   0.466  -0.347   3.940 -1.7943  1.3660  1.7561
  928MOL0     H22454   0.333  -0.392   4.146  0.9274  0.0955 -0.3075
  928MOL0     H22455   0.244  -0.341   4.002 -0.9021  0.3934  0.4818
  928MOL0     H22456   0.264  -0.632   4.078 -1.7994 -0.9671 -0.3744
  928MOL0     H22457   0.167  -0.577   3.959  0.2100 -3.6442  1.3911
  928MOL0     H22458   0.111  -0.791   4.122 -1.1404  0.6381  0.6286
  928MOL0     H22459  -0.037  -0.950   4.011 -1.5085 -0.1818 -1.3658
  928MOL0     H22460  -0.489  -1.145   3.914 -1.4373 -0.4934 -0.6920
  928MOL0     H22461  -0.587  -1.314   3.787 -0.5114  2.2015 -0.1555
  928MOL0     H22462  -0.654  -1.489   3.678 -2.8571 -0.7585 -0.6347
  928MOL0     H22463  -0.624  -1.570   3.526  3.4299 -2.8788  3.4476
  928MOL0     H22464  -0.636  -1.260   3.547 -4.4582  1.3511 -1.2409
  928MOL0     H22465  -0.766  -1.381   3.500 -0.7203  0.7120 -0.0569
  928MOL0     H22466  -0.634  -1.452   3.300  4.2637 -1.5947  0.8555
  928MOL0     H22467  -0.514  -1.341   3.346 -1.5102  1.2042 -0.6188
  928MOL0     H22468  -0.797  -1.255   3.300 -0.3933 -0.1223  1.4316
  928MOL0     H22469  -0.662  -1.154   3.284 -1.8589 -0.5577  0.8233
  928MOL0     H22470  -0.727  -1.222   3.050  0.2794 -0.4096  0.7252
  928MOL0     H22471  -0.713  -1.395   3.103 -0.6168 -0.4682 -1.6535
  928MOL0     H22472  -0.519  -1.345   2.975  1.9530  2.4073 -2.1440
  928MOL0     H22473  -0.447  -1.301   3.127 -1.7286 -1.2211  2.4423
  928MOL0     H22474  -0.598  -1.099   2.943  0.3374  2.2505  0.4613
  928MOL0     H22475  -0.511  -1.059   3.087  1.5945  1.7477 -0.9895
  928MOL0     H22476  -0.380  -1.174   2.835 -1.2557 -0.3723  0.3086
  928MOL0     H22477  -0.294  -1.142   2.980 -1.9977 -2.5316  2.5270
  928MOL0     H22478  -0.201  -1.381   3.604 -0.4078  0.3155 -1.3050
  928MOL0     H22479  -0.110  -1.202   3.724  0.7827 -4.2293  0.4422
  928MOL0     H22480  -0.318  -0.631   3.967 -0.5300  0.0217  0.7211
  928MOL0     H22481  -0.169  -0.480   4.043 -3.1336 -1.3683 -0.0465
  928MOL0     H22482   1.633   0.148   4.029  0.7119  1.3275 -1.5845
  928MOL0     H22483   1.785   0.175   4.238 -1.0469 -2.3762  3.7368
  928MOL0     H22484   1.844   0.008   4.698 -0.1758  0.5981  2.1604
  928MOL0     H22485   2.009   0.047   4.873  1.3414  0.1592 -0.4139
  928MOL0     H22486   2.119   0.478   4.971  0.7437  0.9280 -0.2925
  928MOL0     H22487   2.217   0.388   4.850 -2.3166 -0.0944 -0.5607
  928MOL0     H22488   2.240   0.358   5.141 -1.6962  0.5215 -0.0309
  928MOL0     H22489   2.363   0.295   5.029 -0.8630  0.3880  0.0232
  928MOL0     H22490   2.304   0.588   5.057  1.7474  0.8754  2.4483
  928MOL0     H22491   2.449   0.511   4.996  1.0714  3.9917 -0.5193
  928MOL0     H22492   2.501   0.596   5.212  1.5338 -0.8523  0.4944
  928MOL0     H22493   2.365   0.503   5.291  1.1188 -1.5843  0.3004
  928MOL0     H22494   2.640   0.203   5.323  0.5711  0.2232 -0.4507
  928MOL0     H22495   1.971   0.471   4.798 -3.5699  0.2969  1.4542
  928MOL0     H22496   1.807   0.433   4.621  0.2452  0.2722 -2.0318
  929MOL0     O22497   7.771  10.503  10.790 -0.0080  0.3285 -1.0543
  929MOL0     C22498   7.839  10.558  10.705 -0.2237 -0.5682 -0.0714
  929MOL0     O22499   7.791  10.653  10.625  0.3670 -1.1917 -0.3723
  929MOL0     C22500   7.656  10.695  10.609  0.4134 -0.4265 -1.2073
  929MOL0     C22501   7.626  10.828  10.594 -0.1771  0.2638  0.9338
  929MOL0     C22502   7.496  10.881  10.589  1.6704 -0.2185 -0.4112
  929MOL0     C22503   7.390  10.794  10.607  0.1163 -0.0043  0.5225
  929MOL0     O22504   7.266  10.852  10.630  0.2062  0.2499 -0.5189
  929MOL0     C22505   7.157  10.766  10.637  0.1452 -0.4674 -0.6022
  929MOL0     C22506   7.030  10.839  10.606  0.6908  0.9932 -0.4604
  929MOL0     C22507   6.962  10.903  10.730 -0.6038 -0.7090  0.4609
  929MOL0     C22508   7.053  11.003  10.804  0.1495 -0.2348  0.2977
  929MOL0     C22509   7.108  11.124  10.708  0.5019  0.2609  0.0909
  929MOL0     C22510   7.130  11.255  10.793 -0.1419  0.0532 -0.2536
  929MOL0     C22511   7.276  11.242  10.848  0.4912  0.4756  0.4151
  929MOL0     C22512   7.334  11.363  10.926 -0.3826  0.9941  0.1564
  929MOL0     N22513   7.356  11.487  10.839  0.7680  0.6203 -0.6840
  929MOL0     C22514   7.414  11.486  10.717 -0.0375  0.2382 -0.6288
  929MOL0     C22515   7.365  11.597  10.653  0.2246 -0.1886 -0.6994
  929MOL0     C22516   7.386  11.636  10.510  0.0556 -0.4949 -0.4948
  929MOL0     C22517   7.251  11.682  10.450 -0.6453  0.2500  0.4700
  929MOL0     C22518   7.246  11.675  10.297  0.8463 -0.0433 -0.2051
  929MOL0     C22519   7.249  11.537  10.239  0.3986 -0.0321 -0.0194
  929MOL0     O22520   7.144  11.460  10.289 -0.2233 -0.2881  1.2709
  929MOL0     C22521   7.019  11.494  10.257  0.0597 -0.6618  0.5145
  929MOL0     C22522   6.923  11.449  10.346 -0.1927  0.0237 -1.2551
  929MOL0     C22523   6.788  11.467  10.316  0.2589  0.3291 -0.7427
  929MOL0     C22524   6.752  11.521  10.192 -0.2617 -0.6979  0.5349
  929MOL0     C22525   6.616  11.540  10.147  0.3003 -0.3073  0.2995
  929MOL0     O22526   6.520  11.518  10.252  0.2688  0.0170  0.7137
  929MOL0     C22527   6.389  11.550  10.224 -0.1374  0.3252 -0.2504
  929MOL0     C22528   6.318  11.538  10.103  0.0504 -0.8024  0.5347
  929MOL0     C22529   6.183  11.583  10.097  0.1673  0.1601 -0.0464
  929MOL0     C22530   6.114  11.628  10.216 -0.1366  0.0573  0.9687
  929MOL0     O22531   5.992  11.677  10.207 -0.0718 -0.4459 -0.0356
  929MOL0     C22532   5.898  11.639  10.311  0.3284  1.0944 -0.0899
  929MOL0     C22533   5.880  11.487  10.328 -0.9969 -0.3855  0.2186
  929MOL0     C22534   5.755  11.456  10.402  0.8245 -0.3137  0.1478
  929MOL0     C22535   5.729  11.307  10.416  0.0955  0.4972 -0.7387
  929MOL0     C22536   5.605  11.287  10.514 -0.2044  0.3474 -0.2079
  929MOL0     C22537   5.519  11.173  10.461  0.2039 -0.4107 -0.7038
  929MOL0     C22538   5.447  11.205  10.330 -0.2342 -0.8569 -0.0554
  929MOL0     C22539   5.309  11.127  10.328  0.0514 -0.3858 -0.4320
  929MOL0    Cl22540   5.338  10.949  10.358 -0.0248  0.0477 -0.4626
  929MOL0     C22541   6.194  11.650  10.331 -0.3649  0.1970 -0.6943
  929MOL0     C22542   6.329  11.615  10.330  0.8008 -0.4266 -0.1799
  929MOL0     O22543   6.590  11.572  10.035  0.3637  0.1919 -0.0565
  929MOL0     C22544   6.850  11.564  10.103 -0.1620 -0.2553  1.2830
  929MOL0     C22545   6.985  11.545  10.129  0.0417  0.0080  0.4824
  929MOL0     N22546   7.290  11.660  10.743  0.6039 -0.1136 -0.2825
  929MOL0     N22547   7.281  11.592  10.860 -0.0607 -0.8250  0.0181
  929MOL0     C22548   7.414  10.662  10.627  0.0628  0.4166  0.3965
  929MOL0     C22549   7.546  10.610  10.630 -0.4630  0.3060  0.5092
  929MOL0     C22550   7.962  10.484  10.667  0.0306  0.0197  0.2143
  929MOL0     C22551   8.008  10.493  10.538  0.5280  0.7724  0.2896
  929MOL0     C22552   8.119  10.435  10.487 -0.7027  0.0852 -0.4921
  929MOL0     C22553   8.187  10.343  10.569  0.2378  0.0580  0.2988
  929MOL0     O22554   8.294  10.286  10.510 -0.1322  0.1066  0.0175
  929MOL0     C22555   8.374  10.191  10.575  0.0679 -0.0299 -0.5262
  929MOL0     C22556   8.481  10.144  10.474  0.4612  0.1055 -0.0814
  929MOL0     C22557   8.574  10.254  10.427  0.5820  0.4600 -0.5660
  929MOL0     C22558   8.690  10.195  10.340 -0.5289 -0.2349  0.3157
  929MOL0     C22559   8.649  10.139  10.215 -1.3493  0.3457 -0.4343
  929MOL0     C22560   8.625  10.096  10.104  0.7342  0.9153 -0.3563
  929MOL0     C22561   8.140  10.322  10.697 -0.3530  0.4823  0.4884
  929MOL0     C22562   8.032  10.393  10.743  0.2212  0.3697 -0.1026
  929MOL0     H22563   7.708  10.900  10.599  0.1315  0.3353 -2.5437
  929MOL0     H22564   7.487  10.988  10.577  2.0312 -0.3550 -2.1106
  929MOL0     H22565   7.148  10.717  10.734  2.1739  0.6808  0.2216
  929MOL0     H22566   7.162  10.686  10.562 -0.0834  0.1198 -1.2529
  929MOL0     H22567   6.960  10.763  10.570 -0.7876  1.3770  1.4466
  929MOL0     H22568   7.039  10.904  10.519 -0.1947  2.1098  0.2579
  929MOL0     H22569   6.920  10.831  10.801  0.0165 -1.0356  0.4975
  929MOL0     H22570   6.871  10.959  10.707  0.0121 -0.6167 -2.0336
  929MOL0     H22571   6.993  11.056  10.880  2.2407  3.1397 -0.1606
  929MOL0     H22572   7.138  10.957  10.855  0.7199 -1.6176 -1.7798
  929MOL0     H22573   7.029  11.143  10.634  1.0263 -1.0924 -0.8656
  929MOL0     H22574   7.201  11.087  10.663  1.9340  0.2733  2.8570
  929MOL0     H22575   7.055  11.259  10.872 -0.7917  1.5463 -0.8916
  929MOL0     H22576   7.127  11.344  10.729 -0.8563 -0.8936 -1.5994
  929MOL0     H22577   7.285  11.145  10.897 -1.5826 -0.4304 -0.8584
  929MOL0     H22578   7.332  11.229  10.755 -0.7841  2.6877 -0.7524
  929MOL0     H22579   7.432  11.330  10.963 -2.0734 -1.2897  2.9651
  929MOL0     H22580   7.281  11.399  11.014  0.9326  0.2571  1.2940
  929MOL0     H22581   7.467  11.396  10.687 -0.6354 -0.3563  0.0479
  929MOL0     H22582   7.426  11.549  10.458  0.8193 -2.3118  2.8152
  929MOL0     H22583   7.448  11.725  10.504 -1.0041  0.5336  2.1956
  929MOL0     H22584   7.239  11.789  10.469 -1.7158  0.2489 -0.1458
  929MOL0     H22585   7.167  11.625  10.491 -1.7038  1.6293  0.2691
  929MOL0     H22586   7.149  11.713  10.261  0.8135  0.8173  0.7448
  929MOL0     H22587   7.332  11.724  10.251  0.4690 -1.6648 -2.8174
  929MOL0     H22588   7.339  11.478  10.261 -0.2592 -2.5287 -3.2218
  929MOL0     H22589   7.246  11.547  10.130 -0.8649 -0.7645 -0.0680
  929MOL0     H22590   6.963  11.409  10.439 -0.5753 -2.9453 -2.2387
  929MOL0     H22591   6.710  11.427  10.381 -2.2318  2.5076 -2.1694
  929MOL0     H22592   6.371  11.498  10.017  2.6039  4.5197 -0.7739
  929MOL0     H22593   6.123  11.577  10.008 -3.1578  0.7482  1.9979
  929MOL0     H22594   5.803  11.691  10.292 -0.2346 -0.0956 -0.6467
  929MOL0     H22595   5.935  11.663  10.411 -0.4002 -1.3984  0.8358
  929MOL0     H22596   5.966  11.449  10.384 -1.4362  0.0361  1.1937
  929MOL0     H22597   5.889  11.449  10.226  1.0921 -1.1471  0.6326
  929MOL0     H22598   5.681  11.498  10.333 -0.0134  2.8140  2.7251
  929MOL0     H22599   5.751  11.511  10.497  1.9232  0.6157 -0.3255
  929MOL0     H22600   5.711  11.273  10.313  0.8189 -2.5166  0.0214
  929MOL0     H22601   5.817  11.255  10.455 -1.4571 -2.7640 -1.2316
  929MOL0     H22602   5.552  11.383  10.518  2.9772  2.2037  1.4817
  929MOL0     H22603   5.633  11.263  10.616 -2.4757 -1.3026  0.1038
  929MOL0     H22604   5.452  11.140  10.541  0.1711 -1.2582 -1.0663
  929MOL0     H22605   5.583  11.087  10.439 -1.0678 -1.5448 -0.1090
  929MOL0     H22606   5.425  11.311  10.321  0.7332 -0.6146  0.3187
  929MOL0     H22607   5.503  11.191  10.237 -0.6980  1.6420 -0.7855
  929MOL0     H22608   5.261  11.150  10.233  0.9276  0.9439 -0.5837
  929MOL0     H22609   5.262  11.170  10.417  0.7477 -1.2084  0.3516
  929MOL0     H22610   6.151  11.695  10.421 -0.1375 -0.3786 -0.2938
  929MOL0     H22611   6.388  11.639  10.418  1.6211  1.4614 -1.1688
  929MOL0     H22612   6.823  11.607  10.007  1.7951 -0.5801  0.5367
  929MOL0     H22613   7.051  11.569  10.046  0.1889 -0.3330  0.4976
  929MOL0     H22614   7.341  10.590  10.664  1.6723 -0.4531  2.0158
  929MOL0     H22615   7.557  10.502  10.637 -0.0475  0.2698 -0.5461
  929MOL0     H22616   7.961  10.560  10.466  2.4699  0.8882 -0.9568
  929MOL0     H22617   8.158  10.442  10.385  3.0131 -2.6614  0.5074
  929MOL0     H22618   8.314  10.110  10.617  1.3089  0.0349  1.5372
  929MOL0     H22619   8.429  10.241  10.656 -0.1187  2.2005 -1.6908
  929MOL0     H22620   8.551  10.070  10.515  1.0283 -0.3331 -1.7344
  929MOL0     H22621   8.423  10.101  10.391  0.7072 -0.4142  0.0126
  929MOL0     H22622   8.618  10.301  10.515 -1.0875  1.1754 -0.0735
  929MOL0     H22623   8.512  10.327  10.372 -1.8940 -2.6217 -2.2311
  929MOL0     H22624   8.759  10.277  10.315  0.1881 -1.6168 -2.7846
  929MOL0     H22625   8.743  10.119  10.398 -3.1682 -0.2686  2.8938
  929MOL0     H22626   8.586  10.058  10.012 -1.4324 -3.2182  1.9712
  929MOL0     H22627   8.192  10.261  10.769 -3.2522 -0.6739  1.7656
  929MOL0     H22628   8.001  10.388  10.847  1.4211  1.5715  0.3528
  930MOL0     O22629   1.164   6.346   3.585  0.3043 -0.6708 -0.4755
  930MOL0     C22630   1.248   6.264   3.598 -0.5664  0.2126 -0.3263
  930MOL0     O22631   1.224   6.138   3.647  0.3144  0.2840  0.3662
  930MOL0     C22632   1.094   6.103   3.662 -1.0808 -0.4100  0.9394
  930MOL0     C22633   1.049   6.124   3.782  0.3704  0.4151 -0.6003
  930MOL0     C22634   0.919   6.116   3.819  1.0180 -0.4474 -0.2731
  930MOL0     C22635   0.825   6.086   3.725 -0.5163 -0.3373  0.0016
  930MOL0     O22636   0.697   6.067   3.768  0.3896 -0.5722  0.6414
  930MOL0     C22637   0.635   5.953   3.697  0.2516 -0.1561 -0.3628
  930MOL0     C22638   0.522   5.904   3.786  0.1486 -1.0862  0.3592
  930MOL0     C22639   0.414   5.816   3.705  0.0151  1.0135 -0.3453
  930MOL0     C22640   0.324   5.758   3.809 -0.4325  0.3883 -0.6891
  930MOL0     C22641   0.216   5.680   3.738  0.1914 -0.0438 -0.0437
  930MOL0     C22642   0.115   5.609   3.833  0.4008 -0.4519  0.3077
  930MOL0     C22643  -0.002   5.555   3.752  1.1500 -0.3298  0.0251
  930MOL0     C22644  -0.091   5.484   3.857  0.3575  0.6869 -0.3210
  930MOL0     N22645  -0.232   5.448   3.811  0.6492  0.5752 -0.5480
  930MOL0     C22646  -0.343   5.428   3.899 -0.3560 -0.1802  0.2207
  930MOL0     C22647  -0.447   5.406   3.821  0.5670 -0.5631  0.1510
  930MOL0     C22648  -0.587   5.396   3.862  0.0567  0.3551 -0.1100
  930MOL0     C22649  -0.644   5.262   3.835  0.2380 -0.2830 -0.0158
  930MOL0     C22650  -0.578   5.153   3.929 -0.4960  0.0744 -0.9999
  930MOL0     C22651  -0.672   5.035   3.939 -0.4380  0.5926 -0.0587
  930MOL0     O22652  -0.686   4.971   4.068 -0.2915 -0.1216 -0.2929
  930MOL0     C22653  -0.603   4.879   4.123  0.1391 -0.0375 -0.4375
  930MOL0     C22654  -0.642   4.811   4.242 -0.0881 -0.2544  0.1099
  930MOL0     C22655  -0.573   4.707   4.301 -0.6854  0.4886  0.9880
  930MOL0     C22656  -0.436   4.681   4.260 -0.0357  0.4342 -0.0308
  930MOL0     C22657  -0.347   4.596   4.337  0.0442  0.7608  0.2423
  930MOL0     O22658  -0.412   4.513   4.423  0.4269 -0.0497  0.7907
  930MOL0     C22659  -0.341   4.417   4.491  0.7009 -0.4821  0.1247
  930MOL0     C22660  -0.258   4.331   4.421  0.4064 -0.1469  0.0666
  930MOL0     C22661  -0.181   4.235   4.481 -0.2104  0.3752 -0.0287
  930MOL0     C22662  -0.186   4.225   4.623 -0.0532 -0.4677  0.4960
  930MOL0     O22663  -0.091   4.165   4.704 -0.6246  0.8657  0.1172
  930MOL0     C22664   0.042   4.143   4.656 -0.5414  0.7141  0.3361
  930MOL0     C22665   0.050   3.991   4.621  0.0260  0.3394 -0.3832
  930MOL0     C22666   0.068   3.904   4.748  0.9307 -0.8706  1.2680
  930MOL0     C22667   0.201   3.911   4.829 -0.1307  0.1334 -0.2666
  930MOL0     C22668   0.177   3.954   4.979  0.5235  0.7105  0.1686
  930MOL0     C22669   0.311   3.919   5.058 -0.0609 -0.3153  0.2624
  930MOL0     C22670   0.302   3.997   5.187 -0.2965  0.6250 -0.4431
  930MOL0     C22671   0.427   3.979   5.281 -0.5007 -0.0232 -0.2102
  930MOL0    Cl22672   0.581   3.976   5.195  0.1846  0.0784 -0.3633
  930MOL0     C22673  -0.270   4.313   4.690  0.4260  0.1310 -0.2547
  930MOL0     C22674  -0.343   4.410   4.627  0.2336  0.8870 -0.8619
  930MOL0     O22675  -0.225   4.604   4.317 -0.4448 -0.1730 -0.8958
  930MOL0     C22676  -0.390   4.753   4.142  0.3153 -0.0013  0.2100
  930MOL0     C22677  -0.473   4.849   4.078  0.4482  0.3668  0.0190
  930MOL0     N22678  -0.408   5.402   3.683  0.9795  0.2893  0.7887
  930MOL0     N22679  -0.286   5.422   3.684  0.3098  0.0325 -0.1061
  930MOL0     C22680   0.871   6.071   3.595  0.1254 -0.1696 -0.3862
  930MOL0     C22681   1.008   6.073   3.557 -0.2488  0.1758  0.6462
  930MOL0     C22682   1.383   6.302   3.560 -0.4582 -0.6368 -0.6518
  930MOL0     C22683   1.487   6.200   3.548 -0.6317 -0.1835  0.1451
  930MOL0     C22684   1.611   6.230   3.492 -0.2546 -1.0762  0.1062
  930MOL0     C22685   1.648   6.355   3.452  0.4832 -0.3313  0.2868
  930MOL0     O22686   1.780   6.363   3.412  0.8280  0.0860 -0.2543
  930MOL0     C22687   1.825   6.501   3.401 -0.4568  0.7329 -0.1486
  930MOL0     C22688   1.850   6.567   3.543 -0.3649 -0.0971  0.7945
  930MOL0     C22689   1.988   6.519   3.599 -0.6368 -0.3830  0.5983
  930MOL0     C22690   1.998   6.525   3.751  0.1608 -1.1171  0.6638
  930MOL0     C22691   1.899   6.464   3.834 -0.6819  0.7685 -0.8634
  930MOL0     C22692   1.809   6.409   3.911 -0.3767  0.2836  0.3299
  930MOL0     C22693   1.546   6.459   3.464 -0.2366 -0.0700 -0.7433
  930MOL0     C22694   1.416   6.436   3.523  0.7894  0.3458  0.4157
  930MOL0     H22695   1.115   6.146   3.865  0.9875 -0.5504 -0.8204
  930MOL0     H22696   0.881   6.119   3.921 -1.1117 -1.1789 -0.9858
  930MOL0     H22697   0.705   5.872   3.678 -0.0225 -0.2667 -0.9235
  930MOL0     H22698   0.587   5.990   3.606  2.2457  1.0939 -0.9712
  930MOL0     H22699   0.478   5.991   3.836 -0.3584 -2.2384  2.0302
  930MOL0     H22700   0.556   5.830   3.860 -2.2315 -2.2675  0.3910
  930MOL0     H22701   0.459   5.732   3.651  0.0517 -0.1618  1.4273
  930MOL0     H22702   0.353   5.877   3.638 -0.6035 -1.0373 -1.7356
  930MOL0     H22703   0.385   5.689   3.867 -4.1910 -3.4715 -0.7902
  930MOL0     H22704   0.283   5.833   3.878  1.0882  0.0508  0.6205
  930MOL0     H22705   0.263   5.606   3.672 -1.0708  0.1335 -1.1981
  930MOL0     H22706   0.164   5.744   3.666 -2.5559 -2.8922 -0.7932
  930MOL0     H22707   0.081   5.676   3.912 -1.1959 -0.8034 -0.0613
  930MOL0     H22708   0.160   5.524   3.885 -0.4637 -0.9506  0.2584
  930MOL0     H22709  -0.054   5.643   3.711  0.7930 -1.3052 -1.7072
  930MOL0     H22710   0.031   5.493   3.669  0.2758 -2.8756  1.4747
  930MOL0     H22711  -0.107   5.548   3.945 -2.7885 -1.9230  1.2391
  930MOL0     H22712  -0.036   5.393   3.881  1.0445  0.4629 -2.5193
  930MOL0     H22713  -0.355   5.442   4.006 -1.6606  1.1529 -0.0692
  930MOL0     H22714  -0.646   5.480   3.826 -1.6667 -0.7012  0.1186
  930MOL0     H22715  -0.590   5.405   3.970  3.3403 -0.2759  0.1535
  930MOL0     H22716  -0.629   5.225   3.733 -2.5251  0.0399 -0.6094
  930MOL0     H22717  -0.752   5.264   3.850 -0.1269  2.7624 -2.1788
  930MOL0     H22718  -0.477   5.139   3.891 -1.4658 -0.7702 -3.5008
  930MOL0     H22719  -0.579   5.194   4.031 -5.1287  0.3850 -0.9475
  930MOL0     H22720  -0.638   4.952   3.877  2.2147  1.3996  0.2229
  930MOL0     H22721  -0.771   5.066   3.905 -0.0533  2.7770  0.6324
  930MOL0     H22722  -0.744   4.826   4.275  0.0322  1.4701 -0.2263
  930MOL0     H22723  -0.623   4.642   4.372 -0.3192  0.3965  1.1644
  930MOL0     H22724  -0.255   4.341   4.313 -1.0312  1.5223  0.1445
  930MOL0     H22725  -0.123   4.176   4.411 -0.1381  0.8106 -0.3391
  930MOL0     H22726   0.105   4.179   4.738 -1.2455  1.1150  0.7065
  930MOL0     H22727   0.066   4.194   4.562 -1.9282 -0.1883 -0.5538
  930MOL0     H22728   0.143   3.967   4.570  0.9066 -1.1206  1.7421
  930MOL0     H22729  -0.029   3.969   4.549 -1.5922  1.9774  0.8101
  930MOL0     H22730   0.042   3.804   4.712 -2.7155 -0.4601  2.2912
  930MOL0     H22731  -0.013   3.926   4.818 -0.8747 -0.2399 -0.8924
  930MOL0     H22732   0.243   3.810   4.823 -0.7632 -0.1923  0.5416
  930MOL0     H22733   0.263   3.989   4.785  0.6575 -0.9372 -1.1134
  930MOL0     H22734   0.092   3.899   5.021  0.1029  1.7354  0.6725
  930MOL0     H22735   0.141   4.057   4.981 -1.3723  0.0702  1.2349
  930MOL0     H22736   0.396   3.953   4.998  1.3169 -3.0706  0.5067
  930MOL0     H22737   0.308   3.814   5.089  3.6166 -0.7193 -0.3072
  930MOL0     H22738   0.295   4.102   5.157 -1.1621  1.1074  1.2911
  930MOL0     H22739   0.209   3.976   5.241  0.4441  3.5337  2.2737
  930MOL0     H22740   0.424   3.885   5.336  1.6920  0.9970  1.8609
  930MOL0     H22741   0.429   4.053   5.362 -0.2160 -1.8651  1.5408
  930MOL0     H22742  -0.264   4.305   4.798  1.6399 -1.1151 -0.3872
  930MOL0     H22743  -0.403   4.482   4.682  0.4560 -0.0419  0.6544
  930MOL0     H22744  -0.285   4.752   4.115  0.4228 -1.6563  0.5846
  930MOL0     H22745  -0.430   4.900   3.993  2.9220  0.9758  1.5583
  930MOL0     H22746   0.797   6.049   3.519  0.4652 -0.2451 -0.6988
  930MOL0     H22747   1.054   6.072   3.459 -3.2166  3.4812 -0.9959
  930MOL0     H22748   1.466   6.095   3.569  1.6127 -0.9776 -1.2044
  930MOL0     H22749   1.684   6.151   3.478  1.8702  1.0207 -1.4464
  930MOL0     H22750   1.759   6.557   3.334 -3.3778 -0.1612  1.7883
  930MOL0     H22751   1.927   6.503   3.362  1.2058  1.4290  3.7661
  930MOL0     H22752   1.861   6.674   3.523 -1.7834 -0.2257 -0.9581
  930MOL0     H22753   1.761   6.553   3.605 -0.6429 -0.6280  0.2810
  930MOL0     H22754   2.076   6.569   3.557 -0.8634 -0.1148  0.4436
  930MOL0     H22755   2.011   6.414   3.575 -0.3278 -0.3204  0.6200
  930MOL0     H22756   2.094   6.492   3.791 -0.7154 -0.9759  2.9840
  930MOL0     H22757   2.000   6.632   3.769 -0.9019 -1.1662  1.1365
  930MOL0     H22758   1.734   6.358   3.969 -1.4617 -0.3609 -1.5588
  930MOL0     H22759   1.573   6.561   3.438  1.7295 -0.4352 -0.3461
  930MOL0     H22760   1.341   6.514   3.532  0.4606 -0.1291  2.2904
  931MOL0     O22761   2.368  10.758   8.019 -0.3909  0.5350  0.3221
  931MOL0     C22762   2.466  10.754   7.946 -0.7173 -0.0381 -0.8965
  931MOL0     O22763   2.463  10.749   7.817  0.5415 -0.1057  0.2874
  931MOL0     C22764   2.343  10.736   7.752 -0.3857  0.4355  0.3281
  931MOL0     C22765   2.240  10.831   7.745  0.0605 -0.4906 -0.1524
  931MOL0     C22766   2.122  10.814   7.660 -0.3850 -0.1922 -0.3995
  931MOL0     C22767   2.105  10.698   7.588 -0.3229  0.3810 -0.5394
  931MOL0     O22768   1.995  10.676   7.508 -1.0824  0.7241 -0.1862
  931MOL0     C22769   1.889  10.603   7.567 -0.1419 -0.2081 -0.5864
  931MOL0     C22770   1.774  10.609   7.475 -0.6948 -0.1353  0.8673
  931MOL0     C22771   1.656  10.535   7.517 -0.0868  0.7483  0.1279
  931MOL0     C22772   1.553  10.514   7.407  0.4364 -0.5741 -0.2707
  931MOL0     C22773   1.436  10.432   7.462 -0.7036  0.0280 -0.7872
  931MOL0     C22774   1.311  10.428   7.375 -0.1198  0.0068 -0.0782
  931MOL0     C22775   1.201  10.397   7.481  0.6519  0.9425  0.8273
  931MOL0     C22776   1.074  10.355   7.401 -0.1156  0.4188  0.8240
  931MOL0     N22777   0.972  10.276   7.475  0.7776 -0.5688 -0.5146
  931MOL0     C22778   0.895  10.332   7.576  0.3695 -0.0100 -0.3439
  931MOL0     C22779   0.801  10.238   7.610  0.7418  0.1033 -0.2892
  931MOL0     C22780   0.702  10.260   7.728 -0.1585  0.3534  0.1080
  931MOL0     C22781   0.610  10.384   7.728  0.2599  0.3474 -0.3866
  931MOL0     C22782   0.522  10.359   7.604  0.3669 -0.2910 -0.6497
  931MOL0     C22783   0.385  10.295   7.646  0.0502 -0.9138 -0.0292
  931MOL0     O22784   0.421  10.159   7.637 -0.2457 -0.2906  0.2284
  931MOL0     C22785   0.327  10.070   7.651  0.7734 -0.9321 -0.4897
  931MOL0     C22786   0.377   9.944   7.656 -0.7797 -0.1214 -0.6730
  931MOL0     C22787   0.298   9.837   7.701 -0.6638 -0.5493 -0.6572
  931MOL0     C22788   0.159   9.851   7.720  0.2627 -0.4337 -0.1253
  931MOL0     C22789   0.080   9.729   7.759 -0.2203 -0.2587  0.2874
  931MOL0     O22790   0.147   9.604   7.748 -0.7787  0.9456  0.5139
  931MOL0     C22791   0.078   9.498   7.789  1.0592  0.5733 -0.0465
  931MOL0     C22792   0.040   9.399   7.706 -0.6953 -0.1322 -0.0809
  931MOL0     C22793  -0.016   9.285   7.766 -0.6466  0.3977  0.2843
  931MOL0     C22794  -0.051   9.276   7.904 -0.0352  0.3138  0.9452
  931MOL0     O22795  -0.109   9.169   7.963 -0.1273 -0.0320 -0.6950
  931MOL0     C22796  -0.118   9.048   7.889 -0.4870  0.3659 -0.0805
  931MOL0     C22797  -0.255   9.034   7.813  0.6165 -0.8623  0.8201
  931MOL0     C22798  -0.276   8.897   7.757 -0.6203  0.2183  0.4175
  931MOL0     C22799  -0.414   8.892   7.685  0.0424  0.0595  0.7391
  931MOL0     C22800  -0.432   8.741   7.640  0.0546 -0.6924  0.4011
  931MOL0     C22801  -0.548   8.725   7.545  0.4551  0.0671  0.1470
  931MOL0     C22802  -0.574   8.581   7.511  0.3784 -0.1469 -1.1822
  931MOL0     C22803  -0.635   8.553   7.372 -0.8072 -0.0382 -0.1469
  931MOL0    Cl22804  -0.801   8.628   7.352  0.5197  0.1163 -0.3741
  931MOL0     C22805  -0.011   9.380   7.984 -1.2532  0.7763  0.4221
  931MOL0     C22806   0.059   9.481   7.929 -0.0351 -0.2465 -0.0146
  931MOL0     O22807  -0.032   9.742   7.807  0.2674  0.0605  0.7501
  931MOL0     C22808   0.105   9.977   7.711  0.5510  0.1325  0.2563
  931MOL0     C22809   0.190  10.085   7.679 -0.3253 -0.3060  0.9434
  931MOL0     N22810   0.826  10.127   7.524 -0.5073  0.0471 -0.6497
  931MOL0     N22811   0.907  10.164   7.436  0.2671 -0.5103  0.0549
  931MOL0     C22812   2.193  10.593   7.609  0.0975  0.1794  0.1167
  931MOL0     C22813   2.320  10.620   7.674  0.1075 -0.6455  0.4233
  931MOL0     C22814   2.607  10.743   8.010  0.3667  0.7071  1.4393
  931MOL0     C22815   2.624  10.781   8.140  0.0396  0.8784  0.1803
  931MOL0     C22816   2.750  10.784   8.196 -0.4802 -0.4092  0.7549
  931MOL0     C22817   2.862  10.734   8.125  0.1797  0.0285 -0.8731
  931MOL0     O22818   2.976  10.737   8.204 -0.3452 -1.0529  0.1060
  931MOL0     C22819   3.093  10.759   8.128 -0.0454  0.5545  0.5214
  931MOL0     C22820   3.183  10.839   8.220 -0.4959  0.0825  0.1914
  931MOL0     C22821   3.291  10.917   8.143  0.4134  0.8151 -0.6667
  931MOL0     C22822   3.368  10.991   8.254  0.2139 -0.0360 -0.3971
  931MOL0     C22823   3.481  10.913   8.284 -1.4019 -0.6078  0.4907
  931MOL0     C22824   3.570  10.852   8.334  0.0664  0.2709  0.3138
  931MOL0     C22825   2.846  10.695   7.995  0.8316  0.2460  0.6230
  931MOL0     C22826   2.716  10.704   7.926 -0.2614 -0.0758  0.0587
  931MOL0     H22827   2.247  10.925   7.798  0.4816 -0.8369  0.4196
  931MOL0     H22828   2.053  10.898   7.659  1.6331  1.6470  1.9457
  931MOL0     H22829   1.861  10.637   7.667 -1.6933  1.5008 -1.5440
  931MOL0     H22830   1.913  10.496   7.569 -2.6998 -0.8868  2.6158
  931MOL0     H22831   1.806  10.558   7.384 -1.0641  0.0189  0.6499
  931MOL0     H22832   1.757  10.716   7.463 -1.4118 -0.2092  1.1831
  931MOL0     H22833   1.607  10.590   7.598 -4.1416 -0.5424 -1.1668
  931MOL0     H22834   1.694  10.441   7.557 -0.7243 -0.7278 -2.5139
  931MOL0     H22835   1.517  10.612   7.376 -4.5539 -1.5534  1.5180
  931MOL0     H22836   1.594  10.462   7.320  1.4989 -0.6061  0.2301
  931MOL0     H22837   1.412  10.474   7.560 -0.5894 -0.4514 -0.5469
  931MOL0     H22838   1.482  10.334   7.478 -1.6073 -0.0205  2.0785
  931MOL0     H22839   1.312  10.351   7.297 -2.7881 -0.1134 -0.1010
  931MOL0     H22840   1.293  10.529   7.338  0.4281  0.0855 -0.1289
  931MOL0     H22841   1.234  10.312   7.542  1.9881  0.7577 -0.1026
  931MOL0     H22842   1.162  10.477   7.545 -1.3600  1.6196 -1.1240
  931MOL0     H22843   1.098  10.291   7.315 -0.3324  3.4739 -1.6690
  931MOL0     H22844   1.031  10.447   7.361  0.1294 -0.2408 -1.0899
  931MOL0     H22845   0.918  10.425   7.627 -2.8118  1.7119 -1.7576
  931MOL0     H22846   0.760  10.262   7.820  3.0658 -3.2997 -1.5729
  931MOL0     H22847   0.638  10.171   7.733  3.5434 -2.5281  0.5979
  931MOL0     H22848   0.671  10.473   7.712  0.1704 -0.1566 -5.2979
  931MOL0     H22849   0.560  10.375   7.825 -1.3164 -1.1082 -1.2708
  931MOL0     H22850   0.494  10.459   7.571 -1.1076  0.1481  1.6437
  931MOL0     H22851   0.556  10.308   7.514  0.6090 -0.5583 -0.4104
  931MOL0     H22852   0.301  10.319   7.581 -0.1185  1.1879  0.8517
  931MOL0     H22853   0.358  10.323   7.749 -1.0969  2.5974 -1.1276
  931MOL0     H22854   0.478   9.917   7.628 -0.1582  0.2313  1.1280
  931MOL0     H22855   0.347   9.741   7.713  1.1509  0.1455 -1.9850
  931MOL0     H22856   0.058   9.403   7.599  0.1573 -2.3731 -0.0992
  931MOL0     H22857  -0.040   9.201   7.702 -2.1397  1.1950 -0.2496
  931MOL0     H22858  -0.108   8.958   7.951 -0.8019 -0.8272 -1.7154
  931MOL0     H22859  -0.035   9.051   7.818 -0.7167  3.3564 -0.3354
  931MOL0     H22860  -0.254   9.109   7.734  2.9031 -2.1379 -0.4667
  931MOL0     H22861  -0.332   9.054   7.888  1.7999 -0.8525  2.0740
  931MOL0     H22862  -0.260   8.830   7.842  1.3763  2.4497  1.9476
  931MOL0     H22863  -0.205   8.884   7.675  0.1351  5.4854 -0.1617
  931MOL0     H22864  -0.501   8.927   7.740  1.8629  0.2032  3.7539
  931MOL0     H22865  -0.412   8.960   7.599 -1.4816  0.6653  1.1587
  931MOL0     H22866  -0.446   8.674   7.725  1.3357 -3.7859 -1.6204
  931MOL0     H22867  -0.343   8.702   7.588 -1.0861 -0.4742 -1.8491
  931MOL0     H22868  -0.521   8.783   7.456  0.2116 -1.1584 -0.7452
  931MOL0     H22869  -0.633   8.774   7.593  2.2869  2.2227  1.4172
  931MOL0     H22870  -0.478   8.529   7.516 -0.7104 -2.4373 -2.6104
  931MOL0     H22871  -0.644   8.546   7.587 -0.9989  1.5657 -1.5829
  931MOL0     H22872  -0.651   8.445   7.361 -0.6067 -0.0393 -0.4348
  931MOL0     H22873  -0.561   8.575   7.295 -0.7165  1.1333  0.2593
  931MOL0     H22874  -0.030   9.370   8.091  2.3406  2.1872  1.3219
  931MOL0     H22875   0.095   9.561   7.994 -0.0532  0.0325 -0.3447
  931MOL0     H22876  -0.001   9.988   7.731  0.9459  0.6846  2.2366
  931MOL0     H22877   0.142  10.182   7.669  0.1922 -0.2747 -2.0528
  931MOL0     H22878   2.178  10.502   7.551 -2.9267  0.0526  0.9225
  931MOL0     H22879   2.403  10.552   7.659  2.0633  2.1374 -2.6665
  931MOL0     H22880   2.539  10.822   8.193  0.8321 -1.0440  3.1672
  931MOL0     H22881   2.749  10.810   8.302 -0.7849 -0.4631  0.7695
  931MOL0     H22882   3.072  10.829   8.047  0.4680 -1.4965 -1.5001
  931MOL0     H22883   3.132  10.660   8.101  1.1402  0.6959  1.6055
  931MOL0     H22884   3.120  10.911   8.273 -0.2051 -0.7227  1.6555
  931MOL0     H22885   3.223  10.770   8.294 -1.1481  1.3827  1.8161
  931MOL0     H22886   3.227  10.991   8.093 -1.2827  1.3560  2.0961
  931MOL0     H22887   3.360  10.862   8.078 -0.1531 -0.0874 -0.5329
  931MOL0     H22888   3.397  11.090   8.217 -0.5777  0.1369 -0.5751
  931MOL0     H22889   3.305  11.008   8.342 -0.1924  0.3587 -0.7568
  931MOL0     H22890   3.656  10.792   8.357  0.9647  2.8448  5.1535
  931MOL0     H22891   2.927  10.660   7.931  0.2194  2.3678 -1.4353
  931MOL0     H22892   2.708  10.691   7.819  1.9959  1.0721 -0.3008
  932MOL0     O22893  10.221   7.882   2.671  1.0942  0.3962 -0.5127
  932MOL0     C22894  10.231   7.967   2.759  0.4735  0.5605 -0.1361
  932MOL0     O22895  10.141   7.977   2.857  0.1101  0.0154 -0.0668
  932MOL0     C22896  10.043   7.875   2.856  0.0103 -0.6578 -0.6649
  932MOL0     C22897   9.910   7.899   2.815  0.4200 -0.4603 -1.3318
  932MOL0     C22898   9.817   7.802   2.816  0.5687 -0.7931 -0.4829
  932MOL0     C22899   9.847   7.673   2.865 -0.5919 -0.2409 -0.7098
  932MOL0     O22900   9.743   7.585   2.850  0.6158  0.2921 -0.9765
  932MOL0     C22901   9.787   7.448   2.854  1.1290 -1.0145  0.0805
  932MOL0     C22902   9.679   7.366   2.800  0.9759  0.1080 -0.5947
  932MOL0     C22903   9.535   7.387   2.853 -0.4987  0.2468  0.3595
  932MOL0     C22904   9.443   7.285   2.793 -0.3412 -0.4697  0.8241
  932MOL0     C22905   9.312   7.290   2.871 -0.2027 -0.3953  0.9727
  932MOL0     C22906   9.222   7.178   2.820 -0.5755  0.2782 -0.3419
  932MOL0     C22907   9.085   7.194   2.878 -0.3789  1.4205  0.5429
  932MOL0     C22908   8.978   7.095   2.832  0.1442  0.6177  0.6447
  932MOL0     N22909   8.857   7.132   2.902  0.5341  0.1709 -0.3422
  932MOL0     C22910   8.839   7.106   3.036 -0.1129  0.2156  0.3549
  932MOL0     C22911   8.717   7.158   3.076  0.6647 -0.2896 -0.3979
  932MOL0     C22912   8.656   7.128   3.205  0.4040  0.4763 -1.2344
  932MOL0     C22913   8.704   7.221   3.313 -0.6255  0.7947  0.0143
  932MOL0     C22914   8.638   7.173   3.448 -0.2545  0.0943  0.9521
  932MOL0     C22915   8.476   7.200   3.433 -0.3198 -0.0307  0.2066
  932MOL0     O22916   8.409   7.078   3.416  0.7384 -0.5435 -0.4524
  932MOL0     C22917   8.264   7.069   3.417  0.6877 -0.0516 -0.5684
  932MOL0     C22918   8.197   6.947   3.427 -0.2312  0.1695 -0.5325
  932MOL0     C22919   8.057   6.937   3.438 -0.3171 -0.0623 -0.2401
  932MOL0     C22920   7.978   7.059   3.455  0.6964 -0.4457  0.1637
  932MOL0     C22921   7.834   7.038   3.479 -0.1102 -0.9500  0.0239
  932MOL0     O22922   7.769   7.154   3.490 -0.4302  0.0016 -0.0123
  932MOL0     C22923   7.641   7.150   3.548  0.3325  0.3471 -0.2233
  932MOL0     C22924   7.617   7.165   3.683 -0.2428 -0.6360 -0.2182
  932MOL0     C22925   7.488   7.139   3.739  0.5263 -0.4658  0.5155
  932MOL0     C22926   7.381   7.110   3.655  0.1737 -0.8398  0.8885
  932MOL0     O22927   7.260   7.095   3.727  0.1426  0.0869  0.0801
  932MOL0     C22928   7.144   7.072   3.643  0.3643  0.0510  0.1084
  932MOL0     C22929   7.021   7.080   3.727 -0.3271  0.0982 -0.2538
  932MOL0     C22930   6.891   7.067   3.645  0.3491 -0.0215 -0.4638
  932MOL0     C22931   6.761   7.103   3.718  0.2158  1.0034  0.7553
  932MOL0     C22932   6.632   7.057   3.636  0.0629  0.4426 -1.3496
  932MOL0     C22933   6.501   7.088   3.718 -0.3611 -1.1398 -0.3127
  932MOL0     C22934   6.493   7.221   3.797 -0.1070 -0.0957 -0.3506
  932MOL0     C22935   6.370   7.237   3.883 -0.3034 -0.2419 -0.3701
  932MOL0    Cl22936   6.217   7.221   3.797 -0.1880  0.5778  0.5029
  932MOL0     C22937   7.405   7.100   3.516 -0.3454 -0.9018  0.4250
  932MOL0     C22938   7.533   7.122   3.463 -0.3820  0.3676  0.3132
  932MOL0     O22939   7.777   6.931   3.482 -0.0711 -0.4009 -0.3864
  932MOL0     C22940   8.037   7.187   3.441 -0.9365  0.8760  0.5123
  932MOL0     C22941   8.180   7.190   3.419  0.0934  0.7323 -0.1075
  932MOL0     N22942   8.655   7.195   2.960  0.3150  0.5902  0.5381
  932MOL0     N22943   8.740   7.197   2.858 -0.3450 -0.3335 -0.1048
  932MOL0     C22944   9.977   7.652   2.926  0.3705 -0.1000  0.0219
  932MOL0     C22945  10.069   7.753   2.921  0.3266 -0.4344  0.2647
  932MOL0     C22946  10.344   8.057   2.755  0.8860 -0.4277 -0.8651
  932MOL0     C22947  10.356   8.178   2.829  0.7503  0.0016  0.6314
  932MOL0     C22948  10.473   8.258   2.815  0.2650 -0.5926  0.2089
  932MOL0     C22949  10.573   8.227   2.722  0.2774  0.3312 -0.3092
  932MOL0     O22950  10.679   8.310   2.713 -0.1328  0.4490 -0.0640
  932MOL0     C22951  10.665   8.410   2.610  0.1516 -0.1858  0.5508
  932MOL0     C22952  10.761   8.523   2.645  0.0745  0.7081  0.3045
  932MOL0     C22953  10.893   8.507   2.584 -0.7465 -0.1946  0.1049
  932MOL0     C22954  10.981   8.622   2.636  0.7899  0.0812 -0.6767
  932MOL0     C22955  11.119   8.597   2.583 -0.1714 -1.5158 -0.0923
  932MOL0     C22956  11.236   8.580   2.548 -0.5015  0.7179 -0.0757
  932MOL0     C22957  10.569   8.116   2.647  0.3094 -1.1172 -0.3467
  932MOL0     C22958  10.456   8.034   2.660  0.1759  0.2678  0.2925
  932MOL0     H22959   9.876   7.995   2.777  0.2599  0.7209  1.5760
  932MOL0     H22960   9.712   7.806   2.790  0.2231  0.0492  0.9162
  932MOL0     H22961   9.803   7.416   2.958  0.0050 -0.9111  0.2936
  932MOL0     H22962   9.877   7.436   2.794  1.4704 -1.8715  0.7316
  932MOL0     H22963   9.718   7.266   2.823  4.3382  2.0122  3.5319
  932MOL0     H22964   9.672   7.381   2.692 -0.7771 -1.8315 -0.8055
  932MOL0     H22965   9.505   7.488   2.824  1.3933  0.7728  0.0960
  932MOL0     H22966   9.540   7.380   2.962 -0.4901 -4.1368  0.2754
  932MOL0     H22967   9.425   7.290   2.685  3.0934  2.2169  0.2115
  932MOL0     H22968   9.490   7.188   2.810  2.1159  0.7933  1.6538
  932MOL0     H22969   9.249   7.378   2.859 -4.0953 -2.9413  0.8510
  932MOL0     H22970   9.334   7.280   2.977  1.0458  1.3155  0.9040
  932MOL0     H22971   9.271   7.084   2.846  0.7340  1.1178  0.2982
  932MOL0     H22972   9.221   7.182   2.711  1.3914  0.2721 -0.3876
  932MOL0     H22973   9.099   7.173   2.985 -0.2198  0.6778  0.3862
  932MOL0     H22974   9.044   7.294   2.863  0.8049  1.9955  0.9709
  932MOL0     H22975   9.007   6.991   2.845  1.6106  0.6779 -1.6028
  932MOL0     H22976   8.961   7.122   2.727 -0.1000  2.9037  1.2222
  932MOL0     H22977   8.901   7.033   3.088 -1.9477 -1.0915  0.8062
  932MOL0     H22978   8.666   7.020   3.217 -1.3363  0.3560 -0.4866
  932MOL0     H22979   8.550   7.144   3.184  0.2543  1.2889 -0.0032
  932MOL0     H22980   8.677   7.325   3.291  1.9459  1.6906  0.6984
  932MOL0     H22981   8.812   7.213   3.324 -0.9228 -1.4113  2.2025
  932MOL0     H22982   8.652   7.067   3.469 -2.5877 -0.3100  0.7128
  932MOL0     H22983   8.695   7.227   3.524  2.1620  1.8142 -1.8609
  932MOL0     H22984   8.457   7.263   3.345  1.3907 -1.0136 -0.9356
  932MOL0     H22985   8.432   7.240   3.524  0.2459 -1.9385  1.3676
  932MOL0     H22986   8.257   6.857   3.432 -0.5668  0.0282  1.9770
  932MOL0     H22987   8.007   6.841   3.450 -3.2655  1.6876  3.4471
  932MOL0     H22988   7.685   7.214   3.752 -0.4274  1.3035 -1.3312
  932MOL0     H22989   7.461   7.152   3.843 -0.9918 -1.5435  0.2994
  932MOL0     H22990   7.159   6.972   3.601 -0.1608 -0.5049  1.1837
  932MOL0     H22991   7.146   7.142   3.559  1.6336  1.9688  1.6317
  932MOL0     H22992   7.033   7.176   3.779 -2.9837 -0.2165  1.1046
  932MOL0     H22993   7.016   7.004   3.804 -5.4681  0.5608  0.2218
  932MOL0     H22994   6.891   6.961   3.618 -1.1053 -0.2114  0.1961
  932MOL0     H22995   6.895   7.118   3.549 -0.9926  0.3068 -0.3639
  932MOL0     H22996   6.753   7.047   3.812  0.7973  0.5778  0.5608
  932MOL0     H22997   6.754   7.211   3.730 -0.5223  1.0093  0.3534
  932MOL0     H22998   6.633   6.953   3.602  1.9396  0.4425 -1.3864
  932MOL0     H22999   6.646   7.119   3.548  1.4055  2.1082 -0.0502
  932MOL0     H23000   6.478   7.006   3.787  1.0048 -0.7933  0.6015
  932MOL0     H23001   6.420   7.088   3.644 -3.0388 -0.6772  2.3803
  932MOL0     H23002   6.581   7.242   3.859  1.2822 -0.0662 -2.2483
  932MOL0     H23003   6.495   7.304   3.725 -0.9317  3.2771  3.1506
  932MOL0     H23004   6.362   7.338   3.925  0.3728 -0.4917  0.3867
  932MOL0     H23005   6.378   7.167   3.966  1.3463 -1.1496 -1.2325
  932MOL0     H23006   7.341   7.067   3.435  2.3895 -3.4734 -0.8549
  932MOL0     H23007   7.556   7.115   3.357  4.3329  1.2220  1.0712
  932MOL0     H23008   7.994   7.285   3.456  1.7934  1.6458  5.3387
  932MOL0     H23009   8.214   7.293   3.410 -0.7330  1.0816  0.5521
  932MOL0     H23010   9.995   7.566   2.990 -0.7317  0.1467  0.6850
  932MOL0     H23011  10.168   7.758   2.963  1.1218  2.3014 -1.6915
  932MOL0     H23012  10.277   8.203   2.899  0.8725  0.7588  0.5019
  932MOL0     H23013  10.494   8.344   2.877  2.1989 -0.6313 -0.3172
  932MOL0     H23014  10.570   8.464   2.609 -0.3460 -1.0200 -0.9319
  932MOL0     H23015  10.685   8.378   2.507  0.6180  1.8291 -0.0351
  932MOL0     H23016  10.716   8.620   2.626 -0.7864  0.8633  2.7592
  932MOL0     H23017  10.777   8.532   2.753 -0.2232  1.0881  0.3150
  932MOL0     H23018  10.878   8.524   2.477 -1.2060 -1.7481 -0.1135
  932MOL0     H23019  10.941   8.409   2.593 -1.5212 -0.5289  0.7487
  932MOL0     H23020  10.948   8.722   2.608  0.1308  0.8946  2.5573
  932MOL0     H23021  10.988   8.619   2.745 -0.2210  4.2361 -0.3381
  932MOL0     H23022  11.338   8.550   2.536 -0.5810 -0.8530  2.4097
  932MOL0     H23023  10.642   8.091   2.571 -1.4737 -2.1416 -1.7826
  932MOL0     H23024  10.453   7.949   2.594  3.1946  1.4499 -1.5940
  933MOL0     O23025   4.871   1.665   6.297 -0.0281  0.6476 -0.0043
  933MOL0     C23026   4.896   1.705   6.187 -0.5825  0.0661  1.1037
  933MOL0     O23027   5.021   1.752   6.142  0.1191  0.3725 -1.0563
  933MOL0     C23028   5.134   1.744   6.223 -0.0131 -1.3250  0.4270
  933MOL0     C23029   5.130   1.804   6.345 -0.7836 -1.5361 -0.5556
  933MOL0     C23030   5.250   1.802   6.422  0.2487  0.9757 -0.5062
  933MOL0     C23031   5.365   1.743   6.377 -0.4704 -0.5347  0.1031
  933MOL0     O23032   5.484   1.731   6.448  0.1771  0.7714 -0.8084
  933MOL0     C23033   5.525   1.837   6.539  0.2694  0.3000  0.0303
  933MOL0     C23034   5.678   1.859   6.527  0.4180  0.0792  0.4253
  933MOL0     C23035   5.761   1.731   6.517 -0.1088 -0.6853 -1.1160
  933MOL0     C23036   5.910   1.752   6.545 -0.4858 -0.3277  0.3077
  933MOL0     C23037   5.950   1.746   6.694  1.0071  0.4405 -0.4612
  933MOL0     C23038   6.091   1.691   6.711  0.0030  0.5677  0.3852
  933MOL0     C23039   6.206   1.775   6.647 -0.1592  0.7790  1.5418
  933MOL0     C23040   6.306   1.828   6.746  0.4824 -0.4845 -0.0617
  933MOL0     N23041   6.256   1.944   6.815 -0.1424 -0.7626 -0.1942
  933MOL0     C23042   6.138   1.965   6.880 -0.2301 -0.7391  0.0747
  933MOL0     C23043   6.118   2.101   6.874  0.3954  0.3360 -0.4926
  933MOL0     C23044   6.002   2.175   6.949  0.4731  0.1356  0.1450
  933MOL0     C23045   5.862   2.137   6.897 -0.8358  0.8071  0.3217
  933MOL0     C23046   5.749   2.133   7.007  0.0618  0.2942 -1.2446
  933MOL0     C23047   5.621   2.068   6.960 -0.9062  0.3921 -0.1480
  933MOL0     O23048   5.550   2.149   6.858 -0.4453 -0.8890  0.2982
  933MOL0     C23049   5.418   2.130   6.817 -0.0555 -0.2918 -0.5375
  933MOL0     C23050   5.378   2.196   6.697  0.2464  0.5763  0.8213
  933MOL0     C23051   5.248   2.167   6.646  1.1030 -0.7678 -0.8852
  933MOL0     C23052   5.163   2.077   6.714 -0.7210 -0.5559  0.5296
  933MOL0     C23053   5.026   2.048   6.657 -0.1271  0.2259 -0.2739
  933MOL0     O23054   4.949   1.941   6.707  0.2605  0.7812 -0.0897
  933MOL0     C23055   4.820   1.921   6.661  0.4883 -0.8287  0.3253
  933MOL0     C23056   4.792   1.814   6.575  0.0753 -0.0499  0.9185
  933MOL0     C23057   4.662   1.788   6.529  0.1626  0.0992 -0.2819
  933MOL0     C23058   4.550   1.866   6.562 -0.4638 -0.2207 -0.4343
  933MOL0     O23059   4.435   1.852   6.499 -0.5819 -0.3347  0.5163
  933MOL0     C23060   4.347   1.745   6.545 -0.2116  0.1366  0.2822
  933MOL0     C23061   4.216   1.732   6.460  0.4065  0.4564  0.3029
  933MOL0     C23062   4.243   1.727   6.304 -0.4243 -0.2077  0.6227
  933MOL0     C23063   4.115   1.730   6.215 -0.0776 -0.1812 -1.2071
  933MOL0     C23064   4.142   1.716   6.063 -0.3787 -0.6201 -0.7253
  933MOL0     C23065   4.030   1.720   5.964  1.6580 -0.1640 -0.6287
  933MOL0     C23066   3.962   1.856   5.987  0.2992  1.2803 -0.5928
  933MOL0     C23067   3.830   1.862   5.907 -0.5689 -0.9138  0.3940
  933MOL0    Cl23068   3.765   2.040   5.913 -0.4898 -0.1576 -0.2256
  933MOL0     C23069   4.577   1.974   6.656 -0.1802 -0.1598  0.1083
  933MOL0     C23070   4.706   1.994   6.705 -0.2975  0.4885  0.6260
  933MOL0     O23071   4.990   2.116   6.570  0.5233 -1.2098 -0.7053
  933MOL0     C23072   5.207   2.009   6.829 -0.9824 -0.5623 -0.1180
  933MOL0     C23073   5.335   2.031   6.875 -0.5244  0.2475 -0.8407
  933MOL0     N23074   6.227   2.163   6.821 -0.4085  0.9546  0.1278
  933MOL0     N23075   6.302   2.070   6.770 -0.4266 -0.2772  0.0279
  933MOL0     C23076   5.376   1.694   6.249  0.0519 -0.2948  0.7523
  933MOL0     C23077   5.251   1.686   6.170 -0.3101 -0.2290 -1.1227
  933MOL0     C23078   4.785   1.723   6.092 -0.5949  0.0740  0.4420
  933MOL0     C23079   4.652   1.737   6.139 -0.0177  0.7956 -0.7272
  933MOL0     C23080   4.550   1.759   6.049 -0.3384 -0.0936 -0.9722
  933MOL0     C23081   4.578   1.785   5.909  0.1639  0.3022 -0.1679
  933MOL0     O23082   4.463   1.792   5.825  0.3922 -0.9575  0.0669
  933MOL0     C23083   4.460   1.824   5.688 -0.5300  0.5453  0.6195
  933MOL0     C23084   4.526   1.962   5.686 -0.0312 -0.1536  0.0993
  933MOL0     C23085   4.482   2.031   5.558 -0.3794 -0.8138 -0.2006
  933MOL0     C23086   4.561   2.171   5.539 -0.1377 -0.0549  0.2374
  933MOL0     C23087   4.535   2.262   5.653  0.1309 -0.0576  0.4086
  933MOL0     C23088   4.510   2.336   5.746  0.6601  0.0829  0.5183
  933MOL0     C23089   4.706   1.770   5.868 -0.3002  0.9638  0.0057
  933MOL0     C23090   4.809   1.744   5.956 -0.4478  0.2539  1.3597
  933MOL0     H23091   5.049   1.870   6.374  2.6206  1.9866  2.0733
  933MOL0     H23092   5.239   1.836   6.525  2.2442 -1.3408  0.5751
  933MOL0     H23093   5.505   1.799   6.640 -2.5920  0.5065 -0.3875
  933MOL0     H23094   5.462   1.925   6.523 -1.1177 -0.7383 -0.2923
  933MOL0     H23095   5.710   1.917   6.614 -1.0894  1.3890  0.1564
  933MOL0     H23096   5.689   1.922   6.438  2.2868 -1.0710 -0.2245
  933MOL0     H23097   5.742   1.675   6.424 -1.7514 -0.1271 -1.1552
  933MOL0     H23098   5.726   1.655   6.587 -2.0702 -0.1363 -1.4207
  933MOL0     H23099   5.949   1.671   6.483 -0.5087 -0.0146 -0.1169
  933MOL0     H23100   5.936   1.852   6.509  1.3984 -0.5390  1.0111
  933MOL0     H23101   5.889   1.673   6.749  2.9475 -0.1358  1.0364
  933MOL0     H23102   5.937   1.843   6.742 -0.3257 -0.1835  0.5016
  933MOL0     H23103   6.100   1.587   6.678 -0.4912  0.8796 -0.7891
  933MOL0     H23104   6.110   1.678   6.818  0.3511 -0.1735  0.2441
  933MOL0     H23105   6.266   1.714   6.578 -1.3118  0.1461  1.0697
  933MOL0     H23106   6.170   1.859   6.587 -0.1173  1.1220  1.9890
  933MOL0     H23107   6.401   1.859   6.700 -0.0357  0.8155 -0.3058
  933MOL0     H23108   6.331   1.754   6.823  1.9038 -0.0716 -0.0862
  933MOL0     H23109   6.071   1.898   6.934  0.4130 -1.3763  0.1027
  933MOL0     H23110   5.994   2.284   6.947 -2.2609  0.0102  0.7765
  933MOL0     H23111   6.009   2.152   7.056 -0.5953 -1.8774 -0.1837
  933MOL0     H23112   5.866   2.041   6.845  1.3557  0.8116  0.3971
  933MOL0     H23113   5.821   2.206   6.822 -1.6284  0.4559  0.4160
  933MOL0     H23114   5.784   2.068   7.088 -3.1477 -1.4767 -1.1156
  933MOL0     H23115   5.731   2.236   7.041  0.7503 -0.0090  0.1182
  933MOL0     H23116   5.551   2.059   7.043 -0.7792  1.1295  0.0464
  933MOL0     H23117   5.642   1.966   6.926 -2.5061 -1.1651  3.0896
  933MOL0     H23118   5.445   2.272   6.657  0.3580  1.5759  2.7504
  933MOL0     H23119   5.212   2.209   6.553  0.0216 -1.4365 -0.7846
  933MOL0     H23120   4.874   1.751   6.543 -0.7506 -0.1633 -1.1413
  933MOL0     H23121   4.646   1.701   6.466  1.4942  0.5579 -1.2901
  933MOL0     H23122   4.316   1.760   6.649 -1.1160  1.6989 -0.1729
  933MOL0     H23123   4.392   1.646   6.534 -0.6749 -0.0589  0.1568
  933MOL0     H23124   4.168   1.828   6.479  0.2838  0.4872 -0.1703
  933MOL0     H23125   4.156   1.645   6.490  1.2504  0.2638  1.5645
  933MOL0     H23126   4.300   1.639   6.271 -0.1457  0.2498 -0.1480
  933MOL0     H23127   4.317   1.802   6.274  0.0667 -0.7281  0.5122
  933MOL0     H23128   4.052   1.649   6.254  0.3924 -0.6478 -1.3908
  933MOL0     H23129   4.067   1.826   6.236 -0.1058 -0.1377 -1.4675
  933MOL0     H23130   4.195   1.622   6.048 -0.9455 -0.8686 -1.1963
  933MOL0     H23131   4.195   1.809   6.040  1.3831 -1.2128  0.7536
  933MOL0     H23132   3.964   1.638   5.994 -0.7167  1.4216 -1.2904
  933MOL0     H23133   4.075   1.713   5.865 -0.0948  0.5283 -1.5276
  933MOL0     H23134   3.936   1.874   6.091 -1.7031 -2.9258 -0.1770
  933MOL0     H23135   4.033   1.932   5.952  0.7025  1.1364 -0.0870
  933MOL0     H23136   3.755   1.789   5.936 -1.1365 -1.6805 -2.6557
  933MOL0     H23137   3.858   1.834   5.805 -1.0610 -2.3928  0.6544
  933MOL0     H23138   4.495   2.040   6.681  0.7411  0.7194  0.9289
  933MOL0     H23139   4.736   2.076   6.770 -2.0718  1.7391 -0.0798
  933MOL0     H23140   5.142   1.942   6.884 -1.7579 -1.2895 -1.8203
  933MOL0     H23141   5.368   1.979   6.964  2.3683  1.0296 -1.3414
  933MOL0     H23142   5.469   1.654   6.211 -0.4845 -3.9854  2.8714
  933MOL0     H23143   5.255   1.638   6.072 -0.5639 -3.4371  0.3230
  933MOL0     H23144   4.638   1.724   6.246 -1.6685  1.3023 -0.8457
  933MOL0     H23145   4.449   1.769   6.087  0.0607 -1.7160  0.6418
  933MOL0     H23146   4.360   1.827   5.643 -0.3102 -2.8542 -0.3356
  933MOL0     H23147   4.524   1.754   5.635  0.2568  0.7230  1.3145
  933MOL0     H23148   4.489   2.010   5.777 -0.6151 -2.4473  1.1428
  933MOL0     H23149   4.635   1.954   5.691 -0.0318  0.3431  2.3440
  933MOL0     H23150   4.373   2.040   5.561 -0.4142 -0.6460 -1.3921
  933MOL0     H23151   4.497   1.969   5.469 -0.1222 -2.7729  1.1556
  933MOL0     H23152   4.669   2.163   5.529 -0.4263 -2.5383 -2.1302
  933MOL0     H23153   4.526   2.209   5.442  3.2474 -1.0230 -1.5303
  933MOL0     H23154   4.494   2.389   5.838  3.5332 -0.2179  1.2886
  933MOL0     H23155   4.730   1.790   5.764 -1.9947  0.7385 -0.4571
  933MOL0     H23156   4.909   1.744   5.916 -0.6792  1.9864  0.6880
  934MOL0     O23157   5.069   3.796   6.542  0.9109  0.7779  0.1438
  934MOL0     C23158   4.991   3.706   6.572 -0.1755 -0.1250 -0.8802
  934MOL0     O23159   5.026   3.577   6.596 -1.0481 -0.4454 -0.4722
  934MOL0     C23160   5.162   3.551   6.589 -0.1911  0.9874 -0.4629
  934MOL0     C23161   5.229   3.538   6.468 -0.4093  0.3989  0.2918
  934MOL0     C23162   5.355   3.490   6.465 -0.0142  0.4651  0.6826
  934MOL0     C23163   5.438   3.470   6.575 -0.2084  0.0117 -0.1088
  934MOL0     O23164   5.573   3.431   6.575  0.3189  0.3286  0.0651
  934MOL0     C23165   5.652   3.486   6.471 -0.1284  0.1411 -1.1013
  934MOL0     C23166   5.701   3.625   6.517 -1.0165 -0.0797  0.1760
  934MOL0     C23167   5.759   3.710   6.398  0.3328 -0.5453  0.1130
  934MOL0     C23168   5.653   3.760   6.303  0.4461  0.4449  0.4447
  934MOL0     C23169   5.563   3.873   6.356  0.0187 -0.8762  0.4458
  934MOL0     C23170   5.519   3.980   6.252  0.0503  0.4461  0.7635
  934MOL0     C23171   5.440   3.931   6.131 -0.6079 -0.5323 -1.2691
  934MOL0     C23172   5.287   3.903   6.139 -0.0982 -0.1753 -0.8924
  934MOL0     N23173   5.210   4.023   6.173  0.2258 -1.0406  0.0395
  934MOL0     C23174   5.174   4.053   6.306 -0.1537 -0.2960 -0.0656
  934MOL0     C23175   5.106   4.172   6.301 -0.2288 -0.4414  0.4971
  934MOL0     C23176   5.045   4.230   6.422  0.1478  0.1635 -0.6278
  934MOL0     C23177   4.915   4.304   6.387 -0.7313  0.4623 -0.0238
  934MOL0     C23178   4.793   4.219   6.358 -0.1239 -0.1031  0.6528
  934MOL0     C23179   4.668   4.295   6.347  0.4006  0.6797 -0.1316
  934MOL0     O23180   4.548   4.206   6.354  0.0509 -0.1475 -0.2995
  934MOL0     C23181   4.425   4.253   6.361 -0.2473 -0.6181  0.8084
  934MOL0     C23182   4.388   4.363   6.280 -0.2235  0.0646 -0.5647
  934MOL0     C23183   4.254   4.411   6.284  0.4582 -0.1806  0.8224
  934MOL0     C23184   4.152   4.327   6.327  0.4370 -0.3708  0.1634
  934MOL0     C23185   4.013   4.364   6.290 -0.1193 -0.3482  0.7312
  934MOL0     O23186   3.923   4.349   6.387 -0.2004  0.2338 -0.1236
  934MOL0     C23187   3.786   4.372   6.369  0.1557  0.3991 -1.2003
  934MOL0     C23188   3.713   4.426   6.479 -0.5422 -0.4503  0.0212
  934MOL0     C23189   3.587   4.470   6.460 -0.5750 -0.4174 -0.4477
  934MOL0     C23190   3.522   4.449   6.338 -0.6173 -0.4888 -0.0858
  934MOL0     O23191   3.393   4.506   6.339  0.0360 -0.7621  0.2820
  934MOL0     C23192   3.307   4.472   6.228 -0.4847 -0.3794 -0.5174
  934MOL0     C23193   3.162   4.488   6.273  0.2786 -0.3965 -0.5166
  934MOL0     C23194   3.065   4.423   6.172 -0.2700  0.3665 -0.4025
  934MOL0     C23195   2.928   4.502   6.179  0.1106 -0.3202 -0.8464
  934MOL0     C23196   2.837   4.447   6.072  0.0466  0.4552 -0.2320
  934MOL0     C23197   2.783   4.299   6.105  0.5325  0.0889 -0.0415
  934MOL0     C23198   2.658   4.264   6.024  0.2419  0.6882  1.0755
  934MOL0     C23199   2.597   4.140   6.074  0.6400  0.3293 -0.7131
  934MOL0    Cl23200   2.465   4.086   5.965  0.0822 -0.1641  0.1468
  934MOL0     C23201   3.575   4.371   6.239 -1.0791 -0.2901  0.4909
  934MOL0     C23202   3.714   4.339   6.252  0.0403 -0.1393 -0.4717
  934MOL0     O23203   3.989   4.396   6.175 -0.1996  0.3077  0.4487
  934MOL0     C23204   4.188   4.222   6.409 -0.3547  0.7672  0.5285
  934MOL0     C23205   4.327   4.186   6.420  0.3469 -0.2150  0.7071
  934MOL0     N23206   5.102   4.215   6.172 -0.4910 -0.4379 -0.2952
  934MOL0     N23207   5.168   4.128   6.096 -0.6991  0.2199 -0.5571
  934MOL0     C23208   5.371   3.481   6.697  0.4717 -0.4109 -0.6908
  934MOL0     C23209   5.238   3.522   6.707  0.7060 -0.3771  0.3510
  934MOL0     C23210   4.856   3.751   6.595  0.3514  0.4420  0.4612
  934MOL0     C23211   4.813   3.885   6.572 -0.7268  0.1102 -0.2216
  934MOL0     C23212   4.674   3.911   6.568  0.3279  0.7310 -0.5191
  934MOL0     C23213   4.574   3.818   6.601 -0.6887 -0.9616  0.6022
  934MOL0     O23214   4.448   3.855   6.585  0.0068 -0.2391  0.1953
  934MOL0     C23215   4.340   3.796   6.655 -0.6744 -0.2261  0.1777
  934MOL0     C23216   4.205   3.869   6.652  0.2288 -0.7497 -0.1138
  934MOL0     C23217   4.082   3.778   6.680  0.2270  0.1929  0.2673
  934MOL0     C23218   3.957   3.853   6.715 -0.0932  0.2914  0.4198
  934MOL0     C23219   3.910   3.929   6.599 -0.4637 -0.5561 -0.2725
  934MOL0     C23220   3.882   4.005   6.512  0.0120  0.2664  0.9922
  934MOL0     C23221   4.621   3.691   6.641 -0.4282 -0.4213  0.1212
  934MOL0     C23222   4.758   3.662   6.630 -0.1551  0.5896 -0.1924
  934MOL0     H23223   5.177   3.560   6.376  1.4734  2.6611 -0.3272
  934MOL0     H23224   5.396   3.457   6.370  1.6652 -2.4176  2.2830
  934MOL0     H23225   5.596   3.492   6.377 -2.9057 -0.2047  0.4396
  934MOL0     H23226   5.741   3.426   6.448 -0.1362  0.1375 -1.1222
  934MOL0     H23227   5.777   3.601   6.592 -2.0295  0.0672  1.2814
  934MOL0     H23228   5.631   3.677   6.583 -1.6057 -0.7469  0.0954
  934MOL0     H23229   5.825   3.647   6.338  1.1392  0.2931  0.0898
  934MOL0     H23230   5.823   3.790   6.437  0.9875 -0.1556 -1.6658
  934MOL0     H23231   5.712   3.812   6.227 -0.5899  4.3709  2.0542
  934MOL0     H23232   5.595   3.682   6.253  3.5758  0.2953 -3.3889
  934MOL0     H23233   5.614   3.921   6.440 -1.3743  1.6225 -0.0256
  934MOL0     H23234   5.474   3.825   6.397  0.0981 -0.6874  0.8402
  934MOL0     H23235   5.614   4.027   6.225  0.6815 -0.8237  0.7094
  934MOL0     H23236   5.455   4.058   6.295 -1.5523  0.7728 -1.9752
  934MOL0     H23237   5.456   4.015   6.064 -1.5313  0.2194 -0.5697
  934MOL0     H23238   5.495   3.847   6.086  1.0377 -0.0741 -0.1933
  934MOL0     H23239   5.266   3.819   6.207 -0.8110  0.3843 -0.4076
  934MOL0     H23240   5.258   3.889   6.035  0.5276 -1.7615 -0.8882
  934MOL0     H23241   5.192   3.995   6.396  1.0601 -2.1915 -1.4464
  934MOL0     H23242   5.121   4.287   6.477  2.2772 -4.8518  2.3384
  934MOL0     H23243   5.021   4.153   6.496 -0.8946  1.3416  0.3044
  934MOL0     H23244   4.936   4.374   6.305  1.9954 -1.0062 -0.6914
  934MOL0     H23245   4.896   4.374   6.470  2.4494  1.3251  0.0952
  934MOL0     H23246   4.813   4.173   6.261  1.8217 -0.4712  1.1665
  934MOL0     H23247   4.784   4.140   6.433 -1.2959 -1.5450 -0.9304
  934MOL0     H23248   4.676   4.331   6.244  4.3486 -0.8955 -0.5685
  934MOL0     H23249   4.667   4.374   6.422  1.3969  0.8986 -0.3400
  934MOL0     H23250   4.464   4.422   6.229  2.3743  0.3699  3.2342
  934MOL0     H23251   4.227   4.503   6.233 -0.2983  0.1864  1.8583
  934MOL0     H23252   3.766   4.435   6.573  0.1104 -0.2175 -0.3618
  934MOL0     H23253   3.529   4.507   6.545 -0.7017 -2.3964  0.3918
  934MOL0     H23254   3.327   4.371   6.193  1.7923 -0.1406 -0.0998
  934MOL0     H23255   3.333   4.545   6.150 -0.1410 -0.0547 -0.1053
  934MOL0     H23256   3.135   4.592   6.290  2.6594 -0.0969  2.1513
  934MOL0     H23257   3.157   4.439   6.371  0.5445  0.0109 -0.2973
  934MOL0     H23258   3.061   4.313   6.172  0.8908  0.2246 -3.3823
  934MOL0     H23259   3.107   4.442   6.073  2.4706  3.1852  1.1559
  934MOL0     H23260   2.893   4.509   6.282  1.4684 -1.8260 -0.2409
  934MOL0     H23261   2.955   4.605   6.153 -1.3487  0.9823  2.2757
  934MOL0     H23262   2.890   4.450   5.976  1.6202  2.0699  0.6215
  934MOL0     H23263   2.751   4.513   6.063 -0.7476 -0.6006 -0.5951
  934MOL0     H23264   2.769   4.304   6.213  5.3678  0.0139  0.8186
  934MOL0     H23265   2.863   4.225   6.096 -1.1782 -1.8678  0.0581
  934MOL0     H23266   2.589   4.349   6.036 -1.0069 -0.4641  2.4993
  934MOL0     H23267   2.699   4.261   5.923  1.5387 -0.2248  1.6053
  934MOL0     H23268   2.563   4.135   6.178  3.3326 -1.8030  0.1733
  934MOL0     H23269   2.679   4.068   6.076  2.1161  1.9363  1.9608
  934MOL0     H23270   3.520   4.352   6.148  0.8504  0.4146 -0.8910
  934MOL0     H23271   3.765   4.288   6.171  2.1677 -0.4749  1.0141
  934MOL0     H23272   4.108   4.162   6.452  1.7506 -0.2732  3.2637
  934MOL0     H23273   4.366   4.106   6.482  1.3621 -1.1799 -1.1045
  934MOL0     H23274   5.419   3.463   6.793 -1.6711  3.0285  1.2947
  934MOL0     H23275   5.189   3.542   6.802  1.2089 -0.2361  0.5795
  934MOL0     H23276   4.885   3.965   6.554  0.3083 -0.2903  1.7817
  934MOL0     H23277   4.632   4.008   6.542 -0.2166  0.2838 -1.3428
  934MOL0     H23278   4.367   3.800   6.761 -1.7698  0.2824  0.4508
  934MOL0     H23279   4.324   3.696   6.616  2.8398 -0.7617 -0.2386
  934MOL0     H23280   4.222   3.961   6.709 -0.5357 -1.7787  1.8643
  934MOL0     H23281   4.203   3.896   6.546  3.4263  0.3956  0.0129
  934MOL0     H23282   4.101   3.709   6.762 -0.2493 -2.6085 -1.8382
  934MOL0     H23283   4.063   3.709   6.597  0.5805 -2.2917  2.1633
  934MOL0     H23284   3.873   3.785   6.728  0.0106  0.7839  5.2258
  934MOL0     H23285   3.962   3.910   6.808 -0.7133 -3.0796  2.7244
  934MOL0     H23286   3.854   4.078   6.439  1.4135  0.2206  0.3782
  934MOL0     H23287   4.544   3.619   6.667 -1.2927 -0.3996 -2.1659
  934MOL0     H23288   4.788   3.561   6.658 -0.0500  0.5270 -0.5254
  935MOL0     O23289   9.884   1.852   1.651 -0.1933  0.6831  0.0473
  935MOL0     C23290   9.878   1.967   1.704 -0.2666 -0.1698  0.3904
  935MOL0     O23291   9.979   2.044   1.742 -0.6136  0.5204 -0.4747
  935MOL0     C23292  10.109   1.994   1.711  0.3197  0.9912  0.5124
  935MOL0     C23293  10.147   1.971   1.579  0.2853  0.9260 -0.2943
  935MOL0     C23294  10.282   1.934   1.544 -0.5589  0.1460  0.2933
  935MOL0     C23295  10.383   1.927   1.642 -0.5503 -0.9816 -0.2668
  935MOL0     O23296  10.517   1.912   1.611  0.0380  0.0763 -1.0800
  935MOL0     C23297  10.564   1.919   1.479  1.4764  0.3952  0.8542
  935MOL0     C23298  10.715   1.943   1.469  0.4902  0.1804  0.0639
  935MOL0     C23299  10.748   2.079   1.533 -0.5437  0.4644  0.2878
  935MOL0     C23300  10.898   2.112   1.555 -0.0608  0.2472 -0.0843
  935MOL0     C23301  10.975   2.104   1.419 -0.3870  0.2498 -0.6145
  935MOL0     C23302  11.129   2.098   1.449 -0.5730 -0.6470  0.1844
  935MOL0     C23303  11.198   2.079   1.318  0.4862  0.3997  0.0848
  935MOL0     C23304  11.224   2.200   1.227  0.9958  0.1513  0.0329
  935MOL0     N23305  11.104   2.268   1.183 -0.3452 -0.0503 -0.2897
  935MOL0     C23306  11.060   2.393   1.238 -0.4006  0.4578  0.6189
  935MOL0     C23307  10.944   2.420   1.170 -0.2369  0.8734  0.3943
  935MOL0     C23308  10.832   2.519   1.202  0.1625 -0.1829  0.7281
  935MOL0     C23309  10.749   2.490   1.329 -0.0753 -0.9781  0.7059
  935MOL0     C23310  10.629   2.399   1.317 -0.3195 -0.2125 -0.4297
  935MOL0     C23311  10.548   2.433   1.435  0.4372 -0.1962  0.0515
  935MOL0     O23312  10.430   2.345   1.425 -0.8132  0.4876  0.0330
  935MOL0     C23313  10.328   2.386   1.507 -0.5291  0.2257  0.6377
  935MOL0     C23314  10.281   2.306   1.618 -0.2337  0.4827  0.9899
  935MOL0     C23315  10.166   2.332   1.687  0.3769 -0.7909  0.7915
  935MOL0     C23316  10.083   2.442   1.651 -0.0400 -0.8264 -0.1418
  935MOL0     C23317   9.957   2.469   1.712 -0.2218  0.0210  0.0908
  935MOL0     O23318   9.901   2.598   1.691 -0.1815  0.3322  0.9957
  935MOL0     C23319   9.773   2.609   1.734 -1.0640  0.1494  0.6146
  935MOL0     C23320   9.675   2.634   1.644  0.2503  0.8481  0.7328
  935MOL0     C23321   9.543   2.635   1.682  0.3510 -0.7834  0.4370
  935MOL0     C23322   9.504   2.601   1.809  0.2785 -0.0514 -0.1355
  935MOL0     O23323   9.376   2.574   1.830  0.2836  0.1748 -0.7906
  935MOL0     C23324   9.328   2.495   1.948  0.5921 -0.5837  0.6938
  935MOL0     C23325   9.201   2.417   1.900 -0.4233 -0.2997  0.3230
  935MOL0     C23326   9.078   2.506   1.881  0.0299  0.7661  0.7736
  935MOL0     C23327   8.938   2.438   1.907 -0.6671  0.4533  0.5941
  935MOL0     C23328   8.922   2.323   1.807 -0.4335  0.8027  0.0608
  935MOL0     C23329   8.785   2.252   1.819 -0.1192 -0.1922  0.2586
  935MOL0     C23330   8.685   2.316   1.723  0.0781  0.1304  0.5300
  935MOL0     C23331   8.585   2.211   1.679 -0.5658  1.0398 -0.8421
  935MOL0    Cl23332   8.503   2.127   1.813 -0.2750  0.3128  0.2077
  935MOL0     C23333   9.601   2.579   1.906  0.4253 -0.0934  0.6939
  935MOL0     C23334   9.730   2.577   1.863 -0.0066 -0.5993 -0.5530
  935MOL0     O23335   9.901   2.375   1.763  0.0502  0.4567 -0.5531
  935MOL0     C23336  10.128   2.523   1.541 -0.2695 -0.9113  0.7329
  935MOL0     C23337  10.247   2.495   1.473  0.0662 -0.2402 -0.3138
  935MOL0     N23338  10.946   2.335   1.059  0.0734  0.3389  0.3104
  935MOL0     N23339  11.038   2.240   1.072 -0.0389 -0.2045 -0.4564
  935MOL0     C23340  10.334   1.962   1.772 -0.7980  0.3582  0.3582
  935MOL0     C23341  10.207   1.992   1.809 -0.2992  0.6487 -0.5031
  935MOL0     C23342   9.737   2.011   1.720  0.2718  0.0644  0.1412
  935MOL0     C23343   9.713   2.107   1.810 -0.0301 -0.9742  0.7744
  935MOL0     C23344   9.583   2.165   1.816 -0.2983  0.2180  0.7771
  935MOL0     C23345   9.483   2.113   1.732  0.6584  0.6258 -0.0271
  935MOL0     O23346   9.353   2.168   1.747 -0.4099  0.3636 -0.3318
  935MOL0     C23347   9.247   2.095   1.696 -0.0820 -0.6174  0.6679
  935MOL0     C23348   9.221   2.126   1.547  0.3041  0.2994 -0.0820
  935MOL0     C23349   9.084   2.090   1.487 -0.2654 -0.7179 -0.1941
  935MOL0     C23350   9.044   1.944   1.514 -0.2473  0.7426  0.5101
  935MOL0     C23351   8.925   1.906   1.427 -0.8765 -1.3395 -0.5110
  935MOL0     C23352   8.830   1.888   1.360  0.7713  0.1567  0.5903
  935MOL0     C23353   9.508   2.010   1.645  0.0354 -0.2407  0.2278
  935MOL0     C23354   9.632   1.955   1.636  0.0206 -0.6758 -0.2020
  935MOL0     H23355  10.078   1.984   1.497  1.5149  4.1104 -0.9809
  935MOL0     H23356  10.301   1.924   1.438  0.9673  0.0706  0.5531
  935MOL0     H23357  10.520   2.002   1.422 -2.0082 -0.6664  1.7560
  935MOL0     H23358  10.549   1.827   1.422  2.6025  0.6919  0.0470
  935MOL0     H23359  10.731   1.945   1.361 -2.5913 -0.3834 -0.4905
  935MOL0     H23360  10.769   1.857   1.510  1.0006 -1.4252 -3.5728
  935MOL0     H23361  10.709   2.068   1.635  3.1062 -0.2529  1.7807
  935MOL0     H23362  10.694   2.166   1.497 -1.4626  0.1432  0.8489
  935MOL0     H23363  10.907   2.210   1.603 -0.6620 -0.3700  1.3583
  935MOL0     H23364  10.943   2.037   1.621 -0.9275  0.9751  1.3884
  935MOL0     H23365  10.933   2.191   1.366  0.2383  0.4241 -0.8323
  935MOL0     H23366  10.960   2.008   1.369  1.2600  1.1092 -2.9664
  935MOL0     H23367  11.150   2.021   1.523 -1.0478 -0.7959  0.1658
  935MOL0     H23368  11.168   2.191   1.493  1.7366 -1.9862  1.1804
  935MOL0     H23369  11.295   2.038   1.344  0.1131  0.4556  1.6227
  935MOL0     H23370  11.135   2.006   1.266 -1.7561  2.9477 -1.0154
  935MOL0     H23371  11.282   2.165   1.140 -0.0736 -0.2834 -0.5202
  935MOL0     H23372  11.285   2.274   1.279  3.1751 -1.1214 -0.5686
  935MOL0     H23373  11.102   2.433   1.330 -1.3858  1.8658  0.4897
  935MOL0     H23374  10.762   2.525   1.118  0.3811 -0.4646  0.5259
  935MOL0     H23375  10.882   2.616   1.217  1.6595 -0.8410  0.1475
  935MOL0     H23376  10.713   2.588   1.363  0.1010  0.4854 -2.8757
  935MOL0     H23377  10.818   2.452   1.405 -0.8668 -3.1437  0.4232
  935MOL0     H23378  10.581   2.415   1.220  1.4239 -0.8005 -1.4419
  935MOL0     H23379  10.656   2.294   1.331 -2.3691 -0.5636  1.2559
  935MOL0     H23380  10.518   2.538   1.434  0.6161  0.1236  4.5323
  935MOL0     H23381  10.611   2.410   1.522  1.9836 -2.0590 -1.4835
  935MOL0     H23382  10.335   2.213   1.634  1.4563  1.1079 -0.7057
  935MOL0     H23383  10.144   2.254   1.759  1.8932 -4.0358 -1.9979
  935MOL0     H23384   9.690   2.653   1.538 -3.7422  1.2916  0.0588
  935MOL0     H23385   9.466   2.653   1.608 -0.6309 -1.2087  1.3252
  935MOL0     H23386   9.301   2.570   2.022 -0.2643  0.9683 -1.0984
  935MOL0     H23387   9.406   2.429   1.989  4.1557  1.8743 -1.5064
  935MOL0     H23388   9.177   2.342   1.976  0.0063  0.8459  1.6292
  935MOL0     H23389   9.216   2.361   1.807 -4.6960 -0.4362 -0.4985
  935MOL0     H23390   9.089   2.553   1.783  0.6843  0.7493  0.8313
  935MOL0     H23391   9.089   2.595   1.945  0.5058 -0.0576  1.8670
  935MOL0     H23392   8.931   2.398   2.008  1.4932  4.2455  2.4719
  935MOL0     H23393   8.874   2.525   1.890  2.0979  2.7090  0.9175
  935MOL0     H23394   8.996   2.246   1.829  0.7227  2.0688  0.7429
  935MOL0     H23395   8.946   2.362   1.708 -1.0938 -0.0630 -0.4614
  935MOL0     H23396   8.750   2.245   1.922  1.2779 -0.7869  0.7167
  935MOL0     H23397   8.799   2.149   1.786 -1.2767  0.1986 -1.5869
  935MOL0     H23398   8.642   2.408   1.763  2.5064  1.5651  0.0809
  935MOL0     H23399   8.741   2.352   1.636  0.6045  2.4581  1.7587
  935MOL0     H23400   8.628   2.134   1.614 -3.1675 -1.8305  0.5465
  935MOL0     H23401   8.513   2.273   1.625  0.2197  0.8851 -2.0972
  935MOL0     H23402   9.577   2.548   2.008 -0.4836  1.5857  1.0317
  935MOL0     H23403   9.808   2.534   1.924  0.9439  0.8011 -0.7248
  935MOL0     H23404  10.078   2.609   1.499 -0.4934 -0.5930  1.6302
  935MOL0     H23405  10.285   2.553   1.389  1.3796  5.1251  3.4229
  935MOL0     H23406  10.409   1.980   1.848  0.5952  1.1491 -1.1472
  935MOL0     H23407  10.197   2.033   1.909 -2.2581 -3.4408  1.2061
  935MOL0     H23408   9.795   2.153   1.865 -3.1271  4.5915  1.3930
  935MOL0     H23409   9.564   2.255   1.873 -0.7892  1.8625 -1.7951
  935MOL0     H23410   9.161   2.118   1.760 -0.9635 -0.0192 -0.6717
  935MOL0     H23411   9.254   1.986   1.703 -4.2409 -0.9587  3.5471
  935MOL0     H23412   9.241   2.229   1.516  0.4850 -0.7422 -3.9352
  935MOL0     H23413   9.295   2.068   1.490 -1.0096 -1.8639  0.2985
  935MOL0     H23414   9.096   2.118   1.382 -2.3527 -1.8425 -0.7798
  935MOL0     H23415   9.005   2.154   1.527  0.5433  0.1406  0.0588
  935MOL0     H23416   9.122   1.870   1.492 -0.1434  1.3381 -1.2494
  935MOL0     H23417   9.009   1.935   1.617 -1.0538  1.2127  0.2866
  935MOL0     H23418   8.734   1.882   1.313 -0.3364  0.3493  2.6845
  935MOL0     H23419   9.434   1.946   1.598  0.5901 -0.7220 -0.0124
  935MOL0     H23420   9.663   1.883   1.560 -0.6271 -2.1219  0.8518
  936MOL0     O23421   8.537   0.188   2.874 -0.3285  0.5285  0.7232
  936MOL0     C23422   8.601   0.275   2.923  0.2020 -0.1660  0.0541
  936MOL0     O23423   8.555   0.380   3.003  0.6199  0.2396 -0.3851
  936MOL0     C23424   8.418   0.405   3.009  0.3256 -0.6913 -0.1967
  936MOL0     C23425   8.367   0.534   2.989  0.7620 -0.0503  0.5294
  936MOL0     C23426   8.235   0.560   2.999  0.2903  0.1710 -0.3904
  936MOL0     C23427   8.135   0.462   3.017 -0.2592  0.9174 -0.1772
  936MOL0     O23428   8.010   0.502   3.038  0.6826 -0.1201  0.2247
  936MOL0     C23429   7.905   0.424   2.979  0.2419 -0.4512  0.0462
  936MOL0     C23430   7.842   0.328   3.081  0.4603  0.2234 -0.5223
  936MOL0     C23431   7.748   0.405   3.182  0.6989  0.3158  0.8238
  936MOL0     C23432   7.637   0.489   3.115 -0.7663 -0.8847 -0.0853
  936MOL0     C23433   7.528   0.530   3.229  0.9784  0.4408 -0.1405
  936MOL0     C23434   7.462   0.415   3.296  0.5856 -0.1987 -0.9237
  936MOL0     C23435   7.311   0.459   3.335 -0.6823 -0.4370  1.2328
  936MOL0     C23436   7.217   0.362   3.385  0.2549  0.0878  0.3384
  936MOL0     N23437   7.080   0.415   3.386  0.6088  0.1507  0.3872
  936MOL0     C23438   7.040   0.545   3.382 -0.7079 -0.3718 -0.0366
  936MOL0     C23439   6.906   0.540   3.416 -0.0238 -0.3065  0.5455
  936MOL0     C23440   6.813   0.657   3.440  0.1435 -0.2876  0.8014
  936MOL0     C23441   6.674   0.599   3.430 -0.8123 -0.5703  0.2036
  936MOL0     C23442   6.572   0.703   3.460  0.4173  0.3164 -0.2649
  936MOL0     C23443   6.549   0.732   3.607  1.1968  0.2048 -0.4692
  936MOL0     O23444   6.494   0.620   3.696  0.3311  0.0314 -0.3489
  936MOL0     C23445   6.367   0.581   3.685 -0.5672  0.0052 -0.5972
  936MOL0     C23446   6.264   0.648   3.621 -0.4507  0.4753  0.4123
  936MOL0     C23447   6.131   0.598   3.621  0.1703  0.0561  0.1237
  936MOL0     C23448   6.104   0.466   3.665  0.0431  0.0218  0.2243
  936MOL0     C23449   5.968   0.406   3.658 -0.7018  0.0841  0.2176
  936MOL0     O23450   5.950   0.276   3.694  0.7725 -0.0725 -0.6687
  936MOL0     C23451   5.817   0.219   3.698 -1.0991  0.4892 -0.0043
  936MOL0     C23452   5.721   0.284   3.773 -0.8161  0.1700 -0.0239
  936MOL0     C23453   5.591   0.230   3.785  0.0632  0.5492 -0.9064
  936MOL0     C23454   5.553   0.118   3.707 -0.0702 -0.4715  0.0996
  936MOL0     O23455   5.432   0.057   3.713  0.2821 -0.1862 -0.0019
  936MOL0     C23456   5.321   0.124   3.778 -0.3866 -0.1686  0.6130
  936MOL0     C23457   5.206   0.025   3.790 -0.3330 -0.2028 -0.4862
  936MOL0     C23458   5.131  -0.006   3.660  0.2504  0.0584 -0.2900
  936MOL0     C23459   5.006  -0.093   3.684 -0.6651 -0.5223  0.6082
  936MOL0     C23460   4.921  -0.105   3.553 -1.1475  0.4170  0.4883
  936MOL0     C23461   4.791  -0.184   3.581  0.0616 -0.1162  0.4265
  936MOL0     C23462   4.701  -0.107   3.679 -0.3897  0.2633 -0.3408
  936MOL0     C23463   4.567  -0.168   3.673  0.1582 -0.2090 -0.3606
  936MOL0    Cl23464   4.495  -0.149   3.509  0.1582  0.3119 -0.2249
  936MOL0     C23465   5.656   0.054   3.634  1.0996 -0.2479 -0.1654
  936MOL0     C23466   5.784   0.099   3.629 -0.8135  0.1569 -0.4998
  936MOL0     O23467   5.885   0.481   3.611 -0.3774 -0.6134 -0.2180
  936MOL0     C23468   6.207   0.401   3.733 -0.4159  0.4237  0.2230
  936MOL0     C23469   6.333   0.458   3.743 -0.3006  0.9648  0.0473
  936MOL0     N23470   6.875   0.404   3.422  0.2833  0.4815 -0.2019
  936MOL0     N23471   6.977   0.333   3.416 -0.5674  0.5139  0.8948
  936MOL0     C23472   8.185   0.325   3.037  0.6145 -0.1027 -0.2673
  936MOL0     C23473   8.322   0.302   3.035 -0.4093 -0.1521  0.4610
  936MOL0     C23474   8.741   0.259   2.903  0.2891  0.0117  0.3637
  936MOL0     C23475   8.841   0.315   2.996  0.6567  0.2939  0.0993
  936MOL0     C23476   8.975   0.338   2.955 -0.4323  0.4231 -0.5543
  936MOL0     C23477   9.011   0.296   2.828 -0.6630 -0.7657  0.0940
  936MOL0     O23478   9.131   0.323   2.780 -0.3226  0.0423 -0.3061
  936MOL0     C23479   9.248   0.366   2.850 -0.6030 -0.3029 -0.3230
  936MOL0     C23480   9.371   0.333   2.769 -0.4679 -0.0087 -0.0679
  936MOL0     C23481   9.470   0.446   2.755  0.6171  0.8185 -0.0218
  936MOL0     C23482   9.546   0.467   2.888  0.5728 -0.7360  0.5795
  936MOL0     C23483   9.626   0.592   2.884  0.0877  0.7384  0.4778
  936MOL0     C23484   9.681   0.699   2.860 -0.0237 -0.1404 -0.0604
  936MOL0     C23485   8.920   0.240   2.739 -0.3016 -0.0298  0.5921
  936MOL0     C23486   8.792   0.207   2.781 -0.1605  0.9075 -0.3302
  936MOL0     H23487   8.434   0.618   2.981  2.3607 -1.3237 -0.0363
  936MOL0     H23488   8.200   0.663   2.992  0.8977  0.8691  4.1054
  936MOL0     H23489   7.951   0.375   2.893 -1.7471 -0.4972 -1.0586
  936MOL0     H23490   7.832   0.491   2.934  2.1250  1.3169 -0.5107
  936MOL0     H23491   7.915   0.276   3.143  1.6279  3.3757  0.9772
  936MOL0     H23492   7.780   0.251   3.033  2.7570 -0.2860 -2.8944
  936MOL0     H23493   7.815   0.474   3.232  0.1013  2.5623 -1.2694
  936MOL0     H23494   7.704   0.332   3.250 -0.1604 -1.7847 -1.7929
  936MOL0     H23495   7.689   0.576   3.075  2.2941 -2.1767  0.8227
  936MOL0     H23496   7.594   0.434   3.031 -0.3451 -2.3584  0.6178
  936MOL0     H23497   7.452   0.600   3.192 -0.3872  0.7461  2.9489
  936MOL0     H23498   7.574   0.600   3.300  0.6017  2.3662 -1.6971
  936MOL0     H23499   7.512   0.391   3.390  1.7552 -2.1188 -1.9845
  936MOL0     H23500   7.456   0.324   3.236 -1.5254 -1.4351  0.9772
  936MOL0     H23501   7.337   0.546   3.396  3.6303 -1.6070  1.4186
  936MOL0     H23502   7.263   0.480   3.239 -0.5308 -0.2037  1.2069
  936MOL0     H23503   7.246   0.326   3.484  2.0859  0.8367  0.1136
  936MOL0     H23504   7.237   0.273   3.325  2.2069  2.2285 -2.4759
  936MOL0     H23505   7.089   0.640   3.365 -1.6642  0.5081  1.7517
  936MOL0     H23506   6.823   0.736   3.366 -0.0280 -0.5436  0.5054
  936MOL0     H23507   6.833   0.680   3.545  2.0891 -1.3403  0.7225
  936MOL0     H23508   6.648   0.530   3.510 -2.3330 -0.2093  0.0619
  936MOL0     H23509   6.657   0.542   3.338 -2.9834  2.7967 -1.7369
  936MOL0     H23510   6.593   0.787   3.393 -1.6790  0.8373 -0.3201
  936MOL0     H23511   6.475   0.666   3.427  0.0581 -0.0053  1.1046
  936MOL0     H23512   6.496   0.827   3.620 -1.3465 -1.2005  0.2931
  936MOL0     H23513   6.646   0.754   3.651  0.5721 -0.2167  1.2037
  936MOL0     H23514   6.278   0.743   3.571  1.5874  0.5617  1.0849
  936MOL0     H23515   6.041   0.647   3.584 -0.9244 -3.5347 -2.6510
  936MOL0     H23516   5.758   0.371   3.826  0.5543 -2.0016  2.8296
  936MOL0     H23517   5.523   0.275   3.857  2.5647 -1.1228  2.7773
  936MOL0     H23518   5.285   0.209   3.719 -2.9843  0.1347  2.4913
  936MOL0     H23519   5.364   0.152   3.875  1.7561  1.8671 -0.8092
  936MOL0     H23520   5.137   0.055   3.869 -0.2840  0.4351 -0.6741
  936MOL0     H23521   5.243  -0.068   3.834  0.7548  0.8413  0.8829
  936MOL0     H23522   5.195  -0.070   3.598 -1.9754 -3.2391  0.5598
  936MOL0     H23523   5.106   0.089   3.610 -0.0290  1.6897  2.7183
  936MOL0     H23524   5.045  -0.195   3.691 -0.5982 -0.8898 -3.0766
  936MOL0     H23525   4.940  -0.068   3.768 -0.7981 -2.8105  1.2553
  936MOL0     H23526   4.985  -0.152   3.479 -0.8412 -2.4884  2.4241
  936MOL0     H23527   4.896  -0.002   3.526  2.0811  2.1231  3.3020
  936MOL0     H23528   4.808  -0.290   3.603 -1.3009 -0.7464 -1.3081
  936MOL0     H23529   4.747  -0.190   3.481  1.0715  0.6251 -0.0797
  936MOL0     H23530   4.741  -0.119   3.780 -0.2834  0.2394 -0.3864
  936MOL0     H23531   4.693  -0.003   3.647 -0.6834  0.4196  0.2198
  936MOL0     H23532   4.506  -0.123   3.753  0.1680  2.0775 -1.5398
  936MOL0     H23533   4.575  -0.272   3.704 -1.5621  0.5578  3.1344
  936MOL0     H23534   5.631  -0.037   3.580  0.8795  0.5585 -1.4786
  936MOL0     H23535   5.852   0.048   3.562 -0.9034  0.0861 -0.5373
  936MOL0     H23536   6.177   0.317   3.794 -1.5359  0.4092 -0.3197
  936MOL0     H23537   6.404   0.390   3.790  0.0921  0.5240 -1.1258
  936MOL0     H23538   8.111   0.247   3.050 -2.5133  3.0326  3.0874
  936MOL0     H23539   8.358   0.200   3.043 -0.5061 -0.3668 -1.4853
  936MOL0     H23540   8.803   0.354   3.090 -1.0466  0.1564 -0.5004
  936MOL0     H23541   9.040   0.390   3.025  0.6550  1.1797 -2.0646
  936MOL0     H23542   9.259   0.311   2.943  1.4897  0.8789  0.1914
  936MOL0     H23543   9.245   0.474   2.868 -2.1187 -0.2235 -0.9380
  936MOL0     H23544   9.421   0.247   2.814 -2.0873 -0.0012  1.9209
  936MOL0     H23545   9.341   0.315   2.666 -0.4079  1.4948 -0.3693
  936MOL0     H23546   9.412   0.538   2.744 -0.3828  0.5410  2.2161
  936MOL0     H23547   9.533   0.422   2.669 -1.4175  0.8290 -1.5878
  936MOL0     H23548   9.483   0.469   2.977 -2.9474  0.7171 -1.7161
  936MOL0     H23549   9.620   0.386   2.892 -0.9152 -2.5726 -3.5161
  936MOL0     H23550   9.729   0.794   2.843 -3.6055  1.9237  0.2791
  936MOL0     H23551   8.946   0.212   2.637 -0.2708 -1.9684  1.0942
  936MOL0     H23552   8.720   0.160   2.716 -1.4000  2.6542 -0.2841
  937MOL0     O23553   4.936   1.926   5.657  0.0005  0.8515  0.1896
  937MOL0     C23554   5.044   1.907   5.614 -0.6380  0.3653  0.0873
  937MOL0     O23555   5.072   1.876   5.485 -0.2502 -0.9422 -0.1849
  937MOL0     C23556   4.966   1.863   5.403  0.0226  0.2488  0.3766
  937MOL0     C23557   4.844   1.791   5.421 -0.4389  0.5344  0.1130
  937MOL0     C23558   4.745   1.790   5.324 -0.2490  1.1240  0.4500
  937MOL0     C23559   4.761   1.853   5.200  0.4551  0.2307  0.1151
  937MOL0     O23560   4.670   1.865   5.100  1.0606  0.4700 -0.0150
  937MOL0     C23561   4.655   1.742   5.029  0.4124  0.3851  0.5798
  937MOL0     C23562   4.572   1.758   4.903 -0.1973  1.1413  0.1997
  937MOL0     C23563   4.419   1.776   4.929  0.1587  0.2457  0.8457
  937MOL0     C23564   4.357   1.795   4.786  0.5303  0.9356  0.1731
  937MOL0     C23565   4.216   1.825   4.791  0.3196  0.5426 -0.4410
  937MOL0     C23566   4.141   1.697   4.828 -0.3900  0.6060 -0.1485
  937MOL0     C23567   4.006   1.709   4.894  0.0473 -0.6217  0.8577
  937MOL0     C23568   3.910   1.796   4.808 -1.0705  0.0526 -0.3272
  937MOL0     N23569   3.774   1.805   4.851  0.0001  0.0343 -0.6237
  937MOL0     C23570   3.723   1.839   4.977  0.7319 -0.6655  0.3945
  937MOL0     C23571   3.589   1.811   4.978  0.5078 -0.5410 -0.2666
  937MOL0     C23572   3.490   1.838   5.088  0.6858 -0.1198  0.3794
  937MOL0     C23573   3.363   1.873   5.014  0.5776 -0.3091 -0.0902
  937MOL0     C23574   3.248   1.913   5.113  0.1933  0.3133  0.4900
  937MOL0     C23575   3.118   1.932   5.031 -1.4500 -0.1036 -0.4432
  937MOL0     O23576   2.997   1.947   5.102 -0.0569  0.3260  1.4224
  937MOL0     C23577   2.875   1.953   5.030 -0.3013 -0.9499 -0.3427
  937MOL0     C23578   2.765   1.959   5.111  0.0739 -0.2886  0.2920
  937MOL0     C23579   2.637   1.949   5.055  0.7103 -0.8307 -0.3607
  937MOL0     C23580   2.625   1.926   4.913 -0.0862 -0.3075  0.2977
  937MOL0     C23581   2.488   1.896   4.857  0.3300 -0.3730 -0.0581
  937MOL0     O23582   2.400   1.856   4.955 -0.0485 -0.3703 -0.2946
  937MOL0     C23583   2.273   1.826   4.919  0.0487 -0.0179 -0.0869
  937MOL0     C23584   2.178   1.912   4.861  0.5325 -0.1345 -0.4415
  937MOL0     C23585   2.046   1.866   4.852  0.1406  0.6737  0.3069
  937MOL0     C23586   1.998   1.740   4.902 -0.7213 -0.5069 -0.5721
  937MOL0     O23587   1.868   1.697   4.880  0.3560 -0.2250 -0.2139
  937MOL0     C23588   1.763   1.791   4.902  0.2340 -0.4626 -0.1045
  937MOL0     C23589   1.642   1.693   4.901  0.5331  0.9476  0.1595
  937MOL0     C23590   1.513   1.759   4.953  0.5737  0.0644  0.1682
  937MOL0     C23591   1.394   1.654   4.950  0.4698  0.6406 -0.6107
  937MOL0     C23592   1.297   1.700   5.052  0.4941 -0.3259 -0.1860
  937MOL0     C23593   1.161   1.643   5.027 -0.8290  1.2964  0.2220
  937MOL0     C23594   1.081   1.703   5.138 -0.6830  0.0361 -0.9646
  937MOL0     C23595   0.943   1.653   5.131  0.3788  0.1474  0.2207
  937MOL0    Cl23596   0.862   1.719   5.269  0.1859 -0.4583 -0.3333
  937MOL0     C23597   2.090   1.678   4.991 -0.1876  0.4303  0.5749
  937MOL0     C23598   2.223   1.718   5.001 -0.2478  0.2105  0.4126
  937MOL0     O23599   2.464   1.913   4.738  0.0565 -0.2091 -0.3670
  937MOL0     C23600   2.733   1.935   4.832 -0.3695 -0.7486  0.2889
  937MOL0     C23601   2.857   1.951   4.888  0.2496  0.4318  0.7167
  937MOL0     N23602   3.562   1.746   4.856 -0.3583  0.8334  0.0070
  937MOL0     N23603   3.669   1.742   4.782  0.0881 -0.9998 -0.4944
  937MOL0     C23604   4.887   1.914   5.179  0.7848 -0.2778 -0.1384
  937MOL0     C23605   4.981   1.921   5.280 -0.2052 -0.4134  0.6314
  937MOL0     C23606   5.167   1.923   5.690 -0.1574  0.0570  0.1112
  937MOL0     C23607   5.154   1.931   5.834 -0.1703 -0.0927 -0.1819
  937MOL0     C23608   5.265   1.941   5.910  0.2184  0.4956 -0.7949
  937MOL0     C23609   5.398   1.948   5.861  0.3704  0.0896 -0.5065
  937MOL0     O23610   5.510   1.935   5.946  0.2617  0.4049 -0.3631
  937MOL0     C23611   5.505   1.982   6.079 -1.1334 -1.1497  0.0909
  937MOL0     C23612   5.651   1.998   6.135  0.3720  0.3368  0.8309
  937MOL0     C23613   5.752   1.893   6.088  0.4618 -0.7635 -0.0537
  937MOL0     C23614   5.889   1.887   6.162 -0.6874 -0.2655 -0.2629
  937MOL0     C23615   5.971   2.018   6.152  1.0348  0.6417 -0.0740
  937MOL0     C23616   6.035   2.119   6.149  0.3477  0.1808  0.1149
  937MOL0     C23617   5.410   1.946   5.719 -0.0688  0.1237 -0.5454
  937MOL0     C23618   5.300   1.939   5.633  0.4145 -0.3905 -0.1890
  937MOL0     H23619   4.823   1.752   5.520 -0.6604  1.4610  0.4420
  937MOL0     H23620   4.648   1.754   5.357  0.5600  0.8396  2.6516
  937MOL0     H23621   4.604   1.667   5.088 -0.9239 -0.2534 -1.2922
  937MOL0     H23622   4.746   1.697   4.989  0.6443 -0.4446  1.9792
  937MOL0     H23623   4.575   1.663   4.850 -1.1335  0.8361  0.6713
  937MOL0     H23624   4.606   1.834   4.832  0.0965 -1.0970 -2.1726
  937MOL0     H23625   4.400   1.871   4.981  0.1431  1.8701 -1.9085
  937MOL0     H23626   4.374   1.692   4.983  0.7990 -0.9205 -0.3780
  937MOL0     H23627   4.405   1.869   4.721  2.8588  0.1779  0.9693
  937MOL0     H23628   4.375   1.700   4.735  1.1351  0.5877  1.0219
  937MOL0     H23629   4.189   1.861   4.692 -0.8794  0.1411 -0.2703
  937MOL0     H23630   4.189   1.895   4.871 -0.1872 -2.6605  2.4258
  937MOL0     H23631   4.204   1.641   4.898  1.6174  2.1153 -0.6276
  937MOL0     H23632   4.134   1.632   4.740 -0.2212  1.0809 -0.5192
  937MOL0     H23633   3.968   1.610   4.921  1.1459 -0.9048  1.4362
  937MOL0     H23634   4.030   1.757   4.989 -1.8553  2.7175 -0.1973
  937MOL0     H23635   3.915   1.765   4.703  1.2222  0.4216 -0.3877
  937MOL0     H23636   3.955   1.895   4.819 -3.2946  1.1575 -0.5439
  937MOL0     H23637   3.776   1.898   5.052 -0.0448  2.3313 -1.2551
  937MOL0     H23638   3.527   1.916   5.155  2.6359 -2.1875  1.8401
  937MOL0     H23639   3.477   1.747   5.148  0.1167 -2.9608 -3.6391
  937MOL0     H23640   3.324   1.798   4.944 -0.5583  2.3382 -2.5165
  937MOL0     H23641   3.391   1.963   4.958  2.6365 -2.0119 -2.0074
  937MOL0     H23642   3.238   1.839   5.194  0.6341  0.8160  1.0120
  937MOL0     H23643   3.277   2.011   5.152 -0.9861 -0.0244  2.3627
  937MOL0     H23644   3.115   1.840   4.973  0.8412  0.8649 -2.2930
  937MOL0     H23645   3.142   2.022   4.973 -0.2828  0.0674  0.2616
  937MOL0     H23646   2.780   1.955   5.219 -1.8266  4.1200  0.9281
  937MOL0     H23647   2.552   1.946   5.123 -1.2239  0.1185 -2.6155
  937MOL0     H23648   2.224   2.005   4.830  4.5389 -1.7207  0.1758
  937MOL0     H23649   1.988   1.941   4.799  3.1785  1.5569 -2.0713
  937MOL0     H23650   1.753   1.864   4.822  0.1466 -0.9362 -0.5314
  937MOL0     H23651   1.774   1.841   4.999 -1.2776  0.1304 -0.2129
  937MOL0     H23652   1.656   1.609   4.970 -2.6725 -0.9687 -1.3109
  937MOL0     H23653   1.619   1.651   4.803 -0.4892 -0.4844  0.9628
  937MOL0     H23654   1.489   1.845   4.890  0.8553  0.0930  0.1011
  937MOL0     H23655   1.531   1.801   5.052 -4.5699  2.6705  0.3460
  937MOL0     H23656   1.349   1.659   4.851 -1.6377  1.5595  0.3418
  937MOL0     H23657   1.437   1.554   4.968  0.4819  0.4073 -1.8549
  937MOL0     H23658   1.295   1.809   5.047  0.4883 -0.2526  1.0525
  937MOL0     H23659   1.324   1.667   5.153 -2.4726 -2.1948  0.1196
  937MOL0     H23660   1.165   1.534   5.037 -1.1204  1.3962  1.5928
  937MOL0     H23661   1.129   1.658   4.923  3.8813 -2.1980 -2.1157
  937MOL0     H23662   1.128   1.666   5.229  0.1021 -2.2537 -2.2222
  937MOL0     H23663   1.077   1.812   5.129 -0.8875 -0.0769 -2.6088
  937MOL0     H23664   0.947   1.545   5.147  2.1351 -0.7046 -4.5107
  937MOL0     H23665   0.905   1.666   5.030  0.6689 -2.2107 -0.2563
  937MOL0     H23666   2.057   1.589   5.043  0.8578 -0.4949 -0.2726
  937MOL0     H23667   2.291   1.666   5.068  0.9938  0.3540 -0.6815
  937MOL0     H23668   2.725   1.929   4.724  1.3623 -3.1332  0.2096
  937MOL0     H23669   2.945   1.937   4.826 -0.6540  0.0915 -0.5337
  937MOL0     H23670   4.920   1.955   5.084  1.7209 -1.1993 -0.2280
  937MOL0     H23671   5.075   1.971   5.259 -0.6586  0.9992  1.7638
  937MOL0     H23672   5.056   1.923   5.880  1.0060 -2.3691  2.1748
  937MOL0     H23673   5.256   1.939   6.018 -1.1789 -1.3628 -0.8862
  937MOL0     H23674   5.450   1.920   6.150  0.2331  0.2015  2.4582
  937MOL0     H23675   5.463   2.083   6.081 -2.6702 -1.7425 -0.2582
  937MOL0     H23676   5.691   2.094   6.103  2.0981 -0.5213  0.2985
  937MOL0     H23677   5.640   1.998   6.244  0.5893 -1.6877  0.8967
  937MOL0     H23678   5.770   1.909   5.981 -0.5872 -2.6015 -0.5600
  937MOL0     H23679   5.709   1.792   6.089 -1.5490  0.0405 -0.0588
  937MOL0     H23680   5.873   1.875   6.270 -1.9177  1.8634 -0.1535
  937MOL0     H23681   5.950   1.803   6.129  2.0595  1.5704 -0.1645
  937MOL0     H23682   6.082   2.213   6.129  1.4754 -0.1859  0.9837
  937MOL0     H23683   5.511   1.947   5.679  1.0323 -1.5962  1.9449
  937MOL0     H23684   5.309   1.918   5.526 -1.7349 -2.8208 -0.0031
  938MOL0     O23685   0.584   5.271   5.877 -0.3136  0.4749 -0.3832
  938MOL0     C23686   0.549   5.305   5.988 -0.3675 -0.3348 -0.3870
  938MOL0     O23687   0.629   5.381   6.078  0.2581  0.1950 -0.6434
  938MOL0     C23688   0.764   5.395   6.067  0.1246 -0.6906  0.2009
  938MOL0     C23689   0.847   5.341   6.162  0.6437  0.1652 -0.2974
  938MOL0     C23690   0.987   5.349   6.155  0.8096 -0.0828  0.8616
  938MOL0     C23691   1.040   5.398   6.042 -0.1157  0.3370  0.0032
  938MOL0     O23692   1.177   5.398   6.036 -0.1276 -0.3422  0.8253
  938MOL0     C23693   1.247   5.439   5.913  0.1135  0.4944 -0.2378
  938MOL0     C23694   1.376   5.504   5.954  0.1264 -0.8759  0.5202
  938MOL0     C23695   1.363   5.654   5.954 -0.5319 -0.3475 -0.6093
  938MOL0     C23696   1.513   5.722   5.948  0.7794 -0.2211  0.0756
  938MOL0     C23697   1.505   5.866   5.909 -0.8030 -0.2022 -0.3818
  938MOL0     C23698   1.637   5.917   5.867 -0.6823  0.7160 -0.2102
  938MOL0     C23699   1.635   6.066   5.844 -0.6929  0.3566  0.5325
  938MOL0     C23700   1.666   6.153   5.967 -0.0812  0.4080 -0.5391
  938MOL0     N23701   1.809   6.187   5.986  0.3384  0.0173  0.2154
  938MOL0     C23702   1.869   6.312   5.948 -0.2613  0.4234 -0.5886
  938MOL0     C23703   2.008   6.293   5.953 -0.7489  0.6546 -0.3180
  938MOL0     C23704   2.120   6.397   5.921  0.7707 -0.2185 -0.7545
  938MOL0     C23705   2.088   6.507   5.820 -0.0953 -0.3588  0.1668
  938MOL0     C23706   2.101   6.647   5.880 -0.4730  0.7168 -0.0518
  938MOL0     C23707   2.236   6.668   5.944 -0.6751 -0.3284 -0.4872
  938MOL0     O23708   2.257   6.811   5.959  0.2417 -0.0440 -0.2364
  938MOL0     C23709   2.378   6.855   6.026  0.5598  0.8396 -0.2638
  938MOL0     C23710   2.397   6.989   6.039 -1.0376  0.2026  0.3471
  938MOL0     C23711   2.522   7.038   6.095 -0.2994  0.0084  0.3646
  938MOL0     C23712   2.628   6.947   6.143  1.0355 -0.3627  0.3335
  938MOL0     C23713   2.753   6.988   6.195  0.2580 -0.0719 -0.3559
  938MOL0     O23714   2.768   7.123   6.175  0.1166 -0.0547  0.3187
  938MOL0     C23715   2.881   7.177   6.231  0.0470 -0.3541 -0.3789
  938MOL0     C23716   2.958   7.268   6.163  0.1532 -0.0218  0.7482
  938MOL0     C23717   3.068   7.332   6.211 -0.2541  1.1034  0.5150
  938MOL0     C23718   3.102   7.315   6.344  0.3791 -0.0616 -0.2914
  938MOL0     O23719   3.199   7.379   6.406  0.0988 -0.0012 -0.2569
  938MOL0     C23720   3.290   7.468   6.338 -0.1764 -0.4179  0.3883
  938MOL0     C23721   3.357   7.534   6.459  0.2486  0.3086 -0.0506
  938MOL0     C23722   3.461   7.444   6.522 -0.9065  0.1767  0.2141
  938MOL0     C23723   3.531   7.506   6.636  0.1167 -1.2316  0.4355
  938MOL0     C23724   3.613   7.413   6.718  0.1296  0.0625 -0.3180
  938MOL0     C23725   3.677   7.486   6.836 -0.2710  1.1863 -0.5154
  938MOL0     C23726   3.828   7.504   6.815  0.5076 -0.5119  0.5248
  938MOL0     C23727   3.887   7.616   6.900 -0.4496  0.5938  1.0004
  938MOL0    Cl23728   4.070   7.591   6.928  0.1788  0.2518 -0.1127
  938MOL0     C23729   3.028   7.227   6.423 -0.3959  0.4774  0.3062
  938MOL0     C23730   2.913   7.174   6.372  0.6821  0.9166 -0.1671
  938MOL0     O23731   2.833   6.906   6.243  0.1417 -0.1879  0.2071
  938MOL0     C23732   2.588   6.814   6.131 -0.1352  0.4856 -0.4703
  938MOL0     C23733   2.478   6.770   6.070 -0.5584  0.1571  0.3781
  938MOL0     N23734   2.029   6.163   6.002  0.2394  0.1731  0.1127
  938MOL0     N23735   1.909   6.103   6.014 -0.3995  0.5815  0.5642
  938MOL0     C23736   0.958   5.437   5.934  0.2424 -0.5539  0.2736
  938MOL0     C23737   0.819   5.440   5.956  0.0111  0.4040 -0.7093
  938MOL0     C23738   0.407   5.271   6.024  0.2203  0.1481  0.1734
  938MOL0     C23739   0.375   5.277   6.158 -0.8819 -0.2523  1.0465
  938MOL0     C23740   0.241   5.256   6.197  0.2245  0.0162  0.6505
  938MOL0     C23741   0.139   5.225   6.103  0.5102 -0.0298  0.0421
  938MOL0     O23742   0.006   5.220   6.153 -0.2576  0.4592 -0.4689
  938MOL0     C23743  -0.096   5.153   6.070 -0.3557  0.2019 -0.5398
  938MOL0     C23744  -0.237   5.157   6.129  0.4770  0.5866 -0.0043
  938MOL0     C23745  -0.338   5.045   6.103 -0.3435  0.7550  0.1657
  938MOL0     C23746  -0.389   5.041   5.957 -0.0151 -0.8929 -0.1211
  938MOL0     C23747  -0.494   4.936   5.942 -0.5344  0.8664 -0.7260
  938MOL0     C23748  -0.592   4.862   5.933 -0.4092  0.3603  0.3211
  938MOL0     C23749   0.175   5.208   5.971  0.7411 -0.6398 -0.6844
  938MOL0     C23750   0.308   5.226   5.935  0.0029  0.0624  0.2257
  938MOL0     H23751   0.794   5.307   6.251  1.7867 -0.7221  0.0592
  938MOL0     H23752   1.060   5.340   6.235  1.5409  0.5750  0.2902
  938MOL0     H23753   1.191   5.506   5.848 -0.4078  0.3350  0.0440
  938MOL0     H23754   1.279   5.351   5.857 -0.6502 -1.2433  1.9141
  938MOL0     H23755   1.449   5.492   5.874 -0.7411 -1.6456 -0.1761
  938MOL0     H23756   1.420   5.463   6.046 -1.0004  0.3509  1.6521
  938MOL0     H23757   1.320   5.673   6.053 -0.4990  0.3401 -0.7229
  938MOL0     H23758   1.301   5.694   5.873 -0.4675  1.9810  0.4148
  938MOL0     H23759   1.570   5.722   6.041 -1.9311 -0.5685  1.8750
  938MOL0     H23760   1.568   5.674   5.867 -0.7251  1.9872 -2.4451
  938MOL0     H23761   1.470   5.922   5.997  1.7564  1.8697 -0.5591
  938MOL0     H23762   1.440   5.877   5.821  3.6981  0.2470 -3.9973
  938MOL0     H23763   1.665   5.860   5.778  0.0585 -0.8139  0.9493
  938MOL0     H23764   1.714   5.898   5.943 -1.3125  0.5997  0.4118
  938MOL0     H23765   1.710   6.088   5.768 -1.1043 -1.5998 -0.5164
  938MOL0     H23766   1.534   6.090   5.808 -0.6226  0.3519  0.3352
  938MOL0     H23767   1.619   6.115   6.058  1.1689 -2.9490 -1.1338
  938MOL0     H23768   1.611   6.245   5.948 -0.4509  0.7547  1.9484
  938MOL0     H23769   1.822   6.401   5.907 -0.5959  0.2621 -0.5570
  938MOL0     H23770   2.210   6.341   5.895  0.3356 -2.3959  1.9265
  938MOL0     H23771   2.134   6.446   6.018  0.1324  0.0991 -0.8198
  938MOL0     H23772   1.989   6.491   5.777 -1.3187  0.1115  2.6170
  938MOL0     H23773   2.153   6.504   5.732 -0.9772 -1.5194 -0.4720
  938MOL0     H23774   2.085   6.712   5.793  0.5527  2.1620  0.8064
  938MOL0     H23775   2.021   6.656   5.954 -0.4061 -4.3225  0.9906
  938MOL0     H23776   2.319   6.628   5.885 -0.2274 -2.1266  1.2300
  938MOL0     H23777   2.229   6.621   6.043 -0.1646 -0.6282 -0.5904
  938MOL0     H23778   2.328   7.064   6.002 -1.9287  0.0418  1.5840
  938MOL0     H23779   2.552   7.142   6.097  2.7212 -0.7536  0.0956
  938MOL0     H23780   2.917   7.296   6.066 -3.3387  1.3401  2.4562
  938MOL0     H23781   3.126   7.399   6.148  0.9954 -1.5190 -1.3158
  938MOL0     H23782   3.238   7.539   6.274 -0.8355 -0.9224  0.3465
  938MOL0     H23783   3.363   7.416   6.276  1.7119  1.9042  0.5045
  938MOL0     H23784   3.286   7.558   6.538  1.1286 -0.8284  1.1135
  938MOL0     H23785   3.398   7.626   6.416 -0.5397  0.4229 -0.5822
  938MOL0     H23786   3.535   7.430   6.442  0.9311 -0.9548  2.0377
  938MOL0     H23787   3.425   7.352   6.569  2.2651 -2.0416 -1.3148
  938MOL0     H23788   3.599   7.581   6.595  1.5688 -2.0381  1.2868
  938MOL0     H23789   3.457   7.545   6.707 -0.2526 -1.3919  0.1400
  938MOL0     H23790   3.680   7.337   6.678  0.6388 -1.7532  3.5576
  938MOL0     H23791   3.535   7.349   6.761  1.2240 -0.4274  0.9925
  938MOL0     H23792   3.655   7.422   6.922  0.2969  3.8092  1.7264
  938MOL0     H23793   3.620   7.574   6.867 -0.3026  0.5941  1.1992
  938MOL0     H23794   3.878   7.410   6.841  0.5369 -0.2988  1.2476
  938MOL0     H23795   3.848   7.522   6.709  1.0645 -1.8683  0.3738
  938MOL0     H23796   3.848   7.614   7.003 -0.1382 -0.4398  1.1119
  938MOL0     H23797   3.865   7.714   6.858  0.4921  1.2489  1.9814
  938MOL0     H23798   3.048   7.212   6.529 -3.4033  0.0516  0.8951
  938MOL0     H23799   2.853   7.107   6.434  1.2184  1.6262  1.1620
  938MOL0     H23800   2.658   6.735   6.155  1.2942  2.0873  0.8453
  938MOL0     H23801   2.468   6.663   6.052 -1.6894  0.5413 -1.6472
  938MOL0     H23802   0.985   5.485   5.840 -2.1092 -0.3211 -0.3415
  938MOL0     H23803   0.759   5.487   5.877 -2.1508  1.1581  1.2629
  938MOL0     H23804   0.438   5.315   6.239 -0.7601  1.0159  0.3946
  938MOL0     H23805   0.204   5.272   6.298 -2.6808 -1.2698 -0.1033
  938MOL0     H23806  -0.072   5.050   6.043  1.6432  0.2257  0.9257
  938MOL0     H23807  -0.088   5.209   5.976  1.8608  0.8435 -0.0222
  938MOL0     H23808  -0.224   5.177   6.236 -0.4320  2.0908 -0.1455
  938MOL0     H23809  -0.271   5.253   6.090 -1.4188  0.2987  0.8215
  938MOL0     H23810  -0.427   5.054   6.166 -1.7280 -1.8442 -1.2591
  938MOL0     H23811  -0.295   4.950   6.136 -1.6614 -0.0453 -0.3409
  938MOL0     H23812  -0.430   5.139   5.932  2.6337  0.2907 -0.1514
  938MOL0     H23813  -0.306   5.016   5.890 -0.9888  1.6764 -2.4744
  938MOL0     H23814  -0.658   4.780   5.915  2.1888 -1.6158 -0.9167
  938MOL0     H23815   0.107   5.173   5.895 -2.0598  0.2275  1.2686
  938MOL0     H23816   0.330   5.192   5.835 -1.7932 -3.0931  0.7612
  939MOL0     O23817   2.451   3.260   8.722 -0.7262  0.6785  0.1566
  939MOL0     C23818   2.467   3.367   8.779 -0.0653  0.0328 -0.3564
  939MOL0     O23819   2.360   3.455   8.810 -0.0495 -0.3685 -0.3704
  939MOL0     C23820   2.236   3.422   8.765  0.1930 -0.4471  0.0432
  939MOL0     C23821   2.133   3.391   8.851  0.0499  0.6184 -0.0311
  939MOL0     C23822   2.003   3.363   8.806 -0.2278 -0.9724 -0.4614
  939MOL0     C23823   1.970   3.377   8.670 -0.6376  0.4703  0.0171
  939MOL0     O23824   1.840   3.357   8.639 -0.0868  0.3949  0.8845
  939MOL0     C23825   1.810   3.309   8.497 -0.4660 -0.5540 -0.8007
  939MOL0     C23826   1.669   3.250   8.508  0.3965 -0.4099 -0.0175
  939MOL0     C23827   1.651   3.155   8.394  0.1525 -0.3974  0.7584
  939MOL0     C23828   1.513   3.084   8.395 -0.1679  1.2517  0.1023
  939MOL0     C23829   1.483   3.029   8.261 -0.6073  1.2988 -1.1841
  939MOL0     C23830   1.337   2.984   8.256 -0.5905 -0.2606  0.2520
  939MOL0     C23831   1.292   2.863   8.348  0.2247 -0.6414  0.1574
  939MOL0     C23832   1.158   2.825   8.307  0.0850 -0.1558  0.6660
  939MOL0     N23833   1.098   2.700   8.366  0.1292  1.0187  0.6763
  939MOL0     C23834   0.991   2.620   8.317 -0.1013 -0.0830  0.3516
  939MOL0     C23835   0.979   2.529   8.417  0.5812  0.1404  0.7167
  939MOL0     C23836   0.875   2.425   8.404 -0.2298 -1.0685 -0.0786
  939MOL0     C23837   0.774   2.459   8.527 -0.4049  0.6944 -0.4974
  939MOL0     C23838   0.716   2.597   8.510  0.1912 -0.3158 -0.0560
  939MOL0     C23839   0.593   2.627   8.606 -0.3621  0.0685  0.9504
  939MOL0     O23840   0.479   2.576   8.537  0.3804  0.9136 -0.2761
  939MOL0     C23841   0.353   2.584   8.593 -1.1316  0.5191  0.1258
  939MOL0     C23842   0.321   2.605   8.726  0.4485  0.0941  0.8634
  939MOL0     C23843   0.181   2.596   8.762  0.4174  0.1593 -0.9589
  939MOL0     C23844   0.077   2.585   8.671 -0.4259  0.5404 -0.2518
  939MOL0     C23845  -0.067   2.592   8.707 -0.2480  0.0619 -0.0352
  939MOL0     O23846  -0.159   2.569   8.606  0.1408  0.2893  0.0586
  939MOL0     C23847  -0.295   2.582   8.634 -0.3296 -0.6043 -0.5552
  939MOL0     C23848  -0.374   2.644   8.534  0.0936  0.1787  0.2782
  939MOL0     C23849  -0.511   2.656   8.556  1.0946  0.1527  0.0192
  939MOL0     C23850  -0.576   2.610   8.674  0.2727 -0.8007 -0.2977
  939MOL0     O23851  -0.707   2.633   8.706 -0.5390  0.3000  0.1585
  939MOL0     C23852  -0.767   2.770   8.677  0.2770  0.5527 -0.8015
  939MOL0     C23853  -0.925   2.758   8.688  0.8987  0.3123  0.9124
  939MOL0     C23854  -0.983   2.908   8.692 -0.7268  1.0124 -0.0623
  939MOL0     C23855  -1.131   2.929   8.708  0.1620 -0.2290 -0.2931
  939MOL0     C23856  -1.183   2.899   8.849  0.7756 -0.1007  0.3623
  939MOL0     C23857  -1.337   2.891   8.841 -0.3762  0.6406  0.3588
  939MOL0     C23858  -1.401   2.898   8.977 -0.8754 -0.5059 -0.2493
  939MOL0     C23859  -1.546   2.873   8.967  0.1768 -0.1670 -0.5173
  939MOL0    Cl23860  -1.645   3.018   8.984  0.2265 -0.1038  0.3184
  939MOL0     C23861  -0.501   2.539   8.772  0.9267  0.1465  0.0692
  939MOL0     C23862  -0.365   2.524   8.747  0.5425  0.5745  0.8841
  939MOL0     O23863  -0.084   2.623   8.827 -0.2919 -0.8760  0.4543
  939MOL0     C23864   0.111   2.564   8.534  0.4309  0.1609 -0.2989
  939MOL0     C23865   0.248   2.555   8.500 -0.6070 -0.5265 -0.7545
  939MOL0     N23866   1.075   2.540   8.511  0.8122  0.4543  0.9975
  939MOL0     N23867   1.140   2.654   8.483  0.4640  0.5920 -0.4877
  939MOL0     C23868   2.076   3.421   8.579 -0.1753  0.9745  0.0894
  939MOL0     C23869   2.204   3.435   8.631  0.2333  0.3407 -0.3740
  939MOL0     C23870   2.605   3.407   8.823 -0.0086 -0.1217 -0.1835
  939MOL0     C23871   2.624   3.504   8.922 -0.2204 -0.6781 -0.8005
  939MOL0     C23872   2.746   3.551   8.965 -0.7845 -0.2085  1.0146
  939MOL0     C23873   2.854   3.497   8.913 -0.3510  0.5611  0.2569
  939MOL0     O23874   2.980   3.546   8.962  0.0563  0.1569  0.8683
  939MOL0     C23875   3.097   3.458   8.959 -0.4316  0.4335 -0.0606
  939MOL0     C23876   3.229   3.531   8.969  0.2041 -0.5238 -0.5045
  939MOL0     C23877   3.259   3.650   8.862 -0.0773  0.3657 -0.0187
  939MOL0     C23878   3.384   3.737   8.892  0.1364 -0.6044  0.1442
  939MOL0     C23879   3.432   3.813   8.777  0.4259 -0.6546 -1.0224
  939MOL0     C23880   3.476   3.883   8.691 -1.0566  0.7641 -0.4555
  939MOL0     C23881   2.846   3.398   8.807  0.1930 -0.7473 -0.1554
  939MOL0     C23882   2.723   3.345   8.776 -0.1442  0.1598  0.5067
  939MOL0     H23883   2.150   3.374   8.957 -0.4536 -0.6344 -0.1223
  939MOL0     H23884   1.936   3.337   8.887  0.2715 -0.4024  0.1381
  939MOL0     H23885   1.890   3.237   8.478 -0.1356  0.1312 -2.0983
  939MOL0     H23886   1.820   3.382   8.417  0.0427 -0.3752 -0.5817
  939MOL0     H23887   1.589   3.323   8.519  1.8496  1.0606  1.3988
  939MOL0     H23888   1.662   3.186   8.596  0.9379  0.4747  0.6843
  939MOL0     H23889   1.743   3.096   8.389  0.8017  0.6247  0.2010
  939MOL0     H23890   1.649   3.215   8.302  2.6596 -2.7292 -0.9684
  939MOL0     H23891   1.500   3.004   8.469 -3.7724  1.7514  0.2025
  939MOL0     H23892   1.436   3.157   8.419 -1.5274 -0.0605 -0.1201
  939MOL0     H23893   1.551   2.946   8.239 -1.2440  0.4696 -0.1505
  939MOL0     H23894   1.502   3.103   8.184  3.6579  1.0856 -0.5712
  939MOL0     H23895   1.328   2.946   8.154  3.2962 -0.9482  0.0080
  939MOL0     H23896   1.280   3.077   8.269  0.6209  0.2423  2.8574
  939MOL0     H23897   1.360   2.777   8.346 -1.6064 -2.1540  0.6553
  939MOL0     H23898   1.290   2.902   8.450  3.1179 -2.3381  0.9741
  939MOL0     H23899   1.163   2.800   8.201  1.1869  0.3649  0.5854
  939MOL0     H23900   1.083   2.906   8.311  0.2953  0.1545 -1.0321
  939MOL0     H23901   0.934   2.623   8.225 -0.8836  0.0902  0.8328
  939MOL0     H23902   0.913   2.323   8.410  0.6798 -0.6582  1.6677
  939MOL0     H23903   0.812   2.438   8.316 -0.3614  1.2486  0.2820
  939MOL0     H23904   0.848   2.461   8.607  0.6354  0.0507 -1.4133
  939MOL0     H23905   0.700   2.379   8.540  1.5096 -1.0324  0.3832
  939MOL0     H23906   0.799   2.658   8.547  0.7165 -1.1279  0.1396
  939MOL0     H23907   0.694   2.623   8.406  1.7162  0.0454 -0.3100
  939MOL0     H23908   0.590   2.732   8.636  0.2083  0.5555 -0.6062
  939MOL0     H23909   0.609   2.575   8.702  1.1194  0.1052  0.7539
  939MOL0     H23910   0.393   2.624   8.804 -2.1477 -1.6297  3.9277
  939MOL0     H23911   0.156   2.610   8.866 -3.0896  1.1662 -1.8123
  939MOL0     H23912  -0.321   2.679   8.446  0.1175  0.2653  0.3274
  939MOL0     H23913  -0.576   2.714   8.491 -1.6507 -1.2724  1.3448
  939MOL0     H23914  -0.738   2.806   8.578 -1.6591  0.7128 -1.3559
  939MOL0     H23915  -0.730   2.838   8.754  1.4649 -1.6575  0.6735
  939MOL0     H23916  -0.946   2.701   8.778 -1.8353 -1.7282 -0.8585
  939MOL0     H23917  -0.976   2.704   8.608  0.2265  1.0832  0.8090
  939MOL0     H23918  -0.961   2.958   8.597 -1.1351 -1.0079 -1.2561
  939MOL0     H23919  -0.929   2.968   8.767  3.1126 -0.1656 -1.6215
  939MOL0     H23920  -1.147   3.034   8.680  2.5557  0.2159 -0.1653
  939MOL0     H23921  -1.188   2.862   8.642  0.7333  1.6242 -2.8323
  939MOL0     H23922  -1.135   2.970   8.917  3.1044 -1.4775  0.2455
  939MOL0     H23923  -1.144   2.803   8.884 -1.7734 -1.5672 -0.5552
  939MOL0     H23924  -1.352   2.793   8.796  0.3027  0.4785  0.4730
  939MOL0     H23925  -1.372   2.971   8.775 -1.1242  0.3530  0.4048
  939MOL0     H23926  -1.358   2.815   9.034 -0.8581 -1.1360 -1.1668
  939MOL0     H23927  -1.388   2.997   9.022 -1.9298  0.3703 -1.8009
  939MOL0     H23928  -1.569   2.808   9.053  0.3217  0.2487 -0.1642
  939MOL0     H23929  -1.576   2.817   8.878 -2.9632 -1.1440  0.9714
  939MOL0     H23930  -0.545   2.485   8.856  0.9511 -0.0635 -0.0515
  939MOL0     H23931  -0.312   2.457   8.813  0.3733  1.2483  1.7342
  939MOL0     H23932   0.030   2.543   8.465  0.1637 -2.5942  0.7105
  939MOL0     H23933   0.276   2.551   8.395  1.9675  2.1759 -0.3122
  939MOL0     H23934   2.056   3.447   8.475  0.7621 -0.1572 -0.3949
  939MOL0     H23935   2.280   3.453   8.555  0.8644 -3.3854 -0.8495
  939MOL0     H23936   2.539   3.541   8.978  0.3725  2.8010 -1.9514
  939MOL0     H23937   2.751   3.621   9.048  3.3101  1.2290 -0.2113
  939MOL0     H23938   3.098   3.421   8.856 -3.2360  1.7859 -0.6767
  939MOL0     H23939   3.093   3.383   9.038  0.8019  2.2883  1.8750
  939MOL0     H23940   3.233   3.584   9.065  1.9890 -2.9409  0.8582
  939MOL0     H23941   3.318   3.468   8.961  1.2912  1.1033 -1.6808
  939MOL0     H23942   3.178   3.723   8.864 -1.4849 -1.1264  0.1262
  939MOL0     H23943   3.259   3.596   8.767 -1.1821  0.6063 -0.1770
  939MOL0     H23944   3.374   3.811   8.972 -2.8129  0.2235 -0.8513
  939MOL0     H23945   3.461   3.664   8.916 -0.6006 -1.7848 -0.9681
  939MOL0     H23946   3.515   3.933   8.605  3.2544  1.0237  1.4316
  939MOL0     H23947   2.929   3.346   8.760  0.6418  1.4250 -1.8965
  939MOL0     H23948   2.714   3.256   8.714  1.0000  1.6013 -1.8392
  940MOL0     O23949   5.603   9.195   7.965  0.0819 -0.2917  0.4043
  940MOL0     C23950   5.617   9.235   7.852  0.6730 -0.5626 -0.2600
  940MOL0     O23951   5.523   9.300   7.781 -0.4203 -0.4395 -0.2669
  940MOL0     C23952   5.411   9.348   7.845  0.1404 -0.7283 -0.1834
  940MOL0     C23953   5.304   9.372   7.760  0.1678  0.1719  0.0905
  940MOL0     C23954   5.179   9.427   7.803 -1.0310  0.1991 -1.0295
  940MOL0     C23955   5.163   9.458   7.936  0.2029  0.5058 -0.4177
  940MOL0     O23956   5.060   9.527   7.999  0.0979 -0.3558  0.5332
  940MOL0     C23957   4.949   9.554   7.918 -0.6411  0.5093  0.0898
  940MOL0     C23958   4.853   9.627   8.008 -0.1181 -0.3226 -0.0262
  940MOL0     C23959   4.709   9.618   7.957 -0.2408 -0.4916 -0.9913
  940MOL0     C23960   4.599   9.704   8.024 -0.3347 -0.4569 -0.0176
  940MOL0     C23961   4.613   9.864   8.008  0.1693  0.3930 -0.4260
  940MOL0     C23962   4.501   9.938   8.091 -0.0669 -0.4697  0.5287
  940MOL0     C23963   4.532   9.953   8.241 -0.1901  0.5495 -0.6155
  940MOL0     C23964   4.647  10.066   8.276  0.8909 -0.2724  0.1259
  940MOL0     N23965   4.604  10.198   8.242  0.9834 -0.3425 -0.4447
  940MOL0     C23966   4.470  10.240   8.240  0.3216 -0.0438  0.4466
  940MOL0     C23967   4.474  10.346   8.160  0.6413 -0.6746 -0.5669
  940MOL0     C23968   4.353  10.433   8.143 -0.8229  0.6952 -0.5718
  940MOL0     C23969   4.334  10.519   8.264 -0.2300 -0.5013 -0.8780
  940MOL0     C23970   4.281  10.655   8.227 -0.0473  0.7493 -1.1491
  940MOL0     C23971   4.208  10.724   8.342  0.3310 -0.3871 -0.2461
  940MOL0     O23972   4.085  10.662   8.362  0.8451 -0.3451 -0.0598
  940MOL0     C23973   3.990  10.716   8.437 -0.1508  0.4475 -0.7040
  940MOL0     C23974   4.013  10.838   8.504  0.0429  0.4080  0.3250
  940MOL0     C23975   3.919  10.880   8.587  0.3085  0.5050 -1.0362
  940MOL0     C23976   3.805  10.807   8.618 -0.1683 -0.1456 -0.1684
  940MOL0     C23977   3.718  10.859   8.727  0.4650  0.2307 -0.5408
  940MOL0     O23978   3.762  10.968   8.798  0.0673 -0.3249 -0.3097
  940MOL0     C23979   3.686  10.999   8.913 -0.0499 -0.2681 -0.2752
  940MOL0     C23980   3.564  11.065   8.906 -0.0257 -0.4989 -0.5070
  940MOL0     C23981   3.493  11.095   9.021 -0.4800  0.0137  1.0221
  940MOL0     C23982   3.543  11.072   9.151  0.1337  0.3568  0.1457
  940MOL0     O23983   3.466  11.107   9.255  0.4364 -0.2432  0.0374
  940MOL0     C23984   3.513  11.075   9.383  1.2058  0.0461 -0.4166
  940MOL0     C23985   3.417  11.148   9.485 -0.4424 -0.1597 -0.1746
  940MOL0     C23986   3.276  11.092   9.499  0.1167  0.5983  0.4782
  940MOL0     C23987   3.174  11.189   9.567  0.2283 -0.4347  0.8799
  940MOL0     C23988   3.213  11.241   9.706 -0.0904 -0.7020  0.4079
  940MOL0     C23989   3.106  11.331   9.771  0.0403  0.2097  0.7257
  940MOL0     C23990   3.169  11.372   9.905 -0.2454  0.3982  0.0696
  940MOL0     C23991   3.070  11.460   9.993 -0.3623  0.3059  0.2542
  940MOL0    Cl23992   2.967  11.587   9.907  0.7549  0.0952 -0.0487
  940MOL0     C23993   3.670  11.011   9.158 -0.1830 -0.7751  1.0135
  940MOL0     C23994   3.736  10.974   9.042  0.1376 -0.9862  0.3686
  940MOL0     O23995   3.613  10.797   8.751  0.0266 -0.1827 -0.1598
  940MOL0     C23996   3.786  10.683   8.559 -0.7677 -0.2219 -0.0031
  940MOL0     C23997   3.881  10.646   8.460 -0.0133  0.4200 -0.1157
  940MOL0     N23998   4.608  10.376   8.127 -0.1278  0.3671  0.7207
  940MOL0     N23999   4.682  10.287   8.178 -0.2217  0.3452  0.1523
  940MOL0     C24000   5.264   9.434   8.021  0.0691  1.3744  0.7201
  940MOL0     C24001   5.388   9.377   7.980 -0.8830  0.4595  0.1902
  940MOL0     C24002   5.726   9.180   7.776 -0.1259  0.0053  1.1136
  940MOL0     C24003   5.803   9.075   7.831 -0.0360 -0.1404 -0.8395
  940MOL0     C24004   5.916   9.019   7.763 -0.1910  0.2180 -0.4500
  940MOL0     C24005   5.964   9.072   7.639 -0.4875 -0.4906  0.8329
  940MOL0     O24006   6.070   9.023   7.559 -0.5288 -0.6635 -0.7812
  940MOL0     C24007   6.167   8.935   7.616 -0.4048 -0.3096 -0.4467
  940MOL0     C24008   6.265   9.006   7.714  1.1698  0.1936 -0.1444
  940MOL0     C24009   6.393   9.051   7.648  0.1832  0.1688 -0.5536
  940MOL0     C24010   6.414   9.199   7.686 -0.4642  0.0609 -0.5365
  940MOL0     C24011   6.316   9.289   7.631 -0.3933 -0.1971  0.4949
  940MOL0     C24012   6.218   9.341   7.580  0.2454 -0.4855 -0.5410
  940MOL0     C24013   5.889   9.184   7.592  0.8777 -0.0183 -0.5862
  940MOL0     C24014   5.781   9.240   7.661 -1.0169 -0.6607  0.4176
  940MOL0     H24015   5.314   9.348   7.654 -1.3639 -2.1656  0.4077
  940MOL0     H24016   5.098   9.450   7.734  0.1332 -0.8986 -2.8559
  940MOL0     H24017   4.914   9.465   7.864  1.1714  0.4801 -1.0934
  940MOL0     H24018   4.984   9.626   7.844  0.8657 -2.5616 -2.4159
  940MOL0     H24019   4.883   9.732   8.009 -2.8066  0.5251  0.3974
  940MOL0     H24020   4.855   9.586   8.109  1.7493  0.5265  0.3268
  940MOL0     H24021   4.679   9.512   7.952  0.4685 -0.6940 -1.1138
  940MOL0     H24022   4.709   9.660   7.856 -4.7297 -0.8706 -1.3329
  940MOL0     H24023   4.504   9.681   7.976 -0.5673  0.2949  0.0731
  940MOL0     H24024   4.603   9.670   8.128  1.7066 -0.7156 -0.1288
  940MOL0     H24025   4.590   9.896   7.906 -0.9156  0.5556 -0.1439
  940MOL0     H24026   4.716   9.893   8.031 -0.4519  0.4922  2.6233
  940MOL0     H24027   4.408   9.881   8.078  1.3092 -3.3000  1.9949
  940MOL0     H24028   4.489  10.035   8.042  0.9315 -0.1351  0.9289
  940MOL0     H24029   4.438   9.978   8.291 -0.4733 -0.2669 -0.7381
  940MOL0     H24030   4.562   9.855   8.278 -2.7716 -0.1485 -0.2037
  940MOL0     H24031   4.736  10.047   8.217  2.4012 -1.9125  2.7538
  940MOL0     H24032   4.678  10.069   8.381 -3.4523  0.0007  1.6352
  940MOL0     H24033   4.388  10.192   8.293 -0.1635 -0.5340 -0.7224
  940MOL0     H24034   4.270  10.367   8.119  0.9565 -1.5166 -0.9188
  940MOL0     H24035   4.364  10.495   8.054  0.7462 -0.2927 -1.0969
  940MOL0     H24036   4.429  10.527   8.319  0.2693 -0.0073 -1.8061
  940MOL0     H24037   4.263  10.481   8.338 -0.7935  3.0576  0.5867
  940MOL0     H24038   4.359  10.718   8.184 -0.3932  2.6791  0.8550
  940MOL0     H24039   4.206  10.638   8.149 -0.7732 -1.1920 -0.1048
  940MOL0     H24040   4.188  10.829   8.319 -2.0691 -0.7759 -0.1565
  940MOL0     H24041   4.267  10.718   8.435 -0.2195 -0.1898  0.1189
  940MOL0     H24042   4.098  10.904   8.493 -0.0239  0.1893 -2.1907
  940MOL0     H24043   3.947  10.972   8.639  1.0151  0.3836 -1.1924
  940MOL0     H24044   3.530  11.092   8.807  1.3220  0.7557 -0.6668
  940MOL0     H24045   3.394  11.134   9.003 -0.3091  0.4327  0.9763
  940MOL0     H24046   3.616  11.108   9.398  1.5444 -0.1950 -2.0001
  940MOL0     H24047   3.512  10.967   9.400  2.7418  0.4207  2.7520
  940MOL0     H24048   3.412  11.255   9.462 -0.1966 -0.5643 -2.3181
  940MOL0     H24049   3.467  11.141   9.581 -0.0572 -1.0690 -0.4307
  940MOL0     H24050   3.285  11.003   9.562  0.3187  0.0202 -0.3546
  940MOL0     H24051   3.235  11.060   9.403  3.7777  0.3391 -1.1586
  940MOL0     H24052   3.160  11.271   9.495  2.3061  1.3673  2.4151
  940MOL0     H24053   3.069  11.158   9.569  0.4181 -1.4609 -1.5574
  940MOL0     H24054   3.307  11.295   9.698 -0.4412  0.7968  4.1262
  940MOL0     H24055   3.229  11.156   9.774  0.4992  2.2501  4.3188
  940MOL0     H24056   3.016  11.269   9.783  2.0020 -2.9045  0.6296
  940MOL0     H24057   3.081  11.415   9.706 -1.0586  0.5734  1.5964
  940MOL0     H24058   3.186  11.282   9.964 -6.6185 -0.7734  0.8608
  940MOL0     H24059   3.259  11.432   9.888 -0.5841  1.0136  0.4559
  940MOL0     H24060   3.144  11.504  10.060  0.7952 -2.1873  0.7120
  940MOL0     H24061   3.004  11.398  10.055 -0.7816  1.4351  0.9686
  940MOL0     H24062   3.723  10.990   9.250  3.0321  2.5277  0.1371
  940MOL0     H24063   3.835  10.930   9.037 -0.1854 -1.8607  1.2472
  940MOL0     H24064   3.700  10.623   8.585  1.5544 -3.6801  0.3621
  940MOL0     H24065   3.869  10.553   8.406 -0.4120  0.4477 -0.0771
  940MOL0     H24066   5.253   9.461   8.126 -2.2812  1.7246  0.4449
  940MOL0     H24067   5.468   9.371   8.053 -2.0421  2.0836  1.6682
  940MOL0     H24068   5.773   9.023   7.922  0.8430  1.7887  0.6265
  940MOL0     H24069   5.973   8.935   7.802 -2.1318 -0.1232  1.8558
  940MOL0     H24070   6.221   8.896   7.529 -0.8495 -6.4392  1.5772
  940MOL0     H24071   6.127   8.855   7.679  2.3293 -1.0872  0.4354
  940MOL0     H24072   6.214   9.082   7.773 -0.0915 -1.2825  0.7355
  940MOL0     H24073   6.284   8.934   7.793  0.2895 -1.0454 -1.0273
  940MOL0     H24074   6.379   9.045   7.540  1.9047 -0.6941 -0.7618
  940MOL0     H24075   6.472   8.985   7.687 -3.2871 -2.6028  2.5679
  940MOL0     H24076   6.412   9.200   7.796 -1.6317 -2.6409 -0.4358
  940MOL0     H24077   6.510   9.227   7.641  0.6505  1.2677  2.3658
  940MOL0     H24078   6.129   9.358   7.524  0.8507 -2.5006 -2.2162
  940MOL0     H24079   5.922   9.223   7.496 -1.7065 -1.7293 -2.3160
  940MOL0     H24080   5.740   9.330   7.616 -0.1555  0.9852  2.7401
  941MOL0     O24081   0.970   4.243   2.920 -0.0665  0.6944 -0.2341
  941MOL0     C24082   0.880   4.335   2.934 -0.3732  0.4234  0.4437
  941MOL0     O24083   0.772   4.353   2.849  0.1584  0.3785  0.0787
  941MOL0     C24084   0.736   4.265   2.757  0.5976 -0.7947  0.2361
  941MOL0     C24085   0.654   4.326   2.663 -1.0499 -0.2485  0.1492
  941MOL0     C24086   0.620   4.255   2.545 -0.0501  0.6763 -0.5078
  941MOL0     C24087   0.651   4.114   2.529  0.3358  0.2765  0.2724
  941MOL0     O24088   0.637   4.044   2.412  0.4788 -0.2825  0.7787
  941MOL0     C24089   0.533   4.080   2.322  0.0344  0.3592  0.4522
  941MOL0     C24090   0.392   4.051   2.371  0.5134 -0.8920 -0.0932
  941MOL0     C24091   0.294   4.037   2.257  1.1494  0.9902  0.1997
  941MOL0     C24092   0.142   4.038   2.306 -0.9580 -0.7947 -0.6622
  941MOL0     C24093   0.041   3.990   2.207 -0.4251 -0.6294  0.2321
  941MOL0     C24094  -0.100   4.005   2.257 -0.4485 -0.1747 -0.1792
  941MOL0     C24095  -0.196   4.003   2.137  0.1027 -0.2126  0.1250
  941MOL0     C24096  -0.335   4.003   2.200  0.8605  0.7531 -0.7212
  941MOL0     N24097  -0.458   3.966   2.121 -1.2725  0.4971 -0.3938
  941MOL0     C24098  -0.550   4.061   2.087 -0.0905  0.2280  0.0850
  941MOL0     C24099  -0.646   3.982   2.037  0.5710  0.7486 -0.1502
  941MOL0     C24100  -0.768   4.044   1.970 -0.6116 -0.1034 -0.1362
  941MOL0     C24101  -0.867   4.060   2.083 -0.3829  0.1176 -0.6992
  941MOL0     C24102  -1.014   4.032   2.030  0.1334 -0.6618  0.2586
  941MOL0     C24103  -1.121   4.073   2.138  0.5522  0.4629  0.3009
  941MOL0     O24104  -1.121   4.210   2.167 -0.2912  0.1806  0.5338
  941MOL0     C24105  -1.239   4.281   2.185  1.1107 -0.6998  0.1887
  941MOL0     C24106  -1.370   4.224   2.197 -0.4552  1.3825  0.1967
  941MOL0     C24107  -1.478   4.312   2.223 -0.2771 -0.1223 -0.3952
  941MOL0     C24108  -1.464   4.449   2.229 -0.3820 -0.5472  0.8615
  941MOL0     C24109  -1.589   4.544   2.231  0.3388 -0.7142 -0.0761
  941MOL0     O24110  -1.570   4.683   2.228 -0.3326 -0.1599  0.6480
  941MOL0     C24111  -1.677   4.770   2.251  0.1040 -0.4879  0.6113
  941MOL0     C24112  -1.759   4.753   2.361 -0.3531  0.3628  0.5601
  941MOL0     C24113  -1.870   4.844   2.391 -0.2098  0.0112 -0.7416
  941MOL0     C24114  -1.901   4.950   2.300 -0.2938 -1.3316 -0.4553
  941MOL0     O24115  -2.003   5.029   2.340  0.0230 -0.2841  0.1637
  941MOL0     C24116  -2.025   5.142   2.253  1.3109  0.0279 -0.4324
  941MOL0     C24117  -2.173   5.187   2.262 -0.5815  0.0006  1.0094
  941MOL0     C24118  -2.216   5.229   2.397  0.0619  0.3721 -0.0837
  941MOL0     C24119  -2.301   5.134   2.477 -0.7344  0.0010 -0.3096
  941MOL0     C24120  -2.371   5.202   2.598  0.4838  0.5784  0.4735
  941MOL0     C24121  -2.508   5.133   2.635  0.3894  0.4475 -0.2735
  941MOL0     C24122  -2.482   5.005   2.719 -0.9109 -0.7488  0.0694
  941MOL0     C24123  -2.612   4.917   2.720 -0.5729  0.2245  0.2140
  941MOL0    Cl24124  -2.640   4.863   2.537  0.0203  0.0964 -0.2080
  941MOL0     C24125  -1.810   4.964   2.193  0.5945  0.5027  0.1852
  941MOL0     C24126  -1.696   4.889   2.176  0.4443  0.9957 -0.5837
  941MOL0     O24127  -1.693   4.482   2.269 -1.2685 -0.6702  0.1141
  941MOL0     C24128  -1.333   4.511   2.212 -0.1329 -0.4076 -0.6790
  941MOL0     C24129  -1.226   4.418   2.182 -0.4294 -0.3982  0.3220
  941MOL0     N24130  -0.615   3.848   2.022 -0.9409 -0.9783 -0.9138
  941MOL0     N24131  -0.493   3.842   2.084 -0.2397 -0.0765  0.2701
  941MOL0     C24132   0.733   4.067   2.631 -0.1495  0.6993 -0.5952
  941MOL0     C24133   0.773   4.135   2.741  0.9467  0.0210 -1.1947
  941MOL0     C24134   0.883   4.411   3.058 -0.5500  0.2845  0.2603
  941MOL0     C24135   1.004   4.464   3.109 -0.5040 -0.4505  0.3599
  941MOL0     C24136   1.001   4.557   3.221 -0.0443  0.5640  0.9212
  941MOL0     C24137   0.875   4.564   3.293  1.1146  0.8627 -0.4585
  941MOL0     O24138   0.861   4.633   3.408 -0.3704 -0.7510  0.1418
  941MOL0     C24139   0.894   4.556   3.520  0.4715  1.4240 -0.0848
  941MOL0     C24140   0.972   4.614   3.632 -0.5777  0.0774  0.0277
  941MOL0     C24141   1.104   4.675   3.582 -1.6072 -0.5555 -0.9523
  941MOL0     C24142   1.165   4.739   3.709  0.3136 -0.0101 -0.3992
  941MOL0     C24143   1.275   4.835   3.676 -0.8678  0.2935  0.0452
  941MOL0     C24144   1.380   4.893   3.650  0.0795 -0.7489  0.3534
  941MOL0     C24145   0.759   4.504   3.243 -1.0794  0.1649 -0.4278
  941MOL0     C24146   0.759   4.437   3.122 -0.0516 -0.1592 -0.8399
  941MOL0     H24147   0.633   4.433   2.663  0.7794  0.1401  0.6622
  941MOL0     H24148   0.586   4.305   2.454  3.5092  1.1630 -1.7088
  941MOL0     H24149   0.551   4.015   2.236 -0.3804  2.5018 -1.3391
  941MOL0     H24150   0.540   4.185   2.293 -2.5742  1.7984  4.2475
  941MOL0     H24151   0.348   4.135   2.426 -1.4177 -1.3470 -0.8577
  941MOL0     H24152   0.404   3.957   2.426  4.5402 -0.0911  0.6637
  941MOL0     H24153   0.314   3.941   2.209 -1.1870  0.2792  0.4963
  941MOL0     H24154   0.317   4.113   2.182  1.6729 -0.1593 -0.8487
  941MOL0     H24155   0.136   3.974   2.395  0.6084 -0.8604 -0.5623
  941MOL0     H24156   0.117   4.140   2.337 -0.1445 -0.6855 -0.3316
  941MOL0     H24157   0.064   3.889   2.173  0.2860 -1.4785  2.9560
  941MOL0     H24158   0.054   4.052   2.118 -1.7894 -3.6511 -2.2622
  941MOL0     H24159  -0.114   4.101   2.307 -0.2571 -0.3716  0.2608
  941MOL0     H24160  -0.116   3.927   2.332  1.5926  0.3108  0.8217
  941MOL0     H24161  -0.173   4.078   2.061  3.4667 -2.1050 -0.9375
  941MOL0     H24162  -0.194   3.903   2.091  0.5250 -0.7020  1.1718
  941MOL0     H24163  -0.352   4.104   2.239  0.2629 -0.3806  2.2406
  941MOL0     H24164  -0.331   3.942   2.291 -3.3655  0.6902 -0.3714
  941MOL0     H24165  -0.546   4.170   2.092 -2.3502  0.3599  0.1255
  941MOL0     H24166  -0.803   3.976   1.892  1.5353  1.3383 -2.5106
  941MOL0     H24167  -0.747   4.140   1.922 -2.6059  0.2888 -0.3443
  941MOL0     H24168  -0.861   4.157   2.131 -0.6538 -0.5103  0.6433
  941MOL0     H24169  -0.851   3.992   2.167 -0.6363 -1.1635 -1.6543
  941MOL0     H24170  -1.040   4.084   1.937 -0.4636  0.1321  0.8528
  941MOL0     H24171  -1.029   3.925   2.016  0.4925 -0.5627 -1.0743
  941MOL0     H24172  -1.087   4.022   2.229 -0.8533  0.8964  1.0875
  941MOL0     H24173  -1.210   4.017   2.109  0.8433  0.8729 -1.5355
  941MOL0     H24174  -1.385   4.117   2.199 -0.4653  1.3554 -0.8459
  941MOL0     H24175  -1.580   4.275   2.223 -0.8168  1.3174 -0.6343
  941MOL0     H24176  -1.745   4.664   2.422  3.4505 -1.3070 -2.2854
  941MOL0     H24177  -1.921   4.836   2.487  2.9230  1.7755  1.2669
  941MOL0     H24178  -2.026   5.124   2.145  0.2748  1.2682 -0.6628
  941MOL0     H24179  -1.961   5.227   2.277 -0.0636  1.1079 -0.4334
  941MOL0     H24180  -2.230   5.100   2.228 -1.0539  1.1607 -1.4404
  941MOL0     H24181  -2.192   5.265   2.188 -1.8095 -2.1635 -1.1132
  941MOL0     H24182  -2.266   5.327   2.393  2.2259  1.8268  3.4916
  941MOL0     H24183  -2.123   5.251   2.450  0.1342  0.2848 -0.1735
  941MOL0     H24184  -2.384   5.088   2.424 -1.2357  0.7544 -0.1983
  941MOL0     H24185  -2.232   5.053   2.503  2.2854  2.1981 -0.9331
  941MOL0     H24186  -2.397   5.302   2.561 -2.5551  0.6649  2.5114
  941MOL0     H24187  -2.310   5.206   2.688  0.6508 -4.5427  0.8736
  941MOL0     H24188  -2.566   5.119   2.543 -2.1172  0.8221  1.1651
  941MOL0     H24189  -2.559   5.208   2.696 -0.9413 -1.3893  0.9447
  941MOL0     H24190  -2.389   4.959   2.685  0.0050  1.3251 -0.3804
  941MOL0     H24191  -2.472   5.032   2.824 -2.9276 -0.6354  0.2670
  941MOL0     H24192  -2.690   4.975   2.770 -0.5942  1.3247 -1.0438
  941MOL0     H24193  -2.593   4.830   2.784 -3.7121  0.7883  2.1107
  941MOL0     H24194  -1.818   5.052   2.129 -0.9682 -0.7273 -1.4186
  941MOL0     H24195  -1.628   4.906   2.093  4.2428 -1.4831  1.7303
  941MOL0     H24196  -1.330   4.619   2.204 -1.1397 -0.3157  0.0397
  941MOL0     H24197  -1.133   4.463   2.147 -1.7646  0.9385 -1.6635
  941MOL0     H24198   0.753   3.960   2.637 -1.1968  0.5369  0.4550
  941MOL0     H24199   0.834   4.075   2.808 -3.0444  0.5388  3.4471
  941MOL0     H24200   1.103   4.447   3.066  0.2719  2.3900  0.8002
  941MOL0     H24201   1.086   4.615   3.256  1.5881  0.0002 -1.8163
  941MOL0     H24202   0.933   4.458   3.491 -1.6049 -0.1830  2.0465
  941MOL0     H24203   0.795   4.531   3.561  1.1398 -0.6761  0.3658
  941MOL0     H24204   0.914   4.693   3.681 -2.2179  0.4200 -2.3045
  941MOL0     H24205   0.984   4.541   3.713 -1.6319 -1.1547 -0.8809
  941MOL0     H24206   1.086   4.755   3.510 -4.0714 -1.9877 -2.0709
  941MOL0     H24207   1.167   4.599   3.534  2.3276  0.5729  1.8857
  941MOL0     H24208   1.093   4.803   3.760  0.3169  0.9767 -1.6117
  941MOL0     H24209   1.193   4.667   3.787 -0.7465 -0.8518 -0.7653
  941MOL0     H24210   1.477   4.939   3.651 -0.3440  0.5713 -3.4281
  941MOL0     H24211   0.672   4.502   3.308 -1.6310 -3.6011 -1.0816
  941MOL0     H24212   0.671   4.391   3.079 -0.3280 -0.3292 -0.1050
  942MOL0     O24213   5.560   7.963   2.130  0.3123 -0.3997 -0.4235
  942MOL0     C24214   5.638   7.949   2.034  0.0882 -0.2744 -0.4560
  942MOL0     O24215   5.623   8.016   1.914  1.2479  1.4309  0.7729
  942MOL0     C24216   5.511   8.100   1.901 -0.4700  0.5933  0.9178
  942MOL0     C24217   5.478   8.202   1.992 -0.6162 -0.4295 -0.0251
  942MOL0     C24218   5.372   8.296   1.973  0.5968 -0.5131 -0.5305
  942MOL0     C24219   5.306   8.304   1.848  0.1484  0.6738  0.3631
  942MOL0     O24220   5.204   8.392   1.832 -0.8413 -0.3379 -0.3742
  942MOL0     C24221   5.107   8.351   1.732  0.1935 -0.1217 -0.1249
  942MOL0     C24222   4.990   8.449   1.726 -0.7259 -0.0311 -0.5581
  942MOL0     C24223   5.035   8.585   1.682 -0.3775 -0.1984 -0.1185
  942MOL0     C24224   5.093   8.568   1.533 -0.6431  0.3925 -0.5918
  942MOL0     C24225   5.080   8.696   1.449  1.0782  0.5504  0.6031
  942MOL0     C24226   5.113   8.827   1.526  0.4435  0.2250 -1.2727
  942MOL0     C24227   5.144   8.933   1.424  0.2572  0.3317 -0.5028
  942MOL0     C24228   5.290   8.941   1.393  0.5179 -0.3225  0.2576
  942MOL0     N24229   5.311   9.058   1.296 -0.2157  0.2779  0.0802
  942MOL0     C24230   5.273   9.188   1.310  0.2259  0.2430  0.2789
  942MOL0     C24231   5.285   9.242   1.186  0.1814  0.1397  0.3389
  942MOL0     C24232   5.253   9.390   1.159  0.0430  0.4590  0.8041
  942MOL0     C24233   5.390   9.453   1.124  0.2803 -0.0109  0.5648
  942MOL0     C24234   5.385   9.605   1.115  0.4464 -0.5705 -0.1982
  942MOL0     C24235   5.514   9.651   1.046  0.4889  1.1030 -0.2468
  942MOL0     O24236   5.518   9.592   0.914 -0.0975  0.6437  0.5858
  942MOL0     C24237   5.625   9.622   0.827  0.1625 -0.2720 -0.0463
  942MOL0     C24238   5.647   9.523   0.724  0.0763  0.0030  0.2636
  942MOL0     C24239   5.751   9.536   0.639 -0.3769 -0.1771 -0.1240
  942MOL0     C24240   5.845   9.640   0.645 -0.5002 -0.6519  0.8700
  942MOL0     C24241   5.947   9.669   0.540 -0.5962  0.0554 -0.6579
  942MOL0     O24242   6.000   9.797   0.533 -0.8723  0.1839 -0.1533
  942MOL0     C24243   6.048   9.847   0.411  0.8845 -0.7626 -0.2601
  942MOL0     C24244   6.181   9.891   0.407 -0.3592  0.0923  0.2092
  942MOL0     C24245   6.233   9.940   0.291 -0.4677  0.2003  0.0808
  942MOL0     C24246   6.156   9.947   0.173 -0.2332  0.5368  0.9398
  942MOL0     O24247   6.190  10.010   0.057  0.1117 -0.0981 -0.1763
  942MOL0     C24248   6.325  10.065   0.042 -0.0707  0.4474  0.5357
  942MOL0     C24249   6.328  10.104  -0.109  0.0571 -0.5949 -0.0326
  942MOL0     C24250   6.465  10.167  -0.175 -0.3866 -0.5430 -1.0335
  942MOL0     C24251   6.579  10.075  -0.147  0.2752 -0.1924  0.2327
  942MOL0     C24252   6.723  10.109  -0.190 -1.6162 -0.3918  0.8168
  942MOL0     C24253   6.815  10.008  -0.129  0.0552 -0.5920  0.5640
  942MOL0     C24254   6.932   9.988  -0.220 -0.8302 -0.5226 -0.9653
  942MOL0     C24255   6.915   9.887  -0.334  0.2940 -0.3164  0.0294
  942MOL0    Cl24256   6.956   9.718  -0.292  0.1386  0.0172 -0.0263
  942MOL0     C24257   6.025   9.916   0.177  0.2863 -1.3329 -0.5675
  942MOL0     C24258   5.972   9.859   0.290 -0.3890 -0.5051  0.9176
  942MOL0     O24259   5.982   9.572   0.472  0.5079  0.1894  0.6678
  942MOL0     C24260   5.823   9.740   0.742  0.3753 -0.1583 -0.7199
  942MOL0     C24261   5.715   9.730   0.836 -0.6270  0.2246  0.1062
  942MOL0     N24262   5.351   9.149   1.104  0.1248 -0.5868  0.1525
  942MOL0     N24263   5.369   9.036   1.179 -0.1758 -0.0960  0.8098
  942MOL0     C24264   5.355   8.213   1.747 -0.1636 -0.0732 -0.5373
  942MOL0     C24265   5.451   8.115   1.776  0.1903  0.0820 -0.0336
  942MOL0     C24266   5.759   7.858   2.050  0.0224  0.1488 -0.1303
  942MOL0     C24267   5.860   7.843   1.951 -0.2636  0.1004  0.2386
  942MOL0     C24268   5.977   7.783   1.977 -0.2985  0.6848  0.2407
  942MOL0     C24269   6.003   7.722   2.102  0.1074  0.1205 -0.6576
  942MOL0     O24270   6.117   7.654   2.140 -0.1010  0.2512  0.8820
  942MOL0     C24271   6.231   7.642   2.049  0.2043 -0.3802 -0.6662
  942MOL0     C24272   6.338   7.584   2.137 -0.7989 -0.3238 -1.4398
  942MOL0     C24273   6.471   7.569   2.056 -0.3471  0.0563 -1.1589
  942MOL0     C24274   6.592   7.521   2.140 -0.7220  0.9292  0.5212
  942MOL0     C24275   6.720   7.517   2.066 -0.1811 -0.8421 -0.0904
  942MOL0     C24276   6.831   7.513   2.005  0.4933 -0.1821  0.4467
  942MOL0     C24277   5.906   7.729   2.198 -0.5317 -0.7990 -0.4406
  942MOL0     C24278   5.784   7.791   2.175  0.7635  0.4296  0.6635
  942MOL0     H24279   5.528   8.207   2.088 -1.6185 -0.3575  0.5052
  942MOL0     H24280   5.359   8.372   2.049  2.8892  0.8468 -1.3783
  942MOL0     H24281   5.064   8.255   1.762  0.1091 -0.1732 -0.4052
  942MOL0     H24282   5.159   8.347   1.636 -0.0906 -4.0852 -0.2842
  942MOL0     H24283   4.952   8.455   1.828  4.3414 -0.4532  1.6138
  942MOL0     H24284   4.917   8.412   1.654  0.6311 -2.8957 -0.5696
  942MOL0     H24285   5.109   8.623   1.753  0.4225 -0.0498 -1.0062
  942MOL0     H24286   4.951   8.655   1.679  1.2567  1.8545 -1.4774
  942MOL0     H24287   5.201   8.550   1.539 -0.9512 -1.2149  3.1539
  942MOL0     H24288   5.051   8.474   1.496  0.1913 -1.2935  2.4213
  942MOL0     H24289   4.978   8.708   1.412  1.9639 -1.1229 -2.6766
  942MOL0     H24290   5.146   8.697   1.362  2.5044 -0.5085  1.6145
  942MOL0     H24291   5.196   8.807   1.595 -2.1142 -1.5760  1.6111
  942MOL0     H24292   5.028   8.845   1.593  2.1540 -1.9748  1.7732
  942MOL0     H24293   5.074   8.929   1.340  1.1955 -2.2491 -1.2559
  942MOL0     H24294   5.119   9.020   1.487 -1.8005 -1.6330  1.5900
  942MOL0     H24295   5.337   8.850   1.356 -1.9247 -0.8787 -1.7921
  942MOL0     H24296   5.343   8.961   1.486  2.0851 -1.3132 -0.3769
  942MOL0     H24297   5.221   9.232   1.395  0.5779  0.3546  0.4403
  942MOL0     H24298   5.202   9.442   1.241 -0.3138  0.5185  0.5495
  942MOL0     H24299   5.192   9.396   1.068  0.8884 -2.1790 -0.0291
  942MOL0     H24300   5.422   9.407   1.030  0.5745  0.1802  0.5724
  942MOL0     H24301   5.456   9.415   1.202  1.3340 -0.0406 -0.3088
  942MOL0     H24302   5.291   9.638   1.071  0.8200 -0.5085 -0.9722
  942MOL0     H24303   5.384   9.624   1.223 -1.4499 -1.6673  0.0185
  942MOL0     H24304   5.597   9.607   1.103 -1.6102 -0.0827  2.0658
  942MOL0     H24305   5.509   9.760   1.040 -2.7520  0.9991 -1.0474
  942MOL0     H24306   5.587   9.434   0.705  0.9618 -0.4544 -0.4247
  942MOL0     H24307   5.774   9.458   0.568 -0.2656 -0.2398 -0.0204
  942MOL0     H24308   6.245   9.903   0.494  2.3546  2.3097 -1.8998
  942MOL0     H24309   6.339   9.966   0.287 -0.3959  0.2984  1.9152
  942MOL0     H24310   6.393   9.980   0.052 -1.7805 -1.1395 -0.5767
  942MOL0     H24311   6.352  10.137   0.120  0.2662  2.9793 -1.7798
  942MOL0     H24312   6.246  10.171  -0.139  0.6920  0.0973 -0.2697
  942MOL0     H24313   6.296  10.018  -0.168  1.1572 -0.4737 -0.8321
  942MOL0     H24314   6.494  10.253  -0.113 -0.9954 -2.7495  2.6427
  942MOL0     H24315   6.470  10.191  -0.281  0.8027  0.8784 -0.6844
  942MOL0     H24316   6.585  10.067  -0.038  0.7422 -0.4433  0.1891
  942MOL0     H24317   6.548   9.975  -0.179 -2.6883  0.7360 -0.0873
  942MOL0     H24318   6.746  10.213  -0.163  3.6235 -1.2996  0.9231
  942MOL0     H24319   6.730  10.092  -0.298  2.7051 -0.7001  0.9874
  942MOL0     H24320   6.770   9.908  -0.130 -0.0479 -0.5633  1.5905
  942MOL0     H24321   6.846  10.038  -0.029  1.5169  0.5712 -0.2001
  942MOL0     H24322   6.956  10.087  -0.262 -2.6340  0.6887  0.6847
  942MOL0     H24323   7.017   9.957  -0.158  0.3467  1.8480 -1.2711
  942MOL0     H24324   6.972   9.924  -0.419  1.7712  0.4039  1.2805
  942MOL0     H24325   6.812   9.882  -0.369  0.5115 -0.0277 -0.6680
  942MOL0     H24326   5.944   9.927   0.106 -0.0619  0.2072  0.0132
  942MOL0     H24327   5.870   9.821   0.286  0.3579 -2.5264 -0.7741
  942MOL0     H24328   5.882   9.830   0.757 -0.1449  0.5085 -2.4194
  942MOL0     H24329   5.689   9.811   0.903  2.4427  0.0990  1.6313
  942MOL0     H24330   5.323   8.220   1.643  0.5012  1.2212 -0.6785
  942MOL0     H24331   5.484   8.049   1.696  2.1025 -1.1500  1.6823
  942MOL0     H24332   5.852   7.869   1.846  1.3324 -0.8833 -0.1584
  942MOL0     H24333   6.056   7.784   1.903 -0.4359 -0.6381  0.0546
  942MOL0     H24334   6.270   7.738   2.013 -0.8639  0.5997  0.6771
  942MOL0     H24335   6.201   7.573   1.970 -2.3274  0.0680 -0.1815
  942MOL0     H24336   6.352   7.657   2.217  1.7026 -0.1816 -1.9455
  942MOL0     H24337   6.300   7.492   2.183  1.6114 -0.2677  0.9179
  942MOL0     H24338   6.498   7.667   2.018 -1.0096 -0.1742 -2.2460
  942MOL0     H24339   6.453   7.497   1.976 -2.4412 -1.8298  0.8489
  942MOL0     H24340   6.612   7.583   2.227 -1.5852  0.0413  1.3661
  942MOL0     H24341   6.571   7.419   2.174 -1.0683  1.0540  0.6790
  942MOL0     H24342   6.934   7.501   1.976 -0.0825 -3.5281 -0.7353
  942MOL0     H24343   5.934   7.682   2.292 -1.0315 -0.6164 -0.1972
  942MOL0     H24344   5.719   7.784   2.262 -0.7073  2.2723 -0.2279
  943MOL0     O24345   9.434  10.394   3.309 -0.2853 -0.4005 -0.5393
  943MOL0     C24346   9.493  10.503   3.297 -0.1950 -0.1528 -0.2694
  943MOL0     O24347   9.435  10.620   3.265  0.5666 -0.7344 -0.6732
  943MOL0     C24348   9.297  10.624   3.234 -0.4159  0.6956  0.3594
  943MOL0     C24349   9.195  10.565   3.315  0.1339 -0.1887  0.1402
  943MOL0     C24350   9.063  10.565   3.267  0.7323  0.4144  0.7074
  943MOL0     C24351   9.033  10.628   3.141  0.2492 -1.5047  0.2388
  943MOL0     O24352   8.912  10.616   3.090  0.5869 -0.2102 -0.1810
  943MOL0     C24353   8.827  10.726   3.110  0.0637  1.5680 -0.5945
  943MOL0     C24354   8.695  10.670   3.094  1.2618  0.5161 -0.3963
  943MOL0     C24355   8.588  10.774   3.109 -0.6370  0.3002  0.4590
  943MOL0     C24356   8.449  10.723   3.075 -0.7505  0.4029  0.1514
  943MOL0     C24357   8.345  10.822   3.111 -0.4718  0.4546  0.0129
  943MOL0     C24358   8.201  10.779   3.083  0.0109 -0.1590  0.1441
  943MOL0     C24359   8.094  10.885   3.096 -0.3792  0.0416 -0.2720
  943MOL0     C24360   8.106  11.003   2.997 -0.1380 -0.4971  0.2317
  943MOL0     N24361   7.987  11.094   2.996 -0.3276 -0.4942  0.6880
  943MOL0     C24362   7.855  11.058   2.998 -0.3309 -0.3478  0.0819
  943MOL0     C24363   7.787  11.178   3.014 -0.8736 -0.3271 -0.6748
  943MOL0     C24364   7.639  11.203   3.039  0.5482 -0.0255 -0.0713
  943MOL0     C24365   7.600  11.180   3.192 -0.4439  0.3503 -0.1127
  943MOL0     C24366   7.454  11.201   3.209 -0.0514 -0.4709 -0.2886
  943MOL0     C24367   7.406  11.151   3.348 -0.3370 -0.8655 -0.4896
  943MOL0     O24368   7.301  11.232   3.396  1.1190  0.0432  0.4050
  943MOL0     C24369   7.181  11.233   3.333 -0.6365  0.4628 -0.1710
  943MOL0     C24370   7.092  11.322   3.383  1.1532 -0.3517  0.5261
  943MOL0     C24371   6.954  11.323   3.341  0.8385 -0.3820  1.5830
  943MOL0     C24372   6.912  11.235   3.244  0.4415  0.3216 -0.1875
  943MOL0     C24373   6.772  11.236   3.204 -0.2255 -0.2822 -0.2484
  943MOL0     O24374   6.705  11.349   3.234  0.7163 -0.0303  0.5318
  943MOL0     C24375   6.580  11.387   3.173 -0.3961  0.9901  0.8728
  943MOL0     C24376   6.502  11.473   3.241 -0.2664  0.5175  0.3325
  943MOL0     C24377   6.367  11.500   3.212 -0.5049  0.2558  0.1359
  943MOL0     C24378   6.311  11.433   3.101  0.0950  0.8054 -0.1619
  943MOL0     O24379   6.182  11.456   3.057  0.2251 -0.0512 -0.1702
  943MOL0     C24380   6.082  11.429   3.152  0.9922 -0.6860  1.2370
  943MOL0     C24381   5.987  11.557   3.148 -0.2918  0.5941 -0.3243
  943MOL0     C24382   5.845  11.524   3.100  0.3862  0.6630 -0.0077
  943MOL0     C24383   5.764  11.424   3.186  0.3669  0.4735 -0.4465
  943MOL0     C24384   5.625  11.397   3.122  0.4816  0.1801 -0.0474
  943MOL0     C24385   5.552  11.289   3.201  0.7284 -1.1502 -0.4518
  943MOL0     C24386   5.407  11.268   3.155 -0.3770 -0.4945 -0.4717
  943MOL0     C24387   5.309  11.268   3.269  0.5128 -0.0550  0.7073
  943MOL0    Cl24388   5.252  11.423   3.328  0.0853 -0.0490 -0.0180
  943MOL0     C24389   6.398  11.341   3.029 -0.1308  1.1476  0.2479
  943MOL0     C24390   6.529  11.317   3.060 -0.9286  0.2917 -0.1800
  943MOL0     O24391   6.731  11.128   3.156  0.3148  0.0358 -0.2602
  943MOL0     C24392   6.998  11.147   3.193  0.1422  0.3037 -0.8811
  943MOL0     C24393   7.133  11.143   3.241 -0.0611  0.0207 -0.6899
  943MOL0     N24394   7.871  11.286   3.018 -0.3643 -0.3876  0.6762
  943MOL0     N24395   7.991  11.235   3.013  0.6041  0.5180  0.0246
  943MOL0     C24396   9.129  10.706   3.075  0.1586  0.3128  0.4980
  943MOL0     C24397   9.265  10.695   3.114  0.4483  0.8637 -0.3193
  943MOL0     C24398   9.642  10.504   3.316  0.2671  1.0783 -0.4600
  943MOL0     C24399   9.714  10.386   3.321 -0.5421  0.1135 -0.5302
  943MOL0     C24400   9.857  10.385   3.323  0.8405 -0.3566 -0.0510
  943MOL0     C24401   9.923  10.507   3.320 -0.0191  0.1994 -0.3821
  943MOL0     O24402  10.059  10.522   3.320  0.5606 -0.4329 -0.0842
  943MOL0     C24403  10.147  10.424   3.383  0.5510 -0.3286 -0.2410
  943MOL0     C24404  10.292  10.464   3.356 -0.3845  0.0362 -0.3856
  943MOL0     C24405  10.314  10.474   3.207  0.2458 -0.3914 -0.6385
  943MOL0     C24406  10.453  10.509   3.174 -1.0588 -0.2944 -0.2619
  943MOL0     C24407  10.487  10.485   3.035  0.2699  0.2173  0.7859
  943MOL0     C24408  10.532  10.457   2.929 -0.6019 -0.4780  0.6976
  943MOL0     C24409   9.848  10.623   3.316 -0.0800  0.6417 -0.7078
  943MOL0     C24410   9.709  10.630   3.319  0.8885  0.7555  0.6353
  943MOL0     H24411   9.214  10.490   3.391 -0.4376  1.5002  2.0199
  943MOL0     H24412   8.981  10.516   3.319  1.5785 -3.9149 -1.5863
  943MOL0     H24413   8.837  10.807   3.037 -0.3719  0.9639 -1.3420
  943MOL0     H24414   8.839  10.755   3.215 -0.0805  1.9528 -0.6838
  943MOL0     H24415   8.689  10.589   3.166  1.1382  0.5324 -0.3873
  943MOL0     H24416   8.691  10.626   2.994  0.3712 -1.8509  0.6148
  943MOL0     H24417   8.612  10.858   3.042  1.7411 -0.4517  0.2819
  943MOL0     H24418   8.592  10.813   3.211 -1.0570 -0.4277  0.7542
  943MOL0     H24419   8.448  10.702   2.967 -0.2505  0.6309  0.1025
  943MOL0     H24420   8.435  10.629   3.130  1.6484  0.2439  0.5911
  943MOL0     H24421   8.357  10.916   3.055 -2.4054  2.2193  2.3140
  943MOL0     H24422   8.353  10.840   3.218 -1.5025 -0.9015  0.3449
  943MOL0     H24423   8.177  10.696   3.150 -0.4705 -1.5250 -1.6421
  943MOL0     H24424   8.203  10.742   2.980  1.2015 -0.6610  0.3372
  943MOL0     H24425   7.996  10.839   3.081 -1.0647  0.6858  1.9567
  943MOL0     H24426   8.087  10.912   3.201 -1.6895  4.1021 -1.2436
  943MOL0     H24427   8.115  10.967   2.894  0.6076  1.8213 -0.5944
  943MOL0     H24428   8.204  11.048   3.016  0.2592 -0.3485 -1.9090
  943MOL0     H24429   7.793  10.969   3.001 -2.1327  0.8185 -0.8943
  943MOL0     H24430   7.570  11.145   2.976 -0.1609  1.7266 -0.9656
  943MOL0     H24431   7.619  11.306   3.009  3.7839  0.8752  0.4846
  943MOL0     H24432   7.653  11.246   3.262  1.9664 -1.8012  0.2201
  943MOL0     H24433   7.614  11.077   3.226  0.5330  0.0762 -1.2785
  943MOL0     H24434   7.417  11.303   3.195 -3.1530 -0.5710  4.5560
  943MOL0     H24435   7.398  11.149   3.130 -0.0423  0.1100 -0.6804
  943MOL0     H24436   7.487  11.149   3.422 -0.9099 -0.3913  0.1543
  943MOL0     H24437   7.367  11.049   3.354 -1.1783 -0.5689 -0.7798
  943MOL0     H24438   7.115  11.384   3.470 -0.1834 -0.4693  0.9857
  943MOL0     H24439   6.890  11.402   3.379  0.9854  2.3612 -3.0880
  943MOL0     H24440   6.539  11.511   3.336 -2.6910  0.2565  1.4376
  943MOL0     H24441   6.301  11.568   3.265 -0.4051  1.6289 -1.4285
  943MOL0     H24442   6.124  11.426   3.253  1.5241  2.0657  1.2000
  943MOL0     H24443   6.029  11.337   3.126 -1.8145  1.0596  0.2038
  943MOL0     H24444   6.027  11.636   3.085 -1.4202  3.2096  2.0169
  943MOL0     H24445   5.979  11.596   3.250  2.8309 -2.5388  1.3117
  943MOL0     H24446   5.854  11.474   3.004 -0.5612 -0.4649  0.4713
  943MOL0     H24447   5.783  11.613   3.084 -1.2754  0.3444  3.6211
  943MOL0     H24448   5.826  11.335   3.197  0.0536  0.0376 -2.0594
  943MOL0     H24449   5.731  11.475   3.278 -2.6040 -3.0369  0.6589
  943MOL0     H24450   5.645  11.362   3.020 -1.6398 -0.2744 -0.3350
  943MOL0     H24451   5.573  11.492   3.122 -0.4332 -0.2778 -2.1241
  943MOL0     H24452   5.549  11.320   3.306 -1.3846  3.7046 -1.6945
  943MOL0     H24453   5.608  11.195   3.195  1.9978 -0.4311 -0.1825
  943MOL0     H24454   5.379  11.338   3.077  1.7048  1.4872  0.4269
  943MOL0     H24455   5.406  11.167   3.112 -3.1007 -0.6014 -0.3282
  943MOL0     H24456   5.353  11.208   3.350 -0.5517 -1.8964 -0.0112
  943MOL0     H24457   5.216  11.217   3.243 -1.7209  3.3726  1.3288
  943MOL0     H24458   6.359  11.292   2.940 -1.7671  0.9381  1.0407
  943MOL0     H24459   6.580  11.248   2.994  1.2694  1.4134  0.2829
  943MOL0     H24460   6.982  11.074   3.114  3.4594  0.0347 -1.4364
  943MOL0     H24461   7.204  11.074   3.194 -0.6417  0.7433 -2.7543
  943MOL0     H24462   9.116  10.764   2.984 -0.5831  1.4371  1.2981
  943MOL0     H24463   9.343  10.748   3.061  0.4277  0.1428 -1.0767
  943MOL0     H24464   9.660  10.291   3.318 -1.3223  0.5644 -1.2481
  943MOL0     H24465   9.915  10.293   3.319 -2.1808 -2.5204  2.0008
  943MOL0     H24466  10.130  10.322   3.346  2.0649 -2.1914  3.6840
  943MOL0     H24467  10.116  10.424   3.487  1.0201 -2.3442 -0.0634
  943MOL0     H24468  10.307  10.563   3.402  0.3962  0.2147 -1.0052
  943MOL0     H24469  10.356  10.394   3.410 -1.8747 -1.4321 -0.4540
  943MOL0     H24470  10.250  10.554   3.167  0.8338  0.6367  0.3948
  943MOL0     H24471  10.281  10.384   3.155 -3.7000  2.0785 -2.9538
  943MOL0     H24472  10.464  10.616   3.196  1.8529 -0.1583 -1.8564
  943MOL0     H24473  10.511  10.452   3.247 -2.8563 -0.9483  0.7060
  943MOL0     H24474  10.576  10.444   2.832  2.1985 -2.4880  2.1047
  943MOL0     H24475   9.904  10.715   3.311  2.0011 -0.5099  0.2115
  943MOL0     H24476   9.660  10.726   3.308  0.4604  0.7086  1.9404
  944MOL0     O24477   1.266   4.369   8.584 -0.1347  0.1778 -0.1119
  944MOL0     C24478   1.237   4.471   8.639  1.1805  0.0850 -0.3205
  944MOL0     O24479   1.104   4.513   8.653 -0.0066  0.3224  0.1447
  944MOL0     C24480   1.012   4.415   8.638  0.7341 -0.2613  0.5721
  944MOL0     C24481   1.010   4.294   8.708 -0.5139  0.3362  0.3065
  944MOL0     C24482   0.904   4.201   8.697 -0.6325 -0.4142 -0.6935
  944MOL0     C24483   0.803   4.228   8.604  0.2825  0.6278  0.3855
  944MOL0     O24484   0.719   4.119   8.591 -0.4774  0.7172  0.1311
  944MOL0     C24485   0.606   4.136   8.501  0.3247 -0.6942  0.8565
  944MOL0     C24486   0.524   4.003   8.512  0.0801 -1.1078  0.0858
  944MOL0     C24487   0.483   3.946   8.647  0.0425 -0.0940  0.3457
  944MOL0     C24488   0.409   3.811   8.634 -0.8404 -0.3069 -0.7887
  944MOL0     C24489   0.400   3.729   8.761 -0.2758  0.0085 -0.9036
  944MOL0     C24490   0.309   3.607   8.726  0.9284 -0.4006  0.1096
  944MOL0     C24491   0.311   3.512   8.856  0.1987 -0.8743  0.4970
  944MOL0     C24492   0.242   3.374   8.837 -0.5967  0.3957 -0.5117
  944MOL0     N24493   0.099   3.383   8.796  0.2112  0.0982  0.1998
  944MOL0     C24494   0.056   3.412   8.667 -0.5881 -0.8180  0.5679
  944MOL0     C24495  -0.075   3.391   8.668  0.1798 -0.1035  0.2036
  944MOL0     C24496  -0.164   3.432   8.546  0.0320  0.0383 -1.4862
  944MOL0     C24497  -0.259   3.540   8.590 -0.3420  0.1078  0.5775
  944MOL0     C24498  -0.353   3.589   8.470  0.2938  0.2678 -0.0584
  944MOL0     C24499  -0.401   3.472   8.383  0.5095 -0.5352  0.3266
  944MOL0     O24500  -0.485   3.520   8.278 -0.1426  0.3366  0.6339
  944MOL0     C24501  -0.623   3.543   8.292 -0.2068 -0.3360 -0.7525
  944MOL0     C24502  -0.705   3.509   8.402 -0.3382  0.6757 -0.3935
  944MOL0     C24503  -0.837   3.542   8.408  0.7245  0.5741 -0.3806
  944MOL0     C24504  -0.906   3.598   8.298  0.0987  1.4159  0.7710
  944MOL0     C24505  -1.047   3.626   8.310  0.5180  0.6931 -0.1261
  944MOL0     O24506  -1.113   3.591   8.435 -0.4145  0.2550 -0.4461
  944MOL0     C24507  -1.243   3.631   8.445  0.6803  0.5915 -0.3629
  944MOL0     C24508  -1.267   3.759   8.482  0.2486  0.3490 -0.6115
  944MOL0     C24509  -1.404   3.792   8.485  1.4131  0.6230  0.7044
  944MOL0     C24510  -1.512   3.702   8.444 -0.8453 -0.0197 -0.2822
  944MOL0     O24511  -1.646   3.746   8.464  0.3500 -0.0496 -0.6829
  944MOL0     C24512  -1.753   3.650   8.449 -0.1323 -0.5625 -0.0065
  944MOL0     C24513  -1.885   3.725   8.435  0.6077  0.3710 -0.7148
  944MOL0     C24514  -2.003   3.643   8.377  0.7079  0.4843  0.3844
  944MOL0     C24515  -2.023   3.650   8.223  0.0862 -0.4449 -0.2298
  944MOL0     C24516  -2.155   3.580   8.174  0.4516  0.4517  0.1389
  944MOL0     C24517  -2.281   3.659   8.225 -0.0852  0.0360 -0.0396
  944MOL0     C24518  -2.416   3.649   8.147  0.1572  0.3961  0.4912
  944MOL0     C24519  -2.544   3.679   8.214  0.2454  0.1602 -0.8701
  944MOL0    Cl24520  -2.558   3.842   8.279  0.0373 -0.3573  0.1974
  944MOL0     C24521  -1.470   3.575   8.409  0.1208 -0.1407 -0.9094
  944MOL0     C24522  -1.339   3.540   8.409 -1.0063  0.7060  0.0238
  944MOL0     O24523  -1.102   3.668   8.210 -0.1852 -0.1592  0.2579
  944MOL0     C24524  -0.824   3.639   8.182 -0.1825  0.0374 -0.7712
  944MOL0     C24525  -0.682   3.617   8.190  0.5507  0.6237 -0.0631
  944MOL0     N24526  -0.120   3.355   8.795  0.1959  1.1728  0.6595
  944MOL0     N24527  -0.014   3.354   8.867 -0.3921  0.5095 -0.0962
  944MOL0     C24528   0.811   4.348   8.532  0.9243 -0.2097  0.3655
  944MOL0     C24529   0.913   4.436   8.547  0.0602  0.4445 -0.0130
  944MOL0     C24530   1.337   4.567   8.676 -0.6943 -0.3818 -0.1241
  944MOL0     C24531   1.472   4.533   8.666  0.6013  0.2128  0.0085
  944MOL0     C24532   1.564   4.608   8.732 -0.4768 -0.6128  0.3159
  944MOL0     C24533   1.524   4.729   8.792  0.3343  0.4007 -0.8592
  944MOL0     O24534   1.624   4.815   8.841 -0.4819 -0.9518 -0.3183
  944MOL0     C24535   1.768   4.791   8.855 -0.1647 -0.4030 -0.3518
  944MOL0     C24536   1.800   4.765   9.001  0.0381 -0.0847  0.1297
  944MOL0     C24537   1.735   4.639   9.051 -0.1155  1.3336 -0.4476
  944MOL0     C24538   1.799   4.600   9.184 -0.7130  0.6884 -0.9485
  944MOL0     C24539   1.733   4.478   9.232 -0.7686 -0.4107  0.1712
  944MOL0     C24540   1.696   4.374   9.278  0.5402 -0.4275  0.2081
  944MOL0     C24541   1.389   4.773   8.792 -0.4614 -0.3408  0.1805
  944MOL0     C24542   1.294   4.689   8.736  0.0000 -0.1218  0.2871
  944MOL0     H24543   1.094   4.282   8.776 -1.2028  1.2098  1.3482
  944MOL0     H24544   0.910   4.120   8.770  1.2023  2.4571  2.6697
  944MOL0     H24545   0.641   4.154   8.399  0.9006  0.5155  1.2448
  944MOL0     H24546   0.542   4.218   8.534  0.0510 -0.6206  0.1545
  944MOL0     H24547   0.597   3.934   8.468  4.2740  1.6387  2.0322
  944MOL0     H24548   0.436   4.004   8.448 -0.7356 -2.0066  1.1412
  944MOL0     H24549   0.416   4.021   8.691  2.3677  1.7364  0.9531
  944MOL0     H24550   0.564   3.935   8.719 -0.3525 -1.5863  0.6074
  944MOL0     H24551   0.308   3.845   8.611  0.1600  2.6661 -1.1930
  944MOL0     H24552   0.451   3.738   8.565  0.1887 -1.0778  0.6122
  944MOL0     H24553   0.351   3.780   8.845 -0.0886 -1.5035  0.1553
  944MOL0     H24554   0.499   3.698   8.793 -0.5009 -1.2014 -1.3475
  944MOL0     H24555   0.344   3.552   8.638  1.8325  1.6173 -0.8584
  944MOL0     H24556   0.208   3.646   8.710  1.8811  2.0041 -0.5906
  944MOL0     H24557   0.412   3.499   8.897  1.1932  1.5274 -0.9866
  944MOL0     H24558   0.257   3.570   8.931  1.2776  2.3218 -1.0465
  944MOL0     H24559   0.242   3.323   8.934  0.3322  2.9409  0.9150
  944MOL0     H24560   0.303   3.317   8.766  0.8370  1.7045 -0.3737
  944MOL0     H24561   0.115   3.446   8.582 -1.2917 -0.7144  0.1185
  944MOL0     H24562  -0.219   3.339   8.526 -1.6931  0.0942  2.1874
  944MOL0     H24563  -0.105   3.460   8.458  0.5103  0.6133 -0.9900
  944MOL0     H24564  -0.207   3.628   8.627  0.2858  0.9520 -2.0517
  944MOL0     H24565  -0.327   3.502   8.667 -1.2227 -0.2310 -0.3396
  944MOL0     H24566  -0.439   3.643   8.510  0.9256 -1.4781  4.1890
  944MOL0     H24567  -0.291   3.656   8.409 -0.7289 -0.1843 -1.6506
  944MOL0     H24568  -0.438   3.399   8.456 -0.1106  1.4454  2.1051
  944MOL0     H24569  -0.313   3.421   8.341  1.7512  1.3719  0.4975
  944MOL0     H24570  -0.655   3.462   8.487 -0.4633 -0.8961 -1.1493
  944MOL0     H24571  -0.889   3.516   8.499 -0.5782  1.4287 -0.8496
  944MOL0     H24572  -1.185   3.825   8.507  0.0512  0.4498 -0.2249
  944MOL0     H24573  -1.447   3.887   8.515  0.3243  1.0059 -1.8000
  944MOL0     H24574  -1.754   3.574   8.528  2.7444 -1.5769 -0.8407
  944MOL0     H24575  -1.726   3.594   8.359  1.8594 -1.8253  1.2927
  944MOL0     H24576  -1.868   3.819   8.381  1.9673  0.5846  0.0570
  944MOL0     H24577  -1.903   3.761   8.536 -3.6784  0.4440 -1.3049
  944MOL0     H24578  -2.091   3.682   8.429  1.7460  2.1029  1.0301
  944MOL0     H24579  -1.990   3.537   8.401 -0.4730  0.6025  1.7285
  944MOL0     H24580  -2.014   3.751   8.183  2.5740 -0.9867 -1.1741
  944MOL0     H24581  -1.939   3.595   8.181  0.8146  0.0794  0.5101
  944MOL0     H24582  -2.183   3.478   8.198 -2.1393  1.1472  0.3497
  944MOL0     H24583  -2.155   3.585   8.064 -2.1337  0.5615  0.0876
  944MOL0     H24584  -2.253   3.764   8.242 -0.6231  0.2281 -0.2738
  944MOL0     H24585  -2.314   3.617   8.320  0.8394  1.7716  1.1194
  944MOL0     H24586  -2.419   3.729   8.072 -2.3725  2.0517  2.1714
  944MOL0     H24587  -2.431   3.555   8.094 -1.5097  0.7168  0.3232
  944MOL0     H24588  -2.573   3.615   8.298  0.9769  1.2246  0.2249
  944MOL0     H24589  -2.627   3.680   8.143  1.0674  0.1125 -1.8437
  944MOL0     H24590  -1.543   3.500   8.380 -1.5125  0.9275  0.2577
  944MOL0     H24591  -1.317   3.442   8.367  0.7504 -0.2535  2.9300
  944MOL0     H24592  -0.871   3.693   8.101 -2.5266  0.8099  0.9782
  944MOL0     H24593  -0.620   3.644   8.105  1.5931  0.2245  0.5505
  944MOL0     H24594   0.738   4.378   8.458  0.3738  1.4578  1.5456
  944MOL0     H24595   0.907   4.537   8.508  2.0539  0.8948  0.7119
  944MOL0     H24596   1.504   4.443   8.615  0.4801 -0.4198  1.0205
  944MOL0     H24597   1.670   4.583   8.727 -0.7248 -1.5127 -1.3989
  944MOL0     H24598   1.811   4.888   8.826  3.5232 -1.4592  1.0385
  944MOL0     H24599   1.817   4.717   8.791 -2.5900 -1.6443 -0.8874
  944MOL0     H24600   1.907   4.761   9.024 -0.3841 -0.5013  2.2695
  944MOL0     H24601   1.766   4.854   9.056 -0.9128 -0.1063 -0.4066
  944MOL0     H24602   1.749   4.560   8.977  3.2474  0.6528  0.7317
  944MOL0     H24603   1.628   4.664   9.053  0.2933  3.8011 -2.9895
  944MOL0     H24604   1.906   4.576   9.178 -0.5656  1.6229 -2.8934
  944MOL0     H24605   1.778   4.686   9.247 -0.7994  0.8642 -1.2137
  944MOL0     H24606   1.662   4.284   9.324  0.3231  0.4750  1.8875
  944MOL0     H24607   1.375   4.874   8.831  0.7431 -0.8018  1.9278
  944MOL0     H24608   1.194   4.729   8.729 -0.6648 -1.7520  0.1307
  945MOL0     O24609   4.851   0.160   4.165  0.2107  0.3222 -0.1552
  945MOL0     C24610   4.799   0.059   4.116 -0.2494 -1.0969 -0.8316
  945MOL0     O24611   4.672   0.051   4.085  0.7682  0.6907 -0.3185
  945MOL0     C24612   4.589   0.167   4.083 -0.0384  0.3342 -0.3139
  945MOL0     C24613   4.609   0.269   3.986 -0.2277  0.1475 -0.5884
  945MOL0     C24614   4.538   0.388   3.991  0.2642  0.0560 -0.6261
  945MOL0     C24615   4.432   0.408   4.084  0.2258  0.3175 -0.8637
  945MOL0     O24616   4.367   0.527   4.107  0.1789  0.6094 -0.4217
  945MOL0     C24617   4.439   0.637   4.053  0.3400 -0.0292  0.3135
  945MOL0     C24618   4.354   0.762   4.067  0.0975 -0.2337 -0.6882
  945MOL0     C24619   4.227   0.744   3.976 -0.2829  0.4677  0.4169
  945MOL0     C24620   4.124   0.856   4.007 -0.4299  1.0053  0.0566
  945MOL0     C24621   4.008   0.867   3.908 -0.0799 -0.1234  0.1999
  945MOL0     C24622   3.907   0.753   3.906  0.4103 -0.3690  0.1997
  945MOL0     C24623   3.785   0.802   3.817 -0.0887 -0.1037 -0.5564
  945MOL0     C24624   3.675   0.701   3.803  0.1836 -1.0009  0.2714
  945MOL0     N24625   3.579   0.717   3.906 -0.2997 -0.9460 -0.2083
  945MOL0     C24626   3.479   0.810   3.906  0.5032 -0.4120  0.3842
  945MOL0     C24627   3.408   0.794   4.023 -0.3898  0.2407  0.4991
  945MOL0     C24628   3.309   0.892   4.089 -0.2337  0.3099 -0.3583
  945MOL0     C24629   3.168   0.876   4.041  0.4518 -0.5286  0.1159
  945MOL0     C24630   3.147   0.893   3.892 -0.4816 -0.1455 -0.8567
  945MOL0     C24631   2.995   0.898   3.867 -0.5341 -0.2880  0.5435
  945MOL0     O24632   2.948   1.027   3.905  0.5527 -0.2704 -0.8299
  945MOL0     C24633   2.822   1.071   3.897 -0.1397 -0.0732 -0.4499
  945MOL0     C24634   2.719   0.978   3.852  0.9991  0.0079  0.5108
  945MOL0     C24635   2.592   1.027   3.833 -0.9044  0.4676  0.1872
  945MOL0     C24636   2.557   1.164   3.850 -0.4486  0.4807  0.2153
  945MOL0     C24637   2.422   1.215   3.819 -0.2605 -0.0822  0.2634
  945MOL0     O24638   2.321   1.122   3.816 -0.0894  0.0539  0.2022
  945MOL0     C24639   2.202   1.167   3.784  0.4655  0.2841  0.5230
  945MOL0     C24640   2.135   1.245   3.871  0.1905 -0.2497  0.7056
  945MOL0     C24641   2.010   1.295   3.837 -0.1038  0.2668  0.5686
  945MOL0     C24642   1.944   1.268   3.716 -0.4074 -0.1433 -1.1271
  945MOL0     O24643   1.827   1.323   3.669 -0.1225 -0.3900  0.6762
  945MOL0     C24644   1.751   1.396   3.767 -0.1422  0.5696 -0.0601
  945MOL0     C24645   1.615   1.414   3.700  0.4109  0.8226  0.0775
  945MOL0     C24646   1.548   1.290   3.656  1.2033 -0.0321 -0.0286
  945MOL0     C24647   1.408   1.339   3.602  0.5042 -0.2422  0.8662
  945MOL0     C24648   1.319   1.226   3.554 -0.3644 -0.4114  0.3532
  945MOL0     C24649   1.169   1.272   3.537 -0.0429 -0.9356  0.3180
  945MOL0     C24650   1.082   1.155   3.506  0.2845 -0.1780  0.6561
  945MOL0     C24651   0.960   1.188   3.416  0.6670 -0.7842 -0.2669
  945MOL0    Cl24652   0.838   1.060   3.421  0.1332  0.0184  0.0850
  945MOL0     C24653   2.003   1.175   3.641 -0.8563  0.9417 -0.9524
  945MOL0     C24654   2.130   1.115   3.676 -0.1864  1.0736  1.4386
  945MOL0     O24655   2.413   1.330   3.784  0.1142 -0.1432  1.0465
  945MOL0     C24656   2.666   1.247   3.883  0.2795 -0.3639  0.5838
  945MOL0     C24657   2.792   1.199   3.919 -0.8088  0.0788  0.0056
  945MOL0     N24658   3.465   0.682   4.079 -0.0538 -0.5894 -0.1320
  945MOL0     N24659   3.570   0.648   4.016 -0.3767 -0.2923 -0.6721
  945MOL0     C24660   4.407   0.305   4.182  0.2129  0.3617 -0.3525
  945MOL0     C24661   4.487   0.194   4.182  0.7314  0.6975 -0.3394
  945MOL0     C24662   4.883  -0.055   4.087  0.4080  0.4463 -0.7023
  945MOL0     C24663   4.842  -0.168   4.010  0.6874 -0.6753 -0.1229
  945MOL0     C24664   4.931  -0.275   3.984  0.2431  0.9019 -0.3208
  945MOL0     C24665   5.064  -0.271   4.030 -0.5214 -0.5038  0.6610
  945MOL0     O24666   5.151  -0.379   4.004  0.8405 -1.0044  0.2398
  945MOL0     C24667   5.102  -0.477   3.902  0.7889 -0.4767  0.0000
  945MOL0     C24668   5.022  -0.586   3.974  1.2079 -0.3493 -0.2900
  945MOL0     C24669   4.940  -0.670   3.881 -0.4419  0.7699 -0.3029
  945MOL0     C24670   4.829  -0.604   3.802 -0.6386 -0.2869  0.4297
  945MOL0     C24671   4.721  -0.574   3.898  0.8167  0.3245  0.4844
  945MOL0     C24672   4.641  -0.578   3.988 -0.4955  0.1065 -0.9477
  945MOL0     C24673   5.109  -0.159   4.094 -0.2734 -1.1258 -1.1959
  945MOL0     C24674   5.018  -0.054   4.127 -0.3409  1.4736 -0.5516
  945MOL0     H24675   4.687   0.260   3.912  0.7102 -4.0826  0.6719
  945MOL0     H24676   4.584   0.462   3.928  1.1327  0.6350  0.6386
  945MOL0     H24677   4.461   0.626   3.946 -0.9371 -0.3709  0.0681
  945MOL0     H24678   4.529   0.642   4.115  0.1177 -2.8273  1.0191
  945MOL0     H24679   4.412   0.854   4.053 -1.1833  1.3197  2.9907
  945MOL0     H24680   4.331   0.773   4.173 -0.1394 -1.4178 -0.6043
  945MOL0     H24681   4.180   0.648   3.998 -2.1767  0.9332 -1.3492
  945MOL0     H24682   4.260   0.744   3.872  1.7908 -0.9690  1.0193
  945MOL0     H24683   4.092   0.839   4.111 -2.4531  2.1265 -0.3420
  945MOL0     H24684   4.166   0.955   4.028 -2.6481  1.5845  2.2538
  945MOL0     H24685   4.060   0.880   3.813  0.3800  2.2970  0.7040
  945MOL0     H24686   3.959   0.962   3.933 -0.7793 -0.2090 -0.8024
  945MOL0     H24687   3.864   0.738   4.005  1.1339 -0.4140  0.5107
  945MOL0     H24688   3.954   0.661   3.870  0.5286  0.1284 -0.9696
  945MOL0     H24689   3.737   0.898   3.841 -1.9716 -1.5499  1.9018
  945MOL0     H24690   3.838   0.801   3.721  0.1069 -0.0070 -0.4487
  945MOL0     H24691   3.723   0.603   3.799  2.8871  0.3020 -1.9250
  945MOL0     H24692   3.625   0.722   3.708 -0.5636 -0.4022  0.7834
  945MOL0     H24693   3.472   0.893   3.836  0.9665  0.1343  0.9756
  945MOL0     H24694   3.347   0.995   4.087 -0.2144  0.4987  3.2093
  945MOL0     H24695   3.319   0.868   4.195  1.5544  1.4229 -0.2243
  945MOL0     H24696   3.123   0.952   4.105  1.7093  0.2194  0.1532
  945MOL0     H24697   3.117   0.780   4.058 -0.5404 -0.1608 -0.6887
  945MOL0     H24698   3.190   0.990   3.863  1.8055 -0.1142  2.2156
  945MOL0     H24699   3.198   0.810   3.842  2.5181  2.1054 -1.8404
  945MOL0     H24700   2.937   0.818   3.915  0.1857 -1.9693 -1.2324
  945MOL0     H24701   2.979   0.873   3.762 -1.4185  1.6111  0.1981
  945MOL0     H24702   2.745   0.880   3.813  1.4597  1.1376 -2.3019
  945MOL0     H24703   2.510   0.963   3.803 -2.7670  2.3293  1.0269
  945MOL0     H24704   2.179   1.280   3.963 -0.6298  3.3102 -0.0870
  945MOL0     H24705   1.965   1.357   3.915  0.7333  0.8604  0.6008
  945MOL0     H24706   1.800   1.487   3.802 -0.2966  1.4022 -1.8904
  945MOL0     H24707   1.741   1.330   3.854 -0.0954 -1.4133 -1.4777
  945MOL0     H24708   1.636   1.484   3.618  1.6364 -0.5667 -0.8441
  945MOL0     H24709   1.559   1.486   3.759  1.9789  3.4785 -1.4794
  945MOL0     H24710   1.534   1.222   3.740 -0.9899 -0.2806 -0.5406
  945MOL0     H24711   1.603   1.237   3.578 -1.6062 -1.5415 -1.1221
  945MOL0     H24712   1.360   1.404   3.675 -0.7939 -1.1443  0.8518
  945MOL0     H24713   1.437   1.396   3.514 -0.6186 -1.1485 -0.1307
  945MOL0     H24714   1.331   1.150   3.632  1.0180 -0.4009  0.1800
  945MOL0     H24715   1.360   1.174   3.467 -1.1416  4.7517 -3.6261
  945MOL0     H24716   1.169   1.352   3.463  0.0252 -1.0885  0.1534
  945MOL0     H24717   1.136   1.317   3.631 -1.2870 -0.2459 -0.4234
  945MOL0     H24718   1.132   1.082   3.441 -0.4583 -0.3305  0.2537
  945MOL0     H24719   1.053   1.106   3.599  1.1147  0.9643  1.5474
  945MOL0     H24720   1.006   1.198   3.318  2.7038 -1.1243  0.6079
  945MOL0     H24721   0.912   1.283   3.442 -0.4624 -0.7184 -2.3924
  945MOL0     H24722   1.953   1.132   3.555  0.9507 -5.1498  0.5199
  945MOL0     H24723   2.166   1.030   3.619 -2.6637 -1.6161  3.5430
  945MOL0     H24724   2.656   1.354   3.893  0.9637 -0.4018  1.8872
  945MOL0     H24725   2.865   1.272   3.952 -0.6962 -0.1420  0.2454
  945MOL0     H24726   4.343   0.334   4.264  1.9404  1.6280  0.6260
  945MOL0     H24727   4.475   0.118   4.258  5.2370  0.2271  0.2017
  945MOL0     H24728   4.738  -0.190   3.986  1.5677 -3.1752 -2.1536
  945MOL0     H24729   4.892  -0.362   3.932  0.3641 -0.9714  2.5468
  945MOL0     H24730   5.196  -0.520   3.867  1.5123  0.7016  0.4252
  945MOL0     H24731   5.042  -0.438   3.820  0.7864 -0.3666  0.0541
  945MOL0     H24732   5.088  -0.645   4.037  2.0132 -0.2245 -1.0030
  945MOL0     H24733   4.948  -0.542   4.042 -0.5734  1.9624 -3.4259
  945MOL0     H24734   4.890  -0.755   3.928 -1.4700  1.7138  0.3561
  945MOL0     H24735   5.021  -0.709   3.818 -2.0869  2.1902 -3.5693
  945MOL0     H24736   4.849  -0.515   3.742 -0.3619 -1.1597 -0.8140
  945MOL0     H24737   4.785  -0.680   3.737 -1.3746  1.0796 -0.7169
  945MOL0     H24738   4.568  -0.571   4.065  1.7326  0.4958  1.2601
  945MOL0     H24739   5.213  -0.154   4.126 -0.7595  1.7377  0.2688
  945MOL0     H24740   5.059   0.024   4.191  1.3775 -1.6642  2.4871
  946MOL0     O24741   0.462   6.023   7.875 -0.3324 -0.2765  0.2952
  946MOL0     C24742   0.421   6.127   7.825  0.9550  0.6115  0.0303
  946MOL0     O24743   0.295   6.135   7.763  0.5815 -0.4650 -0.5281
  946MOL0     C24744   0.223   6.020   7.735  0.1390 -0.5963 -1.0511
  946MOL0     C24745   0.276   5.927   7.654  0.7055  0.6073  0.2024
  946MOL0     C24746   0.198   5.819   7.609 -0.0182 -0.5810  0.7385
  946MOL0     C24747   0.085   5.778   7.675  0.2500  0.2776 -0.1212
  946MOL0     O24748   0.020   5.666   7.638  0.0684  0.3987  0.4087
  946MOL0     C24749  -0.126   5.662   7.651  0.0198  0.2364  0.6273
  946MOL0     C24750  -0.168   5.600   7.781  0.3371  0.5910  0.4531
  946MOL0     C24751  -0.304   5.642   7.814  0.3455  0.1933 -0.0024
  946MOL0     C24752  -0.362   5.561   7.929  0.1258  0.0309  0.8662
  946MOL0     C24753  -0.502   5.617   7.962 -0.3447 -0.2460 -0.7204
  946MOL0     C24754  -0.613   5.591   7.855 -0.4976 -0.2014  0.1612
  946MOL0     C24755  -0.754   5.564   7.920 -0.2233  0.1867  0.5646
  946MOL0     C24756  -0.872   5.554   7.823  0.0823  1.0586  0.3355
  946MOL0     N24757  -1.009   5.555   7.887  0.5457  0.0378  0.4013
  946MOL0     C24758  -1.076   5.451   7.929  0.3819 -0.1044  0.6289
  946MOL0     C24759  -1.196   5.494   7.972 -0.2085  0.5320  0.8586
  946MOL0     C24760  -1.311   5.413   8.037 -0.1363 -0.1476  0.0544
  946MOL0     C24761  -1.461   5.460   8.024 -0.1953  0.3474 -0.0039
  946MOL0     C24762  -1.552   5.370   8.102 -0.0610 -0.1541 -0.5076
  946MOL0     C24763  -1.702   5.402   8.089 -0.3001  0.4963 -0.0350
  946MOL0     O24764  -1.745   5.297   8.176 -0.3548  0.3145  0.1487
  946MOL0     C24765  -1.875   5.266   8.172  0.4606  0.4234  0.0200
  946MOL0     C24766  -1.920   5.139   8.198 -0.3384 -1.4208  0.5958
  946MOL0     C24767  -2.052   5.108   8.212 -1.1115  0.5669  0.9358
  946MOL0     C24768  -2.152   5.205   8.188  0.2450  0.5400  0.6138
  946MOL0     C24769  -2.300   5.171   8.199 -0.4646  1.4360  0.1998
  946MOL0     O24770  -2.329   5.041   8.241  0.7903  0.2377 -0.3298
  946MOL0     C24771  -2.454   4.999   8.202 -0.2042  0.2703  0.0518
  946MOL0     C24772  -2.455   4.898   8.108  0.5234 -0.1401 -0.0906
  946MOL0     C24773  -2.571   4.854   8.057 -0.8537 -0.2281 -0.0957
  946MOL0     C24774  -2.695   4.887   8.111  0.4705 -0.4647  0.5168
  946MOL0     O24775  -2.805   4.831   8.045  0.0646  0.1136  0.2040
  946MOL0     C24776  -2.809   4.686   8.059 -0.0436  0.0651  0.3729
  946MOL0     C24777  -2.960   4.644   8.068 -0.6296 -0.5572  0.6732
  946MOL0     C24778  -3.028   4.714   8.180  0.5258  0.1769  0.3384
  946MOL0     C24779  -3.162   4.640   8.226 -0.2691 -0.6445  0.0521
  946MOL0     C24780  -3.246   4.712   8.324  0.4165 -0.4303 -0.2191
  946MOL0     C24781  -3.365   4.617   8.354  0.4958 -0.7490 -0.9062
  946MOL0     C24782  -3.459   4.684   8.447 -0.3853 -0.0896  0.0309
  946MOL0     C24783  -3.587   4.597   8.477 -0.6838  0.1227 -0.3418
  946MOL0    Cl24784  -3.536   4.448   8.565 -0.0325  0.2505 -0.4806
  946MOL0     C24785  -2.699   4.987   8.208 -0.2663 -1.0696  0.1811
  946MOL0     C24786  -2.577   5.046   8.255 -0.7576 -0.1197  0.9637
  946MOL0     O24787  -2.380   5.260   8.187  0.4033  0.2549 -0.1002
  946MOL0     C24788  -2.113   5.336   8.176 -0.3130 -0.0928  0.0909
  946MOL0     C24789  -1.977   5.361   8.166  0.0167  0.8094  0.2255
  946MOL0     N24790  -1.198   5.631   7.946  0.4201 -0.9022 -0.8373
  946MOL0     N24791  -1.087   5.663   7.899 -0.3714  0.5015 -0.2680
  946MOL0     C24792   0.030   5.878   7.760  0.7902  0.7422  0.1617
  946MOL0     C24793   0.096   5.998   7.784 -0.3232 -0.0038 -0.0591
  946MOL0     C24794   0.498   6.246   7.828 -0.3215  0.6688  0.0087
  946MOL0     C24795   0.634   6.249   7.795 -0.0621 -0.4379  1.1871
  946MOL0     C24796   0.700   6.372   7.777  0.0808 -0.3626  0.6617
  946MOL0     C24797   0.634   6.492   7.795 -0.2551  0.5440 -0.4370
  946MOL0     O24798   0.705   6.605   7.763 -0.3022  0.4906 -0.3875
  946MOL0     C24799   0.636   6.728   7.771  0.1006  0.2011 -0.6536
  946MOL0     C24800   0.719   6.843   7.737 -0.4532  0.2979 -0.1618
  946MOL0     C24801   0.814   6.868   7.853 -0.9969  0.1810 -1.0576
  946MOL0     C24802   0.886   7.005   7.842  0.1546  0.1102  0.7513
  946MOL0     C24803   1.013   6.994   7.765 -0.3546 -0.8074 -0.4691
  946MOL0     C24804   1.113   6.996   7.687 -0.1883 -0.4331 -0.3579
  946MOL0     C24805   0.495   6.488   7.832  0.1412  0.1303  0.7254
  946MOL0     C24806   0.426   6.366   7.853 -0.2229  1.0020 -1.1105
  946MOL0     H24807   0.372   5.941   7.606  0.4079  0.2598 -0.5096
  946MOL0     H24808   0.237   5.759   7.528  0.7934  1.9901 -0.9188
  946MOL0     H24809  -0.169   5.607   7.566  1.9976  1.2012 -1.1036
  946MOL0     H24810  -0.177   5.758   7.639  1.8756  1.1926 -0.0584
  946MOL0     H24811  -0.101   5.635   7.860  0.4593  4.8069 -1.2174
  946MOL0     H24812  -0.154   5.492   7.781  1.4758  0.7196 -0.3634
  946MOL0     H24813  -0.370   5.628   7.728  0.5981  1.9603 -0.5197
  946MOL0     H24814  -0.315   5.746   7.847  0.7517 -0.4305  2.3283
  946MOL0     H24815  -0.376   5.458   7.895 -0.6312  1.7703 -5.2736
  946MOL0     H24816  -0.296   5.573   8.015 -0.4899  0.7392  1.2488
  946MOL0     H24817  -0.493   5.723   7.986 -1.6100 -0.2461 -0.1623
  946MOL0     H24818  -0.541   5.582   8.057 -2.1223  0.4172 -1.1679
  946MOL0     H24819  -0.592   5.509   7.786 -2.0253  0.0347 -0.6412
  946MOL0     H24820  -0.625   5.683   7.796  0.6213 -1.4143 -2.0803
  946MOL0     H24821  -0.745   5.469   7.974 -1.7424  0.2802  1.0482
  946MOL0     H24822  -0.787   5.644   7.987  3.4249  3.3250 -1.0311
  946MOL0     H24823  -0.860   5.463   7.762 -0.3888  2.0070 -1.2246
  946MOL0     H24824  -0.866   5.630   7.744  2.3504 -1.3692 -2.0757
  946MOL0     H24825  -1.047   5.347   7.916 -0.6634 -0.1768 -1.5526
  946MOL0     H24826  -1.301   5.412   8.146 -3.5501 -2.2416  0.4959
  946MOL0     H24827  -1.302   5.319   7.983  1.3910 -0.5453  0.9484
  946MOL0     H24828  -1.499   5.455   7.922  2.2558 -2.7801 -0.9150
  946MOL0     H24829  -1.467   5.564   8.058  2.6947  0.2794  1.0264
  946MOL0     H24830  -1.528   5.266   8.079  2.1370 -0.4767  2.5868
  946MOL0     H24831  -1.525   5.395   8.205  1.1231  1.4747 -1.1722
  946MOL0     H24832  -1.746   5.383   7.990 -1.0363  0.3021  0.3284
  946MOL0     H24833  -1.711   5.505   8.124 -3.4034  0.2897 -0.0082
  946MOL0     H24834  -1.850   5.062   8.229 -0.7293 -2.4537 -1.0054
  946MOL0     H24835  -2.068   5.002   8.227  0.1443  0.4591  1.7072
  946MOL0     H24836  -2.356   4.869   8.074 -0.0371 -1.8086 -0.3863
  946MOL0     H24837  -2.561   4.803   7.961 -2.0153  0.7711 -0.7706
  946MOL0     H24838  -2.774   4.653   8.157  0.7991 -0.4117 -0.0827
  946MOL0     H24839  -2.744   4.638   7.985  1.5689  4.2587 -1.2415
  946MOL0     H24840  -2.965   4.536   8.084  1.4964 -0.2469  4.6260
  946MOL0     H24841  -3.006   4.672   7.972  4.0289  0.2387 -1.6129
  946MOL0     H24842  -3.049   4.820   8.166 -2.7534  0.0056  2.7337
  946MOL0     H24843  -2.957   4.708   8.263  0.6561 -0.1751  0.2044
  946MOL0     H24844  -3.216   4.630   8.132  1.1560  2.0558 -1.1712
  946MOL0     H24845  -3.143   4.541   8.269 -4.0396 -0.4875  2.4841
  946MOL0     H24846  -3.275   4.805   8.274  3.4413  0.1950 -1.0404
  946MOL0     H24847  -3.197   4.737   8.418  3.1918  1.3363 -1.9647
  946MOL0     H24848  -3.327   4.530   8.408  2.1094 -0.6402 -1.8108
  946MOL0     H24849  -3.419   4.588   8.264 -3.2854 -1.6846  1.4085
  946MOL0     H24850  -3.408   4.718   8.537 -0.2051  0.9989 -0.4685
  946MOL0     H24851  -3.497   4.768   8.387  1.5045 -0.7860 -2.3169
  946MOL0     H24852  -3.637   4.575   8.382  1.3123  0.4729 -1.5390
  946MOL0     H24853  -3.653   4.648   8.547 -0.3868 -2.4150  1.9382
  946MOL0     H24854  -2.797   5.016   8.244 -0.6292 -2.3196  0.2419
  946MOL0     H24855  -2.581   5.126   8.328 -3.5286 -1.8929  2.9606
  946MOL0     H24856  -2.193   5.407   8.156 -2.9159 -3.4030 -2.5262
  946MOL0     H24857  -1.956   5.465   8.140 -0.3874  0.7699 -0.2843
  946MOL0     H24858  -0.070   5.872   7.802  0.9952 -1.0282  0.4621
  946MOL0     H24859   0.049   6.072   7.848 -0.6526  0.5528 -0.9400
  946MOL0     H24860   0.690   6.159   7.773 -0.1046  0.2515 -2.2109
  946MOL0     H24861   0.797   6.382   7.728 -0.6399  2.7408 -0.3882
  946MOL0     H24862   0.610   6.737   7.876 -0.5782 -2.1665 -0.5657
  946MOL0     H24863   0.542   6.733   7.715  0.2823 -0.0397 -0.9850
  946MOL0     H24864   0.768   6.808   7.645  0.2782 -0.7963  0.6186
  946MOL0     H24865   0.661   6.930   7.707 -0.6972 -1.1046 -4.4370
  946MOL0     H24866   0.892   6.792   7.849 -0.6168  0.4983 -0.0684
  946MOL0     H24867   0.770   6.862   7.953 -1.3744  1.4685 -1.1307
  946MOL0     H24868   0.812   7.063   7.786  2.3704 -0.1976 -2.8023
  946MOL0     H24869   0.902   7.054   7.939  0.8335 -0.5864  0.9984
  946MOL0     H24870   1.196   7.007   7.620 -1.5102  1.8111 -1.7561
  946MOL0     H24871   0.440   6.576   7.865 -0.7120 -0.7999  1.8854
  946MOL0     H24872   0.319   6.369   7.870 -0.5590  0.1335 -2.8112
  947MOL0     O24873   6.474   4.671  11.214  0.4835 -0.1901 -0.0556
  947MOL0     C24874   6.377   4.638  11.148  0.3312 -0.0441  0.0523
  947MOL0     O24875   6.368   4.544  11.043  0.1695  0.2019 -0.5640
  947MOL0     C24876   6.489   4.474  11.032 -0.3963 -0.1428  0.1797
  947MOL0     C24877   6.462   4.341  11.070  0.2625  0.3167 -0.1543
  947MOL0     C24878   6.567   4.240  11.061 -0.3154 -0.8566  0.6651
  947MOL0     C24879   6.697   4.278  11.025  0.4755 -0.7476 -0.7914
  947MOL0     O24880   6.792   4.180  11.025  0.9234  0.4808 -0.3167
  947MOL0     C24881   6.911   4.198  11.107 -0.3785  0.1489 -0.0089
  947MOL0     C24882   7.028   4.276  11.058 -0.0459 -0.0337 -0.8779
  947MOL0     C24883   7.139   4.182  11.006 -0.0991 -0.3730 -0.8255
  947MOL0     C24884   7.248   4.252  10.935  0.3958 -0.1434 -0.2207
  947MOL0     C24885   7.363   4.156  10.885  0.3620 -0.4566  0.5516
  947MOL0     C24886   7.480   4.218  10.823 -0.8674  0.2741  0.6209
  947MOL0     C24887   7.562   4.115  10.753 -0.5742  0.1282  0.3352
  947MOL0     C24888   7.690   4.183  10.694 -0.0054 -0.0650 -0.0980
  947MOL0     N24889   7.777   4.088  10.618  0.0631  0.4687  0.7609
  947MOL0     C24890   7.844   3.975  10.673 -0.2905  0.1670 -0.5976
  947MOL0     C24891   7.895   3.910  10.564  0.3037 -0.3775 -0.0251
  947MOL0     C24892   7.977   3.787  10.577  0.6069  0.2344 -0.3448
  947MOL0     C24893   8.125   3.795  10.629  0.3816 -0.0227  0.1610
  947MOL0     C24894   8.206   3.669  10.612  0.1344  0.0153  0.3361
  947MOL0     C24895   8.146   3.546  10.685  0.2882 -0.8057  0.3999
  947MOL0     O24896   8.149   3.573  10.823  0.4743  0.0314  0.4153
  947MOL0     C24897   8.257   3.555  10.903 -0.1407  0.3828 -0.2483
  947MOL0     C24898   8.266   3.630  11.013 -0.2915 -0.5510  0.2556
  947MOL0     C24899   8.377   3.626  11.095 -0.7595  0.1620 -0.4303
  947MOL0     C24900   8.477   3.530  11.067 -0.1614 -0.1272  0.4069
  947MOL0     C24901   8.597   3.520  11.157  0.3004  0.1865 -0.3110
  947MOL0     O24902   8.689   3.431  11.113  0.1571 -0.0825  0.0572
  947MOL0     C24903   8.823   3.412  11.147  0.6192  0.0131  0.5367
  947MOL0     C24904   8.899   3.495  11.225  0.3034 -1.1665  0.3861
  947MOL0     C24905   9.020   3.448  11.271 -0.0309  0.3272 -0.0266
  947MOL0     C24906   9.066   3.328  11.232 -0.0890  0.1720  0.0992
  947MOL0     O24907   9.189   3.281  11.261  1.0334 -0.5388 -0.4813
  947MOL0     C24908   9.289   3.365  11.317  0.1903  0.3616 -0.3592
  947MOL0     C24909   9.280   3.389  11.474  0.4971 -0.5829  0.2631
  947MOL0     C24910   9.411   3.352  11.551  0.7624  0.2113  0.1780
  947MOL0     C24911   9.439   3.202  11.556  0.0952 -0.6708 -0.3854
  947MOL0     C24912   9.565   3.161  11.626 -0.4318 -0.5537  0.5565
  947MOL0     C24913   9.603   3.011  11.630  0.2652  0.2779  0.2088
  947MOL0     C24914   9.742   2.990  11.675  0.0642  0.4703  0.3374
  947MOL0     C24915   9.771   2.844  11.690 -0.8756 -0.0087 -0.0317
  947MOL0    Cl24916   9.663   2.754  11.813 -0.0390  0.6491  0.4559
  947MOL0     C24917   8.996   3.242  11.143  0.1753 -0.7719 -1.2227
  947MOL0     C24918   8.873   3.286  11.098 -0.1844 -0.8921  0.0327
  947MOL0     O24919   8.609   3.594  11.257 -0.2979 -0.0108  0.6638
  947MOL0     C24920   8.466   3.443  10.957 -0.1830 -0.2594  1.0832
  947MOL0     C24921   8.357   3.457  10.878  0.0585 -0.5215  0.4971
  947MOL0     N24922   7.840   3.978  10.449  0.0019  0.2365 -0.5020
  947MOL0     N24923   7.769   4.077  10.482 -0.1308  0.3266  1.0377
  947MOL0     C24924   6.722   4.421  11.006  0.4093  0.1590 -1.0809
  947MOL0     C24925   6.617   4.509  10.989 -0.2093 -0.4520 -0.0927
  947MOL0     C24926   6.251   4.708  11.184  0.0745 -0.0833 -1.2085
  947MOL0     C24927   6.161   4.752  11.083 -0.3907  0.6715  0.1377
  947MOL0     C24928   6.036   4.808  11.112  0.2702  0.2047 -0.4556
  947MOL0     C24929   6.004   4.830  11.250 -0.4871  0.0582  0.1049
  947MOL0     O24930   5.882   4.885  11.284  0.1399 -0.0008  0.6007
  947MOL0     C24931   5.863   4.983  11.392 -0.8212  0.4568 -0.1215
  947MOL0     C24932   5.899   5.125  11.346 -0.6349 -0.5557 -0.3550
  947MOL0     C24933   6.045   5.151  11.318 -0.4957  1.0739  0.4883
  947MOL0     C24934   6.061   5.300  11.290  0.6694  0.0344 -0.6578
  947MOL0     C24935   6.065   5.387  11.406 -0.3989 -0.5329 -0.7836
  947MOL0     C24936   6.084   5.455  11.500  0.1065  0.0840  0.1592
  947MOL0     C24937   6.086   4.787  11.352 -0.5291  0.3205  0.2548
  947MOL0     C24938   6.207   4.742  11.318 -1.0482  0.4217 -0.3495
  947MOL0     H24939   6.362   4.321  11.109 -0.1480  0.0836 -1.2864
  947MOL0     H24940   6.558   4.133  11.075  4.2840 -1.4930  0.3914
  947MOL0     H24941   6.948   4.102  11.143  1.9711  0.5524 -1.1600
  947MOL0     H24942   6.875   4.264  11.187 -2.9131 -1.0303 -0.0764
  947MOL0     H24943   7.069   4.331  11.144 -2.3784 -2.0989  1.7712
  947MOL0     H24944   7.006   4.348  10.979  0.2243 -0.5242 -1.4005
  947MOL0     H24945   7.105   4.103  10.939  1.0066  0.3758 -2.3325
  947MOL0     H24946   7.174   4.131  11.096 -1.2953 -1.0483 -0.7178
  947MOL0     H24947   7.193   4.297  10.852 -0.5401 -2.2945 -0.8354
  947MOL0     H24948   7.285   4.331  11.001  0.0381 -1.0565  1.1175
  947MOL0     H24949   7.325   4.081  10.815 -1.5586  0.0053  1.0412
  947MOL0     H24950   7.396   4.102  10.974 -0.4513  0.3513  1.3575
  947MOL0     H24951   7.530   4.254  10.913 -4.2415  2.8522  1.7021
  947MOL0     H24952   7.444   4.302  10.764 -2.1674  2.1471  3.8046
  947MOL0     H24953   7.585   4.053  10.840 -1.1209 -1.5731 -0.6681
  947MOL0     H24954   7.509   4.057  10.677 -1.0705 -0.0396  0.8044
  947MOL0     H24955   7.753   4.213  10.778  0.0656 -1.4690  0.3835
  947MOL0     H24956   7.663   4.260  10.622 -0.9767  0.2170  0.5486
  947MOL0     H24957   7.863   3.967  10.780 -1.6495  2.5448 -0.1048
  947MOL0     H24958   7.987   3.736  10.480  2.1665 -2.9854  1.3333
  947MOL0     H24959   7.910   3.716  10.626 -1.7734 -0.5219 -4.2170
  947MOL0     H24960   8.117   3.801  10.738 -0.6981 -0.5034  0.1165
  947MOL0     H24961   8.183   3.880  10.591  3.3181 -1.3194  1.4225
  947MOL0     H24962   8.198   3.639  10.507 -1.3606  0.8630  0.1832
  947MOL0     H24963   8.310   3.683  10.643 -0.0823 -0.2349  1.1962
  947MOL0     H24964   8.204   3.459  10.653  0.9814  0.7043 -2.8904
  947MOL0     H24965   8.044   3.527  10.650  0.1292  0.9862 -0.2124
  947MOL0     H24966   8.184   3.696  11.041 -0.3888 -0.7488  0.4391
  947MOL0     H24967   8.390   3.691  11.181  0.2333 -0.6442  0.0566
  947MOL0     H24968   8.861   3.589  11.264  2.1857 -0.0674 -0.2775
  947MOL0     H24969   9.078   3.498  11.348  3.0163 -0.3845 -1.7322
  947MOL0     H24970   9.307   3.454  11.255 -0.6640  1.0860  0.4057
  947MOL0     H24971   9.369   3.292  11.304 -0.4089 -0.1205 -1.4359
  947MOL0     H24972   9.194   3.343  11.524 -2.0252  2.6770 -0.7831
  947MOL0     H24973   9.267   3.497  11.484 -1.9623 -0.6634 -1.1940
  947MOL0     H24974   9.396   3.376  11.657  0.4936  0.3791  0.1025
  947MOL0     H24975   9.489   3.418  11.512 -0.6299  1.5511 -0.4490
  947MOL0     H24976   9.353   3.147  11.594 -0.4103 -0.1335 -0.7244
  947MOL0     H24977   9.451   3.168  11.453  0.7213 -1.2985 -0.1122
  947MOL0     H24978   9.571   3.204  11.727  1.4549  0.2713  0.1453
  947MOL0     H24979   9.640   3.207  11.561 -0.4717 -1.5980 -0.2508
  947MOL0     H24980   9.590   2.958  11.535 -1.2445 -0.2988  0.7046
  947MOL0     H24981   9.529   2.973  11.702  0.9185  0.3733  0.9490
  947MOL0     H24982   9.816   3.032  11.606  0.5739  0.9934  1.1825
  947MOL0     H24983   9.759   3.049  11.765 -0.0529 -1.1026  1.4398
  947MOL0     H24984   9.878   2.845  11.715 -0.3399  2.5768 -2.0169
  947MOL0     H24985   9.771   2.800  11.589 -2.7558  2.2229 -1.0991
  947MOL0     H24986   9.039   3.147  11.113  4.6253  0.9593 -1.0358
  947MOL0     H24987   8.819   3.224  11.027  1.2032 -0.1189 -1.7591
  947MOL0     H24988   8.540   3.367  10.934 -1.4264 -0.9682 -0.7768
  947MOL0     H24989   8.344   3.407  10.782 -3.1838  0.8129  0.1201
  947MOL0     H24990   6.824   4.449  10.982  0.9862 -2.1844 -1.6058
  947MOL0     H24991   6.638   4.608  10.951  2.0869 -1.9242 -3.1027
  947MOL0     H24992   6.192   4.729  10.981  0.8836 -3.7806  1.3255
  947MOL0     H24993   5.960   4.830  11.038 -1.1927 -1.1344  0.5764
  947MOL0     H24994   5.925   4.974  11.482 -0.8456  4.8873  0.5439
  947MOL0     H24995   5.762   4.972  11.432 -0.4105  1.2115  1.1779
  947MOL0     H24996   5.845   5.162  11.259  1.4421  0.6352 -1.2170
  947MOL0     H24997   5.881   5.191  11.431  1.6796 -0.5888  0.2358
  947MOL0     H24998   6.078   5.096  11.230 -2.4988 -1.5758  1.2665
  947MOL0     H24999   6.108   5.111  11.397  0.3643 -2.5686 -1.8243
  947MOL0     H25000   6.154   5.322  11.237  1.4531  0.0824  0.6856
  947MOL0     H25001   5.977   5.332  11.229 -0.1479  0.0972  0.4761
  947MOL0     H25002   6.114   5.495  11.595 -0.5297  0.2529  0.2940
  947MOL0     H25003   6.061   4.808  11.456  1.1289  3.7275  0.1088
  947MOL0     H25004   6.273   4.709  11.398 -0.8356  3.7124  0.9825
  948MOL0     O25005   9.429   8.502   6.942  0.2155  0.6521 -0.1457
  948MOL0     C25006   9.394   8.602   6.881 -0.1378 -0.1591  0.4261
  948MOL0     O25007   9.277   8.668   6.902  0.9932  0.6523  0.3329
  948MOL0     C25008   9.208   8.651   7.022  0.3019 -0.1592  0.2123
  948MOL0     C25009   9.109   8.556   7.059  0.2907  0.1488 -0.1177
  948MOL0     C25010   9.039   8.573   7.181  0.5866 -0.6185  0.5261
  948MOL0     C25011   9.057   8.674   7.269 -0.1474 -0.1638  0.3087
  948MOL0     O25012   8.985   8.707   7.386  0.5527  0.5368 -0.4855
  948MOL0     C25013   8.922   8.838   7.384  0.9206  0.4153 -0.2270
  948MOL0     C25014   8.806   8.856   7.487 -1.0534  0.4880 -0.6577
  948MOL0     C25015   8.844   8.883   7.641  0.5056  0.3498  0.1198
  948MOL0     C25016   8.730   8.881   7.736  0.3551 -0.9940 -0.1218
  948MOL0     C25017   8.782   8.905   7.886 -0.0728 -0.3015  0.0013
  948MOL0     C25018   8.678   8.951   7.998  0.4352  0.3580 -0.3147
  948MOL0     C25019   8.556   8.862   8.009 -0.7216  0.6286  0.7873
  948MOL0     C25020   8.458   8.924   8.126 -0.4487  1.1932  1.1550
  948MOL0     N25021   8.358   9.006   8.067 -0.5164 -0.0272  0.1471
  948MOL0     C25022   8.248   8.962   7.998  0.2608  0.2039 -0.6666
  948MOL0     C25023   8.175   9.070   7.964  0.4726 -0.2116 -0.3850
  948MOL0     C25024   8.036   9.077   7.903  0.7484  0.3132 -0.4040
  948MOL0     C25025   7.943   8.984   7.975  0.3052 -0.3056 -0.6944
  948MOL0     C25026   7.796   9.013   7.914 -0.9487 -1.1965  0.3875
  948MOL0     C25027   7.693   8.909   7.968  0.5663  0.0579 -0.2693
  948MOL0     O25028   7.583   8.930   7.880  0.8660  0.2189  0.3740
  948MOL0     C25029   7.490   8.825   7.875  0.0811 -1.3012  0.2108
  948MOL0     C25030   7.429   8.820   7.757  0.4339 -0.5971 -0.6651
  948MOL0     C25031   7.343   8.716   7.726 -0.3016  0.0335  0.4139
  948MOL0     C25032   7.332   8.606   7.808 -0.2962 -1.4603  0.5678
  948MOL0     C25033   7.258   8.496   7.757  0.0073 -0.2826 -0.9123
  948MOL0     O25034   7.204   8.513   7.635  0.3777 -0.4481  0.2652
  948MOL0     C25035   7.090   8.432   7.596 -0.0889 -0.7516  0.4208
  948MOL0     C25036   6.961   8.475   7.629 -0.6469  0.0506  0.3510
  948MOL0     C25037   6.853   8.414   7.579  0.0667 -0.4156  0.5463
  948MOL0     C25038   6.868   8.288   7.516 -0.8524  0.4509 -0.2578
  948MOL0     O25039   6.756   8.230   7.462 -0.3043 -0.5619  0.8122
  948MOL0     C25040   6.692   8.308   7.360  0.6235 -0.1699 -0.3809
  948MOL0     C25041   6.566   8.235   7.325  0.0398  0.3616  0.6970
  948MOL0     C25042   6.466   8.308   7.231 -0.5102 -0.1600 -0.0772
  948MOL0     C25043   6.330   8.242   7.204 -0.1343 -0.1783  0.4291
  948MOL0     C25044   6.264   8.303   7.081 -1.4566 -0.2192 -0.1521
  948MOL0     C25045   6.143   8.218   7.047 -0.0044  0.2095  0.2206
  948MOL0     C25046   6.014   8.239   7.134 -0.3531 -0.1502 -0.6103
  948MOL0     C25047   5.927   8.108   7.142 -0.3428 -0.4537 -0.5804
  948MOL0    Cl25048   5.883   8.043   6.979  0.1732 -0.3417  0.1665
  948MOL0     C25049   7.001   8.234   7.491  0.3828 -0.2467 -0.6116
  948MOL0     C25050   7.111   8.319   7.524 -0.0205 -0.9809  0.5197
  948MOL0     O25051   7.251   8.389   7.824 -0.6788 -0.4392  0.0712
  948MOL0     C25052   7.415   8.601   7.927  0.3621 -0.7041  0.5437
  948MOL0     C25053   7.488   8.717   7.960  0.5583  0.5999 -0.9090
  948MOL0     N25054   8.245   9.181   7.995 -0.6116  0.4814  0.4373
  948MOL0     N25055   8.362   9.145   8.054 -0.2959 -0.1507  1.4036
  948MOL0     C25056   9.155   8.767   7.235  0.3669  0.0470 -0.5699
  948MOL0     C25057   9.233   8.760   7.115 -0.5451  0.7592  0.3984
  948MOL0     C25058   9.499   8.669   6.796  0.7761  0.2711  0.0793
  948MOL0     C25059   9.637   8.638   6.791  0.8151  0.0291 -0.0118
  948MOL0     C25060   9.733   8.702   6.699  0.2557  0.5308 -0.5225
  948MOL0     C25061   9.684   8.797   6.608  0.0113 -0.2804 -0.5373
  948MOL0     O25062   9.763   8.854   6.509  0.4577 -0.0107 -0.1731
  948MOL0     C25063   9.838   8.759   6.427  0.3171 -0.0025  0.2781
  948MOL0     C25064   9.730   8.676   6.346  0.0487  0.0857 -0.1334
  948MOL0     C25065   9.646   8.769   6.265  0.4826 -0.8271 -0.3740
  948MOL0     C25066   9.546   8.687   6.182 -0.2045  0.5227  0.3556
  948MOL0     C25067   9.453   8.768   6.106  1.0960 -0.1806 -0.3860
  948MOL0     C25068   9.384   8.851   6.049 -0.5977 -0.4895  0.5352
  948MOL0     C25069   9.551   8.820   6.618 -0.5806  0.1665  0.1722
  948MOL0     C25070   9.458   8.761   6.699  0.5025  0.2551 -0.3392
  948MOL0     H25071   9.092   8.466   7.000 -0.1699 -2.2666  3.3494
  948MOL0     H25072   8.964   8.500   7.210  0.7040 -1.5906 -1.4904
  948MOL0     H25073   8.880   8.869   7.288  0.5634  0.9709  0.1024
  948MOL0     H25074   9.003   8.900   7.422  1.3848  0.4871 -1.3074
  948MOL0     H25075   8.738   8.770   7.483 -0.1569 -0.2419 -4.4276
  948MOL0     H25076   8.758   8.950   7.459  0.1602  1.1427 -0.6135
  948MOL0     H25077   8.898   8.978   7.642  4.4212 -1.6098 -1.8198
  948MOL0     H25078   8.909   8.798   7.667 -1.4009 -1.0731  0.5075
  948MOL0     H25079   8.671   8.970   7.716  3.0325  0.9831  0.2383
  948MOL0     H25080   8.681   8.783   7.733  1.8181 -1.9375  2.6892
  948MOL0     H25081   8.860   8.983   7.881 -1.0541  0.6939 -0.2279
  948MOL0     H25082   8.835   8.815   7.918  3.2256  1.4430 -0.0107
  948MOL0     H25083   8.642   9.054   7.986  0.4148  0.2690 -1.0556
  948MOL0     H25084   8.724   8.939   8.096 -1.3801  0.2536  0.5499
  948MOL0     H25085   8.503   8.845   7.915  0.9408  3.3881 -0.7674
  948MOL0     H25086   8.600   8.770   8.048 -1.1228  0.8281  1.7559
  948MOL0     H25087   8.516   8.987   8.194 -0.9247  0.0046  2.7084
  948MOL0     H25088   8.404   8.843   8.175 -0.2328  0.6861  0.5638
  948MOL0     H25089   8.225   8.858   7.975  0.7482  0.3303 -1.7882
  948MOL0     H25090   8.044   9.059   7.796  0.3195  2.1303 -0.7798
  948MOL0     H25091   7.995   9.178   7.910  0.4084  0.0845  1.8091
  948MOL0     H25092   7.925   9.016   8.078 -1.7875 -0.3299 -1.0178
  948MOL0     H25093   7.979   8.881   7.964  5.4095  1.1052  0.1752
  948MOL0     H25094   7.761   9.113   7.941 -0.3988 -0.0903 -2.6357
  948MOL0     H25095   7.802   9.000   7.805 -0.1551  0.4770  0.1997
  948MOL0     H25096   7.657   8.935   8.068  1.3218 -0.0922  0.0507
  948MOL0     H25097   7.737   8.809   7.963  0.3565 -0.0029 -0.9556
  948MOL0     H25098   7.451   8.905   7.693 -0.4757  0.0516 -0.1378
  948MOL0     H25099   7.287   8.722   7.633 -1.5273  0.8458  1.1732
  948MOL0     H25100   6.953   8.557   7.700  2.6644  0.1814  0.7270
  948MOL0     H25101   6.754   8.455   7.597 -1.0089 -2.1619 -1.0480
  948MOL0     H25102   6.761   8.333   7.279  2.5492 -2.1254  0.5538
  948MOL0     H25103   6.663   8.403   7.405  0.0403 -1.4691  2.2062
  948MOL0     H25104   6.510   8.224   7.418 -0.9832  0.1805  0.0837
  948MOL0     H25105   6.597   8.137   7.288  0.2947  1.4289 -2.1543
  948MOL0     H25106   6.522   8.305   7.137  0.7091 -2.5204  0.6492
  948MOL0     H25107   6.446   8.410   7.265  1.2295 -0.6588  2.7492
  948MOL0     H25108   6.340   8.135   7.183  0.4302  0.2665 -1.8811
  948MOL0     H25109   6.274   8.255   7.297  1.4729 -1.1461  1.5739
  948MOL0     H25110   6.330   8.317   6.996  1.9908  2.3151  2.6623
  948MOL0     H25111   6.226   8.401   7.111 -0.7859 -0.4402  1.5198
  948MOL0     H25112   6.172   8.112   7.049 -1.9254 -0.3487  0.6440
  948MOL0     H25113   6.122   8.249   6.944  0.2246 -0.0984  0.0780
  948MOL0     H25114   6.060   8.259   7.231 -0.5560 -1.4514 -0.2304
  948MOL0     H25115   5.944   8.319   7.107 -4.1812 -2.5285  1.4095
  948MOL0     H25116   5.842   8.127   7.208  1.8436  1.0037  2.0287
  948MOL0     H25117   5.984   8.038   7.203 -0.2704 -1.1983 -1.4849
  948MOL0     H25118   7.019   8.140   7.440  0.8010 -2.0305  2.5385
  948MOL0     H25119   7.214   8.285   7.516 -0.8631 -3.2453 -2.4374
  948MOL0     H25120   7.411   8.515   7.993  1.8387 -0.9486  0.3334
  948MOL0     H25121   7.544   8.717   8.054 -0.9817  0.1198  0.0434
  948MOL0     H25122   9.180   8.836   7.315  0.4804 -3.3752  2.6349
  948MOL0     H25123   9.306   8.836   7.091  0.1965  0.4158  1.5130
  948MOL0     H25124   9.677   8.567   6.864 -0.3766  0.6254  1.2792
  948MOL0     H25125   9.839   8.681   6.693 -0.1999 -2.3153 -0.0598
  948MOL0     H25126   9.902   8.702   6.494 -2.2798 -0.7116  2.3594
  948MOL0     H25127   9.902   8.809   6.355 -0.7026  3.2267  1.4585
  948MOL0     H25128   9.778   8.609   6.274  1.9424 -0.8855  1.8973
  948MOL0     H25129   9.663   8.617   6.410 -0.0848 -1.6263 -1.7743
  948MOL0     H25130   9.720   8.830   6.212  0.8454 -0.5719  0.4154
  948MOL0     H25131   9.583   8.830   6.330  1.2848  1.6341 -1.7468
  948MOL0     H25132   9.600   8.617   6.119  2.0613  2.6735 -0.2455
  948MOL0     H25133   9.480   8.633   6.250 -1.8409  1.6775 -0.2473
  948MOL0     H25134   9.320   8.913   5.990 -0.2039 -1.5992 -1.0960
  948MOL0     H25135   9.519   8.891   6.542  1.8974  0.7916 -0.3848
  948MOL0     H25136   9.352   8.781   6.686  0.0934 -1.0206  0.7717
  949MOL0     O25137   7.143   8.206   4.662 -0.2581  0.5089  0.1753
  949MOL0     C25138   7.250   8.174   4.727  0.2381 -0.3462 -0.0332
  949MOL0     O25139   7.260   8.066   4.804  0.4564 -0.1394  0.0324
  949MOL0     C25140   7.138   8.006   4.842  1.0091  0.7927 -0.4354
  949MOL0     C25141   7.136   7.869   4.842  0.0683 -0.7657  0.5296
  949MOL0     C25142   7.024   7.788   4.884 -0.9141  0.2793  0.3066
  949MOL0     C25143   6.903   7.846   4.914  0.4240  0.1955 -0.0219
  949MOL0     O25144   6.799   7.754   4.948 -0.2975 -0.0565  0.4708
  949MOL0     C25145   6.686   7.811   5.022 -0.5061  0.5661 -0.2929
  949MOL0     C25146   6.591   7.696   5.049 -0.1880 -0.6150 -0.6162
  949MOL0     C25147   6.441   7.734   5.070 -0.9654 -0.6731  0.4277
  949MOL0     C25148   6.373   7.789   4.948 -0.6831  0.7301 -0.0155
  949MOL0     C25149   6.227   7.832   4.967  0.6610 -0.9164  0.2712
  949MOL0     C25150   6.135   7.727   5.013 -0.2385 -0.4549  0.4517
  949MOL0     C25151   5.994   7.783   5.031 -0.3477  0.0842 -0.6421
  949MOL0     C25152   5.985   7.845   5.170 -0.2844  0.3899  0.6361
  949MOL0     N25153   5.879   7.948   5.187  0.5608  1.6065 -0.0252
  949MOL0     C25154   5.745   7.914   5.159  0.2466  0.0002  0.7513
  949MOL0     C25155   5.676   8.015   5.215  0.4718 -0.2265  0.4003
  949MOL0     C25156   5.532   8.044   5.215 -0.9125  0.0359  0.4979
  949MOL0     C25157   5.491   8.193   5.210 -0.2716 -0.5389 -0.1171
  949MOL0     C25158   5.528   8.257   5.076 -0.1243  0.5606 -0.1107
  949MOL0     C25159   5.469   8.404   5.062 -0.5800 -0.1539 -0.7122
  949MOL0     O25160   5.529   8.494   5.153 -0.7774  0.2637  0.3261
  949MOL0     C25161   5.649   8.553   5.115  1.0531  0.0684  0.0919
  949MOL0     C25162   5.724   8.530   4.998  1.0362 -1.0819  0.1277
  949MOL0     C25163   5.847   8.601   4.979 -0.0382  0.1219  0.5868
  949MOL0     C25164   5.885   8.704   5.067 -0.3024 -0.2003  0.5178
  949MOL0     C25165   6.002   8.783   5.028 -0.0208  0.5496 -0.1060
  949MOL0     O25166   6.049   8.871   5.124  1.4546 -0.2198 -0.0106
  949MOL0     C25167   6.142   8.958   5.100 -0.6339 -0.0343 -0.1625
  949MOL0     C25168   6.240   8.960   5.198 -0.9878 -0.3297  0.2136
  949MOL0     C25169   6.343   9.054   5.182 -0.3985 -0.0848 -0.9049
  949MOL0     C25170   6.352   9.140   5.070 -0.9146 -0.2716  0.4339
  949MOL0     O25171   6.450   9.234   5.055  0.3820  0.5206  0.6983
  949MOL0     C25172   6.577   9.202   5.107 -0.6693 -0.1834  0.3047
  949MOL0     C25173   6.669   9.314   5.056 -0.7394  0.3170 -0.0918
  949MOL0     C25174   6.691   9.430   5.152  0.1735 -0.6986  0.1570
  949MOL0     C25175   6.846   9.473   5.139  0.1502 -0.0232 -0.3356
  949MOL0     C25176   6.896   9.573   5.248 -0.7745 -0.7096 -0.6470
  949MOL0     C25177   7.040   9.623   5.221 -0.3061 -0.0420  0.2685
  949MOL0     C25178   7.082   9.744   5.316  0.0027 -0.2239 -0.1299
  949MOL0     C25179   7.234   9.767   5.319  0.1745  0.2549  0.7466
  949MOL0    Cl25180   7.261   9.951   5.345 -0.4045 -0.1768 -0.2505
  949MOL0     C25181   6.245   9.136   4.987  0.0253 -0.7092  0.2606
  949MOL0     C25182   6.148   9.046   4.999 -0.4123 -0.4805  0.6408
  949MOL0     O25183   6.047   8.769   4.913 -0.1483 -0.6485  0.3976
  949MOL0     C25184   5.806   8.743   5.175  0.0639  0.0816  0.5901
  949MOL0     C25185   5.699   8.659   5.203 -0.0453  0.5299 -0.3904
  949MOL0     N25186   5.763   8.101   5.276  0.6952  0.2191 -0.3631
  949MOL0     N25187   5.882   8.062   5.255 -0.9525  0.5321 -0.6722
  949MOL0     C25188   6.897   7.993   4.910  0.3813 -0.1679  0.2840
  949MOL0     C25189   7.015   8.067   4.877  0.4516 -0.4954  0.6447
  949MOL0     C25190   7.360   8.267   4.711 -0.6039 -0.0172  0.5265
  949MOL0     C25191   7.346   8.393   4.648  0.2801  0.1667 -1.3270
  949MOL0     C25192   7.454   8.477   4.641 -0.4188 -0.7376 -0.0779
  949MOL0     C25193   7.581   8.444   4.684  0.0997  0.0106  0.0014
  949MOL0     O25194   7.686   8.536   4.685 -0.3980  0.4171  0.0243
  949MOL0     C25195   7.814   8.505   4.737 -0.6001 -0.2109 -0.2606
  949MOL0     C25196   7.895   8.635   4.749 -0.0161 -0.9638 -0.7732
  949MOL0     C25197   7.839   8.727   4.861  0.6408  0.1855  0.1712
  949MOL0     C25198   7.917   8.858   4.851 -0.3116  0.0513  0.4067
  949MOL0     C25199   7.881   8.940   4.968 -0.9118  0.3198 -0.7194
  949MOL0     C25200   7.852   9.016   5.057 -0.5343  0.5910 -0.7344
  949MOL0     C25201   7.602   8.316   4.733 -0.6572  0.4867  0.1236
  949MOL0     C25202   7.489   8.233   4.751 -0.8843 -0.4198  0.9073
  949MOL0     H25203   7.236   7.829   4.828  0.7004 -0.0160  2.5192
  949MOL0     H25204   7.023   7.680   4.893 -2.1721  0.2544  0.0623
  949MOL0     H25205   6.634   7.883   4.958 -0.0737 -0.6853 -2.1419
  949MOL0     H25206   6.716   7.856   5.118 -0.4938 -2.1185  1.0404
  949MOL0     H25207   6.637   7.632   5.125  2.0289  1.6151  0.0395
  949MOL0     H25208   6.594   7.643   4.954 -4.0169  1.1630 -1.9255
  949MOL0     H25209   6.432   7.799   5.157  2.2556 -1.4589  1.4949
  949MOL0     H25210   6.380   7.646   5.094  0.0368 -0.8608  2.5364
  949MOL0     H25211   6.423   7.878   4.910  1.8399 -2.1094 -4.1089
  949MOL0     H25212   6.370   7.722   4.862 -1.8861 -0.3434  0.8207
  949MOL0     H25213   6.190   7.859   4.868  0.7055 -0.4068  0.3942
  949MOL0     H25214   6.225   7.917   5.036 -0.6730 -0.5581 -0.1898
  949MOL0     H25215   6.162   7.687   5.111  0.3284  0.7672  0.8127
  949MOL0     H25216   6.144   7.642   4.945  0.1261 -2.2104  2.5861
  949MOL0     H25217   5.982   7.864   4.958  2.3649  0.3626 -0.8929
  949MOL0     H25218   5.917   7.706   5.024  0.6943 -1.0711  0.2550
  949MOL0     H25219   6.081   7.895   5.186 -0.5161  0.8579  0.5761
  949MOL0     H25220   5.981   7.761   5.240  0.9596 -0.8605 -0.7295
  949MOL0     H25221   5.690   7.834   5.110  0.5853  0.9214 -1.2103
  949MOL0     H25222   5.488   8.012   5.310 -1.6872 -1.1964 -0.2516
  949MOL0     H25223   5.481   7.998   5.130 -0.5909 -2.0093  1.3510
  949MOL0     H25224   5.526   8.246   5.299 -0.1557 -0.7182 -0.0553
  949MOL0     H25225   5.382   8.191   5.210 -0.3934 -1.4840 -3.7252
  949MOL0     H25226   5.638   8.252   5.074  0.0007  2.2323  0.3154
  949MOL0     H25227   5.490   8.205   4.988  2.2243  2.6860 -2.5855
  949MOL0     H25228   5.366   8.403   5.099 -1.4107 -0.2725 -2.9046
  949MOL0     H25229   5.482   8.438   4.959  0.6311 -0.0684 -0.5509
  949MOL0     H25230   5.699   8.455   4.923  0.1740 -0.9095  0.2306
  949MOL0     H25231   5.911   8.579   4.894  0.9236  0.8018  1.1195
  949MOL0     H25232   6.240   8.889   5.280  1.4253 -1.2607 -0.5209
  949MOL0     H25233   6.418   9.056   5.260 -1.2737 -1.2054 -0.0039
  949MOL0     H25234   6.598   9.105   5.061  1.0768  0.3894 -0.2138
  949MOL0     H25235   6.591   9.202   5.216 -1.1535  0.1244  0.3667
  949MOL0     H25236   6.617   9.355   4.969  0.2210 -1.6896 -1.7071
  949MOL0     H25237   6.767   9.285   5.016  1.0135  4.4583  0.7253
  949MOL0     H25238   6.658   9.409   5.254 -0.5202 -0.4073 -0.0080
  949MOL0     H25239   6.638   9.522   5.126  1.8294  0.4021  0.4853
  949MOL0     H25240   6.894   9.375   5.152 -2.0030 -0.8108  2.8891
  949MOL0     H25241   6.879   9.520   5.046  1.4206  0.4756  0.3407
  949MOL0     H25242   6.884   9.536   5.350 -3.0292 -2.6829 -1.5258
  949MOL0     H25243   6.832   9.661   5.258  0.7832  0.4495 -0.3664
  949MOL0     H25244   7.045   9.662   5.118  0.6318  2.2215  1.1104
  949MOL0     H25245   7.114   9.543   5.227 -0.5325 -0.6598 -3.0370
  949MOL0     H25246   7.047   9.841   5.280 -0.5650  0.5885  2.4194
  949MOL0     H25247   7.036   9.734   5.414 -3.4092  0.1993 -1.5529
  949MOL0     H25248   7.292   9.750   5.228 -2.4399  0.6412 -1.1034
  949MOL0     H25249   7.279   9.705   5.397  1.4290  1.0377  0.6796
  949MOL0     H25250   6.243   9.217   4.914  1.5313 -0.3641  0.5753
  949MOL0     H25251   6.061   9.054   4.935 -0.0562 -0.0584  0.2021
  949MOL0     H25252   5.837   8.826   5.236 -1.9277  2.3424 -1.2629
  949MOL0     H25253   5.646   8.663   5.297 -0.5857 -0.1206 -0.6590
  949MOL0     H25254   6.806   8.046   4.937  1.8947  1.6728  2.0611
  949MOL0     H25255   7.004   8.174   4.891  2.7138  0.1140 -1.4966
  949MOL0     H25256   7.254   8.415   4.595  2.5323  0.8403 -5.4272
  949MOL0     H25257   7.446   8.574   4.592  1.1679  2.0046  4.4131
  949MOL0     H25258   7.871   8.449   4.663  1.9994 -0.7074  1.9479
  949MOL0     H25259   7.822   8.467   4.840 -1.2947  0.6363  0.1225
  949MOL0     H25260   7.997   8.606   4.778  0.5462  1.2262 -0.3687
  949MOL0     H25261   7.891   8.683   4.651 -2.9221 -3.1367 -1.8674
  949MOL0     H25262   7.850   8.675   4.957 -4.9810 -1.7566  0.0947
  949MOL0     H25263   7.734   8.747   4.839  0.3144  0.7700  2.1208
  949MOL0     H25264   8.026   8.855   4.860 -0.1218  1.8044 -0.7870
  949MOL0     H25265   7.886   8.903   4.757  1.0964 -0.4742 -0.3292
  949MOL0     H25266   7.837   9.090   5.134  1.1591 -0.1522  0.3760
  949MOL0     H25267   7.697   8.290   4.777 -0.9049  2.2246  1.8223
  949MOL0     H25268   7.503   8.136   4.797  0.1552 -1.3151 -1.1435
  950MOL0     O25269   9.656   0.189   3.789  0.9283  0.1705  0.3016
  950MOL0     C25270   9.696   0.091   3.733 -0.7959 -1.0710  0.1816
  950MOL0     O25271   9.630  -0.026   3.725  0.9187  0.0112  0.0279
  950MOL0     C25272   9.496  -0.036   3.763  0.1331  0.5539 -0.2208
  950MOL0     C25273   9.444  -0.004   3.886  0.2776  0.4787  0.3175
  950MOL0     C25274   9.306  -0.031   3.912 -0.0226  0.1094 -0.4854
  950MOL0     C25275   9.224  -0.098   3.817  0.6535  0.1062 -0.0803
  950MOL0     O25276   9.088  -0.112   3.844 -1.1979 -0.4018  0.2536
  950MOL0     C25277   9.011  -0.207   3.767 -0.3343 -0.4130 -0.2196
  950MOL0     C25278   8.865  -0.178   3.819  0.0701 -0.4438 -0.0709
  950MOL0     C25279   8.827  -0.179   3.964  0.0674  0.3158 -1.2425
  950MOL0     C25280   8.678  -0.175   3.983 -1.2506 -0.0157 -0.0699
  950MOL0     C25281   8.640  -0.156   4.136  0.0012  0.2120  0.3301
  950MOL0     C25282   8.483  -0.158   4.144 -0.8440  0.0528  0.1245
  950MOL0     C25283   8.440  -0.098   4.281 -0.5828  0.6439 -0.2322
  950MOL0     C25284   8.458  -0.202   4.400  0.3529 -0.1067  0.4076
  950MOL0     N25285   8.328  -0.254   4.449 -0.1305 -0.1546 -0.3882
  950MOL0     C25286   8.221  -0.293   4.365 -1.0651 -0.5259  0.3462
  950MOL0     C25287   8.113  -0.305   4.443 -0.3584  0.6073  0.3613
  950MOL0     C25288   7.970  -0.341   4.399 -0.4450  0.5274  0.5635
  950MOL0     C25289   7.930  -0.465   4.474 -0.0505 -0.0933 -0.9564
  950MOL0     C25290   7.795  -0.523   4.433 -0.1695  0.6782 -0.6295
  950MOL0     C25291   7.674  -0.434   4.458 -0.4755  0.3641 -0.8098
  950MOL0     O25292   7.634  -0.354   4.343 -0.5448  0.0983 -0.6258
  950MOL0     C25293   7.502  -0.310   4.331 -0.2875  0.3131  0.1050
  950MOL0     C25294   7.394  -0.325   4.425  0.0501 -0.0645 -0.0236
  950MOL0     C25295   7.258  -0.291   4.388  0.3099 -0.2615 -0.5031
  950MOL0     C25296   7.229  -0.255   4.261 -0.7785 -0.6989 -0.0092
  950MOL0     C25297   7.091  -0.237   4.202  0.2301 -0.7639  0.1716
  950MOL0     O25298   6.989  -0.303   4.263  0.1717 -0.6839 -0.8848
  950MOL0     C25299   6.859  -0.270   4.230  0.5785 -0.0844 -0.8151
  950MOL0     C25300   6.782  -0.342   4.130  0.2409  0.2207 -0.3669
  950MOL0     C25301   6.662  -0.295   4.085 -1.0609 -1.6098  0.2246
  950MOL0     C25302   6.600  -0.177   4.132  0.2852 -0.1620  0.1755
  950MOL0     O25303   6.484  -0.124   4.091  0.5954 -0.0215 -0.2007
  950MOL0     C25304   6.422  -0.190   3.982 -0.8624  0.0470 -0.2774
  950MOL0     C25305   6.283  -0.120   3.952 -0.3954  0.8810 -0.0759
  950MOL0     C25306   6.166  -0.107   4.054 -0.2103 -0.8034  0.9109
  950MOL0     C25307   6.049  -0.038   3.989  0.3349 -0.2100 -0.0659
  950MOL0     C25308   5.944  -0.019   4.092  0.8062  0.1711 -0.3094
  950MOL0     C25309   5.805   0.007   4.023  0.0077 -0.3249 -0.3238
  950MOL0     C25310   5.709   0.073   4.124 -0.3609  0.3384 -0.4805
  950MOL0     C25311   5.723   0.022   4.271  0.3422 -0.3554  0.4340
  950MOL0    Cl25312   5.580   0.095   4.350  0.3915  0.0437 -0.2643
  950MOL0     C25313   6.662  -0.115   4.244  0.6064 -0.1538  0.9204
  950MOL0     C25314   6.789  -0.159   4.285 -0.3965 -0.6201 -0.2212
  950MOL0     O25315   7.078  -0.147   4.119 -0.2024 -0.2419 -0.4542
  950MOL0     C25316   7.339  -0.221   4.180 -0.2570  0.5679  0.2804
  950MOL0     C25317   7.469  -0.259   4.208  0.0927  0.8211  0.8166
  950MOL0     N25318   8.158  -0.298   4.576 -0.7810 -1.0752  0.2802
  950MOL0     N25319   8.287  -0.269   4.581  0.4631 -0.3007 -0.4153
  950MOL0     C25320   9.280  -0.116   3.694  0.8475 -0.2843  0.0392
  950MOL0     C25321   9.411  -0.085   3.665 -0.5244  0.1937  1.0610
  950MOL0     C25322   9.833   0.087   3.687 -0.8803  0.0130  0.1776
  950MOL0     C25323   9.898  -0.034   3.644  0.3056  0.0471  0.4370
  950MOL0     C25324  10.026  -0.038   3.588  0.2436  0.2570  1.0559
  950MOL0     C25325  10.102   0.080   3.573  0.6317 -0.6127 -0.4381
  950MOL0     O25326  10.226   0.096   3.518  0.9659  0.8778 -0.6040
  950MOL0     C25327  10.297  -0.018   3.476 -0.0094 -0.0620  0.2674
  950MOL0     C25328  10.429   0.048   3.434 -0.8545 -0.3860  0.1778
  950MOL0     C25329  10.517   0.082   3.560 -0.1423 -0.2528  0.3514
  950MOL0     C25330  10.662   0.086   3.544  0.1796 -0.0610 -0.4085
  950MOL0     C25331  10.684   0.181   3.426  0.3683 -0.7566  0.3153
  950MOL0     C25332  10.693   0.248   3.329  0.0285  0.2427  0.3155
  950MOL0     C25333  10.045   0.202   3.623 -0.0853  1.1515 -0.0132
  950MOL0     C25334   9.913   0.205   3.679  0.2986  0.9531  0.2046
  950MOL0     H25335   9.501   0.050   3.961  0.1600  2.2697 -0.8204
  950MOL0     H25336   9.270   0.007   4.007  0.1962 -1.7228  0.3695
  950MOL0     H25337   9.043  -0.309   3.791  0.6117  0.4089  2.4120
  950MOL0     H25338   9.023  -0.189   3.660 -0.3254 -0.3528 -0.2082
  950MOL0     H25339   8.802  -0.255   3.773 -0.7929 -0.7016  1.4717
  950MOL0     H25340   8.833  -0.083   3.775  0.2413 -0.8768 -1.1722
  950MOL0     H25341   8.866  -0.090   4.014 -0.4262 -0.1001 -0.0866
  950MOL0     H25342   8.868  -0.268   4.013 -0.2864 -0.0097 -1.5286
  950MOL0     H25343   8.640  -0.089   3.927 -1.9779 -0.1677  0.1846
  950MOL0     H25344   8.634  -0.266   3.941  2.3312 -1.7133 -0.5047
  950MOL0     H25345   8.686  -0.066   4.178  0.6005  0.4460 -0.7997
  950MOL0     H25346   8.682  -0.243   4.189  2.8182  1.9913  1.2506
  950MOL0     H25347   8.440  -0.250   4.104 -0.3387  0.7826 -2.2562
  950MOL0     H25348   8.448  -0.092   4.065  1.1691  0.5747 -0.3984
  950MOL0     H25349   8.490  -0.002   4.297  0.5089 -0.0904  1.0225
  950MOL0     H25350   8.333  -0.074   4.277 -1.0621 -1.0288  1.1204
  950MOL0     H25351   8.504  -0.156   4.487  1.4369 -0.3080 -0.0382
  950MOL0     H25352   8.532  -0.273   4.360  2.7589  0.8996  2.7710
  950MOL0     H25353   8.236  -0.308   4.258  1.0372  0.4193  0.4588
  950MOL0     H25354   7.967  -0.356   4.291  2.7071  2.2543  0.1172
  950MOL0     H25355   7.909  -0.258   4.435 -0.0388  1.5764 -1.0469
  950MOL0     H25356   7.903  -0.432   4.575 -2.7931 -0.7379 -1.4090
  950MOL0     H25357   8.000  -0.549   4.482 -0.6140 -0.4537  0.5412
  950MOL0     H25358   7.796  -0.556   4.329 -1.5278  0.7973 -0.7076
  950MOL0     H25359   7.792  -0.609   4.500  0.1034  0.6489 -0.6548
  950MOL0     H25360   7.696  -0.361   4.536 -0.4458 -0.3064 -0.1778
  950MOL0     H25361   7.592  -0.495   4.497 -1.0098 -0.9221 -3.6570
  950MOL0     H25362   7.417  -0.364   4.524 -4.1446 -1.4340  0.6365
  950MOL0     H25363   7.187  -0.320   4.465  1.6349 -0.1358  0.8173
  950MOL0     H25364   6.832  -0.434   4.102  0.0415  0.2940 -0.9647
  950MOL0     H25365   6.633  -0.357   4.001 -1.2431 -0.4848 -0.5672
  950MOL0     H25366   6.401  -0.296   4.003 -4.1161  0.3839 -1.3205
  950MOL0     H25367   6.490  -0.183   3.897  0.6678  1.8280  1.0365
  950MOL0     H25368   6.259  -0.177   3.861  0.9342 -2.6489  1.6359
  950MOL0     H25369   6.297  -0.026   3.898 -0.1643  1.4787  1.0157
  950MOL0     H25370   6.204  -0.032   4.124  3.1600  0.2111 -1.7602
  950MOL0     H25371   6.141  -0.201   4.104  1.2480 -1.5770  0.2301
  950MOL0     H25372   6.088   0.057   3.951  2.7468 -0.9035  0.4820
  950MOL0     H25373   6.021  -0.105   3.907  2.7598  1.4329 -2.3906
  950MOL0     H25374   5.974   0.066   4.155 -2.0006  2.1153 -1.4235
  950MOL0     H25375   5.923  -0.109   4.151 -1.6134 -0.9615 -2.7334
  950MOL0     H25376   5.775  -0.091   3.987  0.8467  0.5266 -3.6325
  950MOL0     H25377   5.821   0.073   3.937  1.2613 -1.1576 -0.7390
  950MOL0     H25378   5.728   0.181   4.125 -2.2896  0.7272 -1.7053
  950MOL0     H25379   5.603   0.062   4.099 -0.4003 -2.8006  0.6571
  950MOL0     H25380   5.820   0.044   4.318  1.5082  0.5907 -2.2184
  950MOL0     H25381   5.700  -0.085   4.270 -0.2063 -0.2417  0.8480
  950MOL0     H25382   6.600  -0.035   4.283 -2.1149  0.2369 -3.5279
  950MOL0     H25383   6.835  -0.101   4.364 -1.3403  0.0515 -0.1391
  950MOL0     H25384   7.324  -0.201   4.074 -1.0045 -1.6268 -0.0827
  950MOL0     H25385   7.534  -0.263   4.121 -0.0413 -0.1090  0.7484
  950MOL0     H25386   9.223  -0.163   3.615 -1.8758 -0.4215  1.9423
  950MOL0     H25387   9.450  -0.121   3.570 -0.4824 -1.4703  1.6940
  950MOL0     H25388   9.859  -0.134   3.660 -1.3469  0.6584  0.4148
  950MOL0     H25389  10.079  -0.129   3.562  1.8502  0.7677  2.3292
  950MOL0     H25390  10.238  -0.069   3.398 -2.2640 -0.0582  1.8612
  950MOL0     H25391  10.307  -0.091   3.557 -1.9297  1.2206  1.7721
  950MOL0     H25392  10.476  -0.040   3.388 -2.1031 -2.3395  2.4099
  950MOL0     H25393  10.418   0.134   3.368  2.8183  1.1268  1.2894
  950MOL0     H25394  10.498  -0.002   3.627 -1.9306 -0.7237 -0.6527
  950MOL0     H25395  10.479   0.173   3.607 -0.5193 -0.7061  0.9320
  950MOL0     H25396  10.709   0.119   3.637 -2.4728  0.5580  0.8045
  950MOL0     H25397  10.695  -0.011   3.506 -0.2312 -0.8119  1.0893
  950MOL0     H25398  10.706   0.269   3.225 -0.8879 -2.3380 -0.3997
  950MOL0     H25399  10.107   0.289   3.607  0.1454  0.5747 -2.8243
  950MOL0     H25400   9.884   0.306   3.708  1.0621  1.7511 -1.6863
  951MOL0     O25401   4.417   5.818   6.426  0.4499  0.2769 -0.2126
  951MOL0     C25402   4.430   5.777   6.543 -0.0044  0.2572  0.9502
  951MOL0     O25403   4.318   5.752   6.625 -0.5343  0.8160  0.0633
  951MOL0     C25404   4.197   5.738   6.576 -0.5490  0.5868 -0.3613
  951MOL0     C25405   4.094   5.802   6.648  0.0729 -0.0366 -0.2278
  951MOL0     C25406   3.965   5.771   6.622  0.7427 -0.1628  0.2393
  951MOL0     C25407   3.927   5.674   6.529  0.1441  0.0473  0.5688
  951MOL0     O25408   3.795   5.648   6.528  0.0035  0.7957 -0.4544
  951MOL0     C25409   3.735   5.547   6.450  0.0653  0.4570 -0.0970
  951MOL0     C25410   3.587   5.541   6.467  0.5066  0.2558 -0.4125
  951MOL0     C25411   3.534   5.680   6.435  0.2542  0.1762  0.0580
  951MOL0     C25412   3.378   5.670   6.470  0.3494 -0.0271  0.2618
  951MOL0     C25413   3.297   5.795   6.411  0.2697  0.7268  0.0772
  951MOL0     C25414   3.338   5.924   6.483  0.4231  0.1263  1.1195
  951MOL0     C25415   3.269   6.050   6.421  0.4075  0.7237  0.5617
  951MOL0     C25416   3.128   6.068   6.474 -0.2010 -0.4343 -0.4783
  951MOL0     N25417   3.076   6.182   6.403  0.9477 -0.7864  0.1565
  951MOL0     C25418   2.999   6.282   6.473 -0.3711  0.0207  0.2258
  951MOL0     C25419   2.931   6.351   6.374  0.1678  0.6891  0.3750
  951MOL0     C25420   2.874   6.489   6.408 -0.0951  0.3254 -0.2047
  951MOL0     C25421   2.723   6.461   6.451  0.2310 -0.4814 -1.1133
  951MOL0     C25422   2.623   6.432   6.339 -0.5384 -0.4706 -0.1947
  951MOL0     C25423   2.487   6.373   6.386 -0.0737 -0.7363  0.1084
  951MOL0     O25424   2.397   6.427   6.284 -0.4963 -0.4824 -0.3646
  951MOL0     C25425   2.268   6.388   6.302  1.0975  0.6297 -0.7813
  951MOL0     C25426   2.178   6.490   6.341 -0.3085 -0.4078  0.2312
  951MOL0     C25427   2.044   6.470   6.363 -1.3220  0.5951 -0.3622
  951MOL0     C25428   1.997   6.333   6.360  0.0622  0.1638  0.5014
  951MOL0     C25429   1.863   6.310   6.387 -0.2516 -0.7417 -0.1862
  951MOL0     O25430   1.792   6.417   6.405  0.7650 -0.6958 -0.3335
  951MOL0     C25431   1.657   6.404   6.402  0.8129  0.7823  0.4681
  951MOL0     C25432   1.589   6.382   6.524  0.2030  0.0400 -0.6092
  951MOL0     C25433   1.449   6.367   6.531  0.2723  0.2593  0.5098
  951MOL0     C25434   1.378   6.366   6.412  0.8297 -0.4085 -0.0801
  951MOL0     O25435   1.241   6.361   6.425  0.0786 -0.6330  0.1637
  951MOL0     C25436   1.164   6.295   6.322 -0.3408  0.0624 -0.9158
  951MOL0     C25437   1.023   6.259   6.372 -0.6614 -0.6448 -1.0955
  951MOL0     C25438   0.926   6.235   6.259  0.0677 -0.0576  0.4559
  951MOL0     C25439   0.788   6.185   6.312 -0.0912 -0.6422  0.7816
  951MOL0     C25440   0.715   6.292   6.400 -0.7598 -0.7844 -0.2908
  951MOL0     C25441   0.575   6.255   6.443  0.7164 -1.1317 -0.8436
  951MOL0     C25442   0.479   6.254   6.316 -0.1918 -0.0516 -0.1836
  951MOL0     C25443   0.328   6.245   6.357  0.2403 -0.3797  0.0084
  951MOL0    Cl25444   0.303   6.076   6.380  0.2642  0.4407  0.6093
  951MOL0     C25445   1.444   6.379   6.292 -0.5925 -0.3893  0.9749
  951MOL0     C25446   1.585   6.398   6.283  0.6868 -0.3147 -0.5777
  951MOL0     O25447   1.828   6.193   6.398 -0.0072  0.2637  0.0403
  951MOL0     C25448   2.083   6.231   6.315  0.5495  0.1165 -0.0053
  951MOL0     C25449   2.217   6.261   6.289 -0.3496  0.2457 -0.2044
  951MOL0     N25450   2.965   6.299   6.247  0.4745 -0.1907 -0.4716
  951MOL0     N25451   3.030   6.186   6.268 -0.3034  0.2224  0.2346
  951MOL0     C25452   4.028   5.591   6.478  0.1068 -0.0928  0.6405
  951MOL0     C25453   4.165   5.632   6.494 -0.0819 -0.8542 -0.3815
  951MOL0     C25454   4.565   5.756   6.605  0.9179  0.2839  0.2465
  951MOL0     C25455   4.577   5.679   6.722  0.1995  0.2941 -0.1243
  951MOL0     C25456   4.704   5.663   6.772  0.6418 -0.8628  0.1063
  951MOL0     C25457   4.817   5.729   6.715 -0.1864  0.5481 -0.2433
  951MOL0     O25458   4.934   5.713   6.794  0.0680  0.2780 -0.2732
  951MOL0     C25459   5.065   5.744   6.741 -0.9523 -0.9978 -0.3172
  951MOL0     C25460   5.132   5.632   6.666 -0.2641 -0.4475  0.8941
  951MOL0     C25461   5.260   5.683   6.595  0.4999  0.6393  0.7918
  951MOL0     C25462   5.388   5.644   6.667  0.6745  0.5497  0.2716
  951MOL0     C25463   5.501   5.677   6.574 -0.7658  0.2063  0.3303
  951MOL0     C25464   5.596   5.700   6.510  0.2130 -0.8842 -0.4012
  951MOL0     C25465   4.801   5.797   6.595 -0.0652  0.3018 -0.0165
  951MOL0     C25466   4.674   5.812   6.542 -0.2862  0.9176  0.3742
  951MOL0     H25467   4.117   5.882   6.718  1.8062  0.7041 -1.5666
  951MOL0     H25468   3.888   5.808   6.688  0.7376  1.8380 -0.8160
  951MOL0     H25469   3.767   5.444   6.466 -0.9558  0.3079  1.1957
  951MOL0     H25470   3.749   5.572   6.344 -1.6552  2.2391  0.0197
  951MOL0     H25471   3.570   5.508   6.570  2.4920  0.2803 -0.0443
  951MOL0     H25472   3.538   5.465   6.405 -0.3408  0.3185  0.1552
  951MOL0     H25473   3.532   5.717   6.332 -2.6090  0.2016  0.0468
  951MOL0     H25474   3.578   5.760   6.495  0.0864 -1.3433  2.3204
  951MOL0     H25475   3.338   5.574   6.436  0.4365 -0.1237  0.4271
  951MOL0     H25476   3.363   5.670   6.578 -2.3057 -2.5638  0.0045
  951MOL0     H25477   3.192   5.770   6.427  0.5470 -1.7757 -1.5426
  951MOL0     H25478   3.311   5.792   6.303  0.3859 -2.2013  0.1110
  951MOL0     H25479   3.447   5.931   6.478  0.4752 -0.7250  0.9197
  951MOL0     H25480   3.317   5.898   6.587 -0.3019 -1.1254  0.6825
  951MOL0     H25481   3.334   6.133   6.446  0.5324  1.3765 -1.6869
  951MOL0     H25482   3.259   6.032   6.313 -4.1870  0.7241  0.7911
  951MOL0     H25483   3.114   6.072   6.582 -1.5670  3.3145 -0.6455
  951MOL0     H25484   3.071   5.982   6.436  1.0031 -0.5738 -2.0400
  951MOL0     H25485   3.006   6.323   6.574  1.4429  1.3271 -0.3745
  951MOL0     H25486   2.866   6.540   6.312 -1.3198 -0.7466 -0.7043
  951MOL0     H25487   2.931   6.557   6.471 -0.1774 -0.0192  0.2494
  951MOL0     H25488   2.675   6.543   6.505  1.1729 -0.4888 -0.2219
  951MOL0     H25489   2.727   6.374   6.518 -0.5742  1.3308  1.4664
  951MOL0     H25490   2.600   6.523   6.283  1.4868  0.2467  0.0444
  951MOL0     H25491   2.673   6.354   6.280  2.5849 -0.6020  2.3529
  951MOL0     H25492   2.462   6.400   6.489  0.1423  1.3275 -0.3281
  951MOL0     H25493   2.485   6.264   6.378 -0.1387 -0.6201 -3.3165
  951MOL0     H25494   2.212   6.593   6.341 -2.3199  0.3052  0.9028
  951MOL0     H25495   1.985   6.556   6.393 -0.0100  1.8819 -1.3414
  951MOL0     H25496   1.648   6.410   6.611 -0.2510  1.2780 -0.6810
  951MOL0     H25497   1.390   6.358   6.621 -1.6421 -3.7929 -0.9211
  951MOL0     H25498   1.205   6.196   6.299  0.5809  0.3137 -0.4149
  951MOL0     H25499   1.149   6.360   6.235  0.3022 -1.6878 -2.4117
  951MOL0     H25500   0.989   6.349   6.424  0.7549  3.0992 -5.8657
  951MOL0     H25501   1.033   6.179   6.446 -2.1350  1.1745  1.2396
  951MOL0     H25502   0.959   6.166   6.180  0.5677 -0.1816  0.7666
  951MOL0     H25503   0.930   6.335   6.214 -0.9782  0.2760  1.0612
  951MOL0     H25504   0.727   6.155   6.226  0.0728  0.6123  0.1977
  951MOL0     H25505   0.814   6.100   6.376  1.5106  0.0007  1.0176
  951MOL0     H25506   0.705   6.386   6.345  0.5284 -2.2024 -3.1951
  951MOL0     H25507   0.787   6.312   6.479  0.4150 -1.2400 -1.2202
  951MOL0     H25508   0.534   6.334   6.506 -1.7446 -1.3931 -1.9930
  951MOL0     H25509   0.581   6.166   6.507  1.4449  1.2009  2.6533
  951MOL0     H25510   0.490   6.347   6.260  0.8928 -0.1113 -0.0940
  951MOL0     H25511   0.507   6.178   6.243 -1.4829  2.3397 -3.4041
  951MOL0     H25512   0.265   6.290   6.279  1.5668  2.9259  0.6596
  951MOL0     H25513   0.309   6.300   6.449  0.5032  0.7466 -0.5874
  951MOL0     H25514   1.385   6.382   6.201  0.7065 -0.1125  0.1225
  951MOL0     H25515   1.624   6.422   6.184  0.4274  0.1614 -0.5690
  951MOL0     H25516   2.052   6.128   6.302 -1.5482  0.8417 -1.1823
  951MOL0     H25517   2.286   6.195   6.236 -3.0090 -2.4940 -0.5258
  951MOL0     H25518   4.006   5.503   6.418  1.0887  0.0855 -0.0068
  951MOL0     H25519   4.251   5.582   6.450  1.3038  0.1698  1.0435
  951MOL0     H25520   4.498   5.630   6.778  0.2450  0.0359 -0.2808
  951MOL0     H25521   4.717   5.595   6.856  1.2530 -1.9608 -0.8409
  951MOL0     H25522   5.127   5.764   6.829  0.4321 -1.2231 -1.2079
  951MOL0     H25523   5.060   5.827   6.670  1.4912  0.0646  0.6282
  951MOL0     H25524   5.154   5.554   6.739  1.5007  0.6258  1.5546
  951MOL0     H25525   5.064   5.594   6.589  0.7090 -2.2681  0.8631
  951MOL0     H25526   5.258   5.790   6.571 -0.5088  0.0570 -2.1360
  951MOL0     H25527   5.271   5.630   6.499  2.4268 -0.2862  1.4603
  951MOL0     H25528   5.397   5.699   6.762  0.5582 -1.2887  1.4042
  951MOL0     H25529   5.378   5.540   6.700  1.2340 -0.5848 -2.8056
  951MOL0     H25530   5.685   5.723   6.453  0.9215 -2.5621 -0.0213
  951MOL0     H25531   4.886   5.851   6.555 -2.5854  3.7015 -1.2785
  951MOL0     H25532   4.655   5.868   6.451 -1.5662 -0.6573 -0.3706
  952MOL0     O25533   0.360   6.256   4.625 -0.1921  0.5078  0.3871
  952MOL0     C25534   0.462   6.310   4.664 -0.2592 -0.3275  0.7273
  952MOL0     O25535   0.471   6.408   4.760 -0.5157  0.6335  0.1719
  952MOL0     C25536   0.358   6.464   4.824 -0.3706  0.0162 -0.5689
  952MOL0     C25537   0.341   6.601   4.837  0.6003  1.1585  0.3758
  952MOL0     C25538   0.233   6.655   4.896 -0.2441 -0.6587  0.6606
  952MOL0     C25539   0.126   6.579   4.938 -0.6191  0.5761 -0.1489
  952MOL0     O25540   0.013   6.633   4.988  0.1595  0.2954  0.6072
  952MOL0     C25541  -0.061   6.701   4.884  0.2458  0.5098  0.3214
  952MOL0     C25542  -0.208   6.699   4.925 -0.3464 -0.2635  0.0786
  952MOL0     C25543  -0.275   6.557   4.927  0.8021  0.5067 -0.2019
  952MOL0     C25544  -0.301   6.521   4.778 -0.0107  0.8996  0.5848
  952MOL0     C25545  -0.372   6.383   4.766 -0.1216 -0.1171 -0.3663
  952MOL0     C25546  -0.327   6.324   4.628 -0.1893  0.0957 -0.0559
  952MOL0     C25547  -0.411   6.201   4.594 -0.1295  0.5520  0.2868
  952MOL0     C25548  -0.391   6.168   4.439  0.6773 -0.2433  0.1641
  952MOL0     N25549  -0.253   6.132   4.409  0.3352  0.3912  0.1939
  952MOL0     C25550  -0.191   6.019   4.450  0.1568  1.2106  0.6741
  952MOL0     C25551  -0.069   6.016   4.385 -0.2302  0.2029 -0.1244
  952MOL0     C25552   0.034   5.906   4.400 -1.4725  0.1228  1.3343
  952MOL0     C25553   0.178   5.948   4.412  0.1017 -0.1575  1.2983
  952MOL0     C25554   0.257   5.825   4.463 -0.2962  0.4633 -0.7490
  952MOL0     C25555   0.412   5.857   4.460 -0.3338  0.3423  0.4876
  952MOL0     O25556   0.494   5.742   4.477 -0.3367 -0.4811 -0.1755
  952MOL0     C25557   0.623   5.764   4.524 -0.1841 -0.5234 -0.1877
  952MOL0     C25558   0.698   5.649   4.545 -0.1686  0.3446  0.1550
  952MOL0     C25559   0.827   5.649   4.587  0.0424  1.1253 -0.4516
  952MOL0     C25560   0.887   5.764   4.610 -0.1943 -0.2727  0.1450
  952MOL0     C25561   1.037   5.768   4.639  0.0513 -0.0028 -0.2945
  952MOL0     O25562   1.110   5.878   4.599  0.0546  0.5306 -0.5760
  952MOL0     C25563   1.244   5.891   4.629  0.3623  0.0980 -0.1733
  952MOL0     C25564   1.325   5.798   4.691 -0.2535  0.0119 -0.0896
  952MOL0     C25565   1.463   5.821   4.705  0.9977  0.1427 -0.3572
  952MOL0     C25566   1.518   5.948   4.692  0.4325  0.5935  0.1741
  952MOL0     O25567   1.650   5.968   4.722 -0.1153  0.0211  0.7887
  952MOL0     C25568   1.699   6.095   4.752  0.7876 -0.3383 -1.0001
  952MOL0     C25569   1.850   6.098   4.764  0.2749 -0.5697 -0.2217
  952MOL0     C25570   1.897   6.015   4.892 -0.1933  1.2575 -0.5414
  952MOL0     C25571   2.043   6.008   4.906 -0.4697  0.2493 -0.0560
  952MOL0     C25572   2.088   5.940   5.041 -0.1867 -0.4050  0.0425
  952MOL0     C25573   2.239   5.936   5.065 -0.0814 -0.3264 -1.1301
  952MOL0     C25574   2.274   5.860   5.191  1.0285 -0.2072 -0.1265
  952MOL0     C25575   2.414   5.831   5.220 -0.0986 -0.3892 -0.5444
  952MOL0    Cl25576   2.444   5.775   5.399 -0.1618  0.1130 -0.0641
  952MOL0     C25577   1.437   6.049   4.644  0.2795 -0.1291  0.3795
  952MOL0     C25578   1.302   6.018   4.610  0.2198 -0.5779  0.0751
  952MOL0     O25579   1.077   5.666   4.695 -0.4872  0.3946  0.2816
  952MOL0     C25580   0.815   5.883   4.587  0.0706 -0.3108 -0.3146
  952MOL0     C25581   0.688   5.890   4.535  0.7347  0.2229  0.3268
  952MOL0     N25582  -0.065   6.131   4.308 -0.2796  0.2186 -0.2791
  952MOL0     N25583  -0.175   6.199   4.317  0.3622 -0.4772 -0.4288
  952MOL0     C25584   0.135   6.435   4.932  0.8000 -0.1858 -0.4686
  952MOL0     C25585   0.253   6.383   4.868  0.4818  0.5219 -0.1791
  952MOL0     C25586   0.586   6.285   4.588  0.2953 -0.3118  0.5699
  952MOL0     C25587   0.573   6.260   4.446  0.1047 -0.4059 -0.4107
  952MOL0     C25588   0.685   6.226   4.368  0.3338 -0.2646 -0.3560
  952MOL0     C25589   0.815   6.233   4.425 -0.0115 -0.4882 -0.7167
  952MOL0     O25590   0.927   6.211   4.362 -0.6651  0.4290  0.3251
  952MOL0     C25591   0.926   6.085   4.286  0.3205 -0.7790  0.5663
  952MOL0     C25592   1.049   6.085   4.205  0.1204  1.0714  0.1261
  952MOL0     C25593   1.064   5.954   4.122 -0.7149 -0.5693 -0.3792
  952MOL0     C25594   1.213   5.946   4.074 -0.2784 -0.9618 -0.4703
  952MOL0     C25595   1.295   5.899   4.185 -0.0476 -0.0114  0.1980
  952MOL0     C25596   1.374   5.852   4.266 -0.1882  0.6734  0.5297
  952MOL0     C25597   0.828   6.266   4.559  0.8367 -0.7706  0.8016
  952MOL0     C25598   0.716   6.279   4.632 -0.1852  0.1798 -0.4544
  952MOL0     H25599   0.425   6.660   4.803  1.8369 -0.6909  0.0818
  952MOL0     H25600   0.238   6.763   4.904  3.2310 -0.0127 -4.8951
  952MOL0     H25601  -0.035   6.661   4.785  1.5713 -1.0168  1.2345
  952MOL0     H25602  -0.024   6.804   4.881  0.2779  0.5512  1.6283
  952MOL0     H25603  -0.247   6.771   4.853  1.6676  0.8297  0.0256
  952MOL0     H25604  -0.224   6.754   5.018 -3.9792 -2.4706  0.9876
  952MOL0     H25605  -0.369   6.557   4.982 -0.3365  2.9432 -1.9441
  952MOL0     H25606  -0.208   6.489   4.980 -0.4089 -0.3168  0.2961
  952MOL0     H25607  -0.358   6.601   4.729 -1.5982 -1.2684 -1.3007
  952MOL0     H25608  -0.203   6.510   4.731  0.2692  0.0625  1.3401
  952MOL0     H25609  -0.481   6.397   4.768 -0.4365 -1.9688 -1.8206
  952MOL0     H25610  -0.350   6.309   4.843  3.3853  1.8132  0.7137
  952MOL0     H25611  -0.218   6.310   4.622 -0.0045  1.6946 -1.1505
  952MOL0     H25612  -0.340   6.389   4.541  1.0912  0.4557 -0.0100
  952MOL0     H25613  -0.395   6.119   4.665  0.4228  0.6091  0.2380
  952MOL0     H25614  -0.513   6.239   4.599 -1.3246 -1.9702 -2.3384
  952MOL0     H25615  -0.428   6.242   4.367 -1.7723 -3.1299 -1.8698
  952MOL0     H25616  -0.455   6.080   4.424 -1.2173  0.8551  1.3969
  952MOL0     H25617  -0.225   5.952   4.528  1.3019 -1.0511 -0.6653
  952MOL0     H25618   0.025   5.834   4.318  0.8197  0.7196  0.4639
  952MOL0     H25619   0.001   5.847   4.486 -0.2781 -0.5216  1.3759
  952MOL0     H25620   0.183   6.031   4.484  0.7354 -0.9305  2.1748
  952MOL0     H25621   0.198   5.969   4.307 -0.0452 -2.8460  0.6544
  952MOL0     H25622   0.234   5.804   4.568  0.6243  1.3550 -0.3606
  952MOL0     H25623   0.231   5.740   4.398  1.6332 -0.9946  0.2854
  952MOL0     H25624   0.443   5.944   4.517 -1.8477 -1.3789  4.2712
  952MOL0     H25625   0.432   5.881   4.355 -1.5005  1.0836  0.4140
  952MOL0     H25626   0.654   5.550   4.545  1.0688 -0.3053  2.8641
  952MOL0     H25627   0.883   5.557   4.599 -3.6156 -1.1379  1.0297
  952MOL0     H25628   1.290   5.705   4.733 -3.1233  1.6315  1.4228
  952MOL0     H25629   1.523   5.733   4.729 -1.9158 -1.7083  0.7361
  952MOL0     H25630   1.657   6.139   4.843 -1.1953 -2.5760 -0.7570
  952MOL0     H25631   1.682   6.158   4.664 -3.1030 -3.0920 -2.4941
  952MOL0     H25632   1.884   6.202   4.772  0.2550 -0.2836 -2.9569
  952MOL0     H25633   1.896   6.056   4.674 -0.3033  1.7099 -1.6824
  952MOL0     H25634   1.854   5.914   4.900  1.4130  0.6236  0.5664
  952MOL0     H25635   1.852   6.052   4.985  0.6835  1.1517 -0.0630
  952MOL0     H25636   2.084   5.960   4.817  0.5724  2.7668 -1.0249
  952MOL0     H25637   2.072   6.113   4.914 -2.1452  0.9154 -1.8960
  952MOL0     H25638   2.047   5.838   5.041 -1.5904  0.1326  0.5605
  952MOL0     H25639   2.036   5.997   5.118 -3.0747 -1.3006 -1.0805
  952MOL0     H25640   2.283   6.036   5.072 -2.6932  0.8039  1.9457
  952MOL0     H25641   2.286   5.891   4.977  0.5971  2.9766 -2.6358
  952MOL0     H25642   2.235   5.906   5.282 -0.8981 -1.4550 -0.2580
  952MOL0     H25643   2.230   5.761   5.175 -2.0024  1.2413 -1.5917
  952MOL0     H25644   2.478   5.919   5.205  3.0191 -2.4716 -0.5477
  952MOL0     H25645   2.443   5.751   5.152 -1.6067 -1.1844 -0.2928
  952MOL0     H25646   1.473   6.150   4.625  0.6306 -0.3107  0.0485
  952MOL0     H25647   1.243   6.092   4.559  0.6889 -2.2407 -3.1614
  952MOL0     H25648   0.853   5.983   4.602  1.8169 -1.3967  3.7894
  952MOL0     H25649   0.636   5.983   4.516  0.7894  0.2259  0.1937
  952MOL0     H25650   0.060   6.368   4.973 -0.1321  1.3745  0.4661
  952MOL0     H25651   0.261   6.274   4.865 -1.3995  0.1506  3.2657
  952MOL0     H25652   0.477   6.283   4.401  0.2488 -0.8991 -0.9859
  952MOL0     H25653   0.673   6.222   4.260  1.8961  1.9529 -0.6993
  952MOL0     H25654   0.844   6.079   4.214 -0.1097 -0.1437  0.9946
  952MOL0     H25655   0.913   6.000   4.354 -0.4072 -0.1602  1.2292
  952MOL0     H25656   1.044   6.174   4.142 -2.6997  2.7569  2.4628
  952MOL0     H25657   1.129   6.090   4.278 -0.4236 -1.4739  1.0044
  952MOL0     H25658   0.999   5.950   4.034 -2.8399 -0.0011  1.0675
  952MOL0     H25659   1.026   5.869   4.180 -0.8228 -2.2262 -2.7759
  952MOL0     H25660   1.214   5.877   3.989 -1.6056 -0.0772 -1.2529
  952MOL0     H25661   1.257   6.035   4.029  2.4264 -0.5709  2.5977
  952MOL0     H25662   1.448   5.818   4.335  2.2139  3.2979 -0.6040
  952MOL0     H25663   0.929   6.283   4.593  1.7414 -0.0123 -1.9739
  952MOL0     H25664   0.719   6.297   4.739  1.2320  1.8452 -0.7255
  953MOL0     O25665   5.235   5.299   7.364 -0.1002 -0.0030  0.2433
  953MOL0     C25666   5.189   5.388   7.434  0.3551  0.1718  0.4411
  953MOL0     O25667   5.257   5.486   7.497 -0.5930 -0.3587 -0.2816
  953MOL0     C25668   5.392   5.512   7.493  1.0847 -0.1205 -0.5520
  953MOL0     C25669   5.428   5.632   7.557 -0.1899 -0.3964 -0.6084
  953MOL0     C25670   5.564   5.675   7.567  0.4007 -0.3047  0.5606
  953MOL0     C25671   5.666   5.599   7.507  0.3090 -0.1229  0.5361
  953MOL0     O25672   5.788   5.647   7.531 -0.5774  0.0740 -0.4755
  953MOL0     C25673   5.909   5.577   7.512 -0.1124 -0.1669  0.8520
  953MOL0     C25674   6.019   5.681   7.552 -1.2803  0.5634 -1.1312
  953MOL0     C25675   6.014   5.723   7.702 -0.5199 -0.7714 -1.8275
  953MOL0     C25676   6.131   5.808   7.760 -0.1202 -0.3598  0.3159
  953MOL0     C25677   6.263   5.729   7.747 -0.4203 -0.0865  0.3482
  953MOL0     C25678   6.368   5.769   7.847 -1.0154 -0.8015 -0.3055
  953MOL0     C25679   6.428   5.906   7.813  0.8137  0.0462 -0.3101
  953MOL0     C25680   6.571   5.923   7.883  0.3812 -0.9439  0.0578
  953MOL0     N25681   6.563   5.898   8.029  0.0251 -0.6708 -0.0085
  953MOL0     C25682   6.488   5.979   8.115 -0.3214  0.2916 -0.5102
  953MOL0     C25683   6.505   5.909   8.232  0.5679  1.4039 -0.3183
  953MOL0     C25684   6.436   5.954   8.357  0.6053  0.3491 -1.4219
  953MOL0     C25685   6.289   5.920   8.367 -0.0480  0.0763 -0.3615
  953MOL0     C25686   6.241   5.931   8.509  0.1360  0.4752  0.2241
  953MOL0     C25687   6.108   5.872   8.521  1.3125  0.2646 -0.0184
  953MOL0     O25688   6.011   5.954   8.452  0.1919  1.0190 -0.0748
  953MOL0     C25689   5.876   5.921   8.451 -0.2758 -0.1596  0.0510
  953MOL0     C25690   5.815   5.808   8.501 -0.0933  0.4138  0.1754
  953MOL0     C25691   5.677   5.794   8.508 -0.5893  0.1253  0.6490
  953MOL0     C25692   5.589   5.892   8.459 -0.1650  0.3619  0.5863
  953MOL0     C25693   5.446   5.873   8.471 -0.7084  0.7107 -0.7982
  953MOL0     O25694   5.380   5.967   8.409  0.2730  0.1190  0.0183
  953MOL0     C25695   5.248   5.941   8.376 -0.1755 -0.0022  0.6465
  953MOL0     C25696   5.215   5.858   8.265 -0.0536  0.8019 -0.9429
  953MOL0     C25697   5.071   5.841   8.245  0.4607 -0.4104 -0.2826
  953MOL0     C25698   4.974   5.903   8.324 -0.4374  0.3790 -0.9758
  953MOL0     O25699   4.844   5.893   8.287  0.6993  0.2700 -0.4966
  953MOL0     C25700   4.730   5.951   8.355  0.9637 -0.3880  0.9306
  953MOL0     C25701   4.600   5.901   8.297 -0.1605  0.0367 -0.1048
  953MOL0     C25702   4.477   5.990   8.332  1.1056  0.2197 -0.5024
  953MOL0     C25703   4.438   5.941   8.475  0.2486 -0.5869 -0.4771
  953MOL0     C25704   4.317   6.016   8.540  0.0691  0.4510  1.1047
  953MOL0     C25705   4.260   5.943   8.660 -0.5076  0.6071  0.0120
  953MOL0     C25706   4.110   5.966   8.689 -0.6924 -0.0614  0.4509
  953MOL0     C25707   4.074   6.074   8.791  0.4868 -0.4159 -0.0320
  953MOL0    Cl25708   3.899   6.096   8.789  0.2491  0.4535  0.0226
  953MOL0     C25709   5.020   5.984   8.433  0.2483 -0.0309 -0.5922
  953MOL0     C25710   5.152   5.997   8.455  0.9257 -1.2237  0.2249
  953MOL0     O25711   5.399   5.768   8.510 -1.0289 -1.0085  0.4061
  953MOL0     C25712   5.646   5.992   8.394 -0.0644 -0.6889  0.0516
  953MOL0     C25713   5.786   6.008   8.388  0.6662 -0.3188 -0.3937
  953MOL0     N25714   6.599   5.806   8.216  0.8774 -0.3098  0.4238
  953MOL0     N25715   6.636   5.803   8.093  0.0942  0.1890  0.1585
  953MOL0     C25716   5.631   5.471   7.451 -0.6512 -0.7648 -0.1545
  953MOL0     C25717   5.491   5.430   7.441  0.7230 -0.3450 -0.1052
  953MOL0     C25718   5.042   5.371   7.462 -0.9020 -0.7080  0.3432
  953MOL0     C25719   4.960   5.267   7.402 -0.1959  0.6100 -0.1616
  953MOL0     C25720   4.828   5.242   7.441  0.3569  0.3004  0.6693
  953MOL0     C25721   4.774   5.320   7.546  0.2362  0.8868  0.0483
  953MOL0     O25722   4.646   5.298   7.592 -0.3101  0.5112  0.7794
  953MOL0     C25723   4.551   5.254   7.504  0.4079 -0.4013  0.2697
  953MOL0     C25724   4.408   5.285   7.552 -0.2744  0.0835  0.6204
  953MOL0     C25725   4.389   5.442   7.557  0.7203  0.6194 -0.2234
  953MOL0     C25726   4.264   5.478   7.638 -0.6657 -0.1693  0.3494
  953MOL0     C25727   4.145   5.458   7.550 -0.0688 -0.1580 -0.7600
  953MOL0     C25728   4.034   5.455   7.498 -0.2567 -0.1877 -0.2096
  953MOL0     C25729   4.850   5.425   7.599  0.3404 -0.2355  0.1493
  953MOL0     C25730   4.982   5.441   7.563 -0.0567  0.2447  0.3520
  953MOL0     H25731   5.362   5.700   7.610 -0.1907  0.7656 -2.0628
  953MOL0     H25732   5.576   5.769   7.621 -1.8560 -1.1924  2.8017
  953MOL0     H25733   5.939   5.529   7.419 -1.3628 -0.4280  0.5668
  953MOL0     H25734   5.893   5.490   7.577 -1.0523  0.7819  1.9484
  953MOL0     H25735   6.006   5.768   7.488 -2.8702  0.0715 -1.5176
  953MOL0     H25736   6.118   5.643   7.524 -1.0107 -1.5021  2.0959
  953MOL0     H25737   6.001   5.635   7.767  1.2596 -0.7196 -1.3259
  953MOL0     H25738   5.925   5.784   7.720  1.2484  1.6647 -0.8131
  953MOL0     H25739   6.132   5.888   7.686 -1.6451  0.6383  1.3172
  953MOL0     H25740   6.121   5.848   7.862  2.0892  1.3360 -0.0618
  953MOL0     H25741   6.310   5.740   7.649  1.5601 -1.4147  1.0657
  953MOL0     H25742   6.246   5.621   7.757  0.6977 -0.5015 -1.7523
  953MOL0     H25743   6.450   5.698   7.845 -0.8207 -0.5620 -1.6463
  953MOL0     H25744   6.322   5.787   7.945  0.4871  0.2035  0.2586
  953MOL0     H25745   6.442   5.933   7.708 -1.8264 -1.0390 -1.0202
  953MOL0     H25746   6.359   5.977   7.861 -1.2489 -1.3428 -1.0877
  953MOL0     H25747   6.614   6.023   7.882  0.8116 -1.0950  1.2237
  953MOL0     H25748   6.644   5.861   7.830 -1.9951 -1.6208 -2.6673
  953MOL0     H25749   6.442   6.074   8.091 -0.9208 -0.1786 -1.2653
  953MOL0     H25750   6.448   6.062   8.366 -2.3597  0.7605 -1.5849
  953MOL0     H25751   6.489   5.916   8.445 -0.4575  0.5351 -0.6856
  953MOL0     H25752   6.271   5.818   8.333 -1.8724 -0.7259  2.5966
  953MOL0     H25753   6.241   5.983   8.291 -1.8596 -1.7964 -0.8632
  953MOL0     H25754   6.315   5.891   8.579  1.4878  2.2287 -0.1388
  953MOL0     H25755   6.237   6.038   8.529 -1.6128  0.8367 -1.7105
  953MOL0     H25756   6.080   5.856   8.625 -0.5689 -0.3847 -0.5808
  953MOL0     H25757   6.100   5.773   8.475 -1.5315  0.5454 -0.3070
  953MOL0     H25758   5.880   5.729   8.537  1.4604  2.0170  1.0845
  953MOL0     H25759   5.636   5.709   8.562  0.9064 -1.9090 -1.1995
  953MOL0     H25760   5.282   5.806   8.197 -2.0290 -1.4396 -1.3330
  953MOL0     H25761   5.042   5.781   8.159  0.8916  1.1142 -1.5369
  953MOL0     H25762   4.734   6.059   8.339 -1.4484 -0.2849  0.7193
  953MOL0     H25763   4.715   5.937   8.462 -1.6443  4.3523  1.4488
  953MOL0     H25764   4.589   5.795   8.321 -3.0230  0.7818  2.3435
  953MOL0     H25765   4.599   5.920   8.189 -3.3739 -0.1990 -0.2105
  953MOL0     H25766   4.399   5.957   8.263  3.0015 -2.8625 -1.3734
  953MOL0     H25767   4.490   6.098   8.320  3.5554 -0.1631 -2.3152
  953MOL0     H25768   4.411   5.836   8.464 -2.5336  0.2647 -3.2801
  953MOL0     H25769   4.521   5.961   8.543 -0.7951 -0.9082  0.9324
  953MOL0     H25770   4.240   6.035   8.465  0.3619 -0.1866  0.6380
  953MOL0     H25771   4.340   6.114   8.584  0.5229  0.8853 -0.0818
  953MOL0     H25772   4.328   5.970   8.741 -1.8736 -1.0927  1.8114
  953MOL0     H25773   4.275   5.835   8.650 -0.5992  0.5338  0.6231
  953MOL0     H25774   4.067   5.987   8.590  0.6171 -0.5895 -0.2544
  953MOL0     H25775   4.075   5.869   8.725  1.1184 -1.1167 -0.4875
  953MOL0     H25776   4.122   6.168   8.761 -0.4294  0.6069  1.5547
  953MOL0     H25777   4.109   6.046   8.890  0.0206  2.0711  0.9195
  953MOL0     H25778   4.956   6.046   8.494  1.4633 -2.8124  3.9598
  953MOL0     H25779   5.179   6.070   8.531 -0.9380 -0.2522  0.0006
  953MOL0     H25780   5.588   6.077   8.359 -0.5751 -0.1981  1.9427
  953MOL0     H25781   5.822   6.101   8.345  0.7962 -0.1301  0.1150
  953MOL0     H25782   5.710   5.405   7.415 -0.1509  0.1722 -0.8294
  953MOL0     H25783   5.467   5.336   7.393  1.5454  0.2119 -1.6608
  953MOL0     H25784   5.010   5.193   7.339  1.1221 -0.1294  1.6639
  953MOL0     H25785   4.787   5.150   7.398  1.6928 -0.4467  0.9478
  953MOL0     H25786   4.566   5.148   7.480 -1.6160 -0.7546  0.3666
  953MOL0     H25787   4.562   5.299   7.405  2.3961 -0.3338  0.4744
  953MOL0     H25788   4.347   5.249   7.468  1.6305  0.3656 -0.9564
  953MOL0     H25789   4.388   5.221   7.638  1.9353 -2.0531 -0.3125
  953MOL0     H25790   4.376   5.482   7.456 -2.8987 -2.0807 -1.0394
  953MOL0     H25791   4.468   5.505   7.599 -1.5094  2.4370  1.5332
  953MOL0     H25792   4.256   5.418   7.729  1.7293  0.7939  1.2493
  953MOL0     H25793   4.285   5.583   7.660  3.0084 -0.4527 -1.1236
  953MOL0     H25794   3.934   5.445   7.460 -0.3272  0.4257 -0.1994
  953MOL0     H25795   4.816   5.468   7.692  0.8138 -1.1681  0.7646
  953MOL0     H25796   5.038   5.527   7.598  0.5473  0.9290 -2.1098
  954MOL0     O25797   4.664   3.203   5.673  0.0495  0.1302  0.1836
  954MOL0     C25798   4.634   3.113   5.595  0.0427  0.3365  0.6488
  954MOL0     O25799   4.717   3.038   5.525 -0.4377 -0.4813  0.7405
  954MOL0     C25800   4.851   3.021   5.560 -0.7675  0.1614 -0.2814
  954MOL0     C25801   4.881   3.021   5.691 -0.3213  0.1487 -0.0195
  954MOL0     C25802   5.020   2.978   5.719 -0.2243  0.2993  0.2149
  954MOL0     C25803   5.120   2.934   5.619  0.7991 -0.1217 -0.5116
  954MOL0     O25804   5.240   2.892   5.665 -0.1675  0.9652  0.0977
  954MOL0     C25805   5.349   2.861   5.573  0.7510 -0.1353 -0.0593
  954MOL0     C25806   5.477   2.861   5.647  0.2268  0.1712  0.5883
  954MOL0     C25807   5.595   2.784   5.580 -0.8442 -0.1916  0.2012
  954MOL0     C25808   5.707   2.792   5.678 -0.2821 -0.2160  0.6687
  954MOL0     C25809   5.839   2.761   5.624  0.1540  0.4896  0.2985
  954MOL0     C25810   5.935   2.770   5.739 -0.6862 -0.0468 -0.7648
  954MOL0     C25811   6.081   2.723   5.711 -0.1479 -0.5879  0.3150
  954MOL0     C25812   6.132   2.811   5.593 -0.3900 -0.8234 -0.5477
  954MOL0     N25813   6.277   2.777   5.559  0.3990 -0.5221 -0.6007
  954MOL0     C25814   6.356   2.848   5.466 -0.0534 -1.1090 -0.0469
  954MOL0     C25815   6.475   2.786   5.461  0.7545 -0.4985  0.0524
  954MOL0     C25816   6.595   2.805   5.371 -0.0721 -0.1378 -0.2664
  954MOL0     C25817   6.698   2.899   5.433 -0.2238 -0.7607 -0.2984
  954MOL0     C25818   6.835   2.870   5.367 -0.8102 -0.3240 -0.1159
  954MOL0     C25819   6.937   2.967   5.447  0.1947 -0.1747 -0.0427
  954MOL0     O25820   7.069   2.903   5.441 -0.3890  0.6552  0.6167
  954MOL0     C25821   7.176   2.978   5.481 -0.4635 -0.2429  0.0671
  954MOL0     C25822   7.185   3.115   5.445  0.6488  0.0885  0.3041
  954MOL0     C25823   7.303   3.183   5.493 -0.9726 -0.6283 -0.3755
  954MOL0     C25824   7.404   3.121   5.564  0.5980 -0.2176 -1.0942
  954MOL0     C25825   7.513   3.203   5.631 -0.2096 -0.5669  0.6940
  954MOL0     O25826   7.604   3.137   5.716  0.3007 -0.7092  0.0021
  954MOL0     C25827   7.692   3.208   5.796  0.0233 -0.2344 -1.4107
  954MOL0     C25828   7.822   3.166   5.817 -0.2746  0.4342 -0.7136
  954MOL0     C25829   7.911   3.252   5.882  0.1390  0.0907 -0.3747
  954MOL0     C25830   7.865   3.370   5.945  0.0873  0.4984  0.3020
  954MOL0     O25831   7.949   3.458   6.016  0.5177 -0.6513  0.0191
  954MOL0     C25832   8.090   3.462   5.978  0.7260 -1.6635 -0.5608
  954MOL0     C25833   8.144   3.592   6.036  1.4844  0.6243  0.8036
  954MOL0     C25834   8.174   3.582   6.187 -0.5323 -0.3863  0.1534
  954MOL0     C25835   8.260   3.458   6.232  0.2545 -0.3023  0.1134
  954MOL0     C25836   8.308   3.478   6.380  0.5303  1.4891  0.1074
  954MOL0     C25837   8.370   3.349   6.429 -0.8604  0.9004  0.2821
  954MOL0     C25838   8.382   3.349   6.581 -0.6185 -0.3295 -1.4062
  954MOL0     C25839   8.442   3.231   6.655  0.8406 -0.0896  0.0372
  954MOL0    Cl25840   8.618   3.240   6.609  0.0488 -0.1605  0.6663
  954MOL0     C25841   7.729   3.396   5.948 -0.5990 -0.5219 -0.8032
  954MOL0     C25842   7.644   3.317   5.874  0.4147  0.2528  0.4061
  954MOL0     O25843   7.503   3.326   5.611 -0.5327 -0.1932 -0.1517
  954MOL0     C25844   7.399   2.984   5.560 -0.3544 -0.1374 -0.6989
  954MOL0     C25845   7.290   2.910   5.532  0.5194  0.7031  0.2407
  954MOL0     N25846   6.472   2.687   5.560 -0.3835 -0.3639  0.6107
  954MOL0     N25847   6.356   2.687   5.620 -0.7363 -0.4175 -0.6192
  954MOL0     C25848   5.073   2.942   5.488 -0.5652 -0.2332 -0.9340
  954MOL0     C25849   4.947   2.989   5.460 -0.1981 -0.5175  0.2800
  954MOL0     C25850   4.491   3.086   5.571  0.0747  0.1066  0.6681
  954MOL0     C25851   4.396   3.116   5.671  0.1151 -0.0790 -0.2831
  954MOL0     C25852   4.254   3.098   5.662  0.5247 -0.2448 -0.0427
  954MOL0     C25853   4.210   3.008   5.558 -0.1177 -0.3266 -0.3360
  954MOL0     O25854   4.076   2.990   5.546  0.1410 -0.0576  0.3775
  954MOL0     C25855   4.025   2.903   5.437  0.2323 -0.2730  0.5788
  954MOL0     C25856   3.878   2.869   5.449  0.1092 -0.2401 -0.1589
  954MOL0     C25857   3.790   2.995   5.441 -0.0870 -0.8449 -0.5116
  954MOL0     C25858   3.643   2.947   5.419 -0.0081 -0.3224 -0.1499
  954MOL0     C25859   3.554   3.054   5.446 -0.9067 -0.9579 -0.0603
  954MOL0     C25860   3.469   3.143   5.445 -0.1320  0.9076  0.5880
  954MOL0     C25861   4.309   2.978   5.456 -0.1985 -0.6990  0.7380
  954MOL0     C25862   4.444   3.015   5.460  0.9922 -0.3018  0.4105
  954MOL0     H25863   4.808   3.035   5.770  0.1018  3.2243 -0.0632
  954MOL0     H25864   5.053   2.961   5.821  1.6536 -2.7531 -0.7446
  954MOL0     H25865   5.358   2.935   5.494  1.1245  0.5626  0.6223
  954MOL0     H25866   5.330   2.764   5.527  0.5210 -0.2489  0.2703
  954MOL0     H25867   5.465   2.826   5.750  1.2065 -1.8020  0.0811
  954MOL0     H25868   5.505   2.966   5.658 -1.1568  0.3594  3.0801
  954MOL0     H25869   5.623   2.838   5.489 -2.5208  1.1391  0.4313
  954MOL0     H25870   5.566   2.685   5.544 -2.1477  0.2186  0.0850
  954MOL0     H25871   5.708   2.890   5.729 -0.3621 -0.1874  0.6145
  954MOL0     H25872   5.692   2.726   5.764  0.9200 -3.1527 -1.2479
  954MOL0     H25873   5.857   2.835   5.545  0.1711 -1.6316 -1.8064
  954MOL0     H25874   5.841   2.667   5.568 -0.7375  0.5575  0.1408
  954MOL0     H25875   5.903   2.717   5.829 -0.5349  0.5853 -0.3273
  954MOL0     H25876   5.931   2.872   5.778 -1.1123 -0.2955 -0.1371
  954MOL0     H25877   6.127   2.746   5.808 -0.1706 -0.1099  0.2124
  954MOL0     H25878   6.090   2.615   5.696 -2.1340 -1.0285  1.8296
  954MOL0     H25879   6.122   2.918   5.613 -2.5294 -1.2813  1.1637
  954MOL0     H25880   6.077   2.811   5.498  0.6864 -1.3939 -1.1858
  954MOL0     H25881   6.336   2.923   5.390  4.8939 -0.3001 -0.8921
  954MOL0     H25882   6.555   2.837   5.274 -0.7776 -1.7692 -0.5448
  954MOL0     H25883   6.632   2.704   5.355  0.5529 -0.1461  1.1175
  954MOL0     H25884   6.714   2.873   5.538 -1.7568  0.5963  0.3041
  954MOL0     H25885   6.652   2.998   5.425 -2.5106 -1.5935  1.4480
  954MOL0     H25886   6.848   2.762   5.378  2.3513  0.1274  2.1344
  954MOL0     H25887   6.840   2.904   5.264  2.0870 -0.9205 -0.2750
  954MOL0     H25888   6.912   2.974   5.553 -0.8177 -1.7145 -0.1518
  954MOL0     H25889   6.938   3.068   5.403  3.9468 -1.1164 -2.6185
  954MOL0     H25890   7.107   3.174   5.397 -0.7237 -1.5047  0.4560
  954MOL0     H25891   7.304   3.287   5.460 -1.6675 -1.0744 -1.8733
  954MOL0     H25892   7.857   3.069   5.782 -3.2558  0.0286 -3.0176
  954MOL0     H25893   8.016   3.230   5.897 -0.2120 -0.7429  1.0894
  954MOL0     H25894   8.105   3.478   5.871 -1.8970  1.9414 -0.5611
  954MOL0     H25895   8.150   3.377   6.011  0.4649 -1.2729  0.9965
  954MOL0     H25896   8.070   3.671   6.017  2.9235  2.3884  2.1461
  954MOL0     H25897   8.233   3.614   5.975  2.0074  0.2439  1.4164
  954MOL0     H25898   8.075   3.591   6.234  0.0584 -2.5011  1.9806
  954MOL0     H25899   8.225   3.676   6.208 -1.1583  0.6003 -2.3776
  954MOL0     H25900   8.201   3.367   6.222  0.0679 -0.1657 -0.0500
  954MOL0     H25901   8.345   3.447   6.164  0.4034 -0.2949  0.2979
  954MOL0     H25902   8.219   3.506   6.438 -0.5475 -3.8292  1.4955
  954MOL0     H25903   8.384   3.557   6.377  1.2252  0.9181  1.9333
  954MOL0     H25904   8.460   3.321   6.373 -1.1313 -0.3717  0.4422
  954MOL0     H25905   8.302   3.267   6.402  1.5534 -1.0366 -0.3244
  954MOL0     H25906   8.445   3.436   6.605  0.3570 -1.4616  0.3088
  954MOL0     H25907   8.287   3.369   6.631  1.1910  4.7655  0.6432
  954MOL0     H25908   8.400   3.136   6.621  0.8054 -0.6729  1.6330
  954MOL0     H25909   8.440   3.247   6.763  0.0485  0.6158 -0.0680
  954MOL0     H25910   7.703   3.469   6.024 -1.4369 -0.7015 -0.9107
  954MOL0     H25911   7.539   3.345   5.873 -0.0702 -1.4557  0.9946
  954MOL0     H25912   7.492   2.940   5.595 -1.4333 -2.2205 -0.3261
  954MOL0     H25913   7.293   2.802   5.533 -0.7902  0.6475 -0.1401
  954MOL0     H25914   5.135   2.918   5.403 -0.5857 -0.0130 -1.0116
  954MOL0     H25915   4.922   3.000   5.355  0.4630 -0.8825  0.0828
  954MOL0     H25916   4.429   3.165   5.762 -0.7270 -1.4556  0.8042
  954MOL0     H25917   4.180   3.133   5.733 -1.6359 -2.0329 -1.3038
  954MOL0     H25918   4.068   2.802   5.430  0.3635 -0.4006  2.4558
  954MOL0     H25919   4.037   2.961   5.345 -3.0980  2.8891  1.8969
  954MOL0     H25920   3.847   2.807   5.364  0.7068 -0.6614 -0.0737
  954MOL0     H25921   3.874   2.808   5.539  1.1502  0.4427  0.3709
  954MOL0     H25922   3.813   3.070   5.365 -1.1609 -1.2684 -1.2857
  954MOL0     H25923   3.811   3.047   5.535  2.4703  0.1547 -1.5759
  954MOL0     H25924   3.632   2.923   5.312  0.6604  1.1549 -0.5655
  954MOL0     H25925   3.611   2.859   5.476 -0.9983 -1.2445 -2.0136
  954MOL0     H25926   3.393   3.218   5.460 -1.9004 -0.8845  0.9631
  954MOL0     H25927   4.288   2.918   5.368 -1.9520 -0.7062  1.1292
  954MOL0     H25928   4.506   2.963   5.388  0.4177 -0.8162  0.2763
  955MOL0     O25929   8.322   5.944   7.346 -0.0227  0.2360 -0.0753
  955MOL0     C25930   8.245   5.909   7.250 -0.9528 -0.0758  0.8539
  955MOL0     O25931   8.280   5.918   7.119  0.5711  0.1257 -0.3735
  955MOL0     C25932   8.400   5.952   7.071 -0.1158 -0.2521  0.4418
  955MOL0     C25933   8.399   5.962   6.930 -0.3511  0.2065 -0.6381
  955MOL0     C25934   8.517   5.982   6.865  0.5981 -0.4847  0.4596
  955MOL0     C25935   8.642   5.999   6.932 -0.3537 -0.3126 -0.8234
  955MOL0     O25936   8.760   6.032   6.869 -0.0968  0.5952  0.1852
  955MOL0     C25937   8.758   6.031   6.727  0.2242 -0.1587  0.4738
  955MOL0     C25938   8.897   6.075   6.675  0.2271 -0.1394 -0.0218
  955MOL0     C25939   8.962   5.963   6.604 -0.0706  0.5734  0.3190
  955MOL0     C25940   9.109   5.998   6.597 -0.9856  0.1225 -0.0656
  955MOL0     C25941   9.203   5.884   6.551  0.3217 -0.3777  0.1218
  955MOL0     C25942   9.353   5.930   6.555  0.5087 -0.0596  0.8885
  955MOL0     C25943   9.464   5.817   6.531  0.5717  0.2159 -0.1469
  955MOL0     C25944   9.605   5.876   6.551  0.3396  0.2548 -0.5378
  955MOL0     N25945   9.630   5.971   6.670 -0.0285 -0.1992  0.4617
  955MOL0     C25946   9.579   5.951   6.799  0.0869 -0.0233 -0.0951
  955MOL0     C25947   9.621   6.053   6.872 -0.2180 -0.3249 -0.7604
  955MOL0     C25948   9.582   6.088   7.017 -0.5431  0.3606 -0.3408
  955MOL0     C25949   9.447   6.036   7.055 -0.1024 -0.6952  0.3101
  955MOL0     C25950   9.337   6.118   6.992 -0.2770 -0.2258  0.7490
  955MOL0     C25951   9.199   6.068   7.034  0.2483 -0.0326  0.3010
  955MOL0     O25952   9.177   5.942   6.954  0.4695  0.3508 -0.7171
  955MOL0     C25953   9.084   5.844   6.999  0.5125  0.3339  0.3923
  955MOL0     C25954   8.979   5.882   7.088 -1.2386  0.4170 -0.6059
  955MOL0     C25955   8.896   5.779   7.142  0.2469 -0.3758  0.2455
  955MOL0     C25956   8.903   5.648   7.090 -0.2259  0.0084  0.8320
  955MOL0     C25957   8.796   5.549   7.112  0.1690 -0.7886 -0.0666
  955MOL0     O25958   8.694   5.592   7.200  0.2863  0.0280 -0.1128
  955MOL0     C25959   8.569   5.529   7.211  0.5521 -0.1238 -0.8842
  955MOL0     C25960   8.565   5.394   7.255 -0.2292 -0.7027  0.1777
  955MOL0     C25961   8.438   5.332   7.278 -0.1345 -0.9626 -1.0243
  955MOL0     C25962   8.318   5.403   7.245  0.5363  0.1675  0.3141
  955MOL0     O25963   8.203   5.329   7.255  0.2787 -0.0957  0.7957
  955MOL0     C25964   8.073   5.387   7.255  0.6330  0.2013  0.9135
  955MOL0     C25965   7.967   5.272   7.261 -0.4218 -0.1911 -0.4132
  955MOL0     C25966   7.910   5.248   7.396 -0.1690  0.2901  0.1767
  955MOL0     C25967   7.804   5.131   7.385 -0.6675  0.1143  0.6069
  955MOL0     C25968   7.666   5.180   7.345 -0.3280 -0.4694 -0.6530
  955MOL0     C25969   7.549   5.071   7.351 -0.7199  0.2119 -0.4110
  955MOL0     C25970   7.417   5.142   7.314  0.3203 -0.1385  0.2647
  955MOL0     C25971   7.331   5.032   7.243  0.3784 -0.4405  0.5023
  955MOL0    Cl25972   7.171   5.105   7.225  0.4039 -0.0704 -0.3060
  955MOL0     C25973   8.327   5.531   7.202 -0.7470 -0.5194 -0.3014
  955MOL0     C25974   8.456   5.598   7.196  1.1885 -0.5836 -0.2602
  955MOL0     O25975   8.807   5.438   7.061 -0.4158 -0.1561 -0.2437
  955MOL0     C25976   8.998   5.626   6.992 -0.1601  0.0936 -0.9313
  955MOL0     C25977   9.093   5.716   6.947 -0.0517  0.2123 -0.3416
  955MOL0     N25978   9.698   6.124   6.789 -0.0189  0.1208  0.5692
  955MOL0     N25979   9.705   6.082   6.673 -0.7400 -0.0147  0.5914
  955MOL0     C25980   8.642   6.001   7.077  0.0302  0.4167 -1.1550
  955MOL0     C25981   8.524   5.970   7.145 -0.4373 -0.2003 -0.0113
  955MOL0     C25982   8.113   5.854   7.276 -0.2069  0.4030  0.3531
  955MOL0     C25983   8.038   5.785   7.183 -0.6448 -0.5236 -0.8360
  955MOL0     C25984   7.905   5.749   7.209 -0.7228 -0.0489  0.0169
  955MOL0     C25985   7.842   5.776   7.330 -0.0772  0.4638  0.0974
  955MOL0     O25986   7.713   5.734   7.353 -0.5672  0.2872  0.3555
  955MOL0     C25987   7.699   5.595   7.389  0.1214 -0.3248  0.6322
  955MOL0     C25988   7.596   5.568   7.499 -0.1025  0.5725  0.6304
  955MOL0     C25989   7.450   5.583   7.441  1.1510  0.1672 -0.1302
  955MOL0     C25990   7.338   5.556   7.540 -0.2405 -0.9452  0.3070
  955MOL0     C25991   7.201   5.545   7.484 -0.1342  0.5539  0.0486
  955MOL0     C25992   7.088   5.539   7.440  0.1611 -0.1571 -0.1127
  955MOL0     C25993   7.915   5.846   7.423 -0.1965 -0.2468  0.0593
  955MOL0     C25994   8.050   5.878   7.403  0.6158  1.1145  0.1873
  955MOL0     H25995   8.315   5.962   6.862 -1.5273 -0.0209  0.7594
  955MOL0     H25996   8.507   5.977   6.757  1.0958 -1.6111  0.4508
  955MOL0     H25997   8.678   6.096   6.692 -0.2803  0.3656  2.5215
  955MOL0     H25998   8.728   5.934   6.686 -1.6312 -0.8137  3.1256
  955MOL0     H25999   8.956   6.102   6.764 -2.9249  0.7838  1.9683
  955MOL0     H26000   8.907   6.162   6.609 -0.7136  0.4672  0.5971
  955MOL0     H26001   8.919   5.936   6.507  2.4279  3.5070 -1.7924
  955MOL0     H26002   8.952   5.876   6.669  0.2022 -0.6418 -1.2300
  955MOL0     H26003   9.123   6.089   6.538  2.4036  0.0155  0.3735
  955MOL0     H26004   9.152   6.034   6.691  1.8208 -0.3054 -1.0665
  955MOL0     H26005   9.185   5.868   6.444  1.1259 -0.5200  0.0012
  955MOL0     H26006   9.172   5.795   6.606 -0.3257  0.8721  1.8577
  955MOL0     H26007   9.371   5.979   6.651 -1.4937  0.1686  1.1875
  955MOL0     H26008   9.369   6.010   6.483  0.7490  0.9766  2.0671
  955MOL0     H26009   9.438   5.736   6.600 -0.1574 -0.1894 -0.8928
  955MOL0     H26010   9.454   5.782   6.428 -1.0381  0.4508 -0.0927
  955MOL0     H26011   9.640   5.926   6.461  1.8063 -2.3234 -1.5164
  955MOL0     H26012   9.674   5.791   6.554 -3.2915 -2.9164  0.9090
  955MOL0     H26013   9.526   5.862   6.831 -1.2912  0.8354  0.0893
  955MOL0     H26014   9.588   6.197   7.011  0.0137  0.3251 -0.4970
  955MOL0     H26015   9.659   6.050   7.085 -1.3640 -0.7771 -0.0204
  955MOL0     H26016   9.434   6.048   7.163 -1.6865 -0.4794  0.1199
  955MOL0     H26017   9.441   5.929   7.033  1.9144 -0.9943  0.9838
  955MOL0     H26018   9.339   6.223   7.022 -0.3084 -0.1280  0.4211
  955MOL0     H26019   9.342   6.125   6.882  1.8410 -0.0103  0.8077
  955MOL0     H26020   9.127   6.141   6.997  1.1414  1.9252  2.2580
  955MOL0     H26021   9.198   6.051   7.142 -3.2062  2.7389  0.8853
  955MOL0     H26022   8.972   5.986   7.118 -1.4226  0.0976  0.5241
  955MOL0     H26023   8.821   5.798   7.218  0.3084  3.1721 -0.3965
  955MOL0     H26024   8.660   5.343   7.267  2.4132  3.5975 -0.0905
  955MOL0     H26025   8.428   5.231   7.317  0.2921  0.1692  2.2929
  955MOL0     H26026   8.056   5.439   7.161  0.3671  2.4291  2.1236
  955MOL0     H26027   8.040   5.448   7.340 -1.6027 -3.0712  2.6438
  955MOL0     H26028   8.009   5.179   7.223  2.2665  0.8940 -0.3290
  955MOL0     H26029   7.885   5.301   7.195 -0.9756 -0.2371  0.2439
  955MOL0     H26030   7.860   5.338   7.435  0.1626  0.2765  0.6423
  955MOL0     H26031   7.994   5.205   7.451  0.3672  0.4146 -0.5383
  955MOL0     H26032   7.837   5.061   7.307  0.2781  0.3424  0.7955
  955MOL0     H26033   7.813   5.079   7.480  1.9923 -5.4525 -2.1860
  955MOL0     H26034   7.672   5.203   7.238 -0.2834 -1.9595 -0.9843
  955MOL0     H26035   7.644   5.278   7.389  0.5936  0.5124 -2.2993
  955MOL0     H26036   7.550   5.030   7.452 -0.4045  1.0665 -0.0607
  955MOL0     H26037   7.582   4.991   7.284  0.0502  0.6960 -0.6271
  955MOL0     H26038   7.367   5.185   7.401 -0.1454 -0.7639  0.3106
  955MOL0     H26039   7.441   5.222   7.243 -0.1915  1.1898  1.5475
  955MOL0     H26040   7.332   4.940   7.302  1.4546  0.2796  1.6435
  955MOL0     H26041   7.367   5.015   7.141 -1.0445 -1.3662  0.1256
  955MOL0     H26042   8.234   5.580   7.175 -1.8309 -2.9548 -1.2946
  955MOL0     H26043   8.477   5.696   7.154  4.1174 -0.7517  0.5601
  955MOL0     H26044   8.996   5.524   6.953  0.3273 -0.3627  0.1865
  955MOL0     H26045   9.170   5.675   6.883 -0.4047  1.0703 -1.3489
  955MOL0     H26046   8.735   6.016   7.132 -1.0692  1.5863  0.4613
  955MOL0     H26047   8.546   5.976   7.251  1.3047 -2.4296 -0.1601
  955MOL0     H26048   8.084   5.753   7.089  1.1565 -1.1352  0.2087
  955MOL0     H26049   7.849   5.707   7.126 -0.6413  0.7899 -0.4718
  955MOL0     H26050   7.802   5.565   7.409  0.8511  2.5847  1.8272
  955MOL0     H26051   7.675   5.528   7.306 -0.5236 -1.3010  1.5732
  955MOL0     H26052   7.612   5.461   7.517  1.7876  0.6995 -0.0282
  955MOL0     H26053   7.615   5.617   7.595 -0.7488  0.0624  1.0270
  955MOL0     H26054   7.441   5.507   7.362 -0.4505  0.5693 -0.3756
  955MOL0     H26055   7.437   5.682   7.396 -0.3154  0.1945  0.3112
  955MOL0     H26056   7.349   5.456   7.582  1.2822 -0.0262  2.2352
  955MOL0     H26057   7.341   5.629   7.621  2.7105  0.9394 -1.3131
  955MOL0     H26058   6.989   5.529   7.401  0.2341 -0.0364 -0.3277
  955MOL0     H26059   7.873   5.863   7.521  0.0896  1.6852 -0.1301
  955MOL0     H26060   8.108   5.918   7.486  0.9518  2.4652 -0.6670
  956MOL0     O26061   8.564   8.445   4.721  0.1795  0.5885  0.1677
  956MOL0     C26062   8.625   8.390   4.625  0.4473 -0.2259 -0.1518
  956MOL0     O26063   8.561   8.338   4.514  0.1134  0.6217 -0.2051
  956MOL0     C26064   8.430   8.351   4.505 -0.7319 -0.1780  0.7914
  956MOL0     C26065   8.354   8.239   4.494  0.0535  0.4370  1.2265
  956MOL0     C26066   8.208   8.256   4.486 -0.5569  0.3746  0.1217
  956MOL0     C26067   8.153   8.384   4.484 -1.1254  0.1404 -0.7091
  956MOL0     O26068   8.024   8.393   4.460  0.0404 -0.6543  0.5757
  956MOL0     C26069   8.000   8.459   4.332 -0.5725  1.0788  0.1730
  956MOL0     C26070   7.850   8.469   4.289 -0.3601 -0.0644  0.0647
  956MOL0     C26071   7.778   8.336   4.295  0.1052 -0.2160 -0.2588
  956MOL0     C26072   7.650   8.349   4.215  0.2615 -0.5640 -0.5267
  956MOL0     C26073   7.582   8.477   4.237 -0.8505  0.5575 -0.4335
  956MOL0     C26074   7.445   8.467   4.170 -0.1841  0.6020  0.1037
  956MOL0     C26075   7.386   8.605   4.182  0.7102  0.1626  0.4600
  956MOL0     C26076   7.239   8.617   4.141  0.4557  0.7999  1.0596
  956MOL0     N26077   7.158   8.524   4.224 -0.7478 -0.8056 -0.5094
  956MOL0     C26078   7.105   8.556   4.344  0.2126 -0.5437 -0.0685
  956MOL0     C26079   7.033   8.456   4.383  0.2786 -0.0851  0.7097
  956MOL0     C26080   6.944   8.452   4.510 -0.6322 -0.8955 -0.6418
  956MOL0     C26081   6.833   8.348   4.497  0.5807 -0.3710  0.2191
  956MOL0     C26082   6.743   8.388   4.370  0.1499  0.5271 -0.5491
  956MOL0     C26083   6.680   8.520   4.383  0.9269 -0.4728  0.5721
  956MOL0     O26084   6.590   8.514   4.502 -0.7622  0.0754  0.0792
  956MOL0     C26085   6.450   8.516   4.483  0.4288  0.5645 -0.5914
  956MOL0     C26086   6.384   8.447   4.375 -0.3607 -0.6576  0.4366
  956MOL0     C26087   6.238   8.440   4.379 -0.5009 -0.2467  0.8552
  956MOL0     C26088   6.163   8.505   4.477 -0.3147  0.2625 -0.3617
  956MOL0     C26089   6.015   8.497   4.473  0.5902  1.1292  0.1960
  956MOL0     O26090   5.949   8.580   4.561 -0.1639 -0.6166 -0.1660
  956MOL0     C26091   5.824   8.557   4.606 -0.2411  0.7958 -0.0271
  956MOL0     C26092   5.775   8.673   4.662 -0.4416 -0.4601 -0.9206
  956MOL0     C26093   5.638   8.682   4.711 -0.4347  0.3127  0.2006
  956MOL0     C26094   5.547   8.572   4.684 -0.4606 -0.4762  0.2273
  956MOL0     O26095   5.413   8.584   4.723 -0.4208  0.2397  0.2743
  956MOL0     C26096   5.326   8.478   4.694 -1.0361  1.2511  0.7265
  956MOL0     C26097   5.186   8.505   4.734 -0.7690  0.0532  0.1104
  956MOL0     C26098   5.145   8.482   4.878 -0.1833  0.6158  0.0212
  956MOL0     C26099   5.003   8.539   4.906  0.9577  0.6352 -0.0250
  956MOL0     C26100   4.957   8.514   5.057  0.0119  0.5786 -0.6182
  956MOL0     C26101   5.060   8.570   5.163 -0.6476 -0.0451 -0.7430
  956MOL0     C26102   4.988   8.602   5.303 -0.0164 -0.4782 -0.2597
  956MOL0     C26103   4.980   8.475   5.383 -0.2848 -0.5007  0.5989
  956MOL0    Cl26104   4.827   8.390   5.343  0.0011  0.2355 -0.1748
  956MOL0     C26105   5.608   8.449   4.627  0.6408  0.0061 -0.2393
  956MOL0     C26106   5.739   8.439   4.588 -0.5910 -0.3238 -0.8766
  956MOL0     O26107   5.958   8.434   4.381 -0.1456  0.3076 -0.4530
  956MOL0     C26108   6.227   8.577   4.576  0.9347  0.5053 -1.0035
  956MOL0     C26109   6.371   8.579   4.574  0.2769  0.2711 -0.7078
  956MOL0     N26110   7.046   8.356   4.292  0.3625 -0.3126 -0.3738
  956MOL0     N26111   7.121   8.396   4.195  0.2105  0.3945  0.1326
  956MOL0     C26112   8.235   8.493   4.505  0.0060 -1.2903 -0.3256
  956MOL0     C26113   8.372   8.481   4.506 -1.6616  0.2547  0.5235
  956MOL0     C26114   8.767   8.367   4.641  0.4362 -0.0722  0.4595
  956MOL0     C26115   8.836   8.437   4.734  0.0996 -0.5248 -0.1159
  956MOL0     C26116   8.969   8.398   4.752 -0.0122 -0.3874 -0.5298
  956MOL0     C26117   9.036   8.294   4.673 -0.1409 -0.1445  0.3853
  956MOL0     O26118   9.163   8.263   4.713  0.4673  0.7451  0.0106
  956MOL0     C26119   9.246   8.159   4.642  0.1684 -0.2381 -0.3480
  956MOL0     C26120   9.215   8.026   4.714 -0.2995 -0.9954 -0.5609
  956MOL0     C26121   9.288   7.902   4.665  0.1206  0.0066  0.1740
  956MOL0     C26122   9.265   7.871   4.515  0.9599 -0.4073 -0.6185
  956MOL0     C26123   9.123   7.856   4.465  0.2312 -0.4086 -1.0357
  956MOL0     C26124   9.004   7.831   4.448  0.2256 -0.1310  0.4597
  956MOL0     C26125   8.964   8.240   4.561 -0.0378  0.4166 -0.1027
  956MOL0     C26126   8.830   8.285   4.546 -0.0067  0.0045 -0.3060
  956MOL0     H26127   8.396   8.142   4.469  0.1933  1.2555 -2.1677
  956MOL0     H26128   8.136   8.175   4.474 -1.1900  1.0337 -0.6106
  956MOL0     H26129   8.041   8.398   4.251 -0.7919  1.1335  0.0193
  956MOL0     H26130   8.055   8.553   4.319 -1.2360  1.2196 -1.9963
  956MOL0     H26131   7.847   8.511   4.188 -3.5060  0.9531  0.4725
  956MOL0     H26132   7.800   8.533   4.362 -2.7977  1.2212 -2.5314
  956MOL0     H26133   7.757   8.310   4.399 -0.6695 -1.2084 -0.6522
  956MOL0     H26134   7.844   8.259   4.256  0.2986 -0.1007 -0.1598
  956MOL0     H26135   7.685   8.361   4.112 -1.8540  1.0790 -1.1230
  956MOL0     H26136   7.589   8.258   4.216 -1.2158  0.2894  3.5923
  956MOL0     H26137   7.635   8.554   4.180 -0.1975 -0.4336 -1.1900
  956MOL0     H26138   7.586   8.494   4.345  3.0797 -2.0625  0.0852
  956MOL0     H26139   7.391   8.390   4.226  1.7291 -1.1011 -0.2843
  956MOL0     H26140   7.449   8.448   4.062 -1.4707  3.0152 -0.4295
  956MOL0     H26141   7.395   8.627   4.289  0.3398  2.4378  0.0735
  956MOL0     H26142   7.451   8.671   4.125 -0.0841 -0.0907 -0.7683
  956MOL0     H26143   7.232   8.610   4.032  4.0110  0.9798  0.7073
  956MOL0     H26144   7.205   8.719   4.157  1.4393  1.5294 -1.0949
  956MOL0     H26145   7.114   8.646   4.405  0.8380  0.0265 -0.9819
  956MOL0     H26146   6.904   8.551   4.531  0.4251 -0.6670  0.3678
  956MOL0     H26147   7.010   8.423   4.592  2.0830  2.4210 -1.4394
  956MOL0     H26148   6.766   8.356   4.583  0.6190  0.3786  0.1907
  956MOL0     H26149   6.875   8.251   4.472 -1.2058 -0.5946 -2.4802
  956MOL0     H26150   6.801   8.377   4.277 -0.4119  1.0248 -0.9661
  956MOL0     H26151   6.665   8.311   4.361 -0.4001  0.1712  4.5279
  956MOL0     H26152   6.641   8.550   4.286  0.3752  0.2660  1.0135
  956MOL0     H26153   6.750   8.603   4.400 -0.7808  0.7442  2.1055
  956MOL0     H26154   6.436   8.396   4.295 -3.0917 -1.2557 -1.0562
  956MOL0     H26155   6.193   8.387   4.296  0.1467 -5.7229  3.5480
  956MOL0     H26156   5.839   8.756   4.689 -1.3587 -0.2089  0.5992
  956MOL0     H26157   5.613   8.776   4.759  2.4164  1.5282 -0.4829
  956MOL0     H26158   5.364   8.390   4.746 -0.8579  1.9154  1.7616
  956MOL0     H26159   5.331   8.453   4.588 -2.2833 -0.0992  0.9506
  956MOL0     H26160   5.137   8.435   4.666 -0.7715  0.7280 -0.6038
  956MOL0     H26161   5.158   8.606   4.703 -0.5750 -0.0044 -0.2626
  956MOL0     H26162   5.222   8.525   4.942  1.4444  1.0125 -2.1051
  956MOL0     H26163   5.139   8.375   4.899 -2.3338  0.8219  0.7599
  956MOL0     H26164   5.002   8.646   4.883 -0.8970  0.7905  0.5941
  956MOL0     H26165   4.931   8.495   4.836  1.0992  1.7756 -0.9216
  956MOL0     H26166   4.947   8.407   5.074  0.0784  1.0749  3.2283
  956MOL0     H26167   4.857   8.556   5.068  0.3848  1.9628 -2.0825
  956MOL0     H26168   5.094   8.663   5.116  1.4804 -1.3537 -1.9803
  956MOL0     H26169   5.144   8.500   5.165  0.2266  0.9676 -0.9895
  956MOL0     H26170   5.048   8.677   5.355  2.7576  0.1258 -3.9165
  956MOL0     H26171   4.890   8.651   5.303  0.3544  0.3107 -1.5203
  956MOL0     H26172   4.987   8.487   5.491 -0.2247 -1.0630  0.6655
  956MOL0     H26173   5.059   8.401   5.360 -2.5076 -1.5741 -5.5546
  956MOL0     H26174   5.548   8.358   4.626  0.7638 -0.0984  1.0779
  956MOL0     H26175   5.781   8.340   4.570 -0.2823  0.0740 -2.5003
  956MOL0     H26176   6.170   8.636   4.647  1.3190 -1.3431  0.9314
  956MOL0     H26177   6.412   8.645   4.650  1.4931 -0.5807 -0.6048
  956MOL0     H26178   8.196   8.594   4.504 -1.4072 -1.7900  0.7579
  956MOL0     H26179   8.437   8.567   4.521  1.0793 -1.2522 -1.6737
  956MOL0     H26180   8.795   8.512   4.801 -0.8420 -1.7654  0.7479
  956MOL0     H26181   9.017   8.438   4.840 -1.8775 -2.9467  1.8695
  956MOL0     H26182   9.351   8.181   4.663  0.3177  0.7769 -1.9755
  956MOL0     H26183   9.223   8.157   4.535 -1.8097  0.3382  0.0284
  956MOL0     H26184   9.231   8.034   4.822 -0.0806 -1.9463 -0.5125
  956MOL0     H26185   9.108   8.004   4.703 -0.0980 -1.0126 -2.9256
  956MOL0     H26186   9.259   7.812   4.721  0.1252  1.3063  2.3746
  956MOL0     H26187   9.392   7.929   4.686 -0.0460  0.1908  0.7897
  956MOL0     H26188   9.324   7.946   4.463  3.5086 -0.2870  2.1222
  956MOL0     H26189   9.324   7.780   4.500 -2.2195 -2.8971  0.6673
  956MOL0     H26190   8.905   7.795   4.426  1.1098  0.3422 -6.7173
  956MOL0     H26191   9.019   8.170   4.499  0.9768 -0.7022  1.9676
  956MOL0     H26192   8.766   8.262   4.461  0.7538 -1.7667 -0.4510
  957MOL0     O26193   3.963   3.100   7.864 -0.2697  0.0307 -0.3453
  957MOL0     C26194   4.013   3.188   7.935  0.4651  0.7731 -1.2256
  957MOL0     O26195   3.961   3.308   7.980 -0.1013  0.4659  0.0112
  957MOL0     C26196   3.837   3.353   7.949 -0.4951 -0.7544 -0.1416
  957MOL0     C26197   3.800   3.463   8.017  0.8550 -0.7028 -0.7649
  957MOL0     C26198   3.681   3.530   7.996  0.5830  0.0869 -1.1036
  957MOL0     C26199   3.588   3.481   7.899 -0.6057  0.0824  0.1339
  957MOL0     O26200   3.475   3.554   7.900 -0.0141 -0.2718 -0.1758
  957MOL0     C26201   3.352   3.512   7.829  0.0362  0.4300  0.6174
  957MOL0     C26202   3.253   3.624   7.806 -0.5459 -0.3626  0.4492
  957MOL0     C26203   3.119   3.568   7.766 -0.4967  0.6418  0.3426
  957MOL0     C26204   3.033   3.669   7.690  0.7678  0.5913 -0.5469
  957MOL0     C26205   2.881   3.617   7.679 -0.2918  0.0278  0.4445
  957MOL0     C26206   2.796   3.707   7.600 -0.8154 -0.0720  0.1598
  957MOL0     C26207   2.655   3.648   7.584  0.5758 -0.2912 -0.2787
  957MOL0     C26208   2.638   3.578   7.446 -0.4974  0.5515  0.2159
  957MOL0     N26209   2.504   3.548   7.416  0.5563  0.5514 -0.2815
  957MOL0     C26210   2.390   3.624   7.424 -0.4979  0.1995 -0.4059
  957MOL0     C26211   2.300   3.553   7.351  0.3080 -0.0054 -0.6817
  957MOL0     C26212   2.153   3.583   7.347  0.6344  0.1714 -0.6750
  957MOL0     C26213   2.090   3.584   7.203  0.2073  0.2914  0.1065
  957MOL0     C26214   1.940   3.610   7.211 -0.6596 -0.3501  0.6572
  957MOL0     C26215   1.873   3.592   7.071  1.1830 -0.3570 -0.0154
  957MOL0     O26216   1.739   3.574   7.103  0.1490  0.3982 -0.4886
  957MOL0     C26217   1.640   3.555   7.003 -0.1134 -0.7696  0.6909
  957MOL0     C26218   1.510   3.518   7.038  0.1830 -0.6703 -0.0865
  957MOL0     C26219   1.414   3.490   6.948  0.6819 -0.1785 -0.3585
  957MOL0     C26220   1.447   3.499   6.809  0.6902  0.4152 -0.7205
  957MOL0     C26221   1.352   3.441   6.705 -0.0758  1.0156 -0.7397
  957MOL0     O26222   1.403   3.433   6.581 -0.2013  0.1368  1.1847
  957MOL0     C26223   1.313   3.388   6.477 -0.3828 -0.0964  0.7378
  957MOL0     C26224   1.360   3.304   6.372 -0.2406  0.1203 -0.4276
  957MOL0     C26225   1.278   3.275   6.265 -0.1391  0.0650  1.6050
  957MOL0     C26226   1.153   3.338   6.246  1.3589  0.8053 -0.5989
  957MOL0     O26227   1.065   3.293   6.142 -0.3644  0.8969 -0.0383
  957MOL0     C26228   0.929   3.308   6.141 -1.0762  0.1295  0.5988
  957MOL0     C26229   0.889   3.213   6.023 -0.4572  0.2145 -0.1446
  957MOL0     C26230   0.745   3.232   5.989 -1.0111 -0.3609  0.0246
  957MOL0     C26231   0.639   3.202   6.101  0.6417 -0.5324 -0.0914
  957MOL0     C26232   0.506   3.223   6.023  0.0790  0.7672 -0.1783
  957MOL0     C26233   0.402   3.136   6.097  0.5323 -0.7246  0.7294
  957MOL0     C26234   0.258   3.159   6.042 -0.1594 -0.3524 -0.2077
  957MOL0     C26235   0.154   3.072   6.113  0.2762 -1.2723 -0.0876
  957MOL0    Cl26236  -0.002   3.127   6.039  0.2009  0.5688 -0.3154
  957MOL0     C26237   1.106   3.418   6.351 -0.0841 -0.1156 -0.2692
  957MOL0     C26238   1.185   3.444   6.463 -0.0618 -0.3680 -0.1704
  957MOL0     O26239   1.250   3.386   6.754 -0.5306 -0.3312  1.2642
  957MOL0     C26240   1.572   3.548   6.772 -0.2643 -0.0760 -0.9790
  957MOL0     C26241   1.667   3.570   6.875 -0.6731 -0.3843  0.7694
  957MOL0     N26242   2.354   3.435   7.306  0.2806 -0.5706 -0.1720
  957MOL0     N26243   2.476   3.429   7.344  0.3333  0.6143 -0.3417
  957MOL0     C26244   3.622   3.365   7.826  0.4329 -0.6927 -0.0204
  957MOL0     C26245   3.740   3.300   7.860 -0.3242  0.9488 -0.2004
  957MOL0     C26246   4.155   3.169   7.968 -0.5397  0.1669 -0.1063
  957MOL0     C26247   4.234   3.283   8.007  0.9052  0.9203 -0.0302
  957MOL0     C26248   4.356   3.268   8.075  0.1450 -0.4588  0.2836
  957MOL0     C26249   4.416   3.145   8.089 -0.3994 -0.2124  0.0007
  957MOL0     O26250   4.535   3.119   8.151  0.5105 -0.5610  0.2193
  957MOL0     C26251   4.608   3.233   8.198  0.0525  0.9485  0.0406
  957MOL0     C26252   4.735   3.184   8.261 -0.4246  0.0717 -0.3805
  957MOL0     C26253   4.857   3.274   8.268 -0.0650  0.4205  0.2493
  957MOL0     C26254   4.828   3.369   8.383 -0.1873 -0.6087 -0.1489
  957MOL0     C26255   4.725   3.467   8.353  0.3673  0.4780  0.2627
  957MOL0     C26256   4.634   3.546   8.333  0.3251  0.8674  0.4886
  957MOL0     C26257   4.348   3.028   8.049 -0.1619  0.0248  0.3131
  957MOL0     C26258   4.217   3.038   7.986  0.1523  0.3927  0.1811
  957MOL0     H26259   3.863   3.493   8.100 -1.0771  0.6749  0.2871
  957MOL0     H26260   3.642   3.603   8.066  2.3095  0.3770 -0.3880
  957MOL0     H26261   3.298   3.433   7.881  0.2078 -1.2010 -1.5177
  957MOL0     H26262   3.385   3.463   7.737  0.8185  1.3126  0.4113
  957MOL0     H26263   3.289   3.684   7.722 -1.9276  0.8684  0.6807
  957MOL0     H26264   3.247   3.693   7.892 -3.4244 -0.4881  0.4652
  957MOL0     H26265   3.065   3.534   7.855 -0.1303  2.8738  1.4986
  957MOL0     H26266   3.136   3.484   7.698 -2.1795  1.2474 -0.8573
  957MOL0     H26267   3.039   3.771   7.729 -2.5483  0.5019  0.5109
  957MOL0     H26268   3.062   3.678   7.585 -1.3546  1.0497 -1.1522
  957MOL0     H26269   2.845   3.603   7.782 -1.4039  5.1097  1.0477
  957MOL0     H26270   2.883   3.522   7.625  0.1015  0.2687  0.0268
  957MOL0     H26271   2.850   3.729   7.507  1.5756 -2.1906  0.9450
  957MOL0     H26272   2.778   3.802   7.651 -0.8854  0.9173 -1.6140
  957MOL0     H26273   2.627   3.590   7.673  1.1662  0.8670  0.6866
  957MOL0     H26274   2.595   3.740   7.576  2.4909  1.1172  0.7161
  957MOL0     H26275   2.701   3.490   7.459 -2.0608 -0.4369  1.5458
  957MOL0     H26276   2.685   3.638   7.368  1.2023 -2.2465 -1.0620
  957MOL0     H26277   2.368   3.713   7.482  0.7290 -0.3746  0.9822
  957MOL0     H26278   2.138   3.677   7.402 -2.1174 -1.2587  1.3010
  957MOL0     H26279   2.099   3.504   7.400 -1.1732  1.6844 -0.1461
  957MOL0     H26280   2.120   3.502   7.138  0.6222  0.1411  0.4824
  957MOL0     H26281   2.135   3.676   7.165  0.6997 -0.0955 -0.2648
  957MOL0     H26282   1.894   3.543   7.284  0.3801 -0.7376  0.9813
  957MOL0     H26283   1.929   3.715   7.239  2.7703  1.4640 -3.5770
  957MOL0     H26284   1.922   3.507   7.021 -0.1564 -0.8398 -0.5497
  957MOL0     H26285   1.901   3.681   7.014  3.5751  0.6207  2.4914
  957MOL0     H26286   1.503   3.493   7.143 -0.5197  1.2560  0.3775
  957MOL0     H26287   1.321   3.449   6.984  2.2584 -3.8039  0.0882
  957MOL0     H26288   1.463   3.268   6.372  0.5756  2.3115 -0.8084
  957MOL0     H26289   1.312   3.217   6.180  1.1221  3.5371 -0.4680
  957MOL0     H26290   0.905   3.411   6.113  1.1953  0.7793  0.8035
  957MOL0     H26291   0.882   3.278   6.235 -0.2899 -0.1068  0.9314
  957MOL0     H26292   0.907   3.111   6.057  2.2013  0.9972  1.0545
  957MOL0     H26293   0.957   3.243   5.943  1.4400  2.9571  2.2647
  957MOL0     H26294   0.731   3.175   5.897 -1.2225  2.2234 -1.6504
  957MOL0     H26295   0.725   3.336   5.961 -1.1670  0.1792  2.0177
  957MOL0     H26296   0.646   3.103   6.148  0.8417 -1.5967 -2.2219
  957MOL0     H26297   0.637   3.274   6.183  0.9849 -0.6040 -0.0201
  957MOL0     H26298   0.507   3.192   5.918 -1.4507 -2.0095  0.5179
  957MOL0     H26299   0.464   3.324   6.034 -1.2128  0.2249  0.0701
  957MOL0     H26300   0.410   3.160   6.203  0.5272  2.3804  0.1180
  957MOL0     H26301   0.429   3.030   6.086  1.7536 -0.2006 -2.3589
  957MOL0     H26302   0.236   3.265   6.062 -0.4847  0.3809 -3.7628
  957MOL0     H26303   0.258   3.137   5.935  2.6902 -3.2579  0.2313
  957MOL0     H26304   0.149   3.093   6.221  1.2576  0.5330 -0.3527
  957MOL0     H26305   0.181   2.967   6.104 -0.8983 -1.5141 -0.9902
  957MOL0     H26306   1.006   3.460   6.347  1.1235  3.0748  0.3195
  957MOL0     H26307   1.149   3.497   6.550  1.5556  1.2653 -0.4314
  957MOL0     H26308   1.612   3.555   6.671 -0.5019 -0.5018 -1.1029
  957MOL0     H26309   1.761   3.599   6.828 -2.3816  0.5456 -2.3280
  957MOL0     H26310   3.556   3.322   7.751  0.2550  3.2400 -2.3741
  957MOL0     H26311   3.761   3.213   7.799 -1.3878  0.0594  0.6555
  957MOL0     H26312   4.192   3.383   7.999 -1.3397 -0.1324 -3.8375
  957MOL0     H26313   4.407   3.358   8.107  0.1123 -0.6264  0.8226
  957MOL0     H26314   4.542   3.282   8.271 -3.8819  1.2044 -3.3146
  957MOL0     H26315   4.637   3.302   8.118  2.0161 -0.7989 -0.8256
  957MOL0     H26316   4.710   3.146   8.360 -0.5677 -1.4232 -0.9650
  957MOL0     H26317   4.755   3.091   8.207 -0.3260  0.0274 -0.2664
  957MOL0     H26318   4.868   3.314   8.167  0.9273 -1.5107 -0.4695
  957MOL0     H26319   4.953   3.223   8.279 -0.6167 -0.6304  0.3837
  957MOL0     H26320   4.806   3.308   8.471 -0.6272 -0.2911 -0.0330
  957MOL0     H26321   4.930   3.406   8.393 -0.2646 -0.5582  0.4800
  957MOL0     H26322   4.566   3.627   8.318 -0.8565 -0.6410 -4.0639
  957MOL0     H26323   4.397   2.933   8.070 -2.2571 -1.1924 -0.0328
  957MOL0     H26324   4.176   2.938   7.976  1.9189 -0.1373 -3.7549
  958MOL0     O26325   5.762   3.210   3.287  0.3748 -0.1357 -0.3477
  958MOL0     C26326   5.733   3.276   3.390  0.1690  0.4665  0.0670
  958MOL0     O26327   5.828   3.336   3.469  0.0232  0.6906  0.2716
  958MOL0     C26328   5.959   3.313   3.422 -0.2672  0.0045 -0.6571
  958MOL0     C26329   6.045   3.224   3.485 -0.5409 -0.2238 -0.4981
  958MOL0     C26330   6.173   3.205   3.428  0.5911 -1.1871  0.8020
  958MOL0     C26331   6.212   3.290   3.326  0.5151  0.0493  0.0162
  958MOL0     O26332   6.336   3.251   3.290 -0.3131  0.3324  0.0929
  958MOL0     C26333   6.379   3.305   3.166  0.3880 -0.6502  0.2589
  958MOL0     C26334   6.527   3.264   3.160 -0.1930  0.2373 -0.6903
  958MOL0     C26335   6.603   3.366   3.255  0.5475  0.0112 -0.0943
  958MOL0     C26336   6.741   3.311   3.294  0.3224 -0.1217 -0.0041
  958MOL0     C26337   6.848   3.414   3.340  0.8858 -0.1885 -0.2574
  958MOL0     C26338   6.982   3.340   3.362  0.0812  0.2242  0.2674
  958MOL0     C26339   7.105   3.424   3.404  0.1755 -1.4658 -0.1166
  958MOL0     C26340   7.232   3.350   3.403 -0.3425  0.1296  0.2149
  958MOL0     N26341   7.227   3.236   3.498 -0.6340 -0.7700  0.0538
  958MOL0     C26342   7.185   3.241   3.635 -0.8364  0.1958  0.5207
  958MOL0     C26343   7.170   3.110   3.675  0.1654 -0.1717  0.0975
  958MOL0     C26344   7.144   3.070   3.809 -0.3669 -0.7616  0.2619
  958MOL0     C26345   6.987   3.091   3.849  0.6476 -0.0785 -0.3588
  958MOL0     C26346   6.962   3.230   3.914 -0.1624 -0.1675 -1.0224
  958MOL0     C26347   6.822   3.230   3.962 -0.1425  0.3317  0.0275
  958MOL0     O26348   6.737   3.213   3.846 -0.2870 -0.5256 -0.1581
  958MOL0     C26349   6.631   3.298   3.826  0.1423 -1.0615 -0.4308
  958MOL0     C26350   6.577   3.276   3.699  0.5345  0.3542  0.1613
  958MOL0     C26351   6.463   3.344   3.657 -0.0714  0.3322 -0.3554
  958MOL0     C26352   6.409   3.444   3.736 -0.3611 -0.0936  0.7646
  958MOL0     C26353   6.305   3.530   3.682 -0.6335  0.0725 -0.6180
  958MOL0     O26354   6.227   3.600   3.770 -0.1798 -0.5667  0.2182
  958MOL0     C26355   6.107   3.659   3.731 -0.5888  0.1508 -0.1590
  958MOL0     C26356   6.029   3.607   3.632 -0.4784  0.3860 -0.5353
  958MOL0     C26357   5.889   3.663   3.606  0.3672  0.6018 -0.3268
  958MOL0     C26358   5.843   3.770   3.681 -0.2590 -0.2897 -0.5822
  958MOL0     O26359   5.724   3.831   3.667  0.4664 -0.2591 -0.0811
  958MOL0     C26360   5.724   3.977   3.647  0.0859  0.4024  0.2849
  958MOL0     C26361   5.705   4.010   3.496 -0.9526  0.0526 -0.1652
  958MOL0     C26362   5.573   3.942   3.445  0.1014  0.3933 -0.1162
  958MOL0     C26363   5.545   4.008   3.317  0.0944 -0.9818 -0.2636
  958MOL0     C26364   5.429   3.960   3.241 -0.3728  0.4388 -0.4508
  958MOL0     C26365   5.297   3.959   3.318  0.2100 -0.3639  0.4383
  958MOL0     C26366   5.179   3.944   3.216 -1.1835 -0.9264  0.3809
  958MOL0     C26367   5.047   3.919   3.280 -0.0825  0.0330 -0.2593
  958MOL0    Cl26368   5.066   3.819   3.436 -0.3615 -0.1924  0.2136
  958MOL0     C26369   5.929   3.816   3.784 -0.6539  0.1032  0.1767
  958MOL0     C26370   6.055   3.756   3.815 -0.5313 -0.2340 -0.2800
  958MOL0     O26371   6.303   3.548   3.560 -0.5513  0.0826  0.0890
  958MOL0     C26372   6.460   3.470   3.867 -0.1344 -0.3739  0.0362
  958MOL0     C26373   6.571   3.398   3.906  0.0425 -0.3867 -0.0589
  958MOL0     N26374   7.214   3.028   3.566  0.6319 -0.0675 -0.4169
  958MOL0     N26375   7.226   3.105   3.464 -0.2477  0.0867 -0.3980
  958MOL0     C26376   6.130   3.388   3.261 -0.3556  0.1714  0.0056
  958MOL0     C26377   6.003   3.397   3.316 -0.3800 -0.0630  0.5754
  958MOL0     C26378   5.589   3.315   3.418 -0.5538 -0.1890 -0.4176
  958MOL0     C26379   5.552   3.408   3.522  0.1129 -0.2909  0.8073
  958MOL0     C26380   5.413   3.437   3.547 -0.0602 -0.6986 -0.2261
  958MOL0     C26381   5.313   3.382   3.464  0.2245 -0.4804 -0.4308
  958MOL0     O26382   5.185   3.413   3.497 -0.4066 -0.2033 -0.7805
  958MOL0     C26383   5.073   3.368   3.423  0.0891 -0.1733  0.6145
  958MOL0     C26384   4.958   3.452   3.471  0.1952  0.3555  0.2999
  958MOL0     C26385   4.818   3.404   3.424 -0.6730  1.3386 -0.8241
  958MOL0     C26386   4.765   3.464   3.293  0.0941  0.1151 -0.0221
  958MOL0     C26387   4.635   3.409   3.245 -0.6812  0.2234  0.8524
  958MOL0     C26388   4.530   3.357   3.209  0.1757 -0.5154  0.0994
  958MOL0     C26389   5.348   3.300   3.355 -0.6045 -0.6166 -0.1906
  958MOL0     C26390   5.485   3.267   3.339 -0.0343 -0.2863  0.4901
  958MOL0     H26391   6.013   3.150   3.558 -5.6527  1.8065 -0.3042
  958MOL0     H26392   6.241   3.123   3.448  1.5670 -0.4741  0.4370
  958MOL0     H26393   6.370   3.414   3.162  0.5330 -0.6708 -1.1185
  958MOL0     H26394   6.319   3.265   3.084  1.3342 -2.6107  0.4631
  958MOL0     H26395   6.557   3.274   3.056  0.4508 -3.7642 -1.0652
  958MOL0     H26396   6.541   3.158   3.184 -0.8152  0.6493  1.7592
  958MOL0     H26397   6.542   3.393   3.342  1.6293 -0.4885  0.8494
  958MOL0     H26398   6.615   3.461   3.204 -1.3045  0.9126  1.0666
  958MOL0     H26399   6.728   3.221   3.356  0.1093 -1.1340 -1.4828
  958MOL0     H26400   6.787   3.278   3.201 -0.3986 -1.9102  0.2269
  958MOL0     H26401   6.831   3.466   3.435 -1.7067 -0.0378 -0.7284
  958MOL0     H26402   6.880   3.488   3.267  1.1803  0.9333  0.9611
  958MOL0     H26403   6.997   3.306   3.259  1.8388 -0.4811  0.7210
  958MOL0     H26404   6.973   3.250   3.423  2.4442 -0.6037 -0.5088
  958MOL0     H26405   7.121   3.506   3.335  0.9392 -1.3440  0.1962
  958MOL0     H26406   7.089   3.463   3.505  2.8048  3.2105 -1.2209
  958MOL0     H26407   7.320   3.410   3.429 -0.8565  0.4348  1.3516
  958MOL0     H26408   7.252   3.304   3.306  0.7674  3.2675 -1.1846
  958MOL0     H26409   7.172   3.335   3.689  1.2579  2.0580 -1.9635
  958MOL0     H26410   7.217   3.120   3.872 -0.7258 -0.7067  0.6376
  958MOL0     H26411   7.157   2.963   3.822  2.2010 -0.9263 -2.5321
  958MOL0     H26412   6.961   3.018   3.927 -1.1667  2.6374  1.7941
  958MOL0     H26413   6.929   3.078   3.758  1.3742  1.2231 -1.0398
  958MOL0     H26414   7.034   3.242   3.996 -0.1811 -0.3065 -0.9856
  958MOL0     H26415   6.977   3.311   3.843 -1.8324 -1.3126 -2.7617
  958MOL0     H26416   6.799   3.330   4.003 -2.1750  0.2620 -0.8558
  958MOL0     H26417   6.814   3.153   4.040  0.5139  0.2916  0.0633
  958MOL0     H26418   6.624   3.201   3.636 -0.3899 -0.2138  0.1234
  958MOL0     H26419   6.433   3.333   3.553  1.5017  1.8076 -1.0116
  958MOL0     H26420   6.066   3.531   3.564  1.7149  0.5940  0.3446
  958MOL0     H26421   5.831   3.623   3.523  0.3170  2.0052 -1.0019
  958MOL0     H26422   5.823   4.017   3.670  0.3395 -1.4126  2.6997
  958MOL0     H26423   5.650   4.024   3.711  0.2107 -0.1315  0.8355
  958MOL0     H26424   5.792   3.977   3.439 -2.4107  1.1349 -3.2436
  958MOL0     H26425   5.711   4.116   3.471  0.8976 -0.0933 -0.4800
  958MOL0     H26426   5.489   3.948   3.515  2.1765  0.8978  2.5204
  958MOL0     H26427   5.593   3.836   3.429 -0.3892  0.2270  0.3447
  958MOL0     H26428   5.524   4.112   3.341 -2.5023 -2.0892  3.1684
  958MOL0     H26429   5.638   4.004   3.259 -1.4955  1.1316 -3.2172
  958MOL0     H26430   5.450   3.856   3.216 -3.9916 -1.5199  3.3822
  958MOL0     H26431   5.424   4.012   3.145 -2.0440  1.4883  0.1719
  958MOL0     H26432   5.291   4.056   3.368 -0.4661 -0.2322  0.1174
  958MOL0     H26433   5.306   3.880   3.392  2.6722 -0.0077  0.5764
  958MOL0     H26434   5.170   4.035   3.156 -1.4667 -0.8813  0.4959
  958MOL0     H26435   5.227   3.867   3.154  2.3274  3.0737 -2.4314
  958MOL0     H26436   4.978   3.861   3.218 -0.6949  0.9250 -0.4380
  958MOL0     H26437   4.988   4.005   3.314 -0.8208  0.3727 -2.2928
  958MOL0     H26438   5.907   3.892   3.858 -1.1739 -0.6418  0.8116
  958MOL0     H26439   6.111   3.803   3.895 -0.1093 -1.7758  0.3811
  958MOL0     H26440   6.408   3.542   3.929 -0.8730 -0.9746  0.1333
  958MOL0     H26441   6.612   3.430   4.001  0.0710  2.2283 -0.8641
  958MOL0     H26442   6.164   3.458   3.185 -0.9538  0.3804 -0.0755
  958MOL0     H26443   5.945   3.484   3.287  0.1976 -0.0198 -0.4808
  958MOL0     H26444   5.620   3.461   3.588 -2.3552  1.7868  1.8211
  958MOL0     H26445   5.379   3.510   3.618 -1.1299 -0.0857 -1.3334
  958MOL0     H26446   5.065   3.260   3.436 -0.9581 -0.3665 -1.2866
  958MOL0     H26447   5.083   3.384   3.315 -1.6311 -0.2292  0.4150
  958MOL0     H26448   4.964   3.454   3.581  0.3461 -0.5675  0.3189
  958MOL0     H26449   4.976   3.556   3.442  0.1416  0.5892  1.0723
  958MOL0     H26450   4.753   3.435   3.506  0.7549 -0.4834  1.0971
  958MOL0     H26451   4.818   3.295   3.421  3.0873  1.0929  1.4538
  958MOL0     H26452   4.746   3.569   3.318 -1.4052 -0.2695  0.5649
  958MOL0     H26453   4.852   3.451   3.228  1.3061 -0.0107  1.5632
  958MOL0     H26454   4.433   3.314   3.193 -0.8242  0.4901  2.8187
  958MOL0     H26455   5.274   3.258   3.288  0.1682 -1.8388 -0.3091
  958MOL0     H26456   5.512   3.208   3.252 -1.5988  0.9904 -0.9442
  959MOL0     O26457   7.962   7.548   4.031 -0.5766  0.5671  0.1559
  959MOL0     C26458   7.909   7.616   4.122 -1.6260 -0.1559  0.5635
  959MOL0     O26459   7.785   7.669   4.123 -0.1027 -0.2537  0.3336
  959MOL0     C26460   7.686   7.643   4.032 -0.6039 -0.6133 -0.6950
  959MOL0     C26461   7.683   7.533   3.950  0.3331 -0.1969 -0.4008
  959MOL0     C26462   7.571   7.509   3.861  0.4912  0.0268  1.3185
  959MOL0     C26463   7.457   7.595   3.854 -0.5094  0.3706  0.1938
  959MOL0     O26464   7.349   7.574   3.768 -0.1837 -0.0553 -0.2770
  959MOL0     C26465   7.330   7.449   3.698  0.0051 -1.3493  0.2103
  959MOL0     C26466   7.186   7.468   3.628  0.4846  0.0968  0.1607
  959MOL0     C26467   7.086   7.492   3.753 -0.7148 -0.0263  0.2357
  959MOL0     C26468   6.937   7.483   3.710 -0.5874 -0.4572 -0.3082
  959MOL0     C26469   6.894   7.610   3.631  0.8432  1.0455  0.2671
  959MOL0     C26470   6.874   7.584   3.475 -0.2114 -1.0099 -0.0491
  959MOL0     C26471   6.719   7.558   3.443 -0.5455 -0.4661 -0.3717
  959MOL0     C26472   6.676   7.423   3.502  0.8262 -0.8584 -0.4514
  959MOL0     N26473   6.546   7.376   3.453 -0.2212 -0.3817  0.2134
  959MOL0     C26474   6.421   7.418   3.493 -0.4918 -1.1129  0.0071
  959MOL0     C26475   6.342   7.338   3.410 -0.3573 -0.6983  0.4788
  959MOL0     C26476   6.193   7.345   3.428  0.5416  0.3470 -0.2361
  959MOL0     C26477   6.122   7.432   3.328 -0.2115 -0.6813 -0.0480
  959MOL0     C26478   5.974   7.412   3.323 -0.5125 -0.0017 -0.7040
  959MOL0     C26479   5.907   7.472   3.197  0.3448  0.1313 -0.6275
  959MOL0     O26480   5.770   7.508   3.216  0.0479  0.5194  0.4422
  959MOL0     C26481   5.666   7.420   3.189 -0.7371  0.5748 -0.3972
  959MOL0     C26482   5.682   7.281   3.158  0.5671  0.2527  0.2560
  959MOL0     C26483   5.571   7.209   3.116  0.2255  0.5519  0.4204
  959MOL0     C26484   5.443   7.264   3.114  0.5227 -0.0657 -0.3609
  959MOL0     C26485   5.325   7.178   3.060  0.8799 -0.7692 -0.1442
  959MOL0     O26486   5.205   7.233   3.064 -0.2391  0.1488 -0.1723
  959MOL0     C26487   5.092   7.162   3.035  0.1320  0.4052 -0.2251
  959MOL0     C26488   5.018   7.204   2.930  0.4592  0.1558  0.3358
  959MOL0     C26489   4.905   7.135   2.883 -1.0556  0.8804  0.6494
  959MOL0     C26490   4.851   7.029   2.963  0.3465  0.0417 -0.6656
  959MOL0     O26491   4.743   6.949   2.931  0.3949  0.2621  0.2846
  959MOL0     C26492   4.673   6.983   2.807 -0.3303  0.1208 -0.0214
  959MOL0     C26493   4.563   6.883   2.766 -0.3680 -0.2160 -0.3927
  959MOL0     C26494   4.470   6.858   2.880  0.5644  0.6814 -0.0283
  959MOL0     C26495   4.347   6.789   2.835 -0.2263  0.5248 -0.2727
  959MOL0     C26496   4.242   6.759   2.939  0.4786  0.1835 -0.0756
  959MOL0     C26497   4.108   6.723   2.880  0.9250 -0.0807  0.0600
  959MOL0     C26498   4.001   6.702   2.986  0.3732  0.3070  0.6006
  959MOL0     C26499   3.869   6.668   2.917  0.8271 -0.0676 -0.1052
  959MOL0    Cl26500   3.874   6.518   2.810  0.0196 -0.3439  0.0130
  959MOL0     C26501   4.927   6.993   3.076 -0.6454 -0.4612 -0.0277
  959MOL0     C26502   5.044   7.060   3.111 -0.9914 -0.7091  0.0728
  959MOL0     O26503   5.351   7.071   3.011  0.7534 -0.0919 -0.2557
  959MOL0     C26504   5.421   7.401   3.166  0.0360  0.0557  0.4761
  959MOL0     C26505   5.537   7.470   3.208  0.2632 -0.2065  0.2752
  959MOL0     N26506   6.425   7.259   3.329  0.9731  0.3911 -0.4875
  959MOL0     N26507   6.550   7.284   3.358  0.1926  0.2633  0.6446
  959MOL0     C26508   7.465   7.702   3.948  0.9888 -0.9182 -0.3745
  959MOL0     C26509   7.574   7.724   4.032 -0.0917  0.3209 -0.3114
  959MOL0     C26510   8.001   7.651   4.234 -0.8489  0.1175 -0.5001
  959MOL0     C26511   7.961   7.751   4.328 -0.7389  0.7930  0.7221
  959MOL0     C26512   8.035   7.775   4.444  0.0239  0.3373 -0.7449
  959MOL0     C26513   8.155   7.705   4.472 -0.6538 -0.5886 -0.4038
  959MOL0     O26514   8.208   7.727   4.597 -0.6212 -0.4961  0.4269
  959MOL0     C26515   8.351   7.708   4.615 -0.2172  1.0594 -0.2794
  959MOL0     C26516   8.419   7.845   4.608  0.7847 -0.1869 -0.2720
  959MOL0     C26517   8.564   7.842   4.657 -0.0788  0.7181  0.4345
  959MOL0     C26518   8.624   7.984   4.668 -0.6578  0.6444  0.5249
  959MOL0     C26519   8.545   8.073   4.758 -0.2771 -0.0261  1.0626
  959MOL0     C26520   8.467   8.146   4.817  0.8677  0.0122  0.0678
  959MOL0     C26521   8.196   7.608   4.374  0.3859 -0.2716  0.2218
  959MOL0     C26522   8.127   7.584   4.252  0.2220  0.0179  0.2430
  959MOL0     H26523   7.758   7.454   3.946  0.1852 -0.6698  2.7906
  959MOL0     H26524   7.583   7.428   3.789 -3.2488  0.2217  0.2883
  959MOL0     H26525   7.332   7.364   3.767 -0.3444 -2.2047 -0.8082
  959MOL0     H26526   7.400   7.443   3.614 -0.7172 -0.1064 -0.5124
  959MOL0     H26527   7.161   7.377   3.572 -0.6057  2.0786 -2.8136
  959MOL0     H26528   7.209   7.548   3.557  3.2510 -0.5463  0.2495
  959MOL0     H26529   7.099   7.596   3.784 -3.2602  0.6706 -0.7410
  959MOL0     H26530   7.113   7.421   3.832 -0.0254  1.2710  1.2046
  959MOL0     H26531   6.934   7.397   3.643  0.9770 -1.5127  0.9105
  959MOL0     H26532   6.881   7.474   3.804  0.6900  3.8612  1.1036
  959MOL0     H26533   6.976   7.682   3.639  1.7205  0.2163 -0.9376
  959MOL0     H26534   6.809   7.662   3.678  0.1259 -0.0428  0.1966
  959MOL0     H26535   6.920   7.490   3.442 -1.8410 -1.4550 -1.1526
  959MOL0     H26536   6.900   7.670   3.413 -2.1984  0.0057  0.4710
  959MOL0     H26537   6.662   7.639   3.488  1.1053 -1.5585  4.1880
  959MOL0     H26538   6.703   7.571   3.335  3.6124 -0.1259 -1.1070
  959MOL0     H26539   6.679   7.438   3.610  1.3493  3.6135 -0.9056
  959MOL0     H26540   6.748   7.344   3.476  1.8709  0.2782 -1.1100
  959MOL0     H26541   6.409   7.476   3.585 -1.2234 -1.1249 -0.0727
  959MOL0     H26542   6.176   7.400   3.522  1.4043  2.4837 -1.2484
  959MOL0     H26543   6.157   7.244   3.448 -0.8105  1.0044  0.8439
  959MOL0     H26544   6.163   7.409   3.229 -0.0296 -0.5252 -0.0092
  959MOL0     H26545   6.141   7.538   3.348 -0.4482 -0.3753 -1.3676
  959MOL0     H26546   5.960   7.303   3.319  0.9128 -0.1969 -0.9022
  959MOL0     H26547   5.930   7.457   3.412  2.1507 -0.6370  1.0508
  959MOL0     H26548   5.921   7.402   3.114 -0.0379 -0.1873 -0.4285
  959MOL0     H26549   5.951   7.568   3.168  0.4945 -0.0399 -0.9684
  959MOL0     H26550   5.776   7.236   3.128 -1.7476 -2.5477 -3.7192
  959MOL0     H26551   5.583   7.109   3.075  2.0624  1.6151 -1.8303
  959MOL0     H26552   5.059   7.283   2.869  1.7066 -2.1696 -2.0157
  959MOL0     H26553   4.857   7.161   2.789 -2.0616 -1.0742  0.5561
  959MOL0     H26554   4.742   6.984   2.722  1.4657  0.3500  1.3825
  959MOL0     H26555   4.628   7.082   2.818  0.3145  0.4541 -0.3270
  959MOL0     H26556   4.597   6.785   2.732  2.5929  1.1675 -1.7547
  959MOL0     H26557   4.509   6.943   2.693 -1.7564  1.2645  1.7332
  959MOL0     H26558   4.443   6.956   2.919 -0.3904  0.2713  0.3807
  959MOL0     H26559   4.524   6.798   2.955 -0.1419 -0.1985 -0.2075
  959MOL0     H26560   4.303   6.858   2.762  1.4668 -1.2696 -3.2378
  959MOL0     H26561   4.376   6.702   2.775  1.1539  1.4776 -1.0570
  959MOL0     H26562   4.229   6.845   3.006  0.3763  0.5808 -0.5982
  959MOL0     H26563   4.288   6.677   2.994  3.4451  2.0903  0.5224
  959MOL0     H26564   4.111   6.628   2.826 -3.8805  0.2794 -1.3658
  959MOL0     H26565   4.081   6.796   2.804 -0.5231 -2.0661 -1.4394
  959MOL0     H26566   4.027   6.618   3.051 -2.8072 -1.0879  0.2975
  959MOL0     H26567   3.975   6.790   3.046 -5.1029  0.3706 -1.2459
  959MOL0     H26568   3.849   6.755   2.854 -1.1165 -0.9410 -0.7748
  959MOL0     H26569   3.795   6.656   2.998 -0.1579 -0.3914 -1.0295
  959MOL0     H26570   4.899   6.907   3.136 -2.0329  0.3997  0.6076
  959MOL0     H26571   5.098   7.034   3.202  3.2050  3.8212 -0.7149
  959MOL0     H26572   5.322   7.444   3.172 -0.1175 -0.1478 -0.4543
  959MOL0     H26573   5.524   7.570   3.248 -1.8502  0.5238 -1.9567
  959MOL0     H26574   7.383   7.771   3.966  1.6594 -0.9234  3.5508
  959MOL0     H26575   7.566   7.812   4.095  0.1113  0.9083 -1.1001
  959MOL0     H26576   7.868   7.804   4.313 -0.5765  1.2641  1.3393
  959MOL0     H26577   8.004   7.843   4.522  2.3278 -0.8062  1.3182
  959MOL0     H26578   8.399   7.635   4.550 -1.1611 -0.5489  0.7574
  959MOL0     H26579   8.364   7.671   4.717  0.4907 -0.7304 -0.9774
  959MOL0     H26580   8.415   7.863   4.500  0.8590  2.7582  0.1467
  959MOL0     H26581   8.360   7.926   4.652 -2.4212 -1.6395 -1.5391
  959MOL0     H26582   8.625   7.784   4.587  0.7667  0.2645  1.5213
  959MOL0     H26583   8.575   7.800   4.757 -0.3790  1.3944  0.7635
  959MOL0     H26584   8.725   7.988   4.709 -0.8145  1.5189  0.8505
  959MOL0     H26585   8.637   8.034   4.572  0.0445  0.0544  0.3025
  959MOL0     H26586   8.394   8.191   4.880  2.1588  2.6293 -0.1948
  959MOL0     H26587   8.282   7.543   4.385  1.4131  0.4884 -2.5691
  959MOL0     H26588   8.159   7.503   4.189 -2.5758 -0.2297 -1.0156
  960MOL0     O26589   3.403   7.487   2.353  0.1520 -0.8214  0.2923
  960MOL0     C26590   3.390   7.370   2.379  0.7045 -0.0431  0.2214
  960MOL0     O26591   3.276   7.308   2.426  0.2226 -0.1451 -0.0689
  960MOL0     C26592   3.162   7.382   2.462  0.7240  0.7545  0.3963
  960MOL0     C26593   3.048   7.300   2.459 -0.2336 -0.4557  0.2327
  960MOL0     C26594   2.924   7.346   2.498  0.4539 -0.4138 -0.4331
  960MOL0     C26595   2.906   7.479   2.543  0.7062 -0.3451 -0.3206
  960MOL0     O26596   2.779   7.510   2.584 -0.6438 -0.0122  0.6789
  960MOL0     C26597   2.743   7.646   2.590 -0.7542  0.7565  0.4169
  960MOL0     C26598   2.594   7.669   2.607  0.2606 -0.4832  0.0351
  960MOL0     C26599   2.562   7.821   2.602  0.0846  0.4456 -0.5610
  960MOL0     C26600   2.625   7.895   2.484  0.1799  0.3907  0.4303
  960MOL0     C26601   2.552   8.028   2.444  0.7047  0.1023 -0.6280
  960MOL0     C26602   2.407   8.020   2.394 -0.0824 -0.0989  0.8466
  960MOL0     C26603   2.357   8.165   2.381 -0.5172  0.6098 -0.0931
  960MOL0     C26604   2.334   8.239   2.509 -0.3535 -0.4206 -0.3724
  960MOL0     N26605   2.204   8.198   2.563  0.9869  0.0895 -0.1922
  960MOL0     C26606   2.080   8.235   2.527  0.7258 -0.0154  0.1465
  960MOL0     C26607   1.990   8.156   2.585  0.3396  0.8529  0.6151
  960MOL0     C26608   1.846   8.191   2.596  0.7862  0.6708  0.4141
  960MOL0     C26609   1.786   8.292   2.493  0.3993 -0.0929  0.2772
  960MOL0     C26610   1.775   8.233   2.343 -0.4191  0.4489 -0.5677
  960MOL0     C26611   1.646   8.149   2.335 -0.5594  0.2454 -0.4820
  960MOL0     O26612   1.667   8.019   2.391  0.0362 -0.5975 -0.4235
  960MOL0     C26613   1.565   7.931   2.398 -0.7172  0.1312 -0.4004
  960MOL0     C26614   1.597   7.811   2.462 -0.1895  0.5118 -0.0048
  960MOL0     C26615   1.501   7.713   2.484 -0.4418  0.8519 -0.2475
  960MOL0     C26616   1.371   7.731   2.438 -1.0407 -0.2188  0.4207
  960MOL0     C26617   1.266   7.627   2.463  0.3790 -0.0917 -0.2256
  960MOL0     O26618   1.293   7.506   2.514  0.4287 -0.1904  0.3484
  960MOL0     C26619   1.207   7.408   2.530  0.4290  0.8414 -0.1339
  960MOL0     C26620   1.075   7.388   2.475  0.1755 -0.4616 -0.2995
  960MOL0     C26621   0.994   7.279   2.514  0.0173  0.3472  0.1495
  960MOL0     C26622   1.040   7.173   2.593 -0.1331 -1.0625 -0.2911
  960MOL0     O26623   0.961   7.072   2.623  0.1125  0.7529 -0.0624
  960MOL0     C26624   0.897   6.993   2.517  0.0616  0.1499 -0.5500
  960MOL0     C26625   0.795   6.895   2.576 -0.0367 -1.0980 -0.0004
  960MOL0     C26626   0.651   6.971   2.590 -0.1711 -0.4231 -0.0836
  960MOL0     C26627   0.542   6.866   2.632  0.4637 -0.1494  0.0751
  960MOL0     C26628   0.406   6.934   2.608  0.2660  0.0540 -0.1912
  960MOL0     C26629   0.275   6.846   2.646 -0.7123 -0.9731  0.8175
  960MOL0     C26630   0.140   6.910   2.597  0.7617 -0.8777  0.2042
  960MOL0     C26631   0.104   6.932   2.453 -1.3156  0.1477  0.1947
  960MOL0    Cl26632  -0.067   6.998   2.447 -0.5856  0.1402  0.0090
  960MOL0     C26633   1.175   7.178   2.627 -0.0911 -0.3599  0.4545
  960MOL0     C26634   1.253   7.288   2.596 -0.0035 -0.2914 -0.2859
  960MOL0     O26635   1.154   7.666   2.419 -0.1624 -0.4878  0.1014
  960MOL0     C26636   1.345   7.845   2.356  0.1834 -0.9401 -0.1233
  960MOL0     C26637   1.440   7.948   2.348  0.2666 -0.3975  0.5137
  960MOL0     N26638   2.067   8.062   2.653  0.3820 -0.2234  0.5636
  960MOL0     N26639   2.192   8.077   2.627 -0.4437 -0.4353  0.3854
  960MOL0     C26640   3.022   7.564   2.554  0.6046 -0.2989  0.2401
  960MOL0     C26641   3.150   7.512   2.504  0.2675  0.4430 -0.2564
  960MOL0     C26642   3.504   7.285   2.339  0.2311  0.3641  0.3046
  960MOL0     C26643   3.510   7.148   2.381  0.1083  0.4100 -0.4439
  960MOL0     C26644   3.634   7.076   2.369  0.2680  0.2719  0.9327
  960MOL0     C26645   3.738   7.124   2.280 -0.1695 -0.2904  1.0128
  960MOL0     O26646   3.842   7.037   2.243 -0.0778  0.4298 -0.6124
  960MOL0     C26647   3.959   7.101   2.193  0.2806 -1.5247 -1.1923
  960MOL0     C26648   4.036   7.166   2.312 -0.3953  0.0479  0.7095
  960MOL0     C26649   4.172   7.213   2.278 -0.5267 -0.3501 -0.0884
  960MOL0     C26650   4.280   7.098   2.248  0.3193 -1.0288  0.8825
  960MOL0     C26651   4.314   6.996   2.357  0.5392 -0.4521  0.4001
  960MOL0     C26652   4.356   6.911   2.440  0.2299 -0.6068 -0.8347
  960MOL0     C26653   3.726   7.255   2.222 -0.3137 -0.1528  0.1059
  960MOL0     C26654   3.611   7.329   2.254  0.5696 -0.9742  0.5761
  960MOL0     H26655   3.060   7.202   2.415 -0.9391 -0.3234 -0.2766
  960MOL0     H26656   2.841   7.277   2.512  0.6416 -1.2509 -3.0489
  960MOL0     H26657   2.778   7.693   2.497  0.9304  1.9561  1.6017
  960MOL0     H26658   2.787   7.701   2.673  0.5917  4.4629 -2.4609
  960MOL0     H26659   2.550   7.615   2.690 -0.2597 -2.6518 -1.5690
  960MOL0     H26660   2.543   7.626   2.521  0.3272  3.2310 -2.0693
  960MOL0     H26661   2.600   7.870   2.692 -0.0557  1.9896 -1.3166
  960MOL0     H26662   2.453   7.827   2.607  0.0687 -0.0068 -0.2586
  960MOL0     H26663   2.727   7.921   2.516 -0.1746 -0.2963  2.2171
  960MOL0     H26664   2.622   7.829   2.396  1.4467  0.2848  0.4411
  960MOL0     H26665   2.611   8.082   2.370 -0.1317 -1.5091 -2.5559
  960MOL0     H26666   2.546   8.081   2.540 -1.7410 -3.0754  1.1634
  960MOL0     H26667   2.342   7.952   2.451 -0.7221 -0.1995  0.0116
  960MOL0     H26668   2.409   7.979   2.293 -2.8524 -0.2394  0.7550
  960MOL0     H26669   2.421   8.228   2.318 -2.3541  1.8625 -0.7988
  960MOL0     H26670   2.269   8.165   2.316  0.7546 -1.5355 -1.9602
  960MOL0     H26671   2.333   8.346   2.486 -1.0862  0.3151  2.5557
  960MOL0     H26672   2.413   8.240   2.585 -1.5791  0.0082  0.9427
  960MOL0     H26673   2.057   8.327   2.475  1.6375  2.0979  3.2361
  960MOL0     H26674   1.824   8.231   2.696 -2.8835 -3.0190  1.3658
  960MOL0     H26675   1.786   8.100   2.595  1.8929 -0.1039  1.2686
  960MOL0     H26676   1.853   8.379   2.495 -0.8290  0.8769  0.7550
  960MOL0     H26677   1.686   8.326   2.521 -0.5837 -2.6939  0.2010
  960MOL0     H26678   1.774   8.317   2.272 -3.0860 -2.0406 -3.8204
  960MOL0     H26679   1.870   8.181   2.326 -1.5298 -0.4467 -6.2829
  960MOL0     H26680   1.621   8.146   2.228  1.1684  1.7214 -0.9972
  960MOL0     H26681   1.565   8.201   2.387  0.7052  0.6866  1.1319
  960MOL0     H26682   1.694   7.789   2.506  0.5149  2.3205 -0.5535
  960MOL0     H26683   1.521   7.622   2.539  1.6900  0.2210 -1.9376
  960MOL0     H26684   1.037   7.472   2.417 -0.2709 -1.6227 -1.7486
  960MOL0     H26685   0.890   7.279   2.484  0.7652  0.7816 -2.8355
  960MOL0     H26686   0.969   6.931   2.463  0.7941 -3.0014  3.5586
  960MOL0     H26687   0.847   7.057   2.444 -1.6909 -1.7360 -1.1014
  960MOL0     H26688   0.829   6.843   2.665 -2.2797 -2.0159  0.3774
  960MOL0     H26689   0.779   6.820   2.498  0.9182 -0.1614 -1.1472
  960MOL0     H26690   0.630   7.013   2.491  0.1827 -2.1984 -0.9563
  960MOL0     H26691   0.658   7.065   2.645  3.0754  1.9317 -3.9610
  960MOL0     H26692   0.558   6.780   2.567  0.6439  0.6941 -1.0331
  960MOL0     H26693   0.541   6.838   2.738  2.6267 -1.4175 -0.1766
  960MOL0     H26694   0.399   6.954   2.501 -3.7183  2.4135  0.3115
  960MOL0     H26695   0.394   7.025   2.667 -0.6335 -0.3902  0.3414
  960MOL0     H26696   0.256   6.824   2.751 -0.7760 -1.7561  0.6479
  960MOL0     H26697   0.287   6.744   2.607 -0.3084 -0.7994  0.4793
  960MOL0     H26698   0.060   6.848   2.638 -0.2264 -0.1750 -0.6198
  960MOL0     H26699   0.127   7.004   2.653 -1.2710 -0.6002 -0.6844
  960MOL0     H26700   0.102   6.841   2.392  1.4187 -0.3507  0.7390
  960MOL0     H26701   0.184   7.001   2.424 -2.3750  3.1766  3.6983
  960MOL0     H26702   1.226   7.095   2.675  0.0447 -1.2017 -1.0878
  960MOL0     H26703   1.351   7.282   2.643 -0.1684 -0.3456  0.0588
  960MOL0     H26704   1.253   7.869   2.303  0.9608  1.1864 -0.6118
  960MOL0     H26705   1.414   8.029   2.280  1.8017 -1.4663 -1.4427
  960MOL0     H26706   3.010   7.668   2.584  1.1593 -0.3032  0.4832
  960MOL0     H26707   3.235   7.572   2.535 -0.4353  0.3931  1.8944
  960MOL0     H26708   3.437   7.101   2.446 -2.5550  1.8759 -2.1774
  960MOL0     H26709   3.645   6.971   2.397  0.8779  0.0715 -0.0006
  960MOL0     H26710   3.938   7.173   2.113  1.8342 -1.0517 -1.1919
  960MOL0     H26711   4.037   7.033   2.159  4.3060  1.0241  2.0882
  960MOL0     H26712   3.978   7.259   2.322  0.4049  0.8495 -1.4229
  960MOL0     H26713   4.034   7.099   2.398  3.3009 -2.6387 -1.0048
  960MOL0     H26714   4.204   7.281   2.357 -1.1637  2.0699 -1.8270
  960MOL0     H26715   4.160   7.262   2.181 -0.7601 -0.7378 -0.2613
  960MOL0     H26716   4.245   7.043   2.160  0.0542  1.4188 -0.6554
  960MOL0     H26717   4.368   7.161   2.229 -0.3538 -0.5585 -0.8840
  960MOL0     H26718   4.413   6.844   2.502  0.7746  0.0394 -0.6229
  960MOL0     H26719   3.807   7.307   2.172  0.3421 -0.2698  1.0159
  960MOL0     H26720   3.609   7.430   2.214  1.7997 -1.5826 -1.1533
  961MOL0     O26721   5.981   9.350   9.897  0.2492  0.6390  0.7723
  961MOL0     C26722   6.059   9.438   9.936 -0.3748  0.2158 -0.1098
  961MOL0     O26723   6.038   9.572   9.936 -0.2873 -1.2189  0.4752
  961MOL0     C26724   5.914   9.624   9.890 -0.9362 -0.4453 -0.8529
  961MOL0     C26725   5.855   9.733   9.952  1.1003 -1.1350 -0.5655
  961MOL0     C26726   5.734   9.791   9.917  0.0105  0.0334 -0.9552
  961MOL0     C26727   5.674   9.750   9.798  0.4870  0.4663 -1.6327
  961MOL0     O26728   5.562   9.802   9.753 -0.4773 -1.4424  0.4783
  961MOL0     C26729   5.547   9.810   9.611 -0.1517  0.1614 -0.5675
  961MOL0     C26730   5.467   9.927   9.576 -0.3174 -0.0759  0.1648
  961MOL0     C26731   5.534  10.056   9.605  0.2683 -0.0509  0.2978
  961MOL0     C26732   5.477  10.154   9.494  0.8882  0.9685 -0.8377
  961MOL0     C26733   5.328  10.186   9.514 -0.4463  0.6531  0.8938
  961MOL0     C26734   5.300  10.326   9.457  0.6066  1.1241  0.4595
  961MOL0     C26735   5.156  10.354   9.449  1.2229 -0.6213  0.6482
  961MOL0     C26736   5.085  10.371   9.588  0.0530  0.3100 -0.7946
  961MOL0     N26737   5.133  10.489   9.664 -0.4961  0.5885 -0.6589
  961MOL0     C26738   5.158  10.493   9.797  1.3994  0.3323  0.0421
  961MOL0     C26739   5.220  10.606   9.823  0.7760 -0.5308 -0.1487
  961MOL0     C26740   5.278  10.655   9.949  0.2261  0.5180 -0.3887
  961MOL0     C26741   5.220  10.783  10.010  0.7907  1.0373  0.1224
  961MOL0     C26742   5.075  10.763  10.058  0.0434  0.3471  0.5467
  961MOL0     C26743   5.000  10.870  10.142  0.1852 -0.3072  1.5184
  961MOL0     O26744   4.875  10.823  10.187  0.3991 -1.0003  0.6826
  961MOL0     C26745   4.772  10.908  10.224 -0.3617 -0.4484  0.2867
  961MOL0     C26746   4.799  11.035  10.253  0.1654 -0.0171  0.1586
  961MOL0     C26747   4.706  11.119  10.295 -0.5851 -0.5643 -0.5518
  961MOL0     C26748   4.574  11.085  10.323  0.0480  0.1515  0.6162
  961MOL0     C26749   4.473  11.170  10.384 -0.7882 -0.4509 -0.3260
  961MOL0     O26750   4.517  11.269  10.477  0.7827  0.1779  0.7280
  961MOL0     C26751   4.426  11.363  10.524  0.1245 -0.1044 -0.2661
  961MOL0     C26752   4.406  11.360  10.659  0.3472 -0.3582 -2.0083
  961MOL0     C26753   4.304  11.437  10.714  0.6395  0.3653 -0.9664
  961MOL0     C26754   4.225  11.518  10.639 -0.4162  0.5601 -0.0042
  961MOL0     O26755   4.113  11.584  10.689  0.0802 -0.1500  0.4063
  961MOL0     C26756   3.996  11.565  10.618  0.4402 -0.4137  0.1917
  961MOL0     C26757   3.872  11.608  10.700  0.5295  0.9529 -0.8013
  961MOL0     C26758   3.836  11.491  10.798 -0.8006 -0.5287  0.6620
  961MOL0     C26759   3.723  11.537  10.898  0.2041 -0.1857 -0.4010
  961MOL0     C26760   3.665  11.424  10.996 -1.2736 -0.2964 -0.4045
  961MOL0     C26761   3.547  11.482  11.068  0.5101 -0.6579 -0.0610
  961MOL0     C26762   3.495  11.409  11.189 -0.1447 -0.1029  0.4422
  961MOL0     C26763   3.423  11.276  11.145 -0.0991  0.3117 -0.6144
  961MOL0    Cl26764   3.295  11.310  11.026  0.0241  0.3660  0.0088
  961MOL0     C26765   4.250  11.526  10.498 -0.6325  0.3334  0.7474
  961MOL0     C26766   4.344  11.436  10.445  0.1717 -0.1031  1.0516
  961MOL0     O26767   4.360  11.135  10.366  0.3683  0.2771  0.0163
  961MOL0     C26768   4.549  10.946  10.295  0.2982  0.3903  0.3092
  961MOL0     C26769   4.653  10.862  10.241  1.5158  0.2701 -0.0653
  961MOL0     N26770   5.221  10.678   9.710 -0.8678 -0.2415  0.4233
  961MOL0     N26771   5.177  10.607   9.611  0.1255  0.4917 -1.1083
  961MOL0     C26772   5.728   9.630   9.732  0.2230 -0.0892  0.0122
  961MOL0     C26773   5.846   9.571   9.775  0.8073 -0.0620 -0.6112
  961MOL0     C26774   6.198   9.388   9.962  1.3588 -0.5618  0.2944
  961MOL0     C26775   6.230   9.244   9.937  0.2391  0.2848  0.1363
  961MOL0     C26776   6.356   9.196   9.963 -0.3120  0.3972 -0.9860
  961MOL0     C26777   6.461   9.283  10.006  0.3747 -0.4685 -0.7313
  961MOL0     O26778   6.593   9.241  10.016  0.3410 -0.0657  0.2678
  961MOL0     C26779   6.623   9.120   9.958 -0.2082  0.3379 -0.1151
  961MOL0     C26780   6.774   9.101   9.966  0.0445  0.1668  0.1771
  961MOL0     C26781   6.845   9.206   9.873 -0.8454 -0.9034  0.1956
  961MOL0     C26782   6.994   9.166   9.867  0.4189  0.4756  0.5654
  961MOL0     C26783   7.057   9.138   9.738 -0.0259 -0.2046 -0.1770
  961MOL0     C26784   7.112   9.108   9.634 -1.0395  0.0754 -0.4693
  961MOL0     C26785   6.429   9.414  10.036 -0.0966 -0.1497 -0.2993
  961MOL0     C26786   6.301   9.471  10.016  0.0009  0.1295 -0.4142
  961MOL0     H26787   5.903   9.770  10.042 -1.3564  2.8521 -0.6313
  961MOL0     H26788   5.688   9.873   9.971  0.9373 -0.5768  0.8039
  961MOL0     H26789   5.503   9.720   9.568  0.5531 -1.1194  1.2253
  961MOL0     H26790   5.646   9.806   9.564 -0.0607  0.3833 -0.3993
  961MOL0     H26791   5.371   9.915   9.627 -1.5039  1.4038 -1.6087
  961MOL0     H26792   5.442   9.930   9.470  1.4697  0.0242 -0.2852
  961MOL0     H26793   5.642  10.038   9.597  0.0587 -0.5314 -2.4406
  961MOL0     H26794   5.518  10.108   9.700  1.2782  0.5150  0.1770
  961MOL0     H26795   5.543  10.240   9.512  2.9242 -0.8326  0.8602
  961MOL0     H26796   5.500  10.117   9.393  0.8647 -2.5363  0.3016
  961MOL0     H26797   5.316  10.181   9.622 -2.0479 -0.1883  0.7039
  961MOL0     H26798   5.265  10.106   9.473 -0.6967  0.8651  0.8636
  961MOL0     H26799   5.330  10.317   9.353 -1.5794 -0.7416 -0.0769
  961MOL0     H26800   5.354  10.413   9.497  2.9023  0.6345 -1.3786
  961MOL0     H26801   5.142  10.447   9.393  1.7704 -0.0656  1.4113
  961MOL0     H26802   5.106  10.273   9.394  0.2267  0.5636 -0.2288
  961MOL0     H26803   5.107  10.282   9.648  0.7588 -0.9343 -2.8091
  961MOL0     H26804   4.978  10.390   9.574 -0.1737 -0.3189  0.0091
  961MOL0     H26805   5.149  10.413   9.870 -0.7676  1.8891  1.5781
  961MOL0     H26806   5.385  10.670   9.929  0.3376  0.2174 -0.0227
  961MOL0     H26807   5.270  10.564  10.009  0.3960 -0.5313 -1.8743
  961MOL0     H26808   5.217  10.857   9.930 -3.7868  1.9874  0.8883
  961MOL0     H26809   5.288  10.822  10.086  2.0113 -1.7846  0.6402
  961MOL0     H26810   5.011  10.742   9.971  2.4469 -1.5646 -0.8889
  961MOL0     H26811   5.070  10.667  10.110  1.7728 -0.5296 -0.8181
  961MOL0     H26812   5.005  10.965  10.086 -2.3627 -1.9213 -1.8229
  961MOL0     H26813   5.062  10.893  10.229  3.6235 -2.4183 -0.1276
  961MOL0     H26814   4.900  11.076  10.254  1.2495 -2.3190 -2.3433
  961MOL0     H26815   4.735  11.220  10.321 -1.1909 -1.2502  3.4579
  961MOL0     H26816   4.471  11.288  10.707  1.3480  1.3766 -0.6040
  961MOL0     H26817   4.273  11.416  10.816 -2.4307 -1.7158 -2.1644
  961MOL0     H26818   3.987  11.457  10.604  1.4261 -1.2207  4.4288
  961MOL0     H26819   3.992  11.618  10.523  0.4568 -2.9357 -1.3159
  961MOL0     H26820   3.793  11.616  10.625 -0.8389 -3.0552 -0.0406
  961MOL0     H26821   3.892  11.704  10.748 -1.0170 -0.2112  2.4499
  961MOL0     H26822   3.919  11.465  10.864 -0.7134 -0.6027  0.5222
  961MOL0     H26823   3.800  11.398  10.753  2.9479 -0.8079 -2.2257
  961MOL0     H26824   3.767  11.609  10.966 -0.6297 -0.5095  0.5096
  961MOL0     H26825   3.641  11.582  10.841 -1.2059  0.3888  1.9360
  961MOL0     H26826   3.742  11.401  11.071  1.0701  0.3888 -2.4319
  961MOL0     H26827   3.644  11.338  10.932  4.7089 -2.3349 -0.2929
  961MOL0     H26828   3.473  11.539  11.011  0.6276  2.3025  2.4579
  961MOL0     H26829   3.586  11.574  11.113 -0.7139 -0.6121  0.9461
  961MOL0     H26830   3.579  11.391  11.257  1.6153 -2.3157 -2.1097
  961MOL0     H26831   3.427  11.481  11.236 -0.0238  0.6199 -0.4751
  961MOL0     H26832   3.381  11.221  11.230  2.0747 -0.8301 -0.2035
  961MOL0     H26833   3.486  11.207  11.090 -0.6352 -1.4019  0.8094
  961MOL0     H26834   4.194  11.593  10.434  0.5196  2.5406  1.9291
  961MOL0     H26835   4.370  11.433  10.340  2.5723  3.1997  1.3855
  961MOL0     H26836   4.451  10.903  10.314 -0.0155  1.1517  0.4603
  961MOL0     H26837   4.632  10.759  10.213  0.4203  0.5786 -0.4216
  961MOL0     H26838   5.696   9.593   9.635  1.6932  0.5507 -0.7532
  961MOL0     H26839   5.876   9.488   9.711 -1.4304 -0.3869 -1.3247
  961MOL0     H26840   6.158   9.175   9.895  2.1968 -1.0985 -1.1294
  961MOL0     H26841   6.375   9.091   9.940  1.9811 -0.5768  4.1221
  961MOL0     H26842   6.597   9.112   9.852  0.5207 -3.5822 -0.1544
  961MOL0     H26843   6.575   9.035  10.007  0.9900  0.8280  2.0123
  961MOL0     H26844   6.794   9.106  10.074 -2.2333  3.0294  0.5801
  961MOL0     H26845   6.805   9.003   9.927  3.2890  0.4558  1.6934
  961MOL0     H26846   6.848   9.305   9.921 -2.8348 -1.3187  1.2889
  961MOL0     H26847   6.804   9.209   9.772  1.5159 -0.9671 -0.8497
  961MOL0     H26848   7.061   9.237   9.917 -0.3024  0.8075  1.0694
  961MOL0     H26849   7.007   9.074   9.926 -0.4335  0.4826  0.7724
  961MOL0     H26850   7.153   9.077   9.540 -1.5426 -0.1209 -0.6291
  961MOL0     H26851   6.515   9.470  10.071 -0.7310  0.2663  0.6100
  961MOL0     H26852   6.275   9.576  10.021 -1.3797 -0.0002 -3.0127
  962MOL0     O26853   1.909   2.068  10.449  0.8141  0.2233 -0.3362
  962MOL0     C26854   1.986   2.047  10.543  0.5945 -0.3564  0.1908
  962MOL0     O26855   1.953   1.988  10.655 -0.2620  0.1662 -0.1030
  962MOL0     C26856   1.821   1.970  10.676 -0.4936  0.4865 -1.1840
  962MOL0     C26857   1.729   2.075  10.692 -0.2328 -0.3863 -0.0679
  962MOL0     C26858   1.595   2.057  10.723  0.3032 -0.1761  0.5210
  962MOL0     C26859   1.546   1.933  10.745  0.2014  0.3165  0.6875
  962MOL0     O26860   1.410   1.928  10.776 -0.0339 -0.1144 -0.6717
  962MOL0     C26861   1.339   1.807  10.781 -0.8908  0.2625 -1.1909
  962MOL0     C26862   1.197   1.817  10.842  0.5112 -0.7674 -0.3059
  962MOL0     C26863   1.190   1.890  10.976 -0.1325 -0.0244 -0.1963
  962MOL0     C26864   1.045   1.871  11.027  0.2994  0.3039 -0.7353
  962MOL0     C26865   1.018   1.978  11.126  0.1952 -0.2770  0.4954
  962MOL0     C26866   0.872   2.001  11.162  0.2134 -0.4998 -0.5244
  962MOL0     C26867   0.825   1.875  11.234  0.1633 -0.1735 -1.0405
  962MOL0     C26868   0.697   1.904  11.316  1.1238 -0.1744  0.7929
  962MOL0     N26869   0.587   1.962  11.241 -0.1714 -0.5212  0.6074
  962MOL0     C26870   0.500   1.880  11.168 -0.1275 -0.3254  0.7126
  962MOL0     C26871   0.438   1.964  11.086  0.2742  0.0312  0.3189
  962MOL0     C26872   0.319   1.946  11.000 -0.2803  0.0498  0.3352
  962MOL0     C26873   0.346   1.997  10.859 -0.0928  0.2159  0.1966
  962MOL0     C26874   0.411   1.905  10.753 -0.4219  0.1823 -0.2842
  962MOL0     C26875   0.410   1.979  10.618  0.2329  0.3350  0.1315
  962MOL0     O26876   0.268   1.966  10.563 -0.4067 -0.2867 -0.0919
  962MOL0     C26877   0.226   1.872  10.469  0.8741  0.1351  0.0063
  962MOL0     C26878   0.101   1.886  10.426  1.2109  0.0421  0.1920
  962MOL0     C26879   0.047   1.805  10.323 -0.4217  0.4896  0.6570
  962MOL0     C26880   0.128   1.716  10.251 -0.2105 -0.2912 -0.5791
  962MOL0     C26881   0.072   1.643  10.130  0.4151 -0.5276  0.1335
  962MOL0     O26882   0.155   1.565  10.067 -0.2677  0.4129 -0.3132
  962MOL0     C26883   0.105   1.476   9.975 -0.3244 -0.1810 -0.7781
  962MOL0     C26884   0.010   1.378  10.005 -0.4471  0.0952  0.2333
  962MOL0     C26885  -0.034   1.284   9.908  0.0802 -0.6289 -0.1372
  962MOL0     C26886   0.019   1.284   9.781  0.2341  0.4097  0.1311
  962MOL0     O26887  -0.036   1.190   9.695 -0.7870 -1.3178  0.5806
  962MOL0     C26888   0.054   1.166   9.585  0.4719  1.9154  0.3318
  962MOL0     C26889   0.005   1.037   9.515 -0.3109  0.1125 -0.4272
  962MOL0     C26890   0.056   0.901   9.570 -0.1025  0.3487 -0.2615
  962MOL0     C26891   0.045   0.890   9.724 -0.2664  0.1768 -0.6435
  962MOL0     C26892   0.062   0.746   9.776 -0.2673  0.0802 -0.6009
  962MOL0     C26893   0.199   0.692   9.748 -0.1106 -0.0081 -0.1593
  962MOL0     C26894   0.256   0.588   9.839  0.2105  0.6383  0.1040
  962MOL0     C26895   0.163   0.475   9.856  0.2204 -0.9638 -0.2250
  962MOL0    Cl26896   0.037   0.527   9.981 -0.1661  0.0415 -0.1495
  962MOL0     C26897   0.111   1.374   9.752  0.7282 -0.6096 -0.0712
  962MOL0     C26898   0.167   1.466   9.849  0.7034  0.2068 -0.1300
  962MOL0     O26899  -0.053   1.639  10.120 -0.3340 -0.3176  0.3838
  962MOL0     C26900   0.257   1.707  10.296 -0.1853  0.9848 -0.5545
  962MOL0     C26901   0.301   1.765  10.416 -0.0349 -0.2631 -0.2983
  962MOL0     N26902   0.476   2.092  11.116  0.1470 -0.4367 -0.5866
  962MOL0     N26903   0.567   2.092  11.210 -0.2376  0.2190  0.1416
  962MOL0     C26904   1.634   1.826  10.721 -0.1942  0.0163 -0.6879
  962MOL0     C26905   1.765   1.847  10.684 -0.1607  0.4617  0.8428
  962MOL0     C26906   2.123   2.080  10.515  0.7753 -0.0810 -0.1882
  962MOL0     C26907   2.162   2.112  10.386 -1.2400 -0.7382  1.1686
  962MOL0     C26908   2.296   2.123  10.348  0.5696 -0.0673  0.2934
  962MOL0     C26909   2.395   2.096  10.441  0.5600  0.1633  0.6183
  962MOL0     O26910   2.525   2.100  10.395  0.1160  0.2268  0.3410
  962MOL0     C26911   2.626   2.068  10.492 -0.0238 -0.0653 -0.4903
  962MOL0     C26912   2.639   1.919  10.522  0.1225  0.5694  0.3402
  962MOL0     C26913   2.680   1.861  10.390  0.3095  0.2799  0.0434
  962MOL0     C26914   2.720   1.714  10.388 -0.7338 -0.5444  0.7861
  962MOL0     C26915   2.759   1.688  10.250 -0.3585  0.1494 -0.3823
  962MOL0     C26916   2.789   1.679  10.135 -0.3486  0.2837 -0.3726
  962MOL0     C26917   2.353   2.063  10.574 -0.3028  0.3279  0.0962
  962MOL0     C26918   2.221   2.061  10.612  1.1148 -0.8553 -1.3340
  962MOL0     H26919   1.768   2.176  10.691 -1.1165 -0.0304 -1.8830
  962MOL0     H26920   1.533   2.145  10.732 -2.3629 -1.6679 -1.5921
  962MOL0     H26921   1.387   1.721  10.830 -2.6315  0.3422  0.8057
  962MOL0     H26922   1.335   1.782  10.675  1.1124 -0.0231 -1.2370
  962MOL0     H26923   1.158   1.716  10.859 -2.5692  0.2657 -0.6174
  962MOL0     H26924   1.136   1.872  10.770 -2.9699 -1.3485  1.9838
  962MOL0     H26925   1.206   1.996  10.956 -0.0593 -0.0932 -0.5105
  962MOL0     H26926   1.259   1.854  11.053  0.6081 -1.1891 -1.3549
  962MOL0     H26927   0.976   1.879  10.942 -0.4423  0.9970 -0.0800
  962MOL0     H26928   1.033   1.770  11.065  0.1491  1.6046  3.0671
  962MOL0     H26929   1.068   2.071  11.099  0.9578 -0.6582  0.5764
  962MOL0     H26930   1.082   1.960  11.212  1.2786 -0.8053 -0.4013
  962MOL0     H26931   0.812   2.032  11.076 -0.1711  0.8396  0.2002
  962MOL0     H26932   0.878   2.083  11.234  0.9544 -1.2042  0.2275
  962MOL0     H26933   0.809   1.802  11.154  0.4176 -3.7260  1.8253
  962MOL0     H26934   0.890   1.835  11.313 -1.1143  2.1999  1.3754
  962MOL0     H26935   0.713   1.977  11.396 -0.6453  1.6799 -0.4505
  962MOL0     H26936   0.662   1.812  11.364  2.5560 -1.6861 -0.9223
  962MOL0     H26937   0.491   1.772  11.174  0.2872 -0.2998  2.4427
  962MOL0     H26938   0.239   2.001  11.051  1.2948  1.4140  1.4452
  962MOL0     H26939   0.297   1.839  11.015  0.6481  0.0134  1.6072
  962MOL0     H26940   0.409   2.086  10.866 -0.9958  0.8984 -0.1658
  962MOL0     H26941   0.252   2.035  10.818 -0.0851 -2.0965 -2.2174
  962MOL0     H26942   0.512   1.884  10.790 -1.6611 -1.3077  2.6319
  962MOL0     H26943   0.358   1.809  10.749 -0.2453  0.1315 -2.2113
  962MOL0     H26944   0.487   1.948  10.547  0.3707  0.1669  0.3505
  962MOL0     H26945   0.443   2.082  10.633 -1.1179  0.5054  2.5614
  962MOL0     H26946   0.045   1.967  10.471 -2.4723  0.1773 -3.9586
  962MOL0     H26947  -0.057   1.816  10.292 -0.2113 -3.1365 -2.0535
  962MOL0     H26948  -0.030   1.372  10.106  0.2050 -2.4928  0.3992
  962MOL0     H26949  -0.113   1.213   9.931  0.1161 -1.1359 -1.5206
  962MOL0     H26950   0.158   1.146   9.615 -0.4051  0.3031  2.6587
  962MOL0     H26951   0.047   1.253   9.520  1.8536  1.3334 -0.6473
  962MOL0     H26952   0.044   1.041   9.414  2.3720 -4.9244  0.1213
  962MOL0     H26953  -0.103   1.034   9.532 -0.0526  1.8708  2.2627
  962MOL0     H26954   0.162   0.889   9.545  0.8127  2.6449  2.0270
  962MOL0     H26955  -0.013   0.827   9.530  2.6193 -2.7383  0.3445
  962MOL0     H26956   0.122   0.946   9.777  0.2714 -2.3860  1.5172
  962MOL0     H26957  -0.054   0.930   9.749  0.6652  0.3054  3.6092
  962MOL0     H26958  -0.004   0.674   9.727 -1.1262  1.1110 -1.0160
  962MOL0     H26959   0.040   0.751   9.883  1.8750  0.2581 -0.1165
  962MOL0     H26960   0.269   0.776   9.760  0.8843 -1.0806  2.2567
  962MOL0     H26961   0.211   0.669   9.642  0.9403 -0.1975 -0.0161
  962MOL0     H26962   0.353   0.555   9.800  1.0906  4.4674 -1.4107
  962MOL0     H26963   0.273   0.633   9.937 -3.9494  1.6633  0.5080
  962MOL0     H26964   0.224   0.392   9.893  1.8342  0.8614  1.4136
  962MOL0     H26965   0.127   0.450   9.756  3.5589 -3.9253 -0.9256
  962MOL0     H26966   0.152   1.381   9.652  2.3023 -1.6995  0.4628
  962MOL0     H26967   0.251   1.529   9.821 -2.7155  3.9996 -3.0639
  962MOL0     H26968   0.322   1.636  10.246  1.0711  3.0420 -1.9813
  962MOL0     H26969   0.398   1.741  10.459  0.2740  1.6102  0.1509
  962MOL0     H26970   1.607   1.722  10.739  1.6504 -0.5594 -1.0016
  962MOL0     H26971   1.834   1.765  10.665 -1.7695 -0.8100  0.2317
  962MOL0     H26972   2.097   2.127  10.300 -0.2527  2.9183  0.9058
  962MOL0     H26973   2.336   2.152  10.251 -2.0703  1.0703 -0.5371
  962MOL0     H26974   2.615   2.137  10.576  0.7843  0.6722 -0.9772
  962MOL0     H26975   2.724   2.100  10.457  0.6611 -1.4734  0.0758
  962MOL0     H26976   2.711   1.905  10.603  0.3133 -0.8485 -0.0476
  962MOL0     H26977   2.538   1.884  10.543 -0.5007  1.5270 -0.9159
  962MOL0     H26978   2.753   1.932  10.351 -0.4085  0.5598 -0.8399
  962MOL0     H26979   2.585   1.861  10.335  0.4478  3.6928 -0.4190
  962MOL0     H26980   2.810   1.694  10.446  1.3057 -0.2823 -2.0834
  962MOL0     H26981   2.637   1.647  10.416 -1.5201  0.1280  0.1241
  962MOL0     H26982   2.832   1.678  10.036  1.1903 -0.8515  0.2699
  962MOL0     H26983   2.433   2.051  10.645 -1.2087  1.4269  1.3540
  962MOL0     H26984   2.183   2.047  10.713  1.7360  2.1945 -0.5682
  963MOL0     O26985  11.284   6.512   3.083 -0.4260  0.1729  0.2004
  963MOL0     C26986  11.386   6.507   3.015  0.3957  0.0158  0.2829
  963MOL0     O26987  11.419   6.405   2.927  0.3693  0.6403  0.0420
  963MOL0     C26988  11.326   6.349   2.850  0.2798 -0.0127 -0.6436
  963MOL0     C26989  11.183   6.351   2.874 -0.3256 -0.2041 -0.2930
  963MOL0     C26990  11.096   6.271   2.799  0.2917  0.2331  0.7526
  963MOL0     C26991  11.151   6.201   2.686 -0.7320 -0.3272 -0.9444
  963MOL0     O26992  11.083   6.118   2.603 -0.3239 -0.7918  0.0557
  963MOL0     C26993  10.968   6.167   2.549  0.2594  0.0955 -0.5844
  963MOL0     C26994  10.943   6.134   2.405  0.2856 -0.2284  0.1657
  963MOL0     C26995  11.071   6.154   2.320  0.4901 -0.1962 -0.1355
  963MOL0     C26996  11.051   6.123   2.171 -0.4931  0.4421  0.2661
  963MOL0     C26997  11.179   6.130   2.084 -0.7186  1.1510  0.4404
  963MOL0     C26998  11.280   6.242   2.126  0.4963 -0.1553 -0.0040
  963MOL0     C26999  11.406   6.252   2.043 -1.0318  0.4249  0.4297
  963MOL0     C27000  11.492   6.123   2.026  0.3244 -0.0671 -0.2658
  963MOL0     N27001  11.547   6.066   2.147 -0.4282 -0.1155 -0.0925
  963MOL0     C27002  11.650   6.116   2.217 -0.1741 -0.1782  0.0590
  963MOL0     C27003  11.636   6.064   2.335 -0.3114 -0.2945 -0.1342
  963MOL0     C27004  11.740   6.074   2.448  0.1432 -0.9988 -0.2129
  963MOL0     C27005  11.885   6.035   2.413  0.3143 -0.7536  0.1486
  963MOL0     C27006  11.982   6.144   2.408  0.5809  0.1437  0.0084
  963MOL0     C27007  12.128   6.100   2.419 -1.0266  0.2928 -0.7709
  963MOL0     O27008  12.195   6.213   2.362 -0.0103 -0.4619  0.3997
  963MOL0     C27009  12.331   6.216   2.362 -1.1381 -0.8245 -1.0633
  963MOL0     C27010  12.393   6.325   2.304 -0.0987 -0.3804 -0.5464
  963MOL0     C27011  12.530   6.344   2.292  0.5137  0.3731  0.1197
  963MOL0     C27012  12.609   6.236   2.334 -0.5810 -0.5720  0.3871
  963MOL0     C27013  12.752   6.235   2.309 -0.0289 -0.4435 -0.8022
  963MOL0     O27014  12.816   6.108   2.324 -0.1402  0.3479 -0.1087
  963MOL0     C27015  12.946   6.089   2.276 -0.7882 -0.9397  0.8985
  963MOL0     C27016  13.056   6.167   2.324 -0.0516 -0.0536  0.5889
  963MOL0     C27017  13.186   6.148   2.281 -0.5147 -0.3367  0.1207
  963MOL0     C27018  13.214   6.050   2.193 -0.8617  0.2530 -0.2946
  963MOL0     O27019  13.335   6.018   2.142 -0.1099  0.3068 -0.0754
  963MOL0     C27020  13.457   6.067   2.191  0.4950 -0.0227  0.1609
  963MOL0     C27021  13.563   5.966   2.143  0.6991 -0.2258 -1.2851
  963MOL0     C27022  13.704   6.030   2.146 -0.1668 -1.1654  0.1521
  963MOL0     C27023  13.742   6.066   2.292  0.5764 -0.1681 -0.0489
  963MOL0     C27024  13.892   6.109   2.294 -0.2151 -0.2312  0.8448
  963MOL0     C27025  13.991   5.991   2.310  0.1215  0.3055  0.3190
  963MOL0     C27026  14.136   6.031   2.321  0.1795 -0.0683  0.0272
  963MOL0     C27027  14.240   5.924   2.314  1.0333  0.3473  0.1760
  963MOL0    Cl27028  14.404   6.004   2.291  0.3824 -0.0414 -0.3026
  963MOL0     C27029  13.111   5.969   2.143  0.2588 -0.2952  0.1881
  963MOL0     C27030  12.974   5.987   2.188 -0.6301  0.4319  0.3017
  963MOL0     O27031  12.811   6.341   2.296  0.5890 -0.3148  0.7924
  963MOL0     C27032  12.554   6.125   2.393  0.1086 -0.8997  0.0807
  963MOL0     C27033  12.418   6.111   2.416  0.4474  0.1487 -0.1700
  963MOL0     N27034  11.538   5.969   2.333  0.0866  0.6185  0.3718
  963MOL0     N27035  11.481   5.967   2.222 -0.6986  0.2219 -0.0685
  963MOL0     C27036  11.292   6.194   2.678 -0.4389 -1.5190 -0.0015
  963MOL0     C27037  11.374   6.275   2.752  0.0786  0.1807 -1.2806
  963MOL0     C27038  11.489   6.601   3.037 -0.3534  0.0102  0.3791
  963MOL0     C27039  11.458   6.735   3.046 -0.2846 -0.0477 -0.6713
  963MOL0     C27040  11.558   6.837   3.035  0.5415 -0.3474 -0.5222
  963MOL0     C27041  11.689   6.794   3.010  1.3115  0.0506 -0.0493
  963MOL0     O27042  11.795   6.882   3.003 -0.4289 -0.2147 -0.1754
  963MOL0     C27043  11.783   7.029   3.019 -0.7653  0.4827 -0.4751
  963MOL0     C27044  11.908   7.090   2.957 -0.0347 -0.2210 -0.0141
  963MOL0     C27045  11.880   7.231   2.892  0.7469  0.3505  0.0803
  963MOL0     C27046  11.984   7.331   2.946  0.4003  0.4085  0.1758
  963MOL0     C27047  12.086   7.374   2.852 -0.0152  0.0829  0.4321
  963MOL0     C27048  12.180   7.417   2.785 -0.2503 -0.1766  0.6234
  963MOL0     C27049  11.720   6.651   3.013  0.5917  0.2311  0.0611
  963MOL0     C27050  11.620   6.555   3.024  0.4902 -0.1416 -0.2295
  963MOL0     H27051  11.134   6.412   2.950 -0.1378 -0.9923  0.4800
  963MOL0     H27052  10.989   6.269   2.815 -0.0203  3.5956 -0.2302
  963MOL0     H27053  10.965   6.276   2.560 -1.6211 -0.0649  0.7644
  963MOL0     H27054  10.894   6.135   2.622  3.4841 -2.3738  1.9139
  963MOL0     H27055  10.866   6.202   2.367  0.9970 -0.5722 -2.0231
  963MOL0     H27056  10.905   6.032   2.403  2.1535 -1.0103  1.4698
  963MOL0     H27057  11.149   6.087   2.356 -0.8445 -1.3002  0.8281
  963MOL0     H27058  11.114   6.253   2.339 -1.6116  0.5882  0.9469
  963MOL0     H27059  11.008   6.023   2.161  0.4105  0.1897 -1.6405
  963MOL0     H27060  10.982   6.196   2.128 -1.3005 -1.1770 -1.3575
  963MOL0     H27061  11.162   6.144   1.976  1.1128  1.6417  0.1920
  963MOL0     H27062  11.232   6.037   2.105  2.4590  2.3361 -1.5238
  963MOL0     H27063  11.314   6.237   2.230  0.6880 -1.8942 -0.1183
  963MOL0     H27064  11.233   6.340   2.117  0.3142 -0.3386 -1.2649
  963MOL0     H27065  11.382   6.301   1.949 -2.5394 -0.0050  0.5554
  963MOL0     H27066  11.463   6.325   2.100  0.3340 -0.8849  0.8196
  963MOL0     H27067  11.580   6.144   1.965 -0.7405  2.1150 -1.1526
  963MOL0     H27068  11.422   6.051   1.982 -3.3275  0.5534  3.8329
  963MOL0     H27069  11.727   6.183   2.181 -0.8197  2.1723  2.6900
  963MOL0     H27070  11.724   6.009   2.535  0.4144 -1.8372 -0.7802
  963MOL0     H27071  11.743   6.178   2.482  0.9648 -0.0226 -3.0745
  963MOL0     H27072  11.875   5.990   2.314 -0.1727  0.6432 -0.4625
  963MOL0     H27073  11.921   5.953   2.476 -2.5268  0.2783  3.4308
  963MOL0     H27074  11.967   6.214   2.325 -0.7401  0.9305  0.8763
  963MOL0     H27075  11.969   6.203   2.499 -1.5503  0.9239 -0.7404
  963MOL0     H27076  12.148   6.012   2.358 -0.9052 -0.9462  0.9811
  963MOL0     H27077  12.140   6.079   2.525 -3.5585 -3.2457 -1.0041
  963MOL0     H27078  12.335   6.410   2.271  2.2623  1.3659 -0.4524
  963MOL0     H27079  12.584   6.432   2.259  0.3261  0.3588 -0.2242
  963MOL0     H27080  13.043   6.248   2.395 -1.3187  1.6693 -1.4984
  963MOL0     H27081  13.271   6.203   2.321 -2.2322  1.5432  1.3473
  963MOL0     H27082  13.464   6.056   2.300 -0.8573 -1.5065  0.1531
  963MOL0     H27083  13.481   6.168   2.159  0.0134  0.1026  0.1861
  963MOL0     H27084  13.530   5.923   2.049 -1.6655 -0.0789 -0.5911
  963MOL0     H27085  13.546   5.882   2.211 -1.2498  0.2392 -1.1311
  963MOL0     H27086  13.717   6.127   2.097  0.6191  0.4310  3.2125
  963MOL0     H27087  13.779   5.960   2.110  1.2238  0.3748 -0.0878
  963MOL0     H27088  13.685   6.149   2.334  1.4441 -1.1113  3.3331
  963MOL0     H27089  13.729   5.976   2.352 -0.2056 -0.9986 -1.4010
  963MOL0     H27090  13.898   6.175   2.381  1.1158 -0.0865  0.6521
  963MOL0     H27091  13.909   6.172   2.207 -0.9939 -1.2981 -0.1065
  963MOL0     H27092  13.988   5.913   2.234  3.8137  0.9701 -0.7298
  963MOL0     H27093  13.963   5.934   2.399 -1.1121 -0.1089 -0.3095
  963MOL0     H27094  14.161   6.094   2.235  0.8801 -1.1418 -0.5879
  963MOL0     H27095  14.165   6.088   2.409  2.1280  1.9269 -1.7807
  963MOL0     H27096  14.217   5.855   2.232 -0.2392  2.5741 -1.4242
  963MOL0     H27097  14.225   5.858   2.400 -2.2676  0.5046 -0.1662
  963MOL0     H27098  13.128   5.879   2.084 -2.8066 -0.3494 -0.7885
  963MOL0     H27099  12.900   5.922   2.141  2.1168 -3.4871  0.9261
  963MOL0     H27100  12.610   6.042   2.438 -1.2585 -2.3288 -0.7520
  963MOL0     H27101  12.394   6.016   2.462  0.6785  0.2743  0.2078
  963MOL0     H27102  11.325   6.132   2.595  0.7403 -0.7757 -0.1126
  963MOL0     H27103  11.481   6.261   2.739  0.1494 -0.9125  0.2091
  963MOL0     H27104  11.356   6.767   3.065 -0.1840 -0.4012  0.5824
  963MOL0     H27105  11.542   6.943   3.048 -0.5104 -0.4511 -0.8698
  963MOL0     H27106  11.768   7.053   3.125 -2.4822 -1.6137 -0.1730
  963MOL0     H27107  11.695   7.064   2.965 -1.8374 -1.2263  0.0757
  963MOL0     H27108  11.976   7.090   3.043 -0.9176  0.1815  0.7007
  963MOL0     H27109  11.939   7.022   2.877 -1.3569 -2.4063  1.2082
  963MOL0     H27110  11.781   7.268   2.918 -0.7032 -3.4505  0.6332
  963MOL0     H27111  11.890   7.224   2.783  0.6890  0.3610  0.0744
  963MOL0     H27112  11.936   7.413   3.001  0.8544 -0.4887  2.0160
  963MOL0     H27113  12.032   7.283   3.032 -1.1319  0.1711  0.9391
  963MOL0     H27114  12.274   7.448   2.746 -1.8291  1.4111 -2.1821
  963MOL0     H27115  11.822   6.614   3.009  0.1002 -1.0754 -2.5213
  963MOL0     H27116  11.639   6.449   3.014 -0.0060 -0.2988  0.4052
  964MOL0     O27117   3.557  10.289   8.419  0.3001  0.1663 -0.0242
  964MOL0     C27118   3.632  10.322   8.511 -0.1227 -0.8867  0.9425
  964MOL0     O27119   3.591  10.393   8.621  0.3521 -0.6391 -0.2722
  964MOL0     C27120   3.453  10.413   8.624 -1.1754 -0.5955 -1.0333
  964MOL0     C27121   3.384  10.532   8.624  0.1714  0.2594 -0.9638
  964MOL0     C27122   3.245  10.535   8.630 -0.1399 -0.2058  0.8240
  964MOL0     C27123   3.179  10.412   8.653  0.8409 -0.1660  0.3078
  964MOL0     O27124   3.040  10.409   8.674  0.2357  0.1506  0.5971
  964MOL0     C27125   2.966  10.400   8.550 -0.3635  0.0399 -0.3582
  964MOL0     C27126   2.823  10.437   8.581 -0.5165 -0.1614 -0.2185
  964MOL0     C27127   2.728  10.388   8.459 -0.0479 -0.6309 -1.2800
  964MOL0     C27128   2.623  10.495   8.434  0.2919 -0.3869 -0.6405
  964MOL0     C27129   2.517  10.435   8.338 -0.3980 -0.1692  0.0641
  964MOL0     C27130   2.429  10.327   8.397  0.1264 -0.8721  0.4158
  964MOL0     C27131   2.306  10.290   8.304 -0.2742 -0.1389 -0.4836
  964MOL0     C27132   2.230  10.169   8.365 -0.3046  0.5336 -0.7390
  964MOL0     N27133   2.110  10.107   8.300  0.1035  0.0306 -0.4402
  964MOL0     C27134   1.983  10.173   8.282 -0.1219 -0.0006 -0.3847
  964MOL0     C27135   1.909  10.083   8.213 -0.6952 -0.6473  0.9155
  964MOL0     C27136   1.773  10.116   8.155  1.0468 -0.0531  0.1612
  964MOL0     C27137   1.712   9.994   8.093 -0.3363 -0.9036  0.6792
  964MOL0     C27138   1.583  10.025   8.014 -0.0296  0.3124 -0.4919
  964MOL0     C27139   1.461  10.029   8.105 -1.1993 -0.6605  0.2334
  964MOL0     O27140   1.352  10.087   8.028  0.1684 -0.3540 -0.2565
  964MOL0     C27141   1.223  10.066   8.076 -0.2207 -0.6029  1.4129
  964MOL0     C27142   1.131  10.156   8.028 -1.3234 -0.0438 -0.3745
  964MOL0     C27143   0.995  10.140   8.062  0.1691 -0.8792  0.1124
  964MOL0     C27144   0.960  10.034   8.138  0.0730  0.0147 -1.0494
  964MOL0     C27145   0.815  10.012   8.175 -0.2032  0.2564 -0.4561
  964MOL0     O27146   0.721  10.088   8.121  0.6996 -0.7003  0.9754
  964MOL0     C27147   0.587  10.080   8.157  0.1428 -0.7329  1.1501
  964MOL0     C27148   0.529  10.047   8.280  0.4627  0.4202  0.0036
  964MOL0     C27149   0.390  10.028   8.287 -0.6397  0.0880 -0.3786
  964MOL0     C27150   0.304  10.048   8.184 -0.6106 -0.3366 -0.0350
  964MOL0     O27151   0.173  10.030   8.207  0.1409 -0.0033 -0.4030
  964MOL0     C27152   0.077  10.084   8.107 -0.6535 -0.9241 -0.7617
  964MOL0     C27153  -0.054  10.045   8.154  0.1421 -0.3861  0.1665
  964MOL0     C27154  -0.168  10.085   8.058 -0.5278 -0.1126 -1.6692
  964MOL0     C27155  -0.299  10.027   8.121  0.3110 -0.2027  0.6123
  964MOL0     C27156  -0.416  10.031   8.024 -0.0799 -0.4774 -0.0468
  964MOL0     C27157  -0.545   9.972   8.087 -1.1271  0.4461  0.7049
  964MOL0     C27158  -0.677   9.989   8.016 -0.6161  0.1826  0.0593
  964MOL0     C27159  -0.717   9.873   7.935 -0.1943  1.5396  1.4013
  964MOL0    Cl27160  -0.752   9.721   8.024 -0.2180  0.4421  0.0288
  964MOL0     C27161   0.357  10.092   8.065 -0.2710  0.9331  0.3106
  964MOL0     C27162   0.500  10.112   8.051  0.7589 -0.1361 -0.2052
  964MOL0     O27163   0.791   9.918   8.248 -0.3427  0.7047 -0.7320
  964MOL0     C27164   1.061   9.960   8.200  0.3041 -0.3496  0.8419
  964MOL0     C27165   1.191   9.977   8.172  0.2757 -0.3114 -0.0505
  964MOL0     N27166   1.992   9.978   8.186 -0.2325  0.0400  0.5754
  964MOL0     N27167   2.106   9.983   8.242  0.0435 -0.0808 -0.4200
  964MOL0     C27168   3.243  10.296   8.674 -0.1471 -0.5215  0.0141
  964MOL0     C27169   3.379  10.296   8.652 -0.2796  0.5048 -0.7839
  964MOL0     C27170   3.773  10.260   8.497  1.1199 -0.3615 -0.9955
  964MOL0     C27171   3.881  10.312   8.571 -1.2235  0.0100  0.1486
  964MOL0     C27172   4.009  10.267   8.558 -0.0069  0.1156 -0.2853
  964MOL0     C27173   4.031  10.157   8.469  0.0114  0.5890 -0.3995
  964MOL0     O27174   4.158  10.106   8.450 -0.3388 -0.0107 -0.0747
  964MOL0     C27175   4.231  10.085   8.582 -0.0923 -0.0297 -0.6020
  964MOL0     C27176   4.368  10.029   8.588 -0.1567  0.6845 -0.1699
  964MOL0     C27177   4.408  10.016   8.734  0.0131  0.3617 -0.2561
  964MOL0     C27178   4.555   9.975   8.732  0.6625 -0.2162  1.2978
  964MOL0     C27179   4.620  10.025   8.853  0.8319 -0.2675  0.4844
  964MOL0     C27180   4.654  10.076   8.960  0.4517 -0.3139 -0.1990
  964MOL0     C27181   3.926  10.107   8.393  0.2113 -0.8452  0.5082
  964MOL0     C27182   3.798  10.158   8.403 -0.0651  0.5306 -0.8235
  964MOL0     H27183   3.430  10.631   8.623 -0.6331  0.6430 -0.7531
  964MOL0     H27184   3.193  10.628   8.611 -0.5208 -0.9428 -2.4622
  964MOL0     H27185   2.982  10.304   8.499  1.0625  1.8072 -3.5296
  964MOL0     H27186   3.001  10.473   8.476  1.9231 -1.2012 -0.5895
  964MOL0     H27187   2.820  10.546   8.587  0.1784 -0.1035 -0.8004
  964MOL0     H27188   2.784  10.396   8.675  0.7823 -1.7799 -0.3286
  964MOL0     H27189   2.678  10.298   8.495  2.6619 -1.1934  1.5329
  964MOL0     H27190   2.796  10.384   8.373  2.1254  0.7696  0.2518
  964MOL0     H27191   2.571  10.530   8.523  0.6610  1.7956 -1.2383
  964MOL0     H27192   2.675  10.578   8.385 -1.9752  0.6436 -1.4075
  964MOL0     H27193   2.568  10.402   8.247  0.2406 -4.5335  1.8087
  964MOL0     H27194   2.457  10.521   8.305  1.3193  0.2342 -2.2478
  964MOL0     H27195   2.386  10.361   8.491 -1.3468  0.6576 -0.7451
  964MOL0     H27196   2.488  10.237   8.417  2.6030  1.0215  2.2630
  964MOL0     H27197   2.237  10.375   8.298 -1.9695 -1.3818  0.5054
  964MOL0     H27198   2.334  10.264   8.202  0.8150 -3.4771  0.5497
  964MOL0     H27199   2.188  10.199   8.461  1.0648  1.4717 -0.3919
  964MOL0     H27200   2.313  10.097   8.366  2.5868  3.5916 -0.2362
  964MOL0     H27201   1.940  10.269   8.308 -3.2400 -0.9837 -1.3262
  964MOL0     H27202   1.785  10.200   8.087  0.1074  1.4897  1.8085
  964MOL0     H27203   1.704  10.152   8.233  1.5361 -0.8103  0.9633
  964MOL0     H27204   1.695   9.921   8.172  1.2011 -1.6703  0.3281
  964MOL0     H27205   1.787   9.953   8.024  0.0380  2.4127 -1.0891
  964MOL0     H27206   1.588  10.119   7.959 -2.9933  1.3326  0.8054
  964MOL0     H27207   1.567   9.943   7.943  0.2248  0.4321 -0.6876
  964MOL0     H27208   1.492  10.086   8.193  1.2135 -1.5909  0.0694
  964MOL0     H27209   1.434   9.927   8.133 -1.1043 -0.6667  0.3022
  964MOL0     H27210   1.173  10.247   7.986  0.4488 -0.6841 -0.0718
  964MOL0     H27211   0.918  10.212   8.036  0.6551 -0.1715  0.6007
  964MOL0     H27212   0.600  10.030   8.361 -0.6245 -2.2142  0.5015
  964MOL0     H27213   0.349  10.012   8.386 -1.5971  3.2360 -0.1777
  964MOL0     H27214   0.085  10.056   8.002 -1.2822 -0.5055 -0.9238
  964MOL0     H27215   0.086  10.193   8.103  2.0929 -0.9400  1.2971
  964MOL0     H27216  -0.084  10.081   8.253 -1.4789 -1.8047  0.2267
  964MOL0     H27217  -0.054   9.937   8.164 -0.4884 -0.3470  0.6537
  964MOL0     H27218  -0.152  10.041   7.958 -1.6786  0.6942 -2.2209
  964MOL0     H27219  -0.165  10.192   8.039  2.1581 -0.2502 -2.5676
  964MOL0     H27220  -0.283   9.923   8.151  3.5557  0.5838  2.0247
  964MOL0     H27221  -0.336  10.094   8.199  1.5668  0.8882  0.2865
  964MOL0     H27222  -0.400   9.969   7.935  1.2407 -0.4311  0.1391
  964MOL0     H27223  -0.433  10.129   7.977  3.6744 -0.2882 -1.3309
  964MOL0     H27224  -0.578  10.001   8.187 -3.4307 -0.8852  0.4200
  964MOL0     H27225  -0.515   9.867   8.098 -0.6992  0.5237  0.2951
  964MOL0     H27226  -0.751  10.009   8.094  3.2789  0.1764  4.1495
  964MOL0     H27227  -0.674  10.066   7.939  1.5274  1.2766  1.1382
  964MOL0     H27228  -0.642   9.853   7.858 -2.5955 -0.6797 -0.5333
  964MOL0     H27229  -0.796   9.903   7.866 -0.3621 -3.3785 -0.9412
  964MOL0     H27230   0.301  10.117   7.976  1.5447  1.4180 -0.7515
  964MOL0     H27231   0.540  10.146   7.956 -2.0472  0.0086 -1.4438
  964MOL0     H27232   1.039   9.885   8.276  2.7849 -1.7683  0.2679
  964MOL0     H27233   1.261   9.923   8.235 -1.2007  0.3125  2.2769
  964MOL0     H27234   3.183  10.210   8.700 -0.0213 -0.9531 -1.0506
  964MOL0     H27235   3.420  10.196   8.652 -0.3736  0.4646 -0.9977
  964MOL0     H27236   3.880  10.397   8.639  1.5163  3.3699 -3.4878
  964MOL0     H27237   4.075  10.327   8.620 -1.4278 -2.2440  3.8942
  964MOL0     H27238   4.172  10.010   8.635 -1.1048  0.5824 -0.8418
  964MOL0     H27239   4.232  10.171   8.649 -1.7867 -0.6669  0.2971
  964MOL0     H27240   4.365   9.929   8.544  0.1094  0.4413  0.3429
  964MOL0     H27241   4.429  10.109   8.546 -1.0135  2.4125  1.7237
  964MOL0     H27242   4.355   9.929   8.775  1.0573  0.2896  1.0102
  964MOL0     H27243   4.386  10.101   8.799  1.1224 -0.2377  0.9663
  964MOL0     H27244   4.577   9.868   8.729 -2.6713 -1.0095 -1.9826
  964MOL0     H27245   4.606  10.008   8.640 -0.3024 -2.0198  0.0476
  964MOL0     H27246   4.694  10.117   9.051 -1.8497  0.6517  0.4479
  964MOL0     H27247   3.945  10.034   8.315 -2.3074 -1.8311  0.7071
  964MOL0     H27248   3.724  10.116   8.336  1.0892 -2.6122 -0.3103
  965MOL0     O27249   8.372  10.390  11.292  0.3561  0.5348  0.6842
  965MOL0     C27250   8.342  10.423  11.171 -0.6966 -0.4904  0.0949
  965MOL0     O27251   8.416  10.403  11.062  0.4070 -0.2687  0.0083
  965MOL0     C27252   8.546  10.355  11.056  0.4195 -0.0067  0.4032
  965MOL0     C27253   8.566  10.266  10.947 -0.0124  0.8477  0.1395
  965MOL0     C27254   8.696  10.206  10.933  0.1876  0.5652  0.1710
  965MOL0     C27255   8.793  10.220  11.028 -0.5942  0.3124 -0.2918
  965MOL0     O27256   8.914  10.155  11.008 -0.3880 -0.5636 -0.2468
  965MOL0     C27257   8.958  10.148  10.879 -0.0316  0.0098 -0.5504
  965MOL0     C27258   9.117  10.140  10.887 -0.6371  1.1312 -0.0036
  965MOL0     C27259   9.183  10.270  10.919  0.4759  0.5525 -0.5733
  965MOL0     C27260   9.334  10.240  10.942  0.1140 -0.4546  0.1420
  965MOL0     C27261   9.431  10.351  10.926  0.1469 -0.2615 -0.1988
  965MOL0     C27262   9.405  10.455  11.023 -0.2231 -0.2578 -0.0077
  965MOL0     C27263   9.493  10.580  11.014 -0.4676  0.1246  1.4106
  965MOL0     C27264   9.483  10.654  10.884  0.7244 -0.7160  0.0750
  965MOL0     N27265   9.346  10.680  10.843 -0.2263 -0.4089 -0.5183
  965MOL0     C27266   9.279  10.636  10.728  0.3073  0.8178 -0.5559
  965MOL0     C27267   9.159  10.693  10.719 -0.5864  1.0644 -0.2394
  965MOL0     C27268   9.077  10.675  10.601  0.6634 -0.0140 -0.3128
  965MOL0     C27269   9.018  10.531  10.597  0.1474 -0.0275 -0.0175
  965MOL0     C27270   8.894  10.512  10.696  0.2327  0.0880  0.3297
  965MOL0     C27271   8.775  10.582  10.638 -0.1630  0.1206  0.7490
  965MOL0     O27272   8.682  10.592  10.751 -0.3011 -0.7320  0.4975
  965MOL0     C27273   8.565  10.654  10.724 -0.7074  0.1909  0.1978
  965MOL0     C27274   8.561  10.794  10.740 -0.3741  0.2304  0.3101
  965MOL0     C27275   8.440  10.863  10.731  0.1474  0.2252 -0.4694
  965MOL0     C27276   8.325  10.802  10.682  0.6041 -0.5192 -0.3843
  965MOL0     C27277   8.203  10.873  10.668 -0.9226 -0.7047  1.4561
  965MOL0     O27278   8.233  11.003  10.649 -0.2972  0.2995  0.4039
  965MOL0     C27279   8.127  11.088  10.649 -0.3276 -0.6560  0.1464
  965MOL0     C27280   8.135  11.192  10.553 -0.5831  1.2576 -0.1366
  965MOL0     C27281   8.055  11.303  10.552 -0.2238 -0.1810 -0.0412
  965MOL0     C27282   7.959  11.312  10.646 -0.6137  0.1988 -0.2893
  965MOL0     O27283   7.879  11.422  10.634  0.2821  0.2000 -0.5102
  965MOL0     C27284   7.871  11.512  10.742  0.1559  0.1614 -0.1437
  965MOL0     C27285   7.744  11.583  10.749  1.0199 -0.5609  0.6530
  965MOL0     C27286   7.750  11.700  10.855 -0.2276  0.2309 -0.2010
  965MOL0     C27287   7.616  11.763  10.882 -0.6933  0.3553  0.3716
  965MOL0     C27288   7.632  11.882  10.983  0.0784  0.0497  0.2893
  965MOL0     C27289   7.498  11.957  11.006  1.0051 -0.1165 -0.8968
  965MOL0     C27290   7.413  11.873  11.101 -0.2102  0.1217 -0.1152
  965MOL0     C27291   7.264  11.914  11.106  0.4965 -0.0471 -0.2110
  965MOL0    Cl27292   7.179  11.865  11.256  0.3304  0.3566 -0.1200
  965MOL0     C27293   7.948  11.213  10.748 -0.0909 -0.2092  0.1799
  965MOL0     C27294   8.032  11.097  10.748  0.5461 -0.1315 -0.2517
  965MOL0     O27295   8.093  10.825  10.684 -0.5681  0.5672  0.8215
  965MOL0     C27296   8.328  10.659  10.675  0.3998 -0.6049 -0.7676
  965MOL0     C27297   8.442  10.587  10.700 -0.2783  0.0674  0.2504
  965MOL0     N27298   9.154  10.787  10.821  0.0354  0.2518  0.2506
  965MOL0     N27299   9.261  10.777  10.896 -0.1771 -0.7156 -0.2449
  965MOL0     C27300   8.772  10.305  11.137 -0.1669 -0.1070  0.0809
  965MOL0     C27301   8.651  10.378  11.152  0.7993 -0.4755 -0.5984
  965MOL0     C27302   8.222  10.501  11.162  0.1119  0.4516  0.0979
  965MOL0     C27303   8.160  10.515  11.038 -1.1163  0.8696 -0.4637
  965MOL0     C27304   8.046  10.596  11.016 -0.0403 -0.2218 -0.1710
  965MOL0     C27305   7.989  10.664  11.131  0.3787 -0.2315  0.6115
  965MOL0     O27306   7.878  10.748  11.134  0.4978  0.4006 -0.2871
  965MOL0     C27307   7.788  10.740  11.016 -0.4254 -0.4128 -0.4601
  965MOL0     C27308   7.679  10.852  11.026 -0.6395  0.3839 -0.2843
  965MOL0     C27309   7.712  10.987  10.963 -0.8455  0.3941 -0.7286
  965MOL0     C27310   7.591  11.064  10.945 -0.0203 -0.8689 -0.0439
  965MOL0     C27311   7.519  11.095  11.073 -0.3026  1.2399  0.0840
  965MOL0     C27312   7.453  11.096  11.176  0.2240  0.0961 -0.0660
  965MOL0     C27313   8.046  10.642  11.259  0.4086 -0.3219  0.2983
  965MOL0     C27314   8.162  10.557  11.271 -0.1224 -0.3980 -0.4506
  965MOL0     H27315   8.486  10.252  10.875  0.7475  3.3602 -1.3339
  965MOL0     H27316   8.709  10.151  10.841 -0.3197 -0.2783  0.5902
  965MOL0     H27317   8.947  10.241  10.822  2.0763  2.5466  2.7797
  965MOL0     H27318   8.924  10.069  10.813 -1.4520  2.3125 -2.7455
  965MOL0     H27319   9.152  10.110  10.788 -3.2621 -2.8596  0.0446
  965MOL0     H27320   9.134  10.064  10.963 -0.5805 -0.0522 -1.1595
  965MOL0     H27321   9.140  10.306  11.013 -1.1982  1.0317 -1.4786
  965MOL0     H27322   9.160  10.349  10.846 -1.7561  0.8035  0.3190
  965MOL0     H27323   9.328  10.195  11.041 -1.4174  0.7716  0.6556
  965MOL0     H27324   9.375  10.155  10.887  0.8807  0.2117 -0.3307
  965MOL0     H27325   9.439  10.396  10.827  0.9950  1.7279  0.7150
  965MOL0     H27326   9.527  10.304  10.948 -0.3587 -1.5974 -0.7215
  965MOL0     H27327   9.420  10.413  11.123 -1.1102 -0.1931  0.1643
  965MOL0     H27328   9.300  10.486  11.013 -0.0987  0.0475 -0.3800
  965MOL0     H27329   9.462  10.653  11.088  1.4614  1.7120  0.7461
  965MOL0     H27330   9.597  10.551  11.032  1.4108  4.1436 -1.4265
  965MOL0     H27331   9.542  10.602  10.808  1.1804 -0.7611  0.4525
  965MOL0     H27332   9.535  10.748  10.906 -2.7608  1.5683 -0.6229
  965MOL0     H27333   9.319  10.564  10.656  2.4332 -2.1543  3.2216
  965MOL0     H27334   9.139  10.703  10.515  1.5873  1.6476  0.8344
  965MOL0     H27335   9.007  10.758  10.590 -0.4313 -1.2374 -4.7351
  965MOL0     H27336   9.093  10.454  10.615 -1.4370 -2.7416 -3.7886
  965MOL0     H27337   8.989  10.511  10.493 -0.2755  0.2190  0.0515
  965MOL0     H27338   8.864  10.408  10.714 -0.5142  0.6759  3.0074
  965MOL0     H27339   8.924  10.547  10.795  1.4658 -0.3807  0.1393
  965MOL0     H27340   8.727  10.524  10.559 -1.0328  0.5744  0.9318
  965MOL0     H27341   8.797  10.681  10.596  0.4171 -0.7651 -1.1460
  965MOL0     H27342   8.649  10.855  10.753  0.7361 -0.9593 -1.1647
  965MOL0     H27343   8.449  10.971  10.737 -1.2268  0.4428 -1.7852
  965MOL0     H27344   8.207  11.187  10.472  1.5484 -3.5417  1.6878
  965MOL0     H27345   8.049  11.366  10.464  0.4163  0.6560  0.4957
  965MOL0     H27346   7.968  11.563  10.747  2.9086 -4.3644 -1.6800
  965MOL0     H27347   7.873  11.452  10.833 -3.0785  1.8896  1.2307
  965MOL0     H27348   7.669  11.508  10.774  0.0347  0.0676 -0.3482
  965MOL0     H27349   7.726  11.637  10.656 -0.4762 -1.2088  0.5301
  965MOL0     H27350   7.814  11.783  10.825 -2.4766  1.6246 -1.4487
  965MOL0     H27351   7.775  11.656  10.952 -0.2462 -0.6264 -0.5709
  965MOL0     H27352   7.576  11.800  10.787 -1.7380 -2.0346 -0.2171
  965MOL0     H27353   7.541  11.685  10.897 -0.6747 -0.5973 -3.3852
  965MOL0     H27354   7.696  11.955  10.933 -2.4013  2.7290  0.7563
  965MOL0     H27355   7.678  11.849  11.077  0.7902 -3.1875 -1.0490
  965MOL0     H27356   7.449  11.971  10.909  0.6485  0.0040 -0.6973
  965MOL0     H27357   7.525  12.052  11.051  1.2992 -1.4966  2.0734
  965MOL0     H27358   7.414  11.769  11.068  0.5372  0.0973 -0.0292
  965MOL0     H27359   7.447  11.874  11.205  0.8410  0.7306 -0.4607
  965MOL0     H27360   7.205  11.862  11.031  1.9038  0.1279 -1.4955
  965MOL0     H27361   7.266  12.024  11.109 -1.4614  0.0356  3.6546
  965MOL0     H27362   7.878  11.225  10.830  0.7098 -0.7934  0.9730
  965MOL0     H27363   8.010  11.019  10.820  0.2459  0.2000  0.0188
  965MOL0     H27364   8.235  10.613  10.645  0.1303 -0.8944  0.4771
  965MOL0     H27365   8.448  10.479  10.693  1.6808  0.0619  1.4423
  965MOL0     H27366   8.846  10.304  11.217  1.0874 -2.2619 -1.0227
  965MOL0     H27367   8.639  10.431  11.246  0.4030  1.0471 -1.4645
  965MOL0     H27368   8.198  10.460  10.953 -1.8706 -0.2353 -0.1053
  965MOL0     H27369   8.019  10.630  10.916  1.1819  0.0470 -0.4271
  965MOL0     H27370   7.726  10.652  10.997  0.3339 -0.7226 -1.5699
  965MOL0     H27371   7.846  10.754  10.924  1.5223  5.5012  1.2157
  965MOL0     H27372   7.600  10.827  10.955  0.4064 -1.1046 -0.9606
  965MOL0     H27373   7.650  10.865  11.131 -0.4978  1.4597 -0.3589
  965MOL0     H27374   7.751  10.964  10.864 -0.3035 -4.7353  0.4096
  965MOL0     H27375   7.789  11.032  11.026 -0.3683 -1.7711  0.3402
  965MOL0     H27376   7.622  11.154  10.890 -0.7346 -0.9085 -0.5271
  965MOL0     H27377   7.531  11.006  10.876 -0.4911  0.0213 -0.4002
  965MOL0     H27378   7.395  11.092  11.266 -1.0477 -1.1226 -0.8957
  965MOL0     H27379   8.006  10.684  11.351  1.6912 -0.2589  0.8592
  965MOL0     H27380   8.218  10.536  11.362  0.9702 -2.1826 -1.4864
  966MOL0     O27381   3.764   8.473   7.740  0.0061 -0.3980 -0.3497
  966MOL0     C27382   3.788   8.554   7.833  0.4027  0.2409 -0.5956
  966MOL0     O27383   3.903   8.620   7.854 -0.0206 -0.5315  0.1002
  966MOL0     C27384   4.010   8.597   7.774 -0.7419  0.6972 -0.1977
  966MOL0     C27385   3.998   8.603   7.634  0.1312 -0.3765  0.1567
  966MOL0     C27386   4.107   8.599   7.548  0.9171 -0.0741 -0.3036
  966MOL0     C27387   4.231   8.573   7.595  0.6126 -0.2798 -0.2160
  966MOL0     O27388   4.326   8.554   7.505 -0.4055  0.2456 -0.3501
  966MOL0     C27389   4.459   8.535   7.553 -0.6412  0.0013  0.4790
  966MOL0     C27390   4.554   8.546   7.429  0.2405  0.1364 -0.4618
  966MOL0     C27391   4.696   8.497   7.463  0.6047 -0.7726 -0.5323
  966MOL0     C27392   4.804   8.564   7.375 -0.1914 -0.0192 -0.5219
  966MOL0     C27393   4.939   8.559   7.453 -0.2210 -0.6428  0.0504
  966MOL0     C27394   5.055   8.598   7.351 -0.1476  0.0093 -0.8056
  966MOL0     C27395   5.189   8.586   7.425  0.3485  0.3972 -0.3179
  966MOL0     C27396   5.305   8.646   7.344  0.1014  0.4098  0.2290
  966MOL0     N27397   5.392   8.542   7.287 -0.7336 -0.0416  0.5724
  966MOL0     C27398   5.347   8.435   7.210  0.3048  0.5589  0.9877
  966MOL0     C27399   5.454   8.371   7.173  0.2540  0.4213  0.7998
  966MOL0     C27400   5.471   8.250   7.078 -0.3580  0.1553 -0.3664
  966MOL0     C27401   5.446   8.120   7.168 -0.1828  0.3115 -0.3777
  966MOL0     C27402   5.416   7.976   7.097  0.5600 -0.2437  0.1862
  966MOL0     C27403   5.417   7.865   7.200 -0.3414  0.4943  0.3399
  966MOL0     O27404   5.339   7.751   7.150 -0.7057 -0.0444 -0.0351
  966MOL0     C27405   5.201   7.760   7.156 -0.3611  0.9448  0.2163
  966MOL0     C27406   5.154   7.725   7.280 -0.0430  0.3957 -0.5661
  966MOL0     C27407   5.022   7.731   7.319  0.0887 -0.4240 -0.2078
  966MOL0     C27408   4.929   7.763   7.218 -0.5477  0.0806 -0.0159
  966MOL0     C27409   4.784   7.752   7.248 -0.4171  0.6789 -0.9102
  966MOL0     O27410   4.699   7.856   7.214 -0.3739 -0.1924 -0.6070
  966MOL0     C27411   4.564   7.836   7.237  0.5682  0.9715  0.1994
  966MOL0     C27412   4.512   7.867   7.363  0.0859  0.0452  0.2697
  966MOL0     C27413   4.368   7.857   7.386  0.0387 -0.6087  0.1365
  966MOL0     C27414   4.291   7.810   7.279  1.0088  0.4675  0.8547
  966MOL0     O27415   4.156   7.800   7.281 -0.0375 -0.9459  0.2045
  966MOL0     C27416   4.086   7.820   7.403 -0.1641  0.0003  0.6816
  966MOL0     C27417   3.942   7.748   7.404 -0.6178 -0.8747  0.3002
  966MOL0     C27418   3.922   7.633   7.310 -0.2437  0.7002 -0.4920
  966MOL0     C27419   3.799   7.553   7.337 -0.4155  0.0673  0.5269
  966MOL0     C27420   3.773   7.460   7.223  0.7413 -1.0249 -0.5027
  966MOL0     C27421   3.679   7.340   7.254 -0.3749  0.6733  0.6685
  966MOL0     C27422   3.538   7.369   7.303  0.2798 -0.3968 -0.0976
  966MOL0     C27423   3.439   7.248   7.324  0.2098 -0.0293  1.0861
  966MOL0    Cl27424   3.300   7.328   7.395 -0.2266  0.2442 -0.1631
  966MOL0     C27425   4.348   7.769   7.159  0.1997 -0.3466  0.1507
  966MOL0     C27426   4.478   7.788   7.138 -0.8908  0.1290  0.7633
  966MOL0     O27427   4.738   7.652   7.303 -0.1479  0.2901 -0.6168
  966MOL0     C27428   4.973   7.805   7.090  0.5394 -0.8359 -0.3317
  966MOL0     C27429   5.109   7.805   7.060 -0.5695 -0.2722  0.8011
  966MOL0     N27430   5.558   8.429   7.236 -0.1626 -0.3676  0.2036
  966MOL0     N27431   5.527   8.530   7.301  0.3589  0.3835 -0.0344
  966MOL0     C27432   4.244   8.562   7.736  0.0457  0.0808 -0.3272
  966MOL0     C27433   4.140   8.591   7.827  0.1036  0.5108  0.2424
  966MOL0     C27434   3.659   8.570   7.920 -1.3962  0.2263  0.9021
  966MOL0     C27435   3.551   8.482   7.911 -0.3158  1.2816  1.0872
  966MOL0     C27436   3.453   8.495   8.006 -0.7696  0.5858 -0.3089
  966MOL0     C27437   3.451   8.598   8.093 -0.4994 -0.9954 -0.3272
  966MOL0     O27438   3.351   8.623   8.184 -1.0636  0.3569 -0.3970
  966MOL0     C27439   3.248   8.530   8.209  0.2946  0.1712 -0.1778
  966MOL0     C27440   3.285   8.435   8.311  0.3310  0.4310  0.7401
  966MOL0     C27441   3.180   8.318   8.316 -0.4647  0.3597 -1.2517
  966MOL0     C27442   3.210   8.250   8.440 -0.6528 -0.0559  0.6763
  966MOL0     C27443   3.144   8.116   8.434  0.7663  0.5257 -0.3108
  966MOL0     C27444   3.097   8.002   8.426  0.4188 -0.1032 -0.4920
  966MOL0     C27445   3.564   8.691   8.106 -0.0495  0.1329  0.0553
  966MOL0     C27446   3.671   8.670   8.016  0.1864  0.3787  0.4269
  966MOL0     H27447   3.899   8.626   7.594  0.5367 -0.8091 -1.1262
  966MOL0     H27448   4.101   8.627   7.443 -0.8685  0.8843  0.0124
  966MOL0     H27449   4.477   8.438   7.600 -1.8522 -0.5558 -0.1787
  966MOL0     H27450   4.481   8.616   7.624 -1.8736  0.0222  0.8466
  966MOL0     H27451   4.562   8.653   7.408  0.3838  0.3467  0.6405
  966MOL0     H27452   4.535   8.490   7.337  1.2136 -3.1326  1.1742
  966MOL0     H27453   4.698   8.388   7.449  0.0940 -0.6057 -2.0695
  966MOL0     H27454   4.719   8.515   7.568  0.9772  0.0291 -0.7447
  966MOL0     H27455   4.810   8.513   7.279 -1.0534 -0.6982 -0.2259
  966MOL0     H27456   4.775   8.668   7.353 -3.7151 -0.7598  0.0014
  966MOL0     H27457   4.964   8.457   7.486  1.6306 -0.2007  0.1207
  966MOL0     H27458   4.938   8.629   7.537  3.1588  0.5311 -0.7353
  966MOL0     H27459   5.044   8.700   7.314 -0.2476  1.6284  3.1767
  966MOL0     H27460   5.062   8.524   7.270  3.2696 -2.6678  1.5966
  966MOL0     H27461   5.168   8.632   7.522  1.3610 -0.2844  0.2530
  966MOL0     H27462   5.205   8.478   7.438  0.2081  0.3431 -0.5823
  966MOL0     H27463   5.359   8.708   7.416 -2.6227  0.1481  2.7068
  966MOL0     H27464   5.275   8.707   7.258  0.7717 -0.1909 -0.4402
  966MOL0     H27465   5.251   8.412   7.164  1.6487  0.0762 -1.8327
  966MOL0     H27466   5.575   8.248   7.042 -0.0543 -1.1102  0.5161
  966MOL0     H27467   5.414   8.247   6.984 -2.1826 -0.1441  0.7139
  966MOL0     H27468   5.359   8.136   7.232 -1.0752 -0.3546 -1.3837
  966MOL0     H27469   5.526   8.101   7.240  0.8095 -2.4482 -2.0331
  966MOL0     H27470   5.317   7.977   7.050  0.5418 -0.4168  0.2205
  966MOL0     H27471   5.484   7.970   7.011 -0.1848  1.6294 -0.5932
  966MOL0     H27472   5.375   7.896   7.296 -1.9954  0.3758 -0.3114
  966MOL0     H27473   5.519   7.830   7.219 -0.5981 -0.7856 -0.5508
  966MOL0     H27474   5.233   7.717   7.355 -1.6837 -0.0836  1.1903
  966MOL0     H27475   4.999   7.683   7.413  1.2401  2.0094  1.4140
  966MOL0     H27476   4.587   7.897   7.435 -1.1657 -1.0360  2.0983
  966MOL0     H27477   4.337   7.886   7.486  1.9424 -0.5866  0.7486
  966MOL0     H27478   4.084   7.927   7.426  0.7010  0.3504 -0.7612
  966MOL0     H27479   4.140   7.778   7.489 -1.4280 -0.4503  1.2886
  966MOL0     H27480   3.865   7.819   7.371 -0.1368 -0.5292 -0.1091
  966MOL0     H27481   3.938   7.712   7.507 -1.4700 -4.0185 -0.7441
  966MOL0     H27482   4.011   7.569   7.301  0.2871  1.1333  1.3553
  966MOL0     H27483   3.900   7.680   7.214 -2.5733  1.9525  0.5863
  966MOL0     H27484   3.821   7.488   7.422 -1.0125 -3.0113 -1.5228
  966MOL0     H27485   3.709   7.609   7.366 -0.8625 -1.9099  3.4059
  966MOL0     H27486   3.869   7.415   7.196  1.6332  0.8036 -0.5000
  966MOL0     H27487   3.737   7.524   7.142 -0.6091  3.4645  3.2102
  966MOL0     H27488   3.734   7.276   7.323  2.5615  2.3540  0.0353
  966MOL0     H27489   3.655   7.300   7.156  0.2695  0.7624  0.4710
  966MOL0     H27490   3.547   7.417   7.401  0.1715 -0.8143  0.1184
  966MOL0     H27491   3.491   7.442   7.236 -2.6430 -1.7705  0.2756
  966MOL0     H27492   3.485   7.175   7.392 -1.2093  0.4241  2.6277
  966MOL0     H27493   3.410   7.188   7.237  2.5020 -1.7512  1.4338
  966MOL0     H27494   4.281   7.745   7.078 -0.4048  2.6117 -0.3433
  966MOL0     H27495   4.528   7.772   7.043  0.4755 -0.1675  1.4920
  966MOL0     H27496   4.904   7.824   7.008  0.3212 -0.2244 -0.0111
  966MOL0     H27497   5.142   7.834   6.961 -1.9574  0.7060  0.5883
  966MOL0     H27498   4.341   8.543   7.779  0.0336 -3.8339 -1.6979
  966MOL0     H27499   4.173   8.599   7.930  2.6603  1.5215 -0.5917
  966MOL0     H27500   3.557   8.396   7.845 -2.5335  0.6613  1.6022
  966MOL0     H27501   3.379   8.416   7.995  0.2489 -0.3085 -0.8411
  966MOL0     H27502   3.224   8.484   8.113  0.5359  1.5852 -0.9501
  966MOL0     H27503   3.155   8.583   8.231  1.2670  1.9131 -0.1227
  966MOL0     H27504   3.383   8.388   8.300 -0.5034 -3.2072  5.6246
  966MOL0     H27505   3.273   8.481   8.409 -0.5722 -1.0126  1.3346
  966MOL0     H27506   3.201   8.253   8.231  1.8342  0.9897 -1.2165
  966MOL0     H27507   3.074   8.347   8.309 -0.4857  0.6500 -0.0668
  966MOL0     H27508   3.316   8.232   8.458 -0.0683  2.5781  0.2468
  966MOL0     H27509   3.172   8.310   8.523 -2.7636 -0.6169  0.1840
  966MOL0     H27510   3.060   7.902   8.422 -0.9621  0.2734  1.5002
  966MOL0     H27511   3.561   8.762   8.188 -0.5446 -0.1972  0.3257
  966MOL0     H27512   3.760   8.732   8.011  0.0986  0.4301 -0.5508
  967MOL0     O27513   4.554   2.702   8.868 -0.3548  0.7076 -0.5081
  967MOL0     C27514   4.576   2.787   8.789 -0.5902  0.1625 -0.1490
  967MOL0     O27515   4.477   2.837   8.703  0.1908 -0.0497 -0.6391
  967MOL0     C27516   4.343   2.821   8.743 -0.9126 -0.7246  0.2933
  967MOL0     C27517   4.282   2.924   8.820  1.0154  0.3228  0.0048
  967MOL0     C27518   4.139   2.909   8.850  0.6062 -1.1739  0.2603
  967MOL0     C27519   4.070   2.791   8.827 -0.3912  0.1111 -0.4568
  967MOL0     O27520   3.942   2.773   8.869  0.4612  0.2995  0.1446
  967MOL0     C27521   3.934   2.647   8.941  0.3334  0.0447 -0.1922
  967MOL0     C27522   3.815   2.682   9.030  0.3984  0.3075  0.5269
  967MOL0     C27523   3.847   2.753   9.163  1.5404  0.7446  0.3657
  967MOL0     C27524   3.728   2.774   9.262 -0.0316 -0.1629 -0.6148
  967MOL0     C27525   3.640   2.891   9.214 -0.0040 -0.2669  0.2249
  967MOL0     C27526   3.538   2.923   9.332 -0.0622 -0.1785  0.2653
  967MOL0     C27527   3.446   3.039   9.287 -0.3887  0.4823  0.1769
  967MOL0     C27528   3.350   3.090   9.402  0.0273 -0.2878 -0.2974
  967MOL0     N27529   3.299   3.223   9.375  0.6694 -0.8580  0.1866
  967MOL0     C27530   3.265   3.323   9.470 -0.1074 -0.4796  0.0926
  967MOL0     C27531   3.252   3.434   9.395  1.1478 -0.4438 -0.7015
  967MOL0     C27532   3.236   3.573   9.456  0.1447 -0.6091  0.1508
  967MOL0     C27533   3.086   3.605   9.478 -0.0385 -0.4024  0.0681
  967MOL0     C27534   3.030   3.654   9.341 -0.2779  0.0390 -0.4621
  967MOL0     C27535   2.888   3.713   9.347 -0.4329 -0.2283  0.7733
  967MOL0     O27536   2.789   3.610   9.353 -0.5266 -0.5553  0.4534
  967MOL0     C27537   2.659   3.639   9.353 -0.2666 -0.1862  0.5872
  967MOL0     C27538   2.604   3.761   9.403  0.3817 -0.5208 -0.2066
  967MOL0     C27539   2.464   3.774   9.410 -0.3652 -0.2191 -0.7810
  967MOL0     C27540   2.373   3.669   9.369 -0.1733 -0.4359 -0.2443
  967MOL0     C27541   2.230   3.687   9.346 -1.4659 -0.1260  0.5405
  967MOL0     O27542   2.164   3.786   9.406  0.2024 -0.1342 -0.6070
  967MOL0     C27543   2.036   3.814   9.369 -0.1855  0.0369  0.6067
  967MOL0     C27544   2.028   3.948   9.337 -0.2527  0.1502  0.5149
  967MOL0     C27545   1.906   3.997   9.293 -0.3543 -0.9043  0.3086
  967MOL0     C27546   1.789   3.921   9.277  0.1693 -0.1042 -0.0123
  967MOL0     O27547   1.679   3.995   9.235  0.1452 -0.1691 -0.5643
  967MOL0     C27548   1.591   3.938   9.143 -0.3727 -0.1735 -1.0325
  967MOL0     C27549   1.456   4.009   9.161  0.1976  0.0754  0.6069
  967MOL0     C27550   1.438   4.144   9.099 -0.0840 -0.2313 -0.1457
  967MOL0     C27551   1.301   4.191   9.090  0.4165 -1.2339 -0.7793
  967MOL0     C27552   1.286   4.321   9.002 -1.3699  0.2953  0.6616
  967MOL0     C27553   1.373   4.440   9.056 -0.1614  0.4151  0.1911
  967MOL0     C27554   1.341   4.478   9.196 -0.9202  0.0026  0.4709
  967MOL0     C27555   1.372   4.625   9.211 -1.0401 -0.4145  0.4362
  967MOL0    Cl27556   1.300   4.682   9.360 -0.6311  0.1083  0.2329
  967MOL0     C27557   1.797   3.786   9.314  0.2418 -1.0722 -1.3776
  967MOL0     C27558   1.920   3.729   9.355 -0.0567 -0.3282 -1.9834
  967MOL0     O27559   2.183   3.611   9.258 -0.4362 -0.4879 -0.2625
  967MOL0     C27560   2.429   3.547   9.319 -0.8176  0.6499  0.7907
  967MOL0     C27561   2.573   3.538   9.307  1.0472 -0.2501 -0.4268
  967MOL0     N27562   3.270   3.399   9.263 -0.1633 -0.0393  0.0882
  967MOL0     N27563   3.299   3.276   9.251 -0.4975  0.9304  0.8847
  967MOL0     C27564   4.145   2.691   8.766 -0.2590  0.4352 -0.0059
  967MOL0     C27565   4.275   2.707   8.724  0.4369 -1.1028  0.6832
  967MOL0     C27566   4.712   2.829   8.774  0.5310  0.2776 -1.0063
  967MOL0     C27567   4.747   2.883   8.660  0.0186  0.5304  0.4980
  967MOL0     C27568   4.877   2.935   8.645  0.0951 -0.4918  0.2287
  967MOL0     C27569   4.957   2.950   8.757 -0.5859  0.1639  0.3500
  967MOL0     O27570   5.062   3.033   8.737  0.1582  0.0191 -0.8990
  967MOL0     C27571   5.182   3.024   8.820 -0.1445  0.0002  0.0541
  967MOL0     C27572   5.247   3.161   8.850 -0.6347  0.4070 -0.0017
  967MOL0     C27573   5.401   3.153   8.840  0.0081  0.6822 -0.1407
  967MOL0     C27574   5.460   3.298   8.831  0.9215  0.5351  0.2923
  967MOL0     C27575   5.593   3.315   8.773 -0.2346  0.5183 -1.0673
  967MOL0     C27576   5.704   3.318   8.718 -0.2813  0.1076  0.1790
  967MOL0     C27577   4.925   2.885   8.875  0.5095 -0.9627 -0.2640
  967MOL0     C27578   4.795   2.832   8.887 -0.0902 -0.4481  0.2398
  967MOL0     H27579   4.348   3.008   8.837  0.0941  1.7396 -2.8078
  967MOL0     H27580   4.077   2.986   8.895 -1.1137 -1.1398 -1.9937
  967MOL0     H27581   4.021   2.626   9.003  1.0018  0.4367 -0.9746
  967MOL0     H27582   3.919   2.563   8.872 -2.6369  1.8255 -1.9228
  967MOL0     H27583   3.769   2.589   9.064  2.8461  0.0923  3.7941
  967MOL0     H27584   3.729   2.727   8.980 -0.8492 -1.7817  0.6685
  967MOL0     H27585   3.888   2.851   9.136  1.5142 -0.0392 -2.8258
  967MOL0     H27586   3.917   2.687   9.213  2.4833  0.3492 -1.4170
  967MOL0     H27587   3.666   2.685   9.277 -1.5911  1.2961  2.4318
  967MOL0     H27588   3.764   2.803   9.361  0.2550 -0.7534 -0.5366
  967MOL0     H27589   3.588   2.853   9.126  1.3565 -0.6443 -0.4497
  967MOL0     H27590   3.692   2.983   9.184 -1.3375  0.9645  1.5854
  967MOL0     H27591   3.596   2.948   9.420  3.3193 -1.7668 -1.3387
  967MOL0     H27592   3.486   2.833   9.366 -1.0966  1.7221  4.2935
  967MOL0     H27593   3.498   3.123   9.240 -2.3779 -0.2499 -3.7187
  967MOL0     H27594   3.391   2.996   9.203  1.1487 -4.1150  1.2199
  967MOL0     H27595   3.395   3.092   9.502  0.3778  1.2379 -0.4627
  967MOL0     H27596   3.269   3.019   9.419 -1.1332  0.1913 -3.3251
  967MOL0     H27597   3.251   3.314   9.577  4.1866  3.4388  1.3470
  967MOL0     H27598   3.280   3.648   9.389  0.3762  0.3020  1.2921
  967MOL0     H27599   3.291   3.575   9.550 -0.7734  4.5117  0.9131
  967MOL0     H27600   3.071   3.678   9.557 -1.3179 -1.2977  0.6913
  967MOL0     H27601   3.036   3.510   9.500 -0.2349 -0.7520 -1.6720
  967MOL0     H27602   3.107   3.725   9.308  1.2207 -1.6786 -0.7804
  967MOL0     H27603   3.032   3.570   9.272 -1.5656  1.0005 -1.7299
  967MOL0     H27604   2.884   3.767   9.253 -1.1231  0.1928  1.0367
  967MOL0     H27605   2.873   3.785   9.428 -1.4986  0.8201 -0.3211
  967MOL0     H27606   2.655   3.846   9.446 -1.2737 -0.7658  2.4564
  967MOL0     H27607   2.417   3.863   9.449 -0.7364  0.2498 -2.2462
  967MOL0     H27608   2.115   4.013   9.344 -0.4530  0.3599  1.2298
  967MOL0     H27609   1.899   4.103   9.269 -1.3336 -1.3968 -1.8026
  967MOL0     H27610   1.591   3.835   9.179  4.2496 -0.3939 -1.1753
  967MOL0     H27611   1.631   3.935   9.042  1.1263  0.5279 -0.4775
  967MOL0     H27612   1.440   4.008   9.269  2.5482  0.1319  1.0252
  967MOL0     H27613   1.393   3.939   9.106  1.9322 -2.0887  1.2213
  967MOL0     H27614   1.473   4.139   8.995  3.0121 -1.8647  0.8322
  967MOL0     H27615   1.496   4.220   9.152  0.9312 -0.0023 -1.5119
  967MOL0     H27616   1.247   4.113   9.035 -0.3638  0.2388 -2.1742
  967MOL0     H27617   1.245   4.207   9.182  1.2474 -1.2479 -0.2606
  967MOL0     H27618   1.182   4.353   8.989 -1.7931 -1.2814 -0.0526
  967MOL0     H27619   1.324   4.290   8.904  0.3612  2.0315  0.7229
  967MOL0     H27620   1.345   4.521   8.988 -0.4087  0.1695 -0.0033
  967MOL0     H27621   1.478   4.414   9.043 -0.5285 -0.6940 -0.7114
  967MOL0     H27622   1.234   4.464   9.216 -1.6279  3.3777 -0.2138
  967MOL0     H27623   1.399   4.426   9.272  0.9341  0.0826 -0.8288
  967MOL0     H27624   1.343   4.697   9.133  2.1668 -0.5406 -1.0209
  967MOL0     H27625   1.479   4.641   9.225 -1.1250  1.2889 -0.5617
  967MOL0     H27626   1.704   3.729   9.312 -1.6213  1.7621 -1.2277
  967MOL0     H27627   1.926   3.626   9.390 -1.8679 -0.6830 -2.5866
  967MOL0     H27628   2.371   3.459   9.293  3.1764 -1.8494 -0.5543
  967MOL0     H27629   2.625   3.455   9.259  2.2851  2.5971 -4.5904
  967MOL0     H27630   4.098   2.593   8.758 -0.9438  0.5968  1.7205
  967MOL0     H27631   4.321   2.620   8.678  1.5576 -0.1272 -0.0980
  967MOL0     H27632   4.673   2.911   8.585 -0.0630  1.2896  0.8470
  967MOL0     H27633   4.898   2.985   8.551 -3.3350  1.4214  0.2959
  967MOL0     H27634   5.251   2.960   8.766 -0.7923 -2.2162  1.6787
  967MOL0     H27635   5.165   2.982   8.920  0.4190  1.5935  0.8612
  967MOL0     H27636   5.202   3.230   8.778  1.2801  1.1421 -0.5735
  967MOL0     H27637   5.221   3.179   8.955 -0.0158 -0.2528  0.2721
  967MOL0     H27638   5.427   3.107   8.745 -1.1715  0.2340 -0.2616
  967MOL0     H27639   5.451   3.091   8.916  0.1893  0.9237 -0.0609
  967MOL0     H27640   5.407   3.363   8.761  4.2642  0.6815 -2.3478
  967MOL0     H27641   5.467   3.346   8.930 -0.0950 -0.1238  0.7045
  967MOL0     H27642   5.803   3.317   8.677 -0.8045  1.4792 -1.1942
  967MOL0     H27643   4.977   2.878   8.970 -2.3951 -1.2532  1.4423
  967MOL0     H27644   4.768   2.788   8.982  2.6795  0.3232  1.4599
  968MOL0     O27645   9.222   4.919   1.784  0.2483 -0.7029 -0.6687
  968MOL0     C27646   9.209   4.799   1.779 -0.5951  0.2385 -0.1442
  968MOL0     O27647   9.090   4.741   1.740  0.0815 -0.5861 -0.7757
  968MOL0     C27648   8.988   4.827   1.703  0.5025 -0.6656 -0.1231
  968MOL0     C27649   8.865   4.810   1.774  0.8093  0.0950 -0.1433
  968MOL0     C27650   8.758   4.892   1.737  0.5145 -0.0589 -0.1309
  968MOL0     C27651   8.770   4.992   1.640  0.2040 -0.3494  0.6808
  968MOL0     O27652   8.677   5.085   1.608  0.6349  0.7875 -0.5299
  968MOL0     C27653   8.536   5.060   1.634 -0.6617 -0.2195 -0.6718
  968MOL0     C27654   8.458   5.190   1.601  0.0624 -0.5916  0.7381
  968MOL0     C27655   8.307   5.184   1.630  1.6105 -0.2473  0.2921
  968MOL0     C27656   8.229   5.312   1.586  0.6097  0.1109  0.7957
  968MOL0     C27657   8.071   5.304   1.609 -0.1693 -1.3589 -0.2054
  968MOL0     C27658   8.000   5.431   1.573 -0.1719  0.1353  0.1147
  968MOL0     C27659   7.856   5.430   1.629 -0.7850 -0.3378 -0.5322
  968MOL0     C27660   7.752   5.513   1.537 -0.6549  0.2642  0.1043
  968MOL0     N27661   7.616   5.499   1.589 -0.1128  0.1385  0.3585
  968MOL0     C27662   7.542   5.381   1.590  0.7260 -0.4800 -0.8483
  968MOL0     C27663   7.414   5.426   1.614 -0.4808 -0.2977 -1.0544
  968MOL0     C27664   7.278   5.345   1.630  0.5232 -0.6686  0.1989
  968MOL0     C27665   7.289   5.205   1.558  0.4618 -0.4839 -0.5857
  968MOL0     C27666   7.147   5.145   1.559  1.1601  0.2860  0.5996
  968MOL0     C27667   7.139   5.007   1.487 -0.2335  0.0083  0.5274
  968MOL0     O27668   7.159   5.024   1.346 -0.1933  0.0542  0.4997
  968MOL0     C27669   7.041   5.041   1.277 -0.0415  0.3614 -0.1784
  968MOL0     C27670   6.975   5.160   1.276  0.7862  0.0269 -0.5253
  968MOL0     C27671   6.849   5.162   1.213 -0.5640 -0.1446  0.0669
  968MOL0     C27672   6.791   5.056   1.153 -0.2724  0.1522  0.1314
  968MOL0     C27673   6.663   5.070   1.080  1.0552 -0.1014  0.4650
  968MOL0     O27674   6.620   5.204   1.049  0.4695 -0.2125 -0.6669
  968MOL0     C27675   6.504   5.210   0.972  0.5548 -1.2368  0.0169
  968MOL0     C27676   6.377   5.197   1.030 -0.3479 -0.1114 -0.3205
  968MOL0     C27677   6.255   5.224   0.958 -0.9490 -0.2229  0.3090
  968MOL0     C27678   6.275   5.259   0.820 -0.5758  0.4432 -1.1440
  968MOL0     O27679   6.159   5.288   0.755 -0.5049  0.1345 -0.5174
  968MOL0     C27680   6.161   5.369   0.633 -0.1739  0.5814 -0.5757
  968MOL0     C27681   6.042   5.461   0.616  0.1947 -1.1050 -0.2368
  968MOL0     C27682   5.907   5.416   0.680 -0.4050 -0.5234  0.3614
  968MOL0     C27683   5.788   5.519   0.658  0.2352 -0.6777 -0.0844
  968MOL0     C27684   5.649   5.454   0.691 -0.3167  0.7815 -0.3900
  968MOL0     C27685   5.530   5.553   0.704  0.2308 -0.0060 -0.0759
  968MOL0     C27686   5.404   5.468   0.694 -0.4925 -0.2190 -0.2686
  968MOL0     C27687   5.281   5.528   0.756 -0.5014 -0.1759  0.2788
  968MOL0    Cl27688   5.210   5.639   0.637  0.2393  0.1736 -0.2026
  968MOL0     C27689   6.403   5.269   0.752  0.3806 -0.1343 -0.4822
  968MOL0     C27690   6.514   5.247   0.838 -0.9105 -0.2365 -0.4632
  968MOL0     O27691   6.604   4.968   1.043  0.5480 -0.7049  0.4805
  968MOL0     C27692   6.861   4.942   1.149  0.6556  0.0275  0.1533
  968MOL0     C27693   6.988   4.931   1.206  0.4940  0.9055 -0.0176
  968MOL0     N27694   7.410   5.560   1.640 -0.5610  0.0106  0.1302
  968MOL0     N27695   7.536   5.605   1.624  0.3635  0.1236 -0.2899
  968MOL0     C27696   8.882   5.002   1.557  0.3268 -1.1394 -0.2596
  968MOL0     C27697   8.990   4.915   1.588  0.1777  0.2130 -0.0642
  968MOL0     C27698   9.339   4.727   1.778 -0.3463 -0.0522 -0.4824
  968MOL0     C27699   9.378   4.636   1.682  0.4574 -0.6427 -0.8272
  968MOL0     C27700   9.510   4.585   1.677  0.2402  0.4716 -0.9951
  968MOL0     C27701   9.606   4.612   1.780  0.0975 -0.1181  0.2465
  968MOL0     O27702   9.738   4.573   1.782  0.3940  0.0220 -0.6038
  968MOL0     C27703   9.749   4.432   1.790  0.1177 -0.2312 -0.0935
  968MOL0     C27704   9.875   4.395   1.723  0.5691  0.2322 -0.3104
  968MOL0     C27705   9.893   4.242   1.741  0.5231 -1.0212 -0.1357
  968MOL0     C27706   9.998   4.186   1.650 -0.2430 -0.7028  1.2385
  968MOL0     C27707  10.129   4.254   1.677 -0.4703  0.2389  0.3045
  968MOL0     C27708  10.248   4.296   1.689 -0.3218  0.2467  0.6633
  968MOL0     C27709   9.559   4.698   1.877 -0.5812  0.8145 -0.6352
  968MOL0     C27710   9.436   4.764   1.870  0.5759  0.3849 -0.5036
  968MOL0     H27711   8.856   4.740   1.856  3.7716  2.1511  2.1317
  968MOL0     H27712   8.661   4.874   1.782  0.5354 -1.4088 -0.5664
  968MOL0     H27713   8.516   5.035   1.739  2.9454  0.8043  0.4009
  968MOL0     H27714   8.500   4.988   1.560  0.8611 -0.0317 -1.6275
  968MOL0     H27715   8.472   5.197   1.492  5.5101  1.2141  1.2382
  968MOL0     H27716   8.514   5.270   1.650  0.7142 -0.4342 -0.2235
  968MOL0     H27717   8.290   5.173   1.737 -1.1544 -0.3390 -0.0926
  968MOL0     H27718   8.256   5.098   1.585  0.0108  1.1371 -0.6967
  968MOL0     H27719   8.264   5.396   1.646  2.1497  0.4290 -0.4683
  968MOL0     H27720   8.241   5.333   1.479  0.6286  0.4129  0.8561
  968MOL0     H27721   8.061   5.293   1.717 -0.8112 -0.6839 -0.1914
  968MOL0     H27722   8.040   5.211   1.561 -1.5567 -0.3945 -1.2418
  968MOL0     H27723   8.004   5.428   1.464  1.2793 -0.2381  0.1582
  968MOL0     H27724   8.052   5.523   1.603  1.2342 -0.7850  0.6247
  968MOL0     H27725   7.813   5.330   1.644  0.7655 -0.8439  0.7988
  968MOL0     H27726   7.859   5.465   1.732 -0.4943 -2.3387  0.1839
  968MOL0     H27727   7.764   5.480   1.433  0.2481 -0.2525  0.3569
  968MOL0     H27728   7.785   5.618   1.542  1.2694 -0.3644  3.5310
  968MOL0     H27729   7.575   5.278   1.580  1.5430 -0.5913  2.1344
  968MOL0     H27730   7.202   5.411   1.587  0.6686  0.9559  2.3308
  968MOL0     H27731   7.255   5.332   1.736  2.8682  2.4003  1.2016
  968MOL0     H27732   7.356   5.141   1.617  0.3450  0.0012  0.0894
  968MOL0     H27733   7.318   5.216   1.454  1.1942  2.2584 -0.1689
  968MOL0     H27734   7.129   5.122   1.664  3.1107  1.9127  1.3513
  968MOL0     H27735   7.072   5.215   1.521  0.4572  0.2431  1.8384
  968MOL0     H27736   7.038   4.966   1.499 -0.7465  0.6646 -1.2486
  968MOL0     H27737   7.213   4.931   1.511 -0.1283 -0.6334 -1.5784
  968MOL0     H27738   7.021   5.239   1.335  0.6908 -1.7627  2.0898
  968MOL0     H27739   6.798   5.258   1.221  3.2641  2.0442  0.4958
  968MOL0     H27740   6.355   5.168   1.133  0.1284 -2.1585 -0.7484
  968MOL0     H27741   6.155   5.225   0.998 -1.1665  0.7205 -0.2303
  968MOL0     H27742   6.181   5.298   0.552  0.4310 -0.6627  0.6090
  968MOL0     H27743   6.246   5.439   0.633  1.3759 -1.2000  0.1830
  968MOL0     H27744   6.027   5.482   0.509  0.7580 -0.5444 -0.2158
  968MOL0     H27745   6.059   5.565   0.645  0.1432 -0.1501 -3.2809
  968MOL0     H27746   5.912   5.404   0.789 -1.9794  0.6873  0.6073
  968MOL0     H27747   5.879   5.320   0.635 -0.2575 -0.2619 -0.2993
  968MOL0     H27748   5.810   5.606   0.720 -0.9502 -0.6924  0.3740
  968MOL0     H27749   5.795   5.550   0.553 -0.6121 -0.5383 -0.1073
  968MOL0     H27750   5.656   5.402   0.787  1.1672  0.7892 -0.4655
  968MOL0     H27751   5.627   5.372   0.622 -0.8513  0.6705 -0.0934
  968MOL0     H27752   5.519   5.623   0.620  1.4503 -0.3941 -0.5740
  968MOL0     H27753   5.541   5.607   0.798  0.2826 -1.6621  0.9091
  968MOL0     H27754   5.388   5.438   0.591 -1.6881  1.6818 -0.6930
  968MOL0     H27755   5.410   5.384   0.764  1.1318  1.0999  1.2678
  968MOL0     H27756   5.293   5.573   0.855  1.6963  0.9795 -0.4454
  968MOL0     H27757   5.208   5.452   0.786  0.9522 -0.6434  2.9851
  968MOL0     H27758   6.418   5.310   0.653 -1.8140  0.5841 -0.5626
  968MOL0     H27759   6.614   5.283   0.814 -1.2797  0.2165 -1.3767
  968MOL0     H27760   6.815   4.856   1.101  0.0674  0.9722 -1.0343
  968MOL0     H27761   7.050   4.842   1.214 -2.1030 -0.8241  2.7710
  968MOL0     H27762   8.906   5.072   1.478 -0.0166 -0.1086  0.5294
  968MOL0     H27763   9.077   4.942   1.529 -0.9605  0.6293 -1.6219
  968MOL0     H27764   9.306   4.612   1.604 -1.0838  2.0933 -0.3545
  968MOL0     H27765   9.544   4.509   1.608 -1.7823  0.3603 -1.9206
  968MOL0     H27766   9.666   4.379   1.743  2.1933 -1.5019 -2.6242
  968MOL0     H27767   9.754   4.396   1.893  2.7607 -1.6594 -0.6074
  968MOL0     H27768   9.866   4.427   1.618  0.0309  2.4015  0.3385
  968MOL0     H27769   9.955   4.458   1.765  0.2210  0.4930 -0.0388
  968MOL0     H27770   9.797   4.193   1.721 -1.4631  1.6392  2.1484
  968MOL0     H27771   9.920   4.225   1.845 -2.4075  2.0085  1.3088
  968MOL0     H27772  10.012   4.078   1.660  2.1594 -0.6124 -0.3151
  968MOL0     H27773   9.967   4.184   1.545  0.0830 -4.1396  1.0887
  968MOL0     H27774  10.349   4.328   1.678  0.0289 -1.3075 -1.0351
  968MOL0     H27775   9.642   4.719   1.944 -0.6704 -1.4205  0.2313
  968MOL0     H27776   9.414   4.840   1.944 -1.8642  1.0634 -1.8218
  969MOL0     O27777   5.989   9.410   8.398  0.0140  0.9075  0.1280
  969MOL0     C27778   5.980   9.531   8.417  0.5060  0.4852  1.2598
  969MOL0     O27779   6.057   9.603   8.505 -0.0278 -0.5121 -0.8714
  969MOL0     C27780   6.167   9.552   8.569  0.4434 -0.6620  0.0049
  969MOL0     C27781   6.248   9.462   8.506 -0.1273  0.3387  0.5068
  969MOL0     C27782   6.369   9.418   8.566  0.3389  0.0327  0.3373
  969MOL0     C27783   6.403   9.474   8.680 -1.3575 -0.1320  0.3497
  969MOL0     O27784   6.524   9.453   8.737 -0.1793 -0.3249  0.2448
  969MOL0     C27785   6.572   9.513   8.864 -0.3024 -0.1212  0.2224
  969MOL0     C27786   6.717   9.466   8.876 -0.0197 -0.8989 -1.0358
  969MOL0     C27787   6.822   9.530   8.780  0.0483 -0.2393  0.2943
  969MOL0     C27788   6.961   9.468   8.786  0.4573  0.0840  0.8787
  969MOL0     C27789   7.039   9.542   8.893 -0.8348 -0.7009 -0.3385
  969MOL0     C27790   7.187   9.501   8.891  0.9398 -0.0236  0.1666
  969MOL0     C27791   7.275   9.562   9.004  0.8070  0.4836  0.8949
  969MOL0     C27792   7.323   9.707   8.964  0.1821  0.2314  0.1242
  969MOL0     N27793   7.442   9.747   9.040  0.3932  0.2362  0.6789
  969MOL0     C27794   7.492   9.875   9.039  1.0179 -0.4535 -0.1068
  969MOL0     C27795   7.606   9.869   9.114 -0.4110  0.1341 -0.1814
  969MOL0     C27796   7.717   9.975   9.134  0.4818  0.9271 -0.6275
  969MOL0     C27797   7.790  10.002   8.999  0.6157  0.7695  0.4609
  969MOL0     C27798   7.864  10.132   8.984 -0.8630  0.4729 -0.0356
  969MOL0     C27799   7.998  10.132   9.066  0.4370 -0.2863  0.1856
  969MOL0     O27800   8.096  10.056   8.990 -0.7521  0.0289  0.8148
  969MOL0     C27801   8.222  10.086   9.041  0.3802  0.0609  0.1241
  969MOL0     C27802   8.255  10.102   9.180  0.0823 -0.7843  1.4195
  969MOL0     C27803   8.384  10.126   9.228  0.2041  0.4047 -0.0379
  969MOL0     C27804   8.479  10.158   9.141 -0.3660  0.6974  0.7458
  969MOL0     C27805   8.614  10.194   9.188 -0.2578  0.0171  0.0147
  969MOL0     O27806   8.704  10.230   9.096 -0.2912  0.2194 -0.1118
  969MOL0     C27807   8.826  10.291   9.129 -0.1905  0.3818 -0.2319
  969MOL0     C27808   8.850  10.368   9.246 -0.6943  0.5609  0.7414
  969MOL0     C27809   8.966  10.432   9.270  0.4802  0.3995 -0.6661
  969MOL0     C27810   9.078  10.409   9.179 -0.1283 -0.0118  0.0726
  969MOL0     O27811   9.195  10.466   9.197 -0.5760 -0.1287  0.2360
  969MOL0     C27812   9.276  10.510   9.082  0.6775  0.5418 -0.7249
  969MOL0     C27813   9.377  10.606   9.145 -0.7404  0.9384 -0.5717
  969MOL0     C27814   9.463  10.658   9.031 -0.1553 -0.1938 -0.2286
  969MOL0     C27815   9.581  10.737   9.086 -0.6462  0.5854  1.3410
  969MOL0     C27816   9.672  10.761   8.954  0.0499 -0.0043 -0.1374
  969MOL0     C27817   9.771  10.864   8.989  0.1997 -0.1908  0.9825
  969MOL0     C27818   9.859  10.898   8.866 -0.4132  0.2715  0.1110
  969MOL0     C27819   9.933  11.031   8.877 -1.0071 -0.4821  0.3443
  969MOL0    Cl27820  10.046  11.031   9.012 -0.3412  0.0757 -0.7230
  969MOL0     C27821   9.056  10.325   9.072 -0.1520  0.2524  0.3425
  969MOL0     C27822   8.930  10.269   9.052 -0.9725  0.4182  0.5393
  969MOL0     O27823   8.629  10.186   9.311 -0.0165  0.1638 -0.0668
  969MOL0     C27824   8.455  10.153   8.999 -0.0943  0.0467 -0.0427
  969MOL0     C27825   8.328  10.109   8.947  0.7895  0.5631  0.0739
  969MOL0     N27826   7.625   9.742   9.162 -0.5314  0.9458 -0.1061
  969MOL0     N27827   7.526   9.672   9.113 -0.5347  0.7226 -0.3523
  969MOL0     C27828   6.324   9.569   8.750 -0.0171  0.1039  0.0958
  969MOL0     C27829   6.209   9.612   8.687 -0.2357  0.0749 -0.7427
  969MOL0     C27830   5.878   9.603   8.344  0.1756  0.3321 -0.9700
  969MOL0     C27831   5.842   9.742   8.384 -0.9092 -0.0453 -0.7059
  969MOL0     C27832   5.750   9.803   8.311  0.2064 -0.0130 -0.3369
  969MOL0     C27833   5.676   9.738   8.216  0.4124  0.9804  0.0600
  969MOL0     O27834   5.573   9.809   8.153 -0.2173  0.3702 -0.0781
  969MOL0     C27835   5.440   9.772   8.189  0.9186  0.6385 -0.0960
  969MOL0     C27836   5.339   9.880   8.150  0.5574 -0.1216 -0.6885
  969MOL0     C27837   5.182   9.868   8.208 -0.6289  0.5304 -0.4400
  969MOL0     C27838   5.102  10.000   8.190  0.1884  0.9579  0.0031
  969MOL0     C27839   5.069  10.025   8.051  0.1663  0.2325  1.8883
  969MOL0     C27840   5.066  10.052   7.935  0.1362  0.3817  0.6320
  969MOL0     C27841   5.699   9.603   8.173 -0.5855  0.3235 -0.5778
  969MOL0     C27842   5.810   9.542   8.237  0.0069  0.2061 -0.5896
  969MOL0     H27843   6.223   9.420   8.409  0.3843  1.1335  0.0260
  969MOL0     H27844   6.435   9.351   8.511 -1.9781 -2.3304  0.2727
  969MOL0     H27845   6.511   9.473   8.945  0.7405 -2.1711  0.0517
  969MOL0     H27846   6.568   9.622   8.858  0.4608 -0.1249 -0.6185
  969MOL0     H27847   6.725   9.358   8.863  0.4733 -0.8584 -1.1085
  969MOL0     H27848   6.764   9.485   8.973  1.5566  4.3419 -2.4592
  969MOL0     H27849   6.821   9.637   8.806  0.8722 -1.1070  4.7230
  969MOL0     H27850   6.794   9.516   8.675 -2.7448  1.4643  0.6898
  969MOL0     H27851   6.963   9.360   8.806  1.4526 -0.1049 -0.1375
  969MOL0     H27852   7.007   9.485   8.688 -0.8282  3.8451  0.7802
  969MOL0     H27853   6.993   9.528   8.991 -0.8355 -1.5742 -0.4543
  969MOL0     H27854   7.029   9.650   8.876 -3.6894 -0.4010  2.2980
  969MOL0     H27855   7.233   9.524   8.795  2.3529 -1.7172  0.3792
  969MOL0     H27856   7.193   9.394   8.913  0.7119  0.0976  0.8547
  969MOL0     H27857   7.220   9.555   9.098 -1.8695  2.4619 -0.3589
  969MOL0     H27858   7.356   9.489   9.007 -0.5880 -1.1637  0.6402
  969MOL0     H27859   7.239   9.773   8.990 -1.3703 -1.8553  0.7168
  969MOL0     H27860   7.345   9.718   8.858 -0.0388  3.3827  0.2930
  969MOL0     H27861   7.462   9.963   8.982 -0.1439 -0.4489  0.4852
  969MOL0     H27862   7.791   9.938   9.205 -0.1927  0.3242 -0.2231
  969MOL0     H27863   7.666  10.067   9.163 -0.7041 -0.0731  0.5899
  969MOL0     H27864   7.715   9.994   8.920 -0.6896  1.1686  1.6031
  969MOL0     H27865   7.861   9.919   8.987  1.3663  0.9014  3.1674
  969MOL0     H27866   7.897  10.144   8.880  1.3734 -2.1943  0.2471
  969MOL0     H27867   7.799  10.212   9.021 -0.2133  0.3359  1.4868
  969MOL0     H27868   7.970  10.089   9.163 -2.0184 -0.1476 -0.3983
  969MOL0     H27869   8.025  10.235   9.090 -1.7106  0.0414  1.4202
  969MOL0     H27870   8.185  10.081   9.260 -0.9561 -3.1421 -0.0016
  969MOL0     H27871   8.402  10.111   9.334 -2.1094  1.6540  0.6061
  969MOL0     H27872   8.775  10.361   9.324  0.0336 -3.1057  1.2836
  969MOL0     H27873   8.976  10.478   9.368 -2.5479 -1.9549  0.8994
  969MOL0     H27874   9.215  10.561   9.007  0.1678  0.3369 -0.4537
  969MOL0     H27875   9.333  10.426   9.041  0.0870 -0.4491  0.4226
  969MOL0     H27876   9.435  10.564   9.227  4.5112  1.1717 -3.6974
  969MOL0     H27877   9.333  10.698   9.186 -2.2999  0.4144 -1.0055
  969MOL0     H27878   9.415  10.729   8.963 -1.7245 -0.3626  0.6459
  969MOL0     H27879   9.502  10.573   8.974  1.4740  0.0351  0.4895
  969MOL0     H27880   9.550  10.835   9.123 -0.7480  1.6787 -1.4645
  969MOL0     H27881   9.637  10.686   9.165 -1.9426  0.8211  2.4449
  969MOL0     H27882   9.605  10.793   8.873 -0.7560  0.6541  0.7603
  969MOL0     H27883   9.724  10.666   8.937  0.6464  0.2951 -0.0072
  969MOL0     H27884   9.843  10.827   9.063  1.1370  0.2211  0.2998
  969MOL0     H27885   9.731  10.953   9.040  0.9879 -0.7263  2.5826
  969MOL0     H27886   9.929  10.816   8.843 -0.2239  0.1945  0.9267
  969MOL0     H27887   9.787  10.906   8.784 -2.8658 -1.3634  1.9728
  969MOL0     H27888   9.863  11.114   8.893 -0.4460  0.1510 -0.3846
  969MOL0     H27889   9.983  11.044   8.780 -2.7646 -0.2929 -0.5741
  969MOL0     H27890   9.136  10.310   9.000  0.4094 -1.7845  1.3418
  969MOL0     H27891   8.927  10.201   8.967  1.2780  1.5719 -0.5666
  969MOL0     H27892   8.531  10.180   8.926  1.6581  0.1977  1.7618
  969MOL0     H27893   8.313  10.121   8.841 -2.0956  1.1963  0.4771
  969MOL0     H27894   6.350   9.612   8.846 -3.1951 -2.6270  2.4291
  969MOL0     H27895   6.143   9.688   8.727  0.5302  1.5875 -2.2269
  969MOL0     H27896   5.896   9.785   8.467 -1.3930  1.1136 -0.9732
  969MOL0     H27897   5.713   9.905   8.326 -0.3502 -0.5752  2.7848
  969MOL0     H27898   5.428   9.735   8.291 -2.7321 -1.9798 -1.2634
  969MOL0     H27899   5.416   9.686   8.126 -0.1842  0.1835  0.9058
  969MOL0     H27900   5.382   9.971   8.193  1.3123  0.2090 -2.0793
  969MOL0     H27901   5.340   9.898   8.042  2.2215  2.3889 -0.3177
  969MOL0     H27902   5.180   9.834   8.312 -1.7330 -0.4519 -0.7650
  969MOL0     H27903   5.126   9.783   8.168 -3.6484 -0.3383  4.7466
  969MOL0     H27904   5.007   9.990   8.244  0.4050  0.6146  0.3284
  969MOL0     H27905   5.153  10.088   8.232  1.9805 -1.0532  2.4108
  969MOL0     H27906   5.086  10.077   7.832  0.4657 -1.5053  0.2090
  969MOL0     H27907   5.632   9.546   8.108  0.2163  0.8555 -1.9171
  969MOL0     H27908   5.842   9.445   8.199  0.5012  0.2466 -0.2882
  970MOL0     O27909   9.844   9.454   7.980 -0.2383  0.4317 -0.1931
  970MOL0     C27910   9.841   9.487   7.860 -0.0062  0.9688 -0.8366
  970MOL0     O27911   9.739   9.468   7.774  0.6659 -0.1005 -0.4925
  970MOL0     C27912   9.623   9.405   7.828 -0.6241 -1.4465  0.1601
  970MOL0     C27913   9.505   9.475   7.842 -0.6802 -0.0298  0.2111
  970MOL0     C27914   9.392   9.410   7.890  0.1117 -1.1696 -0.0054
  970MOL0     C27915   9.399   9.281   7.943 -0.5223  0.5631 -0.3420
  970MOL0     O27916   9.284   9.220   7.978 -0.0742  0.1217 -0.4811
  970MOL0     C27917   9.273   9.094   8.045 -0.1015 -0.7461  0.1092
  970MOL0     C27918   9.124   9.068   8.041 -1.0574  0.3511  0.1393
  970MOL0     C27919   9.047   9.123   8.165 -0.0946  0.3756  0.0440
  970MOL0     C27920   9.054   9.044   8.294 -0.5962 -0.0266  0.0397
  970MOL0     C27921   8.993   8.910   8.301 -0.4924  0.1323 -0.0489
  970MOL0     C27922   9.007   8.860   8.444  0.8025  0.1285 -0.0428
  970MOL0     C27923   9.150   8.817   8.474  0.3633 -0.2545 -0.6770
  970MOL0     C27924   9.151   8.723   8.603  0.0215  0.4737 -0.1230
  970MOL0     N27925   9.074   8.602   8.604 -0.1828 -0.4124 -0.0019
  970MOL0     C27926   9.117   8.471   8.562  0.0716 -1.0746 -0.3878
  970MOL0     C27927   9.006   8.397   8.580 -0.0141  0.1245  0.6929
  970MOL0     C27928   9.000   8.251   8.532 -0.5544 -0.1640 -0.3588
  970MOL0     C27929   8.863   8.181   8.536  0.5833  0.1248 -0.3269
  970MOL0     C27930   8.879   8.027   8.514  0.6139  0.2260 -0.2637
  970MOL0     C27931   8.746   7.951   8.496  0.3139  0.2457  0.4264
  970MOL0     O27932   8.644   8.023   8.408  0.9448  0.1169  0.2634
  970MOL0     C27933   8.539   7.955   8.365 -0.4543  0.0679  0.3920
  970MOL0     C27934   8.454   8.010   8.265  0.5665  0.4978 -0.3451
  970MOL0     C27935   8.343   7.955   8.218 -0.0521 -0.5189  0.1159
  970MOL0     C27936   8.312   7.829   8.271  0.9379  0.7574  0.6312
  970MOL0     C27937   8.172   7.777   8.247  0.2989 -0.4913  0.6200
  970MOL0     O27938   8.152   7.648   8.253  0.4104  0.7219  0.9132
  970MOL0     C27939   8.031   7.590   8.247 -0.0606  0.1869 -0.0445
  970MOL0     C27940   7.942   7.600   8.347  0.3254 -0.1830  0.6834
  970MOL0     C27941   7.827   7.526   8.347  0.7672 -0.4166 -0.6024
  970MOL0     C27942   7.799   7.428   8.245 -0.4987  1.0352  0.5283
  970MOL0     O27943   7.692   7.350   8.237  0.6019 -0.2334 -0.2922
  970MOL0     C27944   7.606   7.362   8.356 -0.1729 -0.1725  0.6219
  970MOL0     C27945   7.505   7.252   8.346  0.4110 -0.5353  0.1568
  970MOL0     C27946   7.547   7.106   8.316  0.4585 -0.5113 -0.2820
  970MOL0     C27947   7.418   7.018   8.292 -0.3257  0.1408 -0.3535
  970MOL0     C27948   7.439   6.877   8.226 -0.1283  0.0625  0.5144
  970MOL0     C27949   7.318   6.800   8.158 -0.0808  0.4639 -0.3904
  970MOL0     C27950   7.230   6.714   8.249 -0.7832 -0.1390  0.7128
  970MOL0     C27951   7.113   6.659   8.158 -0.6581 -1.5697 -0.4301
  970MOL0    Cl27952   6.996   6.797   8.164  0.2003 -0.2324  0.0616
  970MOL0     C27953   7.887   7.417   8.143  0.7384  0.4753  0.5755
  970MOL0     C27954   8.004   7.501   8.140  0.6596 -0.4780  0.5401
  970MOL0     O27955   8.093   7.851   8.197  0.5099  0.1419  0.0663
  970MOL0     C27956   8.386   7.761   8.367  0.4474 -0.5646  0.5502
  970MOL0     C27957   8.497   7.828   8.410 -0.6699  0.8375 -0.5147
  970MOL0     N27958   8.899   8.470   8.627  0.1087 -0.1738 -0.4921
  970MOL0     N27959   8.938   8.594   8.637 -0.0870 -0.3953 -0.0978
  970MOL0     C27960   9.513   9.208   7.922 -0.4915 -0.0159 -0.3100
  970MOL0     C27961   9.625   9.268   7.867  0.1428 -0.1099 -0.2685
  970MOL0     C27962   9.977   9.539   7.819  0.1383  0.3472 -0.9976
  970MOL0     C27963  10.010   9.542   7.681 -1.2855 -0.0436  0.6349
  970MOL0     C27964  10.124   9.608   7.639  0.6494 -0.6269 -0.4437
  970MOL0     C27965  10.215   9.668   7.728  0.4980  0.3671 -0.2308
  970MOL0     O27966  10.334   9.725   7.689 -0.2138 -1.0569  0.0173
  970MOL0     C27967  10.381   9.750   7.557  0.2488  0.4153 -0.1904
  970MOL0     C27968  10.336   9.898   7.516 -0.1603 -0.2683 -0.3133
  970MOL0     C27969  10.378   9.927   7.375  0.4219 -0.7031  0.9125
  970MOL0     C27970  10.519   9.931   7.344 -0.7862 -0.0640 -0.0427
  970MOL0     C27971  10.550  10.005   7.226 -0.8648 -0.0311  0.9096
  970MOL0     C27972  10.570  10.076   7.125 -0.7205  0.8900 -0.0295
  970MOL0     C27973  10.189   9.651   7.866 -0.7546  0.8930  0.6496
  970MOL0     C27974  10.062   9.593   7.912 -0.4752  0.3231 -0.0069
  970MOL0     H27975   9.482   9.575   7.806 -4.2926 -0.8473 -0.0451
  970MOL0     H27976   9.297   9.462   7.898  1.2646  0.7419  3.1412
  970MOL0     H27977   9.308   9.083   8.148  2.7101 -1.1465 -0.8033
  970MOL0     H27978   9.309   9.018   7.975 -1.9643 -1.0173 -0.5988
  970MOL0     H27979   9.114   8.959   8.044 -0.6514  0.3409  1.5337
  970MOL0     H27980   9.074   9.113   7.955  0.0410  0.3087 -0.5415
  970MOL0     H27981   8.941   9.135   8.142 -0.0314 -1.4221 -1.4382
  970MOL0     H27982   9.087   9.224   8.174  1.2087  0.4366 -4.2065
  970MOL0     H27983   9.154   9.049   8.339 -0.8969  1.4749  0.5839
  970MOL0     H27984   8.996   9.110   8.359  0.3552  1.0659 -0.1774
  970MOL0     H27985   9.053   8.847   8.235 -3.1482 -1.5648 -0.9581
  970MOL0     H27986   8.890   8.921   8.266 -1.0113 -0.5502  1.2165
  970MOL0     H27987   8.948   8.769   8.446 -0.2678  0.7973  1.7967
  970MOL0     H27988   8.973   8.926   8.525 -1.1274 -0.5359 -0.2752
  970MOL0     H27989   9.207   8.776   8.390  4.0443  1.7988  0.5468
  970MOL0     H27990   9.201   8.910   8.503  0.6236 -0.3623 -0.7817
  970MOL0     H27991   9.119   8.780   8.690  0.3289  0.3934  0.0454
  970MOL0     H27992   9.254   8.691   8.624  1.1018  1.2203 -3.6125
  970MOL0     H27993   9.215   8.443   8.522  2.5896  0.6337  3.8819
  970MOL0     H27994   9.069   8.200   8.600  2.5382  1.7499 -1.8026
  970MOL0     H27995   9.037   8.241   8.429  0.4386  0.4570 -0.0806
  970MOL0     H27996   8.796   8.225   8.462 -1.7931  0.2489  1.7544
  970MOL0     H27997   8.822   8.203   8.635 -1.5089 -2.4039 -0.5171
  970MOL0     H27998   8.932   8.012   8.420 -0.2228  2.0686 -1.0732
  970MOL0     H27999   8.931   7.987   8.602 -0.3741  0.8695  0.6374
  970MOL0     H28000   8.700   7.929   8.592 -0.4133  1.1458  0.2996
  970MOL0     H28001   8.770   7.861   8.438 -0.4373 -0.8012  1.6940
  970MOL0     H28002   8.477   8.115   8.254 -1.0835  0.7868 -1.3047
  970MOL0     H28003   8.282   8.019   8.155  1.6723 -0.3575 -1.4580
  970MOL0     H28004   7.964   7.673   8.424 -2.6637  0.9454  0.6086
  970MOL0     H28005   7.765   7.543   8.434  1.5214 -1.7014  0.2339
  970MOL0     H28006   7.565   7.463   8.361  1.9767  0.8344 -1.0225
  970MOL0     H28007   7.656   7.342   8.452 -1.5787 -2.8600  0.8875
  970MOL0     H28008   7.429   7.291   8.277 -0.2389 -0.1900  1.0468
  970MOL0     H28009   7.442   7.250   8.435  2.6785 -1.1376  1.8390
  970MOL0     H28010   7.593   7.068   8.407  0.8353 -1.6725 -0.9321
  970MOL0     H28011   7.632   7.080   8.252  1.0193  1.0786 -0.2242
  970MOL0     H28012   7.362   7.003   8.384 -1.8324 -1.8988 -1.5403
  970MOL0     H28013   7.354   7.076   8.224 -3.2881  0.7672  2.7174
  970MOL0     H28014   7.491   6.815   8.299  3.1437  1.3256 -0.5796
  970MOL0     H28015   7.506   6.905   8.144 -0.1848 -0.0727  0.4205
  970MOL0     H28016   7.369   6.731   8.090 -2.5149  0.0248 -1.8856
  970MOL0     H28017   7.255   6.870   8.103 -0.3840 -1.0072 -2.0202
  970MOL0     H28018   7.304   6.637   8.275  0.6863  1.2061  0.6604
  970MOL0     H28019   7.193   6.779   8.328 -0.4995  0.4753  0.3466
  970MOL0     H28020   7.073   6.565   8.197  1.3259 -2.7526 -1.0410
  970MOL0     H28021   7.153   6.638   8.058  0.6358 -1.0379 -0.0435
  970MOL0     H28022   7.863   7.348   8.062 -1.3104  1.4872  0.2368
  970MOL0     H28023   8.082   7.493   8.066  4.0019 -3.3080  3.9426
  970MOL0     H28024   8.370   7.656   8.389  2.2144 -1.7521 -2.9608
  970MOL0     H28025   8.555   7.769   8.480 -1.6051  2.0843  1.3964
  970MOL0     H28026   9.516   9.102   7.946 -1.9910 -0.5415 -2.2492
  970MOL0     H28027   9.716   9.208   7.872 -0.3050 -0.7761  4.2011
  970MOL0     H28028   9.941   9.509   7.603  0.2794  0.1324 -0.8921
  970MOL0     H28029  10.148   9.624   7.534  1.0938  1.8424 -0.0288
  970MOL0     H28030  10.337   9.679   7.487 -0.6628 -0.9402  1.6583
  970MOL0     H28031  10.490   9.746   7.566  0.2795 -2.5536 -0.8988
  970MOL0     H28032  10.229   9.913   7.534  0.5426  2.4380  2.8157
  970MOL0     H28033  10.378   9.979   7.578 -3.9129  1.0140  0.8411
  970MOL0     H28034  10.332  10.022   7.346 -1.1935 -1.8988 -0.7175
  970MOL0     H28035  10.334   9.854   7.306  0.0370  1.5060 -1.3242
  970MOL0     H28036  10.569   9.968   7.434 -0.7327  1.4832 -0.6704
  970MOL0     H28037  10.560   9.830   7.337 -1.9316 -0.6239  1.0043
  970MOL0     H28038  10.571  10.127   7.031 -1.4427 -0.8198 -1.0071
  970MOL0     H28039  10.253   9.691   7.943  0.7983  0.3947 -0.3442
  970MOL0     H28040  10.041   9.583   8.018  1.0802  0.9579  0.3824
  971MOL0     O28041   1.707   7.982   8.198  0.1687  0.1502 -0.0694
  971MOL0     C28042   1.615   8.064   8.198 -0.4210 -0.6025  0.0799
  971MOL0     O28043   1.611   8.168   8.115 -0.4060 -0.8269 -0.4194
  971MOL0     C28044   1.725   8.201   8.046 -0.1073  0.4483  0.1561
  971MOL0     C28045   1.713   8.310   7.965  0.1770  0.6048 -0.8434
  971MOL0     C28046   1.817   8.376   7.899 -0.1964 -0.0331 -0.6566
  971MOL0     C28047   1.942   8.327   7.903 -0.4755 -0.2521 -0.1652
  971MOL0     O28048   2.037   8.379   7.829  0.0433 -0.2875 -0.0779
  971MOL0     C28049   2.175   8.350   7.840  0.4124 -0.5281 -0.6824
  971MOL0     C28050   2.260   8.464   7.776 -0.4010  0.2841 -0.0898
  971MOL0     C28051   2.413   8.442   7.769  0.0391  0.4328  0.2756
  971MOL0     C28052   2.469   8.553   7.680 -0.3335 -0.1501 -0.2955
  971MOL0     C28053   2.622   8.554   7.681 -0.1096  0.2685  0.9893
  971MOL0     C28054   2.674   8.447   7.578  0.7554 -0.4132 -0.1036
  971MOL0     C28055   2.831   8.451   7.553 -0.1626  0.4528 -0.2250
  971MOL0     C28056   2.847   8.525   7.416 -0.4950 -0.4218 -0.5048
  971MOL0     N28057   2.985   8.537   7.371  0.4747 -0.6506  0.1969
  971MOL0     C28058   3.095   8.453   7.358  1.0195  0.7779 -0.1572
  971MOL0     C28059   3.193   8.523   7.299  0.0615 -0.4436 -0.8933
  971MOL0     C28060   3.342   8.498   7.274 -0.2984 -0.1567 -0.3673
  971MOL0     C28061   3.410   8.511   7.402 -0.1670  0.3627 -0.1606
  971MOL0     C28062   3.543   8.448   7.408  0.4157 -0.0762 -0.6060
  971MOL0     C28063   3.635   8.492   7.293  0.5586  0.0756  0.0052
  971MOL0     O28064   3.650   8.641   7.302  0.6739 -0.3361  0.5391
  971MOL0     C28065   3.767   8.695   7.269  0.2141  0.0198 -0.3546
  971MOL0     C28066   3.869   8.647   7.180 -0.2313  0.1515 -0.3586
  971MOL0     C28067   3.989   8.708   7.171 -0.7331  0.2136  0.0265
  971MOL0     C28068   4.020   8.820   7.250  0.2558 -0.3339  0.8239
  971MOL0     C28069   4.150   8.899   7.242  0.0808  0.2495  0.4069
  971MOL0     O28070   4.231   8.874   7.136 -0.0448  0.5164  0.1416
  971MOL0     C28071   4.357   8.923   7.123  0.1268 -0.2546  0.6356
  971MOL0     C28072   4.405   8.968   7.000  1.0462  1.1759  0.2824
  971MOL0     C28073   4.537   9.005   6.971 -0.0223  0.7056  0.5775
  971MOL0     C28074   4.628   9.003   7.073  0.3017  0.2984  0.8875
  971MOL0     O28075   4.761   9.033   7.050  0.6137 -0.6213  0.3284
  971MOL0     C28076   4.786   9.142   6.961  0.9620  0.4727 -0.0753
  971MOL0     C28077   4.921   9.203   6.989  0.5205  0.6874  0.1363
  971MOL0     C28078   5.057   9.116   6.983  0.4545  0.2655  0.0228
  971MOL0     C28079   5.191   9.190   7.016  1.0075 -0.5896 -0.1176
  971MOL0     C28080   5.311   9.100   6.968  0.5266 -0.1244 -0.2900
  971MOL0     C28081   5.440   9.181   6.958  0.6467 -0.1947 -0.5749
  971MOL0     C28082   5.567   9.098   6.919  0.6344 -0.2155 -0.5676
  971MOL0     C28083   5.682   9.188   6.871  0.0207 -0.1057 -0.3674
  971MOL0    Cl28084   5.635   9.278   6.723  0.5416 -0.0969 -0.3448
  971MOL0     C28085   4.581   8.958   7.200 -0.1106 -0.1251  0.2684
  971MOL0     C28086   4.447   8.924   7.226  1.0778 -0.2935 -0.3612
  971MOL0     O28087   4.174   8.984   7.330  0.0461 -0.2334 -0.1202
  971MOL0     C28088   3.921   8.864   7.332 -0.6785  0.2528 -0.2809
  971MOL0     C28089   3.788   8.811   7.336 -0.1129 -0.1062 -0.1384
  971MOL0     N28090   3.147   8.659   7.303 -0.2677  0.6656 -0.9160
  971MOL0     N28091   3.035   8.668   7.354 -0.0237 -0.5639  0.2256
  971MOL0     C28092   1.971   8.224   7.992  0.9395  0.5174 -0.8069
  971MOL0     C28093   1.860   8.160   8.064 -0.2883  0.6136  0.8970
  971MOL0     C28094   1.516   8.057   8.301 -0.1776 -0.2622 -0.4851
  971MOL0     C28095   1.496   7.941   8.385  0.3337  0.1754  0.0842
  971MOL0     C28096   1.413   7.939   8.495 -0.2713  0.0299 -0.4331
  971MOL0     C28097   1.355   8.058   8.534 -0.4333  0.2827  0.0914
  971MOL0     O28098   1.279   8.062   8.642 -0.2390 -0.0767 -0.0156
  971MOL0     C28099   1.289   7.979   8.756  0.1248 -0.0902 -0.4459
  971MOL0     C28100   1.185   8.033   8.859  0.1138 -0.5459  0.5224
  971MOL0     C28101   1.179   7.934   8.980  0.3896  0.5893  0.4435
  971MOL0     C28102   1.079   7.983   9.088  0.2646 -0.3061 -0.1383
  971MOL0     C28103   0.939   7.956   9.060 -0.4364 -0.0802 -0.3454
  971MOL0     C28104   0.824   7.934   9.068  0.0703  0.5235 -0.0176
  971MOL0     C28105   1.371   8.176   8.462  0.5660 -0.0659 -1.0138
  971MOL0     C28106   1.453   8.175   8.351 -0.2906  0.0939 -0.2338
  971MOL0     H28107   1.608   8.337   7.959 -0.4545 -1.8082 -1.8575
  971MOL0     H28108   1.792   8.456   7.830 -0.6515 -0.2996 -0.8042
  971MOL0     H28109   2.190   8.260   7.780  0.8773 -0.4700 -0.6574
  971MOL0     H28110   2.211   8.333   7.942  0.6011  0.9831 -0.4765
  971MOL0     H28111   2.228   8.552   7.833  0.0263 -0.8057  1.9400
  971MOL0     H28112   2.227   8.475   7.672  0.7511  0.3754 -0.4566
  971MOL0     H28113   2.430   8.340   7.732 -0.0558  0.9745 -1.3205
  971MOL0     H28114   2.454   8.447   7.870 -3.4536  0.0112  1.8942
  971MOL0     H28115   2.425   8.554   7.580 -1.0281 -0.0889  0.0095
  971MOL0     H28116   2.437   8.641   7.737 -1.7342 -1.3167  0.8020
  971MOL0     H28117   2.666   8.531   7.778  0.6822  1.4265  0.9289
  971MOL0     H28118   2.659   8.651   7.646 -0.7504  0.3343  0.4850
  971MOL0     H28119   2.621   8.442   7.483 -1.1937 -2.6530  0.9853
  971MOL0     H28120   2.657   8.347   7.621  0.7873  0.2546  1.5495
  971MOL0     H28121   2.881   8.500   7.637 -1.5295 -1.4438  1.7970
  971MOL0     H28122   2.855   8.344   7.541 -3.5035 -0.8742  2.9962
  971MOL0     H28123   2.797   8.622   7.409  1.3314  0.5612 -0.2845
  971MOL0     H28124   2.807   8.458   7.339 -2.3709  1.1601 -0.9958
  971MOL0     H28125   3.113   8.350   7.388 -2.0286  0.4942  0.9925
  971MOL0     H28126   3.387   8.566   7.200  1.0988  0.6006  1.1173
  971MOL0     H28127   3.360   8.393   7.249  1.2688 -0.3553  1.3699
  971MOL0     H28128   3.351   8.468   7.484  0.4403  1.5383  0.9356
  971MOL0     H28129   3.418   8.618   7.423 -1.4707 -0.0098  2.8789
  971MOL0     H28130   3.584   8.479   7.505  0.6226  2.2555 -1.3718
  971MOL0     H28131   3.536   8.339   7.412  0.9023 -0.1781 -2.0349
  971MOL0     H28132   3.596   8.458   7.197  0.7506 -6.4573  1.7016
  971MOL0     H28133   3.731   8.442   7.302 -1.4233 -4.0626  0.7736
  971MOL0     H28134   3.854   8.556   7.124 -2.0412 -0.5995  1.2744
  971MOL0     H28135   4.070   8.674   7.107  1.2783  1.4414  1.7702
  971MOL0     H28136   4.328   8.966   6.924  2.4203  0.8999 -1.1646
  971MOL0     H28137   4.567   9.024   6.869 -1.3404  0.2876  0.0877
  971MOL0     H28138   4.709   9.215   6.987 -0.4631 -0.7859 -0.5805
  971MOL0     H28139   4.760   9.117   6.858  0.7012  1.2239 -0.1973
  971MOL0     H28140   4.923   9.252   7.087  2.0445 -0.6272  0.8022
  971MOL0     H28141   4.942   9.287   6.923  0.8604 -1.3756 -2.5529
  971MOL0     H28142   5.063   9.052   6.894  1.5167  2.3772 -1.5360
  971MOL0     H28143   5.040   9.047   7.066 -1.1941  0.5028 -0.0998
  971MOL0     H28144   5.194   9.290   6.971  3.4207 -0.3656  0.3984
  971MOL0     H28145   5.188   9.218   7.121  3.1369  1.8446 -0.5920
  971MOL0     H28146   5.283   9.074   6.865 -0.1905 -1.5546  0.2378
  971MOL0     H28147   5.333   9.005   7.019  3.5561  0.6257  0.0273
  971MOL0     H28148   5.449   9.228   7.056 -0.4456  0.8908 -0.9759
  971MOL0     H28149   5.428   9.266   6.890 -2.9041 -0.9080 -1.0486
  971MOL0     H28150   5.606   9.051   7.009  0.2043 -0.7418 -0.6521
  971MOL0     H28151   5.548   9.009   6.858 -0.8905  0.8297 -1.7281
  971MOL0     H28152   5.776   9.132   6.862 -0.8460 -1.7968  0.6816
  971MOL0     H28153   5.702   9.266   6.946  1.2337  0.7777 -1.5649
  971MOL0     H28154   4.657   8.956   7.278  2.1179 -2.3408 -1.8015
  971MOL0     H28155   4.425   8.892   7.328  0.2965  0.8045 -0.1617
  971MOL0     H28156   3.942   8.949   7.397 -3.0374 -0.5854  1.7541
  971MOL0     H28157   3.707   8.849   7.397  0.5174  1.8601 -0.4542
  971MOL0     H28158   2.073   8.188   7.994  0.4707 -1.1011  3.1657
  971MOL0     H28159   1.906   8.077   8.116  4.1487  1.4258 -1.2370
  971MOL0     H28160   1.551   7.849   8.364 -1.1160 -0.1287 -2.9699
  971MOL0     H28161   1.385   7.850   8.551  1.3354 -1.7338 -2.2946
  971MOL0     H28162   1.392   7.978   8.793 -0.5014 -0.4864  1.3628
  971MOL0     H28163   1.265   7.874   8.735  0.6775 -1.0174  2.9641
  971MOL0     H28164   1.205   8.135   8.891  1.0779 -0.3981 -0.4815
  971MOL0     H28165   1.089   8.035   8.807  0.6061 -1.8277 -0.4969
  971MOL0     H28166   1.279   7.933   9.025  0.6267  2.1128 -0.0038
  971MOL0     H28167   1.156   7.831   8.950 -0.6230  1.0853 -0.5797
  971MOL0     H28168   1.107   7.951   9.189  1.0116  2.0577  0.4610
  971MOL0     H28169   1.079   8.092   9.080  1.0111 -0.3281 -0.6186
  971MOL0     H28170   0.719   7.933   9.090  0.0204 -3.0725  0.1696
  971MOL0     H28171   1.335   8.268   8.505  1.5185 -2.1600  5.3720
  971MOL0     H28172   1.489   8.272   8.318  3.2040 -0.4433  1.4866
  972MOL0     O28173   7.111   1.265  10.297  0.6813  0.2741 -0.0980
  972MOL0     C28174   7.187   1.269  10.201 -0.0310 -0.5541 -0.1835
  972MOL0     O28175   7.143   1.286  10.066  0.5702 -0.3682 -0.2163
  972MOL0     C28176   7.009   1.298  10.052  0.0767  0.0475  0.5293
  972MOL0     C28177   6.945   1.178  10.021 -0.3622 -0.3891  0.2175
  972MOL0     C28178   6.806   1.191  10.004 -0.8156  0.3421  0.2024
  972MOL0     C28179   6.736   1.311  10.025 -1.0860  0.5027 -1.0106
  972MOL0     O28180   6.594   1.302  10.012  1.0761 -0.9241  0.5347
  972MOL0     C28181   6.507   1.375  10.101 -0.7946 -0.5177  0.4050
  972MOL0     C28182   6.377   1.294  10.134 -0.6158  0.2991  0.1797
  972MOL0     C28183   6.265   1.314  10.032  0.3465 -0.3043  0.7654
  972MOL0     C28184   6.135   1.223  10.051  0.3247 -0.9503 -0.2051
  972MOL0     C28185   6.045   1.273  10.165 -0.1957  0.6357  0.6879
  972MOL0     C28186   5.902   1.213  10.142  0.0472 -0.5702  0.4507
  972MOL0     C28187   5.819   1.265  10.258 -0.2844  0.1825  0.8822
  972MOL0     C28188   5.752   1.397  10.232  1.1827  1.0774 -0.4526
  972MOL0     N28189   5.645   1.441  10.330  0.6117 -0.5894 -0.6118
  972MOL0     C28190   5.554   1.375  10.411 -0.1720  0.2672 -0.5384
  972MOL0     C28191   5.500   1.469  10.489  1.1112  0.6887 -0.3418
  972MOL0     C28192   5.419   1.445  10.610  1.2777  0.4414 -0.6262
  972MOL0     C28193   5.287   1.376  10.577  0.4909 -1.0138  0.5030
  972MOL0     C28194   5.204   1.452  10.464  0.5977 -0.0578  0.1378
  972MOL0     C28195   5.052   1.419  10.447  0.2114  0.2313  1.0048
  972MOL0     O28196   4.980   1.375  10.564  0.2194  0.0463  1.2622
  972MOL0     C28197   4.846   1.342  10.546  0.9126  0.0923 -0.7521
  972MOL0     C28198   4.773   1.312  10.665 -0.9759 -0.0240  0.4019
  972MOL0     C28199   4.646   1.268  10.664  0.0222  0.6141 -0.1440
  972MOL0     C28200   4.580   1.263  10.533 -0.8961  0.2369  0.7613
  972MOL0     C28201   4.439   1.208  10.522 -0.3996  0.0394  0.0049
  972MOL0     O28202   4.352   1.220  10.633 -0.4784 -0.2226  1.0250
  972MOL0     C28203   4.218   1.206  10.595 -0.1890  0.2866  0.8509
  972MOL0     C28204   4.147   1.307  10.533  0.2004 -0.0737  0.1339
  972MOL0     C28205   4.015   1.284  10.490 -0.0887 -0.4641  0.4365
  972MOL0     C28206   3.947   1.169  10.530 -0.0500  0.2595  0.4104
  972MOL0     O28207   3.815   1.153  10.494 -0.4501 -0.2614  0.2901
  972MOL0     C28208   3.746   1.027  10.515 -0.6541 -0.1403 -0.1592
  972MOL0     C28209   3.609   1.031  10.432  0.0452 -0.3383  0.1929
  972MOL0     C28210   3.491   1.127  10.475  0.8256  0.0906 -0.4856
  972MOL0     C28211   3.495   1.125  10.620  0.4199 -0.2717  0.0386
  972MOL0     C28212   3.364   1.189  10.659  0.3579 -0.6016 -0.8098
  972MOL0     C28213   3.338   1.173  10.810 -0.3466 -0.0553 -0.2066
  972MOL0     C28214   3.420   1.278  10.890 -0.2463  0.2222 -0.3663
  972MOL0     C28215   3.442   1.246  11.039 -0.1985 -0.0855  0.1295
  972MOL0    Cl28216   3.496   1.073  11.072  0.1696 -0.3771  0.4141
  972MOL0     C28217   4.018   1.071  10.602  0.4497 -0.2009 -0.2242
  972MOL0     C28218   4.152   1.092  10.631  0.3077  0.7013 -0.0491
  972MOL0     O28219   4.408   1.159  10.414 -0.2071  0.6999  0.2856
  972MOL0     C28220   4.646   1.299  10.414 -0.5716  0.2190 -0.3267
  972MOL0     C28221   4.782   1.331  10.416 -0.3275 -0.4804 -0.4962
  972MOL0     N28222   5.550   1.582  10.446  0.4345  0.0693  0.2863
  972MOL0     N28223   5.634   1.572  10.350  0.0576  0.6988 -0.1138
  972MOL0     C28224   6.804   1.428  10.063  0.0447 -0.1091 -0.2120
  972MOL0     C28225   6.943   1.424  10.065  0.0428  0.2391 -0.5628
  972MOL0     C28226   7.333   1.251  10.222 -0.5075 -0.4896  0.2319
  972MOL0     C28227   7.421   1.227  10.121  0.5079 -0.8173  1.5154
  972MOL0     C28228   7.557   1.215  10.137  0.5024  0.8244  0.1990
  972MOL0     C28229   7.606   1.204  10.265  1.5275  0.5548 -0.0611
  972MOL0     O28230   7.742   1.198  10.299 -0.0621  0.1137 -0.1426
  972MOL0     C28231   7.768   1.114  10.413  0.2358 -0.5164 -0.0741
  972MOL0     C28232   7.907   1.045  10.386  0.6853 -0.2082 -0.6090
  972MOL0     C28233   7.916   0.961  10.258  0.0503 -0.2330 -0.1325
  972MOL0     C28234   8.008   0.839  10.276 -0.3858 -0.7005 -1.0643
  972MOL0     C28235   8.144   0.886  10.311 -0.9571 -0.5067  0.3905
  972MOL0     C28236   8.259   0.925  10.339 -0.6539 -0.0785 -0.5349
  972MOL0     C28237   7.515   1.249  10.371  0.2425  0.3545  0.3501
  972MOL0     C28238   7.385   1.270  10.349  0.7686 -0.1300  0.3094
  972MOL0     H28239   7.005   1.091   9.999 -0.8645 -0.6425 -0.1726
  972MOL0     H28240   6.760   1.099   9.969  2.2274 -0.5294 -1.9588
  972MOL0     H28241   6.489   1.475  10.059  2.5917  0.1130  0.1828
  972MOL0     H28242   6.562   1.392  10.193 -0.7167 -1.1039  0.4671
  972MOL0     H28243   6.333   1.335  10.226  0.3454  2.1837 -0.1435
  972MOL0     H28244   6.401   1.188  10.131  0.7976  0.6202 -1.3360
  972MOL0     H28245   6.321   1.275   9.945  1.2539  1.1798  0.6556
  972MOL0     H28246   6.236   1.418  10.013 -3.1571 -1.5757 -1.9687
  972MOL0     H28247   6.081   1.221   9.956  0.7742 -2.0423 -0.4507
  972MOL0     H28248   6.159   1.118  10.071  1.3874 -0.3519  2.0480
  972MOL0     H28249   6.036   1.382  10.176 -2.9334  0.1750  5.5113
  972MOL0     H28250   6.103   1.230  10.247  3.6302 -0.1756 -2.1845
  972MOL0     H28251   5.903   1.103  10.144 -2.7012 -0.7297 -1.7833
  972MOL0     H28252   5.856   1.242  10.047 -0.4906 -0.5835  0.7082
  972MOL0     H28253   5.742   1.194  10.286  1.1156 -1.0883  1.6505
  972MOL0     H28254   5.873   1.288  10.350  1.2880 -1.5964  0.4653
  972MOL0     H28255   5.714   1.398  10.129  2.0302  0.0004 -0.7993
  972MOL0     H28256   5.831   1.471  10.244 -1.1352  3.6059  0.1232
  972MOL0     H28257   5.536   1.269  10.427 -3.7975  0.8263  0.0070
  972MOL0     H28258   5.417   1.541  10.662 -1.1794 -0.5264  1.2404
  972MOL0     H28259   5.462   1.377  10.685 -0.4541  0.5941  0.5772
  972MOL0     H28260   5.221   1.364  10.663 -0.0952  2.3174  0.6472
  972MOL0     H28261   5.293   1.275  10.535  0.0440  0.3319 -3.1512
  972MOL0     H28262   5.220   1.559  10.478  1.5446 -0.3575  1.6480
  972MOL0     H28263   5.249   1.419  10.370 -0.4298  0.9463 -0.7332
  972MOL0     H28264   5.052   1.333  10.379  0.4512 -0.8611  2.3162
  972MOL0     H28265   5.012   1.514  10.412  0.9471  0.6090  1.1786
  972MOL0     H28266   4.827   1.327  10.758  1.8448 -0.3163 -1.0625
  972MOL0     H28267   4.603   1.229  10.755  1.3190  1.0216  0.6766
  972MOL0     H28268   4.200   1.395  10.496 -1.5908  1.0210  0.0553
  972MOL0     H28269   3.969   1.367  10.436  0.6761  1.3843  2.4723
  972MOL0     H28270   3.736   1.009  10.622  1.7643 -3.2078 -0.3351
  972MOL0     H28271   3.813   0.953  10.470  1.8548  1.7489  0.2573
  972MOL0     H28272   3.571   0.929  10.423 -2.3425  0.5236 -0.2278
  972MOL0     H28273   3.647   1.054  10.332  1.1407  0.4517  0.7761
  972MOL0     H28274   3.406   1.089  10.417  0.6885 -0.4985  0.0975
  972MOL0     H28275   3.511   1.231  10.448  2.4535  0.0600  0.4409
  972MOL0     H28276   3.496   1.025  10.664 -0.4193 -0.9064 -1.3306
  972MOL0     H28277   3.586   1.179  10.648 -1.0951  2.1501  0.5042
  972MOL0     H28278   3.274   1.168  10.601 -2.2386  1.2616  2.2043
  972MOL0     H28279   3.360   1.298  10.646  0.5154 -0.1256  2.2777
  972MOL0     H28280   3.363   1.071  10.842  0.2112 -0.5913 -2.2411
  972MOL0     H28281   3.232   1.186  10.834 -0.4637 -1.4659  0.1299
  972MOL0     H28282   3.514   1.285  10.835 -0.1990  1.1837 -0.1803
  972MOL0     H28283   3.362   1.371  10.884  0.9750  1.1856  1.6672
  972MOL0     H28284   3.345   1.266  11.083 -2.6663  0.0933 -4.6784
  972MOL0     H28285   3.519   1.310  11.082 -1.5048  0.3168  1.9265
  972MOL0     H28286   3.972   0.975  10.621  3.5983 -1.6004  1.0379
  972MOL0     H28287   4.206   1.018  10.689  1.2614  2.0992  0.9088
  972MOL0     H28288   4.593   1.292  10.320 -1.5987  1.1274  0.1717
  972MOL0     H28289   4.839   1.343  10.324 -1.1622  0.5165 -0.8994
  972MOL0     H28290   6.747   1.519  10.079 -0.3825 -0.4063 -0.0049
  972MOL0     H28291   6.991   1.515  10.098  1.5318 -0.6740 -0.0821
  972MOL0     H28292   7.397   1.218  10.015  3.3130 -2.7532  0.8970
  972MOL0     H28293   7.624   1.187  10.056 -0.3905  0.8128 -0.5460
  972MOL0     H28294   7.687   1.042  10.425  0.3503 -0.9869 -1.9053
  972MOL0     H28295   7.761   1.171  10.506 -1.6465 -2.1505  0.8503
  972MOL0     H28296   7.985   1.122  10.388  2.1481 -1.6147  2.1301
  972MOL0     H28297   7.925   0.974  10.467  1.9426 -1.8113 -2.2287
  972MOL0     H28298   7.960   1.017  10.175  2.1150 -1.8860 -0.2471
  972MOL0     H28299   7.816   0.933  10.226  1.2738 -1.7392 -2.9822
  972MOL0     H28300   7.973   0.773  10.355 -2.2233 -0.7066 -1.8374
  972MOL0     H28301   8.017   0.774  10.188 -0.2258  0.7852 -2.1829
  972MOL0     H28302   8.359   0.958  10.357  0.1796 -1.8975 -1.6153
  972MOL0     H28303   7.560   1.265  10.468 -0.3534  0.4881  0.6072
  972MOL0     H28304   7.328   1.326  10.423  2.0870  0.7079  0.7209
  973MOL0     O28305   9.364  10.967   8.424  0.0038  0.6143  0.2197
  973MOL0     C28306   9.412  10.875   8.359  0.4495 -0.3645  0.1973
  973MOL0     O28307   9.342  10.770   8.326 -0.1666  0.6339  0.7848
  973MOL0     C28308   9.201  10.771   8.328 -0.7825  0.0299  0.3876
  973MOL0     C28309   9.138  10.673   8.409 -0.1302 -0.8948  0.1205
  973MOL0     C28310   8.994  10.667   8.408 -0.1805  0.1868  0.7636
  973MOL0     C28311   8.921  10.754   8.330  0.1409 -0.0847  0.4289
  973MOL0     O28312   8.787  10.747   8.340  0.2341 -0.4559 -0.4823
  973MOL0     C28313   8.721  10.775   8.469 -0.8623  0.2343  0.7383
  973MOL0     C28314   8.579  10.744   8.452 -0.0879  0.2984  0.1594
  973MOL0     C28315   8.504  10.746   8.591 -0.6208 -0.3558  0.6430
  973MOL0     C28316   8.355  10.714   8.554  0.0259 -0.8675  0.5638
  973MOL0     C28317   8.264  10.680   8.681 -0.0277  0.1276 -0.2416
  973MOL0     C28318   8.151  10.577   8.647 -0.1655  0.6248 -0.3947
  973MOL0     C28319   8.091  10.505   8.765  0.0706  0.0674  1.0618
  973MOL0     C28320   7.943  10.472   8.742 -0.9546 -0.7232  0.3228
  973MOL0     N28321   7.860  10.590   8.711 -0.1606  0.2274 -0.5746
  973MOL0     C28322   7.803  10.638   8.588  0.2219  0.5365  0.2598
  973MOL0     C28323   7.740  10.753   8.616  0.0205 -0.0434 -0.4061
  973MOL0     C28324   7.667  10.845   8.520 -0.2593  0.4268 -0.0863
  973MOL0     C28325   7.521  10.860   8.560  0.1559  0.0700  0.1240
  973MOL0     C28326   7.436  10.726   8.559 -0.8720 -0.0804  0.1889
  973MOL0     C28327   7.299  10.760   8.613  0.2672  0.0393  0.2590
  973MOL0     O28328   7.219  10.649   8.595  0.2792 -0.5576  0.7725
  973MOL0     C28329   7.087  10.677   8.617  1.2886 -0.0599  0.7663
  973MOL0     C28330   7.038  10.784   8.702 -0.0036  0.8428  0.3073
  973MOL0     C28331   6.900  10.808   8.716  0.3540 -0.0111  0.4462
  973MOL0     C28332   6.812  10.725   8.644  0.9411  0.0080 -0.8509
  973MOL0     C28333   6.659  10.737   8.660 -0.2445 -0.0538  0.8708
  973MOL0     O28334   6.618  10.841   8.739 -0.8138 -0.0543  0.3019
  973MOL0     C28335   6.490  10.880   8.745 -0.5666  0.0023  0.0860
  973MOL0     C28336   6.410  10.832   8.849 -0.4938  0.2133 -0.7070
  973MOL0     C28337   6.283  10.876   8.868  1.1271 -0.7398  0.0650
  973MOL0     C28338   6.226  10.960   8.772 -0.3965 -0.5727  0.1884
  973MOL0     O28339   6.094  11.005   8.777 -0.0620 -0.1619  0.1287
  973MOL0     C28340   6.076  11.073   8.904 -0.5836 -0.6268 -0.1777
  973MOL0     C28341   5.923  11.105   8.929  0.2228 -0.2580  0.4195
  973MOL0     C28342   5.841  10.972   8.942 -0.4188  0.4656  0.1935
  973MOL0     C28343   5.691  11.000   8.971  0.2627 -0.0026  0.1380
  973MOL0     C28344   5.664  11.014   9.116 -0.7336 -0.3079  0.3224
  973MOL0     C28345   5.547  11.102   9.131  0.2920 -0.1170  0.8057
  973MOL0     C28346   5.417  11.026   9.084 -0.3036 -0.3913 -0.2999
  973MOL0     C28347   5.294  11.062   9.168  0.9462 -0.0904 -0.4922
  973MOL0    Cl28348   5.255  11.238   9.171 -0.1983 -0.2403 -0.3173
  973MOL0     C28349   6.300  11.003   8.662  0.9203  0.2743  0.5761
  973MOL0     C28350   6.436  10.965   8.646  0.4187  0.7623 -0.0558
  973MOL0     O28351   6.587  10.654   8.607  0.2530 -0.4402  0.3582
  973MOL0     C28352   6.852  10.604   8.573 -0.0244 -0.1490 -0.0858
  973MOL0     C28353   6.994  10.591   8.557 -0.1878 -0.3778  0.4113
  973MOL0     N28354   7.731  10.758   8.750  0.1298 -0.4684  0.1001
  973MOL0     N28355   7.800  10.668   8.807 -0.0499  0.2199  0.7286
  973MOL0     C28356   8.979  10.856   8.259 -0.0582  0.2330 -0.4248
  973MOL0     C28357   9.120  10.866   8.254 -0.1871  0.1179  0.7794
  973MOL0     C28358   9.554  10.881   8.328  0.0419  0.0152  0.5361
  973MOL0     C28359   9.640  10.947   8.414  0.2598 -0.2102  0.2919
  973MOL0     C28360   9.784  10.936   8.388  1.0575 -0.5497 -0.6784
  973MOL0     C28361   9.834  10.863   8.288  0.1666  0.2642  0.1295
  973MOL0     O28362   9.967  10.859   8.282  0.9384 -0.2278  0.3265
  973MOL0     C28363  10.029  10.828   8.156 -0.1186  0.1701 -0.1145
  973MOL0     C28364  10.147  10.922   8.126  0.4910 -0.0422  0.5051
  973MOL0     C28365  10.261  10.923   8.237  1.0098 -0.3159  1.0934
  973MOL0     C28366  10.398  10.953   8.175  0.0449 -0.4194 -0.0038
  973MOL0     C28367  10.504  10.936   8.288 -0.5938  0.1447  0.9348
  973MOL0     C28368  10.588  10.918   8.386 -0.0840  0.0042 -0.4912
  973MOL0     C28369   9.743  10.804   8.196  0.1940 -0.7483 -0.2197
  973MOL0     C28370   9.607  10.813   8.213 -0.1122 -0.0287  0.4020
  973MOL0     H28371   9.198  10.600   8.462 -0.1141 -0.8744  0.1307
  973MOL0     H28372   8.948  10.587   8.465 -0.0867 -0.7124 -0.3950
  973MOL0     H28373   8.744  10.878   8.499 -0.1945  0.5359 -0.7459
  973MOL0     H28374   8.760  10.705   8.544  1.0750  0.7543  0.2514
  973MOL0     H28375   8.568  10.645   8.407 -1.0686  1.4510 -2.3719
  973MOL0     H28376   8.534  10.807   8.374 -0.4451 -1.5682 -1.2181
  973MOL0     H28377   8.514  10.835   8.654 -3.4101 -0.2670  1.0636
  973MOL0     H28378   8.540  10.665   8.656  1.5638  1.6426  2.0790
  973MOL0     H28379   8.301  10.802   8.515 -0.5875  0.1733  3.5336
  973MOL0     H28380   8.350  10.631   8.482  0.7558  0.3336 -0.9315
  973MOL0     H28381   8.219  10.766   8.731 -2.6972 -1.7661  0.8688
  973MOL0     H28382   8.334  10.632   8.751 -1.3000 -2.2604 -0.5121
  973MOL0     H28383   8.188  10.512   8.567  0.1855  1.1772 -0.6904
  973MOL0     H28384   8.074  10.630   8.590  0.2494 -0.5251 -2.1086
  973MOL0     H28385   8.146  10.411   8.772 -0.1660  0.0103  2.4794
  973MOL0     H28386   8.106  10.568   8.854  1.3820  0.3678  0.6453
  973MOL0     H28387   7.906  10.412   8.826  0.0894 -1.7874  0.0398
  973MOL0     H28388   7.956  10.403   8.658  2.5064 -2.8900  2.3735
  973MOL0     H28389   7.829  10.595   8.492  2.6973  0.0368  1.0884
  973MOL0     H28390   7.673  10.813   8.416  1.3880 -0.4633  0.2435
  973MOL0     H28391   7.708  10.946   8.532  0.4359  0.2384 -0.7796
  973MOL0     H28392   7.479  10.934   8.492  2.2183 -0.8985 -2.3938
  973MOL0     H28393   7.523  10.897   8.663  0.8389 -1.0908  0.5568
  973MOL0     H28394   7.429  10.699   8.453  0.1625 -1.9604  0.5709
  973MOL0     H28395   7.474  10.638   8.611 -1.5240 -0.6504 -0.2778
  973MOL0     H28396   7.269  10.849   8.557  1.2238 -1.3461 -2.6515
  973MOL0     H28397   7.313  10.786   8.718 -0.0556 -1.6074  0.7419
  973MOL0     H28398   7.106  10.858   8.744 -0.1713  2.2180 -1.7339
  973MOL0     H28399   6.861  10.888   8.778  3.3638  1.8220  0.1533
  973MOL0     H28400   6.460  10.754   8.904  0.9386  1.6556  0.1193
  973MOL0     H28401   6.222  10.852   8.955 -1.0871  3.9299  0.0970
  973MOL0     H28402   6.122  11.172   8.912 -1.0512 -0.2718 -1.5959
  973MOL0     H28403   6.111  11.014   8.988  0.4626 -0.3861 -0.4293
  973MOL0     H28404   5.896  11.165   8.842  3.6002  0.5689 -0.2007
  973MOL0     H28405   5.927  11.169   9.018  0.1043  0.7340 -0.2714
  973MOL0     H28406   5.877  10.909   9.023  1.0318  3.0823  1.7312
  973MOL0     H28407   5.850  10.914   8.850 -0.3781  1.6593 -0.5823
  973MOL0     H28408   5.668  11.092   8.916  0.9044  0.1175  0.0593
  973MOL0     H28409   5.645  10.908   8.935  1.4091 -0.4920 -0.1289
  973MOL0     H28410   5.749  11.058   9.170  0.3732  2.3672 -3.1946
  973MOL0     H28411   5.649  10.910   9.147 -3.1275  0.0330  0.4807
  973MOL0     H28412   5.549  11.194   9.073  0.3450  0.4238  1.6497
  973MOL0     H28413   5.543  11.120   9.239  1.0780 -2.9351  1.4047
  973MOL0     H28414   5.402  11.035   8.976  1.2983 -2.6554 -0.7747
  973MOL0     H28415   5.416  10.918   9.101 -2.2281 -0.5232 -0.9834
  973MOL0     H28416   5.315  11.041   9.273  0.8663  0.9476 -0.2605
  973MOL0     H28417   5.208  11.002   9.137  0.3078  0.2457  0.5978
  973MOL0     H28418   6.250  11.058   8.582 -1.7479 -2.7843 -0.0829
  973MOL0     H28419   6.495  10.996   8.561 -0.7762  0.0838 -1.1669
  973MOL0     H28420   6.786  10.532   8.526  1.4734 -0.5364 -1.6964
  973MOL0     H28421   7.028  10.492   8.529  1.3259 -0.9554  3.7417
  973MOL0     H28422   8.925  10.933   8.205 -0.6482 -0.0021 -0.1849
  973MOL0     H28423   9.166  10.943   8.192 -0.4657 -0.2232  0.1375
  973MOL0     H28424   9.605  11.002   8.500  1.0207  0.0924  0.4123
  973MOL0     H28425   9.850  10.993   8.453 -2.1133  0.5214  1.9225
  973MOL0     H28426   9.961  10.850   8.073  2.0761  0.9665 -1.7948
  973MOL0     H28427  10.069  10.727   8.148 -1.5715 -0.3251 -1.5848
  973MOL0     H28428  10.176  10.895   8.023 -1.3056 -3.2737  0.7019
  973MOL0     H28429  10.094  11.016   8.109  0.1122  0.3671  3.5215
  973MOL0     H28430  10.263  10.824   8.283 -1.7306  0.0430  2.1916
  973MOL0     H28431  10.235  10.991   8.319  1.5982  2.2592 -0.6946
  973MOL0     H28432  10.404  10.878   8.096  0.0111 -0.6617  0.2219
  973MOL0     H28433  10.426  11.054   8.141  0.3735 -0.6413 -0.4018
  973MOL0     H28434  10.662  10.916   8.464  1.1821  2.7398 -1.4599
  973MOL0     H28435   9.780  10.752   8.108 -3.0167 -3.7405 -0.0411
  973MOL0     H28436   9.546  10.766   8.136  0.4401  0.9503 -0.6615
  974MOL0     O28437   4.842   4.846   5.375 -0.3105 -0.4909 -0.2028
  974MOL0     C28438   4.770   4.889   5.467 -0.6930  0.2018  0.6580
  974MOL0     O28439   4.809   4.899   5.591  0.9127 -0.9551 -0.1767
  974MOL0     C28440   4.934   4.859   5.629  0.1616 -0.4728  0.9143
  974MOL0     C28441   5.026   4.962   5.658 -0.4416 -0.3414 -1.1788
  974MOL0     C28442   5.165   4.926   5.673 -0.0052  0.2468  0.7202
  974MOL0     C28443   5.206   4.797   5.664  0.0319 -0.2507 -0.4458
  974MOL0     O28444   5.343   4.777   5.665 -0.2626 -0.9749 -0.2594
  974MOL0     C28445   5.389   4.675   5.571  0.8475 -0.9424  1.1590
  974MOL0     C28446   5.543   4.662   5.541  0.0471 -0.2255 -0.5240
  974MOL0     C28447   5.632   4.632   5.669  0.4780  0.3983  0.0473
  974MOL0     C28448   5.776   4.654   5.626 -0.8452 -0.2166  0.0945
  974MOL0     C28449   5.877   4.620   5.741 -0.3684  0.5743 -0.3406
  974MOL0     C28450   5.891   4.736   5.844  0.0104 -0.0087 -0.5233
  974MOL0     C28451   5.994   4.686   5.946 -0.5344  0.4800 -0.5648
  974MOL0     C28452   6.020   4.775   6.069  0.0799  0.4422  0.1292
  974MOL0     N28453   6.083   4.696   6.171  0.1018  0.3377  0.4522
  974MOL0     C28454   6.212   4.652   6.152  1.0009  0.0274 -0.4064
  974MOL0     C28455   6.250   4.611   6.279  0.7046  0.1964  0.1285
  974MOL0     C28456   6.386   4.549   6.322  1.2051  0.2730  1.4980
  974MOL0     C28457   6.386   4.462   6.449  0.1855 -0.7394  0.0469
  974MOL0     C28458   6.524   4.422   6.485 -0.0531  0.9147  0.9522
  974MOL0     C28459   6.523   4.347   6.617  0.7585 -0.6625 -0.6981
  974MOL0     O28460   6.473   4.215   6.615  0.3517 -0.3396 -0.0626
  974MOL0     C28461   6.441   4.174   6.740  1.1887  0.3776 -0.0572
  974MOL0     C28462   6.524   4.160   6.842  0.0700 -0.7310 -0.5539
  974MOL0     C28463   6.484   4.097   6.967  0.1252 -0.4247  0.4661
  974MOL0     C28464   6.352   4.046   6.981  0.9958 -0.1924 -0.7406
  974MOL0     C28465   6.297   3.989   7.101  1.4437  0.0831 -0.2540
  974MOL0     O28466   6.381   3.938   7.203  0.2963  0.1265  0.2364
  974MOL0     C28467   6.324   3.880   7.312  0.3946  0.3466 -0.0875
  974MOL0     C28468   6.248   3.957   7.401  0.3960 -0.1670  0.2416
  974MOL0     C28469   6.170   3.888   7.497 -0.5373 -0.3508  0.2065
  974MOL0     C28470   6.189   3.751   7.523 -1.0156  0.1749  0.5037
  974MOL0     O28471   6.147   3.675   7.630  0.3564  0.1131  0.0529
  974MOL0     C28472   6.068   3.726   7.741  0.0598 -0.6840 -0.2868
  974MOL0     C28473   6.028   3.610   7.830  0.6275 -0.1126  1.5096
  974MOL0     C28474   5.910   3.536   7.767 -0.4379 -0.5342  0.0071
  974MOL0     C28475   5.832   3.457   7.869  0.6613  0.4805 -0.2329
  974MOL0     C28476   5.699   3.411   7.808  0.3339 -0.1120  1.0740
  974MOL0     C28477   5.601   3.343   7.890  0.4110  0.7243 -0.2844
  974MOL0     C28478   5.475   3.283   7.806  0.0527 -0.0859 -0.1338
  974MOL0     C28479   5.363   3.229   7.903 -0.1562  0.0065  0.4350
  974MOL0    Cl28480   5.295   3.084   7.820 -0.1804  0.2694  0.4277
  974MOL0     C28481   6.274   3.686   7.439  1.0406 -0.1288  0.8389
  974MOL0     C28482   6.338   3.738   7.331 -0.0860 -0.7190  0.7985
  974MOL0     O28483   6.170   3.990   7.109 -0.2528  0.1622 -0.1667
  974MOL0     C28484   6.269   4.055   6.866  0.0595 -1.0902 -0.5823
  974MOL0     C28485   6.313   4.127   6.756  0.0813  0.7974 -0.4379
  974MOL0     N28486   6.140   4.628   6.370 -0.5898  0.4161 -0.1221
  974MOL0     N28487   6.040   4.677   6.302  0.3449  0.0502  1.3278
  974MOL0     C28488   5.110   4.691   5.646 -1.6606 -0.3342  0.1881
  974MOL0     C28489   4.983   4.726   5.622  0.8144 -0.4971 -0.4042
  974MOL0     C28490   4.623   4.905   5.449  0.3221  0.1416  0.1671
  974MOL0     C28491   4.568   4.856   5.337 -0.1114 -0.8348  0.4195
  974MOL0     C28492   4.435   4.859   5.310 -0.6534 -0.1469 -0.7173
  974MOL0     C28493   4.349   4.907   5.415 -0.1292  0.3976  0.8320
  974MOL0     O28494   4.221   4.910   5.370  0.8557  0.9203 -0.7351
  974MOL0     C28495   4.117   4.913   5.473 -0.0867  0.7766  0.3970
  974MOL0     C28496   3.983   4.913   5.399 -0.1935 -0.4912 -0.2257
  974MOL0     C28497   3.943   4.774   5.353  1.5503 -0.2062  1.2250
  974MOL0     C28498   3.792   4.758   5.336  0.3545  0.7459 -0.5923
  974MOL0     C28499   3.771   4.650   5.241 -0.0715  1.8650 -0.0308
  974MOL0     C28500   3.755   4.577   5.136 -0.7477 -0.2669  0.1676
  974MOL0     C28501   4.402   4.948   5.540 -0.0797  0.0493  0.1249
  974MOL0     C28502   4.544   4.947   5.562  0.3663  0.1526  0.1976
  974MOL0     H28503   5.004   5.068   5.661 -1.6033 -0.5805 -0.5193
  974MOL0     H28504   5.249   4.994   5.688  0.6484 -0.4080  0.0680
  974MOL0     H28505   5.346   4.691   5.472  1.5514 -1.1891  0.8074
  974MOL0     H28506   5.342   4.585   5.612 -1.3123 -0.3752  0.0405
  974MOL0     H28507   5.580   4.749   5.485  0.5879 -0.4613 -0.5398
  974MOL0     H28508   5.537   4.573   5.478  0.7938  0.5040 -1.6579
  974MOL0     H28509   5.610   4.527   5.691 -3.7011  1.5621  2.3742
  974MOL0     H28510   5.600   4.691   5.755 -0.4115  1.6739 -1.1091
  974MOL0     H28511   5.799   4.587   5.543 -1.4938  0.3438 -0.5480
  974MOL0     H28512   5.789   4.757   5.592  1.7844 -1.6092 -3.7629
  974MOL0     H28513   5.975   4.590   5.704 -1.1417 -2.1182 -0.4097
  974MOL0     H28514   5.839   4.536   5.799  2.0160  1.8092  3.3894
  974MOL0     H28515   5.794   4.754   5.891  0.5756 -0.8432  1.0330
  974MOL0     H28516   5.926   4.827   5.795  1.1014 -0.0914  0.0700
  974MOL0     H28517   5.965   4.586   5.981 -1.6103  1.2939  0.9899
  974MOL0     H28518   6.094   4.683   5.903  0.9514  1.8247  2.5029
  974MOL0     H28519   5.925   4.810   6.110 -0.3291  0.9145 -1.1609
  974MOL0     H28520   6.082   4.863   6.047 -0.3047  1.1501  1.7415
  974MOL0     H28521   6.265   4.641   6.058 -1.6791  2.1460 -2.3252
  974MOL0     H28522   6.449   4.639   6.327  1.2426  1.1746 -5.3967
  974MOL0     H28523   6.426   4.487   6.241  1.8923 -0.6805  2.5387
  974MOL0     H28524   6.329   4.371   6.426  1.3547 -1.0049 -2.0586
  974MOL0     H28525   6.329   4.519   6.522  1.6052  1.8031 -0.7101
  974MOL0     H28526   6.553   4.348   6.410 -0.5514  3.6763 -2.2299
  974MOL0     H28527   6.593   4.507   6.496  1.3259  0.1356 -1.0395
  974MOL0     H28528   6.487   4.410   6.698  1.0603  0.2509 -1.2641
  974MOL0     H28529   6.627   4.337   6.649  0.4942 -0.5143  0.2316
  974MOL0     H28530   6.629   4.187   6.831  0.1301  0.1356  1.6293
  974MOL0     H28531   6.553   4.086   7.050  0.5819 -1.3930 -0.0292
  974MOL0     H28532   6.240   4.064   7.385  5.2962  0.5681  1.0193
  974MOL0     H28533   6.112   3.940   7.572  0.5985  0.0730  0.8147
  974MOL0     H28534   5.984   3.790   7.715 -0.0038  0.3369  2.0896
  974MOL0     H28535   6.139   3.785   7.801  0.2335 -0.4184 -0.7496
  974MOL0     H28536   5.988   3.667   7.914 -4.4873 -3.7393  1.9911
  974MOL0     H28537   6.112   3.544   7.856  0.2143 -0.8444  1.0394
  974MOL0     H28538   5.954   3.479   7.685  1.7617  1.8730 -0.6099
  974MOL0     H28539   5.837   3.600   7.716 -0.2508  0.3505  0.8064
  974MOL0     H28540   5.892   3.370   7.897 -1.5387 -0.6004  1.4653
  974MOL0     H28541   5.813   3.512   7.962 -1.0024 -0.8406  0.2555
  974MOL0     H28542   5.720   3.343   7.724  1.1129  0.1051  1.0953
  974MOL0     H28543   5.652   3.502   7.770  0.0047  0.4774  2.8121
  974MOL0     H28544   5.550   3.417   7.953  1.7399 -1.1796  3.2999
  974MOL0     H28545   5.657   3.279   7.959  0.3314 -0.8249 -1.6073
  974MOL0     H28546   5.426   3.358   7.743 -1.8936  0.2864  1.6892
  974MOL0     H28547   5.497   3.213   7.725  0.1123  3.1320 -3.1402
  974MOL0     H28548   5.275   3.295   7.908 -0.2986 -0.1255 -0.2358
  974MOL0     H28549   5.405   3.207   8.001 -0.3779  3.4959  1.4736
  974MOL0     H28550   6.283   3.582   7.469 -0.6644 -0.5823 -0.0720
  974MOL0     H28551   6.401   3.680   7.264 -0.0300 -0.6619  0.8020
  974MOL0     H28552   6.165   4.024   6.865 -1.0060  2.1280 -0.9609
  974MOL0     H28553   6.244   4.133   6.672  0.5774 -1.0346 -1.0286
  974MOL0     H28554   5.137   4.587   5.627 -0.3997 -0.4023  2.0493
  974MOL0     H28555   4.916   4.651   5.582 -3.8403  1.7004  2.3701
  974MOL0     H28556   4.620   4.818   5.250 -1.8481 -1.5050 -0.3865
  974MOL0     H28557   4.398   4.845   5.209  1.5773  0.0340 -1.6088
  974MOL0     H28558   4.135   5.009   5.523  1.6612  0.0121  1.3318
  974MOL0     H28559   4.111   4.832   5.547  2.9646  0.3594  0.3187
  974MOL0     H28560   3.913   4.939   5.479  0.5854  1.2176 -0.0665
  974MOL0     H28561   3.969   4.987   5.320  1.5694 -0.2819 -0.3860
  974MOL0     H28562   3.991   4.697   5.415  1.4604  0.2090  1.8071
  974MOL0     H28563   3.996   4.757   5.259  1.0111  1.0846  0.6755
  974MOL0     H28564   3.757   4.732   5.437  0.7948  1.2446 -0.3053
  974MOL0     H28565   3.756   4.852   5.294 -1.8635 -0.5354 -1.7437
  974MOL0     H28566   3.742   4.523   5.044 -3.3955 -0.3876  0.5303
  974MOL0     H28567   4.338   4.989   5.618 -0.6311  2.3122 -1.4246
  974MOL0     H28568   4.589   4.980   5.655 -1.6177  3.5941  0.1147
  975MOL0     O28569   5.952   4.301  10.328 -0.3637 -0.3441  0.0066
  975MOL0     C28570   5.866   4.211  10.335  1.0058 -0.3274  0.3218
  975MOL0     O28571   5.758   4.201  10.252  0.2739 -0.6261 -0.0198
  975MOL0     C28572   5.728   4.305  10.173  0.1269  0.4063  0.6231
  975MOL0     C28573   5.712   4.283  10.028  0.2912 -0.2024  0.0188
  975MOL0     C28574   5.676   4.391   9.947  0.3314  0.8239 -0.4059
  975MOL0     C28575   5.641   4.513  10.005 -0.4525  0.5984 -0.0848
  975MOL0     O28576   5.598   4.615   9.919  0.1015  0.4159 -0.0647
  975MOL0     C28577   5.501   4.705   9.955  0.9463 -0.2731  0.0011
  975MOL0     C28578   5.394   4.705   9.842  0.0617 -0.4176 -0.7310
  975MOL0     C28579   5.288   4.806   9.867  1.3956 -0.0025  0.2348
  975MOL0     C28580   5.159   4.765   9.808 -0.0157  0.8463 -0.2169
  975MOL0     C28581   5.069   4.882   9.830  0.6894  0.3077  0.5257
  975MOL0     C28582   4.921   4.836   9.817  0.0655  0.3435  0.3334
  975MOL0     C28583   4.818   4.954   9.822  0.2265  0.2697  0.2870
  975MOL0     C28584   4.668   4.906   9.809  0.5283 -0.8124 -0.5679
  975MOL0     N28585   4.573   5.016   9.839 -0.9268 -1.2453  0.0897
  975MOL0     C28586   4.527   5.050   9.962  0.6871 -0.5906  0.7982
  975MOL0     C28587   4.442   5.157   9.941 -0.1621 -0.1379  0.6224
  975MOL0     C28588   4.367   5.222  10.051  0.1392 -0.1046 -0.4361
  975MOL0     C28589   4.255   5.310   9.989 -0.4933 -0.5123  0.1186
  975MOL0     C28590   4.154   5.234   9.897 -0.1495 -0.5884 -0.0488
  975MOL0     C28591   4.027   5.318   9.857  0.4773 -0.4918  0.2106
  975MOL0     O28592   3.949   5.330   9.975  0.4702  0.3325  0.2560
  975MOL0     C28593   3.818   5.341   9.941  0.7910  0.2961  0.6331
  975MOL0     C28594   3.757   5.414   9.841 -0.1174  0.0944  0.2969
  975MOL0     C28595   3.615   5.419   9.828 -0.2921  0.1185  0.3171
  975MOL0     C28596   3.533   5.350   9.919 -0.2137 -0.2701 -0.3574
  975MOL0     C28597   3.390   5.348   9.905 -0.2397  0.4165 -0.2854
  975MOL0     O28598   3.343   5.406   9.788 -0.0868 -0.0047  0.1038
  975MOL0     C28599   3.213   5.429   9.760 -0.1558 -0.0060 -0.1214
  975MOL0     C28600   3.100   5.451   9.844  0.1744  0.4204  0.4914
  975MOL0     C28601   2.972   5.470   9.791 -0.8850 -0.2223 -0.3576
  975MOL0     C28602   2.947   5.468   9.655  0.1973  1.1391 -0.5820
  975MOL0     O28603   2.826   5.484   9.602 -0.6033 -0.2722 -0.0786
  975MOL0     C28604   2.791   5.463   9.461 -0.4797  0.3920  0.8076
  975MOL0     C28605   2.647   5.493   9.420  0.4359  0.0087  0.4378
  975MOL0     C28606   2.608   5.651   9.444 -0.7960 -0.0206  0.2648
  975MOL0     C28607   2.562   5.679   9.583  0.8214 -0.1899  0.4475
  975MOL0     C28608   2.487   5.815   9.583 -0.0786 -0.5257 -0.1393
  975MOL0     C28609   2.444   5.861   9.719 -0.2106 -0.9900  0.1720
  975MOL0     C28610   2.557   5.943   9.799 -0.7681  0.3245  0.2004
  975MOL0     C28611   2.583   6.080   9.733 -0.3181  0.0521  0.4881
  975MOL0    Cl28612   2.692   6.178   9.815  0.3420  0.3432 -0.1816
  975MOL0     C28613   3.051   5.447   9.570 -0.2481 -0.5578 -0.5449
  975MOL0     C28614   3.177   5.432   9.625  0.1400 -0.1165  0.2815
  975MOL0     O28615   3.315   5.317  10.001  0.2369  0.1380  0.1695
  975MOL0     C28616   3.597   5.295  10.033  0.1841 -0.0569 -0.0960
  975MOL0     C28617   3.739   5.282  10.041 -0.7995 -1.5718  0.5796
  975MOL0     N28618   4.453   5.181   9.804  1.0217 -0.0974  0.3822
  975MOL0     N28619   4.518   5.091   9.746 -0.1567 -0.8541 -0.3618
  975MOL0     C28620   5.656   4.533  10.147 -0.9331  0.2564  0.2873
  975MOL0     C28621   5.708   4.429  10.227 -0.3305 -0.4459  0.6096
  975MOL0     C28622   5.862   4.125  10.458  0.1087  0.7933  0.8516
  975MOL0     C28623   5.799   4.003  10.461 -0.7948 -0.0244  0.6341
  975MOL0     C28624   5.825   3.910  10.560 -0.3599 -1.1172 -0.7381
  975MOL0     C28625   5.897   3.952  10.675 -1.3147  0.1032 -0.0473
  975MOL0     O28626   5.931   3.862  10.766 -0.9701  0.1270  0.0195
  975MOL0     C28627   5.908   3.893  10.905  0.1031 -0.1623  0.3942
  975MOL0     C28628   5.963   3.791  10.994  0.9072  0.3896  0.0569
  975MOL0     C28629   5.897   3.649  10.961 -1.4420 -0.6481 -0.1935
  975MOL0     C28630   5.940   3.551  11.067 -0.0154  0.4929  0.0894
  975MOL0     C28631   6.085   3.514  11.057 -0.6100 -0.3422 -0.0095
  975MOL0     C28632   6.200   3.479  11.047 -0.9909 -0.0550  0.1903
  975MOL0     C28633   5.960   4.078  10.683 -0.3717 -0.7625 -0.1498
  975MOL0     C28634   5.940   4.158  10.572  0.4160 -0.6205 -0.4764
  975MOL0     H28635   5.732   4.180   9.999  0.9427 -0.0182 -0.1946
  975MOL0     H28636   5.673   4.367   9.841  1.7472  0.1998 -0.3306
  975MOL0     H28637   5.548   4.803   9.949  1.0521 -0.2609  0.9011
  975MOL0     H28638   5.470   4.701  10.060  2.5828  0.1353  0.5225
  975MOL0     H28639   5.350   4.605   9.835 -1.5590  0.0044  2.0582
  975MOL0     H28640   5.436   4.723   9.742 -0.4891 -1.1486 -1.1081
  975MOL0     H28641   5.325   4.900   9.824  0.7138  0.1347 -0.0626
  975MOL0     H28642   5.270   4.829   9.972  1.9775  2.5527 -0.1622
  975MOL0     H28643   5.164   4.746   9.701 -1.2804  1.3219 -0.3787
  975MOL0     H28644   5.122   4.678   9.865 -2.8652  2.0950 -0.0064
  975MOL0     H28645   5.093   4.964   9.761 -0.4587 -1.0195 -1.5634
  975MOL0     H28646   5.076   4.917   9.933  1.9103  1.3890  0.1102
  975MOL0     H28647   4.896   4.787   9.912  0.4750 -1.4938 -0.4709
  975MOL0     H28648   4.907   4.765   9.735  1.2726 -1.8221  1.8718
  975MOL0     H28649   4.827   5.010   9.916  0.5169  0.5104  0.1170
  975MOL0     H28650   4.844   5.026   9.745 -1.5411  1.7124  0.9670
  975MOL0     H28651   4.656   4.838   9.894  0.3217  1.5474  1.4028
  975MOL0     H28652   4.654   4.847   9.718  0.6177  0.5418 -1.4945
  975MOL0     H28653   4.538   4.998  10.057 -0.4730 -1.3770  0.5252
  975MOL0     H28654   4.425   5.288  10.117 -2.3480  3.8850 -1.8820
  975MOL0     H28655   4.319   5.140  10.105  1.1052 -0.1880  0.3357
  975MOL0     H28656   4.292   5.394   9.930 -1.8907  0.0077 -0.0713
  975MOL0     H28657   4.198   5.361  10.068  0.2866  0.6472 -0.0449
  975MOL0     H28658   4.202   5.209   9.803 -0.5185 -1.4323 -0.0229
  975MOL0     H28659   4.109   5.145   9.941  0.4106 -0.7175  0.2749
  975MOL0     H28660   3.975   5.258   9.782 -2.5945  0.6491  1.3060
  975MOL0     H28661   4.067   5.412   9.818  0.6381 -0.8448 -0.4869
  975MOL0     H28662   3.824   5.453   9.765  2.4205 -2.0818  1.2729
  975MOL0     H28663   3.566   5.460   9.740  0.9539 -0.6220 -0.7529
  975MOL0     H28664   3.107   5.463   9.951 -0.4272  4.0932  0.2349
  975MOL0     H28665   2.896   5.502   9.861  0.1376 -0.0585  0.7146
  975MOL0     H28666   2.813   5.358   9.442 -2.7096 -0.1788  1.0930
  975MOL0     H28667   2.855   5.523   9.395 -0.9840 -1.9625 -2.0246
  975MOL0     H28668   2.575   5.433   9.477 -3.0024  2.1278 -1.2956
  975MOL0     H28669   2.634   5.461   9.316  2.2615 -1.5371  0.6355
  975MOL0     H28670   2.532   5.672   9.369  0.7111 -2.6348 -2.1996
  975MOL0     H28671   2.691   5.719   9.422 -0.9865  0.6956  1.6799
  975MOL0     H28672   2.485   5.605   9.608 -1.1102  1.3803 -0.6164
  975MOL0     H28673   2.648   5.674   9.650  2.3957 -1.9278 -1.5583
  975MOL0     H28674   2.397   5.812   9.520 -0.1263  1.5613 -0.2425
  975MOL0     H28675   2.544   5.891   9.528 -0.5840 -1.1984 -1.6358
  975MOL0     H28676   2.419   5.765   9.765 -1.8927 -1.1074 -0.9060
  975MOL0     H28677   2.347   5.911   9.721  0.1871 -0.2279  0.9095
  975MOL0     H28678   2.536   5.956   9.905  1.0569  1.0420  0.5083
  975MOL0     H28679   2.651   5.887   9.804  1.1901  3.5048  2.6595
  975MOL0     H28680   2.489   6.137   9.731  0.3198  1.1400  0.4843
  975MOL0     H28681   2.619   6.056   9.633  1.1587  0.3852  0.9200
  975MOL0     H28682   3.047   5.441   9.462  2.2214  0.5945 -0.7803
  975MOL0     H28683   3.258   5.407   9.557 -1.0885 -0.3697 -1.1280
  975MOL0     H28684   3.534   5.248  10.108 -4.1118  0.5499 -2.9913
  975MOL0     H28685   3.786   5.249  10.133  0.5563  3.6831  2.1590
  975MOL0     H28686   5.626   4.631  10.183  2.1293  2.6551 -2.9805
  975MOL0     H28687   5.740   4.454  10.328  1.0730 -0.2216  0.1368
  975MOL0     H28688   5.743   3.990  10.369  1.6520 -2.0549 -0.6991
  975MOL0     H28689   5.764   3.821  10.570 -0.3832 -1.1702 -1.3493
  975MOL0     H28690   5.800   3.888  10.919 -0.3802  1.7259 -1.9408
  975MOL0     H28691   5.937   3.991  10.943 -0.5902 -0.0373  0.6165
  975MOL0     H28692   6.072   3.782  10.984  0.8539  0.1521 -0.3418
  975MOL0     H28693   5.928   3.817  11.094 -3.5677 -1.0010 -0.9360
  975MOL0     H28694   5.926   3.616  10.861  1.5540 -0.4357  0.5213
  975MOL0     H28695   5.790   3.668  10.973 -1.0825  3.0222 -1.5022
  975MOL0     H28696   5.903   3.580  11.166  0.8928 -0.2360  0.6521
  975MOL0     H28697   5.882   3.459  11.052  5.6221 -3.1126 -2.8172
  975MOL0     H28698   6.301   3.447  11.032 -0.3182  0.6633  2.6692
  975MOL0     H28699   6.025   4.116  10.762  0.9239 -0.8932 -1.1285
  975MOL0     H28700   5.997   4.250  10.566  0.4899 -0.7417 -1.8730
  976MOL0     O28701   4.115   9.493   6.611 -0.1493  0.0872  0.1755
  976MOL0     C28702   4.194   9.424   6.540  0.8129 -0.1070 -1.1447
  976MOL0     O28703   4.158   9.355   6.430 -0.8257  0.6544  0.2922
  976MOL0     C28704   4.036   9.372   6.374 -0.4715  0.1356 -0.7390
  976MOL0     C28705   3.955   9.487   6.382  0.5364 -0.3674  0.1923
  976MOL0     C28706   3.827   9.504   6.327 -0.0268  0.9913 -0.3030
  976MOL0     C28707   3.776   9.390   6.262  0.9211 -0.5546 -0.5704
  976MOL0     O28708   3.650   9.392   6.206 -0.0068 -0.0938 -0.3743
  976MOL0     C28709   3.548   9.458   6.287 -0.2710 -0.7402 -0.2819
  976MOL0     C28710   3.414   9.441   6.211 -0.4647 -0.6062 -0.6259
  976MOL0     C28711   3.295   9.497   6.288  0.1322 -0.0365 -1.1426
  976MOL0     C28712   3.164   9.441   6.221 -0.2101  0.0033  1.1128
  976MOL0     C28713   3.046   9.500   6.285 -1.0503 -0.3365  0.2000
  976MOL0     C28714   3.030   9.464   6.430  0.0738 -0.0066  0.4449
  976MOL0     C28715   2.895   9.519   6.485  0.2597  0.0858  0.5196
  976MOL0     C28716   2.835   9.443   6.604 -0.1104  0.2536  0.2196
  976MOL0     N28717   2.785   9.546   6.708 -0.2624 -0.2519  0.0590
  976MOL0     C28718   2.655   9.599   6.707 -0.3224 -0.3811  0.0548
  976MOL0     C28719   2.656   9.701   6.798  0.5396 -0.1819  0.0358
  976MOL0     C28720   2.559   9.808   6.848 -0.8590  0.2068  0.1532
  976MOL0     C28721   2.473   9.740   6.949 -0.0553  0.7914  1.0421
  976MOL0     C28722   2.372   9.829   7.003  0.1005 -0.0212 -1.5252
  976MOL0     C28723   2.250   9.754   7.077 -0.0401  0.4772  0.2136
  976MOL0     O28724   2.173   9.681   6.975  0.2556  1.0687 -0.3689
  976MOL0     C28725   2.068   9.604   7.017  1.2179 -0.8280 -0.7709
  976MOL0     C28726   1.952   9.590   6.933 -0.8356  0.3518 -0.0727
  976MOL0     C28727   1.841   9.522   6.975  0.0707 -0.5801  0.2073
  976MOL0     C28728   1.829   9.463   7.100 -0.5934 -0.3187 -0.0085
  976MOL0     C28729   1.706   9.397   7.138  0.4423  0.7414  0.5306
  976MOL0     O28730   1.584   9.419   7.065 -0.8131 -0.1187  0.9004
  976MOL0     C28731   1.459   9.377   7.091  0.7327 -0.8106 -0.1037
  976MOL0     C28732   1.417   9.303   7.204 -0.2035 -0.0918  0.0216
  976MOL0     C28733   1.285   9.262   7.218 -0.6938 -0.6931  0.5627
  976MOL0     C28734   1.190   9.312   7.124 -0.5097 -0.1090 -0.0587
  976MOL0     O28735   1.052   9.289   7.144 -0.3546 -0.0207 -0.2604
  976MOL0     C28736   1.001   9.283   7.272  0.1522 -0.3250 -0.3149
  976MOL0     C28737   0.860   9.224   7.267 -0.7785 -0.5930 -0.5222
  976MOL0     C28738   0.844   9.072   7.264 -0.8109 -0.2501 -0.5723
  976MOL0     C28739   0.692   9.038   7.259  0.2458 -0.4037 -0.1694
  976MOL0     C28740   0.663   8.884   7.275 -0.3251 -0.9273  1.1344
  976MOL0     C28741   0.689   8.794   7.147 -0.1350 -0.0321 -0.1242
  976MOL0     C28742   0.698   8.648   7.193  0.2752  0.7693  0.1107
  976MOL0     C28743   0.688   8.554   7.073  0.0922 -0.1342  0.4020
  976MOL0    Cl28744   0.518   8.522   7.012 -0.2434 -0.0897  0.2810
  976MOL0     C28745   1.233   9.391   7.014 -0.3283 -0.0857 -0.2530
  976MOL0     C28746   1.370   9.423   6.999 -1.0233  0.0362  0.0178
  976MOL0     O28747   1.709   9.325   7.241 -0.5901  0.4749  0.1901
  976MOL0     C28748   1.937   9.486   7.188  0.4378 -0.6197  0.6229
  976MOL0     C28749   2.058   9.547   7.148  0.4460 -0.9049  0.9659
  976MOL0     N28750   2.788   9.719   6.836 -0.0407 -0.3212  0.6224
  976MOL0     N28751   2.863   9.623   6.794  0.0444  0.7350  0.1899
  976MOL0     C28752   3.849   9.273   6.262 -0.1435  0.5057  0.3031
  976MOL0     C28753   3.983   9.259   6.305  0.2413 -0.6604  0.4670
  976MOL0     C28754   4.332   9.424   6.570 -0.2720  0.2389  0.4938
  976MOL0     C28755   4.427   9.339   6.501  0.7789  0.0089 -1.0230
  976MOL0     C28756   4.559   9.350   6.523 -0.0012  0.9763 -0.2150
  976MOL0     C28757   4.617   9.432   6.621  0.2684  0.4440 -0.2407
  976MOL0     O28758   4.752   9.455   6.634 -0.8726 -0.1608  0.0872
  976MOL0     C28759   4.834   9.428   6.514 -0.3868  0.1435 -0.7869
  976MOL0     C28760   4.984   9.463   6.531 -0.5106 -0.0174  0.9146
  976MOL0     C28761   5.052   9.407   6.650 -0.1231 -0.4677  0.5105
  976MOL0     C28762   5.201   9.444   6.667 -0.2182  0.1837 -0.4780
  976MOL0     C28763   5.210   9.578   6.714 -0.6038  0.2807 -0.3859
  976MOL0     C28764   5.213   9.693   6.764  0.0144  0.5723  1.1290
  976MOL0     C28765   4.527   9.513   6.686  1.0612 -0.1164 -0.4567
  976MOL0     C28766   4.385   9.504   6.670  0.3484 -1.1245 -0.4934
  976MOL0     H28767   3.986   9.578   6.432  3.1763 -0.6333 -0.8181
  976MOL0     H28768   3.774   9.598   6.328  0.5076  1.3076 -1.0844
  976MOL0     H28769   3.564   9.565   6.297 -1.7008 -0.2006 -2.9043
  976MOL0     H28770   3.539   9.410   6.385  0.5140 -1.6963 -0.6532
  976MOL0     H28771   3.409   9.333   6.202  0.5095 -0.6590 -0.7320
  976MOL0     H28772   3.415   9.489   6.113 -1.0361 -0.5616 -0.6103
  976MOL0     H28773   3.311   9.605   6.274 -2.5200  0.5619 -0.0028
  976MOL0     H28774   3.301   9.474   6.394  3.0837 -3.1210 -1.7934
  976MOL0     H28775   3.156   9.478   6.119 -1.0170 -1.7209  0.5183
  976MOL0     H28776   3.163   9.332   6.217 -2.5008  0.0243 -0.7098
  976MOL0     H28777   2.965   9.468   6.219 -0.5217 -0.6340 -0.3093
  976MOL0     H28778   3.066   9.607   6.274  0.9149 -0.8495 -1.9557
  976MOL0     H28779   3.109   9.512   6.488  0.8893 -0.1467 -0.5227
  976MOL0     H28780   3.006   9.357   6.437 -2.3194  0.5052  0.9610
  976MOL0     H28781   2.904   9.626   6.507 -1.3191  0.7191 -1.5985
  976MOL0     H28782   2.829   9.513   6.398  1.3483  0.6763 -0.3697
  976MOL0     H28783   2.919   9.398   6.659  0.3604  2.4722  1.4380
  976MOL0     H28784   2.774   9.358   6.575 -1.3662  0.8311  1.0736
  976MOL0     H28785   2.566   9.565   6.655 -1.5534 -1.0256  2.4142
  976MOL0     H28786   2.502   9.837   6.759 -0.8396  0.3556  0.1890
  976MOL0     H28787   2.610   9.896   6.887  2.2786 -0.8347 -1.1964
  976MOL0     H28788   2.537   9.701   7.029 -0.2240 -2.0246 -0.0510
  976MOL0     H28789   2.423   9.653   6.905  1.0993  0.0298  1.1842
  976MOL0     H28790   2.420   9.898   7.073 -2.6991  0.5581 -0.0057
  976MOL0     H28791   2.321   9.887   6.926  0.4659  2.5905  0.0849
  976MOL0     H28792   2.186   9.827   7.127 -3.0656 -0.7246 -1.6511
  976MOL0     H28793   2.279   9.671   7.142 -1.7451 -0.6357 -0.3811
  976MOL0     H28794   1.941   9.637   6.836 -2.2470 -0.0496 -0.1296
  976MOL0     H28795   1.758   9.494   6.912  0.3945 -1.7795  0.2798
  976MOL0     H28796   1.499   9.264   7.264 -0.5596  2.1474  2.1259
  976MOL0     H28797   1.253   9.201   7.301 -3.0391  1.2379  1.1675
  976MOL0     H28798   0.999   9.388   7.302 -3.8444 -1.0439  2.8072
  976MOL0     H28799   1.058   9.218   7.339  2.7076  0.3027 -1.7139
  976MOL0     H28800   0.802   9.272   7.188 -0.7036  0.6235  0.1355
  976MOL0     H28801   0.818   9.254   7.364  0.7754 -3.1764  1.0995
  976MOL0     H28802   0.890   9.035   7.356 -1.3415  0.2535 -0.0953
  976MOL0     H28803   0.893   9.031   7.174 -1.3790 -2.2244 -0.0407
  976MOL0     H28804   0.644   9.084   7.346 -0.0084 -1.4376  0.2483
  976MOL0     H28805   0.655   9.074   7.163  1.3396 -2.4615 -1.4484
  976MOL0     H28806   0.561   8.859   7.307 -1.1729 -2.3495 -2.2126
  976MOL0     H28807   0.725   8.862   7.362  1.3240 -0.0589  0.2158
  976MOL0     H28808   0.784   8.821   7.100  0.0359 -2.9904 -1.6662
  976MOL0     H28809   0.603   8.812   7.083  0.9294  0.5230 -1.4416
  976MOL0     H28810   0.782   8.637   7.261  0.5531 -3.5798 -0.6559
  976MOL0     H28811   0.606   8.626   7.248  0.2657  0.4766 -0.0153
  976MOL0     H28812   0.724   8.455   7.104  0.4186 -0.1929 -0.1542
  976MOL0     H28813   0.745   8.590   6.986  3.1763 -0.3292  2.2041
  976MOL0     H28814   1.153   9.420   6.946  0.4698 -0.3119 -1.3139
  976MOL0     H28815   1.420   9.480   6.921  0.7861  1.6395  2.2005
  976MOL0     H28816   1.918   9.461   7.292 -1.0936 -1.1953  0.2417
  976MOL0     H28817   2.134   9.538   7.225 -0.3318 -0.5861  1.7813
  976MOL0     H28818   3.805   9.188   6.212  1.6742 -1.0136  1.1356
  976MOL0     H28819   4.050   9.175   6.286  1.2825  0.1145  0.6050
  976MOL0     H28820   4.383   9.276   6.424 -1.4463 -1.0029  0.9565
  976MOL0     H28821   4.618   9.282   6.463 -0.0579 -1.1374  1.9560
  976MOL0     H28822   4.790   9.489   6.435  1.4566  5.5502  1.8416
  976MOL0     H28823   4.827   9.320   6.499 -0.4745  0.5016 -3.8107
  976MOL0     H28824   5.043   9.439   6.442 -1.0385 -2.5206  1.1754
  976MOL0     H28825   4.991   9.572   6.542  0.2518 -0.1416  1.7729
  976MOL0     H28826   5.038   9.299   6.662 -1.9891 -0.2082  1.0848
  976MOL0     H28827   4.996   9.447   6.735 -0.4636  2.7028 -1.0606
  976MOL0     H28828   5.233   9.362   6.732 -2.5727  0.8747  1.7109
  976MOL0     H28829   5.264   9.435   6.577 -1.8064 -2.0976 -1.4535
  976MOL0     H28830   5.216   9.791   6.806  0.5379  1.6108 -1.1863
  976MOL0     H28831   4.564   9.589   6.755 -2.7917 -0.1498  1.9462
  976MOL0     H28832   4.322   9.577   6.720 -2.0926 -2.5355 -1.3380
  977MOL0     O28833   9.572   6.449   2.620 -0.2745 -0.2358 -0.3552
  977MOL0     C28834   9.693   6.482   2.627  0.4408 -0.2517  0.4902
  977MOL0     O28835   9.747   6.569   2.718  0.4377 -0.4008 -0.1816
  977MOL0     C28836   9.642   6.635   2.777 -0.4504 -0.3750  0.4851
  977MOL0     C28837   9.587   6.583   2.899 -0.3900  0.0463  0.4694
  977MOL0     C28838   9.489   6.650   2.965 -0.4400 -0.1795 -0.8063
  977MOL0     C28839   9.440   6.772   2.918 -0.1479 -0.4931  0.6243
  977MOL0     O28840   9.353   6.862   2.970 -0.1477  0.2288 -0.5860
  977MOL0     C28841   9.277   6.813   3.077 -0.5429 -0.1710  0.0687
  977MOL0     C28842   9.164   6.911   3.122 -0.5619  0.3559 -0.0363
  977MOL0     C28843   9.080   6.877   3.254 -0.7164 -0.4728  0.2681
  977MOL0     C28844   9.001   6.741   3.234  0.9261  0.3184 -0.4383
  977MOL0     C28845   8.901   6.692   3.348  0.3404 -1.0888  0.7903
  977MOL0     C28846   8.788   6.793   3.371 -0.1703  0.5411  0.7564
  977MOL0     C28847   8.716   6.738   3.493  0.3870  0.9769  0.2094
  977MOL0     C28848   8.569   6.767   3.483  0.6847  1.2295  0.2644
  977MOL0     N28849   8.499   6.733   3.608  0.8085  0.7416 -0.5721
  977MOL0     C28850   8.515   6.617   3.684 -0.0230  0.5727  0.0404
  977MOL0     C28851   8.455   6.641   3.796  0.8780  0.6480 -0.0197
  977MOL0     C28852   8.472   6.549   3.909  0.0729  0.5984  0.1181
  977MOL0     C28853   8.394   6.415   3.889  0.1894 -0.0184 -0.8784
  977MOL0     C28854   8.388   6.331   4.018  0.5076  0.2672  0.7262
  977MOL0     C28855   8.260   6.246   4.038 -0.1429 -0.0150  0.5256
  977MOL0     O28856   8.224   6.179   3.919  0.6604  0.2599  0.2035
  977MOL0     C28857   8.091   6.127   3.910 -0.9001 -0.0035  0.1046
  977MOL0     C28858   8.026   6.062   4.016  0.5419 -0.1005 -0.1038
  977MOL0     C28859   7.911   5.997   3.997 -0.2452 -0.3486 -0.1302
  977MOL0     C28860   7.856   5.996   3.868  0.5645 -0.6663 -0.5003
  977MOL0     C28861   7.732   5.912   3.844 -0.4655 -0.4079 -0.4110
  977MOL0     O28862   7.669   5.939   3.733  0.7775 -0.1699 -0.4109
  977MOL0     C28863   7.537   5.890   3.728 -0.3826 -0.4731 -0.1276
  977MOL0     C28864   7.446   5.990   3.753  0.3208 -0.6307  0.1329
  977MOL0     C28865   7.312   5.951   3.784  0.3091  0.8823 -0.2887
  977MOL0     C28866   7.271   5.813   3.789 -0.6021 -0.2626  0.3726
  977MOL0     O28867   7.156   5.769   3.846  0.2454 -1.0007 -0.6651
  977MOL0     C28868   7.052   5.859   3.892 -0.0608  0.7580  0.2356
  977MOL0     C28869   6.946   5.771   3.945 -0.6618 -0.3948  0.5898
  977MOL0     C28870   6.824   5.857   3.953 -0.1116 -0.3214  0.6622
  977MOL0     C28871   6.724   5.760   4.013  0.0565  0.0165 -0.4028
  977MOL0     C28872   6.580   5.817   3.984 -0.4303  0.2730  0.9840
  977MOL0     C28873   6.554   5.958   4.034  0.5383  0.3290  1.1666
  977MOL0     C28874   6.414   6.006   4.040 -0.3569 -0.2121  0.4968
  977MOL0     C28875   6.348   5.974   4.171  0.0789 -0.3520 -0.4406
  977MOL0    Cl28876   6.180   6.040   4.166  0.2605  0.0576  0.2197
  977MOL0     C28877   7.370   5.723   3.757  0.3796  0.4605  0.0372
  977MOL0     C28878   7.504   5.750   3.726 -0.6924  0.4767 -0.3257
  977MOL0     O28879   7.695   5.836   3.933  0.2685 -0.3401 -0.0744
  977MOL0     C28880   7.906   6.083   3.767 -0.4977  0.1418 -0.2531
  977MOL0     C28881   8.024   6.143   3.785  0.1467  0.8297 -0.5721
  977MOL0     N28882   8.395   6.768   3.790  0.0366  0.0676  0.1391
  977MOL0     N28883   8.421   6.823   3.680 -1.4284  0.5433 -0.0795
  977MOL0     C28884   9.494   6.823   2.797 -0.0558 -0.0386  0.1541
  977MOL0     C28885   9.598   6.752   2.723 -0.4099 -0.1450 -0.5904
  977MOL0     C28886   9.788   6.417   2.540  0.0834  0.0235  0.4137
  977MOL0     C28887   9.732   6.335   2.429  0.4866  0.2736 -0.8596
  977MOL0     C28888   9.813   6.262   2.352 -1.0246  0.8237 -0.7018
  977MOL0     C28889   9.957   6.270   2.380 -0.1964  0.2164  0.1820
  977MOL0     O28890  10.055   6.208   2.306 -0.0880  0.2580 -0.4073
  977MOL0     C28891  10.016   6.128   2.189 -0.0057 -1.1047 -0.3766
  977MOL0     C28892  10.131   6.105   2.097  0.1771  0.3298  0.1493
  977MOL0     C28893  10.088   6.106   1.945 -0.7518 -0.2367 -1.1764
  977MOL0     C28894  10.205   6.075   1.861 -0.6219  0.3456 -0.2168
  977MOL0     C28895  10.252   5.932   1.867  0.7399 -0.5566 -0.5621
  977MOL0     C28896  10.287   5.820   1.876 -0.6676 -0.4584 -0.5564
  977MOL0     C28897  10.011   6.346   2.478  0.1748  0.2215  0.3693
  977MOL0     C28898   9.930   6.417   2.555 -1.0744  0.1554 -1.0659
  977MOL0     H28899   9.620   6.483   2.927 -1.9501 -0.5598  0.2424
  977MOL0     H28900   9.450   6.605   3.056 -1.9344 -1.9739 -2.2456
  977MOL0     H28901   9.341   6.806   3.165 -1.5293 -0.9706  0.7547
  977MOL0     H28902   9.239   6.712   3.061 -3.3131  0.2953  2.7016
  977MOL0     H28903   9.099   6.933   3.037  2.4744  0.3486 -2.5406
  977MOL0     H28904   9.226   6.995   3.153 -0.9929  0.6571  0.0136
  977MOL0     H28905   9.019   6.961   3.288 -0.0048  0.6821 -1.2070
  977MOL0     H28906   9.146   6.863   3.340 -0.5846  0.9732  0.4135
  977MOL0     H28907   8.947   6.750   3.139  1.9513  0.2811 -1.0337
  977MOL0     H28908   9.078   6.664   3.224 -0.8145 -1.2150 -3.4467
  977MOL0     H28909   8.949   6.677   3.446 -2.9381 -1.7317  2.4469
  977MOL0     H28910   8.867   6.591   3.322 -0.2163 -1.1096  1.5509
  977MOL0     H28911   8.719   6.788   3.286  0.7569  1.0578 -0.0421
  977MOL0     H28912   8.818   6.898   3.373 -0.0721  0.6215 -1.7692
  977MOL0     H28913   8.717   6.628   3.494 -0.3116  0.9056  3.0234
  977MOL0     H28914   8.762   6.767   3.588  1.0369 -1.3222  0.6671
  977MOL0     H28915   8.527   6.703   3.404 -1.2514  1.1048  1.3261
  977MOL0     H28916   8.551   6.872   3.456 -1.4117  0.6065 -1.0212
  977MOL0     H28917   8.564   6.528   3.646  0.2747  2.0153 -3.3890
  977MOL0     H28918   8.426   6.600   3.994 -3.1343 -1.3055 -0.3017
  977MOL0     H28919   8.579   6.536   3.930  0.3433  3.0944  0.5598
  977MOL0     H28920   8.453   6.355   3.819  1.7486 -0.1567  0.4890
  977MOL0     H28921   8.297   6.442   3.847 -0.5136  0.0510  0.7259
  977MOL0     H28922   8.471   6.260   4.014 -0.0344 -0.3390 -2.5924
  977MOL0     H28923   8.406   6.388   4.109  1.2926  0.9166  0.1728
  977MOL0     H28924   8.178   6.306   4.078 -2.1468 -2.6527  0.6249
  977MOL0     H28925   8.288   6.173   4.114 -1.2038 -2.4766 -1.3246
  977MOL0     H28926   8.072   6.044   4.113  1.2551 -0.8180 -0.5599
  977MOL0     H28927   7.871   5.938   4.079  0.5566 -0.0749  0.4697
  977MOL0     H28928   7.468   6.096   3.762 -4.7385  0.7158 -0.2445
  977MOL0     H28929   7.242   6.029   3.811 -0.1133  0.4422 -0.0941
  977MOL0     H28930   7.024   5.914   3.802  0.5276 -0.6595 -0.8684
  977MOL0     H28931   7.093   5.915   3.977  3.6474 -0.6704 -0.3949
  977MOL0     H28932   6.978   5.733   4.042  0.8041  0.5844  0.5148
  977MOL0     H28933   6.929   5.690   3.874 -0.2933 -0.8821  1.0531
  977MOL0     H28934   6.793   5.870   3.849  1.3025 -2.7811 -0.1455
  977MOL0     H28935   6.829   5.951   4.008 -0.3149  0.1779 -0.1506
  977MOL0     H28936   6.741   5.665   3.963  2.4978 -0.8784  1.9201
  977MOL0     H28937   6.739   5.744   4.121 -2.8271 -1.5093 -0.1298
  977MOL0     H28938   6.505   5.755   4.035 -0.9165 -0.2196 -0.2805
  977MOL0     H28939   6.562   5.814   3.876  2.7517  0.9114  0.3530
  977MOL0     H28940   6.600   6.027   3.963  1.2211 -0.5287  0.7576
  977MOL0     H28941   6.607   5.963   4.130  1.8590 -4.4166  0.9053
  977MOL0     H28942   6.409   6.115   4.036  1.7641 -0.0622  0.8954
  977MOL0     H28943   6.358   5.972   3.953  0.2457 -0.8955  0.3650
  977MOL0     H28944   6.399   6.028   4.252 -0.4192  1.1610 -1.1094
  977MOL0     H28945   6.328   5.867   4.182 -2.4548  0.2022  1.2196
  977MOL0     H28946   7.335   5.621   3.768 -2.6573  1.6619  3.9355
  977MOL0     H28947   7.581   5.679   3.700 -1.8464 -0.3756 -1.5996
  977MOL0     H28948   7.857   6.104   3.672 -0.5056 -0.0276 -0.2876
  977MOL0     H28949   8.064   6.215   3.713  1.8242  0.1999 -0.3141
  977MOL0     H28950   9.457   6.922   2.771 -0.2292  0.2059  1.3188
  977MOL0     H28951   9.639   6.790   2.630 -1.4748 -2.5252 -2.1075
  977MOL0     H28952   9.626   6.338   2.403  0.0957 -0.0981  0.6053
  977MOL0     H28953   9.770   6.194   2.279 -0.4455  0.5470 -0.7921
  977MOL0     H28954   9.932   6.173   2.135  0.0390 -1.3022 -0.6120
  977MOL0     H28955   9.983   6.036   2.238  0.7418 -0.9428  0.4676
  977MOL0     H28956  10.202   6.186   2.114  0.8250 -0.5915  2.0834
  977MOL0     H28957  10.182   6.010   2.120  2.4359 -0.4134 -6.0369
  977MOL0     H28958  10.037   6.197   1.913 -1.5249 -1.6897 -4.4898
  977MOL0     H28959  10.008   6.033   1.927 -0.3585 -1.9503  2.8721
  977MOL0     H28960  10.183   6.094   1.756 -1.5012 -3.7796 -0.9190
  977MOL0     H28961  10.292   6.135   1.893  0.1046  0.0148 -1.4984
  977MOL0     H28962  10.326   5.720   1.864  1.2627  0.1975 -0.2029
  977MOL0     H28963  10.119   6.344   2.492  0.0455 -1.2268  1.2866
  977MOL0     H28964   9.975   6.484   2.628  1.2003 -1.7821 -0.5696
  978MOL0     O28965   5.549   0.148   1.981  0.1227  0.0476 -0.1385
  978MOL0     C28966   5.627   0.076   2.041 -0.1423  0.8857 -0.1400
  978MOL0     O28967   5.602  -0.059   2.074  0.3740 -0.0188  0.4207
  978MOL0     C28968   5.479  -0.116   2.053  0.5379  0.0152 -0.6390
  978MOL0     C28969   5.433  -0.209   2.142 -0.7860  1.2651 -0.0477
  978MOL0     C28970   5.314  -0.280   2.121  1.3296 -0.9145 -0.5646
  978MOL0     C28971   5.242  -0.258   2.004  0.7154  0.1705 -0.0355
  978MOL0     O28972   5.126  -0.329   1.985 -0.7623  0.3110  0.2722
  978MOL0     C28973   5.013  -0.261   2.030  1.4264 -0.0867  0.1317
  978MOL0     C28974   4.893  -0.360   2.040 -0.5265  0.1113  0.0169
  978MOL0     C28975   4.810  -0.359   1.914  0.2525 -0.1187  0.0187
  978MOL0     C28976   4.701  -0.454   1.932 -0.7125  0.5090  0.5060
  978MOL0     C28977   4.611  -0.481   1.809  0.3260  0.4816  0.1325
  978MOL0     C28978   4.485  -0.387   1.822 -0.8474  0.5532 -0.2421
  978MOL0     C28979   4.399  -0.421   1.705 -0.1832 -0.1506  0.3332
  978MOL0     C28980   4.255  -0.362   1.713  0.5208 -0.5715 -0.2038
  978MOL0     N28981   4.156  -0.413   1.620 -0.1232 -0.7696 -0.7007
  978MOL0     C28982   4.166  -0.542   1.578 -0.8657  0.0799 -0.1218
  978MOL0     C28983   4.099  -0.547   1.466 -0.5527 -0.1460  0.4740
  978MOL0     C28984   4.072  -0.668   1.377  0.0724 -0.1699 -0.4894
  978MOL0     C28985   3.964  -0.651   1.272  1.1789 -1.1080  0.5306
  978MOL0     C28986   4.033  -0.576   1.156  0.9554 -0.6804 -0.4590
  978MOL0     C28987   3.953  -0.550   1.031  0.1188 -0.8410  0.1724
  978MOL0     O28988   3.860  -0.453   1.065  0.1901 -0.2507  0.0452
  978MOL0     C28989   3.735  -0.476   1.004  0.4869  0.1213 -0.5265
  978MOL0     C28990   3.630  -0.430   1.081  0.7010 -0.2576  0.3049
  978MOL0     C28991   3.497  -0.459   1.046  0.3463 -0.5612  0.1100
  978MOL0     C28992   3.463  -0.523   0.928  0.0759 -0.0096  0.6300
  978MOL0     C28993   3.327  -0.554   0.885  0.1506  0.2914 -0.2623
  978MOL0     O28994   3.227  -0.516   0.966  0.3925 -0.7355  0.3218
  978MOL0     C28995   3.091  -0.542   0.949 -0.7001 -0.6730  1.1315
  978MOL0     C28996   3.039  -0.638   0.866 -0.6073 -0.5282  0.2683
  978MOL0     C28997   2.902  -0.641   0.832 -1.0620  0.8022  1.5065
  978MOL0     C28998   2.817  -0.550   0.893  0.4224 -0.5563 -0.3555
  978MOL0     O28999   2.684  -0.547   0.872 -0.0315  0.1420  0.3387
  978MOL0     C29000   2.634  -0.652   0.798 -0.3349  0.3092  0.2998
  978MOL0     C29001   2.476  -0.666   0.795 -0.5892 -0.1029  0.2123
  978MOL0     C29002   2.415  -0.528   0.737  0.0709  0.3297 -0.6717
  978MOL0     C29003   2.268  -0.550   0.693  0.4727 -0.0334  0.3781
  978MOL0     C29004   2.216  -0.405   0.644  0.6138 -0.0003 -0.0021
  978MOL0     C29005   2.065  -0.420   0.618 -0.6603  0.5493  1.0712
  978MOL0     C29006   2.003  -0.294   0.556 -0.7152  1.2907 -0.5664
  978MOL0     C29007   1.847  -0.267   0.573  0.3139  0.5947 -0.5552
  978MOL0    Cl29008   1.804  -0.114   0.491 -0.0566 -0.1224 -0.1609
  978MOL0     C29009   2.858  -0.459   0.993 -0.1728 -0.0544  1.2060
  978MOL0     C29010   2.997  -0.460   1.017 -0.6217  0.0874  0.0217
  978MOL0     O29011   3.314  -0.615   0.785  0.1334 -0.3793  1.2854
  978MOL0     C29012   3.574  -0.563   0.843 -0.1725 -0.9919  0.4719
  978MOL0     C29013   3.702  -0.539   0.883 -0.2043 -0.3235  0.5281
  978MOL0     N29014   4.066  -0.412   1.434  0.2770 -0.3701  0.2848
  978MOL0     N29015   4.109  -0.334   1.525  1.0522 -0.5871 -0.6636
  978MOL0     C29016   5.290  -0.167   1.906 -0.1712 -0.1946 -0.5537
  978MOL0     C29017   5.415  -0.108   1.926  0.1666 -0.1467 -1.0761
  978MOL0     C29018   5.747   0.136   2.111  0.2715 -0.3873 -0.2220
  978MOL0     C29019   5.812   0.075   2.218  0.5369 -0.4901 -0.9641
  978MOL0     C29020   5.913   0.127   2.293 -0.2370 -0.1214  0.6049
  978MOL0     C29021   5.970   0.255   2.249  1.3472  0.6158 -1.0562
  978MOL0     O29022   6.081   0.313   2.320  0.3447 -0.5516 -0.1622
  978MOL0     C29023   6.118   0.262   2.447 -0.6082 -0.5711 -0.9580
  978MOL0     C29024   6.226   0.350   2.525 -0.2520 -0.1165 -0.2213
  978MOL0     C29025   6.358   0.385   2.440 -0.7574  0.1356  0.0055
  978MOL0     C29026   6.435   0.498   2.504 -0.5088 -0.2267 -0.2591
  978MOL0     C29027   6.486   0.453   2.632 -0.3546 -0.0208 -0.6802
  978MOL0     C29028   6.513   0.380   2.725  0.9298  0.2907  0.4175
  978MOL0     C29029   5.903   0.324   2.144 -0.4458  0.2449  0.2720
  978MOL0     C29030   5.798   0.261   2.079 -0.2057  0.1983 -0.3301
  978MOL0     H29031   5.497  -0.211   2.230 -0.6221 -4.2192  0.0435
  978MOL0     H29032   5.289  -0.356   2.195  1.3051 -2.8172 -2.4396
  978MOL0     H29033   4.989  -0.168   1.978  2.3950  2.0644  3.2722
  978MOL0     H29034   5.041  -0.237   2.133  0.0145 -0.9145  0.7397
  978MOL0     H29035   4.829  -0.349   2.128  0.3907  1.2894  0.5643
  978MOL0     H29036   4.938  -0.459   2.053  1.8139  1.3384  2.2290
  978MOL0     H29037   4.873  -0.398   1.833 -1.5491  1.6391 -2.3827
  978MOL0     H29038   4.781  -0.258   1.885  1.4047  0.3025  0.2775
  978MOL0     H29039   4.746  -0.550   1.958 -1.4224 -0.7250 -2.4527
  978MOL0     H29040   4.639  -0.433   2.020 -1.3832  2.2843 -0.3467
  978MOL0     H29041   4.586  -0.586   1.825 -0.3955  0.3507 -1.5959
  978MOL0     H29042   4.652  -0.476   1.708 -1.2996 -0.0304 -0.5939
  978MOL0     H29043   4.516  -0.282   1.818  0.7705  0.1408  0.5141
  978MOL0     H29044   4.434  -0.401   1.918 -0.0855 -2.7636 -0.1889
  978MOL0     H29045   4.440  -0.392   1.608  3.0545  0.4667  1.7318
  978MOL0     H29046   4.387  -0.529   1.701  0.4101 -0.2118 -4.1808
  978MOL0     H29047   4.261  -0.255   1.688 -1.5162 -0.7751 -1.8439
  978MOL0     H29048   4.212  -0.369   1.814  3.0680 -0.8997  0.9295
  978MOL0     H29049   4.203  -0.624   1.638  0.1187  0.7952  0.2653
  978MOL0     H29050   4.026  -0.740   1.446 -2.2613  0.9266 -0.8099
  978MOL0     H29051   4.166  -0.710   1.341  0.3530  1.2448 -1.4893
  978MOL0     H29052   3.887  -0.583   1.310  1.2962 -0.7185  0.0789
  978MOL0     H29053   3.923  -0.745   1.235  1.6292  0.6608 -5.5405
  978MOL0     H29054   4.077  -0.483   1.193 -0.9840  1.2085 -2.6490
  978MOL0     H29055   4.110  -0.646   1.121  1.3327 -0.8361  0.6289
  978MOL0     H29056   3.903  -0.641   0.999  3.0718 -1.6652 -2.6292
  978MOL0     H29057   4.021  -0.514   0.954  1.7755 -0.9997  1.4852
  978MOL0     H29058   3.664  -0.382   1.172  0.7695 -1.7945  1.1228
  978MOL0     H29059   3.419  -0.420   1.110  1.1906 -2.5246  2.4861
  978MOL0     H29060   3.103  -0.715   0.824 -0.9165 -0.2662 -0.7244
  978MOL0     H29061   2.871  -0.728   0.774  1.5817  0.2844  0.7635
  978MOL0     H29062   2.667  -0.744   0.848 -0.2448  0.5770  0.7296
  978MOL0     H29063   2.658  -0.645   0.691 -2.9488 -0.3227 -0.4204
  978MOL0     H29064   2.438  -0.686   0.896  0.3498  3.4835  1.4299
  978MOL0     H29065   2.455  -0.745   0.722 -2.3248 -0.9461  1.5634
  978MOL0     H29066   2.473  -0.493   0.652 -1.9322 -0.4849 -2.4775
  978MOL0     H29067   2.424  -0.459   0.821 -0.9543 -0.1322 -0.1541
  978MOL0     H29068   2.267  -0.635   0.625  1.8695 -2.7865  3.5169
  978MOL0     H29069   2.209  -0.579   0.780  0.2793 -0.5006  0.0945
  978MOL0     H29070   2.265  -0.375   0.551  1.1922  1.6363  0.7968
  978MOL0     H29071   2.230  -0.323   0.715  0.3263  0.4469 -0.4518
  978MOL0     H29072   2.005  -0.450   0.704  0.3790 -2.0780  0.9941
  978MOL0     H29073   2.057  -0.506   0.550 -0.4679  1.2440  0.1494
  978MOL0     H29074   2.054  -0.215   0.613 -0.0944  0.2598  0.3605
  978MOL0     H29075   2.050  -0.302   0.458  2.6057  0.5834  0.9422
  978MOL0     H29076   1.820  -0.266   0.679  2.0827 -1.6967 -0.0181
  978MOL0     H29077   1.795  -0.349   0.523 -2.7770  0.5895  2.2653
  978MOL0     H29078   2.789  -0.380   1.023 -1.5703  0.1298 -2.0385
  978MOL0     H29079   3.040  -0.388   1.086 -1.0197 -1.2500  1.7336
  978MOL0     H29080   3.563  -0.600   0.742 -0.2952  0.9372 -0.2441
  978MOL0     H29081   3.784  -0.574   0.822 -0.8766  0.5432 -0.9250
  978MOL0     H29082   5.235  -0.153   1.813  1.2098 -0.6012 -1.4558
  978MOL0     H29083   5.467  -0.063   1.841  1.7315 -1.1684 -0.7043
  978MOL0     H29084   5.781  -0.025   2.248 -0.7092  0.4261  1.0549
  978MOL0     H29085   5.964   0.087   2.379  2.3665  1.0746 -0.2730
  978MOL0     H29086   6.168   0.167   2.424  2.5991  0.8005 -0.3232
  978MOL0     H29087   6.035   0.251   2.516  0.4197  0.9714  0.6425
  978MOL0     H29088   6.179   0.443   2.559  0.2609 -0.9707  3.1534
  978MOL0     H29089   6.239   0.294   2.618 -0.7667  1.9468  1.1729
  978MOL0     H29090   6.326   0.412   2.339 -0.0782 -0.9080 -0.5038
  978MOL0     H29091   6.423   0.299   2.426 -1.2421 -0.1762 -0.3539
  978MOL0     H29092   6.518   0.529   2.439  1.7451 -1.5752  1.8267
  978MOL0     H29093   6.379   0.590   2.522 -0.3489 -0.3568  0.9269
  978MOL0     H29094   6.507   0.311   2.806  1.0424 -0.4881 -0.2274
  978MOL0     H29095   5.928   0.428   2.127 -1.6948  0.3857 -0.8186
  978MOL0     H29096   5.780   0.316   1.987  1.4586  0.8544 -0.2997
  979MOL0     O29097   2.836  10.699   7.513  0.0301  0.0433 -0.0595
  979MOL0     C29098   2.848  10.821   7.509  0.3239  0.0932  0.1531
  979MOL0     O29099   2.759  10.907   7.442 -0.2925 -0.0394  0.2555
  979MOL0     C29100   2.661  10.844   7.362  0.1487 -0.6997  0.8802
  979MOL0     C29101   2.578  10.737   7.400 -0.4160 -0.1902 -0.3028
  979MOL0     C29102   2.467  10.704   7.325  0.4532  0.2282 -0.3237
  979MOL0     C29103   2.425  10.757   7.203 -0.0410 -0.6403 -0.3934
  979MOL0     O29104   2.326  10.720   7.123 -0.0729 -0.1716  0.1701
  979MOL0     C29105   2.244  10.608   7.175  0.2039  0.2988  0.8977
  979MOL0     C29106   2.119  10.596   7.087  0.1597  0.1193 -0.4599
  979MOL0     C29107   2.002  10.512   7.142  0.2952 -0.0462 -0.3983
  979MOL0     C29108   1.880  10.525   7.040 -0.1980 -0.0586  0.4408
  979MOL0     C29109   1.754  10.460   7.069 -1.1957 -0.1012 -0.2607
  979MOL0     C29110   1.700  10.381   6.947  0.0473 -0.6148  0.7704
  979MOL0     C29111   1.640  10.475   6.835 -0.2051  0.0221 -0.1032
  979MOL0     C29112   1.563  10.399   6.730 -0.0017 -0.1818  0.0482
  979MOL0     N29113   1.445  10.328   6.775  0.5162  0.0201 -0.2368
  979MOL0     C29114   1.348  10.387   6.836 -0.6636 -0.7572 -0.3762
  979MOL0     C29115   1.257  10.293   6.874 -0.1273 -0.5571  0.8299
  979MOL0     C29116   1.125  10.325   6.937  0.4396  0.5669  0.5902
  979MOL0     C29117   1.056  10.205   7.009  0.0968  0.2118  0.0996
  979MOL0     C29118   0.900  10.249   7.018 -0.2294  0.5005  0.4367
  979MOL0     C29119   0.819  10.146   7.103  0.5676 -0.0021  1.1565
  979MOL0     O29120   0.681  10.139   7.058 -0.2093  0.2273 -0.9307
  979MOL0     C29121   0.593  10.045   7.109 -0.8258 -0.6117 -0.3795
  979MOL0     C29122   0.470  10.045   7.054 -0.3262 -0.3665 -0.1847
  979MOL0     C29123   0.365   9.965   7.109 -0.1819  0.0170  0.4668
  979MOL0     C29124   0.381   9.899   7.233 -1.0807 -0.5889 -0.0098
  979MOL0     C29125   0.271   9.818   7.290  0.3186  0.2935  0.0059
  979MOL0     O29126   0.160   9.813   7.218 -0.4787  0.7500 -0.0409
  979MOL0     C29127   0.058   9.731   7.253 -0.5504 -0.0499  0.3792
  979MOL0     C29128   0.001   9.728   7.380 -0.2325  0.7519  0.0020
  979MOL0     C29129  -0.100   9.635   7.419  0.4882  0.2558 -0.4261
  979MOL0     C29130  -0.150   9.541   7.324 -0.4070 -0.6803  0.0224
  979MOL0     O29131  -0.233   9.443   7.360  0.0375  0.3587  0.7871
  979MOL0     C29132  -0.196   9.308   7.332 -0.4046  0.0037  0.6566
  979MOL0     C29133  -0.251   9.218   7.437  0.9064  0.2009 -0.6745
  979MOL0     C29134  -0.403   9.201   7.406 -1.3750 -0.6240  0.5094
  979MOL0     C29135  -0.433   9.092   7.301 -0.5980  0.0907  0.4471
  979MOL0     C29136  -0.590   9.072   7.273 -0.0961 -0.1196 -0.2666
  979MOL0     C29137  -0.595   8.969   7.163  0.0352 -0.5062 -0.5178
  979MOL0     C29138  -0.737   8.913   7.143  0.5965  1.3429 -0.4251
  979MOL0     C29139  -0.718   8.804   7.034 -0.4409  0.8009  0.4282
  979MOL0    Cl29140  -0.866   8.716   7.005  0.4095  0.1078 -0.2246
  979MOL0     C29141  -0.096   9.558   7.199  0.7615  0.5113  0.7798
  979MOL0     C29142   0.009   9.643   7.163 -0.6852 -0.4815 -0.4531
  979MOL0     O29143   0.290   9.748   7.387 -0.3650 -0.0859  0.5042
  979MOL0     C29144   0.510   9.904   7.290 -0.3216  1.2163  0.5418
  979MOL0     C29145   0.611   9.971   7.221  0.5049 -0.2951 -0.1094
  979MOL0     N29146   1.316  10.173   6.835 -0.2767 -0.3485 -0.4953
  979MOL0     N29147   1.426  10.193   6.771  0.5487  0.2418  0.3628
  979MOL0     C29148   2.502  10.869   7.172 -1.1195  0.3549  0.2948
  979MOL0     C29149   2.616  10.912   7.249  0.1607 -0.1202  0.8358
  979MOL0     C29150   2.955  10.872   7.588 -0.1556  0.4284  0.0093
  979MOL0     C29151   3.038  10.803   7.672  0.2911 -0.3270 -0.0710
  979MOL0     C29152   3.129  10.874   7.752  0.5841 -0.2171 -0.3958
  979MOL0     C29153   3.133  11.007   7.752 -0.3759 -0.8690  0.1379
  979MOL0     O29154   3.224  11.061   7.843 -0.1941  0.6910 -0.5528
  979MOL0     C29155   3.283  11.195   7.822  0.6320  0.4633 -0.8803
  979MOL0     C29156   3.394  11.188   7.716  0.2443  0.0179  0.3978
  979MOL0     C29157   3.500  11.091   7.768  0.3877 -0.5135  0.3397
  979MOL0     C29158   3.579  11.145   7.885 -0.4613  0.0499  0.9322
  979MOL0     C29159   3.654  11.269   7.852 -0.1191  0.5246  0.1790
  979MOL0     C29160   3.706  11.369   7.821 -0.3977 -0.8473 -0.2395
  979MOL0     C29161   3.052  11.081   7.668  0.1309 -0.0606 -0.0062
  979MOL0     C29162   2.954  11.015   7.595  0.0803 -0.4642  0.4350
  979MOL0     H29163   2.601  10.677   7.487 -0.0592 -0.0826 -0.3206
  979MOL0     H29164   2.406  10.621   7.359  0.6956  0.2125  0.0799
  979MOL0     H29165   2.194  10.628   7.270 -0.9602 -1.7588  0.7856
  979MOL0     H29166   2.292  10.510   7.185  3.3650  1.6317 -0.0613
  979MOL0     H29167   2.151  10.566   6.987 -2.2321  0.4491 -1.3879
  979MOL0     H29168   2.071  10.692   7.066  1.6922  0.3718 -3.2012
  979MOL0     H29169   1.968  10.548   7.240  0.1154 -0.7294 -0.2061
  979MOL0     H29170   2.029  10.407   7.153 -3.7633 -1.7382 -3.8050
  979MOL0     H29171   1.862  10.632   7.023 -0.4337 -0.4226 -2.0212
  979MOL0     H29172   1.916  10.495   6.941 -0.4252  1.8760 -0.2885
  979MOL0     H29173   1.677  10.534   7.097 -1.0546  0.4722 -1.3247
  979MOL0     H29174   1.765  10.382   7.144  0.7027  0.5941  0.2313
  979MOL0     H29175   1.623  10.309   6.975 -2.8567  0.8832 -2.6263
  979MOL0     H29176   1.788  10.329   6.908  1.0509  0.6011  1.3362
  979MOL0     H29177   1.569  10.548   6.873 -1.3165 -1.4025  0.6289
  979MOL0     H29178   1.729  10.525   6.794  1.1237  0.6205  3.1552
  979MOL0     H29179   1.631  10.331   6.677 -1.0136 -0.7228 -0.5803
  979MOL0     H29180   1.527  10.478   6.664 -0.0532 -0.0467  0.2358
  979MOL0     H29181   1.336  10.495   6.836  1.5063 -0.4052  2.4903
  979MOL0     H29182   1.058  10.358   6.856 -0.8190  0.6619  1.6329
  979MOL0     H29183   1.148  10.404   7.009  3.3159  0.1512  0.2460
  979MOL0     H29184   1.100  10.180   7.106 -0.2719 -1.7134 -0.1891
  979MOL0     H29185   1.049  10.110   6.954  2.2525 -0.8247  1.4622
  979MOL0     H29186   0.890  10.349   7.060 -0.5697 -0.2147  2.1423
  979MOL0     H29187   0.858  10.255   6.917  0.8638 -1.0860 -0.1439
  979MOL0     H29188   0.819  10.179   7.207  1.6826  3.0644  0.2925
  979MOL0     H29189   0.864  10.046   7.099  3.3472  1.2157 -0.3097
  979MOL0     H29190   0.465  10.100   6.961 -2.5253 -2.4641 -1.4188
  979MOL0     H29191   0.271   9.956   7.055  1.4812 -0.8983 -2.5146
  979MOL0     H29192   0.044   9.784   7.462  1.5189 -0.3177 -0.1479
  979MOL0     H29193  -0.121   9.622   7.524  3.1172 -0.4001  0.0780
  979MOL0     H29194  -0.087   9.312   7.325 -0.4866  3.5928 -0.7997
  979MOL0     H29195  -0.224   9.280   7.229  0.3995  2.3446 -0.2508
  979MOL0     H29196  -0.238   9.268   7.534 -0.9114 -0.0426 -0.2716
  979MOL0     H29197  -0.203   9.120   7.440 -0.5229 -0.4995  1.2259
  979MOL0     H29198  -0.454   9.294   7.378  2.8865  2.9567  3.1372
  979MOL0     H29199  -0.457   9.167   7.495  1.4276  0.2176  2.7129
  979MOL0     H29200  -0.381   9.109   7.207 -1.9199 -0.7600 -0.4831
  979MOL0     H29201  -0.394   8.996   7.337 -0.3637  0.2125  0.5147
  979MOL0     H29202  -0.633   9.166   7.235 -0.8962  0.1625  1.2617
  979MOL0     H29203  -0.650   9.056   7.362  1.1762  1.9062  1.0317
  979MOL0     H29204  -0.533   8.884   7.192  0.8553  0.5759  1.0523
  979MOL0     H29205  -0.559   9.017   7.071 -0.4447 -0.0469 -0.4699
  979MOL0     H29206  -0.753   8.855   7.235 -0.4881  2.3811  0.0637
  979MOL0     H29207  -0.813   8.989   7.126 -0.9265  0.6470  2.6118
  979MOL0     H29208  -0.657   8.718   7.060 -1.8845  0.2200  2.0752
  979MOL0     H29209  -0.677   8.844   6.941 -0.8656 -3.3385 -1.7751
  979MOL0     H29210  -0.144   9.499   7.121 -1.9783  2.8678  0.5220
  979MOL0     H29211   0.054   9.633   7.065  0.5912  1.4009 -0.1114
  979MOL0     H29212   0.535   9.858   7.386 -0.4186  0.1616  0.0784
  979MOL0     H29213   0.698   9.985   7.285 -0.4792  3.6394  0.6060
  979MOL0     H29214   2.470  10.935   7.093 -0.0312  1.3429  0.6454
  979MOL0     H29215   2.665  11.007   7.228 -0.6061  0.4296  1.4560
  979MOL0     H29216   3.020  10.696   7.677  0.2852 -0.4709 -2.2871
  979MOL0     H29217   3.194  10.818   7.818 -0.9327 -0.8081  0.6550
  979MOL0     H29218   3.321  11.232   7.918 -1.8574  2.6571 -0.6535
  979MOL0     H29219   3.214  11.265   7.774  0.9532 -1.7793 -5.1168
  979MOL0     H29220   3.348  11.131   7.634  1.3138  0.1638 -0.3197
  979MOL0     H29221   3.430  11.287   7.687  0.1386  0.7571  2.6151
  979MOL0     H29222   3.560  11.060   7.681 -1.6428 -2.6500 -0.3891
  979MOL0     H29223   3.455  10.998   7.803  0.8933 -0.0947  2.2132
  979MOL0     H29224   3.519  11.161   7.975  0.1217 -1.3511  1.6046
  979MOL0     H29225   3.647  11.063   7.912  0.2905 -0.4562 -2.0920
  979MOL0     H29226   3.738  11.466   7.791 -0.6101 -0.9598 -0.8420
  979MOL0     H29227   3.049  11.190   7.665  1.5925  0.0027 -0.2285
  979MOL0     H29228   2.886  11.074   7.533  1.4501  1.5285  0.7278
  980MOL0     O29229   1.333   4.166   6.168  0.5107  0.0700  0.1682
  980MOL0     C29230   1.418   4.250   6.152 -0.1004 -0.9060 -0.2069
  980MOL0     O29231   1.399   4.374   6.098  1.0996  0.4787 -0.3510
  980MOL0     C29232   1.274   4.428   6.102  0.0719  0.6466  0.1001
  980MOL0     C29233   1.260   4.570   6.129 -0.6606 -0.6216  0.1308
  980MOL0     C29234   1.144   4.640   6.095  0.2346  0.2144  0.8992
  980MOL0     C29235   1.039   4.573   6.027  0.3949  1.0971  0.2421
  980MOL0     O29236   0.928   4.642   5.981  0.5577 -0.5054  0.1963
  980MOL0     C29237   0.846   4.582   5.885 -1.2920 -0.1565  0.9057
  980MOL0     C29238   0.730   4.677   5.859  1.2253  0.3253  1.1839
  980MOL0     C29239   0.663   4.663   5.720 -0.1727  0.4114 -0.0962
  980MOL0     C29240   0.596   4.795   5.665  0.5719  0.0863 -0.2042
  980MOL0     C29241   0.537   4.776   5.520 -0.9491  1.4684 -0.1366
  980MOL0     C29242   0.407   4.693   5.521  0.0069 -0.4859 -0.3206
  980MOL0     C29243   0.363   4.682   5.377  0.0395  0.7644  0.3968
  980MOL0     C29244   0.311   4.803   5.311  1.4216  0.2314 -0.5625
  980MOL0     N29245   0.186   4.854   5.380  0.6225  0.1609 -0.5878
  980MOL0     C29246   0.052   4.819   5.362 -0.1600 -0.8041  0.6827
  980MOL0     C29247  -0.016   4.900   5.443  0.6310  0.1961  0.9774
  980MOL0     C29248  -0.163   4.884   5.463 -0.6503  0.0020  0.0490
  980MOL0     C29249  -0.240   4.990   5.377  0.0230 -0.2817  0.1772
  980MOL0     C29250  -0.377   5.008   5.445  0.7005 -0.0474  0.0501
  980MOL0     C29251  -0.451   4.872   5.478  0.2739  1.1749  0.4754
  980MOL0     O29252  -0.479   4.787   5.371  0.0361 -1.2733  0.8349
  980MOL0     C29253  -0.601   4.724   5.349 -0.4779 -0.5776  0.1766
  980MOL0     C29254  -0.696   4.702   5.452 -0.1641 -0.0207 -0.2723
  980MOL0     C29255  -0.815   4.635   5.440  0.5122  0.2758  1.1896
  980MOL0     C29256  -0.861   4.593   5.319 -0.3107 -0.5677 -0.0792
  980MOL0     C29257  -0.999   4.539   5.299  0.0002 -0.2158 -0.1878
  980MOL0     O29258  -1.050   4.539   5.175  0.5157  0.3495 -0.4838
  980MOL0     C29259  -1.182   4.513   5.160  0.7545  1.1649 -1.0692
  980MOL0     C29260  -1.205   4.397   5.090  0.0166  0.5262 -0.5794
  980MOL0     C29261  -1.335   4.362   5.061 -0.2875  0.6222 -0.0148
  980MOL0     C29262  -1.442   4.433   5.108  0.6645 -0.7376 -0.5956
  980MOL0     O29263  -1.561   4.383   5.078  0.5780 -0.1137 -0.2988
  980MOL0     C29264  -1.682   4.459   5.108 -0.3722 -0.6060 -0.1727
  980MOL0     C29265  -1.787   4.386   5.023  0.0654  0.7960  0.2350
  980MOL0     C29266  -1.923   4.432   5.086 -0.5797 -0.2785 -0.0560
  980MOL0     C29267  -2.044   4.382   5.006  0.2170  0.2788  0.4063
  980MOL0     C29268  -2.172   4.457   5.041  0.3913 -0.4850 -0.6078
  980MOL0     C29269  -2.304   4.415   4.977  0.2420 -0.4658  0.5464
  980MOL0     C29270  -2.398   4.542   4.985 -0.4834 -0.3138  0.1375
  980MOL0     C29271  -2.539   4.513   4.924 -0.4609  0.5006  0.5560
  980MOL0    Cl29272  -2.536   4.482   4.749 -0.0700 -0.0059  0.3062
  980MOL0     C29273  -1.425   4.543   5.187 -0.2809 -0.3062  0.5938
  980MOL0     C29274  -1.287   4.587   5.207 -0.1297  0.3090  0.7570
  980MOL0     O29275  -1.056   4.493   5.396 -0.3199 -0.6028 -0.4125
  980MOL0     C29276  -0.775   4.618   5.208  0.7098 -1.4754 -0.2038
  980MOL0     C29277  -0.647   4.678   5.227 -1.1135  0.5257  0.1560
  980MOL0     N29278   0.070   4.991   5.507  0.2883 -0.2960 -1.5591
  980MOL0     N29279   0.195   4.968   5.462  0.1036 -0.1256  0.1673
  980MOL0     C29280   1.047   4.428   6.012  0.5571 -0.3693  0.5193
  980MOL0     C29281   1.163   4.360   6.051 -0.8067 -0.1905 -0.8912
  980MOL0     C29282   1.554   4.209   6.190 -0.4924 -0.4801  0.0189
  980MOL0     C29283   1.657   4.300   6.174 -1.1655 -0.3134 -0.1841
  980MOL0     C29284   1.796   4.273   6.199  0.1597 -0.2698  0.2072
  980MOL0     C29285   1.838   4.142   6.233  0.2862 -0.1598 -0.9030
  980MOL0     O29286   1.965   4.097   6.271  0.0392  1.1706  0.2225
  980MOL0     C29287   2.064   4.196   6.296  0.3670 -0.1389 -0.4866
  980MOL0     C29288   2.202   4.150   6.294  0.4563 -0.1370  0.5081
  980MOL0     C29289   2.233   4.097   6.426 -0.4101  0.0097 -0.3456
  980MOL0     C29290   2.372   4.033   6.432  0.6863  0.0114  0.2012
  980MOL0     C29291   2.439   4.017   6.563 -0.8709 -0.0754  0.5748
  980MOL0     C29292   2.492   3.997   6.667 -0.2424  0.2968 -0.1022
  980MOL0     C29293   1.732   4.053   6.258  0.6612 -0.7502 -0.0478
  980MOL0     C29294   1.599   4.089   6.244  0.6283 -0.6462 -0.8440
  980MOL0     H29295   1.338   4.629   6.174  0.8807 -0.8368 -2.0976
  980MOL0     H29296   1.147   4.745   6.122  1.3850  0.9803 -1.8540
  980MOL0     H29297   0.806   4.487   5.921  1.0998 -1.5140  0.1860
  980MOL0     H29298   0.887   4.575   5.784 -1.8579 -0.0276  0.6623
  980MOL0     H29299   0.766   4.780   5.871  1.4214  0.2611  1.1476
  980MOL0     H29300   0.652   4.671   5.936  2.4837 -0.2387  2.4435
  980MOL0     H29301   0.588   4.585   5.736  0.6608 -0.3271  0.2715
  980MOL0     H29302   0.734   4.633   5.643  1.9622  1.1302  1.4975
  980MOL0     H29303   0.526   4.845   5.732  0.3883 -2.2540  1.4611
  980MOL0     H29304   0.667   4.876   5.647 -1.0896  1.4369 -1.0295
  980MOL0     H29305   0.606   4.719   5.457  0.0049 -1.6565  3.3804
  980MOL0     H29306   0.528   4.876   5.476 -1.3260  0.1979 -3.2239
  980MOL0     H29307   0.333   4.752   5.577  0.1353 -0.8052  0.1927
  980MOL0     H29308   0.430   4.596   5.567  0.5087  0.4209  1.4420
  980MOL0     H29309   0.450   4.643   5.324 -1.4674 -1.0389 -0.8819
  980MOL0     H29310   0.287   4.602   5.378  1.9316 -1.1312  1.1288
  980MOL0     H29311   0.279   4.784   5.208 -2.6260  1.1445  0.3441
  980MOL0     H29312   0.379   4.889   5.313 -0.1983  1.5540 -0.1102
  980MOL0     H29313   0.009   4.750   5.290 -0.7810  0.6497 -0.3908
  980MOL0     H29314  -0.195   4.914   5.564 -3.1690  0.8513 -0.9093
  980MOL0     H29315  -0.194   4.779   5.455 -0.5877  0.1052 -2.1531
  980MOL0     H29316  -0.258   4.950   5.277 -2.0150 -1.6196  1.0257
  980MOL0     H29317  -0.177   5.079   5.368  0.3464 -0.3627  1.3858
  980MOL0     H29318  -0.372   5.056   5.544 -0.0406 -1.3197  0.7388
  980MOL0     H29319  -0.442   5.074   5.388  0.8079 -1.0411 -1.2712
  980MOL0     H29320  -0.543   4.908   5.525  0.2906 -0.8769  2.2352
  980MOL0     H29321  -0.392   4.818   5.552  1.4404  1.3395 -0.3167
  980MOL0     H29322  -0.674   4.725   5.555 -1.0523 -2.2154  0.4608
  980MOL0     H29323  -0.865   4.618   5.534  0.4829 -0.5148  1.0346
  980MOL0     H29324  -1.126   4.329   5.058 -1.1888 -0.4935 -1.5152
  980MOL0     H29325  -1.342   4.274   4.999  1.0607 -0.7300  1.6308
  980MOL0     H29326  -1.672   4.560   5.066  1.8461 -1.4103 -1.7811
  980MOL0     H29327  -1.696   4.458   5.217  3.2481 -2.5144  0.4684
  980MOL0     H29328  -1.770   4.278   5.030  2.0555  1.1207  1.1085
  980MOL0     H29329  -1.776   4.412   4.917 -1.0213  2.7263  0.5395
  980MOL0     H29330  -1.909   4.541   5.081  0.0943 -0.3858 -0.7640
  980MOL0     H29331  -1.923   4.393   5.188 -1.7111 -1.4636 -0.4837
  980MOL0     H29332  -2.030   4.393   4.898 -0.5897 -1.5924  0.0673
  980MOL0     H29333  -2.062   4.274   5.010  0.0152  0.3156  0.4844
  980MOL0     H29334  -2.149   4.557   5.002 -0.1606  0.9015  2.2894
  980MOL0     H29335  -2.183   4.452   5.150  0.7393  1.0962 -0.4738
  980MOL0     H29336  -2.344   4.333   5.037 -1.2862  0.5679  1.0120
  980MOL0     H29337  -2.296   4.387   4.871  0.2507 -1.8919  0.9015
  980MOL0     H29338  -2.401   4.562   5.092 -0.2492 -1.7613  0.4321
  980MOL0     H29339  -2.347   4.623   4.932  2.3508 -0.2207  2.7332
  980MOL0     H29340  -2.603   4.600   4.941 -1.0840  0.3650 -0.9384
  980MOL0     H29341  -2.575   4.421   4.971 -1.3813  0.6755  0.2025
  980MOL0     H29342  -1.508   4.599   5.229  0.6307  0.6199  1.2114
  980MOL0     H29343  -1.278   4.686   5.249  2.0828  1.3528 -1.8170
  980MOL0     H29344  -0.809   4.595   5.108  1.8830 -2.5504 -0.3835
  980MOL0     H29345  -0.570   4.676   5.150 -0.2783 -1.7177  0.9613
  980MOL0     H29346   0.971   4.369   5.961  3.1691 -4.1654  0.6299
  980MOL0     H29347   1.161   4.253   6.035  2.5765 -0.3215 -1.3587
  980MOL0     H29348   1.640   4.403   6.143 -0.3753  0.5942  2.1268
  980MOL0     H29349   1.869   4.353   6.196 -1.7560  1.6096  1.1222
  980MOL0     H29350   2.042   4.243   6.392 -2.6370  1.7531 -1.9373
  980MOL0     H29351   2.064   4.279   6.225 -0.3520  0.5182  0.2585
  980MOL0     H29352   2.204   4.076   6.214 -0.6531  2.0613 -1.7023
  980MOL0     H29353   2.263   4.233   6.256  0.4072 -0.8918 -1.2976
  980MOL0     H29354   2.161   4.015   6.440  0.1168 -0.6678 -1.4793
  980MOL0     H29355   2.223   4.159   6.516 -0.8706 -1.3498  0.5703
  980MOL0     H29356   2.366   3.943   6.372 -0.4394  0.0711  0.1972
  980MOL0     H29357   2.438   4.100   6.377  0.7582  0.0936  0.3847
  980MOL0     H29358   2.531   3.987   6.766 -0.4966 -1.3160 -0.1436
  980MOL0     H29359   1.767   3.956   6.292  0.6461 -1.6713 -2.4984
  980MOL0     H29360   1.523   4.018   6.274 -1.1832  1.3055 -0.5714
  981MOL0     O29361   1.815   8.023   5.611  0.2820 -0.4641  0.5664
  981MOL0     C29362   1.785   7.926   5.546  0.4746 -0.5296 -0.0416
  981MOL0     O29363   1.838   7.885   5.427  0.4702 -0.3840  0.5815
  981MOL0     C29364   1.938   7.950   5.361  0.2609  0.7112  0.6438
  981MOL0     C29365   2.011   8.064   5.408  0.5531 -0.4472  0.5814
  981MOL0     C29366   2.118   8.101   5.331  0.2498 -0.4839  0.1956
  981MOL0     C29367   2.165   8.039   5.220 -0.2980 -0.0320 -0.3311
  981MOL0     O29368   2.286   8.087   5.173 -0.1890  0.4180  0.0255
  981MOL0     C29369   2.301   8.099   5.027  0.4466  0.3174 -0.8762
  981MOL0     C29370   2.425   8.179   4.973 -0.4805 -0.2483  0.1196
  981MOL0     C29371   2.556   8.107   5.023 -0.6694 -0.5094 -0.1977
  981MOL0     C29372   2.682   8.186   4.967 -1.1189 -0.3529  0.1969
  981MOL0     C29373   2.816   8.116   5.007 -0.0189 -0.7673 -0.5486
  981MOL0     C29374   2.833   7.991   4.907  0.5121  0.2768 -0.8898
  981MOL0     C29375   2.969   7.926   4.936 -0.4046 -0.0403 -0.2004
  981MOL0     C29376   3.023   7.830   4.818  0.2364  0.1422 -0.7775
  981MOL0     N29377   2.958   7.697   4.813  0.5337 -0.0678  0.7479
  981MOL0     C29378   2.927   7.611   4.919  0.1527  0.7883  0.7332
  981MOL0     C29379   2.888   7.492   4.862 -0.7459  0.2477 -0.0301
  981MOL0     C29380   2.836   7.378   4.938 -0.2459 -0.8259 -0.5745
  981MOL0     C29381   2.695   7.388   4.997  0.4947 -0.1089 -0.0607
  981MOL0     C29382   2.706   7.439   5.139  0.1010 -0.6847  0.1117
  981MOL0     C29383   2.569   7.443   5.208  0.3416 -0.1578  0.1735
  981MOL0     O29384   2.461   7.499   5.130 -0.3832 -0.4129  0.2613
  981MOL0     C29385   2.333   7.487   5.172 -0.2744  0.2751 -0.4250
  981MOL0     C29386   2.242   7.555   5.089  0.2469 -0.3405 -0.0107
  981MOL0     C29387   2.104   7.571   5.124 -0.9807  0.5202 -0.2108
  981MOL0     C29388   2.059   7.509   5.239  1.0716  0.1011 -0.1219
  981MOL0     C29389   1.909   7.503   5.270 -0.5839  0.5060 -0.0637
  981MOL0     O29390   1.825   7.539   5.169  1.1238  0.8083 -0.0393
  981MOL0     C29391   1.694   7.525   5.198  0.3611 -0.2492 -0.2794
  981MOL0     C29392   1.638   7.401   5.234  0.8065  1.1965  0.0202
  981MOL0     C29393   1.500   7.387   5.256 -0.2522 -0.1410 -0.1623
  981MOL0     C29394   1.416   7.498   5.258 -0.5977 -0.0713  0.5760
  981MOL0     O29395   1.283   7.492   5.290 -1.0564  0.0486  0.2908
  981MOL0     C29396   1.253   7.427   5.409  1.1744  0.8095 -0.9838
  981MOL0     C29397   1.098   7.406   5.419  1.0245 -0.9810  0.1456
  981MOL0     C29398   1.029   7.298   5.338 -0.3287  0.2654  0.1148
  981MOL0     C29399   0.887   7.280   5.394  0.4932 -0.1744 -0.7571
  981MOL0     C29400   0.795   7.176   5.324  0.0382 -1.4508 -0.1781
  981MOL0     C29401   0.655   7.183   5.377  0.8895 -0.1647 -0.2882
  981MOL0     C29402   0.631   7.129   5.517 -0.2426 -0.0495  0.4188
  981MOL0     C29403   0.483   7.153   5.560 -0.3446  0.9862  0.5470
  981MOL0    Cl29404   0.367   7.091   5.438 -0.6761 -0.2452  0.5375
  981MOL0     C29405   1.473   7.619   5.217  0.4973 -0.5884  0.2408
  981MOL0     C29406   1.607   7.629   5.197  0.4010 -0.1484 -0.3135
  981MOL0     O29407   1.876   7.451   5.375  0.6791  0.0442  0.2849
  981MOL0     C29408   2.155   7.458   5.333  0.4343  0.7640  0.2485
  981MOL0     C29409   2.287   7.447   5.294  0.5013 -0.8103  0.7433
  981MOL0     N29410   2.895   7.505   4.723 -0.5358 -0.9652  0.9618
  981MOL0     N29411   2.952   7.620   4.698  0.9145 -0.0604  0.1669
  981MOL0     C29412   2.093   7.917   5.177 -0.4331 -0.1002 -0.6612
  981MOL0     C29413   1.983   7.875   5.250 -0.2732 -0.8301  0.0639
  981MOL0     C29414   1.670   7.843   5.597 -0.9485 -0.2630 -0.2684
  981MOL0     C29415   1.617   7.883   5.725 -0.7275  0.3856  1.0171
  981MOL0     C29416   1.516   7.812   5.794  0.1350  0.7203 -0.5743
  981MOL0     C29417   1.470   7.693   5.728 -0.3276 -0.1852  0.5817
  981MOL0     O29418   1.367   7.611   5.772 -0.4676 -0.7996  0.1600
  981MOL0     C29419   1.298   7.628   5.896  0.1187  0.5274  0.8540
  981MOL0     C29420   1.267   7.487   5.945  0.1225  0.5913  0.1064
  981MOL0     C29421   1.215   7.494   6.092 -0.4917  0.1305 -0.5805
  981MOL0     C29422   1.211   7.352   6.153  0.4355  0.2111 -0.1469
  981MOL0     C29423   1.133   7.351   6.271  0.0879  0.9470  0.2986
  981MOL0     C29424   1.064   7.346   6.365  0.4575  0.1862  0.5841
  981MOL0     C29425   1.519   7.662   5.598 -0.0980  0.8235 -0.4473
  981MOL0     C29426   1.617   7.733   5.534  0.4035 -0.4115  0.6354
  981MOL0     H29427   1.995   8.128   5.494 -1.4848  0.3456 -0.3114
  981MOL0     H29428   2.177   8.189   5.354  2.3262 -1.2763 -1.7290
  981MOL0     H29429   2.212   8.148   4.985  1.6843  1.7288 -1.9903
  981MOL0     H29430   2.305   7.999   4.983  0.8205 -0.3889  0.7230
  981MOL0     H29431   2.421   8.281   5.012  1.8270 -0.0662  0.0079
  981MOL0     H29432   2.414   8.194   4.865  1.1612  2.2503  0.2216
  981MOL0     H29433   2.577   8.002   4.999 -0.2906 -1.1963  2.7308
  981MOL0     H29434   2.558   8.118   5.132 -1.0386 -1.2941 -0.1020
  981MOL0     H29435   2.685   8.205   4.860  2.5093  1.6357  0.4967
  981MOL0     H29436   2.678   8.286   5.010  0.0126 -0.2318  0.0439
  981MOL0     H29437   2.813   8.076   5.108 -0.8049 -0.2736 -0.3682
  981MOL0     H29438   2.896   8.191   4.999  0.9810 -1.7751 -0.3086
  981MOL0     H29439   2.834   8.029   4.805  2.5046 -0.5952 -1.2342
  981MOL0     H29440   2.753   7.916   4.907 -0.4937  1.2307 -3.9122
  981MOL0     H29441   3.036   8.009   4.960 -0.5834 -0.4926  2.1391
  981MOL0     H29442   2.942   7.861   5.020 -2.0080 -2.2476 -2.2665
  981MOL0     H29443   3.131   7.823   4.830  0.1817 -4.4405 -1.2251
  981MOL0     H29444   3.009   7.886   4.725  0.8531  1.9001  0.1462
  981MOL0     H29445   2.923   7.630   5.026 -0.9309 -2.7600  1.4383
  981MOL0     H29446   2.906   7.330   5.007 -0.6678 -2.6643 -1.3400
  981MOL0     H29447   2.818   7.303   4.860 -0.4558 -0.4582 -0.8851
  981MOL0     H29448   2.645   7.292   4.977 -0.4290  0.7025 -1.8455
  981MOL0     H29449   2.637   7.459   4.938 -2.7801 -1.2873  1.4707
  981MOL0     H29450   2.776   7.380   5.198  0.2614  0.5252  1.1652
  981MOL0     H29451   2.748   7.540   5.135  1.6706 -1.3031  0.3904
  981MOL0     H29452   2.581   7.501   5.301  0.6912 -1.2592  0.8317
  981MOL0     H29453   2.548   7.339   5.232 -2.0105  0.2281 -0.0171
  981MOL0     H29454   2.285   7.604   5.003  2.4590 -0.1101  1.1555
  981MOL0     H29455   2.036   7.619   5.054  1.8228  1.8359 -2.2394
  981MOL0     H29456   1.686   7.304   5.240 -1.0716 -0.0779 -3.0643
  981MOL0     H29457   1.456   7.289   5.270 -0.8944  0.2612  0.7383
  981MOL0     H29458   1.284   7.489   5.494  0.9416  0.2710 -0.4961
  981MOL0     H29459   1.303   7.330   5.419  0.4225  0.4291 -0.8616
  981MOL0     H29460   1.050   7.501   5.393  2.1603 -0.8317 -1.5710
  981MOL0     H29461   1.075   7.388   5.524  0.2931 -2.7657 -0.2838
  981MOL0     H29462   1.079   7.201   5.341 -0.2695  0.2816  2.9299
  981MOL0     H29463   1.019   7.323   5.232  3.2151  0.3549 -0.3200
  981MOL0     H29464   0.894   7.249   5.498 -0.8689  3.4965  0.5917
  981MOL0     H29465   0.835   7.376   5.390 -0.2023 -0.4854  0.3651
  981MOL0     H29466   0.836   7.077   5.340 -0.6043 -1.7899 -0.5655
  981MOL0     H29467   0.803   7.199   5.217  3.3935 -3.1049 -0.3954
  981MOL0     H29468   0.586   7.137   5.305 -0.6607  1.9517 -0.2620
  981MOL0     H29469   0.634   7.290   5.367  0.3707 -0.3485 -1.2620
  981MOL0     H29470   0.644   7.021   5.502  0.7530  0.3473 -1.9196
  981MOL0     H29471   0.704   7.172   5.586  1.2976 -0.0821 -1.1210
  981MOL0     H29472   0.493   7.262   5.570  1.1701  0.7555  1.9116
  981MOL0     H29473   0.473   7.106   5.658 -0.4600 -0.6611 -0.2357
  981MOL0     H29474   1.404   7.703   5.219  0.9928 -0.1899  0.8218
  981MOL0     H29475   1.644   7.726   5.164 -0.5538  1.2214  2.3530
  981MOL0     H29476   2.122   7.410   5.425  0.8986 -1.0828 -0.5220
  981MOL0     H29477   2.354   7.390   5.358  0.5165  0.2123  1.6580
  981MOL0     H29478   2.131   7.850   5.100  0.8282 -1.6882  1.2549
  981MOL0     H29479   1.930   7.784   5.223  0.3249 -1.1805  0.0651
  981MOL0     H29480   1.650   7.976   5.772  1.4002 -0.3679  1.1399
  981MOL0     H29481   1.472   7.852   5.885  2.2713 -0.8981  1.3040
  981MOL0     H29482   1.211   7.693   5.883 -1.0169 -1.1436 -0.3344
  981MOL0     H29483   1.362   7.680   5.968  0.1659  0.1011  1.1297
  981MOL0     H29484   1.193   7.456   5.870  0.1759 -0.6111  0.5288
  981MOL0     H29485   1.351   7.417   5.938  0.4783  0.5389  3.2680
  981MOL0     H29486   1.113   7.534   6.090 -0.7453 -0.4746 -0.3446
  981MOL0     H29487   1.277   7.565   6.146 -0.0699 -1.8476  1.7279
  981MOL0     H29488   1.163   7.285   6.081  0.6973 -0.1426 -0.0012
  981MOL0     H29489   1.312   7.322   6.182 -1.0587 -2.5691  2.8088
  981MOL0     H29490   1.015   7.371   6.458  2.8390  1.4861  1.5807
  981MOL0     H29491   1.483   7.572   5.550  0.5927  0.9709 -1.2551
  981MOL0     H29492   1.660   7.700   5.440  2.5639 -1.3469  1.8629
  982MOL0     O29493   7.366   4.764   2.969 -0.4496  0.1509 -0.3843
  982MOL0     C29494   7.406   4.805   2.859 -0.1565 -0.2115 -0.0271
  982MOL0     O29495   7.328   4.832   2.752 -0.3475  0.5866 -0.1927
  982MOL0     C29496   7.195   4.810   2.770 -0.1196  0.3179  0.3487
  982MOL0     C29497   7.151   4.676   2.773  1.0813  0.2738  0.2864
  982MOL0     C29498   7.017   4.662   2.793 -0.4475  0.0907 -0.3094
  982MOL0     C29499   6.925   4.766   2.801 -0.5391  0.1113  0.3729
  982MOL0     O29500   6.790   4.739   2.806 -0.1124 -0.6811 -0.3473
  982MOL0     C29501   6.735   4.680   2.690  0.0253  0.6878  0.1919
  982MOL0     C29502   6.617   4.609   2.750 -0.6321  0.4727 -0.1635
  982MOL0     C29503   6.511   4.716   2.783  1.4646  0.7225 -0.4902
  982MOL0     C29504   6.376   4.643   2.819  0.5498 -0.2166  0.2142
  982MOL0     C29505   6.271   4.744   2.825  0.8290 -0.6181  0.2461
  982MOL0     C29506   6.134   4.671   2.833 -1.7941 -0.2948  0.1374
  982MOL0     C29507   6.031   4.780   2.848  0.3893 -0.4484 -0.3086
  982MOL0     C29508   6.010   4.827   2.989  1.1089 -0.4434 -0.3705
  982MOL0     N29509   5.912   4.746   3.065  0.5890 -0.2624 -0.1768
  982MOL0     C29510   5.779   4.721   3.047  0.0597  0.2484  0.5559
  982MOL0     C29511   5.744   4.640   3.150  0.8884  0.1106  0.1973
  982MOL0     C29512   5.608   4.578   3.170 -0.0340 -0.1369  0.2533
  982MOL0     C29513   5.591   4.473   3.061 -0.0358 -0.2522  0.1507
  982MOL0     C29514   5.497   4.365   3.112 -1.4274  0.3172 -0.0060
  982MOL0     C29515   5.354   4.397   3.098 -0.5528  1.1149  0.2703
  982MOL0     O29516   5.330   4.401   2.958 -0.5843 -0.5652  0.1912
  982MOL0     C29517   5.204   4.440   2.909 -0.1926  0.3897  0.1510
  982MOL0     C29518   5.099   4.486   2.994  0.0247  0.0017  0.0094
  982MOL0     C29519   4.975   4.502   2.928 -0.6711 -0.4612 -0.6182
  982MOL0     C29520   4.954   4.491   2.787 -0.4202 -0.1683 -0.4276
  982MOL0     C29521   4.828   4.522   2.720 -0.7519  0.0281 -0.0149
  982MOL0     O29522   4.718   4.552   2.805  0.2924  0.2690 -0.1808
  982MOL0     C29523   4.608   4.624   2.762  0.3748  0.5383 -0.4169
  982MOL0     C29524   4.481   4.570   2.736  0.8266  0.0331  0.5088
  982MOL0     C29525   4.379   4.654   2.683 -0.5660 -0.0428  0.1174
  982MOL0     C29526   4.397   4.796   2.674  0.0780 -0.3029  0.0388
  982MOL0     O29527   4.292   4.871   2.629  0.1016 -0.2710 -0.0587
  982MOL0     C29528   4.321   5.022   2.604 -0.3730 -0.2752  0.3547
  982MOL0     C29529   4.191   5.105   2.557  0.2466  1.1058  0.4877
  982MOL0     C29530   4.117   5.055   2.427 -1.3640 -0.0619 -0.5523
  982MOL0     C29531   3.983   5.127   2.409 -0.5117  0.8222 -0.0649
  982MOL0     C29532   3.900   5.049   2.307 -0.4195 -0.3820 -0.8490
  982MOL0     C29533   3.770   5.120   2.264 -0.6824  0.0469  0.2598
  982MOL0     C29534   3.803   5.239   2.166 -0.6253 -0.2038 -0.2225
  982MOL0     C29535   3.681   5.255   2.073  0.2312 -0.5179 -0.1214
  982MOL0    Cl29536   3.553   5.343   2.165 -0.1123 -0.1029  0.0586
  982MOL0     C29537   4.522   4.846   2.708  0.9569 -0.3039 -0.1885
  982MOL0     C29538   4.626   4.767   2.753 -0.3602 -0.4717  0.6341
  982MOL0     O29539   4.830   4.532   2.596  0.5814 -0.0709  0.3074
  982MOL0     C29540   5.069   4.470   2.715  0.5349  0.1411  0.8980
  982MOL0     C29541   5.191   4.441   2.772  0.3932  0.0464 -0.3949
  982MOL0     N29542   5.861   4.606   3.222  0.1637  0.0998  0.2929
  982MOL0     N29543   5.957   4.666   3.162  1.4960 -0.0956 -0.3127
  982MOL0     C29544   6.978   4.897   2.801  0.8422 -0.2017 -0.1873
  982MOL0     C29545   7.111   4.919   2.794 -0.4292 -0.1511 -0.2758
  982MOL0     C29546   7.551   4.829   2.854 -0.4223  0.1156 -0.9180
  982MOL0     C29547   7.599   4.917   2.759 -0.3714 -0.4527  0.6356
  982MOL0     C29548   7.732   4.939   2.737 -0.5339 -1.0095 -0.8815
  982MOL0     C29549   7.824   4.886   2.823  0.7473 -0.5564  0.4348
  982MOL0     O29550   7.950   4.928   2.804 -0.3811  0.7627  0.3185
  982MOL0     C29551   8.063   4.845   2.859  0.5950 -0.1181  0.2820
  982MOL0     C29552   8.075   4.725   2.765  0.4034  0.4738 -0.1917
  982MOL0     C29553   8.174   4.619   2.808 -1.0846  0.0994  0.6818
  982MOL0     C29554   8.214   4.525   2.698  0.0616 -0.1556 -0.2477
  982MOL0     C29555   8.300   4.603   2.606  0.5468 -0.0727 -0.3705
  982MOL0     C29556   8.384   4.657   2.539  0.0374  0.5806  0.2928
  982MOL0     C29557   7.778   4.789   2.915 -0.2770 -0.5259 -0.0831
  982MOL0     C29558   7.636   4.764   2.944 -0.4526  0.1746  0.0974
  982MOL0     H29559   7.205   4.582   2.778  0.1705 -0.3940 -1.4730
  982MOL0     H29560   6.980   4.561   2.806  1.5422 -0.8110 -1.1131
  982MOL0     H29561   6.799   4.604   2.645 -3.9080 -2.2560 -1.0946
  982MOL0     H29562   6.708   4.751   2.611  1.8235  1.7321  0.4677
  982MOL0     H29563   6.653   4.556   2.838  3.3587 -0.0521 -1.8717
  982MOL0     H29564   6.575   4.533   2.684 -0.0030  0.4291 -0.5247
  982MOL0     H29565   6.496   4.776   2.693  2.1251  0.5025 -0.7487
  982MOL0     H29566   6.527   4.779   2.871 -2.5730 -0.5500  1.4379
  982MOL0     H29567   6.358   4.573   2.737  0.2109  0.9695 -0.7418
  982MOL0     H29568   6.374   4.590   2.915 -3.2607  0.1421  0.4569
  982MOL0     H29569   6.275   4.806   2.735 -0.0378  2.3032  2.0621
  982MOL0     H29570   6.285   4.809   2.912 -0.7930 -0.1194  0.1630
  982MOL0     H29571   6.143   4.595   2.911  0.2191 -2.6559 -2.2512
  982MOL0     H29572   6.114   4.625   2.737  1.1679  1.5278 -1.5005
  982MOL0     H29573   6.067   4.861   2.784  1.8047 -0.0587  0.9222
  982MOL0     H29574   5.930   4.757   2.812 -0.5809  2.0213  0.6418
  982MOL0     H29575   5.968   4.928   2.985 -1.5335 -1.4676 -0.6699
  982MOL0     H29576   6.107   4.835   3.038  1.1410 -0.7705 -0.3808
  982MOL0     H29577   5.712   4.762   2.973 -0.9792 -1.2170  0.6488
  982MOL0     H29578   5.522   4.645   3.164 -0.8047 -1.1546 -0.1877
  982MOL0     H29579   5.595   4.527   3.266  2.3000 -0.2368  0.5841
  982MOL0     H29580   5.685   4.418   3.049  1.2559  1.6591  0.9292
  982MOL0     H29581   5.559   4.527   2.971 -0.0745 -2.3412 -1.1547
  982MOL0     H29582   5.526   4.276   3.056  1.4168  0.3635  1.2177
  982MOL0     H29583   5.512   4.344   3.218 -0.6989  2.4282  0.3622
  982MOL0     H29584   5.332   4.490   3.152 -1.1067  1.7777 -1.0402
  982MOL0     H29585   5.302   4.307   3.132  0.2997  0.2096 -0.7468
  982MOL0     H29586   5.114   4.504   3.100  4.7007 -1.8557 -0.0721
  982MOL0     H29587   4.886   4.528   2.985  0.4396  2.4941 -0.0664
  982MOL0     H29588   4.471   4.464   2.752  4.2293 -0.2581  1.6207
  982MOL0     H29589   4.284   4.613   2.651 -1.0702  0.1590  1.3041
  982MOL0     H29590   4.397   5.027   2.525  1.8716  0.4019  2.4389
  982MOL0     H29591   4.373   5.070   2.688  0.9777 -1.8943  0.5052
  982MOL0     H29592   4.232   5.203   2.530  2.6684  1.0364  3.3713
  982MOL0     H29593   4.114   5.109   2.635  0.4471  1.1901  0.6831
  982MOL0     H29594   4.097   4.948   2.444 -1.7152  0.2769  1.4448
  982MOL0     H29595   4.186   5.065   2.343  0.5666  4.3122  1.2383
  982MOL0     H29596   3.937   5.144   2.507  3.8285  1.5040  2.0976
  982MOL0     H29597   4.003   5.225   2.364  1.6458  1.9031  2.9590
  982MOL0     H29598   3.863   4.961   2.360 -0.1547  1.0716  1.9607
  982MOL0     H29599   3.953   5.011   2.219  0.9283 -0.3856 -0.0686
  982MOL0     H29600   3.717   5.161   2.350 -0.0229 -1.8823  1.6436
  982MOL0     H29601   3.706   5.045   2.217  0.7089 -0.4137 -0.9893
  982MOL0     H29602   3.810   5.333   2.221 -0.2594  0.1764 -0.8953
  982MOL0     H29603   3.890   5.223   2.101  0.1623  2.8845 -0.0608
  982MOL0     H29604   3.657   5.155   2.036  1.5710 -0.4330 -1.2647
  982MOL0     H29605   3.696   5.318   1.984 -1.9322  3.3247  1.9274
  982MOL0     H29606   4.552   4.949   2.692  0.1863  0.0204  0.4107
  982MOL0     H29607   4.725   4.798   2.785 -0.3444 -2.5864  2.9055
  982MOL0     H29608   5.080   4.467   2.607  0.2235 -2.2102  0.8849
  982MOL0     H29609   5.276   4.410   2.712 -0.6931 -3.6858 -0.2349
  982MOL0     H29610   6.913   4.984   2.801  1.1963  0.2768  4.0481
  982MOL0     H29611   7.150   5.016   2.764  1.2084 -1.2874 -2.1007
  982MOL0     H29612   7.542   4.983   2.694 -1.3309  2.5886  4.2034
  982MOL0     H29613   7.774   4.993   2.652  0.0488 -0.5835 -0.3308
  982MOL0     H29614   8.045   4.806   2.959 -0.2793 -0.2850  0.0686
  982MOL0     H29615   8.157   4.900   2.860  0.6997 -0.2942  0.2150
  982MOL0     H29616   7.986   4.667   2.738 -1.4468  3.0661 -0.0020
  982MOL0     H29617   8.098   4.775   2.670 -0.3188  1.3308  0.0704
  982MOL0     H29618   8.136   4.559   2.891  2.3305  0.5324  2.7684
  982MOL0     H29619   8.269   4.655   2.850 -1.1102  1.1353 -0.0862
  982MOL0     H29620   8.262   4.434   2.734 -0.8560 -1.0036 -1.1121
  982MOL0     H29621   8.127   4.502   2.635 -0.1550  2.4257 -1.0125
  982MOL0     H29622   8.470   4.704   2.495  0.6363 -2.7103 -2.4646
  982MOL0     H29623   7.848   4.735   2.978 -0.3346 -0.6350 -0.1106
  982MOL0     H29624   7.603   4.682   3.007  2.1426 -1.8614 -0.9615
  983MOL0     O29625   3.608   8.067   5.481  0.3004  0.2138 -0.2622
  983MOL0     C29626   3.608   7.972   5.401 -1.0980 -0.7635  0.1842
  983MOL0     O29627   3.500   7.943   5.325  0.6208 -0.2871  0.7098
  983MOL0     C29628   3.388   8.005   5.357 -1.3121 -0.6742  0.4897
  983MOL0     C29629   3.345   8.122   5.290  0.0057  0.7340 -1.3652
  983MOL0     C29630   3.215   8.164   5.311  0.4834 -1.2102 -0.0375
  983MOL0     C29631   3.123   8.107   5.396  0.3665  0.3452  0.1877
  983MOL0     O29632   2.995   8.152   5.386  0.1787  0.0571  0.4909
  983MOL0     C29633   2.889   8.127   5.479  0.7728 -0.1090  0.5217
  983MOL0     C29634   2.755   8.178   5.417  0.2190  0.3742 -0.1250
  983MOL0     C29635   2.650   8.180   5.533 -0.2783 -0.4415  0.4441
  983MOL0     C29636   2.521   8.253   5.494 -0.4965 -0.5560 -0.3062
  983MOL0     C29637   2.432   8.252   5.625 -0.1563 -0.9846 -0.9974
  983MOL0     C29638   2.296   8.329   5.618 -0.3146  0.0376  0.5395
  983MOL0     C29639   2.218   8.308   5.755  0.3967 -0.2207  0.8544
  983MOL0     C29640   2.097   8.395   5.752 -0.0977 -0.3692  0.3439
  983MOL0     N29641   2.012   8.360   5.862  0.1313  0.0628  0.6031
  983MOL0     C29642   1.907   8.267   5.859 -0.0153  0.1454  0.3565
  983MOL0     C29643   1.830   8.304   5.967  0.8131  0.3614 -0.0327
  983MOL0     C29644   1.703   8.246   6.003 -0.4830 -0.5565 -0.3540
  983MOL0     C29645   1.591   8.298   5.909 -0.1662  0.1869 -0.2392
  983MOL0     C29646   1.445   8.243   5.951  1.0815 -0.4941 -0.1295
  983MOL0     C29647   1.406   8.292   6.088  0.3725 -0.8767 -0.4418
  983MOL0     O29648   1.267   8.284   6.139 -0.1649 -0.1504 -1.2866
  983MOL0     C29649   1.159   8.363   6.093 -0.6804 -0.1481  0.0992
  983MOL0     C29650   1.031   8.345   6.145  0.2731  0.2112 -0.0673
  983MOL0     C29651   0.927   8.424   6.110 -0.5660 -1.0126 -0.6303
  983MOL0     C29652   0.951   8.532   6.023  0.3720 -0.5577  0.2310
  983MOL0     C29653   0.844   8.627   5.995  0.3984 -1.2134 -0.1812
  983MOL0     O29654   0.736   8.623   6.068 -0.5015  0.2078  0.0071
  983MOL0     C29655   0.613   8.677   6.027 -0.9603 -0.1647  0.1698
  983MOL0     C29656   0.562   8.792   6.093 -0.2120  0.1460 -0.0350
  983MOL0     C29657   0.440   8.846   6.054  0.3164 -0.2329  0.3816
  983MOL0     C29658   0.363   8.782   5.956  0.1806  0.1170  0.3330
  983MOL0     O29659   0.235   8.836   5.946 -0.0383 -0.1885 -0.7229
  983MOL0     C29660   0.140   8.746   5.883 -0.0726  0.4537  0.1412
  983MOL0     C29661   0.009   8.823   5.884  0.1245  0.3751  1.1458
  983MOL0     C29662  -0.048   8.856   6.024  0.3752 -0.5218  0.0952
  983MOL0     C29663  -0.196   8.874   6.015 -0.8606 -0.0593  0.2326
  983MOL0     C29664  -0.265   8.925   6.142  0.0762  0.0084  0.4357
  983MOL0     C29665  -0.196   9.056   6.199 -0.5479  0.8555  0.4310
  983MOL0     C29666  -0.286   9.106   6.317 -0.2358  0.3850  0.1263
  983MOL0     C29667  -0.244   9.245   6.361 -0.0655  0.1630 -1.1471
  983MOL0    Cl29668  -0.092   9.252   6.444  0.0312  0.0243 -0.3154
  983MOL0     C29669   0.414   8.671   5.890  0.4026  0.7246 -0.3200
  983MOL0     C29670   0.540   8.616   5.926  0.1501  0.0835  0.1527
  983MOL0     O29671   0.864   8.702   5.900 -0.0965  0.7888  0.5416
  983MOL0     C29672   1.078   8.556   5.976 -0.4067 -0.0225  0.0844
  983MOL0     C29673   1.182   8.472   6.010 -0.6404 -0.1122  0.0065
  983MOL0     N29674   1.892   8.403   6.040 -0.5369 -0.7591 -0.4477
  983MOL0     N29675   2.005   8.429   5.979 -0.4268  0.4884 -0.2582
  983MOL0     C29676   3.173   7.999   5.470  0.7776  0.2519  0.3144
  983MOL0     C29677   3.306   7.951   5.450 -1.0081  0.2819  0.1637
  983MOL0     C29678   3.739   7.910   5.367  0.3698  0.6761 -1.2545
  983MOL0     C29679   3.847   7.912   5.459  0.2567  0.1048  0.2522
  983MOL0     C29680   3.966   7.847   5.433 -0.2521  0.1315 -1.1478
  983MOL0     C29681   3.984   7.789   5.311  0.5908 -0.2649 -0.2639
  983MOL0     O29682   4.105   7.742   5.278 -0.5203  0.4624  0.3044
  983MOL0     C29683   4.132   7.605   5.316 -0.0435 -0.9100  0.1307
  983MOL0     C29684   4.196   7.588   5.452 -0.3153 -0.9312 -0.3826
  983MOL0     C29685   4.342   7.638   5.464  0.4112  0.6671  0.6515
  983MOL0     C29686   4.404   7.596   5.595 -0.4667 -0.3623  0.3356
  983MOL0     C29687   4.534   7.654   5.569  1.5483  0.3275 -0.9379
  983MOL0     C29688   4.624   7.723   5.528  0.3494 -0.8962 -0.8206
  983MOL0     C29689   3.883   7.793   5.217 -0.3105 -1.0375  0.4441
  983MOL0     C29690   3.759   7.854   5.240  0.1302 -0.0997 -0.3887
  983MOL0     H29691   3.400   8.182   5.218  0.8834 -0.8148 -2.0465
  983MOL0     H29692   3.191   8.255   5.257 -1.0986 -1.8611 -0.4970
  983MOL0     H29693   2.914   8.187   5.566  3.4801  0.9701 -0.8642
  983MOL0     H29694   2.870   8.021   5.495 -1.0514  0.1896  0.5339
  983MOL0     H29695   2.729   8.111   5.335  0.0385 -1.0696  1.0633
  983MOL0     H29696   2.771   8.275   5.370 -0.2445 -1.1866 -3.8584
  983MOL0     H29697   2.689   8.235   5.619  3.1550 -0.7617 -0.7444
  983MOL0     H29698   2.619   8.078   5.558 -3.0757  0.1991 -0.1016
  983MOL0     H29699   2.545   8.356   5.468  1.5491 -1.3624 -1.9376
  983MOL0     H29700   2.461   8.217   5.410  1.1861  1.9194 -2.7725
  983MOL0     H29701   2.501   8.294   5.699 -1.6239  0.4480 -0.3727
  983MOL0     H29702   2.407   8.149   5.652 -1.8068 -0.3433  0.0396
  983MOL0     H29703   2.233   8.304   5.533 -1.3418  1.7993  0.7323
  983MOL0     H29704   2.318   8.436   5.608 -0.4411  0.3064  2.6687
  983MOL0     H29705   2.185   8.204   5.756 -0.3101  0.0025  0.9712
  983MOL0     H29706   2.290   8.321   5.836  1.0230 -1.5033  0.5353
  983MOL0     H29707   2.046   8.378   5.657  1.7702 -5.4774 -0.0812
  983MOL0     H29708   2.132   8.497   5.771  1.5485 -0.4874 -1.7041
  983MOL0     H29709   1.875   8.195   5.784 -3.9534  3.4242 -1.4773
  983MOL0     H29710   1.681   8.261   6.110  0.2134 -3.0709  0.1973
  983MOL0     H29711   1.703   8.137   5.997  2.0437 -0.6227 -0.2015
  983MOL0     H29712   1.625   8.259   5.813 -1.5561  1.3652 -1.2716
  983MOL0     H29713   1.593   8.407   5.896 -2.1706 -0.0001 -2.9388
  983MOL0     H29714   1.364   8.276   5.886  0.4173  0.0514  0.9305
  983MOL0     H29715   1.444   8.134   5.956 -3.1637 -0.6372 -0.4546
  983MOL0     H29716   1.435   8.397   6.101 -2.3032 -0.3391  2.7249
  983MOL0     H29717   1.475   8.246   6.159 -0.7260  1.3476  2.2998
  983MOL0     H29718   1.011   8.269   6.220 -0.9458  2.1556  1.7187
  983MOL0     H29719   0.831   8.401   6.156  0.5376  1.0013  3.0903
  983MOL0     H29720   0.620   8.839   6.172 -0.1191  0.9237 -0.5401
  983MOL0     H29721   0.393   8.930   6.105 -0.2446  0.1664 -0.7539
  983MOL0     H29722   0.132   8.650   5.936 -3.7284  0.2411 -0.5093
  983MOL0     H29723   0.174   8.729   5.781  1.4490 -1.0270  0.8367
  983MOL0     H29724  -0.067   8.762   5.834  0.7177 -0.7257  1.5648
  983MOL0     H29725   0.020   8.920   5.835 -1.8267  0.0961  0.0281
  983MOL0     H29726  -0.001   8.949   6.056 -1.8870  0.0436  2.0701
  983MOL0     H29727  -0.029   8.766   6.084  0.9487 -0.7372 -0.3990
  983MOL0     H29728  -0.220   8.949   5.938  1.0302  0.2574 -0.0875
  983MOL0     H29729  -0.238   8.778   5.984  2.0700 -1.4937  0.3514
  983MOL0     H29730  -0.257   8.843   6.214 -0.6254  0.3866  0.9570
  983MOL0     H29731  -0.370   8.945   6.122  0.0656 -0.8471 -0.4508
  983MOL0     H29732  -0.177   9.120   6.112  0.4526 -2.7495 -2.2621
  983MOL0     H29733  -0.092   9.035   6.225 -0.6561 -0.8020 -0.3521
  983MOL0     H29734  -0.388   9.099   6.279 -0.4860 -0.7562  0.9336
  983MOL0     H29735  -0.289   9.047   6.410 -2.5131 -2.8009 -1.7539
  983MOL0     H29736  -0.319   9.289   6.428 -0.8728 -1.6334 -0.8014
  983MOL0     H29737  -0.250   9.304   6.269 -0.9136  2.0599  0.0563
  983MOL0     H29738   0.363   8.624   5.806  0.0838 -2.3190  1.4313
  983MOL0     H29739   0.588   8.544   5.860 -1.3422  1.3467 -2.5037
  983MOL0     H29740   1.104   8.651   5.931  1.3797 -0.0131  1.0555
  983MOL0     H29741   1.283   8.492   5.977 -0.3923 -2.5931 -0.9888
  983MOL0     H29742   3.104   7.950   5.538 -0.5255  1.9372  0.2712
  983MOL0     H29743   3.331   7.866   5.513 -0.4099  0.1710 -0.2155
  983MOL0     H29744   3.848   7.969   5.551 -1.4834  0.5346  0.0325
  983MOL0     H29745   4.048   7.849   5.505  0.2642  0.1248 -1.7273
  983MOL0     H29746   4.187   7.565   5.231  0.1673 -1.2235  0.4162
  983MOL0     H29747   4.040   7.548   5.334  0.8762 -2.5287 -0.1226
  983MOL0     H29748   4.125   7.622   5.528 -0.6973 -2.5995  0.0297
  983MOL0     H29749   4.203   7.480   5.466  1.9014 -0.6648  1.2559
  983MOL0     H29750   4.345   7.747   5.448  2.4179  0.4368 -1.1087
  983MOL0     H29751   4.387   7.592   5.375  0.0963  0.2370  0.7158
  983MOL0     H29752   4.350   7.651   5.673 -1.8636 -1.7668  0.4184
  983MOL0     H29753   4.401   7.490   5.622 -0.4347 -0.5575 -0.3888
  983MOL0     H29754   4.712   7.778   5.501  2.2442 -2.0004  2.5681
  983MOL0     H29755   3.900   7.743   5.122  0.2362 -0.2294  0.1103
  983MOL0     H29756   3.681   7.863   5.166  1.1305  0.5969 -1.3888
  984MOL0     O29757   7.117   4.795   6.244  0.8218 -0.8439 -0.2569
  984MOL0     C29758   7.226   4.858   6.237 -0.6668  0.4689 -0.9300
  984MOL0     O29759   7.254   4.958   6.147  0.4300  0.3148 -0.2520
  984MOL0     C29760   7.150   5.015   6.078  0.3077 -0.2983 -0.2070
  984MOL0     C29761   7.043   5.067   6.140  0.4128  0.8593 -0.1155
  984MOL0     C29762   6.942   5.136   6.072 -0.5037  0.2446 -0.0830
  984MOL0     C29763   6.953   5.156   5.934 -0.9577 -0.2236  1.1024
  984MOL0     O29764   6.873   5.236   5.854 -0.4335 -0.8799 -0.9977
  984MOL0     C29765   6.733   5.239   5.895  0.3031 -1.1085  1.1199
  984MOL0     C29766   6.659   5.280   5.769  0.5665 -0.1280  0.5788
  984MOL0     C29767   6.663   5.171   5.656  0.0478 -0.2997  0.8741
  984MOL0     C29768   6.614   5.235   5.520  0.4396 -0.4418  0.0447
  984MOL0     C29769   6.460   5.211   5.506 -0.5615  0.3037  0.6172
  984MOL0     C29770   6.384   5.329   5.434 -1.0974  1.1323  0.8909
  984MOL0     C29771   6.236   5.328   5.439  0.5181  0.5205 -0.7472
  984MOL0     C29772   6.194   5.366   5.585  0.9373  0.3542  1.3693
  984MOL0     N29773   6.048   5.406   5.586 -0.2207 -0.9340 -0.2863
  984MOL0     C29774   5.992   5.482   5.484 -0.0818  0.4671 -0.6446
  984MOL0     C29775   5.880   5.541   5.541 -0.1703 -0.0035  0.3338
  984MOL0     C29776   5.780   5.639   5.480  0.4066 -0.4136 -0.9133
  984MOL0     C29777   5.629   5.620   5.524  0.8379  0.1048  0.3565
  984MOL0     C29778   5.533   5.677   5.412  0.5385  0.3362 -0.1668
  984MOL0     C29779   5.382   5.668   5.449  0.0029 -0.8564  0.3536
  984MOL0     O29780   5.316   5.731   5.339 -0.5161 -0.4596  0.8058
  984MOL0     C29781   5.186   5.736   5.320  0.1576 -0.0990  0.0057
  984MOL0     C29782   5.143   5.844   5.256 -0.2717  0.8852 -0.0389
  984MOL0     C29783   5.010   5.859   5.226 -0.1276  0.1242  0.0878
  984MOL0     C29784   4.907   5.774   5.281  0.2557 -0.9133 -0.0342
  984MOL0     C29785   4.760   5.794   5.254  0.0760 -0.8928  0.5790
  984MOL0     O29786   4.679   5.685   5.275 -0.4433  0.0440 -0.0144
  984MOL0     C29787   4.551   5.710   5.237 -0.0592 -0.0147 -0.0489
  984MOL0     C29788   4.500   5.683   5.110 -0.0243 -0.9030  0.2325
  984MOL0     C29789   4.373   5.730   5.075 -0.4661 -0.2313  0.2570
  984MOL0     C29790   4.288   5.794   5.166  0.1726 -0.2854  0.2242
  984MOL0     O29791   4.162   5.832   5.119  1.1218 -0.1568  0.4350
  984MOL0     C29792   4.056   5.823   5.224 -0.0425 -0.0612 -0.0782
  984MOL0     C29793   3.931   5.836   5.144 -0.1606 -0.6417  0.4938
  984MOL0     C29794   3.801   5.814   5.223 -0.2859  0.4585 -0.1256
  984MOL0     C29795   3.670   5.842   5.150  0.6190 -0.4168  0.3964
  984MOL0     C29796   3.546   5.806   5.229  0.1866 -0.1026 -0.3950
  984MOL0     C29797   3.420   5.834   5.143  0.1921 -0.6405  0.0256
  984MOL0     C29798   3.291   5.844   5.222  0.0411  0.8266 -0.2735
  984MOL0     C29799   3.173   5.883   5.128  0.6153 -0.0359  0.6238
  984MOL0    Cl29800   3.138   6.053   5.099  0.0037 -0.5923  0.2147
  984MOL0     C29801   4.330   5.811   5.298  0.2178  0.6182 -0.4508
  984MOL0     C29802   4.464   5.780   5.333 -0.1198 -0.4311 -0.4172
  984MOL0     O29803   4.728   5.903   5.204  0.3432 -0.0131 -0.1366
  984MOL0     C29804   4.953   5.672   5.361 -0.4162  1.0822 -1.1986
  984MOL0     C29805   5.092   5.648   5.380 -0.1721 -0.1495 -0.7282
  984MOL0     N29806   5.869   5.488   5.671  0.3998 -1.3199  0.1054
  984MOL0     N29807   5.966   5.407   5.701 -0.1782  0.5974 -0.3348
  984MOL0     C29808   7.062   5.091   5.869  0.4385 -0.0939  0.4271
  984MOL0     C29809   7.163   5.018   5.941  0.5401 -0.5641 -0.9048
  984MOL0     C29810   7.342   4.809   6.316 -0.3443  1.2751 -0.6808
  984MOL0     C29811   7.337   4.678   6.369  0.2307 -0.6356 -0.2088
  984MOL0     C29812   7.455   4.628   6.431 -0.4398 -0.3608  0.3927
  984MOL0     C29813   7.569   4.706   6.451 -0.8676 -0.5929 -0.8829
  984MOL0     O29814   7.679   4.662   6.517  0.9870 -0.4797 -0.0840
  984MOL0     C29815   7.648   4.619   6.656  0.0932 -0.5186  0.5511
  984MOL0     C29816   7.664   4.743   6.753 -0.1780 -0.0631  0.5396
  984MOL0     C29817   7.672   4.708   6.895 -0.5736  0.6746 -0.4156
  984MOL0     C29818   7.525   4.701   6.944 -0.1060  0.1480 -0.5368
  984MOL0     C29819   7.534   4.698   7.092 -0.0706  0.2983  0.6232
  984MOL0     C29820   7.524   4.701   7.215  0.0147  0.2192 -0.4181
  984MOL0     C29821   7.566   4.840   6.406 -0.0164  0.1637 -1.0316
  984MOL0     C29822   7.457   4.885   6.331 -0.1731 -0.1162 -0.3751
  984MOL0     H29823   7.038   5.065   6.248 -1.2907  2.4215 -0.1368
  984MOL0     H29824   6.864   5.174   6.138 -0.1869 -3.0633  2.4688
  984MOL0     H29825   6.724   5.310   5.978 -2.2483 -1.2326  1.0313
  984MOL0     H29826   6.681   5.151   5.934  1.7470 -1.6060  1.9911
  984MOL0     H29827   6.714   5.367   5.734 -0.7001  0.5129  0.1343
  984MOL0     H29828   6.556   5.307   5.796  0.8990 -0.2746  2.0533
  984MOL0     H29829   6.609   5.077   5.670  0.8546 -0.5490  2.5186
  984MOL0     H29830   6.769   5.145   5.659  0.5096  1.3926  0.2157
  984MOL0     H29831   6.621   5.343   5.530 -0.0315 -0.4643  0.7533
  984MOL0     H29832   6.658   5.201   5.426 -2.1437 -1.2802 -0.9599
  984MOL0     H29833   6.428   5.195   5.609 -1.4765 -1.0973  0.1490
  984MOL0     H29834   6.449   5.115   5.455  1.2388 -0.4792  1.5949
  984MOL0     H29835   6.419   5.339   5.331 -0.1621 -0.8759  0.9550
  984MOL0     H29836   6.421   5.419   5.484 -2.4364  0.7363  2.7039
  984MOL0     H29837   6.212   5.407   5.368 -0.6835  0.9018  0.0544
  984MOL0     H29838   6.181   5.237   5.413  0.8531 -0.0210  0.3464
  984MOL0     H29839   6.259   5.448   5.617  5.0699 -1.2897 -1.9243
  984MOL0     H29840   6.211   5.279   5.648  3.3749 -1.9528 -2.1610
  984MOL0     H29841   6.023   5.512   5.384 -1.1178  2.7788 -0.3537
  984MOL0     H29842   5.792   5.616   5.374  2.3735 -1.1605 -0.5696
  984MOL0     H29843   5.805   5.745   5.492 -0.3775 -0.3217  0.0879
  984MOL0     H29844   5.602   5.661   5.622 -0.3916 -1.6879  0.8185
  984MOL0     H29845   5.618   5.511   5.532  0.9762 -0.0286 -1.0948
  984MOL0     H29846   5.555   5.779   5.381  2.3177 -0.4032 -1.5205
  984MOL0     H29847   5.551   5.599   5.337  1.5394 -1.7534  2.0751
  984MOL0     H29848   5.365   5.718   5.545 -5.4645 -2.7973  0.7658
  984MOL0     H29849   5.353   5.563   5.461 -1.0248 -0.8984 -1.9550
  984MOL0     H29850   5.220   5.917   5.233 -0.2434  0.6374 -0.7627
  984MOL0     H29851   4.992   5.945   5.161  2.5897  1.4467  0.9547
  984MOL0     H29852   4.557   5.627   5.037 -2.3383 -1.3636 -1.3240
  984MOL0     H29853   4.338   5.698   4.978  2.3873  0.8285 -1.2173
  984MOL0     H29854   4.078   5.897   5.302  0.3212 -0.8983  0.6373
  984MOL0     H29855   4.067   5.724   5.270  1.1136  0.6992  1.3860
  984MOL0     H29856   3.921   5.767   5.059 -2.4211  0.3985 -0.1515
  984MOL0     H29857   3.929   5.941   5.113 -0.9050 -0.9372 -0.5093
  984MOL0     H29858   3.815   5.896   5.294  5.6301 -0.9791  0.8682
  984MOL0     H29859   3.791   5.716   5.270 -2.9149  0.7489  0.0839
  984MOL0     H29860   3.659   5.947   5.122 -2.1554 -0.4413  1.1487
  984MOL0     H29861   3.673   5.787   5.056  0.6637 -0.2578  0.3038
  984MOL0     H29862   3.546   5.863   5.322  2.4005 -1.4584  0.5270
  984MOL0     H29863   3.544   5.697   5.242 -0.2382 -0.0468  0.0294
  984MOL0     H29864   3.411   5.760   5.063 -1.7236 -0.9343  0.4691
  984MOL0     H29865   3.436   5.933   5.099 -1.6476  0.6182  1.9894
  984MOL0     H29866   3.279   5.740   5.253 -1.0648  0.4619 -1.7997
  984MOL0     H29867   3.302   5.914   5.306 -0.7300 -0.3722  0.8674
  984MOL0     H29868   3.089   5.866   5.196 -1.0441  3.0683 -0.4605
  984MOL0     H29869   3.165   5.822   5.038  1.1317  0.0036  0.5468
  984MOL0     H29870   4.255   5.833   5.374  2.2768 -2.7576  2.9045
  984MOL0     H29871   4.500   5.795   5.434  1.3520  1.9725 -1.2350
  984MOL0     H29872   4.882   5.594   5.385  0.1872  0.6652 -0.7522
  984MOL0     H29873   5.127   5.572   5.449 -0.0983 -1.9290 -2.6360
  984MOL0     H29874   7.060   5.083   5.761 -0.7256  2.0641  0.2373
  984MOL0     H29875   7.245   4.968   5.891  2.0549  1.4262 -0.5381
  984MOL0     H29876   7.252   4.612   6.353  2.0521 -3.3774  0.6063
  984MOL0     H29877   7.461   4.522   6.455  1.0167  0.1522  2.7003
  984MOL0     H29878   7.717   4.541   6.687  1.7145 -0.2876 -2.2138
  984MOL0     H29879   7.544   4.585   6.668 -0.0630  0.6329  3.2640
  984MOL0     H29880   7.757   4.793   6.723 -0.9721  1.5797  0.6920
  984MOL0     H29881   7.585   4.816   6.732 -0.4786 -1.0464 -2.1819
  984MOL0     H29882   7.734   4.781   6.948 -0.1490 -0.4701  0.7495
  984MOL0     H29883   7.716   4.610   6.919 -2.5355 -0.5782 -1.6803
  984MOL0     H29884   7.468   4.786   6.906 -0.8874  0.9409  2.1814
  984MOL0     H29885   7.469   4.616   6.904  1.2813 -1.2021  0.2756
  984MOL0     H29886   7.522   4.691   7.322 -5.6791  0.6502 -0.2020
  984MOL0     H29887   7.657   4.898   6.417 -0.2812  0.3025  0.6810
  984MOL0     H29888   7.465   4.982   6.284 -1.5926 -0.9605 -2.5186
  985MOL0     O29889   1.578   2.199   9.713  0.2660 -0.1403 -0.1206
  985MOL0     C29890   1.696   2.212   9.689 -0.9364 -0.2595  0.2348
  985MOL0     O29891   1.755   2.329   9.663  0.0135 -0.0029  0.5141
  985MOL0     C29892   1.696   2.451   9.696  0.7856  0.1758 -0.0856
  985MOL0     C29893   1.661   2.485   9.828  0.1371 -0.1236 -0.9530
  985MOL0     C29894   1.597   2.602   9.866  0.3946 -0.5520 -0.6226
  985MOL0     C29895   1.575   2.703   9.773 -0.7037 -0.8693  0.2176
  985MOL0     O29896   1.509   2.813   9.819 -0.1083  0.2322 -0.1874
  985MOL0     C29897   1.524   2.926   9.728 -0.0076 -0.3624 -0.6077
  985MOL0     C29898   1.502   3.064   9.805  0.3101 -0.6413 -0.0695
  985MOL0     C29899   1.600   3.085   9.927  0.0870  0.3553 -0.0705
  985MOL0     C29900   1.740   3.122   9.871 -0.8525 -0.1606  0.4886
  985MOL0     C29901   1.833   3.149   9.993  0.3395 -0.2895  0.0753
  985MOL0     C29902   1.964   3.220   9.961  0.1238 -0.5314  0.7717
  985MOL0     C29903   2.043   3.223  10.086  0.2087 -0.6519 -0.1240
  985MOL0     C29904   2.179   3.293  10.054  0.0173 -0.5802 -0.2050
  985MOL0     N29905   2.248   3.299  10.188 -0.3022 -0.2716 -0.0173
  985MOL0     C29906   2.292   3.190  10.266 -0.5748  0.7144  0.2607
  985MOL0     C29907   2.315   3.247  10.386  0.5532  0.0682 -0.4572
  985MOL0     C29908   2.344   3.165  10.513 -0.2945  0.6406 -1.2325
  985MOL0     C29909   2.212   3.113  10.575 -1.0176  0.3278  0.3897
  985MOL0     C29910   2.243   3.004  10.674  0.4532 -0.0578  0.5824
  985MOL0     C29911   2.124   3.003  10.773 -0.5662  0.7960  0.3229
  985MOL0     O29912   2.142   3.097  10.882  0.6143  0.8975 -0.1110
  985MOL0     C29913   2.036   3.115  10.969 -0.5233  0.6910 -0.6315
  985MOL0     C29914   2.048   3.218  11.063 -0.3036 -0.5347 -1.1670
  985MOL0     C29915   1.956   3.226  11.166 -0.4041  0.4503  0.4323
  985MOL0     C29916   1.853   3.134  11.194  0.0839  0.8229  1.3033
  985MOL0     C29917   1.747   3.150  11.296 -0.2600  0.5074  0.5327
  985MOL0     O29918   1.644   3.075  11.274 -0.0993  0.0438 -0.0544
  985MOL0     C29919   1.546   3.080  11.370  0.1832  0.3738  0.7101
  985MOL0     C29920   1.487   2.966  11.419 -0.7380  0.9331  0.0687
  985MOL0     C29921   1.377   2.966  11.502 -0.1119  0.4450  0.3037
  985MOL0     C29922   1.322   3.089  11.548 -0.2759 -1.1526  1.4225
  985MOL0     O29923   1.204   3.097  11.627  0.2557 -0.0357  0.0657
  985MOL0     C29924   1.210   3.190  11.739  0.8870  0.2092  0.5010
  985MOL0     C29925   1.108   3.152  11.840  0.4274  0.1383  0.0488
  985MOL0     C29926   1.101   2.998  11.863  0.1418  0.0762 -0.6231
  985MOL0     C29927   1.235   2.931  11.897 -0.0339  1.1228 -0.1720
  985MOL0     C29928   1.205   2.786  11.942 -0.1240  1.1236 -0.0553
  985MOL0     C29929   1.328   2.688  11.929 -0.3534  0.7166 -0.8057
  985MOL0     C29930   1.434   2.707  12.044  0.4210  0.0560 -0.1660
  985MOL0     C29931   1.582   2.692  11.993  0.8974  0.2261 -0.6523
  985MOL0    Cl29932   1.594   2.524  11.940 -0.7300  0.4621 -0.0304
  985MOL0     C29933   1.389   3.201  11.510  0.6788 -0.4360 -0.3149
  985MOL0     C29934   1.490   3.204  11.416  0.3166  0.3266  1.1623
  985MOL0     O29935   1.780   3.201  11.400  0.1325 -0.3183 -0.9410
  985MOL0     C29936   1.845   3.033  11.094  0.2296  0.2341  0.3963
  985MOL0     C29937   1.924   3.026  10.983  0.4900 -0.0713  0.5403
  985MOL0     N29938   2.304   3.384  10.377 -0.0323  0.3734 -0.5289
  985MOL0     N29939   2.272   3.416  10.256  0.6382 -0.4447 -0.1955
  985MOL0     C29940   1.603   2.674   9.640  0.5671 -0.3157 -0.7173
  985MOL0     C29941   1.663   2.551   9.605  0.0218  1.4477  0.6567
  985MOL0     C29942   1.781   2.083   9.678  0.0348 -0.2014 -0.8163
  985MOL0     C29943   1.721   1.961   9.710  0.1083  0.2692  0.9387
  985MOL0     C29944   1.790   1.838   9.703 -0.1107 -0.5368  0.5620
  985MOL0     C29945   1.929   1.843   9.671 -0.0585  0.6663 -0.0503
  985MOL0     O29946   2.010   1.735   9.644 -0.1424  0.3592 -0.1126
  985MOL0     C29947   1.957   1.606   9.690 -0.4974  0.2229  0.7366
  985MOL0     C29948   2.033   1.491   9.634  0.4339  0.4664 -0.3880
  985MOL0     C29949   2.188   1.495   9.651 -0.1212  0.5497  0.2117
  985MOL0     C29950   2.251   1.509   9.512  0.8688  0.0188 -0.1254
  985MOL0     C29951   2.396   1.530   9.517  1.5656  0.3815 -0.2609
  985MOL0     C29952   2.515   1.540   9.553  0.1059  0.0966 -0.2279
  985MOL0     C29953   1.985   1.969   9.642 -0.3530  0.5359 -0.2938
  985MOL0     C29954   1.914   2.080   9.636 -0.4441 -0.0799 -0.5923
  985MOL0     H29955   1.689   2.422   9.911 -3.1636  2.1661  2.2076
  985MOL0     H29956   1.563   2.623   9.967 -0.1052  0.1195 -0.9213
  985MOL0     H29957   1.447   2.929   9.650  1.4069 -0.4926 -2.0667
  985MOL0     H29958   1.627   2.920   9.691  0.5206 -0.8816  0.8757
  985MOL0     H29959   1.401   3.060   9.849  0.4417  0.5565  0.3771
  985MOL0     H29960   1.507   3.148   9.736  0.0319  0.0139  0.6912
  985MOL0     H29961   1.620   2.998   9.989  0.0904 -0.7728 -1.6061
  985MOL0     H29962   1.553   3.166   9.984  0.6343 -0.4732  1.6074
  985MOL0     H29963   1.776   3.037   9.813  0.3257  0.7381 -0.1397
  985MOL0     H29964   1.733   3.211   9.808  1.3074  1.7384  2.7393
  985MOL0     H29965   1.854   3.054  10.043 -3.9836 -0.3299  2.2998
  985MOL0     H29966   1.779   3.219  10.057 -2.0042  0.5810 -2.6439
  985MOL0     H29967   1.930   3.320   9.932 -1.2313 -0.5324  2.2482
  985MOL0     H29968   2.031   3.176   9.887 -1.0354  0.4887 -0.9624
  985MOL0     H29969   1.996   3.277  10.169  1.6464  0.5420 -0.0488
  985MOL0     H29970   2.061   3.125  10.131 -0.0192 -0.7886 -0.3320
  985MOL0     H29971   2.162   3.396  10.019  2.8818 -0.5231 -1.6403
  985MOL0     H29972   2.244   3.243   9.983 -1.9494 -0.8226 -1.9460
  985MOL0     H29973   2.294   3.086  10.236 -0.2981  0.8119 -0.0531
  985MOL0     H29974   2.399   3.219  10.590 -0.8669  3.2959 -2.5950
  985MOL0     H29975   2.407   3.080  10.484  0.5000  0.9675 -0.5215
  985MOL0     H29976   2.144   3.090  10.492 -0.4972  2.1533 -0.6116
  985MOL0     H29977   2.170   3.196  10.633  0.4138  1.1723  0.2554
  985MOL0     H29978   2.253   2.909  10.621 -1.0573 -1.1722  2.1860
  985MOL0     H29979   2.339   3.030  10.720  1.0845  2.7036 -1.9498
  985MOL0     H29980   2.118   2.897  10.800 -1.8565  1.0404  1.0939
  985MOL0     H29981   2.029   3.028  10.724 -0.1493  0.0045 -0.9573
  985MOL0     H29982   2.132   3.287  11.067  1.2242 -2.3560 -0.0428
  985MOL0     H29983   1.979   3.310  11.232  4.2030  0.2233 -0.5311
  985MOL0     H29984   1.527   2.873  11.380  2.2516  1.5644  1.3270
  985MOL0     H29985   1.338   2.866  11.519  0.9043 -0.1548 -0.7489
  985MOL0     H29986   1.196   3.293  11.705  2.2955 -0.1540 -1.3372
  985MOL0     H29987   1.308   3.184  11.787 -0.1441 -1.7740  2.5152
  985MOL0     H29988   1.007   3.185  11.815  0.6591 -0.5528 -2.0178
  985MOL0     H29989   1.112   3.210  11.932  1.6085  0.4955 -0.2098
  985MOL0     H29990   1.046   2.950  11.782  1.3519  0.3089 -1.6269
  985MOL0     H29991   1.033   2.985  11.948  3.8025 -0.6472  2.4976
  985MOL0     H29992   1.290   2.913  11.804 -1.7842  2.2611 -1.4870
  985MOL0     H29993   1.290   2.988  11.973 -2.5436  2.6357  0.6425
  985MOL0     H29994   1.128   2.744  11.877 -0.6920 -1.2082  1.9474
  985MOL0     H29995   1.159   2.794  12.042 -0.6226 -3.0046  0.2309
  985MOL0     H29996   1.367   2.688  11.827  1.0163  0.6838 -0.2972
  985MOL0     H29997   1.297   2.585  11.951 -3.5152  1.3070 -2.0305
  985MOL0     H29998   1.426   2.810  12.080 -0.3186 -0.5685  1.5644
  985MOL0     H29999   1.415   2.645  12.132  2.1008  3.5258  2.9499
  985MOL0     H30000   1.652   2.710  12.074 -0.2137 -0.9342  0.6198
  985MOL0     H30001   1.603   2.758  11.909 -0.3713  0.6753 -0.6420
  985MOL0     H30002   1.357   3.300  11.541 -1.4428 -1.4245  0.8655
  985MOL0     H30003   1.527   3.302  11.389  1.6620 -0.4726 -0.0293
  985MOL0     H30004   1.763   2.961  11.095 -0.9861  1.3952 -2.5646
  985MOL0     H30005   1.906   2.947  10.912 -0.3896  0.4569  0.1592
  985MOL0     H30006   1.557   2.727   9.558 -1.2769  0.4694  0.7407
  985MOL0     H30007   1.677   2.512   9.505  0.8003  0.4600  1.1362
  985MOL0     H30008   1.617   1.949   9.736 -0.0426  1.1452  0.7896
  985MOL0     H30009   1.730   1.751   9.726 -1.6571 -0.3828 -2.3904
  985MOL0     H30010   1.857   1.588   9.651  1.2049 -2.8887 -2.9263
  985MOL0     H30011   1.963   1.602   9.799  1.6997 -0.7332  0.6499
  985MOL0     H30012   2.001   1.400   9.686 -2.0915 -0.8426 -3.8905
  985MOL0     H30013   2.011   1.480   9.528 -0.2016 -3.3929  0.0281
  985MOL0     H30014   2.209   1.399   9.698 -0.1648  1.1941  1.5947
  985MOL0     H30015   2.223   1.580   9.711  1.2241  0.8467 -0.9272
  985MOL0     H30016   2.242   1.413   9.460  2.3777  0.1593 -0.7000
  985MOL0     H30017   2.206   1.592   9.456 -0.7704 -0.0471  1.0387
  985MOL0     H30018   2.616   1.563   9.581  0.0163 -0.6357  0.7445
  985MOL0     H30019   2.093   1.975   9.629  0.3518 -3.3457  2.1718
  985MOL0     H30020   1.982   2.161   9.610 -0.3236 -0.3846 -1.2615
  986MOL0     O30021   2.623  10.069   9.989 -1.3504 -0.7765  0.1658
  986MOL0     C30022   2.634  10.004  10.093  0.2260  0.3506 -1.2318
  986MOL0     O30023   2.524   9.973  10.177 -0.3359 -0.0653 -1.0063
  986MOL0     C30024   2.402  10.031  10.135  0.0187 -0.1571 -0.7582
  986MOL0     C30025   2.341  10.006  10.016 -0.2846  0.7173 -0.1005
  986MOL0     C30026   2.221  10.064   9.981  0.0817  0.7369  0.0308
  986MOL0     C30027   2.144  10.149  10.063 -0.1887  0.2399 -0.5775
  986MOL0     O30028   2.020  10.190  10.017  0.0261 -0.0495 -0.0756
  986MOL0     C30029   1.944  10.297  10.077 -0.3580  0.6585 -0.2847
  986MOL0     C30030   1.839  10.238  10.176  0.2802 -0.5741 -0.1411
  986MOL0     C30031   1.809  10.339  10.291 -0.2186 -0.1050  0.4759
  986MOL0     C30032   1.723  10.456  10.241 -0.4474 -0.2559  0.6110
  986MOL0     C30033   1.718  10.565  10.351 -0.3065 -0.5512 -0.3231
  986MOL0     C30034   1.647  10.694  10.312 -1.2801  0.6546  0.3127
  986MOL0     C30035   1.514  10.679  10.236 -0.1007  0.1061 -0.5413
  986MOL0     C30036   1.490  10.797  10.132  0.0995  0.2434 -0.7651
  986MOL0     N30037   1.403  10.903  10.196 -0.1324  0.0826 -0.1223
  986MOL0     C30038   1.456  10.986  10.291  0.6398  0.4050  1.1171
  986MOL0     C30039   1.351  11.065  10.326  0.5644 -0.8249  0.0248
  986MOL0     C30040   1.370  11.181  10.430  0.4973  0.9666 -0.1329
  986MOL0     C30041   1.243  11.178  10.527 -0.7919 -0.1871 -0.5343
  986MOL0     C30042   1.211  11.052  10.610  0.1022  0.6437 -0.2025
  986MOL0     C30043   1.078  11.051  10.690  0.1582 -0.5163 -0.3622
  986MOL0     O30044   1.063  11.180  10.756  0.0545  0.0047  0.0229
  986MOL0     C30045   0.946  11.210  10.824  0.3051  0.2310 -0.0861
  986MOL0     C30046   0.946  11.324  10.890  0.9802 -0.6828 -0.2824
  986MOL0     C30047   0.825  11.365  10.949 -0.0854 -0.5712 -0.9243
  986MOL0     C30048   0.710  11.292  10.955  0.6137  0.6828 -0.1248
  986MOL0     C30049   0.580  11.343  11.027 -0.3482  0.9205  0.8614
  986MOL0     O30050   0.481  11.252  11.055 -0.1952  0.1717 -0.4929
  986MOL0     C30051   0.363  11.277  11.107  0.6171 -0.5320 -0.5010
  986MOL0     C30052   0.290  11.382  11.072 -0.0777  0.5860 -0.0749
  986MOL0     C30053   0.157  11.393  11.122  0.0434 -0.2615  0.0375
  986MOL0     C30054   0.099  11.312  11.221 -1.0824  0.8865  0.1784
  986MOL0     O30055  -0.028  11.315  11.271 -0.0370 -0.9995 -0.0304
  986MOL0     C30056  -0.124  11.406  11.203 -0.3488 -0.2062  0.5133
  986MOL0     C30057  -0.268  11.407  11.261 -1.1390 -0.7302  0.3968
  986MOL0     C30058  -0.323  11.267  11.242 -0.3872  1.2792 -0.2518
  986MOL0     C30059  -0.453  11.254  11.316  0.3296  0.0416 -0.1596
  986MOL0     C30060  -0.569  11.350  11.270 -0.1744  0.3689 -0.0457
  986MOL0     C30061  -0.697  11.315  11.328 -0.2716  0.7791 -0.4381
  986MOL0     C30062  -0.800  11.425  11.303  0.4765  0.0075  0.5997
  986MOL0     C30063  -0.937  11.395  11.356  0.7105 -0.6687  0.5935
  986MOL0    Cl30064  -0.928  11.363  11.541 -0.2536 -0.7503  0.1499
  986MOL0     C30065   0.184  11.218  11.276 -0.1916  0.7154 -0.9296
  986MOL0     C30066   0.312  11.196  11.212 -0.3371 -0.3649  0.4351
  986MOL0     O30067   0.584  11.460  11.065  0.0503  0.7180 -0.6876
  986MOL0     C30068   0.715  11.165  10.898  0.7419 -0.2777 -0.1834
  986MOL0     C30069   0.829  11.125  10.828 -1.0022 -0.0080 -0.0570
  986MOL0     N30070   1.240  11.032  10.249  0.0300  0.5329  0.2919
  986MOL0     N30071   1.272  10.929  10.181 -0.7701  0.1773 -0.5195
  986MOL0     C30072   2.203  10.168  10.190 -0.5943  0.1845  0.7310
  986MOL0     C30073   2.329  10.112  10.227  0.3578 -0.5215 -0.0697
  986MOL0     C30074   2.769   9.953  10.128  0.1057  0.1372 -1.2015
  986MOL0     C30075   2.812   9.958  10.267  0.2625  0.4855 -0.7093
  986MOL0     C30076   2.947   9.940  10.293  0.2273  0.1553 -0.7924
  986MOL0     C30077   3.037   9.910  10.191 -0.4592 -0.0094 -1.1751
  986MOL0     O30078   3.167   9.891  10.232  0.5252  0.3114  0.6758
  986MOL0     C30079   3.200   9.742  10.243 -0.4182 -1.2418 -0.6663
  986MOL0     C30080   3.291   9.711  10.368 -0.3259 -1.3370  0.6752
  986MOL0     C30081   3.411   9.809  10.377 -0.0688 -0.6316 -0.5582
  986MOL0     C30082   3.538   9.745  10.414 -0.4393  0.8377  1.0965
  986MOL0     C30083   3.642   9.849  10.427  0.3629 -0.4929 -0.1637
  986MOL0     C30084   3.729   9.937  10.439 -0.4341  0.0641 -0.1089
  986MOL0     C30085   2.999   9.909  10.057  0.7490 -0.0645 -0.4774
  986MOL0     C30086   2.862   9.927  10.022  0.3790 -1.2646  0.2770
  986MOL0     H30087   2.397   9.939   9.952 -0.6903 -0.1392  0.4269
  986MOL0     H30088   2.191  10.024   9.884  0.5867 -1.2310  0.6341
  986MOL0     H30089   1.900  10.357   9.997  0.4980  0.0149 -1.2432
  986MOL0     H30090   2.010  10.362  10.136 -0.3841  0.3942  0.0402
  986MOL0     H30091   1.873  10.146  10.224  0.6754  0.2295  1.2028
  986MOL0     H30092   1.749  10.216  10.119  0.1016  0.1048 -0.1315
  986MOL0     H30093   1.904  10.378  10.327  0.7184  1.3018 -3.1362
  986MOL0     H30094   1.752  10.275  10.359 -1.2346  0.9971  0.7031
  986MOL0     H30095   1.772  10.505  10.156  1.6644  0.3127  2.0821
  986MOL0     H30096   1.633  10.414  10.196 -0.1203  0.0850 -0.4008
  986MOL0     H30097   1.816  10.592  10.392  0.7269 -0.6134 -2.6248
  986MOL0     H30098   1.649  10.527  10.428 -0.3724 -0.0062 -0.1055
  986MOL0     H30099   1.708  10.740  10.234 -1.0582 -0.9483 -0.5027
  986MOL0     H30100   1.630  10.754  10.402  0.7249 -1.4967  2.2849
  986MOL0     H30101   1.512  10.583  10.184  2.8295  0.4922 -1.5360
  986MOL0     H30102   1.428  10.672  10.304 -1.7015  0.0119 -2.4867
  986MOL0     H30103   1.442  10.750  10.045  0.3402  1.6003 -1.6459
  986MOL0     H30104   1.575  10.842  10.081 -0.0909  0.3096 -1.0323
  986MOL0     H30105   1.552  10.980  10.340  0.5136  0.5838  1.3895
  986MOL0     H30106   1.363  11.279  10.382 -1.7151 -0.0248 -2.0558
  986MOL0     H30107   1.464  11.167  10.483  1.8551 -0.6809 -2.7953
  986MOL0     H30108   1.155  11.206  10.468 -0.2908  1.5724 -0.4970
  986MOL0     H30109   1.266  11.256  10.600  2.6145  1.3433 -2.9515
  986MOL0     H30110   1.206  10.971  10.537  2.0458 -1.9830  2.3499
  986MOL0     H30111   1.287  11.020  10.682  0.2926  1.3079 -0.1082
  986MOL0     H30112   1.075  10.963  10.755  0.5366 -0.2500  0.0248
  986MOL0     H30113   0.997  11.040  10.617 -1.2789  1.8896  0.7191
  986MOL0     H30114   1.031  11.391  10.893  0.1644  0.8224 -4.0782
  986MOL0     H30115   0.829  11.465  10.992  0.7395 -1.1084  0.3038
  986MOL0     H30116   0.330  11.450  10.997 -1.8185 -1.4085 -3.0276
  986MOL0     H30117   0.091  11.468  11.082  2.4090  0.8859 -1.9780
  986MOL0     H30118  -0.121  11.376  11.098  0.9904  1.6703 -0.0344
  986MOL0     H30119  -0.086  11.508  11.212 -0.0511 -0.2140 -0.5261
  986MOL0     H30120  -0.326  11.482  11.205  0.3684 -0.6310 -1.1246
  986MOL0     H30121  -0.263  11.429  11.368 -1.2150 -0.3972  0.3323
  986MOL0     H30122  -0.256  11.186  11.272  0.8644  1.5047 -2.2041
  986MOL0     H30123  -0.334  11.262  11.133  3.2097  2.0465 -0.7853
  986MOL0     H30124  -0.491  11.155  11.290  1.4571  0.4844 -4.2184
  986MOL0     H30125  -0.431  11.266  11.422  2.5827 -1.2463 -0.4186
  986MOL0     H30126  -0.556  11.349  11.162  2.5488 -4.7398  0.0269
  986MOL0     H30127  -0.538  11.453  11.288  0.4483 -0.0680  1.6166
  986MOL0     H30128  -0.690  11.294  11.435  1.3772 -1.2001 -0.8721
  986MOL0     H30129  -0.738  11.223  11.285  2.0562  0.0111 -1.1166
  986MOL0     H30130  -0.763  11.513  11.358  2.9482 -1.2285  1.0418
  986MOL0     H30131  -0.816  11.437  11.196  0.1243 -0.3725  0.6083
  986MOL0     H30132  -0.975  11.303  11.312  1.4227 -1.0826  0.8339
  986MOL0     H30133  -1.001  11.483  11.346 -1.4021 -1.2449  5.8140
  986MOL0     H30134   0.156  11.156  11.360  1.9846  1.2642  0.2544
  986MOL0     H30135   0.377  11.126  11.263  1.8885  0.1687 -1.4768
  986MOL0     H30136   0.634  11.092  10.897  1.1423 -0.8508  2.2759
  986MOL0     H30137   0.831  11.026  10.784  1.6672  0.4812 -1.2454
  986MOL0     H30138   2.157  10.237  10.261  0.0679  2.4764 -0.9409
  986MOL0     H30139   2.367  10.151  10.321  2.9107 -0.2762 -1.1433
  986MOL0     H30140   2.747   9.997  10.345  2.3420  0.9784  0.8782
  986MOL0     H30141   2.986   9.967  10.390 -1.8824  3.8355 -0.7966
  986MOL0     H30142   3.245   9.706  10.150 -0.3232 -1.7936 -0.4132
  986MOL0     H30143   3.113   9.678  10.262 -1.3370  0.7907  3.0901
  986MOL0     H30144   3.235   9.730  10.460  1.2006  1.5373  1.1029
  986MOL0     H30145   3.331   9.609  10.374  2.6778 -0.2393  1.0333
  986MOL0     H30146   3.384   9.891  10.444  3.7212  1.2895 -1.1301
  986MOL0     H30147   3.430   9.852  10.278  0.6935  1.2363  0.3650
  986MOL0     H30148   3.537   9.671  10.495  1.1073  0.6100  0.9349
  986MOL0     H30149   3.562   9.683  10.327  1.8876  0.0196  2.2446
  986MOL0     H30150   3.814   9.997  10.465  1.1847 -0.7048 -3.0952
  986MOL0     H30151   3.075   9.895   9.981  1.9804  0.8546  0.5399
  986MOL0     H30152   2.843   9.929   9.915  2.3887 -5.4094 -0.3734
  987MOL0     O30153   4.950   7.647   7.974  0.8946 -0.1565 -0.7718
  987MOL0     C30154   4.958   7.571   8.072  1.1413 -0.0685 -0.5183
  987MOL0     O30155   4.847   7.542   8.160 -0.3914 -0.1795  0.6646
  987MOL0     C30156   4.730   7.595   8.132 -0.6795 -0.2559  0.4392
  987MOL0     C30157   4.625   7.534   8.062  0.3708 -1.0310 -0.0062
  987MOL0     C30158   4.492   7.584   8.058 -0.1194 -0.0977 -0.3617
  987MOL0     C30159   4.481   7.710   8.125  0.3193 -0.5016 -0.0868
  987MOL0     O30160   4.357   7.772   8.142 -0.7487  0.3687 -1.4675
  987MOL0     C30161   4.237   7.688   8.164 -0.3362  0.7890 -0.1769
  987MOL0     C30162   4.108   7.765   8.204  0.9100  0.1895  0.6851
  987MOL0     C30163   4.005   7.667   8.258 -0.6615  0.5990 -0.2104
  987MOL0     C30164   3.868   7.737   8.264 -0.5441  0.8144 -1.0068
  987MOL0     C30165   3.748   7.661   8.316  0.0291 -0.9442 -0.9184
  987MOL0     C30166   3.767   7.618   8.467  0.2954 -0.0430 -0.5564
  987MOL0     C30167   3.648   7.576   8.547  0.0835 -0.4375  0.4134
  987MOL0     C30168   3.554   7.496   8.460 -0.5801 -0.1908  0.2521
  987MOL0     N30169   3.422   7.506   8.519 -0.2519  0.6429  0.6475
  987MOL0     C30170   3.368   7.431   8.618 -0.0690 -0.4176 -0.8437
  987MOL0     C30171   3.245   7.493   8.644 -0.1512  0.0960 -0.0893
  987MOL0     C30172   3.154   7.443   8.751  0.2944  0.6114  0.5244
  987MOL0     C30173   3.168   7.504   8.886  0.1837 -0.8940 -0.7812
  987MOL0     C30174   3.084   7.423   8.986  0.0903 -0.5734 -0.7517
  987MOL0     C30175   2.927   7.442   8.960  0.7828 -0.5066  0.4237
  987MOL0     O30176   2.850   7.394   9.069 -0.0881 -0.7617 -0.9686
  987MOL0     C30177   2.712   7.391   9.073 -0.4365 -0.1187  0.9678
  987MOL0     C30178   2.641   7.377   9.190  0.1101  0.1400 -1.6343
  987MOL0     C30179   2.502   7.367   9.198 -0.1392  0.1740 -1.0036
  987MOL0     C30180   2.423   7.378   9.087 -0.7432 -1.1770  0.9922
  987MOL0     C30181   2.276   7.378   9.100 -0.1422  0.1268 -0.1825
  987MOL0     O30182   2.212   7.340   9.218  0.5344 -0.1235  0.1669
  987MOL0     C30183   2.074   7.338   9.230  0.4681 -0.1058  0.3741
  987MOL0     C30184   2.019   7.254   9.328  0.2307  1.1044 -0.4852
  987MOL0     C30185   1.886   7.241   9.352  0.4130 -0.7898  0.2535
  987MOL0     C30186   1.791   7.319   9.281  0.0930 -0.0843  1.0061
  987MOL0     O30187   1.661   7.307   9.321  0.3004 -0.2847  0.3317
  987MOL0     C30188   1.565   7.328   9.225  0.6807 -0.3335  0.3036
  987MOL0     C30189   1.448   7.261   9.301 -0.6281 -0.9308 -0.3500
  987MOL0     C30190   1.387   7.350   9.412 -0.0595 -0.6709 -0.2022
  987MOL0     C30191   1.266   7.277   9.473  1.1466 -0.0718  1.1719
  987MOL0     C30192   1.154   7.375   9.508  0.2701  0.5938 -0.3418
  987MOL0     C30193   1.055   7.282   9.569  0.1573  0.3633 -0.5295
  987MOL0     C30194   0.928   7.358   9.629 -1.2957  0.6715  0.3297
  987MOL0     C30195   0.829   7.360   9.524 -0.4724  0.1717  0.0199
  987MOL0    Cl30196   0.755   7.193   9.501 -0.3820 -0.2034  0.4724
  987MOL0     C30197   1.843   7.414   9.192 -0.2527 -0.3096  0.1197
  987MOL0     C30198   1.985   7.424   9.163  0.3191 -0.3347  0.7441
  987MOL0     O30199   2.218   7.398   8.992  0.1086  0.5029  0.3307
  987MOL0     C30200   2.496   7.393   8.964  0.6382 -0.7984  0.1374
  987MOL0     C30201   2.628   7.412   8.961 -0.4414  0.4393  0.6334
  987MOL0     N30202   3.245   7.608   8.576 -0.0410  0.3396  0.4637
  987MOL0     N30203   3.345   7.620   8.500  0.5876  1.0590 -0.0365
  987MOL0     C30204   4.587   7.778   8.183 -0.2502  0.6197 -0.2034
  987MOL0     C30205   4.713   7.717   8.187  0.4312  0.1147  1.4330
  987MOL0     C30206   5.095   7.541   8.106  0.2884  1.1532 -0.3877
  987MOL0     C30207   5.185   7.542   8.000  1.0174 -0.8915  0.8808
  987MOL0     C30208   5.323   7.517   8.017 -0.0625 -0.6797  0.0215
  987MOL0     C30209   5.371   7.468   8.141  0.8053 -0.0718  0.2472
  987MOL0     O30210   5.499   7.436   8.169 -0.7054 -1.7489 -0.1247
  987MOL0     C30211   5.599   7.490   8.075 -0.5767  1.6329  0.0976
  987MOL0     C30212   5.750   7.475   8.121  0.4637  0.1863  0.1871
  987MOL0     C30213   5.813   7.547   8.237 -0.0713 -0.2043 -1.0920
  987MOL0     C30214   5.798   7.698   8.236  0.0312  0.0612  0.0872
  987MOL0     C30215   5.880   7.757   8.127  0.5468 -0.2531 -0.3448
  987MOL0     C30216   5.928   7.798   8.026 -0.1832  0.2315 -0.6787
  987MOL0     C30217   5.277   7.464   8.251  0.0409  0.2957  0.3813
  987MOL0     C30218   5.149   7.513   8.235  0.3622  0.5876  0.4961
  987MOL0     H30219   4.641   7.433   8.023  0.6412 -2.8879  4.3759
  987MOL0     H30220   4.401   7.546   8.012  0.4573  0.5273 -2.1084
  987MOL0     H30221   4.250   7.618   8.247 -0.5838  0.1827 -0.6405
  987MOL0     H30222   4.208   7.624   8.081  0.9496 -0.6835  0.4709
  987MOL0     H30223   4.069   7.826   8.122 -3.1338 -0.6807  1.7255
  987MOL0     H30224   4.128   7.825   8.293 -0.3335  0.8308  0.5503
  987MOL0     H30225   4.042   7.636   8.356 -1.2552 -0.0845 -0.1942
  987MOL0     H30226   3.993   7.581   8.191  0.2054  1.7800 -1.9658
  987MOL0     H30227   3.875   7.832   8.317 -0.7140  1.2742 -1.7916
  987MOL0     H30228   3.840   7.754   8.159  0.0138 -0.0613 -1.3119
  987MOL0     H30229   3.741   7.565   8.263  1.5276 -1.3759 -0.3930
  987MOL0     H30230   3.666   7.733   8.316 -0.6018 -1.6387 -1.4967
  987MOL0     H30231   3.836   7.690   8.511  0.1498 -0.8263  1.0024
  987MOL0     H30232   3.831   7.529   8.473  0.7862  0.3186 -0.3816
  987MOL0     H30233   3.672   7.520   8.638 -2.7615  2.0243  2.8947
  987MOL0     H30234   3.592   7.661   8.587  2.5727  0.7576  1.6074
  987MOL0     H30235   3.585   7.393   8.440  0.2869  0.1846 -0.4095
  987MOL0     H30236   3.548   7.533   8.357 -2.7772  0.1762  0.4814
  987MOL0     H30237   3.406   7.343   8.670  0.5721 -0.0913 -0.7564
  987MOL0     H30238   3.186   7.339   8.751  0.2489  0.5766 -0.7201
  987MOL0     H30239   3.050   7.451   8.718  0.1165 -1.5593  0.4438
  987MOL0     H30240   3.151   7.612   8.890  0.6147 -0.8398 -0.2999
  987MOL0     H30241   3.272   7.496   8.919  0.1949 -1.0665 -0.8554
  987MOL0     H30242   3.109   7.317   8.982  0.4129 -0.4530 -2.6787
  987MOL0     H30243   3.101   7.462   9.087  2.2941 -2.0666 -0.4989
  987MOL0     H30244   2.899   7.380   8.875 -0.6985  0.3893  0.2401
  987MOL0     H30245   2.900   7.545   8.937  3.7112  0.3697  0.4333
  987MOL0     H30246   2.710   7.362   9.272 -0.0795 -1.5316 -1.7370
  987MOL0     H30247   2.456   7.347   9.294  2.8071 -3.0448 -0.0432
  987MOL0     H30248   2.090   7.197   9.386 -1.8351  0.6420  1.7976
  987MOL0     H30249   1.857   7.152   9.407  1.0350 -3.4621 -3.3393
  987MOL0     H30250   1.571   7.285   9.125  0.5626  0.7625 -0.1883
  987MOL0     H30251   1.540   7.434   9.214  0.1694 -0.6223 -1.6247
  987MOL0     H30252   1.490   7.170   9.344 -0.8818 -1.1246 -0.5107
  987MOL0     H30253   1.371   7.237   9.227 -1.7536  0.1540  0.4277
  987MOL0     H30254   1.356   7.447   9.373 -0.3800 -1.4034 -1.8442
  987MOL0     H30255   1.458   7.370   9.493 -0.9395  0.9293  0.2215
  987MOL0     H30256   1.225   7.204   9.403  3.4227  0.9616 -1.4610
  987MOL0     H30257   1.305   7.232   9.565  2.4608 -1.0407  0.1775
  987MOL0     H30258   1.114   7.418   9.416 -0.8397 -0.3745 -0.3300
  987MOL0     H30259   1.195   7.450   9.576  1.3052  1.5144 -1.9210
  987MOL0     H30260   1.100   7.221   9.648 -0.6757  0.0261 -0.2999
  987MOL0     H30261   1.018   7.200   9.508 -2.3230  1.6297 -0.8434
  987MOL0     H30262   0.893   7.302   9.717  1.0359  1.7554  2.0653
  987MOL0     H30263   0.957   7.452   9.676 -1.9022 -0.3016  2.7969
  987MOL0     H30264   0.875   7.386   9.428  0.5997  1.1068  0.7611
  987MOL0     H30265   0.747   7.432   9.532 -2.4707 -1.9996  0.4184
  987MOL0     H30266   1.786   7.489   9.138 -3.8815 -2.4258  0.7045
  987MOL0     H30267   2.022   7.515   9.118 -1.4399  1.8765  3.4750
  987MOL0     H30268   2.435   7.401   8.874 -0.7484  0.1904  1.1227
  987MOL0     H30269   2.674   7.423   8.863  2.9776  2.3326  2.2521
  987MOL0     H30270   4.582   7.877   8.228  2.7817  0.9739 -0.4153
  987MOL0     H30271   4.801   7.771   8.220 -0.1258  1.2692  1.0756
  987MOL0     H30272   5.147   7.561   7.900  0.0861 -3.4883  0.6625
  987MOL0     H30273   5.379   7.533   7.925  1.5665  0.9416  1.2300
  987MOL0     H30274   5.574   7.595   8.058  0.1050  1.9164  0.7662
  987MOL0     H30275   5.590   7.424   7.988 -2.8735 -2.3358  3.0111
  987MOL0     H30276   5.760   7.366   8.124  1.6813  0.2520 -0.6816
  987MOL0     H30277   5.808   7.505   8.034 -0.5830  1.6137 -0.0572
  987MOL0     H30278   5.915   7.511   8.256 -0.7365 -0.2787  3.5081
  987MOL0     H30279   5.760   7.523   8.330  1.0980  0.5996 -0.1714
  987MOL0     H30280   5.691   7.720   8.226 -0.1898 -1.5696 -1.7667
  987MOL0     H30281   5.835   7.739   8.330  0.5755  1.2209 -0.6174
  987MOL0     H30282   5.977   7.841   7.941 -0.0791  2.5841  0.4958
  987MOL0     H30283   5.319   7.430   8.345  0.9734  1.3982  0.4010
  987MOL0     H30284   5.073   7.513   8.311 -1.0773  0.7637 -0.8943
  988MOL0     O30285   9.870  10.474   0.452  0.3430  0.1404 -0.2606
  988MOL0     C30286   9.848  10.383   0.538 -0.3639  0.0966  0.5089
  988MOL0     O30287   9.729  10.361   0.599 -0.4607 -1.1876  0.0257
  988MOL0     C30288   9.620  10.442   0.557  0.0536  0.1482 -0.1114
  988MOL0     C30289   9.618  10.575   0.520  1.1039  0.1605  0.7901
  988MOL0     C30290   9.498  10.635   0.488  0.1569  0.6211 -0.8539
  988MOL0     C30291   9.376  10.567   0.471  0.2181 -0.4402 -0.3982
  988MOL0     O30292   9.268  10.639   0.429 -0.0059 -0.1508  0.2708
  988MOL0     C30293   9.150  10.575   0.399 -0.2591  0.9080 -0.2619
  988MOL0     C30294   9.053  10.675   0.345 -0.2268 -0.0361  0.3914
  988MOL0     C30295   8.911  10.622   0.305  0.3910 -0.0923  0.3807
  988MOL0     C30296   8.800  10.728   0.269 -0.4036 -0.0618 -0.1889
  988MOL0     C30297   8.682  10.660   0.192  1.4922 -0.0266  0.6878
  988MOL0     C30298   8.584  10.766   0.125 -0.0562  0.0845 -1.1247
  988MOL0     C30299   8.469  10.801   0.223 -0.9398 -0.4749  0.7774
  988MOL0     C30300   8.371  10.901   0.168  0.1448 -0.4126 -0.3827
  988MOL0     N30301   8.244  10.901   0.238 -0.1468  1.1265 -0.2118
  988MOL0     C30302   8.202  11.005   0.314 -0.5906 -0.6161 -0.5828
  988MOL0     C30303   8.081  10.973   0.361  0.3303  0.5838  0.9958
  988MOL0     C30304   8.003  11.043   0.458 -0.2205  0.3183  0.4287
  988MOL0     C30305   7.988  11.198   0.435  0.2208  0.2122  0.3848
  988MOL0     C30306   7.878  11.232   0.330  0.2899  0.0587  0.2055
  988MOL0     C30307   7.841  11.379   0.335 -0.4784 -0.0011  0.1542
  988MOL0     O30308   7.772  11.402   0.461  0.3193 -0.3816 -0.3987
  988MOL0     C30309   7.639  11.369   0.474  0.5648 -0.5575  0.3749
  988MOL0     C30310   7.561  11.325   0.366 -0.3096  1.1761 -0.4617
  988MOL0     C30311   7.423  11.297   0.384 -0.3664 -0.5896 -0.1981
  988MOL0     C30312   7.360  11.332   0.502  0.0844  0.0436 -0.2699
  988MOL0     C30313   7.217  11.316   0.516  0.3711 -0.5487 -0.2311
  988MOL0     O30314   7.145  11.327   0.406  0.7536 -0.4553 -1.1133
  988MOL0     C30315   7.007  11.314   0.416  0.3971 -0.1996  0.3251
  988MOL0     C30316   6.946  11.277   0.293 -0.3557  0.3822  0.0361
  988MOL0     C30317   6.813  11.284   0.265  0.2966 -0.1862  0.0954
  988MOL0     C30318   6.726  11.310   0.367 -0.4101  0.6138  0.5276
  988MOL0     O30319   6.596  11.333   0.345  0.5199 -0.3585 -0.6470
  988MOL0     C30320   6.501  11.316   0.448  0.6026 -0.1710 -0.2929
  988MOL0     C30321   6.366  11.321   0.382 -0.0637  0.3034 -0.3370
  988MOL0     C30322   6.258  11.247   0.465  0.9837  0.2620 -0.6108
  988MOL0     C30323   6.112  11.287   0.434  0.5917 -0.1914 -0.0884
  988MOL0     C30324   6.017  11.272   0.547 -0.1702 -0.2225 -0.3716
  988MOL0     C30325   6.005  11.133   0.612 -0.3312  0.0727  0.1451
  988MOL0     C30326   5.976  11.034   0.504 -0.7020 -0.1789  0.1208
  988MOL0     C30327   5.982  10.890   0.558  0.3547  0.3829 -0.7281
  988MOL0    Cl30328   6.006  10.789   0.406 -0.0151  0.4602  0.2754
  988MOL0     C30329   6.778  11.333   0.493  0.2134 -0.7239  1.2296
  988MOL0     C30330   6.918  11.341   0.518  0.0500  0.6796 -1.1465
  988MOL0     O30331   7.188  11.295   0.629  0.2207 -0.4599  0.0286
  988MOL0     C30332   7.447  11.390   0.601  0.4021  0.6042 -0.4946
  988MOL0     C30333   7.582  11.398   0.592 -0.7572  0.3376 -0.5510
  988MOL0     N30334   8.034  10.870   0.276  0.2830  0.4896 -0.4536
  988MOL0     N30335   8.133  10.827   0.204 -0.8711  1.0998  0.5094
  988MOL0     C30336   9.380  10.437   0.512  0.1579  0.0665 -0.2767
  988MOL0     C30337   9.493  10.373   0.557 -0.7521  0.4641 -0.1984
  988MOL0     C30338   9.962  10.299   0.587 -0.8062 -0.1106  0.3994
  988MOL0     C30339  10.093  10.318   0.543 -0.2925 -0.7215  0.9730
  988MOL0     C30340  10.191  10.232   0.586  0.4067  0.0073 -0.1633
  988MOL0     C30341  10.163  10.128   0.663  0.1492 -0.3285 -0.2796
  988MOL0     O30342  10.254  10.038   0.711 -0.3993  0.3188  0.2589
  988MOL0     C30343  10.392  10.077   0.705  0.4595  1.0832  0.9945
  988MOL0     C30344  10.467   9.990   0.810 -0.6534  0.0911 -0.5494
  988MOL0     C30345  10.622  10.002   0.814  0.2061  0.1761  0.3366
  988MOL0     C30346  10.690   9.908   0.717  0.5336  0.0715 -0.1479
  988MOL0     C30347  10.839   9.938   0.724  0.4920  0.3619  0.3879
  988MOL0     C30348  10.959   9.931   0.723 -0.0461 -0.0178 -0.7655
  988MOL0     C30349  10.038  10.097   0.708 -0.6156  0.5621 -0.6751
  988MOL0     C30350   9.936  10.187   0.670 -0.4587 -0.2590 -0.0633
  988MOL0     H30351   9.716  10.622   0.518  1.0867  0.2680  2.0914
  988MOL0     H30352   9.503  10.738   0.456 -1.8297  1.1128  0.2863
  988MOL0     H30353   9.114  10.530   0.492  2.2296  1.0632  0.8372
  988MOL0     H30354   9.156  10.496   0.323 -2.3160 -0.6484  1.0906
  988MOL0     H30355   9.083  10.728   0.254 -0.2632  0.5382  0.7081
  988MOL0     H30356   9.018  10.749   0.418 -0.5918 -0.5294  0.7270
  988MOL0     H30357   8.872  10.556   0.383  1.8889  0.7373  1.8914
  988MOL0     H30358   8.915  10.557   0.217  0.8767 -0.5726  0.7491
  988MOL0     H30359   8.764  10.769   0.363  0.0479 -3.4274  1.6130
  988MOL0     H30360   8.854  10.801   0.208  1.5792 -1.2690  0.0118
  988MOL0     H30361   8.629  10.589   0.257 -0.3459 -0.5195 -1.2299
  988MOL0     H30362   8.715  10.609   0.101 -0.5134  3.8111 -2.5231
  988MOL0     H30363   8.555  10.729   0.026  1.7204 -0.2523 -1.5547
  988MOL0     H30364   8.646  10.852   0.096  1.9612 -0.7729  0.3492
  988MOL0     H30365   8.414  10.711   0.253  1.4404 -1.4922  2.3465
  988MOL0     H30366   8.517  10.848   0.310 -1.9945  2.1415  0.0646
  988MOL0     H30367   8.350  10.875   0.064 -0.6129 -1.2839 -0.0224
  988MOL0     H30368   8.414  11.002   0.174 -4.5888  1.8731 -0.4357
  988MOL0     H30369   8.271  11.084   0.341  2.6144 -3.0334 -1.1253
  988MOL0     H30370   8.039  11.015   0.558  0.9452  0.8769  0.1816
  988MOL0     H30371   7.906  10.994   0.469 -1.2938  2.1456 -0.4106
  988MOL0     H30372   8.084  11.235   0.397 -0.5813  2.6301  0.5272
  988MOL0     H30373   7.975  11.249   0.531  0.8056 -3.0852  2.3584
  988MOL0     H30374   7.919  11.209   0.231  0.5262  0.3337  0.2378
  988MOL0     H30375   7.795  11.162   0.334  0.2611 -0.0961 -1.8936
  988MOL0     H30376   7.773  11.403   0.253  0.0869 -1.3152 -0.7404
  988MOL0     H30377   7.926  11.449   0.332 -2.6127  2.7347 -0.2213
  988MOL0     H30378   7.597  11.298   0.267  0.0037  0.4209 -0.1425
  988MOL0     H30379   7.379  11.258   0.293  2.1860 -2.5987 -0.6974
  988MOL0     H30380   7.016  11.247   0.215 -1.8158 -1.8853 -0.5152
  988MOL0     H30381   6.779  11.262   0.164  0.1920 -1.2723  0.3585
  988MOL0     H30382   6.505  11.404   0.513 -0.1596  0.3059 -0.8817
  988MOL0     H30383   6.516  11.219   0.498 -3.1656 -0.6768  0.1450
  988MOL0     H30384   6.383  11.270   0.287  2.6019  1.1454 -0.3766
  988MOL0     H30385   6.339  11.426   0.366  0.8851  0.5014 -0.6921
  988MOL0     H30386   6.278  11.267   0.571  1.8731  1.0439 -0.9129
  988MOL0     H30387   6.262  11.142   0.434 -0.7446 -0.2314  0.7307
  988MOL0     H30388   6.108  11.392   0.404 -0.2478 -0.6542 -1.7066
  988MOL0     H30389   6.075  11.234   0.346  2.4500  0.1452 -1.1279
  988MOL0     H30390   5.919  11.311   0.517 -0.7873 -0.4367  1.2375
  988MOL0     H30391   6.048  11.329   0.636 -2.4122 -1.3028  1.1935
  988MOL0     H30392   5.923  11.141   0.684  1.0942  2.3979  1.5899
  988MOL0     H30393   6.096  11.102   0.664  0.2334  0.3255 -0.6707
  988MOL0     H30394   5.883  11.052   0.450  0.4074  2.3731 -1.1204
  988MOL0     H30395   6.049  11.045   0.423 -2.2067 -1.0064 -1.4232
  988MOL0     H30396   5.891  10.871   0.616  0.9107  2.1929  0.7990
  988MOL0     H30397   6.070  10.881   0.622  0.7348  0.4607 -1.2334
  988MOL0     H30398   6.723  11.353   0.585 -0.0343  2.4712  0.5205
  988MOL0     H30399   6.946  11.379   0.615 -0.2587  1.9290 -1.5339
  988MOL0     H30400   7.404  11.416   0.698  1.1030  0.4587 -0.1393
  988MOL0     H30401   7.640  11.443   0.672 -1.0896  1.3862 -0.8794
  988MOL0     H30402   9.290  10.376   0.514 -0.6823  1.2017 -1.6490
  988MOL0     H30403   9.487  10.268   0.586  0.2659 -0.7743 -3.8458
  988MOL0     H30404  10.122  10.408   0.492  0.4665 -0.2329  2.2149
  988MOL0     H30405  10.290  10.253   0.548  0.3631  2.1148  0.7330
  988MOL0     H30406  10.414  10.183   0.719 -0.7533  1.7490 -1.5072
  988MOL0     H30407  10.422  10.052   0.602 -3.1062 -1.1441  0.3144
  988MOL0     H30408  10.437  10.025   0.909 -1.3851  1.5559 -1.2634
  988MOL0     H30409  10.447   9.884   0.788 -0.7999  0.0416 -0.1848
  988MOL0     H30410  10.647   9.977   0.917 -4.0191 -1.4936  1.1780
  988MOL0     H30411  10.653  10.104   0.792 -1.3195  0.1216 -2.6224
  988MOL0     H30412  10.663   9.803   0.729 -0.0141  0.3041  0.6858
  988MOL0     H30413  10.648   9.932   0.618  2.5248  0.0945 -1.0422
  988MOL0     H30414  11.063   9.929   0.698  0.6810 -1.2635  1.9919
  988MOL0     H30415  10.009  10.005   0.758 -0.4276  1.3136  0.8803
  988MOL0     H30416   9.830  10.171   0.688 -0.4520  0.2304  0.4172
  989MOL0     O30417   0.885   5.199  11.169  0.3023 -0.3904 -0.1344
  989MOL0     C30418   0.934   5.300  11.214  0.4872  0.2417  0.3511
  989MOL0     O30419   0.880   5.385  11.303  0.3308  0.0916  0.4678
  989MOL0     C30420   0.765   5.354  11.354  0.5285 -0.4677  0.0061
  989MOL0     C30421   0.648   5.321  11.289  0.3878 -0.4376  0.7453
  989MOL0     C30422   0.527   5.287  11.356 -0.1639 -0.3353 -0.5448
  989MOL0     C30423   0.530   5.281  11.495  1.3824  0.1351  0.2153
  989MOL0     O30424   0.424   5.251  11.583  0.1247 -0.5849 -0.5268
  989MOL0     C30425   0.293   5.269  11.526  0.7746 -0.0778  0.5638
  989MOL0     C30426   0.212   5.322  11.646  0.1415 -0.4956  0.4247
  989MOL0     C30427   0.073   5.366  11.603 -0.4879  0.0715  0.2736
  989MOL0     C30428  -0.003   5.429  11.720 -0.3534  0.2772 -1.3793
  989MOL0     C30429  -0.133   5.486  11.674 -0.1395  0.3763  0.7771
  989MOL0     C30430  -0.211   5.560  11.784  0.1378  0.5370 -0.3227
  989MOL0     C30431  -0.336   5.635  11.741  1.0735  0.2218 -0.3276
  989MOL0     C30432  -0.407   5.682  11.868  0.1425 -0.5032 -0.3534
  989MOL0     N30433  -0.504   5.786  11.831 -0.3024  1.0748 -0.2551
  989MOL0     C30434  -0.624   5.750  11.774 -0.2915  0.2578 -0.5881
  989MOL0     C30435  -0.686   5.863  11.737 -0.7576  0.1640 -0.1377
  989MOL0     C30436  -0.810   5.861  11.653 -0.2405  0.0661 -0.7024
  989MOL0     C30437  -0.893   5.728  11.684  0.6752  0.8504 -0.4542
  989MOL0     C30438  -1.035   5.722  11.618  0.2133 -0.8324  1.4104
  989MOL0     C30439  -1.021   5.690  11.466  0.3064  0.5202  0.4813
  989MOL0     O30440  -0.972   5.799  11.383  0.3808  0.3158 -0.0070
  989MOL0     C30441  -1.065   5.904  11.368 -0.2785 -0.4838  0.4144
  989MOL0     C30442  -1.040   6.033  11.419 -0.6260  0.7375 -0.5480
  989MOL0     C30443  -1.133   6.140  11.386 -0.1906  0.6286 -0.5633
  989MOL0     C30444  -1.252   6.110  11.317 -0.6813 -0.3101  0.6665
  989MOL0     C30445  -1.353   6.218  11.311 -0.2012 -0.0827  0.2005
  989MOL0     O30446  -1.478   6.185  11.277  0.3149  0.5950  0.2188
  989MOL0     C30447  -1.583   6.275  11.271  0.5907 -0.0450 -0.0418
  989MOL0     C30448  -1.716   6.213  11.277 -0.4328  0.2054  0.3212
  989MOL0     C30449  -1.829   6.297  11.265  0.9797  0.3298  0.8256
  989MOL0     C30450  -1.827   6.437  11.246 -0.6391 -0.4363  0.3729
  989MOL0     O30451  -1.939   6.497  11.224  0.1796 -0.2647 -1.0817
  989MOL0     C30452  -1.935   6.631  11.173 -0.4552  0.0886  0.1963
  989MOL0     C30453  -1.930   6.728  11.292  0.4624 -0.0438 -0.1848
  989MOL0     C30454  -2.076   6.731  11.337 -0.0649 -0.4801 -0.2422
  989MOL0     C30455  -2.106   6.807  11.459  0.3536  0.2267 -0.0988
  989MOL0     C30456  -2.251   6.798  11.505 -0.9470 -0.0011  0.5318
  989MOL0     C30457  -2.275   6.887  11.626 -0.4075  0.6989  1.8114
  989MOL0     C30458  -2.428   6.865  11.652 -0.2549 -0.4758  0.6317
  989MOL0     C30459  -2.499   6.974  11.730  0.8695 -1.1172 -0.4611
  989MOL0    Cl30460  -2.671   6.944  11.722 -0.1840  0.1799 -0.6384
  989MOL0     C30461  -1.692   6.495  11.241 -0.2919  0.6438 -0.0127
  989MOL0     C30462  -1.573   6.415  11.255 -0.2265  0.4499  0.5441
  989MOL0     O30463  -1.315   6.332  11.349 -0.2447 -0.2777  0.5776
  989MOL0     C30464  -1.284   5.973  11.282 -0.4724 -0.3386 -0.4622
  989MOL0     C30465  -1.189   5.873  11.305 -0.2619  0.1620 -0.7478
  989MOL0     N30466  -0.615   5.966  11.792 -1.0956  1.2521 -0.4370
  989MOL0     N30467  -0.499   5.922  11.836  0.3718  0.0047 -0.7667
  989MOL0     C30468   0.647   5.312  11.565  0.3251 -0.0828  0.1328
  989MOL0     C30469   0.769   5.349  11.497  0.8459 -0.0606  0.0585
  989MOL0     C30470   1.068   5.318  11.178  0.0248  0.8993  0.2701
  989MOL0     C30471   1.135   5.431  11.225  0.4087 -1.3465  0.5106
  989MOL0     C30472   1.271   5.445  11.205 -0.1111 -0.3036  0.3679
  989MOL0     C30473   1.336   5.339  11.146  0.4578 -0.2464  0.6303
  989MOL0     O30474   1.465   5.370  11.129  0.4774 -0.9299 -0.3567
  989MOL0     C30475   1.565   5.276  11.167  0.0020  0.8245 -0.1243
  989MOL0     C30476   1.622   5.292  11.306 -0.1726 -0.4852 -0.3052
  989MOL0     C30477   1.760   5.212  11.314  0.4976  0.3254  0.2685
  989MOL0     C30478   1.827   5.261  11.448 -0.8109 -0.1050  1.3974
  989MOL0     C30479   1.952   5.180  11.456  0.5757 -0.1778  0.6009
  989MOL0     C30480   2.052   5.109  11.453  0.0620 -0.2831 -0.1604
  989MOL0     C30481   1.271   5.232  11.080 -0.6212 -0.4040 -0.0152
  989MOL0     C30482   1.134   5.228  11.099 -0.3556 -0.4414  0.3841
  989MOL0     H30483   0.639   5.303  11.183  1.1270 -0.7244  0.7313
  989MOL0     H30484   0.438   5.254  11.303 -0.9735  0.3920  0.3272
  989MOL0     H30485   0.253   5.173  11.495  1.6347 -0.3393  0.2402
  989MOL0     H30486   0.292   5.343  11.445 -0.4069 -2.9521 -2.2238
  989MOL0     H30487   0.276   5.403  11.682  0.9355  0.0038 -1.8970
  989MOL0     H30488   0.208   5.248  11.726  0.2593  0.5080  1.3808
  989MOL0     H30489   0.020   5.279  11.562  3.1576 -1.5044 -1.5770
  989MOL0     H30490   0.077   5.440  11.522 -0.3188 -0.5104 -0.2659
  989MOL0     H30491  -0.017   5.352  11.797  0.0694  0.3862 -1.1870
  989MOL0     H30492   0.053   5.507  11.772 -1.3749 -1.0389  1.9485
  989MOL0     H30493  -0.191   5.406  11.626 -3.7212  0.6213  4.2347
  989MOL0     H30494  -0.102   5.565  11.605 -0.2298  1.7804  2.2881
  989MOL0     H30495  -0.140   5.626  11.834  1.1972 -1.1933  0.5755
  989MOL0     H30496  -0.252   5.482  11.850 -4.2191  0.3744 -2.8586
  989MOL0     H30497  -0.310   5.715  11.671  0.9620  1.2888  0.8213
  989MOL0     H30498  -0.403   5.572  11.683 -1.0403  0.2606  1.9119
  989MOL0     H30499  -0.329   5.726  11.931  0.8728  1.5170 -2.5020
  989MOL0     H30500  -0.460   5.604  11.923  0.0958  0.2845  0.7441
  989MOL0     H30501  -0.655   5.649  11.748  2.0527  0.0067 -2.8318
  989MOL0     H30502  -0.781   5.862  11.548 -1.3568 -1.4133 -1.0732
  989MOL0     H30503  -0.874   5.947  11.677 -2.5366 -1.5639 -0.5719
  989MOL0     H30504  -0.908   5.712  11.792 -3.9479  1.0178 -0.9062
  989MOL0     H30505  -0.840   5.640  11.644  0.3821  0.1797  0.5803
  989MOL0     H30506  -1.092   5.641  11.663  1.4837 -3.1062 -0.7892
  989MOL0     H30507  -1.088   5.817  11.627 -0.7501 -0.5343 -4.0208
  989MOL0     H30508  -1.119   5.656  11.430  1.4054  0.3263 -2.5722
  989MOL0     H30509  -0.948   5.612  11.445 -0.1010  0.8740 -2.7514
  989MOL0     H30510  -0.955   6.067  11.478 -2.4330  0.4063  2.4535
  989MOL0     H30511  -1.111   6.246  11.391 -0.6551  0.7912 -1.6001
  989MOL0     H30512  -1.746   6.111  11.302 -4.1883  0.7273 -1.3439
  989MOL0     H30513  -1.930   6.257  11.276  0.2693  1.4491 -1.1926
  989MOL0     H30514  -2.018   6.642  11.103 -0.1865 -0.5335 -0.2269
  989MOL0     H30515  -1.842   6.641  11.116  0.0341  0.6041  1.0502
  989MOL0     H30516  -1.909   6.831  11.260  0.3100 -0.0042 -0.1578
  989MOL0     H30517  -1.864   6.701  11.375 -1.4746  1.1622  1.8593
  989MOL0     H30518  -2.109   6.630  11.359  0.6122 -0.6232  0.1527
  989MOL0     H30519  -2.132   6.771  11.251  0.3063  1.5293  0.3829
  989MOL0     H30520  -2.035   6.795  11.541  1.3951  0.8303 -0.8965
  989MOL0     H30521  -2.086   6.911  11.433  0.8432 -0.1769 -1.4181
  989MOL0     H30522  -2.263   6.690  11.518  2.4812 -0.6020 -0.1637
  989MOL0     H30523  -2.321   6.828  11.427  0.9182  1.6739 -0.5953
  989MOL0     H30524  -2.253   6.993  11.609 -1.0145  0.6256  0.4365
  989MOL0     H30525  -2.213   6.858  11.712 -0.6553 -0.2670  1.6796
  989MOL0     H30526  -2.481   6.848  11.558  1.8071 -1.5680 -0.4077
  989MOL0     H30527  -2.435   6.773  11.710 -4.8709 -1.0549 -0.5198
  989MOL0     H30528  -2.479   7.075  11.695 -1.0767 -0.3990  0.3320
  989MOL0     H30529  -2.467   6.975  11.835  0.2037  1.4965 -0.2159
  989MOL0     H30530  -1.681   6.601  11.224 -1.1905  0.7910  0.2897
  989MOL0     H30531  -1.475   6.456  11.236 -0.1126 -0.8059 -2.0582
  989MOL0     H30532  -1.382   5.947  11.243 -0.8667  1.7301 -0.9743
  989MOL0     H30533  -1.210   5.768  11.286 -0.7260 -0.4714  2.5946
  989MOL0     H30534   0.642   5.300  11.673 -3.5473 -1.4870 -0.0321
  989MOL0     H30535   0.861   5.362  11.553 -0.1612 -1.0321  2.0237
  989MOL0     H30536   1.076   5.512  11.265  3.1231  1.2599 -0.4094
  989MOL0     H30537   1.317   5.535  11.243 -0.9281  0.2364  0.1028
  989MOL0     H30538   1.643   5.275  11.091 -0.3374 -0.1272 -0.4755
  989MOL0     H30539   1.517   5.178  11.175  1.7946  0.0460  2.7979
  989MOL0     H30540   1.640   5.397  11.327 -0.9043 -0.1723 -1.1578
  989MOL0     H30541   1.551   5.256  11.381 -0.2624 -0.6211 -0.4534
  989MOL0     H30542   1.837   5.205  11.236  0.8614  0.6336  0.5988
  989MOL0     H30543   1.727   5.107  11.315 -1.7327  0.9159  3.3034
  989MOL0     H30544   1.858   5.366  11.445  2.1782 -0.8521  2.6221
  989MOL0     H30545   1.770   5.237  11.539  1.1806 -5.6692  1.5438
  989MOL0     H30546   2.149   5.064  11.458  1.0634  1.8217  0.5397
  989MOL0     H30547   1.332   5.155  11.032  0.1215  0.5338 -0.6146
  989MOL0     H30548   1.082   5.142  11.060 -0.3185  0.1179 -0.9564
  990MOL0     O30549   4.382  10.862   2.403 -0.8653 -0.0303  0.4479
  990MOL0     C30550   4.357  10.771   2.485  0.2864 -0.3743 -0.2189
  990MOL0     O30551   4.239  10.695   2.484  0.2801 -0.5776 -0.0461
  990MOL0     C30552   4.132  10.735   2.409  0.1666 -1.0493 -0.5124
  990MOL0     C30553   4.062  10.642   2.338  0.2891 -0.6852 -0.6758
  990MOL0     C30554   3.948  10.682   2.262 -0.3507 -0.5185 -0.5892
  990MOL0     C30555   3.913  10.820   2.239 -0.3839  0.0274 -1.3100
  990MOL0     O30556   3.817  10.864   2.162 -0.1496 -0.2696  0.2419
  990MOL0     C30557   3.689  10.831   2.208  0.0371  0.4302 -0.0719
  990MOL0     C30558   3.586  10.848   2.097 -0.3001 -0.3556 -1.0341
  990MOL0     C30559   3.591  10.726   2.001 -1.1607 -0.3345  0.9272
  990MOL0     C30560   3.476  10.747   1.902 -0.0816  0.1428  1.2337
  990MOL0     C30561   3.434  10.612   1.842 -0.3152  0.2894  0.2373
  990MOL0     C30562   3.325  10.624   1.733  0.6991 -0.6907  0.1788
  990MOL0     C30563   3.268  10.490   1.673 -1.0828 -0.5915 -0.6702
  990MOL0     C30564   3.176  10.523   1.560 -0.3143 -0.7356 -0.4855
  990MOL0     N30565   3.113  10.410   1.491 -0.1038  0.5298 -1.0614
  990MOL0     C30566   2.979  10.381   1.492 -0.7676  0.2218  0.1734
  990MOL0     C30567   2.967  10.275   1.400 -0.0656 -0.0457 -0.2757
  990MOL0     C30568   2.831  10.211   1.377 -0.9325  0.5169 -0.4784
  990MOL0     C30569   2.828  10.089   1.470  0.2441  0.4772 -0.4599
  990MOL0     C30570   2.741   9.974   1.411 -0.4669 -1.0266 -0.2472
  990MOL0     C30571   2.707   9.853   1.512  0.2968 -1.3196 -0.1932
  990MOL0     O30572   2.681   9.921   1.638  0.6431 -0.1238 -0.2679
  990MOL0     C30573   2.547   9.930   1.681  0.0679 -0.0652 -0.8807
  990MOL0     C30574   2.523   9.973   1.812  0.8331 -0.0055 -0.3264
  990MOL0     C30575   2.389   9.983   1.853 -0.0049  1.1124 -0.0442
  990MOL0     C30576   2.277   9.981   1.772  0.2122  0.0835  0.1789
  990MOL0     C30577   2.141   9.980   1.816 -0.5166  0.0378 -0.5559
  990MOL0     O30578   2.050  10.038   1.739 -0.0389  0.4859 -0.9472
  990MOL0     C30579   1.934  10.067   1.802 -0.1452  0.4851  0.0134
  990MOL0     C30580   1.826   9.981   1.782  0.2817 -0.3475 -0.0260
  990MOL0     C30581   1.703   9.987   1.849  0.2079 -0.7591 -0.5828
  990MOL0     C30582   1.686  10.082   1.951  0.0754  0.2735 -0.3072
  990MOL0     O30583   1.575  10.099   2.030 -0.2346  0.0803  0.5022
  990MOL0     C30584   1.452  10.053   1.972  0.5591 -0.1018  0.4566
  990MOL0     C30585   1.342  10.126   2.043  0.0589  0.3248  0.0383
  990MOL0     C30586   1.193  10.084   2.016  0.5458 -0.3885  0.5245
  990MOL0     C30587   1.086  10.110   2.117  0.3159  0.1091  0.4729
  990MOL0     C30588   1.026  10.252   2.095  0.2209  0.2571 -0.6688
  990MOL0     C30589   0.934  10.309   2.203  1.0334 -0.1968  0.0030
  990MOL0     C30590   0.788  10.248   2.199  0.0598 -0.6333 -0.0229
  990MOL0     C30591   0.684  10.354   2.234  0.1809 -0.0173  0.3339
  990MOL0    Cl30592   0.521  10.289   2.225 -0.2253  0.2686 -0.3726
  990MOL0     C30593   1.796  10.165   1.983  0.5795  0.1678  0.6523
  990MOL0     C30594   1.907  10.166   1.905 -0.3001 -0.5509 -0.0437
  990MOL0     O30595   2.121   9.941   1.928  0.3630 -0.5189  0.5706
  990MOL0     C30596   2.306   9.944   1.638 -0.6305 -0.2886 -0.0134
  990MOL0     C30597   2.440   9.920   1.594 -0.8358 -0.4243 -0.8635
  990MOL0     N30598   3.086  10.260   1.344 -0.1115 -0.2490 -0.6069
  990MOL0     N30599   3.174  10.335   1.395 -0.1015 -0.5391  0.7656
  990MOL0     C30600   3.992  10.909   2.312  0.3055 -0.4144  0.8560
  990MOL0     C30601   4.100  10.872   2.397  0.0011  0.0700  0.1526
  990MOL0     C30602   4.445  10.747   2.591 -0.3831 -0.4146 -0.4953
  990MOL0     C30603   4.582  10.778   2.596  0.0402  0.2536  0.1253
  990MOL0     C30604   4.665  10.736   2.702 -0.4823  0.0661  0.2569
  990MOL0     C30605   4.615  10.674   2.814 -1.7345 -0.1409 -0.4551
  990MOL0     O30606   4.706  10.638   2.908 -0.0818  0.1316  0.4004
  990MOL0     C30607   4.682  10.575   3.032 -0.4057  0.3656 -0.2983
  990MOL0     C30608   4.712  10.680   3.142 -0.8870 -0.4021  0.3835
  990MOL0     C30609   4.650  10.631   3.277 -0.3025 -0.3767  0.5889
  990MOL0     C30610   4.692  10.702   3.413 -0.2771 -0.1427  0.4531
  990MOL0     C30611   4.571  10.713   3.503  0.1243  0.3502  0.4482
  990MOL0     C30612   4.471  10.702   3.570  0.2452 -0.1497 -0.6028
  990MOL0     C30613   4.481  10.651   2.818 -0.5204  0.2935  0.3548
  990MOL0     C30614   4.398  10.680   2.714 -0.0395  0.5418 -0.0648
  990MOL0     H30615   4.095  10.539   2.347  2.9572  0.2757  1.8428
  990MOL0     H30616   3.894  10.607   2.204  2.0560 -1.1931 -2.1214
  990MOL0     H30617   3.656  10.890   2.294  0.5450 -1.2681  1.3478
  990MOL0     H30618   3.671  10.729   2.245 -0.3894  0.0943 -1.1733
  990MOL0     H30619   3.600  10.941   2.041  0.2984 -0.4666 -1.0773
  990MOL0     H30620   3.485  10.850   2.138 -0.1074  4.4541 -0.1833
  990MOL0     H30621   3.582  10.630   2.053 -0.9415  1.1344  3.8854
  990MOL0     H30622   3.691  10.724   1.957 -2.0571 -2.6243 -1.2665
  990MOL0     H30623   3.392  10.798   1.950 -0.6736  2.4002 -1.9512
  990MOL0     H30624   3.506  10.818   1.825  0.4946  1.2552  2.4368
  990MOL0     H30625   3.398  10.537   1.914  1.9146 -0.6332  0.4632
  990MOL0     H30626   3.520  10.565   1.792 -2.6259 -1.5291 -2.3508
  990MOL0     H30627   3.362  10.688   1.653 -2.1024 -0.8221 -1.3350
  990MOL0     H30628   3.247  10.689   1.773 -0.4515 -0.4872 -2.1969
  990MOL0     H30629   3.357  10.435   1.638 -0.0074  1.9872 -2.2885
  990MOL0     H30630   3.211  10.439   1.752 -0.4980 -0.1244  0.0690
  990MOL0     H30631   3.229  10.584   1.487 -0.4011  0.1069  0.1427
  990MOL0     H30632   3.106  10.595   1.603  1.8701  0.3727  1.4671
  990MOL0     H30633   2.901  10.417   1.558 -1.9452  1.0302 -1.5814
  990MOL0     H30634   2.813  10.177   1.275 -3.2274 -2.6746  0.8284
  990MOL0     H30635   2.746  10.277   1.398  0.1974  1.7349  0.5113
  990MOL0     H30636   2.787  10.113   1.569  1.7772 -0.6402  0.5018
  990MOL0     H30637   2.931  10.061   1.495  0.5743  3.2943  1.8496
  990MOL0     H30638   2.644  10.014   1.378 -0.5532 -1.0051  0.0272
  990MOL0     H30639   2.771   9.933   1.314  1.0045  0.0521 -0.2695
  990MOL0     H30640   2.787   9.778   1.514 -1.9395 -3.9149 -1.3298
  990MOL0     H30641   2.628   9.793   1.466 -0.9491  0.0381  0.1232
  990MOL0     H30642   2.602   9.989   1.885 -0.9584  2.9251  1.1856
  990MOL0     H30643   2.372   9.986   1.961 -1.7218 -0.2283 -0.2278
  990MOL0     H30644   1.838   9.910   1.701 -0.3413 -2.1252  1.3831
  990MOL0     H30645   1.620   9.926   1.814 -0.4644 -0.3516  0.2761
  990MOL0     H30646   1.440   9.945   1.988  2.1360 -0.4015 -0.1677
  990MOL0     H30647   1.445  10.068   1.863 -0.4327  0.3123  0.5685
  990MOL0     H30648   1.346  10.235   2.029  0.1888  0.1861 -1.0219
  990MOL0     H30649   1.364  10.098   2.147  0.2705  1.9516  0.4643
  990MOL0     H30650   1.190   9.980   1.985 -2.3783  0.3298 -2.1095
  990MOL0     H30651   1.164  10.141   1.927  3.1091 -0.4307 -0.4328
  990MOL0     H30652   1.010  10.032   2.105 -1.0414  0.5897  4.3889
  990MOL0     H30653   1.122  10.100   2.221  1.0673 -0.2937  0.1836
  990MOL0     H30654   0.973  10.247   2.000 -0.2521 -1.0124 -0.3602
  990MOL0     H30655   1.114  10.317   2.099 -0.3439  1.0150 -0.5303
  990MOL0     H30656   0.925  10.417   2.187  0.8050  0.1440  2.1635
  990MOL0     H30657   0.964  10.297   2.308 -0.0700  2.4900  0.7145
  990MOL0     H30658   0.778  10.226   2.093 -1.1865 -0.6878  0.0844
  990MOL0     H30659   0.781  10.155   2.257  1.0704 -1.1064 -0.6394
  990MOL0     H30660   0.695  10.430   2.156  2.0459  1.1039  1.6110
  990MOL0     H30661   0.695  10.412   2.326 -0.0374  1.1815 -0.3683
  990MOL0     H30662   1.779  10.244   2.055 -3.0112  0.0250  0.1440
  990MOL0     H30663   1.972  10.245   1.941 -0.1734 -0.0564 -1.3237
  990MOL0     H30664   2.227   9.937   1.564 -0.8607  0.7253  0.1263
  990MOL0     H30665   2.461   9.898   1.490  1.2773 -3.7332  0.0943
  990MOL0     H30666   3.965  11.014   2.306  3.3827  0.4890  0.7813
  990MOL0     H30667   4.165  10.937   2.454  1.6168 -1.6166  0.3192
  990MOL0     H30668   4.617  10.817   2.501 -0.3558  3.8925  1.3326
  990MOL0     H30669   4.772  10.746   2.711 -0.4955  0.2861  0.1738
  990MOL0     H30670   4.740  10.482   3.036 -1.3879 -0.5111 -3.5112
  990MOL0     H30671   4.577  10.545   3.028 -0.2400 -0.1477 -0.8038
  990MOL0     H30672   4.820  10.681   3.159 -1.1524  0.2751  2.2139
  990MOL0     H30673   4.672  10.778   3.114 -0.1994 -1.0376 -3.2836
  990MOL0     H30674   4.692  10.532   3.299  2.3184 -0.6012 -4.0896
  990MOL0     H30675   4.541  10.624   3.269 -0.3227  0.4412  0.0663
  990MOL0     H30676   4.778  10.662   3.467  0.6648  1.5054  0.2389
  990MOL0     H30677   4.732  10.802   3.394  0.4864 -0.4330  0.4898
  990MOL0     H30678   4.379  10.713   3.623  0.4266  2.0352 -0.6194
  990MOL0     H30679   4.441  10.615   2.912  0.0902  2.6641  1.6185
  990MOL0     H30680   4.298  10.641   2.732  0.3188  0.1062  1.0217
  991MOL0     O30681   1.586   0.692   8.941  0.0915 -0.6040 -0.0316
  991MOL0     C30682   1.707   0.683   8.910  0.1207 -0.1232 -0.4547
  991MOL0     O30683   1.759   0.661   8.776  0.4879  0.6939  0.1399
  991MOL0     C30684   1.672   0.654   8.669 -0.0640 -0.4568 -0.3002
  991MOL0     C30685   1.711   0.722   8.559 -0.1571 -1.1792 -0.7166
  991MOL0     C30686   1.622   0.742   8.454 -0.8425  0.2608  0.0387
  991MOL0     C30687   1.495   0.685   8.458  0.1228  0.5714  0.1290
  991MOL0     O30688   1.414   0.710   8.358  1.0192 -0.4110  0.5029
  991MOL0     C30689   1.408   0.617   8.244  0.4844 -0.6409 -0.3497
  991MOL0     C30690   1.330   0.675   8.125 -0.0901 -0.9512 -0.1451
  991MOL0     C30691   1.180   0.699   8.146  0.2200 -0.0365 -0.4778
  991MOL0     C30692   1.113   0.728   8.021 -0.0914  0.1899  0.0214
  991MOL0     C30693   0.978   0.786   8.056  0.1289 -0.5321  0.1092
  991MOL0     C30694   0.877   0.743   7.956  0.6971 -0.2102  0.4276
  991MOL0     C30695   0.736   0.801   7.982 -0.4724 -1.3085 -0.4469
  991MOL0     C30696   0.648   0.800   7.861 -0.0178  0.2181  0.4447
  991MOL0     N30697   0.515   0.763   7.905  0.0795  0.7115  0.6047
  991MOL0     C30698   0.424   0.845   7.973 -0.3122 -0.3986  0.0034
  991MOL0     C30699   0.324   0.761   8.008  1.2010 -0.0202  0.0400
  991MOL0     C30700   0.211   0.787   8.106 -0.9367  0.3336  0.4608
  991MOL0     C30701   0.165   0.935   8.114 -0.0348  0.1256 -0.8715
  991MOL0     C30702   0.084   0.959   8.245 -0.2724  0.4031  0.1994
  991MOL0     C30703   0.024   1.103   8.247  1.2931  0.4923 -0.4124
  991MOL0     O30704  -0.025   1.116   8.380 -0.2032 -0.9693 -0.2544
  991MOL0     C30705   0.062   1.144   8.480  0.6254 -0.0563 -0.3922
  991MOL0     C30706   0.012   1.123   8.604 -0.6081  0.8127  0.3531
  991MOL0     C30707   0.083   1.139   8.726 -0.0964  0.3452 -0.0282
  991MOL0     C30708   0.213   1.183   8.723 -0.0504  0.6430  0.0981
  991MOL0     C30709   0.288   1.187   8.850 -0.7548  0.7759  0.1504
  991MOL0     O30710   0.212   1.179   8.968 -0.2079 -0.3613  0.6428
  991MOL0     C30711   0.269   1.155   9.090 -0.2184  0.7930  0.1887
  991MOL0     C30712   0.338   1.031   9.114  0.1651 -0.3160 -0.5851
  991MOL0     C30713   0.395   0.998   9.232 -0.1773 -0.4721 -1.4945
  991MOL0     C30714   0.391   1.093   9.339  0.8930  0.4521 -0.6464
  991MOL0     O30715   0.412   1.068   9.467 -0.2169  0.3189  0.5412
  991MOL0     C30716   0.462   0.938   9.499  1.5117 -0.0250 -0.6163
  991MOL0     C30717   0.532   0.927   9.632  0.6225 -0.2171  0.4236
  991MOL0     C30718   0.672   0.996   9.624 -0.1708 -0.2701 -0.7447
  991MOL0     C30719   0.784   0.938   9.527  0.7691  0.6618 -0.4247
  991MOL0     C30720   0.926   1.000   9.565  0.6304  0.3586 -0.0237
  991MOL0     C30721   0.959   1.127   9.487 -0.5227  0.6600  0.4844
  991MOL0     C30722   1.068   1.208   9.554 -0.4210 -0.7323 -0.2689
  991MOL0     C30723   1.094   1.333   9.470 -0.3755  0.1692 -0.4867
  991MOL0    Cl30724   1.181   1.295   9.328  0.1085  0.4874 -0.1802
  991MOL0     C30725   0.312   1.209   9.322 -0.4974  0.1411 -0.4761
  991MOL0     C30726   0.251   1.238   9.198  0.2082 -0.4812 -0.2275
  991MOL0     O30727   0.410   1.180   8.845  0.1435  0.7008 -0.0415
  991MOL0     C30728   0.266   1.206   8.596  0.2996  0.0523  0.3599
  991MOL0     C30729   0.199   1.187   8.477  1.0689  0.2611 -0.2487
  991MOL0     N30730   0.343   0.633   7.943  1.0640 -0.8718 -0.7416
  991MOL0     N30731   0.463   0.635   7.895 -0.2409 -0.1677 -0.0774
  991MOL0     C30732   1.459   0.605   8.560 -0.1933  0.2181  0.1748
  991MOL0     C30733   1.550   0.584   8.667 -0.0034 -0.1122  0.5349
  991MOL0     C30734   1.797   0.684   9.033  0.3491  0.0089  0.5477
  991MOL0     C30735   1.751   0.673   9.168  0.1760 -0.7437  1.0685
  991MOL0     C30736   1.843   0.659   9.277  0.6032  0.1422  1.0133
  991MOL0     C30737   1.978   0.669   9.254 -1.6069 -0.2256  0.2957
  991MOL0     O30738   2.076   0.627   9.347 -0.4672 -0.4034  0.2110
  991MOL0     C30739   2.024   0.605   9.483 -0.1431  0.2702  0.3881
  991MOL0     C30740   1.991   0.741   9.557  0.6919 -0.0862  0.1990
  991MOL0     C30741   1.936   0.708   9.701  0.4137  0.3889 -0.9317
  991MOL0     C30742   1.836   0.813   9.761  0.3428  0.2715 -1.1325
  991MOL0     C30743   1.794   0.756   9.895  0.3191 -0.0134 -0.3816
  991MOL0     C30744   1.753   0.717  10.005 -0.2921 -0.3517 -0.3365
  991MOL0     C30745   2.023   0.693   9.128  1.3323 -0.5200 -0.4980
  991MOL0     C30746   1.939   0.693   9.019  0.7059 -0.1965  0.2969
  991MOL0     H30747   1.807   0.771   8.558 -1.6399  1.9430 -0.5986
  991MOL0     H30748   1.642   0.804   8.367 -1.0587 -0.0042 -0.2048
  991MOL0     H30749   1.366   0.521   8.277  2.0211 -0.7416  1.5068
  991MOL0     H30750   1.514   0.605   8.222  0.2419 -1.4078 -1.1527
  991MOL0     H30751   1.354   0.615   8.036 -0.4085  0.7586 -1.4480
  991MOL0     H30752   1.384   0.767   8.101  2.2827 -2.6054 -1.5303
  991MOL0     H30753   1.175   0.787   8.211  0.5778 -1.6944  1.8908
  991MOL0     H30754   1.136   0.611   8.194  3.7639 -1.0929  1.1026
  991MOL0     H30755   1.167   0.804   7.963  1.9229 -1.8432 -0.9249
  991MOL0     H30756   1.107   0.647   7.948 -2.4744  0.7713 -0.5260
  991MOL0     H30757   0.993   0.893   8.035 -3.6727 -0.5120 -3.9374
  991MOL0     H30758   0.933   0.775   8.155 -1.6775 -2.1655 -0.8292
  991MOL0     H30759   0.877   0.633   7.961 -0.7333 -0.2860 -0.4967
  991MOL0     H30760   0.912   0.761   7.854  1.1727 -0.1897  0.5939
  991MOL0     H30761   0.693   0.728   8.051  0.5249 -2.6348 -1.2047
  991MOL0     H30762   0.730   0.902   8.024  0.6172 -2.0630  1.6339
  991MOL0     H30763   0.682   0.730   7.783  1.3697  0.5615  0.7027
  991MOL0     H30764   0.646   0.903   7.825  2.0152  0.2013  0.1249
  991MOL0     H30765   0.445   0.946   8.008  0.0170 -0.7875  0.9536
  991MOL0     H30766   0.246   0.760   8.206  0.5810 -2.8279 -0.7716
  991MOL0     H30767   0.119   0.729   8.091  0.9402 -3.1052  1.2287
  991MOL0     H30768   0.099   0.958   8.029  0.4284  0.1526 -1.2318
  991MOL0     H30769   0.245   1.009   8.115 -1.6662  1.9844 -1.6864
  991MOL0     H30770   0.007   0.881   8.241 -1.2872  1.4311 -1.4883
  991MOL0     H30771   0.141   0.948   8.338 -0.3963  3.0007  0.6516
  991MOL0     H30772  -0.058   1.107   8.174  1.4964  1.5178 -0.5860
  991MOL0     H30773   0.092   1.186   8.226 -0.8968  2.2000 -1.1154
  991MOL0     H30774  -0.092   1.096   8.615 -0.5594  0.6117  0.3118
  991MOL0     H30775   0.029   1.122   8.819  0.7902 -0.6806  0.3255
  991MOL0     H30776   0.349   0.953   9.039  2.3237  0.5419 -1.2254
  991MOL0     H30777   0.442   0.901   9.235  0.7977 -0.0449  2.9777
  991MOL0     H30778   0.528   0.901   9.421  2.1677 -2.9750  1.1892
  991MOL0     H30779   0.376   0.870   9.505 -1.1861  3.1660  0.0073
  991MOL0     H30780   0.536   0.825   9.672 -3.4002  0.6652  3.7676
  991MOL0     H30781   0.477   0.996   9.697 -1.0735  0.0461 -1.2026
  991MOL0     H30782   0.705   0.999   9.728 -0.2709  1.2566 -0.7343
  991MOL0     H30783   0.652   1.102   9.605  1.4373 -0.0576 -1.3983
  991MOL0     H30784   0.774   0.829   9.534 -0.6575  0.7786 -0.3048
  991MOL0     H30785   0.766   0.966   9.423  1.2479 -0.8134 -0.9325
  991MOL0     H30786   1.009   0.931   9.546 -1.4686 -2.0395 -1.0511
  991MOL0     H30787   0.932   1.010   9.673 -0.0392 -4.5702  0.7069
  991MOL0     H30788   0.870   1.192   9.491 -1.0322 -0.0592  0.9533
  991MOL0     H30789   0.990   1.113   9.383  0.1400 -0.9287  0.8818
  991MOL0     H30790   1.028   1.231   9.653 -2.6177 -0.3205 -1.2040
  991MOL0     H30791   1.164   1.155   9.549  0.0342  0.1635 -1.2477
  991MOL0     H30792   1.148   1.409   9.527 -1.6551 -0.4956  1.7634
  991MOL0     H30793   1.000   1.382   9.444 -2.1875 -1.7046  2.0157
  991MOL0     H30794   0.297   1.266   9.413 -0.8524  0.0642 -0.4876
  991MOL0     H30795   0.189   1.324   9.175  0.9249 -0.3928 -2.0003
  991MOL0     H30796   0.370   1.231   8.581 -0.0937  1.5873 -0.0197
  991MOL0     H30797   0.254   1.208   8.385  0.2164  0.3150 -0.7572
  991MOL0     H30798   1.363   0.554   8.566 -0.6669  1.1923  2.0183
  991MOL0     H30799   1.521   0.516   8.746 -0.8849 -0.0720  0.2575
  991MOL0     H30800   1.646   0.656   9.192 -0.7254 -0.6630 -2.2249
  991MOL0     H30801   1.792   0.648   9.372  0.4038  0.3572  0.9325
  991MOL0     H30802   2.098   0.552   9.543 -0.9500 -1.4307 -0.0491
  991MOL0     H30803   1.945   0.531   9.473  1.0951 -0.9225 -1.0539
  991MOL0     H30804   2.072   0.814   9.556  0.1633  0.5076  0.2256
  991MOL0     H30805   1.904   0.780   9.503  0.1411 -1.7151 -0.1790
  991MOL0     H30806   2.017   0.712   9.775 -0.7727 -0.0669  0.4435
  991MOL0     H30807   1.887   0.610   9.702  2.8399 -0.8904 -0.6120
  991MOL0     H30808   1.887   0.909   9.776 -1.5454  1.1888 -0.1439
  991MOL0     H30809   1.754   0.841   9.694  0.6904 -0.8842 -2.0653
  991MOL0     H30810   1.739   0.679  10.105 -0.7305  1.3648  0.2912
  991MOL0     H30811   2.129   0.705   9.107  1.2893 -1.4767 -1.3019
  991MOL0     H30812   1.986   0.690   8.921 -0.7710 -1.3168 -0.4236
  992MOL0     O30813  10.060   8.980   4.533 -0.5380  0.1421  0.9710
  992MOL0     C30814  10.135   9.031   4.458  0.3408  0.6094 -0.3141
  992MOL0     O30815  10.106   9.145   4.374  0.0398  0.2748 -0.3203
  992MOL0     C30816   9.983   9.200   4.369  0.2160 -0.1614 -0.8187
  992MOL0     C30817   9.965   9.257   4.243  0.1980  0.1975  0.0994
  992MOL0     C30818   9.859   9.346   4.224  0.7113 -0.2177 -0.0945
  992MOL0     C30819   9.766   9.357   4.334 -0.5055 -0.6092  0.5037
  992MOL0     O30820   9.648   9.429   4.324  0.0947  0.1747 -1.0530
  992MOL0     C30821   9.619   9.486   4.198  0.4542  0.6485 -0.2732
  992MOL0     C30822   9.500   9.592   4.229  0.0021 -0.2804 -0.3111
  992MOL0     C30823   9.396   9.586   4.115  0.7198 -0.6458  0.8186
  992MOL0     C30824   9.271   9.676   4.145 -0.0509 -0.1558 -1.0953
  992MOL0     C30825   9.190   9.685   4.015  0.6671 -0.8914  0.0265
  992MOL0     C30826   9.108   9.566   3.960  0.1602  1.0384  0.2507
  992MOL0     C30827   9.015   9.511   4.066 -0.1407 -0.3027 -0.4859
  992MOL0     C30828   8.910   9.429   4.009  0.1713  0.6522 -0.2228
  992MOL0     N30829   8.824   9.497   3.927  0.2230 -0.1685  0.1504
  992MOL0     C30830   8.768   9.438   3.820  0.0442 -0.5930 -0.0734
  992MOL0     C30831   8.686   9.533   3.769 -0.4443  0.5091  0.1277
  992MOL0     C30832   8.606   9.536   3.651  0.3230  0.8526  0.2731
  992MOL0     C30833   8.518   9.416   3.626  0.2983  1.0944 -0.1440
  992MOL0     C30834   8.433   9.431   3.499 -1.0038 -0.2224 -0.0155
  992MOL0     C30835   8.357   9.297   3.484  0.4083 -0.0825  0.6509
  992MOL0     O30836   8.249   9.325   3.392 -0.3023  0.8569  0.8443
  992MOL0     C30837   8.138   9.240   3.369 -0.8222  0.3677 -0.5373
  992MOL0     C30838   8.105   9.134   3.450 -0.5001  0.0951  0.4999
  992MOL0     C30839   7.988   9.068   3.432  0.8508 -0.1396  0.3645
  992MOL0     C30840   7.894   9.110   3.339 -0.7834  0.3729  0.6767
  992MOL0     C30841   7.758   9.055   3.327 -0.2287  0.5974 -0.0841
  992MOL0     O30842   7.667   9.140   3.283  0.4638 -0.6110  0.3656
  992MOL0     C30843   7.544   9.099   3.237  0.2169  0.2544  0.8187
  992MOL0     C30844   7.500   8.965   3.202 -0.0862 -0.0008 -1.2767
  992MOL0     C30845   7.366   8.943   3.149  0.9920 -0.5200  0.0086
  992MOL0     C30846   7.277   9.048   3.118 -0.8450 -0.3194  0.4120
  992MOL0     O30847   7.153   9.025   3.069 -0.2832  0.1152  0.7274
  992MOL0     C30848   7.094   8.899   3.045  0.5848  0.3113  0.2588
  992MOL0     C30849   6.959   8.924   2.992  0.3487 -0.0831  0.7186
  992MOL0     C30850   6.885   8.803   2.936  0.2622  0.1909  0.2765
  992MOL0     C30851   6.925   8.772   2.790 -0.2528  0.9975 -0.4408
  992MOL0     C30852   6.891   8.628   2.771  0.0504  0.5338  0.2127
  992MOL0     C30853   6.946   8.564   2.645  0.4408 -0.5597  0.4844
  992MOL0     C30854   6.899   8.424   2.647 -0.4934 -0.1934 -0.5647
  992MOL0     C30855   6.980   8.341   2.546 -0.1414  0.3635 -0.1292
  992MOL0    Cl30856   6.930   8.170   2.572 -0.2533  0.1512 -0.1114
  992MOL0     C30857   7.320   9.176   3.158  0.2724 -0.2097 -0.1686
  992MOL0     C30858   7.444   9.199   3.210 -0.9054  0.5969 -0.3434
  992MOL0     O30859   7.737   8.945   3.372 -0.1637 -0.3910  0.0799
  992MOL0     C30860   7.933   9.214   3.255 -0.9481 -0.3762 -0.3528
  992MOL0     C30861   8.059   9.277   3.268  0.3825 -0.0861  0.4133
  992MOL0     N30862   8.696   9.640   3.850  0.2825  0.3479  0.2267
  992MOL0     N30863   8.780   9.618   3.945  0.2737 -0.9872  0.2388
  992MOL0     C30864   9.780   9.293   4.455  0.4276  0.5601  0.2563
  992MOL0     C30865   9.893   9.219   4.475 -0.4826 -0.1546  0.2012
  992MOL0     C30866  10.276   8.977   4.451  0.2049  0.6488 -0.4731
  992MOL0     C30867  10.294   8.832   4.477  1.4501  0.3085 -0.4169
  992MOL0     C30868  10.421   8.770   4.466 -0.4512 -1.0457 -0.1352
  992MOL0     C30869  10.531   8.847   4.420  0.1431 -0.3698  0.3593
  992MOL0     O30870  10.648   8.787   4.390 -0.5709 -0.1450  0.8368
  992MOL0     C30871  10.763   8.868   4.402 -0.7666  0.5784 -0.0203
  992MOL0     C30872  10.880   8.773   4.399 -0.7076 -0.0556  0.5645
  992MOL0     C30873  11.012   8.831   4.337  0.0735  0.3630 -0.3027
  992MOL0     C30874  11.113   8.892   4.428  0.7450 -0.4553  0.0544
  992MOL0     C30875  11.228   8.911   4.349  0.1957  0.7307  0.4736
  992MOL0     C30876  11.327   8.928   4.281 -0.5642 -0.5337 -0.3967
  992MOL0     C30877  10.511   8.986   4.396 -0.1033  0.5965 -0.2693
  992MOL0     C30878  10.387   9.043   4.411  0.8905  0.2253 -0.6932
  992MOL0     H30879  10.039   9.240   4.166  0.6789  0.7839  0.4139
  992MOL0     H30880   9.845   9.388   4.125  3.3406 -0.6057 -0.7012
  992MOL0     H30881   9.590   9.411   4.124 -0.6163  1.3082 -0.5431
  992MOL0     H30882   9.707   9.535   4.153 -0.3389  0.0557 -2.6505
  992MOL0     H30883   9.534   9.696   4.238  0.2799 -0.4064  0.1284
  992MOL0     H30884   9.442   9.571   4.319 -2.8414  2.4150 -1.3507
  992MOL0     H30885   9.366   9.482   4.099  0.4335 -0.7458  1.8792
  992MOL0     H30886   9.447   9.625   4.026  1.3700  1.5480  2.0569
  992MOL0     H30887   9.208   9.644   4.229  0.1545  0.1279 -0.8295
  992MOL0     H30888   9.310   9.773   4.177  0.9582 -0.9943  0.4018
  992MOL0     H30889   9.256   9.718   3.934 -3.0236 -2.7886 -4.2057
  992MOL0     H30890   9.119   9.767   4.029 -0.4956 -1.5864 -1.4947
  992MOL0     H30891   9.181   9.493   3.926  2.5692  3.5334 -0.3146
  992MOL0     H30892   9.047   9.608   3.879 -1.6888 -2.0063 -0.0642
  992MOL0     H30893   9.070   9.452   4.139  0.3017 -3.1217 -2.9019
  992MOL0     H30894   8.969   9.601   4.110 -1.8228 -2.5224  2.7332
  992MOL0     H30895   8.857   9.363   4.079  2.3892 -1.1698 -0.1396
  992MOL0     H30896   8.961   9.359   3.943 -3.8515 -1.7252 -1.1734
  992MOL0     H30897   8.775   9.333   3.795  1.3423 -0.3574 -0.8098
  992MOL0     H30898   8.675   9.546   3.567  0.4675 -1.6658  0.0123
  992MOL0     H30899   8.543   9.625   3.655  0.1781  0.7965 -0.4880
  992MOL0     H30900   8.445   9.406   3.707 -1.0063  3.8502 -0.8422
  992MOL0     H30901   8.577   9.327   3.603 -0.5860  1.0919 -2.6949
  992MOL0     H30902   8.380   9.525   3.517  0.9039  0.7897  0.6336
  992MOL0     H30903   8.500   9.449   3.414 -0.4649  3.3120  0.9766
  992MOL0     H30904   8.316   9.265   3.580 -0.7156 -1.1758 -0.1409
  992MOL0     H30905   8.428   9.218   3.456 -1.6760 -1.6284 -0.6290
  992MOL0     H30906   8.173   9.111   3.531 -0.5408  2.2756  1.2354
  992MOL0     H30907   7.974   8.986   3.502 -0.5311 -1.6018 -1.4949
  992MOL0     H30908   7.568   8.881   3.213 -0.7523 -0.4738 -0.6450
  992MOL0     H30909   7.340   8.840   3.127  1.6490 -0.2822 -2.1170
  992MOL0     H30910   7.084   8.846   3.140  0.6528  0.2222  0.2167
  992MOL0     H30911   7.154   8.842   2.974  1.6102  2.1247 -0.3832
  992MOL0     H30912   6.970   8.988   2.904  0.3392 -2.1838 -0.8951
  992MOL0     H30913   6.904   8.979   3.068  1.1369  0.9438  0.5607
  992MOL0     H30914   6.778   8.821   2.925 -0.1898 -2.1007  0.5746
  992MOL0     H30915   6.891   8.721   3.007 -0.9283 -0.4574 -0.3455
  992MOL0     H30916   6.854   8.829   2.730 -0.2105  1.5943  0.0650
  992MOL0     H30917   7.029   8.786   2.757 -0.1072  0.6355 -0.1426
  992MOL0     H30918   6.782   8.617   2.765  0.2269 -1.1992 -0.6010
  992MOL0     H30919   6.927   8.565   2.853 -1.2231 -3.6146 -2.1486
  992MOL0     H30920   7.055   8.570   2.643  0.4160 -0.1153 -1.4543
  992MOL0     H30921   6.906   8.617   2.558 -1.5976  0.1855  1.7982
  992MOL0     H30922   6.916   8.390   2.750  1.8921  1.0119 -0.4821
  992MOL0     H30923   6.791   8.417   2.633 -0.6988 -4.4992  1.5420
  992MOL0     H30924   7.087   8.349   2.567  0.3983  0.8617 -2.7472
  992MOL0     H30925   6.972   8.362   2.439 -1.8491 -0.5508 -0.2145
  992MOL0     H30926   7.257   9.258   3.123 -1.0146 -0.5368  1.2514
  992MOL0     H30927   7.471   9.304   3.218  1.2501  0.0218  0.9382
  992MOL0     H30928   7.870   9.248   3.173  0.6922  0.0095 -1.4950
  992MOL0     H30929   8.078   9.372   3.219 -0.8335  1.2669  2.4006
  992MOL0     H30930   9.703   9.307   4.530 -0.4194 -0.1639 -0.4510
  992MOL0     H30931   9.911   9.175   4.573  5.2156 -0.7360 -0.7370
  992MOL0     H30932  10.208   8.774   4.511  1.6378  0.4090  0.2586
  992MOL0     H30933  10.425   8.664   4.487  0.3278 -1.0429 -0.2550
  992MOL0     H30934  10.766   8.923   4.496  1.2239 -0.8360  0.8454
  992MOL0     H30935  10.764   8.928   4.311 -0.8563  1.1846  0.3781
  992MOL0     H30936  10.893   8.721   4.494 -0.1413  0.4393  0.7656
  992MOL0     H30937  10.857   8.694   4.327  1.3967 -1.3395  1.1959
  992MOL0     H30938  10.992   8.899   4.253  1.3545 -1.7231 -2.4066
  992MOL0     H30939  11.064   8.748   4.289  0.2607 -1.2412  2.4814
  992MOL0     H30940  11.080   8.990   4.465  2.0457  0.1771 -0.4013
  992MOL0     H30941  11.125   8.823   4.513  0.7861  0.4443  0.8026
  992MOL0     H30942  11.412   8.947   4.217 -0.6216  0.5016 -0.1732
  992MOL0     H30943  10.592   9.048   4.360  0.0787  0.5660  0.0817
  992MOL0     H30944  10.383   9.148   4.387 -0.4902 -0.0677 -1.8547
  993MOL0     O30945   2.721  10.205   5.526 -0.5661 -0.5724  0.8322
  993MOL0     C30946   2.743  10.112   5.449 -0.2351 -0.6037  0.0679
  993MOL0     O30947   2.661  10.011   5.429 -0.4926 -0.2204 -0.3699
  993MOL0     C30948   2.533   9.990   5.475 -1.2347 -0.3767 -0.5145
  993MOL0     C30949   2.468  10.031   5.601  1.1153  0.1357  0.0150
  993MOL0     C30950   2.332  10.002   5.622 -0.0623  0.2559  0.2671
  993MOL0     C30951   2.257   9.957   5.511  0.3154  0.4165 -0.3809
  993MOL0     O30952   2.121   9.945   5.545  0.1129 -0.2285  0.3726
  993MOL0     C30953   2.098   9.813   5.565  0.3799  0.3277  0.0048
  993MOL0     C30954   1.974   9.789   5.658  0.0320 -1.0314 -0.2577
  993MOL0     C30955   1.839   9.832   5.584 -0.1424 -0.4093  0.0357
  993MOL0     C30956   1.720   9.833   5.681  0.0604  0.2243  0.4870
  993MOL0     C30957   1.587   9.874   5.602 -0.7300 -0.5242 -0.8031
  993MOL0     C30958   1.466   9.789   5.638  0.1660  0.5554  0.2053
  993MOL0     C30959   1.333   9.865   5.603 -0.6875 -0.1413 -0.7354
  993MOL0     C30960   1.293   9.958   5.723  0.4583 -0.4640 -0.3690
  993MOL0     N30961   1.152   9.995   5.707 -0.4116 -0.4239 -0.0900
  993MOL0     C30962   1.050   9.909   5.707 -0.9663  0.4665  0.6946
  993MOL0     C30963   0.949   9.991   5.666 -0.0615 -0.0072  0.6788
  993MOL0     C30964   0.813   9.954   5.621 -0.1314 -0.6173  0.4637
  993MOL0     C30965   0.714   9.942   5.741  0.7058  0.3480 -0.0985
  993MOL0     C30966   0.583   9.909   5.686  0.1436 -0.9051  0.5384
  993MOL0     C30967   0.484   9.852   5.794 -0.6535 -0.0227  0.2199
  993MOL0     O30968   0.359   9.812   5.734  0.5043 -0.2009  0.5079
  993MOL0     C30969   0.251   9.773   5.802 -0.1663  1.1664  0.2231
  993MOL0     C30970   0.142   9.749   5.710  0.3789 -0.0302 -0.4059
  993MOL0     C30971   0.020   9.727   5.755 -0.4624 -0.2970 -0.2489
  993MOL0     C30972  -0.019   9.738   5.894 -0.1004  0.4576 -0.0244
  993MOL0     C30973  -0.163   9.732   5.936 -0.0936 -0.5764 -0.3553
  993MOL0     O30974  -0.267   9.753   5.842 -0.2771 -0.3291  0.2164
  993MOL0     C30975  -0.394   9.716   5.881  0.2853 -0.0044  0.5230
  993MOL0     C30976  -0.468   9.671   5.774  0.3422  0.3383  0.1954
  993MOL0     C30977  -0.606   9.654   5.809  0.7426 -0.3199  0.4661
  993MOL0     C30978  -0.672   9.675   5.934  0.0658  0.5086  0.4080
  993MOL0     O30979  -0.809   9.667   5.935  0.0359  0.0798 -0.1351
  993MOL0     C30980  -0.854   9.596   6.054 -0.7817 -0.2573 -0.0077
  993MOL0     C30981  -1.003   9.550   6.056 -0.3110  0.1539  0.3692
  993MOL0     C30982  -1.012   9.441   5.948 -0.4225 -0.4623 -0.1447
  993MOL0     C30983  -1.149   9.403   5.896 -0.0207 -0.5730 -0.4426
  993MOL0     C30984  -1.140   9.324   5.770  0.6343  0.7390 -0.5091
  993MOL0     C30985  -1.272   9.269   5.711  0.1136 -0.2459  0.3874
  993MOL0     C30986  -1.244   9.164   5.594 -0.1675  0.7102 -0.1067
  993MOL0     C30987  -1.282   9.225   5.465  0.4768 -0.0040  0.0727
  993MOL0    Cl30988  -1.265   9.115   5.324 -0.3776  0.1345 -0.4174
  993MOL0     C30989  -0.590   9.742   6.031 -0.8414 -0.1378 -0.0033
  993MOL0     C30990  -0.449   9.753   6.006  0.4924  0.4899  0.6308
  993MOL0     O30991  -0.183   9.690   6.053 -0.5198 -0.4355 -0.2444
  993MOL0     C30992   0.088   9.750   5.984  0.1102  0.2769  0.1520
  993MOL0     C30993   0.226   9.769   5.940 -0.2904 -0.2456  0.0617
  993MOL0     N30994   0.996  10.118   5.639 -0.1277 -0.3474  0.2278
  993MOL0     N30995   1.119  10.119   5.668 -0.4029 -0.4427 -1.1819
  993MOL0     C30996   2.314   9.944   5.385  0.2236 -0.4749 -0.1007
  993MOL0     C30997   2.453   9.952   5.370  1.1902  1.0035  0.9221
  993MOL0     C30998   2.870  10.112   5.387 -0.5128  0.6933  0.7882
  993MOL0     C30999   2.890  10.029   5.270  0.4753  0.2209  0.1587
  993MOL0     C31000   2.998  10.048   5.190 -0.2833 -0.1260 -0.3197
  993MOL0     C31001   3.108  10.116   5.239 -0.4998 -0.2942  0.3743
  993MOL0     O31002   3.226  10.117   5.168  0.0148 -0.3048  0.0657
  993MOL0     C31003   3.287   9.993   5.134  0.0824 -0.7362 -0.2927
  993MOL0     C31004   3.440  10.008   5.150  0.2208 -0.2996  0.0078
  993MOL0     C31005   3.511  10.076   5.034  0.8949 -0.5529 -0.7117
  993MOL0     C31006   3.540   9.976   4.924  0.5918  0.5829 -0.5093
  993MOL0     C31007   3.671   9.917   4.943  0.1913  0.3645 -0.0149
  993MOL0     C31008   3.772   9.872   4.977  0.2693  0.1971 -0.9686
  993MOL0     C31009   3.091  10.198   5.356 -0.2077  0.2230  0.4897
  993MOL0     C31010   2.967  10.211   5.424 -0.4352  0.6539 -0.0841
  993MOL0     H31011   2.515  10.092   5.678 -0.4859  0.7835  0.5177
  993MOL0     H31012   2.286  10.015   5.719 -0.2822  0.1570  0.1768
  993MOL0     H31013   2.186   9.770   5.613  1.1627 -1.2167 -2.5935
  993MOL0     H31014   2.081   9.767   5.467 -0.4393 -0.8735  0.6974
  993MOL0     H31015   1.986   9.829   5.760  2.9680 -2.1691 -0.0686
  993MOL0     H31016   1.953   9.683   5.675 -1.3966 -1.0937 -2.1596
  993MOL0     H31017   1.807   9.766   5.503 -4.0195  2.1538 -0.7832
  993MOL0     H31018   1.845   9.938   5.560 -2.1872 -0.0102  1.0549
  993MOL0     H31019   1.705   9.737   5.731  0.3214 -0.5728 -0.9143
  993MOL0     H31020   1.733   9.911   5.757 -0.8554 -0.6847  1.6081
  993MOL0     H31021   1.597   9.882   5.494  3.9343 -1.3897 -0.6844
  993MOL0     H31022   1.554   9.970   5.641 -0.5297  0.1042 -2.1334
  993MOL0     H31023   1.469   9.753   5.741 -0.1432  1.4302  0.5392
  993MOL0     H31024   1.471   9.703   5.571  1.3714  2.0788 -1.7877
  993MOL0     H31025   1.348   9.930   5.516 -0.7947 -1.2139 -1.5839
  993MOL0     H31026   1.246   9.803   5.579 -2.8222  2.2609  0.3945
  993MOL0     H31027   1.344  10.054   5.712  1.7753 -0.9217  1.3356
  993MOL0     H31028   1.308   9.893   5.809  1.3362 -1.4563 -1.2325
  993MOL0     H31029   1.044   9.802   5.727  0.4260  0.4465  1.0761
  993MOL0     H31030   0.827   9.860   5.566  2.2892 -1.2423  2.0001
  993MOL0     H31031   0.781  10.039   5.560  1.1458  1.1221  2.1106
  993MOL0     H31032   0.714  10.043   5.784 -4.3760  2.1204 -3.4072
  993MOL0     H31033   0.745   9.857   5.803  3.1368 -1.5248 -3.5487
  993MOL0     H31034   0.549   9.992   5.624  0.4120 -2.2011 -1.4429
  993MOL0     H31035   0.595   9.825   5.617 -2.1547 -1.6392  0.9385
  993MOL0     H31036   0.481   9.938   5.862  1.4080  0.9127 -0.7743
  993MOL0     H31037   0.536   9.772   5.847  1.2517  2.4844  2.4216
  993MOL0     H31038   0.156   9.746   5.602  0.1245  0.3483 -0.4502
  993MOL0     H31039  -0.052   9.699   5.678 -2.4872  2.5219  0.4410
  993MOL0     H31040  -0.431   9.652   5.674 -2.2517  0.5254 -0.8817
  993MOL0     H31041  -0.670   9.623   5.727 -0.8044 -1.7069  2.1207
  993MOL0     H31042  -0.832   9.657   6.142 -2.0960  2.0197 -1.1853
  993MOL0     H31043  -0.786   9.510   6.060  0.1110  0.2748 -1.8738
  993MOL0     H31044  -1.064   9.636   6.028 -4.0124 -1.9862  1.2429
  993MOL0     H31045  -1.050   9.512   6.147 -2.3082  1.5365 -0.0209
  993MOL0     H31046  -0.962   9.352   5.987  1.1895  0.9029  1.0421
  993MOL0     H31047  -0.960   9.482   5.861  1.8083  1.6391  2.0289
  993MOL0     H31048  -1.186   9.328   5.967  0.0861 -1.9085 -1.7403
  993MOL0     H31049  -1.208   9.493   5.880 -1.4614 -1.4920 -0.4945
  993MOL0     H31050  -1.069   9.241   5.780  1.9733  1.5627 -2.5834
  993MOL0     H31051  -1.098   9.386   5.691 -0.0299 -1.5540 -2.7928
  993MOL0     H31052  -1.331   9.352   5.672  1.3293  0.0730 -0.8553
  993MOL0     H31053  -1.339   9.218   5.781  0.4178 -5.7383 -2.7100
  993MOL0     H31054  -1.143   9.123   5.593 -1.0142 -1.6026  1.6086
  993MOL0     H31055  -1.312   9.080   5.609  0.4027  0.3829  0.7047
  993MOL0     H31056  -1.216   9.309   5.441  0.8524 -0.2251  0.3120
  993MOL0     H31057  -1.388   9.249   5.471  0.7547  1.3187 -0.0915
  993MOL0     H31058  -0.632   9.779   6.123 -0.5676 -1.1887  0.5572
  993MOL0     H31059  -0.386   9.799   6.082  0.1803 -1.6243  2.2829
  993MOL0     H31060   0.071   9.746   6.091 -0.8912 -1.8271 -0.0476
  993MOL0     H31061   0.307   9.785   6.011 -3.2282  1.2117  3.4105
  993MOL0     H31062   2.244   9.925   5.304 -0.6183  2.9574 -0.3210
  993MOL0     H31063   2.505   9.921   5.280 -0.1629 -1.6134  0.9453
  993MOL0     H31064   2.810   9.960   5.243 -0.8963  1.4789  0.8113
  993MOL0     H31065   3.010   9.995   5.095 -2.7347 -0.8387 -0.2996
  993MOL0     H31066   3.253   9.963   5.034 -4.1607  3.6180 -0.5294
  993MOL0     H31067   3.240   9.918   5.199 -0.4423 -0.5687 -0.4726
  993MOL0     H31068   3.449  10.058   5.247 -0.3084 -2.8131  1.4500
  993MOL0     H31069   3.490   9.918   5.187  2.5221  0.6098 -0.6674
  993MOL0     H31070   3.605  10.118   5.071 -0.1257  1.1465  0.0863
  993MOL0     H31071   3.446  10.154   4.995  0.5852 -0.5130 -0.1225
  993MOL0     H31072   3.463   9.900   4.919  1.7705 -0.5731 -2.0667
  993MOL0     H31073   3.537  10.024   4.826 -0.8349  5.4523  1.5975
  993MOL0     H31074   3.866   9.825   5.000 -0.5640 -1.7656 -1.3358
  993MOL0     H31075   3.180  10.257   5.375  0.9308 -1.4353  0.5370
  993MOL0     H31076   2.958  10.294   5.493 -1.3470  1.6128 -1.3053
  994MOL0     O31077   4.577   0.738   6.090  0.6451 -0.6967  0.6125
  994MOL0     C31078   4.588   0.780   5.974 -0.3492  0.4958  0.6128
  994MOL0     O31079   4.498   0.763   5.870  0.4696  0.4926  0.9571
  994MOL0     C31080   4.364   0.742   5.904  0.0101 -0.3259  0.5648
  994MOL0     C31081   4.283   0.701   5.800 -0.5337  0.6359  0.6416
  994MOL0     C31082   4.149   0.678   5.823 -0.1164 -0.2082 -0.4577
  994MOL0     C31083   4.085   0.698   5.949 -0.6305 -0.3963 -0.3556
  994MOL0     O31084   3.954   0.675   5.986 -0.3752  0.5422  0.4237
  994MOL0     C31085   3.860   0.645   5.876 -1.3513 -0.4693  0.6314
  994MOL0     C31086   3.722   0.676   5.933 -0.1845  0.6584 -0.0881
  994MOL0     C31087   3.617   0.658   5.821 -0.7917  0.1989 -0.5603
  994MOL0     C31088   3.481   0.635   5.885 -0.1442 -0.3904  0.1279
  994MOL0     C31089   3.386   0.585   5.779  0.7561  0.3094 -1.0089
  994MOL0     C31090   3.255   0.534   5.841 -0.1035 -0.7233  0.0704
  994MOL0     C31091   3.133   0.593   5.762  0.5057 -0.8356  0.3492
  994MOL0     C31092   2.998   0.558   5.826 -0.0170  0.9213  0.8368
  994MOL0     N31093   2.884   0.574   5.731  0.2755  0.8412  0.0797
  994MOL0     C31094   2.755   0.600   5.762 -0.0071  1.2849 -0.4176
  994MOL0     C31095   2.681   0.569   5.649 -0.6242  0.9156 -0.5479
  994MOL0     C31096   2.533   0.581   5.633  0.5361  0.9018  0.6450
  994MOL0     C31097   2.472   0.452   5.600  0.9452  0.2513 -0.5238
  994MOL0     C31098   2.319   0.473   5.575  0.2030 -1.2008  0.6884
  994MOL0     C31099   2.247   0.341   5.543 -0.4160 -0.0284 -1.5292
  994MOL0     O31100   2.125   0.378   5.481 -0.1678  0.3074  0.5103
  994MOL0     C31101   2.060   0.286   5.400 -0.4259 -0.0374  0.2557
  994MOL0     C31102   2.074   0.145   5.405  0.6506 -0.3516  0.5779
  994MOL0     C31103   2.022   0.059   5.310  0.0182  0.1272  0.1780
  994MOL0     C31104   1.940   0.113   5.208  0.2426 -0.0438 -0.5428
  994MOL0     C31105   1.880   0.022   5.112  0.2651 -0.6187 -0.0959
  994MOL0     O31106   1.765   0.068   5.065 -0.9701 -0.7673  0.2266
  994MOL0     C31107   1.684  -0.004   4.982 -0.3988  0.2252 -0.5199
  994MOL0     C31108   1.671  -0.143   4.983  0.0168  0.1450  0.1046
  994MOL0     C31109   1.579  -0.212   4.904 -0.1412  0.1488 -0.1432
  994MOL0     C31110   1.499  -0.138   4.811  0.0820 -0.2403  0.0696
  994MOL0     O31111   1.393  -0.206   4.745  0.1283 -0.0063 -0.5326
  994MOL0     C31112   1.328  -0.140   4.635 -0.2246 -0.6415 -0.0103
  994MOL0     C31113   1.236  -0.237   4.559  1.4272 -0.1246  0.0228
  994MOL0     C31114   1.124  -0.291   4.656  0.4144 -0.4893 -0.4360
  994MOL0     C31115   1.014  -0.362   4.566 -0.8779  0.9638  0.0316
  994MOL0     C31116   0.930  -0.460   4.644 -0.0362  0.1870 -0.1302
  994MOL0     C31117   0.829  -0.537   4.564  0.5792 -0.6192 -0.1075
  994MOL0     C31118   0.723  -0.453   4.487  0.9282  0.4082 -0.4363
  994MOL0     C31119   0.604  -0.533   4.448  1.3841  0.1829  0.1693
  994MOL0    Cl31120   0.469  -0.427   4.392 -0.5702  0.0303  0.1365
  994MOL0     C31121   1.512   0.003   4.807 -0.5837  0.5931 -0.3229
  994MOL0     C31122   1.607   0.068   4.891  0.0529  0.2668  0.8901
  994MOL0     O31123   1.938  -0.080   5.077 -0.3495  0.5246 -0.4852
  994MOL0     C31124   1.915   0.249   5.213 -0.2955  0.3207  0.0333
  994MOL0     C31125   1.968   0.335   5.316 -0.1114 -0.0833  0.0620
  994MOL0     N31126   2.770   0.535   5.548 -0.2057  0.5548 -0.1697
  994MOL0     N31127   2.888   0.537   5.601 -0.2750 -0.0753 -0.1624
  994MOL0     C31128   4.166   0.754   6.052  0.6873  0.8562  0.9614
  994MOL0     C31129   4.304   0.788   6.018 -0.5686  0.6319 -0.0189
  994MOL0     C31130   4.721   0.837   5.928  0.7273 -0.2313  0.3504
  994MOL0     C31131   4.725   0.892   5.798 -0.7554  0.9753  0.2861
  994MOL0     C31132   4.850   0.933   5.749 -1.2730  0.1249 -0.7763
  994MOL0     C31133   4.962   0.937   5.832  0.6102  0.3288 -0.5400
  994MOL0     O31134   5.076   0.988   5.778 -0.4252 -0.6674 -0.3296
  994MOL0     C31135   5.205   0.985   5.842  0.3833 -0.9413  0.2617
  994MOL0     C31136   5.260   0.847   5.850 -0.7553 -0.1408  0.5053
  994MOL0     C31137   5.265   0.783   5.709 -0.6001  0.3628 -0.2695
  994MOL0     C31138   5.330   0.649   5.712  0.2774 -0.5448  0.4799
  994MOL0     C31139   5.313   0.575   5.591  0.7884  0.0754  0.0362
  994MOL0     C31140   5.300   0.509   5.489  0.3569  0.1608  0.0373
  994MOL0     C31141   4.947   0.898   5.963 -0.1688  0.7316  0.2320
  994MOL0     C31142   4.830   0.839   6.010  0.0585  0.1756 -0.0467
  994MOL0     H31143   4.325   0.688   5.701 -1.0017  2.7535  0.1083
  994MOL0     H31144   4.091   0.646   5.737 -3.2676 -0.5646  1.6200
  994MOL0     H31145   3.871   0.541   5.845  0.6756  0.3048 -1.4890
  994MOL0     H31146   3.863   0.710   5.789 -1.8167 -2.8083 -1.2463
  994MOL0     H31147   3.706   0.779   5.967 -0.3160 -0.5035  3.7730
  994MOL0     H31148   3.712   0.613   6.021  0.4604  0.7010  0.0207
  994MOL0     H31149   3.644   0.567   5.765 -1.6329 -0.7085  0.4567
  994MOL0     H31150   3.630   0.745   5.756 -2.8744 -0.9079 -2.6249
  994MOL0     H31151   3.487   0.560   5.965 -0.8321 -3.0699 -2.1418
  994MOL0     H31152   3.432   0.725   5.923 -1.5792  0.0181 -2.5008
  994MOL0     H31153   3.430   0.498   5.728  0.2677 -1.3273  1.2261
  994MOL0     H31154   3.371   0.660   5.701 -0.1882  0.5261 -0.6324
  994MOL0     H31155   3.249   0.556   5.948  1.0196  0.4232 -0.0794
  994MOL0     H31156   3.249   0.425   5.842  0.1344 -0.8051 -2.1842
  994MOL0     H31157   3.154   0.701   5.754  0.4146 -0.6184  2.4527
  994MOL0     H31158   3.142   0.565   5.656  1.5006  0.3723  0.0785
  994MOL0     H31159   2.988   0.608   5.923 -1.1408 -1.3028  1.9457
  994MOL0     H31160   2.994   0.453   5.857  0.1081  0.9519  0.9600
  994MOL0     H31161   2.723   0.634   5.859 -1.1961  2.5446 -1.2195
  994MOL0     H31162   2.514   0.652   5.552  0.0010 -0.0386 -0.0579
  994MOL0     H31163   2.491   0.627   5.724 -0.2720 -1.5424  1.5732
  994MOL0     H31164   2.495   0.387   5.685  2.3066 -1.4473 -2.0880
  994MOL0     H31165   2.524   0.428   5.507  2.2610  1.4664 -0.1306
  994MOL0     H31166   2.268   0.524   5.657 -0.0456  3.3183 -1.9008
  994MOL0     H31167   2.304   0.532   5.484  1.3659  0.0915  1.3087
  994MOL0     H31168   2.216   0.278   5.627 -0.8179  1.1478 -0.7831
  994MOL0     H31169   2.307   0.281   5.473  2.0436  2.3778 -1.6196
  994MOL0     H31170   2.140   0.100   5.479  2.7001 -2.4401 -2.2637
  994MOL0     H31171   2.046  -0.047   5.312  0.1740  0.1552 -0.1953
  994MOL0     H31172   1.718  -0.205   5.059  1.8239 -0.4782 -1.4393
  994MOL0     H31173   1.560  -0.318   4.902  0.7455 -0.0085 -0.8984
  994MOL0     H31174   1.403  -0.091   4.573 -0.3860 -0.4262 -0.0363
  994MOL0     H31175   1.265  -0.056   4.664 -3.5977 -1.7590 -3.3875
  994MOL0     H31176   1.285  -0.329   4.525 -2.2306 -1.8450 -1.0619
  994MOL0     H31177   1.206  -0.191   4.465  2.3804 -0.0209 -0.2361
  994MOL0     H31178   1.076  -0.214   4.717  0.8216 -0.5581 -0.0186
  994MOL0     H31179   1.165  -0.362   4.729  2.1683 -0.6668 -1.5487
  994MOL0     H31180   0.948  -0.282   4.531  1.0703  1.8873 -1.7071
  994MOL0     H31181   1.058  -0.413   4.480  2.2471  0.9736  1.4953
  994MOL0     H31182   0.892  -0.400   4.727 -1.3026 -3.4018  2.1177
  994MOL0     H31183   0.998  -0.531   4.692 -0.6268 -1.0762 -1.1079
  994MOL0     H31184   0.786  -0.613   4.630 -0.5523 -0.6657 -0.8743
  994MOL0     H31185   0.874  -0.600   4.486 -5.1017 -3.7950 -1.3546
  994MOL0     H31186   0.692  -0.382   4.565 -0.2067  2.3540 -2.5540
  994MOL0     H31187   0.765  -0.401   4.401 -1.4426  1.4425 -1.0364
  994MOL0     H31188   0.568  -0.595   4.531  0.6266  0.8533  0.3574
  994MOL0     H31189   0.634  -0.605   4.371 -1.4948 -0.8232 -0.1449
  994MOL0     H31190   1.440   0.063   4.752  0.1349  0.9365 -0.8980
  994MOL0     H31191   1.611   0.176   4.891 -0.1616  0.2860  0.0594
  994MOL0     H31192   1.856   0.299   5.136 -1.2172 -1.9108 -0.8000
  994MOL0     H31193   1.958   0.442   5.304  2.2010  0.0153 -1.6956
  994MOL0     H31194   4.120   0.776   6.147 -1.0856 -0.2032  0.3954
  994MOL0     H31195   4.367   0.837   6.091 -1.1075  0.6183  0.4679
  994MOL0     H31196   4.642   0.905   5.729 -1.2135 -1.5103  0.2573
  994MOL0     H31197   4.864   0.959   5.644 -0.0733 -0.5850 -0.8126
  994MOL0     H31198   5.211   1.027   5.943  3.2449  2.5028 -1.0977
  994MOL0     H31199   5.272   1.051   5.785 -2.7952  0.7805 -1.7921
  994MOL0     H31200   5.365   0.840   5.881 -0.5504  2.0203  0.3934
  994MOL0     H31201   5.195   0.775   5.901 -0.5555 -3.6702 -3.6619
  994MOL0     H31202   5.325   0.847   5.643  1.3971  0.7507  1.7804
  994MOL0     H31203   5.168   0.749   5.671  1.3922 -6.2930 -0.6305
  994MOL0     H31204   5.437   0.666   5.724  0.3194  1.0158 -1.6501
  994MOL0     H31205   5.300   0.580   5.792  1.3391 -1.9056 -0.2600
  994MOL0     H31206   5.282   0.457   5.398  0.2979 -2.9144  1.6880
  994MOL0     H31207   5.029   0.902   6.034  0.5503  1.2336 -0.5906
  994MOL0     H31208   4.824   0.795   6.109  0.7159 -2.4926 -1.1313
  995MOL0     O31209   6.480   7.114   8.708 -0.4030 -0.0413 -0.2194
  995MOL0     C31210   6.557   7.088   8.615  0.2540  0.2582  0.5943
  995MOL0     O31211   6.520   7.099   8.486  0.4550 -0.1506 -0.0137
  995MOL0     C31212   6.390   7.114   8.456  1.0100  0.0736 -0.9202
  995MOL0     C31213   6.330   7.238   8.425  0.9164 -0.7621  0.4984
  995MOL0     C31214   6.188   7.248   8.429 -0.5147  0.4760  1.2731
  995MOL0     C31215   6.113   7.135   8.457  0.9300  0.3478 -0.4640
  995MOL0     O31216   5.973   7.128   8.440 -0.3729 -0.5481 -0.4171
  995MOL0     C31217   5.892   7.228   8.506  0.0984  0.1193  0.4718
  995MOL0     C31218   5.762   7.263   8.432  0.0261 -0.1948 -0.4030
  995MOL0     C31219   5.655   7.146   8.453 -0.3933 -0.1416  1.2008
  995MOL0     C31220   5.522   7.176   8.385 -0.7399  0.0317 -0.1452
  995MOL0     C31221   5.413   7.079   8.417 -0.3391  0.6767  0.0461
  995MOL0     C31222   5.414   6.944   8.336  0.3769  0.8965  0.6209
  995MOL0     C31223   5.293   6.851   8.380 -0.1766 -0.1654  0.4288
  995MOL0     C31224   5.307   6.697   8.369  0.3909 -0.3472  0.1915
  995MOL0     N31225   5.194   6.623   8.422 -0.2826 -0.6946 -0.5639
  995MOL0     C31226   5.189   6.507   8.490 -0.7718  0.3806 -0.7672
  995MOL0     C31227   5.059   6.464   8.493  0.0951  0.1553  1.1106
  995MOL0     C31228   5.023   6.347   8.566 -0.6446  0.8817 -0.2968
  995MOL0     C31229   4.867   6.332   8.580 -0.2240 -0.1165 -0.6569
  995MOL0     C31230   4.792   6.448   8.655 -0.2935  0.7425  0.5932
  995MOL0     C31231   4.658   6.403   8.717  0.2020 -0.0009  0.6620
  995MOL0     O31232   4.676   6.307   8.823  0.2552  0.0381 -0.3281
  995MOL0     C31233   4.561   6.272   8.886  1.1671  0.7935 -0.1208
  995MOL0     C31234   4.558   6.145   8.952  0.5842 -0.3510 -0.6507
  995MOL0     C31235   4.446   6.108   9.037  0.5301  0.3555 -0.2807
  995MOL0     C31236   4.331   6.187   9.041 -0.3549  0.4644  0.1433
  995MOL0     C31237   4.212   6.141   9.109 -0.1088  1.1792  0.6309
  995MOL0     O31238   4.103   6.216   9.094  0.6325  0.4321 -0.8395
  995MOL0     C31239   3.993   6.199   9.178 -0.6223  0.2820  0.1408
  995MOL0     C31240   3.868   6.237   9.131  0.3664 -0.2294 -0.2807
  995MOL0     C31241   3.760   6.220   9.220  0.4017 -0.3812 -0.0624
  995MOL0     C31242   3.761   6.174   9.353 -0.0174 -0.4622 -0.0336
  995MOL0     O31243   3.649   6.160   9.437  0.2081 -0.0656 -0.2306
  995MOL0     C31244   3.528   6.206   9.394  0.4697 -0.3634 -0.0017
  995MOL0     C31245   3.414   6.151   9.489  0.8044 -0.1491  0.4182
  995MOL0     C31246   3.269   6.186   9.443 -0.5560  0.1265 -0.2449
  995MOL0     C31247   3.220   6.330   9.477  0.0098  0.1257 -0.3431
  995MOL0     C31248   3.069   6.330   9.508  0.0578  0.0925 -0.8568
  995MOL0     C31249   2.974   6.277   9.395 -0.3615 -1.0117  0.5357
  995MOL0     C31250   2.831   6.265   9.444  0.5607 -0.7275 -0.4171
  995MOL0     C31251   2.734   6.236   9.326 -0.8617 -0.3048  0.4403
  995MOL0    Cl31252   2.740   6.053   9.288  0.7166  0.1351 -0.0647
  995MOL0     C31253   3.897   6.141   9.397  0.3384 -0.2387 -0.1553
  995MOL0     C31254   4.009   6.155   9.318  0.2206 -0.7526 -0.4254
  995MOL0     O31255   4.219   6.037   9.173  0.1098 -0.4879  0.1116
  995MOL0     C31256   4.340   6.312   8.987  0.7651  0.2440 -0.0549
  995MOL0     C31257   4.448   6.357   8.917 -0.0350 -0.5852 -0.4852
  995MOL0     N31258   4.989   6.554   8.416 -0.0501 -0.4925  0.0717
  995MOL0     N31259   5.070   6.652   8.382 -0.7185 -0.2858 -0.4362
  995MOL0     C31260   6.177   7.014   8.478 -0.1393 -0.6459  0.0078
  995MOL0     C31261   6.315   7.002   8.472 -0.1545 -0.4404  0.5219
  995MOL0     C31262   6.696   7.036   8.644  0.3339 -0.6321  0.2286
  995MOL0     C31263   6.723   6.998   8.775 -0.3090  0.3998  0.1608
  995MOL0     C31264   6.853   6.955   8.807 -0.5323  0.3245 -0.4459
  995MOL0     C31265   6.955   6.953   8.711 -0.4552 -0.5345 -0.0525
  995MOL0     O31266   7.076   6.909   8.760 -0.1922 -0.3243 -0.3463
  995MOL0     C31267   7.172   6.880   8.662 -0.2812 -0.4117 -0.0549
  995MOL0     C31268   7.301   6.832   8.723  0.5320 -0.0145 -0.1220
  995MOL0     C31269   7.380   6.956   8.765  0.0965 -1.1497  0.1935
  995MOL0     C31270   7.499   6.920   8.857  0.5114 -0.4158 -0.1600
  995MOL0     C31271   7.565   7.047   8.912 -0.1878  0.9334  0.2758
  995MOL0     C31272   7.602   7.140   8.977  0.0699 -0.9189 -0.1824
  995MOL0     C31273   6.923   6.993   8.575 -0.4253  0.2505 -0.3652
  995MOL0     C31274   6.797   7.037   8.537 -0.2409 -0.1633 -0.1571
  995MOL0     H31275   6.389   7.328   8.412 -0.3528 -0.1744 -1.9083
  995MOL0     H31276   6.142   7.346   8.419 -0.4670  0.4347  0.5608
  995MOL0     H31277   5.951   7.320   8.511  0.6731 -0.1609 -0.7838
  995MOL0     H31278   5.864   7.197   8.607  0.8914 -0.3688  0.5486
  995MOL0     H31279   5.767   7.279   8.324  0.5299 -2.5442 -0.7798
  995MOL0     H31280   5.728   7.355   8.481  0.1062  2.4345 -4.7722
  995MOL0     H31281   5.638   7.124   8.558  3.4178 -2.1947  1.5689
  995MOL0     H31282   5.680   7.059   8.392  0.2983  2.6134 -2.8738
  995MOL0     H31283   5.484   7.268   8.430  1.0435  0.3142  0.8789
  995MOL0     H31284   5.542   7.178   8.277 -2.0149 -2.4503 -0.5037
  995MOL0     H31285   5.311   7.120   8.417 -0.7565 -0.2103  1.9697
  995MOL0     H31286   5.429   7.066   8.525 -2.4421  2.4128  0.6374
  995MOL0     H31287   5.508   6.889   8.350 -1.1117 -1.2682  3.0051
  995MOL0     H31288   5.405   6.960   8.228  0.8359 -2.7702 -0.1165
  995MOL0     H31289   5.269   6.871   8.484 -0.8989 -0.8154  0.3932
  995MOL0     H31290   5.202   6.881   8.327 -0.1471  1.8853  1.4674
  995MOL0     H31291   5.401   6.662   8.414  0.6443  1.8914  1.5706
  995MOL0     H31292   5.311   6.677   8.261  3.0314  1.7576 -0.2226
  995MOL0     H31293   5.270   6.456   8.541 -2.0972 -1.2534 -0.2073
  995MOL0     H31294   5.067   6.341   8.666  2.4589  0.4931 -1.5879
  995MOL0     H31295   5.063   6.256   8.520 -0.7094 -0.8811  2.8685
  995MOL0     H31296   4.851   6.239   8.635  0.0890  0.6031  0.6932
  995MOL0     H31297   4.822   6.326   8.480  0.5171 -1.7054 -0.9281
  995MOL0     H31298   4.868   6.492   8.720  1.7291 -0.3349 -0.9150
  995MOL0     H31299   4.773   6.517   8.573  1.2117  0.5546  0.0365
  995MOL0     H31300   4.588   6.360   8.643 -3.2215  2.1523  2.3878
  995MOL0     H31301   4.624   6.505   8.735  2.0609  0.5897  1.0029
  995MOL0     H31302   4.647   6.086   8.934  1.4914  1.5578 -2.9881
  995MOL0     H31303   4.468   6.023   9.100  1.2944  0.1289 -0.8437
  995MOL0     H31304   3.851   6.277   9.032  0.5669  0.7284  0.0564
  995MOL0     H31305   3.661   6.245   9.182  0.3955  1.0032  0.7909
  995MOL0     H31306   3.511   6.168   9.292 -0.0186  0.2062 -0.1422
  995MOL0     H31307   3.526   6.315   9.389 -0.7046 -0.4037 -1.2120
  995MOL0     H31308   3.444   6.182   9.590  2.5488 -0.8636  0.1499
  995MOL0     H31309   3.417   6.041   9.494  1.8970 -0.1859 -0.6402
  995MOL0     H31310   3.202   6.113   9.489  1.4613 -0.8141  1.4204
  995MOL0     H31311   3.274   6.161   9.337  3.0921  0.5231 -0.3102
  995MOL0     H31312   3.277   6.370   9.561  2.5593 -1.0911 -1.3503
  995MOL0     H31313   3.247   6.393   9.392 -3.9140  0.4664 -1.5254
  995MOL0     H31314   3.033   6.433   9.523 -1.1337 -0.3207 -0.7331
  995MOL0     H31315   3.053   6.275   9.602  1.9686  0.3946 -0.3171
  995MOL0     H31316   3.008   6.179   9.362 -0.8131 -0.7969 -0.6127
  995MOL0     H31317   2.981   6.351   9.314  0.0700 -0.0420  1.4335
  995MOL0     H31318   2.831   6.179   9.512 -2.8312 -2.5838 -2.4836
  995MOL0     H31319   2.801   6.355   9.498 -4.8521  0.1364 -4.0330
  995MOL0     H31320   2.764   6.288   9.234 -0.6049 -1.3175 -0.0629
  995MOL0     H31321   2.637   6.274   9.361  0.4959  0.9779  3.1017
  995MOL0     H31322   3.905   6.108   9.500 -0.5428 -0.1484 -0.0479
  995MOL0     H31323   4.107   6.135   9.360  0.1295  0.0633  0.1996
  995MOL0     H31324   4.256   6.380   8.998 -1.1027 -1.6193 -1.8031
  995MOL0     H31325   4.458   6.459   8.881 -3.1474 -1.0843 -3.3361
  995MOL0     H31326   6.119   6.926   8.504  1.4403 -1.3800  1.2263
  995MOL0     H31327   6.355   6.910   8.514 -0.9174 -1.2466 -0.4514
  995MOL0     H31328   6.646   7.009   8.850  0.0771 -1.6047  0.9095
  995MOL0     H31329   6.871   6.914   8.906  0.5354  0.1678 -0.6874
  995MOL0     H31330   7.181   6.974   8.606  0.1231 -0.5919 -0.2922
  995MOL0     H31331   7.138   6.804   8.590  1.2260 -0.5824 -0.6284
  995MOL0     H31332   7.291   6.748   8.793 -0.0757 -0.1208 -0.3300
  995MOL0     H31333   7.346   6.794   8.630 -0.4451  0.5424 -0.8453
  995MOL0     H31334   7.313   7.019   8.824  1.5081 -1.9615  2.8159
  995MOL0     H31335   7.410   7.006   8.673 -0.9166  0.8159  0.8729
  995MOL0     H31336   7.465   6.858   8.941  0.9519  1.4500  1.4511
  995MOL0     H31337   7.555   6.855   8.789 -2.1607 -1.1923 -1.7710
  995MOL0     H31338   7.642   7.217   9.041 -4.4706  2.0481 -0.4740
  995MOL0     H31339   6.995   7.002   8.494 -1.2864  1.8062 -0.9920
  995MOL0     H31340   6.789   7.083   8.439  3.8456  1.8447  0.2365
  996MOL0     O31341   4.551   0.306   8.623 -0.3920 -0.0266 -0.1723
  996MOL0     C31342   4.571   0.416   8.579 -0.0733  0.2440  0.0578
  996MOL0     O31343   4.481   0.523   8.576 -0.6385 -0.3414 -0.3535
  996MOL0     C31344   4.345   0.501   8.596  0.8021 -0.4718  1.0369
  996MOL0     C31345   4.293   0.490   8.724  1.3827 -0.6936 -0.0727
  996MOL0     C31346   4.153   0.487   8.753  0.8348  0.7157  0.2434
  996MOL0     C31347   4.061   0.498   8.652  0.3406 -0.3641 -0.6067
  996MOL0     O31348   3.926   0.517   8.670  0.2275 -0.2881 -0.7966
  996MOL0     C31349   3.868   0.513   8.801 -0.1395  0.0587  0.4443
  996MOL0     C31350   3.723   0.483   8.777 -0.1695  0.0007  0.3540
  996MOL0     C31351   3.627   0.522   8.897 -1.0728 -0.1605  0.2541
  996MOL0     C31352   3.487   0.501   8.849  1.1138  1.9163 -0.4750
  996MOL0     C31353   3.375   0.528   8.965 -0.4865  0.5714  0.8123
  996MOL0     C31354   3.365   0.682   9.003 -1.7889 -0.4303 -0.3322
  996MOL0     C31355   3.246   0.711   9.094 -0.3699 -0.8347 -0.0502
  996MOL0     C31356   3.270   0.664   9.237 -0.0585  0.3570  0.4266
  996MOL0     N31357   3.176   0.743   9.309 -0.4105  0.2526 -0.0701
  996MOL0     C31358   3.047   0.708   9.345  0.1818 -0.0160  0.9844
  996MOL0     C31359   3.005   0.799   9.434 -0.6275 -0.0749 -0.1559
  996MOL0     C31360   2.865   0.812   9.498 -1.0024  0.6030  0.8162
  996MOL0     C31361   2.857   0.788   9.645  0.3379 -0.4802 -0.8571
  996MOL0     C31362   2.935   0.668   9.702  0.3593 -0.0170 -0.0874
  996MOL0     C31363   2.922   0.640   9.857  0.5623  0.3557  0.5978
  996MOL0     O31364   2.783   0.657   9.896  0.1932  0.2615 -0.6074
  996MOL0     C31365   2.735   0.617  10.018 -0.6196 -0.7294 -1.0216
  996MOL0     C31366   2.820   0.579  10.124 -0.3142 -0.1349  0.6752
  996MOL0     C31367   2.773   0.573  10.253  0.6888 -0.2329  0.6669
  996MOL0     C31368   2.646   0.630  10.283  1.2058  1.0196 -0.5205
  996MOL0     C31369   2.598   0.642  10.421  0.5882  0.4728 -0.2292
  996MOL0     O31370   2.489   0.713  10.445  0.2460 -0.0604 -0.3850
  996MOL0     C31371   2.418   0.719  10.567  0.0251 -0.0190 -0.0036
  996MOL0     C31372   2.287   0.679  10.578 -0.2018  0.4981 -0.0529
  996MOL0     C31373   2.202   0.704  10.688 -0.2733  0.0769  0.5049
  996MOL0     C31374   2.257   0.780  10.789 -0.4699 -0.0118 -0.2241
  996MOL0     O31375   2.173   0.815  10.891  0.0089 -0.3419  0.9091
  996MOL0     C31376   2.187   0.935  10.970 -0.0450  0.5720  0.2468
  996MOL0     C31377   2.055   0.952  11.042  0.2004 -0.2457  0.7303
  996MOL0     C31378   1.936   0.980  10.940  0.0122  0.8565 -0.2233
  996MOL0     C31379   1.809   0.990  11.027  0.4491 -0.0514 -0.3530
  996MOL0     C31380   1.687   1.025  10.945  0.2821  0.5999 -0.8411
  996MOL0     C31381   1.560   0.975  11.016  0.9581  0.2268 -0.3072
  996MOL0     C31382   1.416   1.022  10.965 -0.8188 -0.5933  0.5148
  996MOL0     C31383   1.299   0.995  11.060  0.4645 -0.2494 -0.6384
  996MOL0    Cl31384   1.285   0.822  11.053  0.0038  0.2983 -0.3770
  996MOL0     C31385   2.387   0.825  10.787 -0.5472  0.0881  0.2530
  996MOL0     C31386   2.463   0.798  10.673 -0.8023  0.0206  0.1845
  996MOL0     O31387   2.648   0.570  10.504 -0.3234  0.1271 -0.0354
  996MOL0     C31388   2.558   0.660  10.179 -0.0061 -0.7804 -0.1656
  996MOL0     C31389   2.603   0.653  10.046  0.2066  0.8286  0.5792
  996MOL0     N31390   3.110   0.881   9.459 -0.7557 -0.2434  0.3356
  996MOL0     N31391   3.211   0.848   9.384  0.5020 -0.0374  1.0648
  996MOL0     C31392   4.109   0.518   8.522 -0.3146  0.1804 -0.4860
  996MOL0     C31393   4.250   0.532   8.496  0.2583 -0.5554  0.5351
  996MOL0     C31394   4.702   0.436   8.510 -0.1141  0.2294  0.2519
  996MOL0     C31395   4.741   0.560   8.457 -0.1839  0.8542 -0.3540
  996MOL0     C31396   4.847   0.567   8.363  1.1609  0.4227 -0.4977
  996MOL0     C31397   4.928   0.454   8.336 -0.4845  0.6932 -0.4081
  996MOL0     O31398   5.042   0.464   8.259 -0.2521 -0.4076 -0.0277
  996MOL0     C31399   5.129   0.362   8.207 -0.2630 -0.5990 -0.5485
  996MOL0     C31400   5.257   0.397   8.128 -0.1562 -0.4015 -0.1035
  996MOL0     C31401   5.343   0.486   8.220 -0.7882 -0.6188  0.3482
  996MOL0     C31402   5.490   0.485   8.182  0.6095 -0.6432 -0.0073
  996MOL0     C31403   5.558   0.373   8.247 -0.5726 -0.9990  0.5620
  996MOL0     C31404   5.623   0.297   8.314 -1.1963  0.2703  0.2643
  996MOL0     C31405   4.891   0.337   8.406  0.7873  0.1552  0.6533
  996MOL0     C31406   4.781   0.321   8.486  0.0230  0.1389 -0.5612
  996MOL0     H31407   4.348   0.495   8.817 -0.8620 -0.6753  1.3292
  996MOL0     H31408   4.110   0.460   8.849 -0.5793 -2.6329 -1.1622
  996MOL0     H31409   3.878   0.611   8.848  2.0244  1.1721 -2.0996
  996MOL0     H31410   3.905   0.431   8.864 -1.3508 -0.9553 -0.1148
  996MOL0     H31411   3.700   0.379   8.751  0.6024 -0.5561  1.8307
  996MOL0     H31412   3.698   0.547   8.692  0.1145 -2.8642 -2.0573
  996MOL0     H31413   3.644   0.623   8.935 -0.4922  0.6394 -1.9200
  996MOL0     H31414   3.657   0.449   8.972  1.4143  0.5931  0.0882
  996MOL0     H31415   3.467   0.558   8.758 -0.1211  2.2117 -0.0413
  996MOL0     H31416   3.484   0.394   8.824 -0.9330  2.0846 -1.0930
  996MOL0     H31417   3.397   0.465   9.051  1.3092 -1.3205 -0.9176
  996MOL0     H31418   3.276   0.504   8.926 -0.3321  0.7188  0.3244
  996MOL0     H31419   3.347   0.736   8.909 -3.7619  2.3070  1.4288
  996MOL0     H31420   3.463   0.704   9.046 -2.5007  2.5027  0.0006
  996MOL0     H31421   3.224   0.818   9.102 -0.8476 -1.0717  3.0511
  996MOL0     H31422   3.159   0.657   9.057 -1.9482  0.6656  1.3159
  996MOL0     H31423   3.373   0.676   9.270 -0.0786  2.2883 -0.1261
  996MOL0     H31424   3.258   0.556   9.251 -0.4046  0.3273 -0.0604
  996MOL0     H31425   2.992   0.633   9.290  0.4423  0.2597  0.3410
  996MOL0     H31426   2.796   0.738   9.456  2.8787 -2.6205 -0.4888
  996MOL0     H31427   2.827   0.913   9.484 -1.3569  0.5031  1.0260
  996MOL0     H31428   2.755   0.796   9.685  2.1362  1.9600  4.0386
  996MOL0     H31429   2.900   0.873   9.697  1.4579 -2.6842  2.1442
  996MOL0     H31430   2.914   0.570   9.659 -0.4428 -0.0176  0.2887
  996MOL0     H31431   3.042   0.681   9.684  0.1001  1.4564 -0.7865
  996MOL0     H31432   2.987   0.707   9.913  0.8443 -0.4506  1.2699
  996MOL0     H31433   2.950   0.539   9.890  0.2303  0.5908  1.6452
  996MOL0     H31434   2.922   0.544  10.117  0.2172  1.5761 -0.6520
  996MOL0     H31435   2.836   0.531  10.331 -1.2529  1.0775  3.0736
  996MOL0     H31436   2.260   0.615  10.495  2.0440  0.8908 -1.1784
  996MOL0     H31437   2.102   0.661  10.682 -0.1758  0.0485 -3.0146
  996MOL0     H31438   2.239   1.013  10.914  0.6668 -0.5392 -0.6932
  996MOL0     H31439   2.263   0.905  11.043  2.1041 -4.0266 -3.3455
  996MOL0     H31440   2.061   1.041  11.105 -0.8135 -1.1308  2.1611
  996MOL0     H31441   2.022   0.862  11.096 -0.3078 -0.3918  0.1913
  996MOL0     H31442   1.926   0.900  10.866  1.4987 -1.8273  2.2382
  996MOL0     H31443   1.954   1.074  10.887 -2.0332  2.8184  2.2555
  996MOL0     H31444   1.788   0.890  11.066 -1.6461 -0.0440 -1.3716
  996MOL0     H31445   1.817   1.049  11.119 -2.5240  0.6568 -0.4525
  996MOL0     H31446   1.701   0.971  10.851  1.4206 -1.1340  0.2632
  996MOL0     H31447   1.680   1.133  10.927  0.5517  0.9905  1.1283
  996MOL0     H31448   1.559   1.014  11.119 -2.0231  3.6163 -1.3854
  996MOL0     H31449   1.564   0.866  11.017 -0.9093  0.0965  1.2620
  996MOL0     H31450   1.419   1.123  10.922 -0.5394 -0.2807  1.2471
  996MOL0     H31451   1.391   0.967  10.874  3.8014  0.6586 -1.8403
  996MOL0     H31452   1.208   1.038  11.017  1.0128  3.6402  1.6302
  996MOL0     H31453   1.311   1.033  11.161 -1.5939 -1.0645 -0.0320
  996MOL0     H31454   2.426   0.892  10.863 -0.6742  0.3043  0.1295
  996MOL0     H31455   2.565   0.835  10.662 -1.0969  0.6060 -0.5663
  996MOL0     H31456   2.458   0.694  10.203  0.5789  0.8108  0.1302
  996MOL0     H31457   2.532   0.685   9.970 -2.4443 -1.8589  1.6980
  996MOL0     H31458   4.036   0.528   8.443  0.1753 -0.0009 -0.9706
  996MOL0     H31459   4.294   0.557   8.400 -3.4466 -5.1185 -2.8245
  996MOL0     H31460   4.675   0.643   8.477 -1.8222 -1.2919  5.1827
  996MOL0     H31461   4.869   0.665   8.321  0.9900  1.2922  1.3511
  996MOL0     H31462   5.074   0.287   8.150 -1.3507 -2.2689  2.4476
  996MOL0     H31463   5.165   0.306   8.294  1.2250 -0.3691 -1.0019
  996MOL0     H31464   5.304   0.301   8.104 -0.9531 -0.7731 -0.2283
  996MOL0     H31465   5.243   0.449   8.033  0.0981  2.0247  1.1138
  996MOL0     H31466   5.324   0.474   8.327 -2.5735  4.5003  0.9098
  996MOL0     H31467   5.301   0.581   8.185 -0.0339 -0.3780  0.0756
  996MOL0     H31468   5.496   0.479   8.073 -1.4831  2.3397 -0.4233
  996MOL0     H31469   5.533   0.581   8.212 -0.9715 -0.2740  1.2406
  996MOL0     H31470   5.677   0.232   8.381 -1.5486 -0.1723  0.1224
  996MOL0     H31471   4.951   0.248   8.391  1.0767  0.7058 -2.0584
  996MOL0     H31472   4.750   0.230   8.536  0.7065  1.1189  1.8227
  997MOL0     O31473   8.552   4.525   1.764  0.6646 -0.1830 -0.2611
  997MOL0     C31474   8.544   4.589   1.660  0.4319  0.8254 -0.0513
  997MOL0     O31475   8.631   4.571   1.557  0.4541 -0.1660  0.2808
  997MOL0     C31476   8.741   4.487   1.564 -0.3642  0.0119 -0.9876
  997MOL0     C31477   8.736   4.352   1.589  0.2209 -0.3348  0.2127
  997MOL0     C31478   8.848   4.274   1.572 -0.0433  0.9869 -0.7189
  997MOL0     C31479   8.971   4.316   1.519  0.2322 -0.8520 -0.5283
  997MOL0     O31480   9.072   4.228   1.509  0.4167  0.0612  0.2115
  997MOL0     C31481   9.183   4.269   1.435 -0.9253 -0.0367  0.1845
  997MOL0     C31482   9.292   4.159   1.439  0.1551  0.4815 -0.2670
  997MOL0     C31483   9.413   4.213   1.369 -0.6417 -0.7385 -1.1900
  997MOL0     C31484   9.532   4.114   1.385  0.4014  0.2923 -0.5131
  997MOL0     C31485   9.671   4.176   1.360  0.0773 -0.1683 -0.4568
  997MOL0     C31486   9.696   4.234   1.222 -0.3217  0.4383  0.5125
  997MOL0     C31487   9.803   4.340   1.198  0.7287  0.0979  0.4824
  997MOL0     C31488   9.777   4.389   1.053  0.3170  0.6008 -0.0204
  997MOL0     N31489   9.878   4.490   1.014  0.3423  0.0293 -0.5771
  997MOL0     C31490   9.904   4.604   1.085 -0.3663  0.0164 -1.3102
  997MOL0     C31491  10.014   4.661   1.018  0.6399  0.4555  0.6238
  997MOL0     C31492  10.080   4.787   1.046  0.8813 -0.8639 -0.3890
  997MOL0     C31493   9.992   4.908   0.998 -0.5553  1.0935 -0.0231
  997MOL0     C31494   9.876   4.953   1.090 -0.5312 -0.3285 -0.2684
  997MOL0     C31495   9.812   5.092   1.047  0.3055  0.2381  0.6018
  997MOL0     O31496   9.730   5.076   0.932 -0.1415  0.0595  0.1307
  997MOL0     C31497   9.607   5.010   0.955 -0.3846 -0.0108  0.1446
  997MOL0     C31498   9.554   4.957   0.837  0.3043  0.2265  0.3010
  997MOL0     C31499   9.423   4.907   0.849  0.3474  0.1401 -0.0582
  997MOL0     C31500   9.349   4.896   0.969  0.6221  0.7047 -0.6089
  997MOL0     C31501   9.211   4.836   0.969 -0.9192 -0.3546 -0.4521
  997MOL0     O31502   9.160   4.783   1.084 -0.1227 -0.0390 -0.3020
  997MOL0     C31503   9.029   4.743   1.095  0.1358  0.7274 -0.7171
  997MOL0     C31504   8.961   4.755   1.213  0.2793  0.0157 -1.0709
  997MOL0     C31505   8.825   4.719   1.216 -1.1322 -0.6078  0.1550
  997MOL0     C31506   8.756   4.656   1.115  0.5271  0.2210 -0.1149
  997MOL0     O31507   8.621   4.631   1.146  0.2269 -0.1396  0.0500
  997MOL0     C31508   8.538   4.582   1.034  0.8307 -1.0321  0.0810
  997MOL0     C31509   8.386   4.584   1.071  0.1861 -0.8039  0.4817
  997MOL0     C31510   8.305   4.566   0.939 -0.0654 -0.1015 -0.4888
  997MOL0     C31511   8.153   4.589   0.968 -0.2109 -0.4055 -0.0935
  997MOL0     C31512   8.066   4.593   0.851 -0.9524 -0.4413 -0.4078
  997MOL0     C31513   7.943   4.675   0.863  0.0242  0.4048  0.5308
  997MOL0     C31514   7.858   4.645   0.993 -0.7862 -0.3320 -0.4463
  997MOL0     C31515   7.872   4.741   1.105 -0.5341  0.2062 -0.4307
  997MOL0    Cl31516   7.803   4.910   1.063  0.1631  0.2056  0.4381
  997MOL0     C31517   8.829   4.641   0.997  0.0591  0.8808  0.4653
  997MOL0     C31518   8.959   4.682   0.990 -0.2991 -0.6845 -0.3209
  997MOL0     O31519   9.166   4.819   0.855  0.4450 -0.2094  0.1282
  997MOL0     C31520   9.407   4.947   1.084  0.7334  0.2462  0.1538
  997MOL0     C31521   9.532   5.002   1.076 -0.4674  0.5467 -0.5255
  997MOL0     N31522  10.044   4.583   0.904  0.4540 -0.8380  0.2118
  997MOL0     N31523   9.957   4.484   0.906 -0.2469 -0.3255 -0.1781
  997MOL0     C31524   8.974   4.457   1.482 -0.1701 -0.1790  0.3278
  997MOL0     C31525   8.864   4.541   1.517 -0.4920 -0.0618  0.5265
  997MOL0     C31526   8.426   4.676   1.636  0.0366 -0.3041 -0.1993
  997MOL0     C31527   8.412   4.752   1.520  0.7100  0.7731  1.4132
  997MOL0     C31528   8.292   4.822   1.486 -0.2042 -0.7126  0.0816
  997MOL0     C31529   8.192   4.822   1.584 -1.6160  0.7002 -0.0113
  997MOL0     O31530   8.086   4.904   1.556 -0.3286  0.1432 -0.1032
  997MOL0     C31531   7.966   4.823   1.530 -0.7200 -0.6345 -0.6797
  997MOL0     C31532   7.892   4.865   1.406 -0.3005 -0.4659 -0.1762
  997MOL0     C31533   7.874   5.010   1.396 -0.9305 -0.9796 -0.5078
  997MOL0     C31534   7.780   5.069   1.508  0.7555 -0.7263 -0.7182
  997MOL0     C31535   7.639   5.026   1.493  0.3740 -0.1002 -0.3657
  997MOL0     C31536   7.531   4.977   1.473  0.2546  0.2755  0.6773
  997MOL0     C31537   8.209   4.762   1.714  0.6421  0.2928  0.4843
  997MOL0     C31538   8.326   4.694   1.736  0.1860  0.5292 -0.0446
  997MOL0     H31539   8.640   4.314   1.621 -0.3228  0.5256 -0.3636
  997MOL0     H31540   8.849   4.169   1.599  0.0076  1.4203  1.1677
  997MOL0     H31541   9.223   4.361   1.480 -0.7809 -1.3120  2.8105
  997MOL0     H31542   9.166   4.300   1.331  0.9730 -0.9442 -0.4323
  997MOL0     H31543   9.246   4.070   1.397  0.5329 -0.1549  0.6419
  997MOL0     H31544   9.321   4.145   1.543  1.3710  1.2998 -0.4705
  997MOL0     H31545   9.437   4.314   1.403 -0.2653 -1.5373  1.0951
  997MOL0     H31546   9.395   4.224   1.261  1.6513  1.8259 -1.4433
  997MOL0     H31547   9.535   4.073   1.486 -4.5847 -2.4736 -1.1336
  997MOL0     H31548   9.514   4.029   1.317  1.2563  1.3866 -2.1879
  997MOL0     H31549   9.751   4.106   1.384 -0.2784  0.0442  1.5222
  997MOL0     H31550   9.666   4.256   1.435 -2.8274 -1.0520  0.4299
  997MOL0     H31551   9.599   4.279   1.197 -0.9053 -1.8583 -1.7211
  997MOL0     H31552   9.722   4.145   1.164 -0.1048  0.4011  0.6672
  997MOL0     H31553   9.794   4.430   1.259  0.1875 -0.0857  0.6793
  997MOL0     H31554   9.905   4.302   1.209  0.5431  0.0485  2.4068
  997MOL0     H31555   9.683   4.445   1.048  0.0285  0.2112  0.9077
  997MOL0     H31556   9.774   4.305   0.983 -0.6263 -0.0095  0.7350
  997MOL0     H31557   9.850   4.646   1.169  1.9518  1.3699 -0.3946
  997MOL0     H31558  10.181   4.797   1.007 -0.1339  1.7217 -2.6515
  997MOL0     H31559  10.104   4.790   1.153  3.0487 -3.8600 -0.6690
  997MOL0     H31560   9.955   4.890   0.897  2.1628 -1.5121 -0.6870
  997MOL0     H31561  10.066   4.988   0.989  3.3008 -2.3088 -1.4978
  997MOL0     H31562   9.796   4.878   1.100  0.6429 -2.3697 -4.2705
  997MOL0     H31563   9.916   4.957   1.192  2.4421 -0.9872 -1.3258
  997MOL0     H31564   9.891   5.165   1.028  0.7638 -0.3905  0.0230
  997MOL0     H31565   9.755   5.132   1.132  0.2585  2.5394 -0.4413
  997MOL0     H31566   9.615   4.962   0.748  0.6706  2.2054  0.6192
  997MOL0     H31567   9.377   4.869   0.758 -0.5188 -0.4493  0.6140
  997MOL0     H31568   9.004   4.808   1.297  2.1079  1.7131 -2.9834
  997MOL0     H31569   8.767   4.721   1.308  2.0616 -2.2680  2.4140
  997MOL0     H31570   8.580   4.487   1.002  3.1434 -0.2321  0.5390
  997MOL0     H31571   8.544   4.654   0.952 -0.7373  0.7337  1.4130
  997MOL0     H31572   8.371   4.682   1.117  3.3687  0.4045 -0.7192
  997MOL0     H31573   8.357   4.502   1.137 -1.4742 -0.6386 -0.0001
  997MOL0     H31574   8.331   4.468   0.897  3.2789 -0.1792  1.3927
  997MOL0     H31575   8.347   4.641   0.871 -1.8501  2.3620  0.9945
  997MOL0     H31576   8.110   4.512   1.033 -0.2652  0.6697  1.1730
  997MOL0     H31577   8.142   4.685   1.018 -2.0855 -0.6432  0.0165
  997MOL0     H31578   8.045   4.487   0.834 -2.5088 -0.2839  0.3500
  997MOL0     H31579   8.118   4.628   0.762 -1.0363 -0.1402 -0.3381
  997MOL0     H31580   7.886   4.641   0.777 -0.2090  0.8627  0.4982
  997MOL0     H31581   7.951   4.784   0.855  0.5644  0.2976 -0.5919
  997MOL0     H31582   7.755   4.639   0.955 -0.3449 -1.0235 -1.5672
  997MOL0     H31583   7.889   4.546   1.028 -1.2160 -0.7386 -1.1941
  997MOL0     H31584   7.979   4.746   1.127 -0.3439 -1.7079 -0.8095
  997MOL0     H31585   7.810   4.717   1.192 -1.6319 -0.4024 -1.3621
  997MOL0     H31586   8.780   4.585   0.918  0.9740  1.3327 -0.4390
  997MOL0     H31587   9.012   4.662   0.898  1.9260  0.4208  0.6574
  997MOL0     H31588   9.354   4.943   1.179 -1.3007  0.7038 -0.8873
  997MOL0     H31589   9.583   5.028   1.168  2.0614 -0.6967 -1.4774
  997MOL0     H31590   9.054   4.515   1.437 -1.3544  0.8436 -0.5358
  997MOL0     H31591   8.849   4.646   1.495  0.8490  0.0721  0.1981
  997MOL0     H31592   8.488   4.749   1.443 -0.7730  2.2858 -0.1997
  997MOL0     H31593   8.265   4.863   1.390  7.6332  1.0982 -1.9871
  997MOL0     H31594   7.897   4.839   1.613 -3.6355 -2.3304 -2.6015
  997MOL0     H31595   7.990   4.718   1.510  5.5957  0.2921 -0.0746
  997MOL0     H31596   7.958   4.825   1.328 -1.2197  1.7620 -2.2290
  997MOL0     H31597   7.798   4.810   1.392 -1.2702  0.3584  2.5646
  997MOL0     H31598   7.840   5.032   1.294  0.5967 -0.7369 -1.0032
  997MOL0     H31599   7.975   5.054   1.398 -1.5872  0.6621 -1.4966
  997MOL0     H31600   7.808   5.058   1.613 -0.5426 -0.3043 -0.3106
  997MOL0     H31601   7.793   5.178   1.504  4.0690 -1.0304 -0.8888
  997MOL0     H31602   7.434   4.943   1.442 -0.6850  1.5528  2.0723
  997MOL0     H31603   8.134   4.763   1.792  0.6098  0.1012  0.4563
  997MOL0     H31604   8.327   4.647   1.834  2.9073  1.2918  0.3547
  998MOL0     O31605   1.768   9.893   3.890  1.0225  0.0512 -0.0174
  998MOL0     C31606   1.888   9.878   3.923  0.1928  0.3824 -0.3486
  998MOL0     O31607   1.939   9.767   3.986 -0.4545  0.1778  0.1217
  998MOL0     C31608   1.854   9.658   4.012 -1.1792  0.7069 -0.0118
  998MOL0     C31609   1.768   9.632   4.121  0.4980 -0.0062 -0.0049
  998MOL0     C31610   1.705   9.510   4.132 -0.0034  0.6889  0.0852
  998MOL0     C31611   1.708   9.405   4.038  0.1918  0.3598  0.0394
  998MOL0     O31612   1.627   9.289   4.044  0.5223  0.1328  0.0534
  998MOL0     C31613   1.533   9.276   4.150 -0.7746  0.0816  0.6302
  998MOL0     C31614   1.442   9.153   4.120 -0.4234  0.8812 -0.0971
  998MOL0     C31615   1.341   9.118   4.235  0.3099 -0.2238  0.2658
  998MOL0     C31616   1.228   9.223   4.258  0.5870  0.6440  0.0222
  998MOL0     C31617   1.108   9.156   4.333 -0.1577 -0.6045  1.0585
  998MOL0     C31618   1.008   9.256   4.386 -0.0293 -0.4548  0.1172
  998MOL0     C31619   0.870   9.203   4.410  0.5937  0.3248  0.7006
  998MOL0     C31620   0.884   9.090   4.508  0.1901  0.4196  0.0685
  998MOL0     N31621   0.743   9.051   4.552  0.0478 -0.5684  0.3449
  998MOL0     C31622   0.625   9.070   4.478 -1.1443 -0.8656 -0.2414
  998MOL0     C31623   0.525   9.060   4.570 -0.1804 -0.5923  0.5387
  998MOL0     C31624   0.384   9.094   4.543  0.0912 -0.3583  0.0164
  998MOL0     C31625   0.327   8.981   4.452  0.0718 -0.8100 -0.3297
  998MOL0     C31626   0.309   8.847   4.521  0.2611 -0.0704 -0.4099
  998MOL0     C31627   0.215   8.851   4.635  0.2160 -0.2445 -0.7866
  998MOL0     O31628   0.188   8.727   4.688  0.8666  0.1161 -0.5842
  998MOL0     C31629   0.065   8.676   4.663  0.1768  0.6699  0.5245
  998MOL0     C31630   0.046   8.601   4.543 -0.0398 -0.9084 -0.1365
  998MOL0     C31631  -0.075   8.553   4.501  0.0530 -0.0847  0.8757
  998MOL0     C31632  -0.179   8.554   4.599 -0.7308 -0.4687  0.0055
  998MOL0     C31633  -0.301   8.471   4.585 -0.2021 -0.4435 -0.1172
  998MOL0     O31634  -0.320   8.425   4.463  0.7858 -0.7418 -0.5407
  998MOL0     C31635  -0.413   8.326   4.445  0.3321  0.2320  0.0307
  998MOL0     C31636  -0.382   8.212   4.371 -0.6525  0.0758  0.4361
  998MOL0     C31637  -0.471   8.112   4.330  0.8525 -0.1073 -0.1473
  998MOL0     C31638  -0.611   8.125   4.367 -0.7209 -0.6552 -0.0603
  998MOL0     O31639  -0.706   8.027   4.343 -0.3929  0.2110  0.5573
  998MOL0     C31640  -0.677   7.924   4.238  0.5715 -0.9309  0.6630
  998MOL0     C31641  -0.815   7.856   4.205 -1.1268  0.6714  0.3479
  998MOL0     C31642  -0.795   7.754   4.082 -0.0871 -0.1358  1.2382
  998MOL0     C31643  -0.752   7.806   3.939  0.3925  0.2645 -0.9941
  998MOL0     C31644  -0.719   7.703   3.834 -1.1899 -0.0371  0.5853
  998MOL0     C31645  -0.837   7.607   3.818  0.3679  0.0183  0.2489
  998MOL0     C31646  -0.805   7.511   3.702  0.3074  0.5307 -0.2012
  998MOL0     C31647  -0.900   7.386   3.704 -0.7161  0.6387 -0.8062
  998MOL0    Cl31648  -0.884   7.300   3.863 -0.3038 -0.0504  0.2323
  998MOL0     C31649  -0.644   8.247   4.431 -0.4989 -0.4074  0.0949
  998MOL0     C31650  -0.550   8.347   4.473 -0.0814  0.6563  0.6000
  998MOL0     O31651  -0.362   8.432   4.683  0.0578  0.1060  0.3237
  998MOL0     C31652  -0.160   8.617   4.718 -1.0137  0.6495 -0.4326
  998MOL0     C31653  -0.041   8.676   4.748 -0.0809  0.0850 -1.0034
  998MOL0     N31654   0.581   9.016   4.692 -0.1945  0.0952  0.5701
  998MOL0     N31655   0.712   9.010   4.679 -0.1032 -0.9190  0.7785
  998MOL0     C31656   1.795   9.424   3.930  0.2127 -0.1359  0.0098
  998MOL0     C31657   1.861   9.550   3.922  1.1308 -0.2698  0.0681
  998MOL0     C31658   1.989   9.988   3.900  0.0657  1.0875  0.0263
  998MOL0     C31659   2.122   9.966   3.946 -0.5606  0.8650 -0.4508
  998MOL0     C31660   2.223  10.062   3.918  0.8783  0.2010 -0.4232
  998MOL0     C31661   2.189  10.189   3.860 -0.8569 -0.2829  0.1193
  998MOL0     O31662   2.269  10.299   3.841 -0.4108  0.0731 -0.4045
  998MOL0     C31663   2.401  10.303   3.892 -0.2415  0.6090 -0.0483
  998MOL0     C31664   2.494  10.406   3.823 -0.3515  0.3785 -0.4856
  998MOL0     C31665   2.431  10.550   3.796  0.8763  0.0108  0.0622
  998MOL0     C31666   2.536  10.632   3.727 -0.6865  0.2024 -0.0324
  998MOL0     C31667   2.490  10.772   3.707 -0.1311 -0.3609  0.0056
  998MOL0     C31668   2.450  10.884   3.696  1.6494  0.5349  1.0624
  998MOL0     C31669   2.061  10.203   3.818 -0.2473  0.3408 -0.5207
  998MOL0     C31670   1.958  10.110   3.839  0.7337  0.1033  0.2738
  998MOL0     H31671   1.751   9.716   4.187  0.0870  1.4779 -1.8811
  998MOL0     H31672   1.657   9.497   4.229 -0.7741  2.7469  0.0259
  998MOL0     H31673   1.474   9.367   4.167 -2.4901 -0.8284 -0.1704
  998MOL0     H31674   1.584   9.247   4.242 -0.3698  0.4494  0.5235
  998MOL0     H31675   1.513   9.073   4.097 -0.4976  0.5928  0.6424
  998MOL0     H31676   1.385   9.173   4.029 -0.8737  0.6801  0.1422
  998MOL0     H31677   1.396   9.117   4.329 -0.9631 -1.4310  1.0339
  998MOL0     H31678   1.283   9.027   4.221 -2.0791  1.0807  1.2110
  998MOL0     H31679   1.280   9.302   4.314  3.4204 -1.3717  0.4836
  998MOL0     H31680   1.192   9.261   4.162 -0.5242 -0.5861 -0.0782
  998MOL0     H31681   1.162   9.100   4.410  4.6598  0.8884 -0.8526
  998MOL0     H31682   1.060   9.085   4.264  0.6550  0.7924 -1.0483
  998MOL0     H31683   0.987   9.329   4.307  0.7124 -0.1215  0.2100
  998MOL0     H31684   1.045   9.310   4.474 -0.2883 -0.6585  0.3527
  998MOL0     H31685   0.803   9.277   4.454  2.5672 -0.3881  5.5265
  998MOL0     H31686   0.814   9.164   4.325 -1.4700  0.2823  2.0224
  998MOL0     H31687   0.951   9.109   4.593 -0.3546  0.8309  0.4100
  998MOL0     H31688   0.921   8.996   4.465 -0.0720  0.5783 -0.5175
  998MOL0     H31689   0.621   9.120   4.382 -0.5416  1.0029  0.6402
  998MOL0     H31690   0.384   9.191   4.492  0.5582  1.0928  2.5584
  998MOL0     H31691   0.322   9.124   4.628 -0.1645  0.8668 -0.5836
  998MOL0     H31692   0.392   8.963   4.366  2.0115 -1.5177  1.2158
  998MOL0     H31693   0.231   9.011   4.409  0.2411  0.1020 -0.1068
  998MOL0     H31694   0.265   8.769   4.458 -0.8623 -2.2753  2.8262
  998MOL0     H31695   0.396   8.802   4.570 -1.4777 -4.7839 -1.1350
  998MOL0     H31696   0.123   8.895   4.595 -0.0401 -2.2982 -2.6640
  998MOL0     H31697   0.266   8.906   4.714 -0.7331 -1.6114  0.8434
  998MOL0     H31698   0.124   8.603   4.468 -0.3201  0.2553 -0.4281
  998MOL0     H31699  -0.092   8.503   4.406  0.9611  1.1996  0.0097
  998MOL0     H31700  -0.277   8.192   4.349 -0.8793 -0.0371 -0.6058
  998MOL0     H31701  -0.443   8.019   4.282  1.9742 -0.1548  0.5525
  998MOL0     H31702  -0.601   7.851   4.266  1.2205 -0.1482  0.9696
  998MOL0     H31703  -0.645   7.977   4.147  0.3405 -0.7127  0.7061
  998MOL0     H31704  -0.888   7.926   4.162 -0.5933  0.6345 -0.6694
  998MOL0     H31705  -0.856   7.814   4.297  0.1979  3.4365  2.3778
  998MOL0     H31706  -0.895   7.712   4.066  0.2983 -0.8410  0.6009
  998MOL0     H31707  -0.728   7.672   4.110 -0.4555 -0.6302  0.7007
  998MOL0     H31708  -0.843   7.860   3.910 -0.1945 -0.3687 -0.3654
  998MOL0     H31709  -0.669   7.877   3.934 -0.3303  1.1592 -0.6221
  998MOL0     H31710  -0.629   7.645   3.855 -2.1945 -1.2939  1.6584
  998MOL0     H31711  -0.714   7.747   3.734  1.1004  0.2697  0.7899
  998MOL0     H31712  -0.929   7.661   3.796  0.3458 -0.1631 -0.1126
  998MOL0     H31713  -0.845   7.554   3.913 -0.9199 -0.2667 -0.0049
  998MOL0     H31714  -0.812   7.564   3.607  2.0545  1.1732 -0.0039
  998MOL0     H31715  -0.701   7.481   3.715 -0.5360 -1.3903  3.8378
  998MOL0     H31716  -0.888   7.326   3.613  2.1198  1.2701 -0.9457
  998MOL0     H31717  -1.002   7.425   3.709 -1.1298 -0.5545  0.9136
  998MOL0     H31718  -0.742   8.268   4.473  1.9461  5.2041  4.1706
  998MOL0     H31719  -0.593   8.432   4.525 -3.8741 -0.3582 -0.5721
  998MOL0     H31720  -0.238   8.623   4.794 -1.0564 -1.4626 -0.2444
  998MOL0     H31721  -0.015   8.725   4.842  2.5776  1.9475 -2.5637
  998MOL0     H31722   1.794   9.340   3.861 -4.6263 -1.3340  1.1814
  998MOL0     H31723   1.918   9.570   3.832 -0.5680  0.9705 -0.7851
  998MOL0     H31724   2.142   9.874   3.999 -2.0559  1.9139  2.1413
  998MOL0     H31725   2.324  10.054   3.955  1.1946  0.4804 -1.1948
  998MOL0     H31726   2.438  10.201   3.878  0.5940  0.9657 -0.5588
  998MOL0     H31727   2.395  10.327   3.999 -0.0015  3.2177 -0.5577
  998MOL0     H31728   2.579  10.413   3.891 -0.0654 -1.1772 -0.6550
  998MOL0     H31729   2.531  10.378   3.724  1.1244  0.8929 -0.0981
  998MOL0     H31730   2.399  10.593   3.892  1.1059  1.0486 -0.3182
  998MOL0     H31731   2.344  10.540   3.730  0.8841  0.2160  0.0200
  998MOL0     H31732   2.629  10.632   3.784 -0.5861  1.0403 -0.1844
  998MOL0     H31733   2.558  10.581   3.633  1.2597  0.5708  0.1762
  998MOL0     H31734   2.418  10.986   3.692 -3.6670 -0.7847  2.1521
  998MOL0     H31735   2.026  10.294   3.771  0.6268  0.0662 -1.7619
  998MOL0     H31736   1.858  10.139   3.811  2.1331  4.2052 -1.2362
  999MOL0     O31737  10.547   2.214   9.035 -0.1883  0.3451  0.3415
  999MOL0     C31738  10.619   2.134   8.981  0.4602 -0.6295 -0.8040
  999MOL0     O31739  10.582   2.026   8.918 -0.1040 -0.4133  0.4866
  999MOL0     C31740  10.447   2.016   8.891 -0.3865 -0.0011  0.1503
  999MOL0     C31741  10.398   2.063   8.768  0.0911  0.6851 -0.0952
  999MOL0     C31742  10.259   2.041   8.731 -0.3748  0.5841  0.4506
  999MOL0     C31743  10.171   1.984   8.823  0.0990  0.7068 -0.6795
  999MOL0     O31744  10.034   1.981   8.805 -0.3459  0.2052 -0.2998
  999MOL0     C31745   9.976   2.021   8.679  0.2746 -0.3170  0.2812
  999MOL0     C31746   9.822   2.023   8.686 -0.0259  0.0813  0.2565
  999MOL0     C31747   9.761   2.088   8.565 -0.9308  0.2111 -0.2907
  999MOL0     C31748   9.610   2.086   8.577  0.3210  0.8395 -0.9218
  999MOL0     C31749   9.529   2.148   8.471 -0.1305 -0.3984 -0.2060
  999MOL0     C31750   9.381   2.185   8.496 -0.2756 -0.7240 -1.0360
  999MOL0     C31751   9.312   2.098   8.602 -0.2872  0.5969 -0.3089
  999MOL0     C31752   9.160   2.132   8.616  0.2722 -0.0548  0.2853
  999MOL0     N31753   9.138   2.265   8.680  0.5164 -0.3840  0.1916
  999MOL0     C31754   9.111   2.283   8.809  0.6118 -0.5506 -0.1856
  999MOL0     C31755   9.091   2.416   8.825 -0.2409 -0.0215 -0.6880
  999MOL0     C31756   9.041   2.466   8.959  0.7969  0.5396  0.3706
  999MOL0     C31757   9.142   2.517   9.060  0.1681  0.2563 -0.7018
  999MOL0     C31758   9.245   2.416   9.100  0.3539  0.7969 -0.0761
  999MOL0     C31759   9.351   2.461   9.202  0.5258 -1.0356 -0.3792
  999MOL0     O31760   9.450   2.357   9.240  0.0630  0.0373 -0.2395
  999MOL0     C31761   9.568   2.394   9.312  0.5701  0.2189  0.4915
  999MOL0     C31762   9.656   2.298   9.369 -0.2363 -0.4967  0.3690
  999MOL0     C31763   9.774   2.332   9.435 -0.3708  0.4908  0.8359
  999MOL0     C31764   9.821   2.464   9.437 -0.2164  1.0325  0.5484
  999MOL0     C31765   9.958   2.490   9.500 -0.7073  1.1475 -0.1178
  999MOL0     O31766  10.001   2.620   9.510  0.3599  0.7030  1.4413
  999MOL0     C31767  10.125   2.640   9.571  0.2568  0.3458 -0.1296
  999MOL0     C31768  10.247   2.658   9.511  0.1033 -0.1507  0.7631
  999MOL0     C31769  10.371   2.671   9.577 -0.2594 -0.4804  0.4099
  999MOL0     C31770  10.372   2.690   9.717  0.0129  0.0814 -0.4902
  999MOL0     O31771  10.493   2.718   9.785 -0.3357  0.2442  0.2698
  999MOL0     C31772  10.504   2.677   9.919 -0.4754 -0.0714  0.7259
  999MOL0     C31773  10.648   2.709   9.977  0.9829 -0.5007  0.2796
  999MOL0     C31774  10.671   2.866   9.982  0.9201  0.3275  0.1649
  999MOL0     C31775  10.814   2.884  10.023  0.2098  0.3523  0.3269
  999MOL0     C31776  10.849   3.034  10.040 -0.4740  0.1563 -0.0097
  999MOL0     C31777  11.002   3.029  10.085  0.8835  0.9268  0.4468
  999MOL0     C31778  11.065   3.168  10.102  0.2150 -0.5196  0.0866
  999MOL0     C31779  11.221   3.173  10.136 -0.2413 -0.1878 -0.7105
  999MOL0    Cl31780  11.256   3.055  10.268 -0.4056 -0.5044 -0.3452
  999MOL0     C31781  10.247   2.674   9.783 -0.2069  0.9547 -0.3211
  999MOL0     C31782  10.132   2.654   9.712 -0.6887  0.2317 -0.5383
  999MOL0     O31783  10.032   2.395   9.528  0.0187 -0.0827  0.1125
  999MOL0     C31784   9.740   2.563   9.378  0.3125 -0.1292  0.2675
  999MOL0     C31785   9.618   2.527   9.324 -0.4612  0.0845  0.1021
  999MOL0     N31786   9.096   2.471   8.701 -0.5948 -0.5359  0.7838
  999MOL0     N31787   9.125   2.383   8.614 -0.1692  0.5156  0.0596
  999MOL0     C31788  10.217   1.937   8.942 -0.5579  0.9141  0.1199
  999MOL0     C31789  10.353   1.956   8.982 -0.6011  0.0372  0.0041
  999MOL0     C31790  10.760   2.175   8.964  0.3600 -0.3182 -0.4925
  999MOL0     C31791  10.801   2.283   9.044 -0.1353 -0.1641  0.5193
  999MOL0     C31792  10.938   2.313   9.053  0.8710  0.1945 -0.0072
  999MOL0     C31793  11.027   2.236   8.974 -0.3536 -0.4945 -0.9595
  999MOL0     O31794  11.152   2.295   8.969  0.4918  0.1444 -0.3123
  999MOL0     C31795  11.270   2.229   8.905 -0.4688 -0.2150 -0.5509
  999MOL0     C31796  11.399   2.318   8.924 -0.3270 -0.4270 -0.3184
  999MOL0     C31797  11.528   2.264   8.872 -0.8976  0.1172 -0.6236
  999MOL0     C31798  11.532   2.230   8.726 -0.3401  0.4645  0.0569
  999MOL0     C31799  11.669   2.187   8.702  1.6766  0.6875  0.6853
  999MOL0     C31800  11.775   2.148   8.671 -0.9544 -0.6960 -0.3903
  999MOL0     C31801  10.998   2.124   8.912  0.2018  0.4543  0.4956
  999MOL0     C31802  10.865   2.101   8.891  1.2627 -0.2491 -0.4819
  999MOL0     H31803  10.472   2.105   8.700  1.3081  1.8344  1.8390
  999MOL0     H31804  10.217   2.072   8.636 -0.1265  3.6423  1.2312
  999MOL0     H31805  10.024   1.963   8.599 -0.5534 -1.4329  0.5685
  999MOL0     H31806  10.013   2.122   8.659  0.8533 -0.9404 -2.1963
  999MOL0     H31807   9.792   2.079   8.775  1.2084  0.1807  0.6360
  999MOL0     H31808   9.797   1.917   8.696  2.5636 -0.8168 -1.6694
  999MOL0     H31809   9.771   2.034   8.471 -2.3824  0.4836 -0.6250
  999MOL0     H31810   9.793   2.191   8.551 -1.7337  0.0824 -3.9933
  999MOL0     H31811   9.586   1.980   8.590 -1.1159  1.5100  4.7092
  999MOL0     H31812   9.571   2.130   8.670 -3.3125 -1.6905 -1.0471
  999MOL0     H31813   9.530   2.075   8.390 -1.0799 -1.9286  1.1092
  999MOL0     H31814   9.579   2.234   8.425  4.6878 -2.0126  1.4154
  999MOL0     H31815   9.326   2.171   8.402 -1.7489 -0.2160 -0.2804
  999MOL0     H31816   9.375   2.290   8.522 -1.9860 -0.2295 -3.1064
  999MOL0     H31817   9.310   1.992   8.573 -2.1964 -0.5486  3.3650
  999MOL0     H31818   9.357   2.105   8.702 -1.0208  1.1750 -0.0131
  999MOL0     H31819   9.100   2.051   8.658  2.8724 -1.4291  1.5715
  999MOL0     H31820   9.115   2.147   8.517 -0.6332 -2.0120  0.3359
  999MOL0     H31821   9.104   2.201   8.880 -2.3860 -0.1020  0.1517
  999MOL0     H31822   8.984   2.388   9.010 -2.2534  1.7773 -0.8926
  999MOL0     H31823   8.973   2.549   8.941 -0.0037 -0.1793 -0.0080
  999MOL0     H31824   9.081   2.548   9.146 -0.0740  2.3426 -1.5641
  999MOL0     H31825   9.190   2.604   9.014 -1.1800 -0.5495 -3.8772
  999MOL0     H31826   9.194   2.327   9.135  1.0172 -0.0184 -1.1292
  999MOL0     H31827   9.293   2.386   9.007  1.2980  0.9027  0.3603
  999MOL0     H31828   9.297   2.500   9.289  0.8106  0.3615 -0.7988
  999MOL0     H31829   9.405   2.541   9.151 -0.7254 -0.7564 -1.3084
  999MOL0     H31830   9.631   2.192   9.365 -0.6187 -0.4612  1.4496
  999MOL0     H31831   9.840   2.259   9.481  0.0432  1.0268  1.0993
  999MOL0     H31832  10.236   2.645   9.404  1.8876 -1.0856  0.6563
  999MOL0     H31833  10.468   2.682   9.529 -0.8940 -0.3938 -0.9113
  999MOL0     H31834  10.494   2.568   9.931 -0.8142  0.1315  2.3926
  999MOL0     H31835  10.431   2.727   9.982 -1.0768 -1.1657  0.9181
  999MOL0     H31836  10.732   2.675   9.915  1.5894  0.9831  0.2450
  999MOL0     H31837  10.663   2.664  10.076  1.2439 -0.5166  0.2343
  999MOL0     H31838  10.611   2.909  10.062  2.5934  0.9533  1.1312
  999MOL0     H31839  10.656   2.909   9.883  4.2591 -2.6712 -1.9126
  999MOL0     H31840  10.835   2.830  10.116 -0.5043 -1.7662 -0.6795
  999MOL0     H31841  10.880   2.840   9.948  0.7309  3.4490 -1.2032
  999MOL0     H31842  10.789   3.084  10.116 -0.2883 -2.0011  1.6517
  999MOL0     H31843  10.841   3.097   9.951  0.4847  4.2682  2.5539
  999MOL0     H31844  11.066   2.974  10.015 -2.4743 -1.5302 -0.9376
  999MOL0     H31845  11.014   2.965  10.172  0.5405  0.1940 -0.0349
  999MOL0     H31846  11.042   3.221  10.009  0.2455  1.4673  1.1487
  999MOL0     H31847  11.028   3.210  10.196  2.4219 -2.4040  1.9486
  999MOL0     H31848  11.266   3.269  10.162  0.1695 -0.5362 -0.1022
  999MOL0     H31849  11.270   3.148  10.042  0.7664  0.6974 -0.4405
  999MOL0     H31850  10.225   2.669   9.889 -0.5912  2.6152 -0.2866
  999MOL0     H31851  10.038   2.647   9.765  0.4033 -3.4530  1.3057
  999MOL0     H31852   9.769   2.667   9.391 -0.8605  0.1213  1.0975
  999MOL0     H31853   9.556   2.607   9.286  2.8188  1.4631 -2.8023
  999MOL0     H31854  10.145   1.913   9.020 -0.3271  0.1876  0.1176
  999MOL0     H31855  10.386   1.926   9.081 -0.6975 -3.0507 -0.7941
  999MOL0     H31856  10.719   2.337   9.089  0.1431  2.9951 -2.3770
  999MOL0     H31857  10.965   2.400   9.112 -0.6653  1.3106 -0.8815
  999MOL0     H31858  11.247   2.216   8.799 -2.2691 -1.0958 -0.0876
  999MOL0     H31859  11.282   2.127   8.944 -1.6976 -0.4046 -0.6333
  999MOL0     H31860  11.375   2.411   8.871  2.6090  0.8976  0.4603
  999MOL0     H31861  11.399   2.346   9.030 -0.3560 -2.3422  0.2250
  999MOL0     H31862  11.550   2.167   8.917  0.3233 -0.0520 -1.5043
  999MOL0     H31863  11.610   2.332   8.899 -0.7720 -0.5285  0.7046
  999MOL0     H31864  11.464   2.149   8.698 -0.8715  0.0486  2.3463
  999MOL0     H31865  11.515   2.324   8.673  2.5399  3.0152  3.2001
  999MOL0     H31866  11.868   2.111   8.632 -0.0218  1.2463 -0.1436
  999MOL0     H31867  11.064   2.048   8.872 -1.0243  1.1250 -3.2014
  999MOL0     H31868  10.835   2.014   8.834 -3.4877  0.2435  0.8962
 1000MOL0     O31869   4.200   5.080   7.834  0.8079 -1.5035  0.3167
 1000MOL0     C31870   4.184   5.127   7.943 -0.5644  0.0875 -0.1164
 1000MOL0     O31871   4.238   5.076   8.053  0.0313  0.6073 -0.4032
 1000MOL0     C31872   4.301   4.951   8.041  0.5482 -0.8688  0.0435
 1000MOL0     C31873   4.441   4.954   8.040  0.0096 -0.7092 -0.4716
 1000MOL0     C31874   4.510   4.832   8.022 -0.2748 -0.3715 -0.4319
 1000MOL0     C31875   4.435   4.710   8.010 -0.3832 -0.2330  0.1831
 1000MOL0     O31876   4.500   4.587   8.003  0.3679  0.0588  0.5364
 1000MOL0     C31877   4.635   4.583   7.963 -0.0775 -0.1283  0.0533
 1000MOL0     C31878   4.649   4.451   7.883  0.1525  0.1154  0.5987
 1000MOL0     C31879   4.663   4.324   7.966 -0.3996 -0.0073 -0.5247
 1000MOL0     C31880   4.669   4.210   7.868  0.2823 -0.6418 -0.7738
 1000MOL0     C31881   4.688   4.065   7.919 -0.7027 -0.1079  0.1290
 1000MOL0     C31882   4.584   4.030   8.031  0.1291 -0.5720  0.4707
 1000MOL0     C31883   4.592   3.885   8.070 -0.1841  0.4828 -0.1520
 1000MOL0     C31884   4.525   3.782   7.970  0.0085  0.1354  0.2443
 1000MOL0     N31885   4.382   3.754   7.992  0.0275  0.3590  0.1306
 1000MOL0     C31886   4.289   3.839   7.949  0.6420 -0.6860  0.2029
 1000MOL0     C31887   4.173   3.769   7.966 -0.3066 -0.0511 -0.1806
 1000MOL0     C31888   4.040   3.807   7.932 -0.5375  0.5725 -0.0194
 1000MOL0     C31889   4.031   3.817   7.777  0.1939  0.5104 -1.1789
 1000MOL0     C31890   3.996   3.672   7.720 -0.2507 -0.6355  0.1861
 1000MOL0     C31891   4.009   3.655   7.563  0.3102  0.4047 -0.4144
 1000MOL0     O31892   3.922   3.754   7.502  0.3925  0.2194  0.3485
 1000MOL0     C31893   3.785   3.720   7.487 -0.5049  0.9373 -1.0570
 1000MOL0     C31894   3.731   3.589   7.511 -0.0088  0.8834 -0.1446
 1000MOL0     C31895   3.597   3.556   7.488  0.4875  0.1236 -0.1065
 1000MOL0     C31896   3.507   3.657   7.453  0.7088 -0.0624  0.4323
 1000MOL0     C31897   3.365   3.617   7.426  0.0795  0.0320  0.4370
 1000MOL0     O31898   3.334   3.487   7.441 -0.3753 -0.0269 -0.0859
 1000MOL0     C31899   3.216   3.436   7.404  0.8300 -0.1664 -0.2106
 1000MOL0     C31900   3.192   3.309   7.471 -0.3481  0.0994  0.3499
 1000MOL0     C31901   3.074   3.241   7.444 -0.2432 -0.0514  0.3364
 1000MOL0     C31902   2.973   3.300   7.363 -0.3499 -0.4276 -0.1018
 1000MOL0     O31903   2.855   3.232   7.360 -0.6225  0.2593 -1.1210
 1000MOL0     C31904   2.771   3.249   7.252  0.2604 -0.0565  0.1680
 1000MOL0     C31905   2.714   3.110   7.234  0.0096  0.8712  0.0026
 1000MOL0     C31906   2.627   3.089   7.107 -0.1244  0.6454 -0.9359
 1000MOL0     C31907   2.695   3.104   6.962 -0.0780  0.4815 -0.5348
 1000MOL0     C31908   2.623   3.009   6.861  0.0102  0.6362  0.5146
 1000MOL0     C31909   2.472   3.061   6.848  0.4579 -0.5197  0.6487
 1000MOL0     C31910   2.407   3.018   6.703 -0.3699 -1.2873 -0.4475
 1000MOL0     C31911   2.250   3.041   6.699  0.3281  0.4362 -0.5798
 1000MOL0    Cl31912   2.212   3.206   6.718  0.0921  0.5493  0.4071
 1000MOL0     C31913   3.007   3.423   7.296  0.1422  1.1092 -1.4446
 1000MOL0     C31914   3.127   3.490   7.324 -0.6357  0.5575  0.7388
 1000MOL0     O31915   3.280   3.709   7.412 -0.2803 -0.2970  0.2169
 1000MOL0     C31916   3.551   3.787   7.442 -1.1456 -0.1314  0.8338
 1000MOL0     C31917   3.692   3.820   7.458  1.4503 -0.2070  0.1532
 1000MOL0     N31918   4.205   3.655   8.030  0.0865  0.0960 -0.1915
 1000MOL0     N31919   4.330   3.648   8.049 -0.6172  0.0469 -0.9673
 1000MOL0     C31920   4.296   4.717   8.018 -0.3210  0.0838 -0.4972
 1000MOL0     C31921   4.226   4.833   8.023  0.1396 -0.0958 -1.5104
 1000MOL0     C31922   4.073   5.231   7.947 -0.4915  0.8455 -0.4043
 1000MOL0     C31923   4.004   5.242   8.071 -0.5661  0.2717  0.8225
 1000MOL0     C31924   3.887   5.321   8.079  0.1453  0.1469  0.1088
 1000MOL0     C31925   3.826   5.372   7.967 -0.2306 -0.3708  0.4285
 1000MOL0     O31926   3.705   5.433   7.966  0.7476  0.3473 -0.1494
 1000MOL0     C31927   3.625   5.405   8.081  0.9173  0.0323 -0.1459
 1000MOL0     C31928   3.486   5.465   8.056  0.1719  0.5990 -0.0043
 1000MOL0     C31929   3.382   5.453   8.173 -1.6908 -0.6385 -0.0203
 1000MOL0     C31930   3.281   5.335   8.168  0.3031 -0.4081 -0.2630
 1000MOL0     C31931   3.197   5.343   8.047  0.1791  0.0925 -0.3524
 1000MOL0     C31932   3.124   5.383   7.956  0.1301  0.8401  0.5728
 1000MOL0     C31933   3.898   5.371   7.844 -0.2621 -0.5778 -0.0705
 1000MOL0     C31934   4.019   5.301   7.836  1.0911 -1.2217  0.5379
 1000MOL0     H31935   4.483   5.054   8.043 -2.4999  0.4160  2.3118
 1000MOL0     H31936   4.618   4.827   8.020 -0.2472 -0.5664  1.0040
 1000MOL0     H31937   4.703   4.590   8.049  0.9262  2.1616 -0.8649
 1000MOL0     H31938   4.660   4.666   7.897 -0.8894 -0.1220 -0.2593
 1000MOL0     H31939   4.728   4.454   7.808  1.2193 -2.9376  1.4676
 1000MOL0     H31940   4.558   4.453   7.822 -0.1745 -0.6739  1.0521
 1000MOL0     H31941   4.573   4.307   8.025 -0.7270  2.5706 -0.1564
 1000MOL0     H31942   4.757   4.331   8.021 -1.6247  0.1856  1.6574
 1000MOL0     H31943   4.575   4.203   7.812  2.0890 -0.4876 -4.0797
 1000MOL0     H31944   4.748   4.241   7.798  0.4349  2.5763  0.6331
 1000MOL0     H31945   4.788   4.049   7.961 -1.1294  1.8284  2.0915
 1000MOL0     H31946   4.680   4.002   7.830  2.8579  0.6213 -0.8887
 1000MOL0     H31947   4.485   4.059   7.995  1.6982  2.8549 -1.5393
 1000MOL0     H31948   4.612   4.089   8.119 -0.6365 -1.7533  1.5411
 1000MOL0     H31949   4.699   3.860   8.076 -0.0036  1.5027  1.7684
 1000MOL0     H31950   4.542   3.868   8.165 -4.9953  2.1771 -2.0770
 1000MOL0     H31951   4.575   3.685   7.969  1.7140  0.9805 -0.2794
 1000MOL0     H31952   4.536   3.814   7.866  1.5113  0.5966  0.5272
 1000MOL0     H31953   4.300   3.943   7.921 -0.9740 -0.8167 -1.0296
 1000MOL0     H31954   4.019   3.908   7.968 -1.5182 -0.3930  2.3330
 1000MOL0     H31955   3.962   3.751   7.985  0.8242  0.7729  2.3332
 1000MOL0     H31956   4.125   3.853   7.734  0.7291 -2.8386 -3.1801
 1000MOL0     H31957   3.949   3.886   7.760 -0.6197  1.2870  4.0413
 1000MOL0     H31958   4.068   3.601   7.759  1.1506 -0.3403 -1.7194
 1000MOL0     H31959   3.899   3.633   7.754 -1.2332  0.4414 -1.2349
 1000MOL0     H31960   3.985   3.550   7.542 -1.2738 -0.1472  3.2320
 1000MOL0     H31961   4.116   3.676   7.549 -0.3364  4.2113 -0.7221
 1000MOL0     H31962   3.790   3.507   7.549  1.4283  2.1782  0.5020
 1000MOL0     H31963   3.551   3.458   7.493 -1.9324  1.2124  0.6521
 1000MOL0     H31964   3.255   3.261   7.545 -2.8412 -0.8938  1.9434
 1000MOL0     H31965   3.054   3.146   7.492 -0.6506 -0.2476 -0.2105
 1000MOL0     H31966   2.822   3.281   7.160  1.2715  2.1119  1.3986
 1000MOL0     H31967   2.691   3.320   7.275 -0.0684 -0.4081  0.0993
 1000MOL0     H31968   2.681   3.072   7.331  1.9151 -1.5491 -0.2043
 1000MOL0     H31969   2.796   3.039   7.220  1.4279  1.8004  2.7314
 1000MOL0     H31970   2.545   3.160   7.122  0.7221  0.8987  3.9767
 1000MOL0     H31971   2.579   2.991   7.117 -1.2516  1.1200 -1.4738
 1000MOL0     H31972   2.677   3.207   6.928  2.6424  1.3321  0.3545
 1000MOL0     H31973   2.802   3.085   6.968 -0.5533 -3.0079 -1.1863
 1000MOL0     H31974   2.621   2.901   6.883  0.2691  0.1912 -1.4823
 1000MOL0     H31975   2.676   3.017   6.766  0.3593 -0.0622  0.6396
 1000MOL0     H31976   2.481   3.169   6.856  0.2501 -0.6311  3.2512
 1000MOL0     H31977   2.427   3.028   6.942  2.8226 -0.1844  1.9781
 1000MOL0     H31978   2.450   3.074   6.620 -0.2900  0.4907  0.7296
 1000MOL0     H31979   2.443   2.916   6.687  3.5934  0.0021 -0.7005
 1000MOL0     H31980   2.215   2.994   6.791 -0.1230  3.1713  0.7596
 1000MOL0     H31981   2.197   2.999   6.613 -2.1694  0.2081  0.9581
 1000MOL0     H31982   2.939   3.472   7.226  0.3924  0.8255 -1.8891
 1000MOL0     H31983   3.145   3.578   7.263 -2.9005 -0.4428 -1.5697
 1000MOL0     H31984   3.488   3.874   7.428  1.7274  1.9870 -0.0481
 1000MOL0     H31985   3.723   3.923   7.449  1.9799 -0.5794 -4.1396
 1000MOL0     H31986   4.248   4.620   8.006 -0.6930  0.6145 -4.1821
 1000MOL0     H31987   4.118   4.843   8.024  0.1891  0.5473  0.0531
 1000MOL0     H31988   4.031   5.190   8.163  0.9253 -1.9609 -0.7679
 1000MOL0     H31989   3.839   5.324   8.176 -0.1114 -0.4651  0.0106
 1000MOL0     H31990   3.669   5.464   8.162 -3.2772  1.8798  1.0654
 1000MOL0     H31991   3.627   5.297   8.098  1.3080  0.2152  1.1263
 1000MOL0     H31992   3.493   5.568   8.019 -1.4174  0.3449 -1.1337
 1000MOL0     H31993   3.440   5.405   7.977  1.1401 -1.7149  1.1198
 1000MOL0     H31994   3.323   5.545   8.161 -3.6731 -1.3806  2.7999
 1000MOL0     H31995   3.432   5.443   8.270 -3.3406 -1.8449  0.7547
 1000MOL0     H31996   3.336   5.241   8.156 -1.5214 -1.7017  0.8882
 1000MOL0     H31997   3.212   5.338   8.253  2.4511 -1.0035  1.5825
 1000MOL0     H31998   3.067   5.403   7.867 -0.9058 -1.2712  0.7089
 1000MOL0     H31999   3.864   5.410   7.749 -0.8999 -0.6650  0.1120
 1000MOL0     H32000   4.076   5.310   7.744  0.6071  0.3216  0.3503
 1001MOL0     O32001   3.382   9.207  10.360  0.2407  0.3482 -0.7136
 1001MOL0     C32002   3.429   9.286  10.284  0.1322  0.0631 -0.0808
 1001MOL0     O32003   3.360   9.361  10.192 -0.0859  0.0990  0.0700
 1001MOL0     C32004   3.219   9.373  10.194  0.0228  0.9420  0.9906
 1001MOL0     C32005   3.180   9.452  10.086  1.2045 -0.6453 -0.7779
 1001MOL0     C32006   3.041   9.472  10.059  0.7088  0.5191 -0.4126
 1001MOL0     C32007   2.942   9.421  10.132 -0.8257  0.3639  0.6966
 1001MOL0     O32008   2.811   9.432  10.098  0.3811 -0.0690  0.0913
 1001MOL0     C32009   2.768   9.571  10.092  0.6978  1.5469 -0.1310
 1001MOL0     C32010   2.622   9.581  10.125 -0.2249 -0.0251  0.1607
 1001MOL0     C32011   2.599   9.551  10.273  0.0567  0.2134 -0.1828
 1001MOL0     C32012   2.450   9.554  10.312 -1.1354  0.9193 -0.8633
 1001MOL0     C32013   2.393   9.703  10.305 -0.6457  0.2359 -0.8186
 1001MOL0     C32014   2.246   9.708  10.350 -0.1291 -0.7859  0.0689
 1001MOL0     C32015   2.184   9.844  10.350  0.1041 -0.4365  0.5223
 1001MOL0     C32016   2.034   9.856  10.408 -0.2961 -0.1966 -0.4051
 1001MOL0     N32017   1.933   9.790  10.323  0.1578  0.7722 -0.1189
 1001MOL0     C32018   1.886   9.840  10.209  0.2697  0.0219  0.6317
 1001MOL0     C32019   1.799   9.748  10.172  0.3816  0.7226 -0.2625
 1001MOL0     C32020   1.713   9.737  10.050 -0.4297  0.4277  0.0889
 1001MOL0     C32021   1.664   9.870   9.996  0.1657  0.2874 -0.1445
 1001MOL0     C32022   1.597   9.863   9.858 -0.2166 -0.2336  0.1805
 1001MOL0     C32023   1.444   9.841   9.879 -0.0149  0.1526 -1.2783
 1001MOL0     O32024   1.380   9.824   9.749  0.0701  0.5780 -0.1138
 1001MOL0     C32025   1.242   9.820   9.739  0.2236  0.2492  0.6428
 1001MOL0     C32026   1.155   9.820   9.849 -0.0586 -0.0542  1.2644
 1001MOL0     C32027   1.021   9.806   9.826  0.5182  0.4557 -0.1967
 1001MOL0     C32028   0.968   9.799   9.696 -0.3789  0.5252  0.0621
 1001MOL0     C32029   0.823   9.775   9.676  0.2212  0.1935 -0.2226
 1001MOL0     O32030   0.759   9.780   9.561  0.1270 -0.4645  0.3862
 1001MOL0     C32031   0.626   9.768   9.570  0.3882  0.5188 -0.8744
 1001MOL0     C32032   0.562   9.637   9.580 -0.0800 -0.2372  0.5261
 1001MOL0     C32033   0.426   9.630   9.546  0.5478  0.1794  0.6262
 1001MOL0     C32034   0.354   9.743   9.528 -0.2271  0.2713  0.0359
 1001MOL0     O32035   0.224   9.732   9.478 -0.8382  0.4509  0.1261
 1001MOL0     C32036   0.135   9.837   9.511  0.5583 -0.0369  0.6847
 1001MOL0     C32037  -0.017   9.797   9.492 -0.3090  0.2738 -0.2281
 1001MOL0     C32038  -0.095   9.880   9.593  0.6388 -0.4615  0.3254
 1001MOL0     C32039  -0.251   9.869   9.570  0.5872 -0.0819 -0.2302
 1001MOL0     C32040  -0.300   9.739   9.635  0.2173  0.6910 -0.9477
 1001MOL0     C32041  -0.437   9.735   9.694 -0.0110 -0.5727  0.2309
 1001MOL0     C32042  -0.547   9.730   9.594 -0.3672 -0.0139  0.5798
 1001MOL0     C32043  -0.565   9.865   9.522 -0.7531 -0.3811  0.3417
 1001MOL0    Cl32044  -0.723   9.876   9.424 -0.0200  0.2286 -0.0853
 1001MOL0     C32045   0.409   9.865   9.556  0.2648  0.1601  0.2886
 1001MOL0     C32046   0.547   9.880   9.557 -1.2690  0.1608  0.0499
 1001MOL0     O32047   0.773   9.766   9.787  0.0543 -0.3362  0.3008
 1001MOL0     C32048   1.049   9.802   9.585 -0.1124 -0.1294 -0.8279
 1001MOL0     C32049   1.182   9.817   9.605 -0.6712 -0.5829 -0.1436
 1001MOL0     N32050   1.778   9.657  10.275 -0.6116  0.5676 -0.2912
 1001MOL0     N32051   1.869   9.675  10.361 -0.0656 -0.2634 -0.0357
 1001MOL0     C32052   2.987   9.343  10.244 -0.0417 -0.1830  1.0110
 1001MOL0     C32053   3.128   9.321  10.283  0.1797 -0.0975 -0.1157
 1001MOL0     C32054   3.577   9.280  10.267  0.6136 -0.1815  0.1660
 1001MOL0     C32055   3.656   9.222  10.363  0.4246  0.1341  0.1737
 1001MOL0     C32056   3.793   9.212  10.339 -0.0373 -0.1442  0.4481
 1001MOL0     C32057   3.860   9.262  10.225 -0.3560 -0.1117  0.1195
 1001MOL0     O32058   3.998   9.254  10.233  0.3610 -0.5914  0.2910
 1001MOL0     C32059   4.066   9.329  10.136 -0.7753 -0.0677  0.0760
 1001MOL0     C32060   4.215   9.306  10.130  0.0806  0.8353 -0.2362
 1001MOL0     C32061   4.266   9.353  10.271  0.3792 -0.9090 -0.1156
 1001MOL0     C32062   4.409   9.364  10.278  0.1446  0.8507 -0.6089
 1001MOL0     C32063   4.470   9.347  10.409  1.1499 -0.8622 -0.1535
 1001MOL0     C32064   4.537   9.315  10.506  0.2156 -0.1791  0.0704
 1001MOL0     C32065   3.779   9.326  10.126 -0.2581  0.1067 -0.4597
 1001MOL0     C32066   3.639   9.334  10.149 -0.2907 -0.0507 -0.5268
 1001MOL0     H32067   3.252   9.500  10.020  2.1577 -2.0863 -0.8337
 1001MOL0     H32068   3.010   9.537   9.978 -0.6040  1.0350  0.4784
 1001MOL0     H32069   2.803   9.618   9.999  2.2525 -1.2996 -1.1133
 1001MOL0     H32070   2.828   9.612  10.174  2.0520 -2.2676  1.0175
 1001MOL0     H32071   2.563   9.508  10.068  0.5177 -3.2425  3.1456
 1001MOL0     H32072   2.590   9.680  10.091 -1.4430 -1.3643 -2.9872
 1001MOL0     H32073   2.649   9.625  10.337  0.4125  0.5668 -0.8564
 1001MOL0     H32074   2.640   9.454  10.301  2.2443  0.4702 -2.1749
 1001MOL0     H32075   2.393   9.487  10.247  0.8173 -0.6192 -1.0908
 1001MOL0     H32076   2.442   9.511  10.412 -0.8955 -0.6495 -1.4954
 1001MOL0     H32077   2.384   9.711  10.197  0.9636 -2.2685 -1.2109
 1001MOL0     H32078   2.451   9.784  10.350  0.1665 -1.8390  2.2367
 1001MOL0     H32079   2.255   9.677  10.455 -3.9972  0.6709  0.9901
 1001MOL0     H32080   2.186   9.639  10.290  1.9832 -2.1455 -0.5874
 1001MOL0     H32081   2.254   9.912  10.400  1.6075  0.1567 -2.2221
 1001MOL0     H32082   2.171   9.888  10.251 -0.8718 -2.8257 -0.4906
 1001MOL0     H32083   2.005   9.961  10.423 -1.3968 -0.5414 -0.0192
 1001MOL0     H32084   2.043   9.812  10.508 -0.0645  0.2324 -0.2322
 1001MOL0     H32085   1.921   9.926  10.152 -2.4744  1.3178  0.7479
 1001MOL0     H32086   1.629   9.668  10.061  1.2045 -1.7409 -0.0975
 1001MOL0     H32087   1.778   9.685   9.978  0.6280 -0.9905  1.9624
 1001MOL0     H32088   1.752   9.934   9.992 -1.7139  3.2145  1.7658
 1001MOL0     H32089   1.601   9.912  10.075 -3.0569 -3.1192 -0.6469
 1001MOL0     H32090   1.611   9.956   9.802 -2.6914  0.2505  0.2263
 1001MOL0     H32091   1.645   9.780   9.806 -0.4911 -0.3353  0.0841
 1001MOL0     H32092   1.402   9.928   9.930 -2.0653 -2.5277  1.9977
 1001MOL0     H32093   1.423   9.758   9.947  3.5994  1.0810  1.3124
 1001MOL0     H32094   1.205   9.817   9.945  2.6418 -0.8336 -0.0659
 1001MOL0     H32095   0.962   9.794   9.917  0.9212 -1.3832 -0.1358
 1001MOL0     H32096   0.626   9.550   9.597  4.0723  2.3052 -0.4983
 1001MOL0     H32097   0.373   9.536   9.531 -0.2351  1.0621 -3.1194
 1001MOL0     H32098   0.149   9.926   9.450 -3.7580 -0.1157 -0.7413
 1001MOL0     H32099   0.152   9.858   9.617  0.1889  1.2360  0.5087
 1001MOL0     H32100  -0.040   9.691   9.508  0.5204  0.0599 -0.3999
 1001MOL0     H32101  -0.052   9.828   9.392 -2.5858  1.6040  0.8969
 1001MOL0     H32102  -0.079   9.986   9.570 -1.2065  0.2865  2.0555
 1001MOL0     H32103  -0.062   9.877   9.698  0.3269 -1.7674  0.4072
 1001MOL0     H32104  -0.298   9.952   9.624  1.1704  0.2367 -0.1993
 1001MOL0     H32105  -0.284   9.889   9.468  0.8035  4.8827  0.4476
 1001MOL0     H32106  -0.236   9.727   9.723  0.6767  2.3109 -1.0191
 1001MOL0     H32107  -0.283   9.655   9.568 -1.8463 -1.0405  0.5674
 1001MOL0     H32108  -0.447   9.813   9.770 -1.3316 -0.3774 -0.1203
 1001MOL0     H32109  -0.426   9.651   9.762  3.8208 -1.1009 -0.7903
 1001MOL0     H32110  -0.525   9.651   9.521  1.2277  2.0513 -1.3093
 1001MOL0     H32111  -0.645   9.718   9.643  0.2711  1.3973  2.2943
 1001MOL0     H32112  -0.491   9.872   9.442 -1.1951 -1.9657 -0.2446
 1001MOL0     H32113  -0.559   9.955   9.585 -1.3951  0.0326 -0.1769
 1001MOL0     H32114   0.349   9.956   9.557 -1.0455 -0.6712  2.0601
 1001MOL0     H32115   0.594   9.977   9.554  1.8611 -1.2038  0.6325
 1001MOL0     H32116   1.009   9.789   9.484 -0.8886  0.8358 -0.6580
 1001MOL0     H32117   1.250   9.825   9.521 -1.3405 -0.8887 -0.7287
 1001MOL0     H32118   2.913   9.296  10.309 -1.8089  2.1097  0.8005
 1001MOL0     H32119   3.146   9.265  10.374 -0.4677 -0.1772 -0.0298
 1001MOL0     H32120   3.611   9.177  10.451 -0.3283  1.3327  0.4240
 1001MOL0     H32121   3.852   9.170  10.420 -0.9324 -2.5249 -0.0580
 1001MOL0     H32122   4.046   9.436  10.147 -2.4789  0.0031 -2.7348
 1001MOL0     H32123   4.041   9.306  10.032 -1.6627  1.6910 -0.1490
 1001MOL0     H32124   4.239   9.203  10.103  2.5535  1.9923 -2.9469
 1001MOL0     H32125   4.264   9.374  10.060 -1.9388  2.2505 -0.3470
 1001MOL0     H32126   4.219   9.285  10.343  1.0522 -1.4453 -0.1663
 1001MOL0     H32127   4.233   9.454  10.295 -1.3051 -1.7198  1.1775
 1001MOL0     H32128   4.449   9.281  10.218  2.1381  0.6889  0.8326
 1001MOL0     H32129   4.436   9.460  10.232 -0.2553 -0.2715 -3.3852
 1001MOL0     H32130   4.596   9.307  10.595  0.5696  0.9475 -0.0568
 1001MOL0     H32131   3.830   9.368  10.040  1.5658 -3.8475 -1.4971
 1001MOL0     H32132   3.572   9.388  10.083 -1.3732 -0.0456  0.5417
 1002MOL0     O32133   2.822   8.846   2.984 -0.4489 -0.0761  0.7308
 1002MOL0     C32134   2.866   8.849   3.095 -0.6269 -0.5196 -0.5801
 1002MOL0     O32135   2.796   8.841   3.211 -0.1394  0.3813  0.6094
 1002MOL0     C32136   2.669   8.800   3.208 -0.3227 -0.6316  0.6994
 1002MOL0     C32137   2.566   8.881   3.164 -0.7808  0.1782  1.5310
 1002MOL0     C32138   2.437   8.823   3.169  0.2118  0.7444  0.5852
 1002MOL0     C32139   2.412   8.692   3.205  0.6176 -0.0827 -1.6431
 1002MOL0     O32140   2.284   8.660   3.193  0.2393  0.1567  0.2741
 1002MOL0     C32141   2.237   8.536   3.244  0.1585 -0.1003 -0.2684
 1002MOL0     C32142   2.086   8.540   3.227 -0.0923 -0.6016 -0.1364
 1002MOL0     C32143   2.025   8.438   3.314 -0.8538  0.7950 -0.1196
 1002MOL0     C32144   1.872   8.453   3.324 -0.4161 -0.1257  0.4050
 1002MOL0     C32145   1.815   8.351   3.415  1.2200 -0.2672  0.2895
 1002MOL0     C32146   1.668   8.383   3.452 -0.0323 -0.2182  0.0210
 1002MOL0     C32147   1.566   8.368   3.338 -0.8893 -0.7506 -0.9596
 1002MOL0     C32148   1.427   8.413   3.367 -0.2767  0.2753  0.1147
 1002MOL0     N32149   1.368   8.334   3.466  0.2286 -0.5594  0.0290
 1002MOL0     C32150   1.340   8.200   3.448 -0.6271  0.7978  0.4730
 1002MOL0     C32151   1.245   8.172   3.544 -0.3405  0.7794 -1.1064
 1002MOL0     C32152   1.185   8.033   3.560  0.1503 -0.6669 -0.4107
 1002MOL0     C32153   1.058   8.037   3.644 -0.1317  0.0172  0.0991
 1002MOL0     C32154   1.005   7.895   3.641 -0.5034 -0.5066  0.3020
 1002MOL0     C32155   0.880   7.873   3.724 -0.4093 -0.8032 -0.3772
 1002MOL0     O32156   0.857   7.740   3.722 -0.5454 -0.2123  0.1112
 1002MOL0     C32157   0.737   7.692   3.763 -0.5624  0.3192 -0.3801
 1002MOL0     C32158   0.735   7.553   3.800  0.0558 -0.0356 -0.2876
 1002MOL0     C32159   0.611   7.499   3.826  0.2429 -0.4416  0.3447
 1002MOL0     C32160   0.489   7.574   3.811  0.3190  0.7488  0.1072
 1002MOL0     C32161   0.364   7.505   3.829 -0.3241 -0.0780  1.0364
 1002MOL0     O32162   0.364   7.365   3.860 -0.6696 -0.9488  0.3851
 1002MOL0     C32163   0.245   7.314   3.890  1.0088 -0.4120  0.2905
 1002MOL0     C32164   0.207   7.302   4.026  0.1396  0.0789  0.1648
 1002MOL0     C32165   0.068   7.267   4.059 -0.4372 -0.3422  0.2935
 1002MOL0     C32166  -0.025   7.240   3.953 -0.1570  1.1577  0.0419
 1002MOL0     O32167  -0.159   7.198   3.958 -0.1433 -0.2660  0.6506
 1002MOL0     C32168  -0.207   7.161   4.092 -0.2224 -0.8564  0.3846
 1002MOL0     C32169  -0.199   7.010   4.124 -0.0593  0.3673  0.7294
 1002MOL0     C32170  -0.288   6.924   4.036  0.0210  0.1300 -0.0761
 1002MOL0     C32171  -0.434   6.920   4.075 -0.6803  0.2919 -0.4187
 1002MOL0     C32172  -0.517   6.838   3.976 -0.1309  0.7341 -0.8333
 1002MOL0     C32173  -0.668   6.822   4.023  0.1183 -0.0197  0.2755
 1002MOL0     C32174  -0.758   6.738   3.924  0.2232  0.7793  0.9266
 1002MOL0     C32175  -0.877   6.676   4.006 -0.1938 -0.1741 -0.3036
 1002MOL0    Cl32176  -0.967   6.548   3.913  0.2750 -0.1708  0.2369
 1002MOL0     C32177   0.031   7.252   3.817  0.1114  0.0533 -0.0463
 1002MOL0     C32178   0.160   7.282   3.781  0.0635 -1.1004  0.5638
 1002MOL0     O32179   0.265   7.573   3.821  0.4157  0.0043  0.0261
 1002MOL0     C32180   0.498   7.705   3.772 -0.2965 -0.1006 -0.4381
 1002MOL0     C32181   0.619   7.766   3.756  0.3908  0.3950  0.3365
 1002MOL0     N32182   1.225   8.291   3.618 -0.1189  0.4992  0.3110
 1002MOL0     N32183   1.295   8.382   3.566  0.5223 -0.1324 -0.5003
 1002MOL0     C32184   2.516   8.613   3.253  0.3340  0.2058 -0.2569
 1002MOL0     C32185   2.642   8.672   3.262 -0.6217 -0.8021  0.1392
 1002MOL0     C32186   3.010   8.873   3.109  0.5975  0.2132 -0.5124
 1002MOL0     C32187   3.069   8.889   3.233  0.1411  0.2261  0.1001
 1002MOL0     C32188   3.204   8.904   3.243 -0.5011  0.8231 -0.6035
 1002MOL0     C32189   3.289   8.900   3.132  0.3412  0.1275 -0.3936
 1002MOL0     O32190   3.421   8.912   3.153  0.0397 -0.2668 -0.4864
 1002MOL0     C32191   3.515   8.843   3.066  0.3399 -0.2841  0.2943
 1002MOL0     C32192   3.653   8.845   3.139  0.6883 -0.5762  0.2233
 1002MOL0     C32193   3.761   8.799   3.037  0.8559 -0.5042  0.0830
 1002MOL0     C32194   3.902   8.849   3.075 -0.5581 -0.8447 -0.3836
 1002MOL0     C32195   3.915   8.996   3.034 -0.0177  0.0211 -0.5268
 1002MOL0     C32196   3.902   9.109   2.990  0.2502 -0.3509  0.0904
 1002MOL0     C32197   3.229   8.895   3.009  0.4938 -0.2198 -0.3502
 1002MOL0     C32198   3.090   8.903   2.996  0.2544  0.4275 -0.6197
 1002MOL0     H32199   2.582   8.980   3.122  0.8413 -1.2221 -1.4325
 1002MOL0     H32200   2.354   8.885   3.137 -0.1368  1.3977  2.5772
 1002MOL0     H32201   2.257   8.522   3.351  1.7666  1.8764 -0.2575
 1002MOL0     H32202   2.288   8.466   3.178  2.2487  1.1170 -0.0154
 1002MOL0     H32203   2.059   8.518   3.123 -0.1247 -1.9404  0.1330
 1002MOL0     H32204   2.035   8.633   3.251 -0.9690 -1.0844 -0.0929
 1002MOL0     H32205   2.064   8.440   3.416 -2.1346  1.7755  0.3631
 1002MOL0     H32206   2.050   8.344   3.262  2.3160  1.1398  0.5729
 1002MOL0     H32207   1.857   8.555   3.362 -1.1017  0.4339 -1.2746
 1002MOL0     H32208   1.825   8.443   3.226 -3.0413  2.2381  1.3020
 1002MOL0     H32209   1.878   8.334   3.503  0.3512 -0.4267  0.8987
 1002MOL0     H32210   1.804   8.251   3.372 -3.2351 -1.5039  3.5450
 1002MOL0     H32211   1.670   8.486   3.489 -2.7995 -0.8368  2.2521
 1002MOL0     H32212   1.637   8.316   3.533  1.6878 -0.7837  0.2400
 1002MOL0     H32213   1.603   8.411   3.245  1.9310 -1.3574 -0.1963
 1002MOL0     H32214   1.570   8.261   3.321  1.0589 -1.0466  0.8999
 1002MOL0     H32215   1.359   8.422   3.282  1.4597 -0.3110 -1.3818
 1002MOL0     H32216   1.434   8.514   3.408  1.6341 -0.0469  0.6796
 1002MOL0     H32217   1.384   8.130   3.377 -1.4956 -0.1740  0.8803
 1002MOL0     H32218   1.247   7.966   3.621  1.7471 -0.4019 -1.6798
 1002MOL0     H32219   1.175   7.991   3.459 -0.7301  1.9916 -1.5098
 1002MOL0     H32220   0.988   8.110   3.603 -0.6883 -0.1524  0.7367
 1002MOL0     H32221   1.079   8.072   3.745 -0.5593 -0.7334  0.4575
 1002MOL0     H32222   0.983   7.873   3.536  2.1873  0.8368 -0.6488
 1002MOL0     H32223   1.087   7.827   3.666 -0.8735 -2.0978 -2.3896
 1002MOL0     H32224   0.808   7.943   3.681  3.2349  3.1872 -0.7232
 1002MOL0     H32225   0.902   7.901   3.828 -0.1556 -1.7248 -0.1691
 1002MOL0     H32226   0.827   7.496   3.796  0.4144  0.5590 -3.7278
 1002MOL0     H32227   0.603   7.404   3.878 -0.2863 -0.3432  0.4555
 1002MOL0     H32228   0.282   7.319   4.103  1.3772 -1.1726 -0.7141
 1002MOL0     H32229   0.037   7.262   4.163 -0.3881 -0.9787  0.2763
 1002MOL0     H32230  -0.313   7.186   4.098 -0.3512 -0.9791 -1.0578
 1002MOL0     H32231  -0.155   7.210   4.175 -0.3961  0.4138 -0.2277
 1002MOL0     H32232  -0.226   7.001   4.229  0.0073 -0.2637  0.6924
 1002MOL0     H32233  -0.097   6.970   4.121 -0.8555 -1.7106  0.2700
 1002MOL0     H32234  -0.254   6.820   4.046 -1.7708 -0.6569 -1.6405
 1002MOL0     H32235  -0.277   6.964   3.935 -2.5112  1.1736 -0.0166
 1002MOL0     H32236  -0.456   6.873   4.171 -0.1294 -0.6242 -0.7312
 1002MOL0     H32237  -0.471   7.023   4.082 -1.2108 -0.0262  3.9424
 1002MOL0     H32238  -0.479   6.737   3.962 -1.5695 -0.5446  3.2246
 1002MOL0     H32239  -0.514   6.897   3.884 -0.4777  0.0756 -1.2719
 1002MOL0     H32240  -0.706   6.923   4.042  0.9101 -0.1407  3.0059
 1002MOL0     H32241  -0.667   6.776   4.122 -0.0482  0.3413  0.4494
 1002MOL0     H32242  -0.785   6.798   3.837 -1.2888 -0.0435  0.8035
 1002MOL0     H32243  -0.702   6.654   3.880 -0.6918  1.6704 -2.1639
 1002MOL0     H32244  -0.945   6.755   4.039 -1.0661 -1.4103  0.9431
 1002MOL0     H32245  -0.835   6.630   4.095  0.0517 -1.2210 -0.9457
 1002MOL0     H32246  -0.030   7.240   3.728 -2.2438  0.3165  1.4462
 1002MOL0     H32247   0.212   7.295   3.687 -0.4140  1.3485  0.5741
 1002MOL0     H32248   0.418   7.774   3.744 -0.8143 -1.6098 -2.9892
 1002MOL0     H32249   0.620   7.867   3.715 -2.0389  0.8811  1.3048
 1002MOL0     H32250   2.491   8.520   3.303  0.2375  1.1566  1.5837
 1002MOL0     H32251   2.716   8.617   3.318 -0.6946 -0.8005  0.2378
 1002MOL0     H32252   3.033   8.863   3.331  0.1359 -3.8981 -0.8139
 1002MOL0     H32253   3.235   8.921   3.345 -2.5282 -0.8031  0.3653
 1002MOL0     H32254   3.523   8.905   2.976  0.6800  1.8478  1.7193
 1002MOL0     H32255   3.489   8.739   3.045 -0.8477  0.0097  0.2210
 1002MOL0     H32256   3.674   8.951   3.158 -1.0149 -0.2604  0.5223
 1002MOL0     H32257   3.649   8.779   3.227  1.2002 -0.8428  0.0447
 1002MOL0     H32258   3.725   8.830   2.938 -1.7486 -0.3439  0.9910
 1002MOL0     H32259   3.759   8.690   3.038 -0.1314 -0.5209 -1.1529
 1002MOL0     H32260   3.935   8.828   3.177  2.0961 -1.5545 -1.3056
 1002MOL0     H32261   3.967   8.793   3.008 -0.2019 -2.1164  0.9846
 1002MOL0     H32262   3.884   9.208   2.953 -0.3388 -0.3298  0.4308
 1002MOL0     H32263   3.287   8.896   2.918  0.7282 -0.2691 -0.2003
 1002MOL0     H32264   3.035   8.909   2.903  0.4858  1.7549 -0.6861
 1003MOL0     O32265   6.731   6.294   0.872  0.4730 -0.5062 -0.5177
 1003MOL0     C32266   6.738   6.171   0.867 -0.2838  0.6910  0.9418
 1003MOL0     O32267   6.631   6.081   0.899 -0.1277  0.0681 -0.4511
 1003MOL0     C32268   6.507   6.114   0.936 -0.0274  0.2770  0.1139
 1003MOL0     C32269   6.446   6.021   1.024 -0.4980 -0.7567 -0.4100
 1003MOL0     C32270   6.329   6.040   1.084  0.0296 -0.9175  0.4749
 1003MOL0     C32271   6.250   6.158   1.054 -0.0532  0.6357 -1.4064
 1003MOL0     O32272   6.124   6.172   1.107  0.2129 -0.5561  0.2345
 1003MOL0     C32273   6.032   6.250   1.032 -0.6540  0.1569  0.5450
 1003MOL0     C32274   5.886   6.221   1.074 -1.1564 -0.6117  0.2016
 1003MOL0     C32275   5.786   6.325   1.024  0.5781  0.9640  0.0142
 1003MOL0     C32276   5.649   6.271   1.043 -0.1594 -0.5019  0.1227
 1003MOL0     C32277   5.537   6.349   0.962 -0.0114  0.8048  0.1156
 1003MOL0     C32278   5.399   6.278   0.969 -0.9603 -0.2428  0.2117
 1003MOL0     C32279   5.283   6.359   0.927 -0.5182  0.6664  0.4608
 1003MOL0     C32280   5.260   6.371   0.773 -0.5894 -0.6411 -0.2573
 1003MOL0     N32281   5.128   6.337   0.736  0.2835 -0.3940 -0.2692
 1003MOL0     C32282   5.093   6.249   0.637  0.5100 -1.8183 -0.9868
 1003MOL0     C32283   4.968   6.285   0.592 -0.4574 -0.1531  0.6321
 1003MOL0     C32284   4.901   6.214   0.475  0.2672 -0.3404  0.8661
 1003MOL0     C32285   4.762   6.277   0.427 -0.0850  0.0688  0.1559
 1003MOL0     C32286   4.706   6.204   0.308  0.6163 -0.3486 -0.1544
 1003MOL0     C32287   4.569   6.243   0.260 -0.6558 -0.2828  0.1571
 1003MOL0     O32288   4.474   6.210   0.370 -0.2233 -0.0824  0.0331
 1003MOL0     C32289   4.341   6.210   0.345 -0.3742  0.8678 -0.6878
 1003MOL0     C32290   4.275   6.240   0.225 -0.0737  0.1583 -0.6876
 1003MOL0     C32291   4.132   6.225   0.221 -0.6231  0.2927  0.2452
 1003MOL0     C32292   4.060   6.177   0.331  1.1877 -0.1416  0.2342
 1003MOL0     C32293   3.916   6.145   0.305  0.3678  0.1357  1.2133
 1003MOL0     O32294   3.853   6.213   0.205 -0.0349 -0.0517  0.1987
 1003MOL0     C32295   3.737   6.173   0.170  0.5702  0.8685  0.7155
 1003MOL0     C32296   3.626   6.197   0.255  0.2912 -0.4292 -0.3773
 1003MOL0     C32297   3.505   6.143   0.220  0.2266  0.4518 -0.0658
 1003MOL0     C32298   3.486   6.073   0.100  1.6033  0.1140  0.7140
 1003MOL0     O32299   3.367   6.020   0.069  0.3495  0.0061  0.3167
 1003MOL0     C32300   3.300   6.104  -0.018  0.5632  0.1953 -1.0107
 1003MOL0     C32301   3.152   6.059  -0.018 -0.4127 -0.2925  0.0370
 1003MOL0     C32302   3.075   6.158  -0.108 -1.1081  0.7332 -0.3526
 1003MOL0     C32303   2.922   6.130  -0.119  0.0522 -0.1932  0.2917
 1003MOL0     C32304   2.850   6.253  -0.179 -0.3366 -0.7470 -1.1264
 1003MOL0     C32305   2.817   6.350  -0.064  0.1213 -0.0638 -0.3807
 1003MOL0     C32306   2.718   6.449  -0.116  0.1652 -0.4727 -1.0416
 1003MOL0     C32307   2.710   6.565  -0.011  0.1006  0.2513 -0.6810
 1003MOL0    Cl32308   2.625   6.706  -0.069  0.0060 -0.1314 -0.4345
 1003MOL0     C32309   3.593   6.056   0.007 -0.1538  0.1940 -0.2666
 1003MOL0     C32310   3.720   6.098   0.049  1.0588 -0.3284 -0.6907
 1003MOL0     O32311   3.868   6.053   0.381 -0.4828  0.3190  0.5511
 1003MOL0     C32312   4.131   6.145   0.446  0.7208  0.7718  0.1559
 1003MOL0     C32313   4.266   6.160   0.457  0.0908 -0.0179  0.4199
 1003MOL0     N32314   4.931   6.392   0.666  0.2358 -0.2718  0.2890
 1003MOL0     N32315   5.022   6.418   0.754  0.3151  0.4582  0.8099
 1003MOL0     C32316   6.307   6.244   0.961  0.0724 -0.0678  0.7969
 1003MOL0     C32317   6.433   6.229   0.898 -0.2677 -0.4804  0.6289
 1003MOL0     C32318   6.855   6.103   0.804  0.4009  0.1861 -1.0239
 1003MOL0     C32319   6.865   5.962   0.777 -0.7652  0.4936 -0.8040
 1003MOL0     C32320   6.973   5.898   0.729 -0.1708 -0.0036 -0.5639
 1003MOL0     C32321   7.086   5.971   0.705 -0.5535  0.4390  0.0192
 1003MOL0     O32322   7.187   5.913   0.636  0.1224  0.0600 -0.3123
 1003MOL0     C32323   7.320   5.969   0.647  0.2991 -0.6803 -0.4873
 1003MOL0     C32324   7.428   5.882   0.581 -0.5665  0.2453  0.2436
 1003MOL0     C32325   7.563   5.964   0.595 -0.4378 -0.5582 -1.0777
 1003MOL0     C32326   7.689   5.872   0.560  0.0309 -0.6390 -0.1438
 1003MOL0     C32327   7.807   5.951   0.574 -1.5479 -0.5469  0.2353
 1003MOL0     C32328   7.908   6.028   0.569 -0.7203 -0.2723  1.2132
 1003MOL0     C32329   7.081   6.108   0.721 -0.6563 -0.0150  0.4779
 1003MOL0     C32330   6.967   6.178   0.768  0.1783  0.1729  0.3648
 1003MOL0     H32331   6.514   5.941   1.050 -2.8475 -2.1237  2.0379
 1003MOL0     H32332   6.290   5.981   1.167  4.5206 -3.2692  1.2266
 1003MOL0     H32333   6.036   6.222   0.926 -3.5477 -0.2978  0.4744
 1003MOL0     H32334   6.054   6.356   1.041  1.4053 -0.2758  1.1262
 1003MOL0     H32335   5.883   6.220   1.183 -1.5845 -3.9115  0.2646
 1003MOL0     H32336   5.862   6.119   1.045  1.6752 -1.8974  1.9469
 1003MOL0     H32337   5.801   6.339   0.916 -0.5412  2.2940 -0.0004
 1003MOL0     H32338   5.796   6.418   1.081  1.4007  0.7450  0.2374
 1003MOL0     H32339   5.637   6.164   1.025  0.9148 -0.0998 -4.0301
 1003MOL0     H32340   5.632   6.261   1.151  3.4499 -4.2225  0.6108
 1003MOL0     H32341   5.568   6.351   0.857 -1.6268 -0.4999 -0.4143
 1003MOL0     H32342   5.537   6.456   0.986  0.5738  0.8655 -0.1261
 1003MOL0     H32343   5.381   6.275   1.077  0.3163  5.8263  0.9178
 1003MOL0     H32344   5.384   6.180   0.923 -1.4108 -0.9873  1.8574
 1003MOL0     H32345   5.193   6.311   0.968 -1.2580  0.5165 -1.2126
 1003MOL0     H32346   5.303   6.461   0.962 -0.2561  0.0434  2.1965
 1003MOL0     H32347   5.331   6.306   0.722 -1.5496 -0.1363 -2.3310
 1003MOL0     H32348   5.273   6.477   0.748 -0.6667 -0.8305 -1.1257
 1003MOL0     H32349   5.146   6.165   0.593  1.1245 -0.9292 -2.0028
 1003MOL0     H32350   4.868   6.115   0.509  1.0286 -0.8230  0.2309
 1003MOL0     H32351   4.975   6.216   0.395 -0.3169  5.1691  0.0694
 1003MOL0     H32352   4.771   6.383   0.402  1.5129 -0.3318 -1.1549
 1003MOL0     H32353   4.685   6.265   0.503  0.9597 -1.1504  1.0632
 1003MOL0     H32354   4.764   6.208   0.216 -3.9779  0.0988 -3.3558
 1003MOL0     H32355   4.704   6.096   0.327  3.6020 -0.9121 -2.3156
 1003MOL0     H32356   4.540   6.179   0.176 -1.9152  0.7786 -0.2458
 1003MOL0     H32357   4.560   6.345   0.221  0.6559 -1.3087 -3.2227
 1003MOL0     H32358   4.305   6.268   0.125 -1.3815 -1.2183 -1.5147
 1003MOL0     H32359   4.077   6.253   0.132 -1.9614  0.0561  0.9677
 1003MOL0     H32360   3.649   6.245   0.349  1.7102 -1.7720  0.0074
 1003MOL0     H32361   3.416   6.159   0.281 -0.1219 -2.1838  0.2311
 1003MOL0     H32362   3.344   6.090  -0.117  0.5027 -3.0071 -0.6694
 1003MOL0     H32363   3.298   6.208   0.016 -2.0471  0.4160 -1.6245
 1003MOL0     H32364   3.107   6.069   0.082 -1.6163  1.4960 -0.6371
 1003MOL0     H32365   3.146   5.952  -0.037 -1.4845  0.0786 -2.0023
 1003MOL0     H32366   3.126   6.145  -0.204 -0.4528  3.4407 -0.4590
 1003MOL0     H32367   3.091   6.264  -0.084 -1.3596  1.0774 -1.6066
 1003MOL0     H32368   2.897   6.056  -0.196 -1.2611  0.9303 -0.4099
 1003MOL0     H32369   2.882   6.095  -0.024 -0.9159 -0.8392 -0.3298
 1003MOL0     H32370   2.750   6.225  -0.214 -2.4953  1.5551  2.5355
 1003MOL0     H32371   2.901   6.295  -0.267 -1.2854  3.0720 -0.0640
 1003MOL0     H32372   2.910   6.398  -0.033  1.6098 -2.4351 -0.9097
 1003MOL0     H32373   2.774   6.290   0.017 -1.4684  1.3541 -0.1351
 1003MOL0     H32374   2.752   6.491  -0.211 -0.2061  1.2089 -0.4555
 1003MOL0     H32375   2.618   6.405  -0.127  0.0792 -2.0284  3.8440
 1003MOL0     H32376   2.809   6.607   0.006 -1.2780  3.4536  0.3985
 1003MOL0     H32377   2.671   6.517   0.079  1.5668  0.3546  0.0328
 1003MOL0     H32378   3.567   6.000  -0.082  2.2781  0.8977 -1.4968
 1003MOL0     H32379   3.801   6.086  -0.021  0.1862  3.8045 -2.7566
 1003MOL0     H32380   4.075   6.092   0.523  4.0491  2.9496  4.5170
 1003MOL0     H32381   4.318   6.120   0.543  0.0697  1.2364  1.0481
 1003MOL0     H32382   6.243   6.321   0.919 -1.5081 -1.2811  0.9023
 1003MOL0     H32383   6.468   6.292   0.817  1.7417 -2.3182 -0.0365
 1003MOL0     H32384   6.786   5.895   0.808  2.4902 -2.5307  1.8167
 1003MOL0     H32385   6.978   5.791   0.709  1.8542 -0.5458  2.2942
 1003MOL0     H32386   7.338   5.988   0.753 -0.2236 -0.5736 -0.4148
 1003MOL0     H32387   7.324   6.064   0.592 -0.0635 -1.8347 -2.6147
 1003MOL0     H32388   7.451   5.788   0.632  1.3752  0.5951  0.0965
 1003MOL0     H32389   7.408   5.865   0.475 -1.4430  2.4597 -0.0047
 1003MOL0     H32390   7.575   6.013   0.692 -0.9025  1.2704 -1.8928
 1003MOL0     H32391   7.557   6.039   0.515 -0.3493 -0.3490 -0.8891
 1003MOL0     H32392   7.697   5.776   0.612  0.5114  0.6855  2.4019
 1003MOL0     H32393   7.680   5.854   0.453 -0.8694 -0.2639 -0.1422
 1003MOL0     H32394   7.993   6.093   0.562 -2.0174  1.5563  1.6298
 1003MOL0     H32395   7.166   6.167   0.689 -0.8681 -2.2455 -5.4321
 1003MOL0     H32396   6.966   6.286   0.777  0.6380  0.1658  0.5330
 1004MOL0     O32397   7.103  10.530  10.410  0.8547 -0.2002  0.8740
 1004MOL0     C32398   7.137  10.425  10.354  0.4662 -0.5378  0.5110
 1004MOL0     O32399   7.060  10.322  10.336  0.3362  0.0270 -0.2371
 1004MOL0     C32400   6.922  10.334  10.362  0.2941 -0.8352  0.5402
 1004MOL0     C32401   6.848  10.233  10.435  0.1237 -0.4228 -0.3395
 1004MOL0     C32402   6.715  10.240  10.463  0.4637 -0.6305 -0.5004
 1004MOL0     C32403   6.636  10.337  10.406 -0.3659 -0.2750 -0.2488
 1004MOL0     O32404   6.499  10.335  10.439 -0.4760  0.0759  0.5083
 1004MOL0     C32405   6.412  10.431  10.371 -0.3381  0.2262  0.3330
 1004MOL0     C32406   6.267  10.392  10.397  0.3636 -0.5628 -0.4989
 1004MOL0     C32407   6.173  10.507  10.348  0.4455 -0.1254 -1.4131
 1004MOL0     C32408   6.026  10.474  10.348 -0.2904 -0.1637 -0.2663
 1004MOL0     C32409   5.947  10.599  10.323  0.1636 -0.2089 -0.1578
 1004MOL0     C32410   5.796  10.578  10.331 -0.1505 -0.7660 -0.0103
 1004MOL0     C32411   5.732  10.720  10.290  0.8409 -0.1643 -0.3401
 1004MOL0     C32412   5.577  10.724  10.304  0.4048 -0.4246  0.0532
 1004MOL0     N32413   5.499  10.603  10.264 -0.1915  0.5041 -1.1020
 1004MOL0     C32414   5.422  10.534  10.355  0.2871  0.1763 -0.4782
 1004MOL0     C32415   5.397  10.415  10.295 -0.3709 -0.4352 -0.6251
 1004MOL0     C32416   5.317  10.304  10.348  0.6734  0.3120  0.2171
 1004MOL0     C32417   5.174  10.310  10.303 -0.5615 -0.3664 -0.8463
 1004MOL0     C32418   5.096  10.375  10.420 -0.6972  0.3126 -0.2365
 1004MOL0     C32419   4.959  10.434  10.377  0.3689  0.1873  0.7743
 1004MOL0     O32420   4.870  10.441  10.489 -0.0681  0.2307 -1.1121
 1004MOL0     C32421   4.745  10.490  10.483  0.0037  0.5882 -0.3816
 1004MOL0     C32422   4.672  10.501  10.357  0.3870  0.5277 -0.7431
 1004MOL0     C32423   4.532  10.526  10.361  0.2580  0.2637  0.2602
 1004MOL0     C32424   4.465  10.539  10.480 -0.1804 -0.1690 -0.0458
 1004MOL0     C32425   4.321  10.578  10.476  0.3384  0.5267  0.8825
 1004MOL0     O32426   4.238  10.525  10.376  0.0322  0.8039 -0.2803
 1004MOL0     C32427   4.114  10.578  10.380  0.5877 -0.1813 -0.2971
 1004MOL0     C32428   4.091  10.713  10.336  0.4540  0.1488 -0.5310
 1004MOL0     C32429   3.961  10.768  10.351  0.2764 -0.2885 -0.0566
 1004MOL0     C32430   3.850  10.691  10.390 -0.4627  0.4467 -0.5921
 1004MOL0     O32431   3.727  10.752  10.390  0.5374 -0.3313 -0.5132
 1004MOL0     C32432   3.606  10.681  10.439  0.2421 -0.0428 -0.4415
 1004MOL0     C32433   3.487  10.777  10.424  0.9493  0.4011  0.3827
 1004MOL0     C32434   3.507  10.910  10.503 -0.6011  0.4253 -0.0925
 1004MOL0     C32435   3.390  11.008  10.505 -0.0966 -0.3689 -0.7797
 1004MOL0     C32436   3.269  10.945  10.564  0.2414 -0.4822  0.0847
 1004MOL0     C32437   3.161  11.051  10.581 -0.4509  0.7012  0.2194
 1004MOL0     C32438   3.029  10.992  10.640 -0.4684 -0.3721 -1.0483
 1004MOL0     C32439   2.948  11.083  10.737 -0.5429  0.1755  0.1724
 1004MOL0    Cl32440   2.898  11.231  10.652 -0.1396 -0.2486  0.1310
 1004MOL0     C32441   3.883  10.561  10.428  0.3836  0.1213  0.3478
 1004MOL0     C32442   4.005  10.508  10.434  0.3547 -0.2641  0.1183
 1004MOL0     O32443   4.280  10.646  10.569 -0.6960  0.4128 -0.6008
 1004MOL0     C32444   4.537  10.531  10.606 -0.3937 -0.9019  0.0883
 1004MOL0     C32445   4.674  10.508  10.609  0.0280 -0.3521 -0.2407
 1004MOL0     N32446   5.469  10.413  10.177  0.3581  0.1385  0.3646
 1004MOL0     N32447   5.519  10.529  10.155 -0.7960 -0.9475  0.0734
 1004MOL0     C32448   6.706  10.435  10.331  0.1958  0.2425  0.8670
 1004MOL0     C32449   6.838  10.436  10.302 -0.2190 -0.4388  0.2473
 1004MOL0     C32450   7.283  10.413  10.327  0.9813 -0.3305  0.9100
 1004MOL0     C32451   7.364  10.529  10.323  0.0338  0.0146 -0.5673
 1004MOL0     C32452   7.501  10.515  10.300 -0.1692 -0.1995 -0.8185
 1004MOL0     C32453   7.562  10.387  10.280  0.6720  0.0257  0.0431
 1004MOL0     O32454   7.694  10.367  10.243  0.7478  0.0925  0.6033
 1004MOL0     C32455   7.776  10.478  10.216 -1.2919  0.7314  0.5725
 1004MOL0     C32456   7.868  10.442  10.087  0.0487 -0.4763 -0.2084
 1004MOL0     C32457   8.006  10.394  10.133 -0.0144  0.1143  0.2932
 1004MOL0     C32458   8.088  10.364  10.012  0.2815 -0.1772  0.4805
 1004MOL0     C32459   8.212  10.307  10.049  0.2270  0.1419 -1.0508
 1004MOL0     C32460   8.315  10.262  10.094  0.4903 -0.1165 -0.7399
 1004MOL0     C32461   7.476  10.273  10.281 -0.2231 -0.2745 -0.3622
 1004MOL0     C32462   7.344  10.287  10.314 -0.1866  0.3719 -0.8848
 1004MOL0     H32463   6.909  10.162  10.490  1.3540  0.2738 -0.7595
 1004MOL0     H32464   6.676  10.163  10.529  0.3615 -1.8288 -1.8975
 1004MOL0     H32465   6.445  10.438  10.267 -0.4683 -2.2081  0.0529
 1004MOL0     H32466   6.428  10.525  10.423  1.0988  0.6258 -0.7655
 1004MOL0     H32467   6.240  10.386  10.503 -2.6359  1.0478 -1.0713
 1004MOL0     H32468   6.237  10.297  10.353  1.0814 -1.1942  0.3129
 1004MOL0     H32469   6.206  10.538  10.249  2.3214  1.2518 -0.4268
 1004MOL0     H32470   6.185  10.590  10.419 -2.9392 -0.0916 -0.7040
 1004MOL0     H32471   6.010  10.399  10.270  0.9531  0.0786 -0.7717
 1004MOL0     H32472   5.990  10.438  10.444  0.0284  0.9087  0.2688
 1004MOL0     H32473   5.971  10.640  10.225  0.7292 -2.3800 -0.9786
 1004MOL0     H32474   5.967  10.682  10.392  0.1887 -0.2909 -0.0643
 1004MOL0     H32475   5.772  10.542  10.431  2.4710 -0.0214  0.9802
 1004MOL0     H32476   5.776  10.498  10.259 -2.6624 -0.7213  0.5645
 1004MOL0     H32477   5.773  10.805  10.346 -0.4149  0.0671  0.2549
 1004MOL0     H32478   5.756  10.743  10.186  1.0186 -0.3194 -0.3343
 1004MOL0     H32479   5.540  10.798  10.232  0.2930 -0.5030  0.0300
 1004MOL0     H32480   5.553  10.761  10.404  0.8393  1.1800 -0.4123
 1004MOL0     H32481   5.384  10.570  10.450  0.4284  1.6399 -0.9472
 1004MOL0     H32482   5.324  10.301  10.457  0.0006 -1.2976  0.2442
 1004MOL0     H32483   5.353  10.211  10.303 -1.9576  0.3376 -2.2264
 1004MOL0     H32484   5.128  10.214  10.276 -1.2632  0.0394 -1.1429
 1004MOL0     H32485   5.160  10.373  10.215  2.8027  1.9284  0.1004
 1004MOL0     H32486   5.076  10.303  10.500  2.4410 -0.5898 -0.1172
 1004MOL0     H32487   5.160  10.449  10.471  1.6676 -3.3059  2.5858
 1004MOL0     H32488   4.914  10.366  10.304  2.7888 -2.7530  1.8209
 1004MOL0     H32489   4.965  10.534  10.331 -0.3074  0.7270  1.8347
 1004MOL0     H32490   4.719  10.482  10.261 -0.7030  2.0221 -1.6104
 1004MOL0     H32491   4.470  10.534  10.272 -0.7036  1.3010  0.9965
 1004MOL0     H32492   4.173  10.757  10.281  1.3544 -1.1231 -0.2555
 1004MOL0     H32493   3.952  10.873  10.325  1.0465  0.5405  2.6590
 1004MOL0     H32494   3.615  10.639  10.540  1.3162  0.9352 -0.1071
 1004MOL0     H32495   3.591  10.591  10.378 -0.3865 -2.0145  2.4525
 1004MOL0     H32496   3.401  10.718  10.456  2.4571 -0.6809  2.7333
 1004MOL0     H32497   3.475  10.798  10.317  0.4684  1.6303  0.6604
 1004MOL0     H32498   3.590  10.971  10.468 -1.3971  2.4741  1.4119
 1004MOL0     H32499   3.530  10.862  10.599  3.0364  1.6855 -0.2058
 1004MOL0     H32500   3.415  11.103  10.554 -4.1933  0.1092  0.8117
 1004MOL0     H32501   3.376  11.033  10.400 -2.9689  1.0121 -0.1986
 1004MOL0     H32502   3.300  10.905  10.661 -1.6552  1.3009  1.5380
 1004MOL0     H32503   3.228  10.866  10.500  0.5779 -1.1871  0.7296
 1004MOL0     H32504   3.150  11.111  10.490  2.3282  0.9717 -0.0317
 1004MOL0     H32505   3.211  11.121  10.650 -0.1395 -0.2628  0.9911
 1004MOL0     H32506   2.975  10.971  10.547 -1.6902 -0.5940 -0.3132
 1004MOL0     H32507   3.045  10.894  10.686  2.1094  0.1147 -0.7419
 1004MOL0     H32508   3.012  11.112  10.821 -2.6288  0.4443  1.7591
 1004MOL0     H32509   2.862  11.030  10.779  0.6253 -1.6842  0.3383
 1004MOL0     H32510   3.801  10.494  10.454  1.4134 -0.8253  1.2377
 1004MOL0     H32511   4.000  10.402  10.457 -2.8441  0.2344  2.4163
 1004MOL0     H32512   4.487  10.555  10.700 -2.4360 -3.7105 -0.1542
 1004MOL0     H32513   4.714  10.501  10.710  0.8738 -3.0701 -0.6814
 1004MOL0     H32514   6.648  10.517  10.288 -2.7420 -1.6887  0.8271
 1004MOL0     H32515   6.883  10.514  10.242 -0.0309  0.0118  0.9667
 1004MOL0     H32516   7.320  10.626  10.345  0.8686  0.7450 -1.9571
 1004MOL0     H32517   7.555  10.609  10.293  0.5693 -0.2922  2.2193
 1004MOL0     H32518   7.840  10.512  10.298 -1.7073 -3.4849  2.9323
 1004MOL0     H32519   7.723  10.568  10.183 -0.7347  0.9138  0.1691
 1004MOL0     H32520   7.805  10.379  10.024 -1.1344  0.4124  0.0509
 1004MOL0     H32521   7.884  10.538  10.037  0.0873  1.1197  2.6316
 1004MOL0     H32522   7.993  10.299  10.187  1.3165 -0.3310 -0.1312
 1004MOL0     H32523   8.066  10.467  10.188 -0.6073  0.1996  0.8320
 1004MOL0     H32524   8.028  10.306   9.941  1.2640 -1.0616  0.3367
 1004MOL0     H32525   8.109  10.458   9.960  3.4726 -2.1279 -2.1684
 1004MOL0     H32526   8.409  10.222  10.125 -0.6015 -1.6695  0.7801
 1004MOL0     H32527   7.501  10.169  10.262 -1.6848 -0.9321  1.0708
 1004MOL0     H32528   7.282  10.198  10.320 -1.9588  1.4925 -1.5890
 1005MOL0     O32529   7.924   5.089   0.189 -0.3423 -0.1884 -0.6617
 1005MOL0     C32530   7.873   4.996   0.137 -0.5035 -0.7772  0.2450
 1005MOL0     O32531   7.933   4.913   0.041  0.6885  0.3157 -0.7106
 1005MOL0     C32532   8.062   4.911  -0.001  0.1587 -0.2838 -0.0456
 1005MOL0     C32533   8.169   4.950   0.073 -0.1873 -0.0824 -0.8170
 1005MOL0     C32534   8.297   4.952   0.020  0.1439  0.3539  0.0080
 1005MOL0     C32535   8.321   4.923  -0.115 -0.5071 -0.2094  0.3802
 1005MOL0     O32536   8.445   4.925  -0.170 -0.2019 -0.0712  0.3450
 1005MOL0     C32537   8.564   4.952  -0.083  0.0410  0.0570  0.4060
 1005MOL0     C32538   8.682   4.915  -0.170  0.2970 -0.7227 -0.1342
 1005MOL0     C32539   8.816   4.931  -0.094  0.7734  0.2995  0.4884
 1005MOL0     C32540   8.929   4.909  -0.194  0.4003 -1.0854  0.3970
 1005MOL0     C32541   8.953   4.768  -0.245 -0.3458  0.5436 -0.2762
 1005MOL0     C32542   8.992   4.661  -0.133  1.0420 -0.3211 -0.6103
 1005MOL0     C32543   9.102   4.706  -0.033  1.3230 -0.9185 -0.1904
 1005MOL0     C32544   9.176   4.590   0.025  0.9463 -0.9965  0.5878
 1005MOL0     N32545   9.101   4.522   0.130 -0.8424  0.1369 -0.0704
 1005MOL0     C32546   9.043   4.582   0.238  0.3933  0.1882  0.1979
 1005MOL0     C32547   9.015   4.479   0.324 -0.1542 -0.6584  0.1613
 1005MOL0     C32548   8.948   4.470   0.461 -0.9628  0.1322 -0.1679
 1005MOL0     C32549   9.039   4.405   0.563 -0.6088 -0.6336  0.2626
 1005MOL0     C32550   8.970   4.401   0.698 -0.4816  0.2066 -0.2664
 1005MOL0     C32551   9.054   4.332   0.807  0.1321  0.1396 -0.8705
 1005MOL0     O32552   9.192   4.369   0.797  0.3565 -0.2995  0.1284
 1005MOL0     C32553   9.271   4.436   0.894  0.7026 -0.3309 -0.6144
 1005MOL0     C32554   9.241   4.437   1.032 -0.3590  0.2539 -0.1249
 1005MOL0     C32555   9.324   4.517   1.109  0.2645  0.4455  0.2383
 1005MOL0     C32556   9.434   4.593   1.064  0.0143 -0.1460 -0.7832
 1005MOL0     C32557   9.517   4.675   1.157 -0.9010 -0.7879 -0.1167
 1005MOL0     O32558   9.471   4.692   1.277 -0.2046 -0.0245 -0.0100
 1005MOL0     C32559   9.534   4.771   1.375 -0.9588  0.3272 -1.0006
 1005MOL0     C32560   9.467   4.873   1.449 -0.2496 -0.6934  0.5408
 1005MOL0     C32561   9.532   4.953   1.547 -0.5020  0.8867 -0.3566
 1005MOL0     C32562   9.672   4.929   1.579  0.3466  0.3608  0.1233
 1005MOL0     O32563   9.736   5.001   1.667 -0.1132  0.3429  0.1023
 1005MOL0     C32564   9.876   4.972   1.697  0.0728  0.1337  0.7582
 1005MOL0     C32565   9.966   5.028   1.578 -0.4097 -0.3477  0.0081
 1005MOL0     C32566  10.121   5.015   1.588  0.4127  0.1964 -0.5605
 1005MOL0     C32567  10.193   5.055   1.462 -0.2098 -1.0167  0.4279
 1005MOL0     C32568  10.336   5.033   1.466 -0.0797 -0.4131  0.8163
 1005MOL0     C32569  10.398   5.064   1.338 -0.8567  1.0449  0.3875
 1005MOL0     C32570  10.552   5.054   1.320  0.0253  0.2011 -0.2150
 1005MOL0     C32571  10.627   5.070   1.445 -0.2279 -0.7144 -0.1916
 1005MOL0    Cl32572  10.579   5.217   1.519  0.3024 -0.4847 -0.2038
 1005MOL0     C32573   9.731   4.821   1.503  0.0205 -1.0324 -0.2243
 1005MOL0     C32574   9.668   4.747   1.414 -0.0780  0.5914 -0.2085
 1005MOL0     O32575   9.623   4.719   1.113  0.3984  0.4157  0.0328
 1005MOL0     C32576   9.479   4.571   0.935 -0.0982 -0.7761 -0.0832
 1005MOL0     C32577   9.396   4.492   0.857 -0.1663 -0.5565  1.2787
 1005MOL0     N32578   9.037   4.364   0.248 -0.0275 -0.0458  0.2060
 1005MOL0     N32579   9.102   4.390   0.143 -0.4881  0.2237  0.8038
 1005MOL0     C32580   8.209   4.879  -0.192 -0.9845  0.0658  0.1562
 1005MOL0     C32581   8.085   4.868  -0.133  0.0719 -0.0455  0.8726
 1005MOL0     C32582   7.726   4.979   0.146 -0.0391 -0.4368 -1.1426
 1005MOL0     C32583   7.657   4.874   0.078 -0.2398  0.3978 -0.2270
 1005MOL0     C32584   7.524   4.841   0.117 -0.3522 -0.1183  0.0187
 1005MOL0     C32585   7.450   4.919   0.206 -0.9080 -0.7273  0.0586
 1005MOL0     O32586   7.318   4.886   0.231  0.4922 -0.5714 -0.9981
 1005MOL0     C32587   7.300   4.811   0.350  0.9171  0.3770 -0.1674
 1005MOL0     C32588   7.158   4.781   0.383  0.0388 -0.4221  0.9613
 1005MOL0     C32589   7.074   4.720   0.255 -0.5499 -0.3864 -0.2057
 1005MOL0     C32590   6.915   4.740   0.275 -0.4130 -0.4791 -0.5672
 1005MOL0     C32591   6.849   4.676   0.159 -0.2774  0.1042  0.4742
 1005MOL0     C32592   6.786   4.626   0.065 -0.0498  0.6015  0.1980
 1005MOL0     C32593   7.522   5.022   0.279  0.6444  0.7280 -0.7584
 1005MOL0     C32594   7.660   5.053   0.248  0.0439 -0.1023 -0.9581
 1005MOL0     H32595   8.147   4.985   0.174 -1.7197 -2.5433 -0.2089
 1005MOL0     H32596   8.378   4.974   0.089 -0.2031  1.4611  0.0761
 1005MOL0     H32597   8.565   4.895   0.010  0.8963 -0.3853  0.1404
 1005MOL0     H32598   8.569   5.060  -0.067  2.6501  0.5006 -2.4085
 1005MOL0     H32599   8.685   4.976  -0.261 -0.2408 -0.3882  0.0694
 1005MOL0     H32600   8.674   4.812  -0.207  2.0179 -0.6334 -0.8158
 1005MOL0     H32601   8.819   4.862  -0.009 -0.2037  1.1634  1.2417
 1005MOL0     H32602   8.814   5.030  -0.048  2.5546  1.6824 -2.1553
 1005MOL0     H32603   8.913   4.970  -0.283  2.3497 -2.1034 -0.7295
 1005MOL0     H32604   9.018   4.946  -0.141  1.5524 -1.5881 -1.0982
 1005MOL0     H32605   9.040   4.772  -0.310 -0.1044  2.0719  0.1059
 1005MOL0     H32606   8.870   4.732  -0.306 -0.2691 -1.8396  0.9118
 1005MOL0     H32607   9.030   4.574  -0.187  2.1636 -1.7591  2.2890
 1005MOL0     H32608   8.906   4.631  -0.072  1.5436 -1.7552 -0.5634
 1005MOL0     H32609   9.181   4.760  -0.087  2.2880 -0.1417  1.8855
 1005MOL0     H32610   9.058   4.770   0.044 -0.0085  2.9349 -3.7719
 1005MOL0     H32611   9.267   4.628   0.073  0.3435  2.1707 -0.4801
 1005MOL0     H32612   9.199   4.526  -0.060 -2.8121 -0.8576 -0.6995
 1005MOL0     H32613   9.019   4.687   0.241 -0.8341  0.2982 -4.7144
 1005MOL0     H32614   8.855   4.413   0.449 -0.9276 -0.1022  0.5873
 1005MOL0     H32615   8.920   4.571   0.492  0.6176 -0.2431  2.8205
 1005MOL0     H32616   9.130   4.464   0.577 -0.1704 -1.4391  0.9727
 1005MOL0     H32617   9.074   4.304   0.538 -2.5250 -1.1029 -0.7284
 1005MOL0     H32618   8.950   4.507   0.720  1.0941  0.9601 -2.1769
 1005MOL0     H32619   8.876   4.349   0.681 -0.2800 -0.2247 -0.0922
 1005MOL0     H32620   9.046   4.224   0.797  0.8075 -0.1902  1.5483
 1005MOL0     H32621   9.019   4.357   0.908  0.9081 -1.0835 -0.2798
 1005MOL0     H32622   9.151   4.389   1.069 -0.2480  0.0053 -0.1719
 1005MOL0     H32623   9.289   4.524   1.211 -3.4453 -1.0512 -0.7494
 1005MOL0     H32624   9.364   4.898   1.423 -0.5509 -2.6751 -0.3280
 1005MOL0     H32625   9.473   5.021   1.607 -0.0774  1.9415 -1.1016
 1005MOL0     H32626   9.886   4.866   1.720  1.3725  0.6459  2.8667
 1005MOL0     H32627   9.906   5.015   1.793 -1.6656 -1.9832  2.3217
 1005MOL0     H32628   9.941   5.134   1.568  0.1377 -0.3821 -2.2364
 1005MOL0     H32629   9.944   4.973   1.486  0.4430 -1.4419  0.4332
 1005MOL0     H32630  10.163   4.916   1.607  0.6070 -0.3544 -3.3679
 1005MOL0     H32631  10.150   5.086   1.666  3.3564 -2.8436  1.3473
 1005MOL0     H32632  10.168   4.982   1.385  2.9834 -3.6231  1.6207
 1005MOL0     H32633  10.168   5.159   1.441 -0.2302 -0.8994  1.0010
 1005MOL0     H32634  10.365   4.931   1.492 -3.0028 -1.3690  0.6890
 1005MOL0     H32635  10.376   5.100   1.542  2.2377 -1.7563  0.8553
 1005MOL0     H32636  10.369   5.161   1.297 -0.1711  0.1668 -2.3729
 1005MOL0     H32637  10.351   4.993   1.268  0.4544 -0.1871  0.7145
 1005MOL0     H32638  10.578   4.956   1.279 -0.6200 -0.0828  0.0470
 1005MOL0     H32639  10.587   5.122   1.242  2.6379  0.6552  1.2462
 1005MOL0     H32640  10.736   5.075   1.431 -0.3939 -0.1738 -1.4678
 1005MOL0     H32641  10.609   4.985   1.511 -0.3249 -0.4221  0.1596
 1005MOL0     H32642   9.836   4.808   1.526  0.3952  1.8057  0.0156
 1005MOL0     H32643   9.723   4.658   1.383 -1.0057 -0.4287  0.9723
 1005MOL0     H32644   9.570   4.619   0.901 -1.4567  2.0111 -0.0030
 1005MOL0     H32645   9.433   4.469   0.757  0.2123 -3.5592  2.0160
 1005MOL0     H32646   8.211   4.842  -0.294 -1.3402 -0.9659  0.5063
 1005MOL0     H32647   8.000   4.831  -0.189 -0.1455  1.5851  0.0760
 1005MOL0     H32648   7.709   4.808   0.009 -0.3368 -0.3291  0.3771
 1005MOL0     H32649   7.474   4.762   0.062 -1.4985 -0.0468  0.9284
 1005MOL0     H32650   7.342   4.852   0.443  1.3800 -1.0928  0.3068
 1005MOL0     H32651   7.335   4.707   0.344 -0.4158 -0.0321 -1.2704
 1005MOL0     H32652   7.165   4.709   0.465 -0.3704 -1.2425  0.2912
 1005MOL0     H32653   7.117   4.875   0.421 -2.5620  0.2548 -2.8674
 1005MOL0     H32654   7.099   4.614   0.244 -2.9257 -0.8854 -1.4103
 1005MOL0     H32655   7.113   4.769   0.166 -0.2991 -0.5214 -0.1720
 1005MOL0     H32656   6.887   4.703   0.375 -0.4815  1.3491  0.1297
 1005MOL0     H32657   6.890   4.846   0.283  0.5265 -0.3841  2.4530
 1005MOL0     H32658   6.753   4.587  -0.029 -0.0907  1.0975  0.0006
 1005MOL0     H32659   7.463   5.078   0.351  0.8279  0.6423 -0.5387
 1005MOL0     H32660   7.702   5.131   0.310 -1.6071 -1.2462  1.8146
 1006MOL0     O32661   3.896   6.487  10.483  0.2273 -0.2362  0.8622
 1006MOL0     C32662   4.003   6.526  10.529  1.1449 -0.2542  0.7971
 1006MOL0     O32663   4.014   6.552  10.666 -0.6212  0.2221  0.0211
 1006MOL0     C32664   3.906   6.586  10.746  0.4148  0.3783  0.1162
 1006MOL0     C32665   3.939   6.569  10.879  0.9491  0.4994  0.6154
 1006MOL0     C32666   3.836   6.549  10.969 -0.2203 -0.3618 -0.1069
 1006MOL0     C32667   3.701   6.572  10.936  0.0870  0.3118  1.3829
 1006MOL0     O32668   3.599   6.575  11.027  0.6083  0.2204 -0.0584
 1006MOL0     C32669   3.625   6.526  11.152 -0.2468 -0.2169  0.6742
 1006MOL0     C32670   3.499   6.537  11.246 -0.1135 -0.0240 -0.4215
 1006MOL0     C32671   3.522   6.449  11.378  0.8391  0.2999 -0.6801
 1006MOL0     C32672   3.440   6.505  11.503  0.0930 -0.1327  1.2301
 1006MOL0     C32673   3.286   6.463  11.486  0.0433 -0.7630 -0.8761
 1006MOL0     C32674   3.210   6.489  11.616  0.3978  0.1635 -0.7771
 1006MOL0     C32675   3.057   6.454  11.615 -0.9820  0.2483  0.7259
 1006MOL0     C32676   3.037   6.304  11.571  0.0881  0.9886  0.2848
 1006MOL0     N32677   2.903   6.248  11.575  0.1555 -0.7728 -0.8652
 1006MOL0     C32678   2.801   6.312  11.643  0.4235 -0.7029 -0.1414
 1006MOL0     C32679   2.692   6.239  11.627 -0.0981  0.0213 -0.4575
 1006MOL0     C32680   2.550   6.268  11.668 -0.4816  0.2068  0.2311
 1006MOL0     C32681   2.536   6.300  11.816 -0.1654 -0.5178  0.2966
 1006MOL0     C32682   2.402   6.343  11.877  0.0142  0.6459  0.1441
 1006MOL0     C32683   2.293   6.267  11.816 -0.3432 -0.0892  0.1009
 1006MOL0     O32684   2.159   6.287  11.881 -0.0222  0.6081 -0.6356
 1006MOL0     C32685   2.052   6.201  11.855 -0.2044 -1.1362 -0.7038
 1006MOL0     C32686   2.060   6.091  11.772  0.4251 -0.1977  1.2462
 1006MOL0     C32687   1.942   6.007  11.766  0.5118  0.0846 -0.3216
 1006MOL0     C32688   1.830   6.034  11.846  0.6261  0.3210  0.6044
 1006MOL0     C32689   1.715   5.935  11.839  0.0150  0.4765  0.3063
 1006MOL0     O32690   1.602   5.965  11.898  0.2464  0.0272  0.8340
 1006MOL0     C32691   1.493   5.884  11.887  0.7665  1.0283 -0.0378
 1006MOL0     C32692   1.382   5.922  11.810 -0.5069  0.8090  0.3046
 1006MOL0     C32693   1.279   5.837  11.790  0.7903  0.2620 -1.0080
 1006MOL0     C32694   1.258   5.725  11.869 -0.2934  0.3757  0.1826
 1006MOL0     O32695   1.153   5.648  11.855  0.0436  0.2806  0.3661
 1006MOL0     C32696   1.023   5.713  11.849  0.5361 -0.4155 -0.1141
 1006MOL0     C32697   0.920   5.597  11.875 -0.0150 -0.4676  1.2573
 1006MOL0     C32698   0.778   5.639  11.837  0.9133 -0.4355  0.3658
 1006MOL0     C32699   0.674   5.538  11.895  0.3194 -0.0017 -0.8158
 1006MOL0     C32700   0.538   5.605  11.883 -0.2960  0.5678 -0.1600
 1006MOL0     C32701   0.520   5.644  11.739 -0.0002  0.4309 -0.0992
 1006MOL0     C32702   0.370   5.663  11.706  0.5900 -0.1084  0.2111
 1006MOL0     C32703   0.326   5.803  11.750 -0.3052 -0.0616  0.6706
 1006MOL0    Cl32704   0.146   5.833  11.752  0.0369 -0.1063  0.1326
 1006MOL0     C32705   1.359   5.691  11.961  0.1880 -0.2183 -0.4623
 1006MOL0     C32706   1.476   5.770  11.964 -0.2458  0.3906 -0.0534
 1006MOL0     O32707   1.735   5.838  11.765  0.3883 -0.4491  0.7132
 1006MOL0     C32708   1.823   6.142  11.930  1.0811 -0.4666  1.2047
 1006MOL0     C32709   1.934   6.226  11.927  0.8801 -0.5167  0.4602
 1006MOL0     N32710   2.724   6.126  11.549 -0.3050 -0.5277  0.2140
 1006MOL0     N32711   2.849   6.132  11.527 -0.5030 -0.4237 -0.1433
 1006MOL0     C32712   3.681   6.613  10.800 -0.7706 -0.5482 -0.0939
 1006MOL0     C32713   3.779   6.616  10.709  0.3391 -0.0863  0.9384
 1006MOL0     C32714   4.124   6.546  10.448  0.6430  0.1899 -0.1133
 1006MOL0     C32715   4.116   6.549  10.307 -1.2845 -0.0342 -0.5667
 1006MOL0     C32716   4.222   6.550  10.225 -0.5856 -0.1506  0.2378
 1006MOL0     C32717   4.351   6.559  10.277 -0.5067  0.6839 -0.6430
 1006MOL0     O32718   4.456   6.543  10.185  0.5543  0.0546  0.1432
 1006MOL0     C32719   4.590   6.547  10.233 -0.2346  0.4915 -0.1515
 1006MOL0     C32720   4.656   6.445  10.125  0.3017 -0.7248  0.3986
 1006MOL0     C32721   4.649   6.492   9.979  0.4310 -0.5187 -0.7989
 1006MOL0     C32722   4.728   6.402   9.889 -0.1570  0.0307  0.9240
 1006MOL0     C32723   4.704   6.417   9.742  0.3606  0.2059 -0.0555
 1006MOL0     C32724   4.658   6.439   9.630 -0.6065 -0.6504  0.6629
 1006MOL0     C32725   4.367   6.547  10.417  0.7412 -0.0873 -0.4568
 1006MOL0     C32726   4.253   6.537  10.504 -0.0901 -0.3901  0.8947
 1006MOL0     H32727   4.040   6.540  10.906  0.6800 -1.5361 -0.3121
 1006MOL0     H32728   3.868   6.533  11.071 -1.9337  1.0183  0.7056
 1006MOL0     H32729   3.696   6.588  11.208 -1.7900  0.4447  1.9843
 1006MOL0     H32730   3.655   6.420  11.151  0.1555 -0.1279  1.5233
 1006MOL0     H32731   3.404   6.515  11.198  0.0945 -0.8011 -0.4921
 1006MOL0     H32732   3.490   6.642  11.277  0.6742  0.3786 -1.4639
 1006MOL0     H32733   3.630   6.446  11.393  1.3471 -0.9940 -3.8329
 1006MOL0     H32734   3.494   6.345  11.358  0.4433  0.4421 -0.8729
 1006MOL0     H32735   3.485   6.487  11.601  1.8574  0.4791  0.5752
 1006MOL0     H32736   3.444   6.614  11.488 -0.7821 -0.4079 -1.5738
 1006MOL0     H32737   3.274   6.355  11.471 -1.1042 -0.4673 -2.2817
 1006MOL0     H32738   3.242   6.525  11.407  0.1468  1.0941  0.4496
 1006MOL0     H32739   3.221   6.593  11.646  0.6092  0.3645 -1.5120
 1006MOL0     H32740   3.261   6.426  11.690 -0.7972 -0.0005 -0.0763
 1006MOL0     H32741   3.008   6.486  11.707 -2.4642  0.9265 -0.2509
 1006MOL0     H32742   3.009   6.514  11.536 -1.5117 -0.4727  0.4949
 1006MOL0     H32743   3.102   6.247  11.638 -1.3329 -0.1903  0.7136
 1006MOL0     H32744   3.078   6.293  11.470  1.6091 -0.1768  0.9843
 1006MOL0     H32745   2.804   6.408  11.694  0.9902  0.3199 -1.9773
 1006MOL0     H32746   2.502   6.172  11.645 -0.8599  0.5865 -0.6496
 1006MOL0     H32747   2.496   6.346  11.614 -1.5753 -0.8060 -0.1783
 1006MOL0     H32748   2.620   6.367  11.837  2.7849 -3.8260  0.0173
 1006MOL0     H32749   2.558   6.204  11.862  0.1181 -1.5401 -1.8400
 1006MOL0     H32750   2.415   6.320  11.983  4.6113  0.8824 -0.1759
 1006MOL0     H32751   2.380   6.450  11.870 -2.3836  0.2902  1.2997
 1006MOL0     H32752   2.322   6.162  11.822  2.4584  0.6468  0.8119
 1006MOL0     H32753   2.297   6.295  11.710  0.3717  1.6496  0.5568
 1006MOL0     H32754   2.147   6.061  11.714  0.8791 -0.9755  2.2969
 1006MOL0     H32755   1.945   5.925  11.694 -1.6620 -0.5441  0.2278
 1006MOL0     H32756   1.382   6.008  11.745  1.3972  1.8674  1.6356
 1006MOL0     H32757   1.199   5.858  11.720  1.1338 -0.3970 -1.6119
 1006MOL0     H32758   0.997   5.747  11.748 -1.8718 -1.3730  0.0987
 1006MOL0     H32759   1.014   5.794  11.923 -0.9324  0.1044 -0.8139
 1006MOL0     H32760   0.920   5.546  11.971 -0.0317 -0.1636  1.4230
 1006MOL0     H32761   0.942   5.527  11.794 -0.4685  1.6386 -0.8369
 1006MOL0     H32762   0.780   5.655  11.729  0.1075  0.5759  0.4867
 1006MOL0     H32763   0.768   5.735  11.889  1.5716 -0.2396  0.1458
 1006MOL0     H32764   0.690   5.439  11.853 -1.0354 -0.6916  0.2148
 1006MOL0     H32765   0.693   5.534  12.003 -1.2638 -1.4497 -0.5551
 1006MOL0     H32766   0.530   5.696  11.944 -2.3882  0.0361  0.4341
 1006MOL0     H32767   0.462   5.535  11.919  1.4641  0.2132  3.3631
 1006MOL0     H32768   0.547   5.557  11.678  0.2038 -0.2358  0.9202
 1006MOL0     H32769   0.574   5.734  11.709  1.9868 -1.4332 -2.5910
 1006MOL0     H32770   0.348   5.652  11.600  2.3002  2.5988 -0.5385
 1006MOL0     H32771   0.309   5.591  11.761  0.7780 -2.0008 -1.9293
 1006MOL0     H32772   0.377   5.870  11.681  0.9678 -0.5520  1.1062
 1006MOL0     H32773   0.368   5.818  11.850 -0.2025 -1.9836  0.9662
 1006MOL0     H32774   1.346   5.606  12.027 -5.2073 -1.3252 -2.4299
 1006MOL0     H32775   1.544   5.740  12.043 -0.8848  1.6405  0.9923
 1006MOL0     H32776   1.732   6.167  11.983  0.2440  1.8673 -1.1059
 1006MOL0     H32777   1.933   6.314  11.990  0.1595 -0.3387  0.2123
 1006MOL0     H32778   3.585   6.649  10.766  0.3261  2.5823 -0.1810
 1006MOL0     H32779   3.743   6.632  10.608 -0.1213 -1.5727  0.8365
 1006MOL0     H32780   4.017   6.543  10.263 -0.6005  0.0422 -2.1765
 1006MOL0     H32781   4.202   6.545  10.119  0.4638  1.8006 -0.0985
 1006MOL0     H32782   4.615   6.505  10.331 -0.6137 -0.9051 -0.6348
 1006MOL0     H32783   4.631   6.648  10.223 -3.3447  1.6792 -2.9987
 1006MOL0     H32784   4.763   6.440  10.146  0.1198  3.2571  3.5454
 1006MOL0     H32785   4.606   6.349  10.141 -0.6666 -0.3700 -0.3868
 1006MOL0     H32786   4.687   6.592   9.958  2.3242 -1.3980 -1.7751
 1006MOL0     H32787   4.545   6.503   9.948 -0.4229  0.0092  1.9172
 1006MOL0     H32788   4.830   6.428   9.919  0.5300  1.2162 -2.0796
 1006MOL0     H32789   4.709   6.298   9.915 -1.5524  0.0201 -0.0572
 1006MOL0     H32790   4.616   6.450   9.532  0.2434 -0.7484  0.2712
 1006MOL0     H32791   4.463   6.543  10.466  0.1907  0.6712  0.7243
 1006MOL0     H32792   4.258   6.535  10.612 -3.5534  4.4152  1.4913
 1007MOL0     O32793   7.236  11.293   9.873  0.2221 -0.7086 -0.9855
 1007MOL0     C32794   7.168  11.284   9.774  0.0196 -0.4572  0.0937
 1007MOL0     O32795   7.219  11.264   9.648  0.0792  0.4259 -0.3918
 1007MOL0     C32796   7.361  11.272   9.632  0.5210 -0.1863 -0.3094
 1007MOL0     C32797   7.413  11.173   9.554 -0.6675  0.3854 -0.5646
 1007MOL0     C32798   7.549  11.174   9.532 -0.3080  0.4799  0.6480
 1007MOL0     C32799   7.629  11.273   9.577  0.3306 -0.3592 -0.8929
 1007MOL0     O32800   7.761  11.273   9.530  0.5898  0.1348 -0.1483
 1007MOL0     C32801   7.852  11.294   9.641  0.6576  0.0331  0.1599
 1007MOL0     C32802   7.999  11.259   9.620  0.3742 -1.6247  0.4718
 1007MOL0     C32803   8.019  11.115   9.572 -0.6742 -0.4779 -0.6665
 1007MOL0     C32804   8.164  11.071   9.574 -1.2142 -1.1970  0.0544
 1007MOL0     C32805   8.183  10.925   9.528 -0.2852  0.2425  0.3625
 1007MOL0     C32806   8.106  10.819   9.602 -0.6888  1.3313 -0.2477
 1007MOL0     C32807   8.149  10.802   9.745  0.1055  0.1594 -0.1240
 1007MOL0     C32808   8.088  10.904   9.855  0.3148  0.8377 -0.5816
 1007MOL0     N32809   7.941  10.888   9.874 -0.4622  0.8559 -0.5568
 1007MOL0     C32810   7.858  10.991   9.897 -0.2621  0.0326 -1.0502
 1007MOL0     C32811   7.745  10.921   9.897  1.0536 -0.6540  0.1560
 1007MOL0     C32812   7.617  11.002   9.895 -0.2991 -0.5088  0.7330
 1007MOL0     C32813   7.592  11.067  10.034 -0.6790 -1.1446  0.1099
 1007MOL0     C32814   7.472  11.158  10.051  0.5947  0.0542  0.4105
 1007MOL0     C32815   7.465  11.216  10.186  0.3701  0.2949 -0.2666
 1007MOL0     O32816   7.432  11.118  10.288  0.6576 -0.0576 -0.5720
 1007MOL0     C32817   7.300  11.076  10.264  0.2112 -0.1232  0.2472
 1007MOL0     C32818   7.278  10.940  10.215  0.2120  0.2724  0.0449
 1007MOL0     C32819   7.144  10.891  10.189 -1.1994  0.3663 -0.2277
 1007MOL0     C32820   7.036  10.976  10.220 -0.6201 -0.0622 -0.4887
 1007MOL0     C32821   6.890  10.934  10.207 -0.8750  0.3044 -0.3125
 1007MOL0     O32822   6.873  10.799  10.181  1.2412  0.0161  0.5492
 1007MOL0     C32823   6.738  10.782  10.181 -0.6128 -0.9815  0.1817
 1007MOL0     C32824   6.654  10.794  10.288 -0.1352  0.2029 -0.3664
 1007MOL0     C32825   6.520  10.787  10.277  0.1049  1.3516  0.8847
 1007MOL0     C32826   6.462  10.759  10.148  0.3450 -0.1417 -0.6952
 1007MOL0     O32827   6.327  10.769  10.142  0.4505 -0.1947  0.0721
 1007MOL0     C32828   6.275  10.779  10.009  0.1152  0.1351 -0.3520
 1007MOL0     C32829   6.130  10.815  10.044  0.5179 -0.2871  0.1646
 1007MOL0     C32830   6.035  10.817   9.911 -0.8498  0.3304  0.0493
 1007MOL0     C32831   5.901  10.759   9.942  0.3581 -0.1278  0.1271
 1007MOL0     C32832   5.823  10.728   9.817  0.1721 -0.5731  0.4484
 1007MOL0     C32833   5.686  10.662   9.847  0.2107  0.0082  0.1091
 1007MOL0     C32834   5.603  10.628   9.718  0.0381 -0.0137  0.3612
 1007MOL0     C32835   5.554  10.485   9.731  0.3454  0.3299  0.5245
 1007MOL0    Cl32836   5.678  10.363   9.730  0.2301 -0.0441  0.1121
 1007MOL0     C32837   6.552  10.741  10.041 -1.1881  0.0344  0.3570
 1007MOL0     C32838   6.691  10.754  10.053  0.1709 -0.5673  0.6590
 1007MOL0     O32839   6.806  11.021  10.205 -0.3310  0.2770 -0.6067
 1007MOL0     C32840   7.061  11.106  10.275  0.4715 -0.7114 -0.5526
 1007MOL0     C32841   7.193  11.154  10.298 -0.1453 -0.9556 -0.4437
 1007MOL0     N32842   7.752  10.785   9.902 -0.3555 -0.1334 -0.2184
 1007MOL0     N32843   7.875  10.761   9.886  0.1141  0.1727  0.1006
 1007MOL0     C32844   7.565  11.381   9.649 -0.7788  0.2124  0.6038
 1007MOL0     C32845   7.432  11.383   9.679  0.2567  0.4181  0.5676
 1007MOL0     C32846   7.027  11.274   9.782 -0.0510 -0.3222  0.4770
 1007MOL0     C32847   6.966  11.279   9.909  1.0745 -0.3869  0.1544
 1007MOL0     C32848   6.828  11.262   9.918  0.7126  0.8638  0.5940
 1007MOL0     C32849   6.742  11.236   9.811 -0.4146  1.3548 -0.2534
 1007MOL0     O32850   6.610  11.215   9.823  0.7311 -0.4725  0.1056
 1007MOL0     C32851   6.577  11.098   9.894  1.1071  0.4992 -0.5647
 1007MOL0     C32852   6.458  11.102   9.994 -0.1139 -1.2195  0.2895
 1007MOL0     C32853   6.501  11.186  10.123  0.7277  1.1434  0.7985
 1007MOL0     C32854   6.417  11.168  10.239 -0.4610 -0.2623 -1.3288
 1007MOL0     C32855   6.283  11.195  10.199 -0.4210 -0.3063 -0.1050
 1007MOL0     C32856   6.164  11.214  10.180 -0.1263 -1.0198  1.5901
 1007MOL0     C32857   6.797  11.238   9.677 -0.0696 -0.3043 -0.2153
 1007MOL0     C32858   6.939  11.255   9.665 -0.8195  0.0829 -0.7104
 1007MOL0     H32859   7.359  11.091   9.509  3.0578 -2.9397  0.4373
 1007MOL0     H32860   7.578  11.092   9.467 -1.8007  1.5436 -1.4688
 1007MOL0     H32861   7.818  11.245   9.733  0.8963 -0.9348 -0.2549
 1007MOL0     H32862   7.854  11.401   9.666  0.3467  0.0309  0.2027
 1007MOL0     H32863   8.050  11.284   9.713 -2.3720 -1.4114  2.0190
 1007MOL0     H32864   8.034  11.326   9.540  1.3311 -2.7736 -0.1171
 1007MOL0     H32865   7.982  11.098   9.470  0.3934 -2.0389 -0.8284
 1007MOL0     H32866   7.958  11.046   9.631 -0.4254 -0.1501 -0.0172
 1007MOL0     H32867   8.210  11.136   9.499 -0.5161 -2.9357 -1.0975
 1007MOL0     H32868   8.213  11.084   9.670  2.4531 -0.3642 -1.7438
 1007MOL0     H32869   8.291  10.907   9.537 -0.9260 -4.2441  1.5124
 1007MOL0     H32870   8.155  10.923   9.423  0.3253 -1.3704  0.1919
 1007MOL0     H32871   8.120  10.721   9.555  2.0828  0.8904  1.2720
 1007MOL0     H32872   7.997  10.830   9.594 -0.7108  0.8960 -0.5587
 1007MOL0     H32873   8.129  10.703   9.785  0.1528  0.2209  0.0509
 1007MOL0     H32874   8.257  10.812   9.754 -0.1198  1.0940  2.4022
 1007MOL0     H32875   8.122  11.006   9.835  3.0385 -0.5048 -3.5260
 1007MOL0     H32876   8.144  10.873   9.944  0.8032  1.2902 -0.7298
 1007MOL0     H32877   7.866  11.099   9.897  1.0987 -0.0566 -1.3270
 1007MOL0     H32878   7.531  10.943   9.861 -0.1655 -0.4934  0.3612
 1007MOL0     H32879   7.624  11.082   9.820 -0.8814 -1.5344 -0.4455
 1007MOL0     H32880   7.684  11.122  10.056 -0.4456 -1.5340  0.1296
 1007MOL0     H32881   7.582  10.987  10.109  2.6162 -1.6535  0.1434
 1007MOL0     H32882   7.485  11.238   9.978 -3.7333  1.7088  1.1860
 1007MOL0     H32883   7.380  11.104  10.027  0.1789  1.0289 -0.2198
 1007MOL0     H32884   7.395  11.299  10.196 -0.3198 -0.2331 -0.6119
 1007MOL0     H32885   7.564  11.250  10.218 -0.0725  1.2670  0.0872
 1007MOL0     H32886   7.355  10.872  10.182 -1.4783 -2.1922  0.8931
 1007MOL0     H32887   7.126  10.786  10.166 -2.0568 -0.0587  2.0269
 1007MOL0     H32888   6.697  10.813  10.386 -1.1175  2.4289 -0.3179
 1007MOL0     H32889   6.447  10.782  10.357 -1.9634  3.1898 -0.7485
 1007MOL0     H32890   6.279  10.678   9.966 -0.5442 -1.1632  2.4504
 1007MOL0     H32891   6.323  10.846   9.937  1.2044 -0.9623 -0.6826
 1007MOL0     H32892   6.122  10.916  10.086 -3.8833  0.6359 -2.2766
 1007MOL0     H32893   6.095  10.740  10.116  0.2141  0.9474  1.3388
 1007MOL0     H32894   6.080  10.769   9.824  0.2193  0.0744  0.7147
 1007MOL0     H32895   6.024  10.924   9.894  0.1254  0.6163  1.0912
 1007MOL0     H32896   5.912  10.673  10.009 -1.0339  0.1828  0.7996
 1007MOL0     H32897   5.850  10.832  10.006 -1.4705 -0.4953 -0.8343
 1007MOL0     H32898   5.890  10.668   9.754  0.8915 -1.9188  2.3810
 1007MOL0     H32899   5.803  10.827   9.776 -0.6792 -0.5997  0.7894
 1007MOL0     H32900   5.636  10.728   9.918  1.0802 -0.5479  1.2742
 1007MOL0     H32901   5.705  10.575   9.911 -3.1970 -0.4978  0.5928
 1007MOL0     H32902   5.514  10.691   9.723 -1.0405 -1.4451 -0.1180
 1007MOL0     H32903   5.659  10.649   9.627  2.8572  1.3590  2.2692
 1007MOL0     H32904   5.472  10.470   9.660 -1.7178  3.9364  1.8551
 1007MOL0     H32905   5.500  10.467   9.825  2.5158 -1.1443  1.5776
 1007MOL0     H32906   6.507  10.713   9.946  0.6729 -0.7578 -0.3376
 1007MOL0     H32907   6.754  10.747   9.964  0.7275  0.2186  0.9765
 1007MOL0     H32908   6.979  11.163  10.318 -0.5778 -2.2333 -0.4504
 1007MOL0     H32909   7.231  11.245  10.342  0.4567 -1.5906  0.3964
 1007MOL0     H32910   7.626  11.463   9.686 -0.0911 -0.6757  1.4968
 1007MOL0     H32911   7.399  11.470   9.734  3.6994  1.4953  1.2298
 1007MOL0     H32912   7.021  11.283  10.002 -1.7546 -0.4216  1.9618
 1007MOL0     H32913   6.784  11.252  10.016  1.6450 -3.3202  0.7710
 1007MOL0     H32914   6.657  11.056   9.956  0.7464  1.4567  0.5734
 1007MOL0     H32915   6.562  11.025   9.814  2.6404  0.1134 -0.5323
 1007MOL0     H32916   6.371  11.142   9.941  1.1636  2.3332  0.5626
 1007MOL0     H32917   6.422  11.002  10.021 -1.2396 -1.3042 -1.3739
 1007MOL0     H32918   6.503  11.292  10.098 -1.0486  1.3764  1.4937
 1007MOL0     H32919   6.603  11.153  10.147  0.1229 -1.7365 -0.2506
 1007MOL0     H32920   6.438  11.069  10.281 -0.2635 -1.1259 -3.3189
 1007MOL0     H32921   6.441  11.230  10.326 -4.5281  0.0076 -0.2036
 1007MOL0     H32922   6.064  11.220  10.142 -0.2042 -1.2252  1.7578
 1007MOL0     H32923   6.724  11.240   9.597 -0.5246  2.1483  0.1844
 1007MOL0     H32924   6.993  11.262   9.572 -0.4022  1.3949 -0.4032
 1008MOL0     O32925   2.234   1.333  10.770 -0.2942  0.1770  0.5889
 1008MOL0     C32926   2.205   1.311  10.882 -0.1694  0.0900 -0.1769
 1008MOL0     O32927   2.290   1.268  10.986 -0.0852  0.2581  0.1334
 1008MOL0     C32928   2.413   1.208  10.966  0.7409  0.4274 -1.0561
 1008MOL0     C32929   2.469   1.148  11.082 -0.6197  0.2916 -0.9020
 1008MOL0     C32930   2.600   1.109  11.079  0.1767  0.4271 -1.0617
 1008MOL0     C32931   2.684   1.121  10.965  0.7941  0.5472  0.0267
 1008MOL0     O32932   2.806   1.063  10.944  0.8001  1.2527  0.1965
 1008MOL0     C32933   2.868   0.997  11.055 -0.0420 -0.5275  0.0374
 1008MOL0     C32934   2.968   0.897  11.001  0.8041 -0.0671  0.3888
 1008MOL0     C32935   2.916   0.787  10.910 -0.2963 -0.1042 -0.3269
 1008MOL0     C32936   2.833   0.671  10.978 -0.4200 -1.2371  0.1520
 1008MOL0     C32937   2.757   0.580  10.883 -0.7257 -0.1062  0.0030
 1008MOL0     C32938   2.693   0.457  10.954 -0.3425  0.8248 -0.2094
 1008MOL0     C32939   2.575   0.395  10.887  0.9501 -0.9835  0.0802
 1008MOL0     C32940   2.626   0.333  10.760 -0.3393 -0.1476 -0.2285
 1008MOL0     N32941   2.510   0.275  10.681 -0.4799  0.0340  0.6795
 1008MOL0     C32942   2.425   0.341  10.590  0.0904  0.1432 -1.8177
 1008MOL0     C32943   2.350   0.239  10.537  0.9838  0.4941 -0.1564
 1008MOL0     C32944   2.251   0.267  10.425 -0.1159  0.2672 -0.7325
 1008MOL0     C32945   2.315   0.208  10.299 -0.7337  0.7324 -0.6988
 1008MOL0     C32946   2.246   0.269  10.178  1.0011 -0.3597  0.0528
 1008MOL0     C32947   2.285   0.199  10.049  0.5001  0.3943 -0.3939
 1008MOL0     O32948   2.428   0.216  10.020  0.4528 -0.3516 -0.4868
 1008MOL0     C32949   2.483   0.139   9.922 -0.1592  0.4760  0.2555
 1008MOL0     C32950   2.423   0.041   9.834 -1.1757 -1.0046  0.9592
 1008MOL0     C32951   2.506  -0.027   9.741  0.4034  0.3077 -0.7241
 1008MOL0     C32952   2.646  -0.016   9.738  0.0654  0.0507 -0.7075
 1008MOL0     C32953   2.718  -0.087   9.636  0.5274 -0.7165  0.0593
 1008MOL0     O32954   2.633  -0.173   9.569 -0.3708  0.1683  0.6936
 1008MOL0     C32955   2.703  -0.253   9.487 -0.3792  0.1231  0.7537
 1008MOL0     C32956   2.754  -0.371   9.529  0.0685  0.5293 -0.6366
 1008MOL0     C32957   2.833  -0.454   9.445  0.3676 -0.0737  0.4379
 1008MOL0     C32958   2.850  -0.416   9.311 -0.3407  0.6725  0.0638
 1008MOL0     O32959   2.907  -0.517   9.233  0.0515  0.5356 -0.0319
 1008MOL0     C32960   2.974  -0.484   9.106  0.3196 -0.8426  0.5298
 1008MOL0     C32961   3.007  -0.621   9.038  1.0302  0.1305 -0.7635
 1008MOL0     C32962   2.895  -0.683   8.940 -0.5034 -0.0312 -0.4196
 1008MOL0     C32963   2.760  -0.691   8.997  0.3304  0.3949  0.2583
 1008MOL0     C32964   2.660  -0.763   8.918  0.1400 -1.0368  0.5814
 1008MOL0     C32965   2.610  -0.693   8.787 -0.0083  0.3573 -1.2485
 1008MOL0     C32966   2.549  -0.553   8.814 -0.4880  0.0169  0.2709
 1008MOL0     C32967   2.457  -0.495   8.707 -0.5801 -0.0021  0.0734
 1008MOL0    Cl32968   2.553  -0.440   8.558  0.4735  0.3984  0.2546
 1008MOL0     C32969   2.797  -0.296   9.266 -0.4349 -0.6741 -0.1061
 1008MOL0     C32970   2.734  -0.208   9.359  0.9196  0.5205  0.3581
 1008MOL0     O32971   2.828  -0.036   9.592  0.6194 -0.3499  0.7247
 1008MOL0     C32972   2.692   0.083   9.823 -0.7044  0.5948  0.6249
 1008MOL0     C32973   2.619   0.158   9.906 -0.7395 -1.1885 -0.1955
 1008MOL0     N32974   2.387   0.119  10.590 -0.0913 -1.2754  0.2698
 1008MOL0     N32975   2.485   0.140  10.671  1.3460  0.2196 -0.2823
 1008MOL0     C32976   2.625   1.175  10.855  0.0081  0.7094 -0.0258
 1008MOL0     C32977   2.490   1.217  10.857  0.3882 -0.2013 -0.0213
 1008MOL0     C32978   2.066   1.343  10.926  0.5679  0.5994 -0.0119
 1008MOL0     C32979   2.030   1.308  11.056  0.4508  0.4113 -0.0755
 1008MOL0     C32980   1.900   1.340  11.088  0.5580  0.5661  0.4531
 1008MOL0     C32981   1.803   1.403  11.006 -0.1012  0.0019 -0.6651
 1008MOL0     O32982   1.672   1.424  11.059 -0.2616 -0.4001 -0.3172
 1008MOL0     C32983   1.572   1.446  10.959  0.4314  0.1490 -1.0269
 1008MOL0     C32984   1.423   1.438  11.015 -0.4813 -0.4395 -0.0799
 1008MOL0     C32985   1.405   1.347  11.138 -0.6288 -0.1249  0.6011
 1008MOL0     C32986   1.260   1.328  11.165 -0.2519  0.4690  0.4492
 1008MOL0     C32987   1.173   1.298  11.053 -0.2071 -0.5169  0.0241
 1008MOL0     C32988   1.101   1.294  10.957 -0.0631 -0.5798 -0.1454
 1008MOL0     C32989   1.850   1.433  10.878 -0.1300 -0.2950 -0.7411
 1008MOL0     C32990   1.982   1.411  10.843  0.7495  0.1119  0.0435
 1008MOL0     H32991   2.412   1.148  11.175  0.5528 -0.5571 -0.1541
 1008MOL0     H32992   2.651   1.084  11.171 -0.3262  0.9840 -0.6267
 1008MOL0     H32993   2.795   0.946  11.118 -0.3495  0.4756  0.5064
 1008MOL0     H32994   2.904   1.079  11.118  0.9412  0.0849 -1.2730
 1008MOL0     H32995   3.024   0.850  11.082  4.0279  0.9546 -1.0917
 1008MOL0     H32996   3.041   0.953  10.942 -0.8100  0.6064 -1.0753
 1008MOL0     H32997   3.004   0.739  10.866 -0.2281 -0.4721  0.2003
 1008MOL0     H32998   2.857   0.831  10.829  0.2196 -2.9910 -2.4189
 1008MOL0     H32999   2.899   0.611  11.042  3.7770  1.8263 -0.9204
 1008MOL0     H33000   2.765   0.716  11.051 -1.7176 -1.1249 -1.0934
 1008MOL0     H33001   2.813   0.553  10.793 -1.2884  3.9917 -1.7961
 1008MOL0     H33002   2.674   0.637  10.842 -0.3917  0.0122 -0.5211
 1008MOL0     H33003   2.674   0.478  11.060  2.9820 -3.6854  1.5917
 1008MOL0     H33004   2.764   0.374  10.963 -1.2205  0.0868 -0.0508
 1008MOL0     H33005   2.524   0.328  10.957 -1.1546  1.3931  0.9618
 1008MOL0     H33006   2.504   0.474  10.863 -0.7028 -1.6615  2.4082
 1008MOL0     H33007   2.704   0.260  10.783  0.5465  0.4418 -1.2830
 1008MOL0     H33008   2.678   0.410  10.703  0.3901 -1.0847 -0.8691
 1008MOL0     H33009   2.427   0.449  10.576  0.5273  0.2049 -1.3183
 1008MOL0     H33010   2.233   0.375  10.427  1.5038  0.5481  0.2411
 1008MOL0     H33011   2.155   0.221  10.451  0.6243 -2.5707 -2.6471
 1008MOL0     H33012   2.308   0.100  10.316  0.0902  0.7095 -0.4205
 1008MOL0     H33013   2.421   0.235  10.296 -0.5074 -0.0541 -0.1965
 1008MOL0     H33014   2.137   0.269  10.180  0.7801 -0.1227 -4.1117
 1008MOL0     H33015   2.267   0.376  10.167 -0.9777  0.3003  2.0817
 1008MOL0     H33016   2.235   0.239   9.960 -1.8538 -0.1067  0.6268
 1008MOL0     H33017   2.244   0.098  10.054  1.1726  0.0969 -0.7293
 1008MOL0     H33018   2.316   0.025   9.831 -1.1252 -1.2239  0.1092
 1008MOL0     H33019   2.456  -0.087   9.666  1.8380  0.3434 -1.7570
 1008MOL0     H33020   2.715  -0.405   9.625  2.6038 -2.3911 -0.4848
 1008MOL0     H33021   2.868  -0.553   9.471  0.0814 -0.2356  0.2156
 1008MOL0     H33022   3.065  -0.428   9.124 -0.8611  1.2698  0.1933
 1008MOL0     H33023   2.910  -0.420   9.044 -1.5588 -2.8600  0.2362
 1008MOL0     H33024   3.026  -0.689   9.122  0.8494  0.1859 -0.6782
 1008MOL0     H33025   3.106  -0.621   8.991  2.0768 -1.2368  1.2992
 1008MOL0     H33026   2.936  -0.781   8.913 -1.2800 -0.2023 -0.9999
 1008MOL0     H33027   2.902  -0.607   8.862 -0.3222  2.3949  1.8225
 1008MOL0     H33028   2.767  -0.737   9.096 -1.6604 -0.2767  0.1247
 1008MOL0     H33029   2.714  -0.595   9.021 -0.9480 -0.0623 -0.2655
 1008MOL0     H33030   2.569  -0.763   8.979 -1.1089  5.9530 -0.4986
 1008MOL0     H33031   2.691  -0.866   8.896 -1.3920 -1.0910 -1.7041
 1008MOL0     H33032   2.530  -0.751   8.739  0.5607 -1.8989  0.3513
 1008MOL0     H33033   2.689  -0.667   8.716  1.5918  0.2534  0.4134
 1008MOL0     H33034   2.484  -0.558   8.903 -0.5638  1.1052  0.2930
 1008MOL0     H33035   2.619  -0.470   8.830 -2.4537  2.1107 -1.3059
 1008MOL0     H33036   2.394  -0.408   8.727  0.6641  0.5010  2.1309
 1008MOL0     H33037   2.381  -0.567   8.673 -1.8424  2.4642 -2.7443
 1008MOL0     H33038   2.818  -0.259   9.166  0.0970  0.5998  0.4564
 1008MOL0     H33039   2.696  -0.114   9.321  0.1809 -1.2389 -3.7014
 1008MOL0     H33040   2.800   0.090   9.826 -0.6163  2.2308 -2.5573
 1008MOL0     H33041   2.677   0.224   9.969 -3.2364  1.5369 -0.5442
 1008MOL0     H33042   2.679   1.195  10.763  1.2990 -3.4422 -0.3611
 1008MOL0     H33043   2.460   1.243  10.756  0.7482  0.2500 -0.0186
 1008MOL0     H33044   2.100   1.286  11.136 -0.0209  2.1031  0.8464
 1008MOL0     H33045   1.867   1.297  11.182 -2.5307  0.6433 -0.4905
 1008MOL0     H33046   1.578   1.370  10.880 -0.5686  0.3292 -1.2925
 1008MOL0     H33047   1.578   1.545  10.913  2.2087  0.0143 -1.1598
 1008MOL0     H33048   1.383   1.536  11.045 -1.1279 -1.3307  2.1226
 1008MOL0     H33049   1.366   1.414  10.924  0.9994  1.7233 -1.7005
 1008MOL0     H33050   1.454   1.400  11.220 -2.9391  2.2646  0.5704
 1008MOL0     H33051   1.458   1.255  11.114 -0.3644  0.0807  0.3883
 1008MOL0     H33052   1.259   1.245  11.236  0.1950  0.8957  0.9654
 1008MOL0     H33053   1.219   1.416  11.216 -1.7310  0.4939 -0.6961
 1008MOL0     H33054   1.048   1.281  10.865  0.6739  0.2728 -0.7064
 1008MOL0     H33055   1.783   1.472  10.802 -0.6935 -1.1418 -0.6927
 1008MOL0     H33056   2.006   1.445  10.743  0.8908 -1.6202 -0.5485
 1009MOL0     O33057   3.652   3.466   4.537 -0.2250 -0.1005 -0.4596
 1009MOL0     C33058   3.718   3.523   4.445  0.8618  0.0827  0.5774
 1009MOL0     O33059   3.671   3.606   4.348  0.7656  0.9318 -0.8400
 1009MOL0     C33060   3.533   3.628   4.353  0.1580  0.1076 -0.1493
 1009MOL0     C33061   3.443   3.545   4.290 -0.4305 -0.2202  0.8151
 1009MOL0     C33062   3.303   3.572   4.297 -0.5652  0.9295  0.0165
 1009MOL0     C33063   3.248   3.664   4.382 -0.1262 -0.3270 -0.8676
 1009MOL0     O33064   3.114   3.693   4.398 -1.0384 -0.3628  0.2813
 1009MOL0     C33065   3.044   3.685   4.276  0.3627 -0.4730  1.1683
 1009MOL0     C33066   2.902   3.749   4.280  0.1639 -0.5001 -0.3082
 1009MOL0     C33067   2.800   3.672   4.359 -0.1069 -0.3089  0.1442
 1009MOL0     C33068   2.657   3.710   4.338 -0.1735  0.2184  0.5533
 1009MOL0     C33069   2.572   3.613   4.424 -1.2673 -0.7360 -0.1275
 1009MOL0     C33070   2.414   3.621   4.403  0.6360 -0.4057 -0.9210
 1009MOL0     C33071   2.372   3.671   4.257 -0.9169  0.3978 -0.3697
 1009MOL0     C33072   2.222   3.715   4.272 -0.0808 -0.7372 -0.4763
 1009MOL0     N33073   2.156   3.705   4.144 -0.1140 -0.3584  0.2276
 1009MOL0     C33074   2.141   3.809   4.057  0.3652 -0.9421  0.0704
 1009MOL0     C33075   2.062   3.759   3.960  0.0070 -1.0282  0.0383
 1009MOL0     C33076   1.978   3.834   3.868  0.7698  0.3932  0.7916
 1009MOL0     C33077   1.858   3.897   3.930 -0.7542 -0.0037  0.3809
 1009MOL0     C33078   1.765   3.789   3.990 -0.1028  1.0287 -0.0279
 1009MOL0     C33079   1.644   3.858   4.057  0.4339 -0.4328 -0.5718
 1009MOL0     O33080   1.539   3.876   3.952 -0.0928 -0.3170  0.0638
 1009MOL0     C33081   1.456   3.779   3.906 -0.6560 -0.8108 -0.6667
 1009MOL0     C33082   1.460   3.642   3.943 -0.4402  0.8049  0.4807
 1009MOL0     C33083   1.381   3.549   3.872 -0.2976 -0.0534 -0.6246
 1009MOL0     C33084   1.293   3.589   3.774  0.1914 -0.0154  0.5591
 1009MOL0     C33085   1.210   3.482   3.707  1.3891 -0.2900  0.4343
 1009MOL0     O33086   1.152   3.530   3.587 -0.2352 -0.1854 -0.2328
 1009MOL0     C33087   1.051   3.458   3.525 -0.4238  0.1281 -0.5251
 1009MOL0     C33088   0.936   3.405   3.588 -0.0689  0.0902 -0.7948
 1009MOL0     C33089   0.835   3.340   3.509  0.9153 -0.5009  0.1832
 1009MOL0     C33090   0.864   3.308   3.374  0.7197  0.2117 -0.9147
 1009MOL0     O33091   0.787   3.221   3.304  0.5283  0.5057 -0.2549
 1009MOL0     C33092   0.705   3.279   3.201  0.5744 -0.0800 -0.0722
 1009MOL0     C33093   0.593   3.179   3.164  0.2557  0.4279  0.7523
 1009MOL0     C33094   0.637   3.085   3.053  1.1973 -0.4698 -0.3895
 1009MOL0     C33095   0.534   2.982   2.993 -0.5201  0.3169 -0.9143
 1009MOL0     C33096   0.444   2.915   3.110  0.2140  0.9376 -0.8868
 1009MOL0     C33097   0.386   2.785   3.058 -0.0023  0.4659  0.8758
 1009MOL0     C33098   0.289   2.801   2.928  0.6843  0.5404 -1.0306
 1009MOL0     C33099   0.293   2.670   2.842  0.0680 -0.1083 -0.7480
 1009MOL0    Cl33100   0.170   2.548   2.910  0.4879  0.3811 -0.1434
 1009MOL0     C33101   0.978   3.367   3.317  0.5125  0.2419 -0.3427
 1009MOL0     C33102   1.069   3.442   3.390 -0.2404  0.2798  0.6311
 1009MOL0     O33103   1.178   3.375   3.762 -0.3573  0.0650  1.0486
 1009MOL0     C33104   1.282   3.728   3.737 -0.2002 -0.0296 -0.6696
 1009MOL0     C33105   1.367   3.818   3.804  0.2031  1.1475  0.0931
 1009MOL0     N33106   2.056   3.618   3.980 -0.7097 -0.0370  0.2163
 1009MOL0     N33107   2.119   3.586   4.085 -0.1834  0.5634 -0.2494
 1009MOL0     C33108   3.343   3.745   4.451  0.0169 -0.3926  0.5541
 1009MOL0     C33109   3.484   3.730   4.441  0.3169  0.2401 -0.3361
 1009MOL0     C33110   3.861   3.538   4.474  0.2494  0.3077 -1.1984
 1009MOL0     C33111   3.943   3.445   4.537 -0.4664 -0.9010 -0.3447
 1009MOL0     C33112   4.076   3.457   4.541 -0.5433 -0.8643  0.3880
 1009MOL0     C33113   4.142   3.579   4.496  0.3087  1.2581  1.3458
 1009MOL0     O33114   4.278   3.578   4.510  0.4281 -0.4418  0.0846
 1009MOL0     C33115   4.342   3.701   4.543  0.6622  0.4400 -0.1474
 1009MOL0     C33116   4.493   3.697   4.549 -0.9920 -0.1159  0.4039
 1009MOL0     C33117   4.549   3.628   4.422 -0.0777  0.7326 -0.3610
 1009MOL0     C33118   4.551   3.711   4.293  0.5147 -0.3567 -0.7760
 1009MOL0     C33119   4.650   3.818   4.308  0.7642  0.0285 -0.3504
 1009MOL0     C33120   4.720   3.909   4.310 -0.1077 -0.4289 -0.1005
 1009MOL0     C33121   4.063   3.679   4.440 -0.8247 -0.0202  0.6685
 1009MOL0     C33122   3.924   3.659   4.429  0.9408  0.3152  0.2077
 1009MOL0     H33123   3.479   3.474   4.217 -3.9590  0.0385 -1.3532
 1009MOL0     H33124   3.246   3.504   4.233 -0.7182  0.8869  0.1967
 1009MOL0     H33125   3.041   3.582   4.240  1.7549  0.6636 -2.6295
 1009MOL0     H33126   3.097   3.755   4.210  2.5251 -3.3346 -0.3816
 1009MOL0     H33127   2.859   3.752   4.179 -0.2865  2.4622 -0.1168
 1009MOL0     H33128   2.913   3.853   4.311  3.2553 -0.7320 -0.2733
 1009MOL0     H33129   2.812   3.704   4.462  3.3894  1.6240 -0.7136
 1009MOL0     H33130   2.827   3.566   4.348  2.7895  0.4769 -1.7103
 1009MOL0     H33131   2.646   3.816   4.365 -1.9639  0.1194  0.3103
 1009MOL0     H33132   2.643   3.698   4.230  3.8895  5.4895 -0.9925
 1009MOL0     H33133   2.591   3.631   4.530  0.7076 -2.5212 -0.0991
 1009MOL0     H33134   2.610   3.510   4.418 -3.2610 -1.5666  0.7255
 1009MOL0     H33135   2.386   3.692   4.481  0.1123 -0.5057 -1.0150
 1009MOL0     H33136   2.372   3.525   4.436  1.7827 -0.5670  0.1580
 1009MOL0     H33137   2.429   3.760   4.230  1.3190 -0.8366  0.0840
 1009MOL0     H33138   2.388   3.608   4.170  1.9049 -0.6970  0.8399
 1009MOL0     H33139   2.212   3.817   4.310  0.1102 -1.0535  0.4269
 1009MOL0     H33140   2.182   3.645   4.346  2.0687 -0.4281  1.0428
 1009MOL0     H33141   2.134   3.915   4.078  0.2230 -1.2295  1.6405
 1009MOL0     H33142   1.940   3.761   3.796  1.5016  1.5877 -0.8546
 1009MOL0     H33143   2.035   3.906   3.809 -0.3231 -0.4858 -1.4265
 1009MOL0     H33144   1.815   3.963   3.854  1.2745  2.4693  1.2081
 1009MOL0     H33145   1.893   3.971   4.003 -0.4627  0.0512  0.1885
 1009MOL0     H33146   1.737   3.707   3.924  1.9002 -1.8443  2.4200
 1009MOL0     H33147   1.810   3.749   4.081  0.8412  0.2686 -0.8093
 1009MOL0     H33148   1.663   3.944   4.122 -1.4326 -2.2181  2.6023
 1009MOL0     H33149   1.609   3.789   4.135 -1.5564 -1.3346 -2.1661
 1009MOL0     H33150   1.527   3.601   4.017  1.2769  2.4828 -0.0638
 1009MOL0     H33151   1.385   3.446   3.905 -0.7385  0.3210  0.6534
 1009MOL0     H33152   0.912   3.414   3.693 -0.7820 -2.4891 -0.6620
 1009MOL0     H33153   0.748   3.296   3.558 -1.3276  2.4050 -0.9308
 1009MOL0     H33154   0.763   3.303   3.112  0.1636 -3.5297 -1.4278
 1009MOL0     H33155   0.646   3.366   3.230 -2.4029 -1.7932 -0.5069
 1009MOL0     H33156   0.504   3.228   3.123 -0.5348 -0.2230  1.6150
 1009MOL0     H33157   0.553   3.122   3.249  1.3623 -2.3314 -0.4842
 1009MOL0     H33158   0.721   3.032   3.097  1.9723  0.2142 -1.0238
 1009MOL0     H33159   0.688   3.144   2.977  2.8551  2.2305  2.5824
 1009MOL0     H33160   0.478   3.036   2.916  2.1338  1.7449 -1.9784
 1009MOL0     H33161   0.588   2.900   2.946  0.5097  2.1283 -3.0640
 1009MOL0     H33162   0.358   2.977   3.133  0.5571  0.6185  1.4553
 1009MOL0     H33163   0.508   2.894   3.196 -0.2706  0.3086 -0.6721
 1009MOL0     H33164   0.330   2.734   3.137 -2.0068 -1.8480 -1.8471
 1009MOL0     H33165   0.457   2.704   3.035 -1.7463 -1.8140  2.9939
 1009MOL0     H33166   0.187   2.827   2.959  0.6712 -0.3613 -0.2706
 1009MOL0     H33167   0.317   2.884   2.863 -0.6337  0.9635 -1.0847
 1009MOL0     H33168   0.393   2.627   2.856 -0.4368 -1.2901 -0.6273
 1009MOL0     H33169   0.258   2.695   2.741 -1.8019 -1.9241 -0.6031
 1009MOL0     H33170   1.001   3.343   3.214 -0.6502  0.2390 -0.6146
 1009MOL0     H33171   1.153   3.495   3.346  0.3566 -0.0387  1.3679
 1009MOL0     H33172   1.206   3.761   3.667 -1.1943  0.4959  0.6160
 1009MOL0     H33173   1.353   3.924   3.782 -4.6700  0.8458  0.6269
 1009MOL0     H33174   3.292   3.823   4.508 -0.2512 -0.9412  1.0801
 1009MOL0     H33175   3.549   3.800   4.491  2.2025 -1.6552  0.0208
 1009MOL0     H33176   3.899   3.359   4.586  1.5393 -1.5869  0.3602
 1009MOL0     H33177   4.127   3.373   4.586 -1.9686 -1.3697  1.1344
 1009MOL0     H33178   4.310   3.748   4.636 -1.4429 -0.7677 -0.1713
 1009MOL0     H33179   4.307   3.770   4.466 -2.8806 -1.7626 -0.7685
 1009MOL0     H33180   4.530   3.799   4.566  2.9865 -1.4467  0.7494
 1009MOL0     H33181   4.520   3.634   4.634 -2.0220  2.3237  2.7027
 1009MOL0     H33182   4.501   3.532   4.401  1.4592  0.1287 -1.3413
 1009MOL0     H33183   4.654   3.611   4.449 -0.6720  0.6236  2.1847
 1009MOL0     H33184   4.574   3.642   4.212 -0.1429  1.3582 -2.5292
 1009MOL0     H33185   4.449   3.744   4.271  0.6342  0.0593 -0.7227
 1009MOL0     H33186   4.780   3.996   4.324  0.9313 -0.9940 -0.8925
 1009MOL0     H33187   4.110   3.773   4.410 -3.6851  1.5728  0.7875
 1009MOL0     H33188   3.877   3.744   4.380  1.2898 -0.4674 -1.5826
 1010MOL0     O33189   1.525   2.483   6.251 -0.4299  0.2234 -0.0791
 1010MOL0     C33190   1.603   2.409   6.200  0.1978  0.0615 -0.0761
 1010MOL0     O33191   1.587   2.349   6.080 -0.7059 -0.8975 -0.5783
 1010MOL0     C33192   1.467   2.385   6.006 -0.8346  0.1628 -1.2022
 1010MOL0     C33193   1.408   2.291   5.930 -0.0767  0.7796  0.2199
 1010MOL0     C33194   1.291   2.314   5.864 -0.2434 -0.3545  0.2828
 1010MOL0     C33195   1.224   2.434   5.875  0.0113 -0.0882 -0.3699
 1010MOL0     O33196   1.100   2.440   5.805 -0.0323 -0.4562  0.2832
 1010MOL0     C33197   1.014   2.553   5.829 -1.1763  0.0894  0.5629
 1010MOL0     C33198   0.892   2.559   5.741 -1.0254 -0.2055 -0.9089
 1010MOL0     C33199   0.779   2.472   5.786 -0.5635 -1.0732 -0.4963
 1010MOL0     C33200   0.656   2.461   5.691 -0.7139  0.0239 -0.5827
 1010MOL0     C33201   0.536   2.382   5.752 -0.4337  0.1414  0.2371
 1010MOL0     C33202   0.411   2.405   5.671  0.5807 -0.0536 -0.1080
 1010MOL0     C33203   0.295   2.329   5.736 -0.4985  0.0458 -0.7768
 1010MOL0     C33204   0.179   2.298   5.644  0.6023  0.3402 -0.6955
 1010MOL0     N33205   0.089   2.211   5.720 -0.1560  0.3612  0.7573
 1010MOL0     C33206   0.100   2.086   5.764  0.0861  0.0775  0.3751
 1010MOL0     C33207  -0.026   2.040   5.784  0.0084  0.2962 -0.4118
 1010MOL0     C33208  -0.071   1.901   5.835 -0.6028 -1.5224 -0.1592
 1010MOL0     C33209  -0.043   1.797   5.720 -0.0387  0.1061 -0.2199
 1010MOL0     C33210  -0.124   1.667   5.756 -0.0043  0.1199  0.3607
 1010MOL0     C33211  -0.051   1.586   5.857  0.4504  0.0339 -0.1331
 1010MOL0     O33212  -0.102   1.449   5.876  0.1217  0.4343  0.9838
 1010MOL0     C33213  -0.229   1.421   5.925  0.2681  0.1337  0.6971
 1010MOL0     C33214  -0.250   1.410   6.060  0.1594 -0.2049 -0.6718
 1010MOL0     C33215  -0.370   1.349   6.118  0.0058 -0.6128  0.1025
 1010MOL0     C33216  -0.474   1.309   6.025  0.2146 -0.1150  0.1670
 1010MOL0     C33217  -0.594   1.240   6.069 -0.1417  0.0247  0.4942
 1010MOL0     O33218  -0.701   1.248   5.983  0.3266  0.9486  0.2704
 1010MOL0     C33219  -0.805   1.184   6.039 -0.3432  0.3006 -0.2091
 1010MOL0     C33220  -0.914   1.251   6.099  0.3837  0.2260  0.8643
 1010MOL0     C33221  -1.027   1.178   6.139 -0.0513  0.1637  0.9217
 1010MOL0     C33222  -1.030   1.044   6.142 -0.4809  0.4533 -0.4201
 1010MOL0     O33223  -1.145   0.983   6.189 -0.0248  1.0990  1.0150
 1010MOL0     C33224  -1.247   1.046   6.257  0.5029  0.4571 -0.3117
 1010MOL0     C33225  -1.318   0.930   6.333  0.1268 -0.3186  0.0627
 1010MOL0     C33226  -1.440   0.986   6.407 -0.0036 -0.4345  1.6455
 1010MOL0     C33227  -1.517   0.868   6.467  0.5792 -0.0983 -0.2496
 1010MOL0     C33228  -1.621   0.916   6.567 -0.1667  0.0736  0.2241
 1010MOL0     C33229  -1.716   0.800   6.604  0.5891 -0.5339 -0.3183
 1010MOL0     C33230  -1.821   0.816   6.710  0.3507  0.2597 -0.1527
 1010MOL0     C33231  -1.791   0.740   6.832  0.6642 -0.5240 -0.2754
 1010MOL0    Cl33232  -1.899   0.798   6.962 -0.3040  0.3698  0.1073
 1010MOL0     C33233  -0.924   0.971   6.085  0.1659 -0.6858  0.2840
 1010MOL0     C33234  -0.811   1.044   6.029  0.2947  0.3122  1.0748
 1010MOL0     O33235  -0.588   1.186   6.184  0.3932 -0.9008  1.0249
 1010MOL0     C33236  -0.451   1.321   5.885 -0.0874 -0.0071 -0.1734
 1010MOL0     C33237  -0.331   1.371   5.841 -0.5637  0.3594  0.1734
 1010MOL0     N33238  -0.103   2.144   5.771  0.7225 -0.3306 -0.4731
 1010MOL0     N33239  -0.045   2.249   5.736  0.4341  0.0378  0.1334
 1010MOL0     C33240   1.280   2.532   5.949 -0.2218 -0.3672  0.2608
 1010MOL0     C33241   1.413   2.511   6.006  0.0778 -0.3801  0.1074
 1010MOL0     C33242   1.731   2.403   6.261 -0.2992 -0.2216 -0.3159
 1010MOL0     C33243   1.755   2.433   6.398  0.1813  0.0810 -0.4238
 1010MOL0     C33244   1.875   2.425   6.462 -0.3583  0.0159 -0.3905
 1010MOL0     C33245   1.990   2.385   6.390 -0.8366 -0.4090  0.4005
 1010MOL0     O33246   2.098   2.367   6.463 -0.1141  0.8072 -0.8892
 1010MOL0     C33247   2.224   2.349   6.406 -0.2376  0.7799  0.1958
 1010MOL0     C33248   2.315   2.365   6.531 -0.8512 -0.7415 -0.0055
 1010MOL0     C33249   2.466   2.323   6.524  0.3671  0.2451  0.7314
 1010MOL0     C33250   2.538   2.324   6.660 -0.4151  1.3400 -0.4925
 1010MOL0     C33251   2.562   2.457   6.710 -0.1398  0.0179 -0.4168
 1010MOL0     C33252   2.587   2.576   6.742 -0.0429 -0.6875 -0.1075
 1010MOL0     C33253   1.968   2.356   6.254  0.5144  0.0304  0.6064
 1010MOL0     C33254   1.843   2.362   6.188 -0.4538 -0.2320  0.7115
 1010MOL0     H33255   1.458   2.195   5.917  0.7892  1.3097 -0.4321
 1010MOL0     H33256   1.238   2.245   5.799 -3.7119  1.9683  0.3963
 1010MOL0     H33257   1.077   2.636   5.795 -0.2403 -1.6037 -2.0507
 1010MOL0     H33258   0.982   2.554   5.934  2.7668 -0.9914  1.9502
 1010MOL0     H33259   0.914   2.536   5.636  0.4872 -1.0345 -0.4361
 1010MOL0     H33260   0.851   2.661   5.736 -0.8167 -0.0571  0.2064
 1010MOL0     H33261   0.747   2.520   5.879  1.9759  0.8221 -0.4700
 1010MOL0     H33262   0.824   2.375   5.808  0.9316 -0.8251 -2.1556
 1010MOL0     H33263   0.628   2.565   5.670  0.0209  0.5049  0.7362
 1010MOL0     H33264   0.696   2.410   5.603 -0.6328 -1.6215  0.3571
 1010MOL0     H33265   0.514   2.401   5.857  0.0365  0.1415  0.3400
 1010MOL0     H33266   0.574   2.279   5.748  0.6138  0.5461 -0.8954
 1010MOL0     H33267   0.443   2.375   5.571  1.0113  1.2786 -0.3871
 1010MOL0     H33268   0.385   2.511   5.669  0.2155 -0.1538 -1.3871
 1010MOL0     H33269   0.327   2.228   5.762  0.4877  0.8631  1.3852
 1010MOL0     H33270   0.251   2.379   5.822  1.2044  0.2108  0.0346
 1010MOL0     H33271   0.204   2.259   5.545 -3.6651 -0.0684 -1.8084
 1010MOL0     H33272   0.128   2.393   5.625  0.8542  0.2531 -1.9347
 1010MOL0     H33273   0.193   2.038   5.791  0.3418  0.7718  0.7493
 1010MOL0     H33274  -0.177   1.919   5.856 -0.3010 -0.0254  0.2573
 1010MOL0     H33275  -0.012   1.887   5.925  1.3014 -1.3349 -1.3245
 1010MOL0     H33276   0.063   1.774   5.707 -0.1427  0.6765 -2.3214
 1010MOL0     H33277  -0.080   1.848   5.631 -2.2706 -1.7654 -0.4628
 1010MOL0     H33278  -0.223   1.695   5.793  0.7196  1.7283  1.1925
 1010MOL0     H33279  -0.133   1.620   5.658 -1.2365  2.6442 -0.8316
 1010MOL0     H33280  -0.065   1.636   5.954 -0.1709  1.0556 -0.7308
 1010MOL0     H33281   0.057   1.577   5.842  0.2426  0.0540 -1.8469
 1010MOL0     H33282  -0.172   1.445   6.127 -1.9900  1.3153  1.1920
 1010MOL0     H33283  -0.388   1.335   6.224  4.3649  1.6646  1.3668
 1010MOL0     H33284  -0.905   1.360   6.102 -0.6166  0.4553 -1.7171
 1010MOL0     H33285  -1.114   1.224   6.184  0.9985  1.7326  1.4060
 1010MOL0     H33286  -1.320   1.096   6.193  1.3021  0.5817 -1.1375
 1010MOL0     H33287  -1.210   1.118   6.330 -2.0127  1.1018  0.4379
 1010MOL0     H33288  -1.253   0.883   6.407 -1.0278  0.7927  1.8694
 1010MOL0     H33289  -1.342   0.848   6.265 -1.1347 -1.4956  1.8369
 1010MOL0     H33290  -1.503   1.029   6.329  0.2738 -2.7061  0.0907
 1010MOL0     H33291  -1.398   1.058   6.478  1.9295 -0.6934  0.8159
 1010MOL0     H33292  -1.576   0.816   6.390 -0.6729  0.9621 -0.0437
 1010MOL0     H33293  -1.445   0.800   6.512  1.6540 -0.4301 -2.3272
 1010MOL0     H33294  -1.684   0.987   6.512 -1.7118 -3.4470 -3.0204
 1010MOL0     H33295  -1.570   0.967   6.650  2.6659 -0.7449 -0.9116
 1010MOL0     H33296  -1.650   0.721   6.641  1.0188 -0.7574 -1.5120
 1010MOL0     H33297  -1.758   0.766   6.509  3.6030 -1.8414 -1.3197
 1010MOL0     H33298  -1.846   0.922   6.718  0.5747  0.4380 -1.5731
 1010MOL0     H33299  -1.913   0.768   6.675  1.1897 -1.4009 -0.1769
 1010MOL0     H33300  -1.690   0.765   6.867 -0.1342  1.1053  0.9939
 1010MOL0     H33301  -1.808   0.632   6.837 -1.4963 -0.1714  2.9091
 1010MOL0     H33302  -0.924   0.863   6.085  1.1015 -0.7211  1.8294
 1010MOL0     H33303  -0.735   0.981   5.983 -0.6217 -0.2977  0.3546
 1010MOL0     H33304  -0.518   1.289   5.805  1.6197 -0.1525 -1.5958
 1010MOL0     H33305  -0.304   1.374   5.736 -3.5790  3.8186 -0.7304
 1010MOL0     H33306   1.248   2.633   5.972  0.9586 -0.2197  1.3835
 1010MOL0     H33307   1.467   2.592   6.054  1.2471 -0.5247 -0.9026
 1010MOL0     H33308   1.675   2.460   6.466  0.3373 -0.3281 -0.0743
 1010MOL0     H33309   1.890   2.439   6.568  1.6296 -0.7485 -0.5300
 1010MOL0     H33310   2.257   2.429   6.340  2.2393  2.4578  3.1946
 1010MOL0     H33311   2.221   2.253   6.354 -1.0820  1.3856 -0.9074
 1010MOL0     H33312   2.309   2.471   6.560  0.8735 -0.5571 -0.1980
 1010MOL0     H33313   2.274   2.300   6.608 -0.3376 -2.0407 -0.8070
 1010MOL0     H33314   2.524   2.391   6.461  1.4396 -0.5396  0.8445
 1010MOL0     H33315   2.470   2.224   6.479 -0.4263  0.0157  1.1483
 1010MOL0     H33316   2.490   2.268   6.740 -1.1318  5.0353  1.9131
 1010MOL0     H33317   2.635   2.277   6.643 -1.3767 -0.7771 -0.3451
 1010MOL0     H33318   2.627   2.672   6.765 -0.3093 -0.5448 -0.2282
 1010MOL0     H33319   2.057   2.330   6.198  1.0274  1.9848  0.4570
 1010MOL0     H33320   1.829   2.343   6.082  0.6587  3.0454 -0.1259
 1011MOL0     O33321   2.930   1.159   1.883  0.4471  1.2075 -0.2129
 1011MOL0     C33322   3.026   1.093   1.903  0.0652 -0.3064 -0.0178
 1011MOL0     O33323   3.044   1.003   2.005 -0.1643 -0.2717 -0.3365
 1011MOL0     C33324   2.936   0.982   2.090  0.8854 -0.2766 -0.3521
 1011MOL0     C33325   2.919   1.047   2.206  0.1846 -0.0428 -0.0741
 1011MOL0     C33326   2.821   1.000   2.298 -0.3247  0.1781  0.2462
 1011MOL0     C33327   2.744   0.892   2.269 -0.5916  1.2687  0.2575
 1011MOL0     O33328   2.656   0.834   2.348 -0.7576 -0.2543 -0.8452
 1011MOL0     C33329   2.609   0.898   2.473  0.0388 -0.5591 -0.3578
 1011MOL0     C33330   2.517   0.813   2.559  1.1844  0.8186  1.0311
 1011MOL0     C33331   2.382   0.783   2.483 -1.3986  0.3024 -0.2333
 1011MOL0     C33332   2.287   0.693   2.572  0.1431 -0.2576  0.5162
 1011MOL0     C33333   2.152   0.730   2.528  0.8230 -0.3501  0.4283
 1011MOL0     C33334   2.050   0.627   2.588 -0.6447 -0.0299 -0.2516
 1011MOL0     C33335   1.908   0.654   2.531  0.1276  0.6610 -0.0567
 1011MOL0     C33336   1.824   0.533   2.545  0.5513 -0.2204 -1.0965
 1011MOL0     N33337   1.695   0.581   2.539  0.0683  0.4807  0.5831
 1011MOL0     C33338   1.632   0.610   2.421 -0.0901  0.6233  0.8826
 1011MOL0     C33339   1.500   0.651   2.451  0.3411  0.1595 -0.5513
 1011MOL0     C33340   1.384   0.678   2.367  0.2463 -0.6078  0.5071
 1011MOL0     C33341   1.283   0.568   2.358 -0.3300 -0.1437 -0.1848
 1011MOL0     C33342   1.151   0.630   2.297  0.2000 -0.1680 -0.4653
 1011MOL0     C33343   1.030   0.534   2.282  0.6559  0.0605  0.7957
 1011MOL0     O33344   0.930   0.616   2.217 -0.5043  0.6039 -0.3913
 1011MOL0     C33345   0.805   0.562   2.190  0.0287 -0.4989  0.3216
 1011MOL0     C33346   0.704   0.655   2.156 -0.4756  0.4076 -0.2855
 1011MOL0     C33347   0.562   0.622   2.143  0.1095  0.2161  0.8109
 1011MOL0     C33348   0.522   0.488   2.151 -0.5304  0.0605 -0.4611
 1011MOL0     C33349   0.384   0.445   2.137 -0.6305 -0.1825  0.3344
 1011MOL0     O33350   0.357   0.323   2.187 -0.5799 -0.1280  0.7639
 1011MOL0     C33351   0.224   0.287   2.200 -0.0063  0.2105  0.8847
 1011MOL0     C33352   0.173   0.165   2.172  0.1486  0.1586 -0.9920
 1011MOL0     C33353   0.036   0.129   2.183 -0.3919 -0.1940  0.2164
 1011MOL0     C33354  -0.063   0.227   2.217 -0.3060  0.1803  0.1936
 1011MOL0     O33355  -0.198   0.206   2.236 -0.0094 -0.1594 -0.0691
 1011MOL0     C33356  -0.251   0.076   2.207 -0.0121  0.0920 -0.1880
 1011MOL0     C33357  -0.392   0.074   2.262  0.4228  0.2138  0.5231
 1011MOL0     C33358  -0.436  -0.068   2.277 -0.4272  0.8537 -0.0297
 1011MOL0     C33359  -0.581  -0.098   2.302  0.4285 -0.5702  0.3044
 1011MOL0     C33360  -0.608  -0.245   2.332 -0.2099 -0.2640 -0.2795
 1011MOL0     C33361  -0.617  -0.341   2.209 -0.0510  0.2041  0.4294
 1011MOL0     C33362  -0.758  -0.341   2.142 -0.0263 -0.1530  0.1241
 1011MOL0     C33363  -0.776  -0.422   2.006  0.2272  0.6831  1.0133
 1011MOL0    Cl33364  -0.735  -0.597   2.056 -0.0442  0.6267  0.4106
 1011MOL0     C33365  -0.006   0.357   2.251 -0.0936  1.1039  0.3915
 1011MOL0     C33366   0.132   0.380   2.247 -0.1148 -0.0657  1.0144
 1011MOL0     O33367   0.311   0.526   2.088  0.1632 -0.4651  0.4260
 1011MOL0     C33368   0.624   0.396   2.182  0.0414 -0.2219  0.7147
 1011MOL0     C33369   0.760   0.431   2.213 -0.3381 -0.4339 -0.3557
 1011MOL0     N33370   1.494   0.642   2.590 -0.4186 -0.2889  0.5518
 1011MOL0     N33371   1.613   0.617   2.642 -0.0836 -0.4367  0.8176
 1011MOL0     C33372   2.776   0.812   2.155  0.0457  0.0756  0.4582
 1011MOL0     C33373   2.866   0.859   2.062 -0.5606  0.6226  0.0397
 1011MOL0     C33374   3.145   1.133   1.823  1.6034 -0.1985 -0.2491
 1011MOL0     C33375   3.170   1.251   1.763  0.7397  0.6289 -0.7847
 1011MOL0     C33376   3.291   1.275   1.698 -0.3999 -0.1692 -1.0395
 1011MOL0     C33377   3.389   1.180   1.696 -0.5937  0.3977 -0.5518
 1011MOL0     O33378   3.513   1.206   1.648 -0.2859 -0.5024 -0.4971
 1011MOL0     C33379   3.597   1.250   1.749 -0.2376 -0.0528 -0.1185
 1011MOL0     C33380   3.730   1.292   1.686 -0.4316 -0.4539 -0.7490
 1011MOL0     C33381   3.830   1.369   1.781  0.2985  0.3282  0.1593
 1011MOL0     C33382   3.944   1.428   1.695 -0.1755 -0.0562 -0.4142
 1011MOL0     C33383   4.037   1.339   1.628  0.2690 -0.6360 -0.1634
 1011MOL0     C33384   4.120   1.269   1.580  0.0951 -0.3287 -0.2900
 1011MOL0     C33385   3.367   1.056   1.758  0.1968  1.1430  0.1852
 1011MOL0     C33386   3.248   1.039   1.827 -0.1890 -0.2094 -0.8596
 1011MOL0     H33387   2.989   1.130   2.217 -0.2384  0.1910  0.9146
 1011MOL0     H33388   2.799   1.057   2.388 -1.1848 -2.0940  1.5543
 1011MOL0     H33389   2.556   0.990   2.446  0.5595 -0.0122  0.4431
 1011MOL0     H33390   2.689   0.928   2.541 -2.4428  0.4591  2.3320
 1011MOL0     H33391   2.482   0.859   2.653 -2.5534  1.5842 -0.5395
 1011MOL0     H33392   2.572   0.721   2.579  2.2196  1.6766  2.2998
 1011MOL0     H33393   2.404   0.736   2.387 -2.5560 -1.0714  0.1375
 1011MOL0     H33394   2.337   0.876   2.445  0.6649  0.9454 -1.2245
 1011MOL0     H33395   2.293   0.586   2.546 -0.7541  0.3318 -2.4397
 1011MOL0     H33396   2.305   0.715   2.678 -0.4413  3.8795 -0.1126
 1011MOL0     H33397   2.142   0.716   2.420 -1.4480  1.7870  0.2764
 1011MOL0     H33398   2.130   0.833   2.558  3.6167 -0.2188  2.3840
 1011MOL0     H33399   2.056   0.635   2.697 -0.9169 -0.5931 -0.1955
 1011MOL0     H33400   2.087   0.529   2.556  1.3396  0.8734 -0.9218
 1011MOL0     H33401   1.858   0.738   2.580  0.5539 -0.6365  2.8080
 1011MOL0     H33402   1.908   0.656   2.422  1.4411  2.0474 -0.0664
 1011MOL0     H33403   1.838   0.495   2.646  3.1248  0.6443 -1.0692
 1011MOL0     H33404   1.850   0.456   2.471  1.7036 -0.7696 -0.1479
 1011MOL0     H33405   1.688   0.607   2.327  0.1506 -1.0159  1.0618
 1011MOL0     H33406   1.417   0.712   2.268 -2.4894  0.3102 -0.1920
 1011MOL0     H33407   1.339   0.765   2.416 -0.0499  1.6123 -3.2577
 1011MOL0     H33408   1.273   0.544   2.464  1.2594  2.0286  0.5326
 1011MOL0     H33409   1.308   0.486   2.290 -1.2131  0.2215 -0.9852
 1011MOL0     H33410   1.110   0.709   2.361 -1.3670  1.1076 -2.9035
 1011MOL0     H33411   1.176   0.675   2.201  2.3343  0.2863  0.2489
 1011MOL0     H33412   1.002   0.498   2.381 -1.0533 -1.1254 -0.0694
 1011MOL0     H33413   1.053   0.453   2.212 -0.7535  1.0845 -0.9270
 1011MOL0     H33414   0.720   0.763   2.151  0.0220  0.3325 -0.3227
 1011MOL0     H33415   0.491   0.703   2.127  0.9017  0.7869  0.0994
 1011MOL0     H33416   0.236   0.082   2.142 -0.6247  0.0686 -2.4880
 1011MOL0     H33417   0.000   0.030   2.157  2.1200 -1.7871  2.3506
 1011MOL0     H33418  -0.188  -0.008   2.240  0.1764 -0.6968 -2.3771
 1011MOL0     H33419  -0.263   0.070   2.098 -2.4457  4.9814 -0.4453
 1011MOL0     H33420  -0.446   0.122   2.180  0.0650  0.7632  1.0701
 1011MOL0     H33421  -0.413   0.121   2.359  0.1465 -0.6113  0.8635
 1011MOL0     H33422  -0.389  -0.122   2.360 -3.0788 -0.8738  0.4967
 1011MOL0     H33423  -0.408  -0.121   2.185 -2.6883 -2.6493  1.0746
 1011MOL0     H33424  -0.598  -0.045   2.397  0.1761 -1.1094  0.5661
 1011MOL0     H33425  -0.650  -0.051   2.232  0.8252  2.6198  1.8543
 1011MOL0     H33426  -0.699  -0.244   2.393  0.8928  0.4719  1.4193
 1011MOL0     H33427  -0.534  -0.289   2.400 -1.0207 -3.5280 -1.3048
 1011MOL0     H33428  -0.596  -0.442   2.245 -1.1155 -0.4419 -0.6879
 1011MOL0     H33429  -0.544  -0.312   2.133 -0.7165  0.1006 -0.2639
 1011MOL0     H33430  -0.820  -0.370   2.228  1.3241  1.7843  1.8567
 1011MOL0     H33431  -0.786  -0.241   2.108 -0.1549 -0.1185  0.3333
 1011MOL0     H33432  -0.694  -0.394   1.939  1.3682  3.3348  3.3403
 1011MOL0     H33433  -0.877  -0.429   1.964  1.2972  2.2896 -2.0837
 1011MOL0     H33434  -0.060   0.438   2.299  0.2207  1.4155  0.2301
 1011MOL0     H33435   0.143   0.487   2.262 -3.1781  0.6159 -0.7166
 1011MOL0     H33436   0.599   0.291   2.196  0.5086 -0.3243  0.7870
 1011MOL0     H33437   0.816   0.354   2.264  0.2154 -1.3887 -2.2910
 1011MOL0     H33438   2.724   0.721   2.128  0.2187 -0.0161  0.4383
 1011MOL0     H33439   2.883   0.798   1.974 -3.5566  0.0293 -0.2431
 1011MOL0     H33440   3.092   1.325   1.774  1.9559  1.6366  2.1814
 1011MOL0     H33441   3.318   1.367   1.648  1.5142  0.4229  0.9111
 1011MOL0     H33442   3.609   1.174   1.827  0.0567 -0.4534 -0.5497
 1011MOL0     H33443   3.558   1.339   1.799 -0.2133  1.2127 -2.2188
 1011MOL0     H33444   3.779   1.198   1.659 -1.5343 -0.8563 -1.4076
 1011MOL0     H33445   3.720   1.351   1.595 -1.8307  0.4088 -0.0692
 1011MOL0     H33446   3.871   1.292   1.848 -2.2017 -1.3473 -0.1100
 1011MOL0     H33447   3.766   1.436   1.839  2.1630  1.6993  0.7370
 1011MOL0     H33448   3.897   1.501   1.628  2.9318  4.2201  1.5218
 1011MOL0     H33449   4.016   1.489   1.752  0.4581 -2.0467  1.0244
 1011MOL0     H33450   4.205   1.212   1.548 -0.4953 -2.3927  1.5719
 1011MOL0     H33451   3.436   0.976   1.733  2.4958  3.2895 -0.6464
 1011MOL0     H33452   3.239   0.952   1.892  2.0231  1.7478  2.3653
 1012MOL0     O33453   0.356   5.912   7.307  0.9464 -0.8109 -0.4726
 1012MOL0     C33454   0.243   5.966   7.308  0.3072  0.5310 -0.2989
 1012MOL0     O33455   0.226   6.101   7.334  0.5166  0.4857 -0.2561
 1012MOL0     C33456   0.344   6.175   7.336  1.1679  0.1327 -0.2375
 1012MOL0     C33457   0.389   6.227   7.218  0.0873 -0.5792 -0.2828
 1012MOL0     C33458   0.492   6.314   7.209  0.1383  0.9328 -0.8209
 1012MOL0     C33459   0.555   6.365   7.318 -0.5154  0.0920 -0.0447
 1012MOL0     O33460   0.656   6.465   7.305  0.5393  0.3547 -0.1721
 1012MOL0     C33461   0.774   6.433   7.385  0.0482  0.3145  0.2469
 1012MOL0     C33462   0.804   6.566   7.458  0.0307 -0.5431  1.4215
 1012MOL0     C33463   0.940   6.555   7.535  1.2965 -0.3993 -0.2210
 1012MOL0     C33464   1.059   6.570   7.437 -0.1587 -0.6253  0.1378
 1012MOL0     C33465   1.084   6.712   7.394  0.3986 -0.0433 -0.4122
 1012MOL0     C33466   1.193   6.728   7.279  0.5745  0.0288 -0.1946
 1012MOL0     C33467   1.336   6.737   7.331  0.1455 -0.5967  0.8244
 1012MOL0     C33468   1.424   6.769   7.205 -0.1777 -0.1539  0.1646
 1012MOL0     N33469   1.557   6.809   7.246 -0.9044  0.1272 -0.2561
 1012MOL0     C33470   1.599   6.936   7.247 -0.6738 -1.4481 -0.0948
 1012MOL0     C33471   1.729   6.935   7.259  0.0494  0.1601  0.4938
 1012MOL0     C33472   1.828   7.044   7.267  1.6601  0.2040  0.0369
 1012MOL0     C33473   1.778   7.152   7.360 -0.2527  0.0738  0.0494
 1012MOL0     C33474   1.821   7.123   7.510 -0.7185  0.6780  0.8807
 1012MOL0     C33475   1.705   7.086   7.592  0.4351 -0.2348 -0.2177
 1012MOL0     O33476   1.612   7.188   7.616  0.0231 -0.8756  0.3125
 1012MOL0     C33477   1.529   7.183   7.727  0.2372  1.2741  0.5373
 1012MOL0     C33478   1.477   7.065   7.787 -1.7318 -0.5561 -0.3848
 1012MOL0     C33479   1.418   7.063   7.911 -0.7725  0.4301  0.3644
 1012MOL0     C33480   1.392   7.184   7.974 -0.3215 -0.0080 -0.2209
 1012MOL0     C33481   1.316   7.202   8.098 -0.1593  1.2686 -0.3904
 1012MOL0     O33482   1.235   7.093   8.133 -0.5631  0.1157 -0.0420
 1012MOL0     C33483   1.163   7.062   8.248 -0.4242 -0.5350  0.1156
 1012MOL0     C33484   1.186   7.132   8.367  0.2014  0.1105 -0.2185
 1012MOL0     C33485   1.117   7.101   8.488  0.3172 -0.1899 -0.4874
 1012MOL0     C33486   1.039   6.983   8.495 -0.2032 -1.2568  0.5200
 1012MOL0     O33487   0.973   6.948   8.608 -0.1660  0.6059  0.0729
 1012MOL0     C33488   1.051   6.905   8.721  0.2085  0.2592 -0.5558
 1012MOL0     C33489   0.975   6.850   8.842  0.1647 -0.1919  0.6156
 1012MOL0     C33490   0.895   6.725   8.797 -0.2202 -0.5784 -0.3980
 1012MOL0     C33491   0.789   6.688   8.902 -0.0735 -0.5223  0.7553
 1012MOL0     C33492   0.710   6.564   8.840 -0.3776 -0.1901 -1.1042
 1012MOL0     C33493   0.582   6.537   8.896 -0.0604 -0.5431 -1.7245
 1012MOL0     C33494   0.478   6.656   8.881 -0.3076 -0.0295  0.5847
 1012MOL0     C33495   0.335   6.601   8.900 -0.3426 -0.1688 -0.7278
 1012MOL0    Cl33496   0.302   6.562   9.062  0.0814  0.0142 -0.2828
 1012MOL0     C33497   1.011   6.919   8.369 -0.2861 -0.1712 -0.3995
 1012MOL0     C33498   1.073   6.950   8.246 -0.8112 -1.2166  0.6775
 1012MOL0     O33499   1.331   7.308   8.168  0.5868  0.4344  0.3764
 1012MOL0     C33500   1.438   7.298   7.911  0.7991  0.1703  0.8170
 1012MOL0     C33501   1.503   7.294   7.795  0.3449 -0.9072 -0.5124
 1012MOL0     N33502   1.761   6.797   7.271  0.2658 -0.2448 -0.3635
 1012MOL0     N33503   1.658   6.723   7.259 -0.6052  0.6637  0.0325
 1012MOL0     C33504   0.511   6.317   7.451 -0.1944  0.2478  0.4342
 1012MOL0     C33505   0.398   6.224   7.454 -0.4162  0.9501  0.0770
 1012MOL0     C33506   0.123   5.877   7.291 -0.5547 -0.6655 -0.0117
 1012MOL0     C33507   0.003   5.936   7.318  0.6948 -0.1037  0.4601
 1012MOL0     C33508  -0.114   5.863   7.278 -0.1454 -0.0589 -1.1515
 1012MOL0     C33509  -0.108   5.735   7.239 -0.1682  0.8714  1.4816
 1012MOL0     O33510  -0.216   5.661   7.196  0.6752  0.0591 -0.4074
 1012MOL0     C33511  -0.339   5.679   7.270 -0.5751 -0.6154  0.8377
 1012MOL0     C33512  -0.424   5.554   7.276  0.3171 -0.5229  0.0476
 1012MOL0     C33513  -0.510   5.515   7.154 -1.0844  0.2403 -0.3283
 1012MOL0     C33514  -0.609   5.404   7.186  0.5244 -0.2796 -0.7392
 1012MOL0     C33515  -0.719   5.387   7.084 -0.0456 -0.1152  0.2853
 1012MOL0     C33516  -0.807   5.369   7.005  0.0467 -0.6305 -0.5033
 1012MOL0     C33517   0.018   5.666   7.227 -0.5930  0.1343  0.1494
 1012MOL0     C33518   0.134   5.740   7.248 -0.5337 -0.1364  0.4809
 1012MOL0     H33519   0.335   6.197   7.129 -1.2020 -0.0059  0.2861
 1012MOL0     H33520   0.526   6.353   7.114  1.8730  0.0750 -0.5874
 1012MOL0     H33521   0.852   6.395   7.319  0.9322 -0.6976  1.7925
 1012MOL0     H33522   0.756   6.356   7.460 -1.6801  1.5387  1.1687
 1012MOL0     H33523   0.723   6.586   7.529 -0.1697  1.2426  0.7307
 1012MOL0     H33524   0.821   6.640   7.380 -0.4382 -0.5453  1.3168
 1012MOL0     H33525   0.946   6.459   7.586 -0.0745 -0.9780 -1.0891
 1012MOL0     H33526   0.940   6.640   7.603 -2.4970 -1.0677  0.8751
 1012MOL0     H33527   1.143   6.526   7.492 -1.9093  0.0274  3.6254
 1012MOL0     H33528   1.054   6.507   7.348  2.1318 -0.0658 -0.4647
 1012MOL0     H33529   1.103   6.776   7.481  0.1002 -0.7512  0.1850
 1012MOL0     H33530   0.991   6.754   7.354  0.4893  0.7204  0.1453
 1012MOL0     H33531   1.173   6.819   7.221  1.4688 -0.5642 -1.4729
 1012MOL0     H33532   1.182   6.644   7.210 -3.4538 -1.2716  1.7196
 1012MOL0     H33533   1.355   6.818   7.401 -0.3024  3.8353 -3.5997
 1012MOL0     H33534   1.350   6.635   7.367 -2.9383 -1.5798 -0.4525
 1012MOL0     H33535   1.394   6.862   7.157 -0.3187 -0.7330 -0.8866
 1012MOL0     H33536   1.421   6.686   7.135 -1.4692  1.2164 -1.4770
 1012MOL0     H33537   1.538   7.024   7.226 -2.1143 -2.1002  1.2077
 1012MOL0     H33538   1.838   7.087   7.167  0.4218  1.4926  0.4300
 1012MOL0     H33539   1.927   7.009   7.297  2.4658  2.8779  0.6786
 1012MOL0     H33540   1.670   7.168   7.361 -0.4077  0.5621 -4.2410
 1012MOL0     H33541   1.823   7.244   7.322 -0.0565  0.1052  0.3551
 1012MOL0     H33542   1.880   7.031   7.518 -1.1184  0.1344 -1.6333
 1012MOL0     H33543   1.876   7.209   7.549  0.2814  0.9339 -0.9687
 1012MOL0     H33544   1.731   7.039   7.688  0.1715 -0.8863 -0.4555
 1012MOL0     H33545   1.643   7.009   7.546  1.2495  0.6010 -2.8624
 1012MOL0     H33546   1.497   6.968   7.744  2.0685  0.0718 -0.3237
 1012MOL0     H33547   1.384   6.966   7.946 -1.0032 -0.2116 -1.5412
 1012MOL0     H33548   1.261   7.211   8.369 -0.8498  1.1366  1.8869
 1012MOL0     H33549   1.133   7.160   8.578 -1.1546 -1.6992  0.8358
 1012MOL0     H33550   1.089   7.001   8.759  1.3147 -0.6452  0.6772
 1012MOL0     H33551   1.135   6.841   8.693  0.6307  1.1125 -1.3176
 1012MOL0     H33552   0.899   6.921   8.876  1.4965  1.4849  0.1795
 1012MOL0     H33553   1.042   6.826   8.925 -2.6580 -1.7375  2.6373
 1012MOL0     H33554   0.960   6.640   8.775 -2.2126 -2.4463  0.5139
 1012MOL0     H33555   0.836   6.752   8.709 -2.1183 -0.2129  0.9220
 1012MOL0     H33556   0.840   6.651   8.992  1.2902 -1.5175 -0.3780
 1012MOL0     H33557   0.720   6.770   8.924 -1.0672 -1.0339 -0.3862
 1012MOL0     H33558   0.758   6.467   8.860 -2.3267 -0.7100  1.6272
 1012MOL0     H33559   0.719   6.574   8.731 -1.7963 -0.9557 -1.3198
 1012MOL0     H33560   0.610   6.518   8.999  2.0246  0.0941 -2.1350
 1012MOL0     H33561   0.550   6.435   8.873 -0.3978 -1.4771  2.1592
 1012MOL0     H33562   0.512   6.732   8.952 -0.1139 -0.5934  1.1111
 1012MOL0     H33563   0.476   6.695   8.779 -0.1583 -3.5455 -0.9279
 1012MOL0     H33564   0.330   6.519   8.827 -0.6564  0.1661 -1.0896
 1012MOL0     H33565   0.268   6.682   8.867 -2.8958 -0.5721  2.8290
 1012MOL0     H33566   0.946   6.832   8.378  0.6101 -0.8876 -0.7003
 1012MOL0     H33567   1.070   6.895   8.152 -0.9808 -1.2762  0.7169
 1012MOL0     H33568   1.409   7.398   7.943  1.8054  0.1937  1.6872
 1012MOL0     H33569   1.542   7.390   7.764  0.9012 -0.7479  0.6334
 1012MOL0     H33570   0.551   6.352   7.546  1.1920  1.2655 -0.4753
 1012MOL0     H33571   0.360   6.182   7.547  0.1997  2.7942  1.2228
 1012MOL0     H33572   0.007   6.037   7.358 -0.9966 -0.0218  0.4837
 1012MOL0     H33573  -0.213   5.908   7.272 -0.1008 -0.1116 -2.5873
 1012MOL0     H33574  -0.380   5.769   7.222  0.5204  0.2774  1.5248
 1012MOL0     H33575  -0.316   5.711   7.372 -3.9296  0.2116  1.4453
 1012MOL0     H33576  -0.362   5.469   7.308  2.6488  1.0382 -0.0877
 1012MOL0     H33577  -0.495   5.597   7.347  2.0057 -0.8953  2.0586
 1012MOL0     H33578  -0.437   5.475   7.084 -1.7036 -1.6419  0.0371
 1012MOL0     H33579  -0.560   5.596   7.100 -0.8929 -0.3019 -1.3259
 1012MOL0     H33580  -0.550   5.311   7.194  3.6211  1.5308 -0.9411
 1012MOL0     H33581  -0.665   5.432   7.276  2.9665  4.9251 -0.4938
 1012MOL0     H33582  -0.891   5.371   6.939 -1.1562 -0.5036  0.9746
 1012MOL0     H33583   0.035   5.572   7.176  2.0340  1.7912 -2.2908
 1012MOL0     H33584   0.232   5.692   7.246 -2.1301 -3.7708  0.4502
 1013MOL0     O33585   4.034  11.013   7.036  0.6323 -0.0500  0.1302
 1013MOL0     C33586   3.993  10.927   6.959 -0.1050  0.0250  0.3405
 1013MOL0     O33587   4.045  10.892   6.836  0.4035 -1.1318 -0.3680
 1013MOL0     C33588   4.164  10.953   6.806  0.9209 -0.6774  0.7099
 1013MOL0     C33589   4.167  11.072   6.745  0.4783 -0.4966  0.1314
 1013MOL0     C33590   4.288  11.134   6.732  0.1589 -0.2317 -0.1086
 1013MOL0     C33591   4.411  11.075   6.774  0.3014  0.5423 -0.5840
 1013MOL0     O33592   4.528  11.133   6.752  0.5425  0.1254  0.3529
 1013MOL0     C33593   4.653  11.072   6.781  0.3901 -0.5698  0.3632
 1013MOL0     C33594   4.754  11.163   6.711 -0.0380 -0.1025  0.3229
 1013MOL0     C33595   4.755  11.309   6.760 -0.2201  0.0432 -0.2136
 1013MOL0     C33596   4.771  11.314   6.912 -0.2567  0.6216 -0.6864
 1013MOL0     C33597   4.803  11.442   6.973  0.1407 -1.0461 -0.7966
 1013MOL0     C33598   4.694  11.548   6.946 -0.2050 -1.6580  0.0823
 1013MOL0     C33599   4.558  11.515   7.018 -0.3161 -0.3556  0.9151
 1013MOL0     C33600   4.449  11.476   6.927  0.1418 -0.1579 -0.1153
 1013MOL0     N33601   4.319  11.487   6.992  0.3791 -0.1774 -0.7251
 1013MOL0     C33602   4.242  11.376   7.023 -0.6027  0.2946  0.4612
 1013MOL0     C33603   4.131  11.435   7.059  0.5135 -0.3161 -0.0606
 1013MOL0     C33604   4.002  11.361   7.075  0.0248 -0.4721  0.5387
 1013MOL0     C33605   3.882  11.435   7.016 -0.1302  0.0648  0.4486
 1013MOL0     C33606   3.753  11.353   7.004 -0.2827 -0.9244 -0.3769
 1013MOL0     C33607   3.764  11.269   6.885 -0.9067  0.4928 -0.3967
 1013MOL0     O33608   3.697  11.307   6.769 -0.3555  0.7406 -0.1390
 1013MOL0     C33609   3.570  11.261   6.763 -0.3540 -1.1166  0.1386
 1013MOL0     C33610   3.487  11.233   6.873  0.0990 -0.1225 -0.2298
 1013MOL0     C33611   3.352  11.202   6.848  0.1600 -0.3087 -0.5925
 1013MOL0     C33612   3.297  11.214   6.717 -0.8768 -0.5157 -0.5049
 1013MOL0     C33613   3.150  11.180   6.686 -0.2621 -0.3071 -0.5863
 1013MOL0     O33614   3.097  11.196   6.558 -0.3096 -0.5413  0.5610
 1013MOL0     C33615   2.963  11.183   6.551  0.2975 -0.1981  0.0953
 1013MOL0     C33616   2.919  11.116   6.441  1.4179 -0.2249  0.9185
 1013MOL0     C33617   2.784  11.078   6.415 -0.0482 -0.4890  0.0312
 1013MOL0     C33618   2.677  11.126   6.505 -0.4381  0.4737  0.0757
 1013MOL0     O33619   2.542  11.124   6.472 -0.1810 -0.5276 -0.1801
 1013MOL0     C33620   2.499  11.018   6.385 -0.2562  0.6070  0.2800
 1013MOL0     C33621   2.349  11.011   6.373 -0.3584  0.3692 -1.0798
 1013MOL0     C33622   2.292  10.940   6.253  1.1726 -0.0716 -0.4892
 1013MOL0     C33623   2.138  10.918   6.270 -0.0324 -0.3298 -0.5007
 1013MOL0     C33624   2.058  10.920   6.138 -0.3573  0.7066  0.1173
 1013MOL0     C33625   1.907  10.903   6.153  1.0829 -0.7952 -0.3713
 1013MOL0     C33626   1.833  10.852   6.030 -0.5428 -0.7101  0.2690
 1013MOL0     C33627   1.681  10.834   6.072 -0.3666  0.9227  0.0368
 1013MOL0    Cl33628   1.592  10.799   5.916 -0.1599  0.4252  0.0993
 1013MOL0     C33629   2.719  11.218   6.602 -0.6183  0.0410  0.2450
 1013MOL0     C33630   2.860  11.237   6.620  0.5521 -0.9550  0.2266
 1013MOL0     O33631   3.080  11.163   6.788 -0.1277  0.3459  0.1939
 1013MOL0     C33632   3.382  11.239   6.610  0.3141  0.1250  0.0518
 1013MOL0     C33633   3.512  11.272   6.630  0.3883  0.5116 -0.5175
 1013MOL0     N33634   4.137  11.576   7.045  0.1102  0.5909 -0.9719
 1013MOL0     N33635   4.250  11.603   7.011 -0.2203  0.0330  0.4806
 1013MOL0     C33636   4.407  10.947   6.835  0.4825  0.3870 -0.1041
 1013MOL0     C33637   4.281  10.893   6.858 -0.7621 -0.0206 -0.6358
 1013MOL0     C33638   3.894  10.827   7.004  0.8256  0.6573  0.6750
 1013MOL0     C33639   3.808  10.851   7.107 -0.9830 -0.1177 -0.7312
 1013MOL0     C33640   3.697  10.771   7.143 -0.5702  0.0269  0.5453
 1013MOL0     C33641   3.681  10.649   7.082 -1.2784  0.2043  0.1978
 1013MOL0     O33642   3.574  10.574   7.125 -0.0253  0.5543  0.3988
 1013MOL0     C33643   3.565  10.432   7.096 -0.4223  0.8671  0.5915
 1013MOL0     C33644   3.502  10.403   6.954  0.3176  0.4859  0.1137
 1013MOL0     C33645   3.520  10.265   6.891 -0.2058  0.6276 -0.0377
 1013MOL0     C33646   3.498  10.149   6.988 -0.4397  0.0428  1.8069
 1013MOL0     C33647   3.476  10.020   6.917  0.5692  1.1716 -0.1264
 1013MOL0     C33648   3.444   9.916   6.861  0.4702 -0.3123 -1.4530
 1013MOL0     C33649   3.769  10.620   6.975 -0.3030  0.3697  0.0158
 1013MOL0     C33650   3.875  10.705   6.940  0.8485  0.3027  0.5806
 1013MOL0     H33651   4.070  11.116   6.726  0.8912  0.3870 -0.0076
 1013MOL0     H33652   4.298  11.229   6.680 -2.3630  0.1225 -0.0645
 1013MOL0     H33653   4.665  10.969   6.746 -0.4094 -0.2882 -0.7875
 1013MOL0     H33654   4.666  11.071   6.890 -1.1831 -2.3143  0.5780
 1013MOL0     H33655   4.737  11.174   6.603  0.8945  1.2452  0.2821
 1013MOL0     H33656   4.846  11.120   6.750 -1.3903 -3.4696  0.0932
 1013MOL0     H33657   4.662  11.357   6.730 -0.6236 -1.6219 -1.8235
 1013MOL0     H33658   4.843  11.351   6.710 -0.5050 -1.5079 -2.1390
 1013MOL0     H33659   4.672  11.295   6.956  1.0583 -1.2986  1.6876
 1013MOL0     H33660   4.838  11.236   6.949 -3.3331 -0.7283  2.5937
 1013MOL0     H33661   4.896  11.487   6.937  0.2542  1.2333  1.9715
 1013MOL0     H33662   4.801  11.420   7.080 -1.1444 -1.3118 -0.8627
 1013MOL0     H33663   4.676  11.560   6.839  1.8135  1.8605  0.0129
 1013MOL0     H33664   4.717  11.647   6.984 -1.3990 -1.0477 -0.7249
 1013MOL0     H33665   4.571  11.447   7.102 -1.9534 -0.7334  0.8896
 1013MOL0     H33666   4.532  11.615   7.053  1.5044 -0.0052  1.3847
 1013MOL0     H33667   4.470  11.378   6.883 -0.2256  0.2558 -1.2480
 1013MOL0     H33668   4.461  11.547   6.844 -0.9117  1.8569  1.3718
 1013MOL0     H33669   4.279  11.275   7.031 -0.9796  0.3363  4.5186
 1013MOL0     H33670   3.977  11.360   7.182  1.1390  0.7852  0.8453
 1013MOL0     H33671   4.009  11.259   7.035 -1.5129  0.0823 -1.2891
 1013MOL0     H33672   3.916  11.472   6.919 -0.0192 -0.0986  0.4251
 1013MOL0     H33673   3.850  11.524   7.071 -2.2718  0.3866 -1.1691
 1013MOL0     H33674   3.744  11.288   7.092  1.4660  1.3955  1.6754
 1013MOL0     H33675   3.673  11.425   6.990  1.3471  1.0144 -0.2630
 1013MOL0     H33676   3.735  11.169   6.920 -2.3104  1.7487  2.4095
 1013MOL0     H33677   3.867  11.249   6.854 -0.4633 -1.0786  1.8014
 1013MOL0     H33678   3.530  11.221   6.973 -4.0491  2.2363  2.1088
 1013MOL0     H33679   3.289  11.158   6.925 -0.8309  0.8613 -0.7047
 1013MOL0     H33680   2.984  11.097   6.357  1.0728  1.2955  0.2646
 1013MOL0     H33681   2.770  11.014   6.328 -1.7114  0.5728 -0.5255
 1013MOL0     H33682   2.534  10.920   6.418  3.3478  1.9198  0.7578
 1013MOL0     H33683   2.549  11.035   6.289 -1.3632 -0.5750 -0.5532
 1013MOL0     H33684   2.311  11.113   6.372 -1.6343 -0.1023 -2.6026
 1013MOL0     H33685   2.303  10.961   6.459  2.0404 -2.4881 -1.2841
 1013MOL0     H33686   2.341  10.842   6.246  0.1885 -0.9703  3.0127
 1013MOL0     H33687   2.304  10.987   6.155 -1.2155  3.2721  0.6358
 1013MOL0     H33688   2.132  10.824   6.326  1.0895 -1.9280 -2.8775
 1013MOL0     H33689   2.092  11.001   6.324  1.7143  1.9281 -2.2870
 1013MOL0     H33690   2.096  10.842   6.072 -2.0541 -0.1891  0.1445
 1013MOL0     H33691   2.070  11.012   6.080  0.4310 -0.7610 -2.1741
 1013MOL0     H33692   1.863  11.002   6.162  2.2981 -0.0418 -2.1731
 1013MOL0     H33693   1.883  10.837   6.237  0.1059  1.4373  1.1911
 1013MOL0     H33694   1.837  10.935   5.959 -1.4825 -0.1572  0.8370
 1013MOL0     H33695   1.878  10.757   6.002 -0.4554 -1.2942  2.2262
 1013MOL0     H33696   1.642  10.925   6.117 -2.1974  0.0935  0.2346
 1013MOL0     H33697   1.672  10.745   6.136  0.6028 -0.1466 -1.2494
 1013MOL0     H33698   2.643  11.265   6.664 -0.0644  0.9457  0.2636
 1013MOL0     H33699   2.863  11.292   6.714 -2.4643  2.6048 -1.5004
 1013MOL0     H33700   3.335  11.255   6.514 -1.4600  1.2223  1.0410
 1013MOL0     H33701   3.580  11.306   6.552  1.4883  0.3832  0.3485
 1013MOL0     H33702   4.499  10.903   6.872  2.3859  3.3706 -0.9517
 1013MOL0     H33703   4.276  10.795   6.906  2.1924 -0.1416 -0.3498
 1013MOL0     H33704   3.830  10.942   7.163  0.5388 -0.1861 -1.1693
 1013MOL0     H33705   3.622  10.800   7.216  0.2437  3.8682  0.0920
 1013MOL0     H33706   3.504  10.374   7.167 -1.3171  0.2399 -0.6573
 1013MOL0     H33707   3.667  10.392   7.094  0.2286  2.4813 -1.2471
 1013MOL0     H33708   3.398  10.436   6.966  0.9328  2.0262  1.6493
 1013MOL0     H33709   3.547  10.477   6.888  4.1681 -0.4828  1.3607
 1013MOL0     H33710   3.619  10.253   6.845 -0.8202 -0.0574 -1.2156
 1013MOL0     H33711   3.442  10.252   6.816  0.1376  2.1248 -0.6875
 1013MOL0     H33712   3.596  10.126   7.032  0.2163 -2.2553 -0.5312
 1013MOL0     H33713   3.422  10.172   7.062 -0.1223  4.2522  1.0719
 1013MOL0     H33714   3.400   9.830   6.816 -1.4307  0.6190 -1.4716
 1013MOL0     H33715   3.763  10.525   6.923  2.2236  0.6736 -0.9433
 1013MOL0     H33716   3.937  10.659   6.864 -0.4369 -0.0884 -0.2601
 1014MOL0     O33717  11.037  10.089   2.604 -0.1692 -0.4394 -0.2078
 1014MOL0     C33718  11.035  10.039   2.492 -0.4461 -1.0285 -0.4141
 1014MOL0     O33719  10.931   9.975   2.432  0.3307  0.0609  0.3959
 1014MOL0     C33720  10.814   9.955   2.497  0.6984  0.0132  0.4355
 1014MOL0     C33721  10.692   9.967   2.429 -1.0017  0.1372  0.2241
 1014MOL0     C33722  10.570   9.932   2.490 -0.2571 -0.3660  0.3612
 1014MOL0     C33723  10.561   9.877   2.616  0.1163 -0.4200  0.4522
 1014MOL0     O33724  10.440   9.838   2.672 -0.3361  0.6681  0.0594
 1014MOL0     C33725  10.316   9.865   2.595  0.0420 -0.7908  0.4652
 1014MOL0     C33726  10.201   9.820   2.676 -0.3601  0.1436  0.2245
 1014MOL0     C33727  10.063   9.855   2.608 -1.1437 -0.0091  0.1941
 1014MOL0     C33728  10.008   9.997   2.637  0.0979 -1.3808  0.3339
 1014MOL0     C33729   9.877  10.031   2.567 -0.4569  0.6292  0.3541
 1014MOL0     C33730   9.810  10.153   2.647  0.1171  0.1679 -0.0578
 1014MOL0     C33731   9.685  10.208   2.583  0.3637 -0.5941  0.9043
 1014MOL0     C33732   9.570  10.108   2.590 -0.0896  0.5718 -0.4061
 1014MOL0     N33733   9.449  10.148   2.520 -0.1104 -0.4046  0.8738
 1014MOL0     C33734   9.348  10.228   2.579  0.1737  0.3813 -0.3476
 1014MOL0     C33735   9.275  10.274   2.473 -0.8276 -0.1692  0.0442
 1014MOL0     C33736   9.165  10.374   2.489 -1.1473  0.1184 -0.8161
 1014MOL0     C33737   9.105  10.417   2.356  0.1465  0.1621  0.5119
 1014MOL0     C33738   8.969  10.488   2.365  0.3451  0.5990  0.2837
 1014MOL0     C33739   8.849  10.396   2.415 -0.3491 -0.0059  0.4408
 1014MOL0     O33740   8.809  10.291   2.321 -0.6561  0.0733 -0.3673
 1014MOL0     C33741   8.700  10.318   2.244 -0.6910  0.2570  0.0445
 1014MOL0     C33742   8.574  10.263   2.268  0.5836 -0.9697 -0.5637
 1014MOL0     C33743   8.459  10.302   2.198  0.3148 -0.7606 -0.5083
 1014MOL0     C33744   8.470  10.395   2.100  0.3757  0.0125  0.7254
 1014MOL0     C33745   8.354  10.436   2.023 -0.3343  0.1201  0.2087
 1014MOL0     O33746   8.238  10.430   2.092 -0.2686  0.4460  0.2914
 1014MOL0     C33747   8.118  10.441   2.028  0.8596  0.4432  0.5527
 1014MOL0     C33748   8.092  10.408   1.885  0.1248 -0.4724  0.0390
 1014MOL0     C33749   7.972  10.445   1.826 -0.8015 -1.0317 -0.0869
 1014MOL0     C33750   7.878  10.517   1.902  0.2125  0.3965 -0.0117
 1014MOL0     O33751   7.756  10.556   1.849  0.4808  0.5679 -0.8805
 1014MOL0     C33752   7.724  10.505   1.716 -0.0116 -0.3248  1.0355
 1014MOL0     C33753   7.581  10.547   1.679 -0.0272  0.0686  0.1299
 1014MOL0     C33754   7.480  10.489   1.781 -0.0608  0.9940 -0.0313
 1014MOL0     C33755   7.337  10.470   1.732 -0.5813 -0.1617  0.0777
 1014MOL0     C33756   7.245  10.451   1.853  0.0001 -0.3369 -0.2899
 1014MOL0     C33757   7.097  10.409   1.817 -0.0577  0.2566 -0.1085
 1014MOL0     C33758   7.077  10.262   1.777 -0.0003 -0.1394  0.0672
 1014MOL0     C33759   6.984  10.176   1.854  0.5886  0.0663  0.4536
 1014MOL0    Cl33760   6.999  10.185   2.021  0.0027 -0.0855 -0.4116
 1014MOL0     C33761   7.900  10.549   2.038  0.5834 -0.5648 -0.5780
 1014MOL0     C33762   8.018  10.505   2.105 -0.4117  0.2818  0.0045
 1014MOL0     O33763   8.372  10.478   1.909  0.0809  0.4378  0.9420
 1014MOL0     C33764   8.600  10.432   2.051  0.9584  0.1486  0.0670
 1014MOL0     C33765   8.712  10.390   2.123  0.0629 -0.0132  0.0211
 1014MOL0     N33766   9.339  10.229   2.349 -0.5400 -0.4184 -0.4696
 1014MOL0     N33767   9.437  10.153   2.384  0.7650  0.2588  0.1620
 1014MOL0     C33768  10.677   9.869   2.688 -0.4849 -0.0436 -0.1434
 1014MOL0     C33769  10.797   9.901   2.628 -0.1531  0.6614 -0.1590
 1014MOL0     C33770  11.153  10.065   2.403  0.3050 -0.6031  0.0986
 1014MOL0     C33771  11.244  10.171   2.442  0.2695  0.5215  0.5824
 1014MOL0     C33772  11.349  10.198   2.358 -0.4472 -0.1498 -0.6162
 1014MOL0     C33773  11.374  10.134   2.234 -0.2889  0.2555  0.0920
 1014MOL0     O33774  11.484  10.169   2.165 -0.1322  0.2649 -0.1891
 1014MOL0     C33775  11.545  10.076   2.080 -0.5952  0.2704  0.2186
 1014MOL0     C33776  11.603   9.961   2.159  0.4301 -0.7887  0.3426
 1014MOL0     C33777  11.695   9.872   2.085  0.6605 -0.1194  0.4897
 1014MOL0     C33778  11.845   9.912   2.080 -0.1332 -0.0685  0.4579
 1014MOL0     C33779  11.922   9.804   2.018  0.9529  0.3804  0.2657
 1014MOL0     C33780  11.974   9.701   1.989 -0.3291 -0.3265  0.1754
 1014MOL0     C33781  11.288  10.034   2.201 -0.0128  0.5032  0.6434
 1014MOL0     C33782  11.175   9.997   2.278 -0.9016 -1.2101  0.2811
 1014MOL0     H33783  10.685  10.004   2.327  0.6725  0.5789  0.2390
 1014MOL0     H33784  10.477   9.936   2.433 -0.8677 -3.5734  0.9546
 1014MOL0     H33785  10.322   9.805   2.504 -0.9987  0.8641 -0.7420
 1014MOL0     H33786  10.307   9.974   2.588  0.2020 -0.8941 -2.2814
 1014MOL0     H33787  10.200   9.872   2.772 -3.7719  0.4934  0.1363
 1014MOL0     H33788  10.211   9.715   2.705  2.6878 -0.3025 -1.9235
 1014MOL0     H33789   9.989   9.779   2.634 -0.1625  0.0194  3.5863
 1014MOL0     H33790  10.087   9.846   2.501  1.5455  2.4316  0.4440
 1014MOL0     H33791   9.999  10.011   2.745 -1.0061 -0.8956  0.1988
 1014MOL0     H33792  10.082  10.068   2.600 -0.5469 -1.4637 -1.2019
 1014MOL0     H33793   9.815   9.942   2.575 -0.7841  0.5713 -2.0049
 1014MOL0     H33794   9.890  10.053   2.460  0.2584  1.1482  0.5363
 1014MOL0     H33795   9.885  10.232   2.656  0.5679 -0.2290 -0.2915
 1014MOL0     H33796   9.787  10.120   2.749  0.2457  0.5728  0.1075
 1014MOL0     H33797   9.653  10.301   2.631  0.5895 -0.9083  1.6782
 1014MOL0     H33798   9.705  10.230   2.477  2.0820 -2.2119  0.8507
 1014MOL0     H33799   9.554  10.088   2.696 -1.2912  1.4564 -0.4002
 1014MOL0     H33800   9.595  10.013   2.542  1.9584  0.2972  1.0623
 1014MOL0     H33801   9.335  10.244   2.686 -2.3399  1.7687 -0.7825
 1014MOL0     H33802   9.202  10.462   2.544  1.3567 -1.3233 -0.0676
 1014MOL0     H33803   9.083  10.320   2.538  1.1098 -1.9645  0.9004
 1014MOL0     H33804   9.091  10.330   2.292 -3.3320  0.2390  0.9844
 1014MOL0     H33805   9.171  10.483   2.298 -1.0072  1.1711  0.3171
 1014MOL0     H33806   8.974  10.577   2.429  1.7170  2.9172 -2.8170
 1014MOL0     H33807   8.943  10.519   2.264  1.2352 -0.1246 -0.1814
 1014MOL0     H33808   8.759  10.456   2.431  0.9647  2.2789 -0.2504
 1014MOL0     H33809   8.883  10.352   2.509 -1.7980  0.9337  1.4429
 1014MOL0     H33810   8.564  10.207   2.361 -2.9609  1.5926  0.8385
 1014MOL0     H33811   8.355  10.281   2.218 -0.3666  0.3775 -2.6015
 1014MOL0     H33812   8.170  10.350   1.837  2.2489 -1.3033  4.0172
 1014MOL0     H33813   7.958  10.413   1.723 -0.2407 -1.9176  0.1077
 1014MOL0     H33814   7.741  10.396   1.714  1.2351 -0.1478  0.6459
 1014MOL0     H33815   7.786  10.551   1.639 -1.9023  1.6200  0.6167
 1014MOL0     H33816   7.559  10.516   1.576  1.5697 -0.0300 -0.1981
 1014MOL0     H33817   7.576  10.656   1.686  6.1951  0.5972  2.6471
 1014MOL0     H33818   7.481  10.571   1.853  0.5101  0.9558  0.0151
 1014MOL0     H33819   7.506  10.395   1.832  0.5918  0.0823 -1.9301
 1014MOL0     H33820   7.312  10.561   1.677  0.0546  0.7838  1.2896
 1014MOL0     H33821   7.336  10.386   1.663 -1.8421 -0.3695  0.3319
 1014MOL0     H33822   7.247  10.540   1.917  1.6562 -1.7804  1.8022
 1014MOL0     H33823   7.283  10.376   1.922 -2.1822 -2.0421 -0.8069
 1014MOL0     H33824   7.055  10.470   1.736 -3.0271 -0.2763  0.9086
 1014MOL0     H33825   7.028  10.436   1.897  0.4804 -0.7077  0.6961
 1014MOL0     H33826   7.041  10.272   1.674  3.1281  0.0573 -1.1266
 1014MOL0     H33827   7.177  10.218   1.767 -0.5604 -1.3839 -0.0998
 1014MOL0     H33828   6.994  10.070   1.828  1.4651  0.2458  0.0295
 1014MOL0     H33829   6.882  10.207   1.828  0.2092  1.8343  3.5705
 1014MOL0     H33830   7.826  10.602   2.097 -0.0167 -0.9533 -0.9690
 1014MOL0     H33831   8.037  10.529   2.209 -2.1139  0.5853  0.2747
 1014MOL0     H33832   8.621  10.503   1.973  3.0660 -0.8384 -0.3389
 1014MOL0     H33833   8.808  10.430   2.091  0.2386  1.5283  2.2796
 1014MOL0     H33834  10.686   9.830   2.789 -2.3374 -0.6965 -0.1981
 1014MOL0     H33835  10.887   9.892   2.687  0.5174  0.1168 -1.2314
 1014MOL0     H33836  11.233  10.224   2.536 -0.0972  2.8611 -0.7060
 1014MOL0     H33837  11.428  10.264   2.393 -0.9534  1.6112 -2.5996
 1014MOL0     H33838  11.628  10.120   2.024  1.4132 -4.3783 -0.9827
 1014MOL0     H33839  11.485  10.047   1.993  2.8186  0.9466 -2.5647
 1014MOL0     H33840  11.660  10.008   2.240 -0.5785  3.5612 -1.2307
 1014MOL0     H33841  11.525   9.904   2.210  0.4279 -2.2449 -1.1988
 1014MOL0     H33842  11.647   9.891   1.988 -2.0035  0.3481  1.8110
 1014MOL0     H33843  11.683   9.767   2.112 -2.1954 -0.4320 -1.4524
 1014MOL0     H33844  11.860  10.005   2.023  1.3532  0.2332  1.2982
 1014MOL0     H33845  11.879   9.932   2.182 -0.8943  0.1319  0.6806
 1014MOL0     H33846  12.045   9.621   1.975  3.6611  1.8920  4.7994
 1014MOL0     H33847  11.314   9.972   2.116  1.9579  1.1825  0.7019
 1014MOL0     H33848  11.098   9.929   2.244 -2.7803  0.8806  0.0950
 1015MOL0     O33849  10.193   4.264   7.417 -0.1843  0.7387  0.4508
 1015MOL0     C33850  10.209   4.382   7.388  0.4747 -0.4607  0.2789
 1015MOL0     O33851  10.106   4.474   7.374  0.5271 -0.8506  0.2348
 1015MOL0     C33852   9.976   4.463   7.427 -0.9322 -0.2683  0.6655
 1015MOL0     C33853   9.919   4.592   7.453  0.2336 -0.1253  0.6495
 1015MOL0     C33854   9.790   4.598   7.508  1.0931 -0.1916 -0.5870
 1015MOL0     C33855   9.715   4.481   7.536 -1.0761 -0.5592  0.2004
 1015MOL0     O33856   9.602   4.507   7.606 -1.0621  0.3916 -0.5943
 1015MOL0     C33857   9.496   4.419   7.585  0.5768 -0.5173  0.4046
 1015MOL0     C33858   9.384   4.447   7.690 -1.2363 -0.5522 -0.4085
 1015MOL0     C33859   9.287   4.327   7.688 -0.0029  0.8537 -0.7398
 1015MOL0     C33860   9.170   4.360   7.785 -0.8060  0.4170 -0.3455
 1015MOL0     C33861   9.095   4.227   7.807  0.0407  1.0734 -0.2261
 1015MOL0     C33862   8.978   4.240   7.918  0.3048  0.5281 -0.5376
 1015MOL0     C33863   8.936   4.112   7.989 -0.1210 -0.7626  0.0760
 1015MOL0     C33864   8.866   4.012   7.896  0.3112 -0.0482 -0.1995
 1015MOL0     N33865   8.745   4.050   7.831 -0.0699  0.4595  0.2750
 1015MOL0     C33866   8.623   4.037   7.896  0.2843 -0.5839  0.0391
 1015MOL0     C33867   8.534   4.070   7.801  0.6050 -0.1340  0.5303
 1015MOL0     C33868   8.381   4.095   7.808  0.1736 -0.6015  0.2519
 1015MOL0     C33869   8.315   4.042   7.937  0.7939 -0.5128  0.9724
 1015MOL0     C33870   8.274   3.894   7.941  0.2497  0.7543  0.8147
 1015MOL0     C33871   8.166   3.838   7.836 -0.7083 -0.2579  0.2261
 1015MOL0     O33872   8.124   3.709   7.874 -0.3294 -0.4871  0.0542
 1015MOL0     C33873   7.989   3.691   7.883  0.0504 -0.8010 -0.2459
 1015MOL0     C33874   7.916   3.726   7.992  0.6698  0.1231 -0.7082
 1015MOL0     C33875   7.780   3.695   8.005  0.6165  0.6575 -0.0191
 1015MOL0     C33876   7.716   3.641   7.894  0.5871  0.5486  0.0985
 1015MOL0     C33877   7.570   3.611   7.913  0.2337  0.4752 -0.6608
 1015MOL0     O33878   7.520   3.614   8.040 -0.4215 -1.0282 -0.1928
 1015MOL0     C33879   7.389   3.625   8.058 -0.0774 -1.3053  0.3555
 1015MOL0     C33880   7.317   3.508   8.085 -1.3920 -0.8145 -0.5562
 1015MOL0     C33881   7.173   3.507   8.078  1.0065 -0.3540 -0.2984
 1015MOL0     C33882   7.101   3.631   8.063 -0.1946  0.4575 -0.1284
 1015MOL0     O33883   6.965   3.622   8.070  0.3104 -0.7854 -0.1421
 1015MOL0     C33884   6.890   3.750   8.059  1.0661  0.7709  0.2477
 1015MOL0     C33885   6.739   3.728   8.042 -0.5028  0.2996  0.2718
 1015MOL0     C33886   6.667   3.855   7.992  0.1247  0.1399  0.1932
 1015MOL0     C33887   6.517   3.847   7.989  1.1999 -0.3860  0.1321
 1015MOL0     C33888   6.452   3.976   7.935 -0.5027  0.0281  0.6812
 1015MOL0     C33889   6.300   3.983   7.911  0.1394 -0.7835 -0.2135
 1015MOL0     C33890   6.261   4.128   7.904  0.7192 -0.7152 -0.2349
 1015MOL0     C33891   6.347   4.204   7.800  0.5877  0.0335  0.4158
 1015MOL0    Cl33892   6.475   4.288   7.875 -0.0975  0.2525  0.1794
 1015MOL0     C33893   7.178   3.745   8.038  0.0882  0.0443  0.4250
 1015MOL0     C33894   7.314   3.747   8.022  0.1561 -0.4088 -0.5161
 1015MOL0     O33895   7.516   3.576   7.815 -0.0621 -0.7009  0.4712
 1015MOL0     C33896   7.791   3.595   7.783 -0.6667 -0.4348  0.0836
 1015MOL0     C33897   7.924   3.633   7.771  0.2661 -1.0627 -0.0234
 1015MOL0     N33898   8.605   4.094   7.677 -0.2470  0.0567  0.1746
 1015MOL0     N33899   8.729   4.083   7.701 -0.0832  0.2872 -1.0415
 1015MOL0     C33900   9.777   4.357   7.514 -0.3305  0.2526 -0.6613
 1015MOL0     C33901   9.904   4.352   7.456  0.1867  0.3050  0.5702
 1015MOL0     C33902  10.350   4.426   7.386  0.4103 -0.1154 -1.1714
 1015MOL0     C33903  10.458   4.335   7.397  0.0203 -0.0716  0.2962
 1015MOL0     C33904  10.587   4.388   7.390 -0.0156  0.0813 -0.9349
 1015MOL0     C33905  10.625   4.519   7.377  0.3299  1.4255 -0.3640
 1015MOL0     O33906  10.755   4.555   7.353 -0.2263 -0.0357 -0.3625
 1015MOL0     C33907  10.805   4.685   7.360  0.3451 -0.0779  0.9983
 1015MOL0     C33908  10.948   4.679   7.307  0.6350  0.3192 -1.0132
 1015MOL0     C33909  10.978   4.657   7.162  0.0591  0.8117  0.0452
 1015MOL0     C33910  10.908   4.522   7.108  0.8449 -0.8924 -0.6884
 1015MOL0     C33911  10.960   4.411   7.187 -0.2477 -1.0114  0.2538
 1015MOL0     C33912  10.997   4.335   7.273 -0.6412  0.0543  0.0119
 1015MOL0     C33913  10.519   4.607   7.382  0.3164  0.3443  0.5303
 1015MOL0     C33914  10.384   4.562   7.387 -0.8910 -0.8707  0.3707
 1015MOL0     H33915   9.974   4.682   7.425 -0.8345 -0.3502 -2.5605
 1015MOL0     H33916   9.744   4.691   7.538 -1.1033 -1.5934  0.6096
 1015MOL0     H33917   9.526   4.315   7.598  1.9764 -0.3081 -0.7862
 1015MOL0     H33918   9.458   4.423   7.482  1.3362  1.0352  0.1477
 1015MOL0     H33919   9.336   4.543   7.668  1.9205  0.9041 -1.4847
 1015MOL0     H33920   9.427   4.463   7.789 -1.0410 -1.0932 -0.4021
 1015MOL0     H33921   9.344   4.242   7.726  0.9768  2.4948  1.7428
 1015MOL0     H33922   9.269   4.321   7.580 -0.7605 -0.6756 -0.5509
 1015MOL0     H33923   9.214   4.397   7.878  0.0325 -0.9786 -0.1471
 1015MOL0     H33924   9.109   4.441   7.744 -0.4569  1.2580  0.7334
 1015MOL0     H33925   9.168   4.152   7.840  0.8488  1.7906 -0.3448
 1015MOL0     H33926   9.061   4.197   7.708  3.1329  3.0511 -2.0449
 1015MOL0     H33927   8.892   4.292   7.875  1.6348  2.9695 -0.4910
 1015MOL0     H33928   9.012   4.305   8.000  1.4321 -0.4304 -0.2187
 1015MOL0     H33929   9.026   4.062   8.026  0.6730  0.1783 -0.5325
 1015MOL0     H33930   8.868   4.138   8.070  0.1095 -1.5656  0.5435
 1015MOL0     H33931   8.843   3.924   7.958 -1.3719 -0.1984 -0.9895
 1015MOL0     H33932   8.934   3.973   7.820 -1.0433 -0.9406 -1.0039
 1015MOL0     H33933   8.607   4.027   8.003  0.3420 -0.3580  0.0693
 1015MOL0     H33934   8.345   4.039   7.721  1.7736 -2.2486  0.5960
 1015MOL0     H33935   8.361   4.202   7.798 -0.3992 -0.9164 -2.9389
 1015MOL0     H33936   8.222   4.097   7.956  0.4674 -1.0621  1.0089
 1015MOL0     H33937   8.380   4.079   8.016  1.2778  3.4096 -0.9847
 1015MOL0     H33938   8.365   3.835   7.930 -0.6772 -0.7486  0.8660
 1015MOL0     H33939   8.242   3.864   8.041 -2.5583 -1.6741 -0.6502
 1015MOL0     H33940   8.221   3.822   7.743  2.2214  0.2294  1.7212
 1015MOL0     H33941   8.088   3.910   7.811 -1.7977 -1.6796 -0.5958
 1015MOL0     H33942   7.974   3.762   8.077  2.3141 -0.4420 -1.5679
 1015MOL0     H33943   7.746   3.701   8.108  2.1272 -1.1348  0.6486
 1015MOL0     H33944   7.381   3.424   8.110  0.1689  0.3194 -0.6064
 1015MOL0     H33945   7.122   3.414   8.099 -1.2603  1.0752  0.9837
 1015MOL0     H33946   6.913   3.802   7.966  2.0368  0.9140  0.5524
 1015MOL0     H33947   6.912   3.808   8.149  3.1193  0.8424 -0.2529
 1015MOL0     H33948   6.686   3.704   8.134 -1.5587  1.0615 -0.1287
 1015MOL0     H33949   6.731   3.644   7.972  0.6987  0.1301  0.3072
 1015MOL0     H33950   6.703   3.874   7.890  0.2568 -1.5466 -0.1095
 1015MOL0     H33951   6.692   3.938   8.058 -0.7476  0.3660  0.2459
 1015MOL0     H33952   6.498   3.759   7.927 -0.2544 -0.2943  0.4167
 1015MOL0     H33953   6.483   3.828   8.091  1.4499  0.0870  0.3068
 1015MOL0     H33954   6.490   3.996   7.834 -2.0725 -0.8977 -0.1239
 1015MOL0     H33955   6.478   4.057   8.004  1.4947  0.0282 -0.0158
 1015MOL0     H33956   6.251   3.940   7.999  0.2566 -1.8392 -0.6452
 1015MOL0     H33957   6.265   3.923   7.826 -0.9816  1.9754 -1.8386
 1015MOL0     H33958   6.158   4.153   7.876  1.5127  2.9860 -0.3522
 1015MOL0     H33959   6.280   4.161   8.006 -1.3478 -0.5781  0.1444
 1015MOL0     H33960   6.283   4.277   7.747  1.6215 -0.2195 -1.2618
 1015MOL0     H33961   6.384   4.140   7.720  0.7519 -1.0062  1.3163
 1015MOL0     H33962   7.133   3.842   8.017  3.0081  1.5379  0.5881
 1015MOL0     H33963   7.366   3.838   7.996  2.2416 -1.6398 -0.8842
 1015MOL0     H33964   7.748   3.570   7.687  1.8086  0.9290 -1.4934
 1015MOL0     H33965   7.977   3.596   7.683 -0.7671 -1.0188 -0.6700
 1015MOL0     H33966   9.727   4.264   7.541 -1.1583  0.8202 -0.1812
 1015MOL0     H33967   9.960   4.260   7.443  2.2434  1.5071  0.5804
 1015MOL0     H33968  10.450   4.227   7.387 -0.9331 -0.0373  0.5019
 1015MOL0     H33969  10.663   4.311   7.387 -0.8584 -0.8467  0.4588
 1015MOL0     H33970  10.797   4.715   7.465  0.0226 -0.0310  0.9624
 1015MOL0     H33971  10.739   4.753   7.304  0.2469  1.2496  2.6365
 1015MOL0     H33972  10.986   4.781   7.315 -0.2206  0.4955  4.0356
 1015MOL0     H33973  11.008   4.618   7.375 -1.9223 -2.1241 -0.7773
 1015MOL0     H33974  11.085   4.651   7.141  0.3185 -1.1615  1.6134
 1015MOL0     H33975  10.941   4.742   7.104 -0.3391  1.7143  1.5698
 1015MOL0     H33976  10.799   4.514   7.110  0.9211 -2.1248 -0.0869
 1015MOL0     H33977  10.951   4.521   7.007  1.2665 -0.5489 -0.5093
 1015MOL0     H33978  11.017   4.266   7.352 -1.6945 -2.6157 -1.8971
 1015MOL0     H33979  10.542   4.713   7.383 -1.9869  0.8851  0.2115
 1015MOL0     H33980  10.307   4.638   7.400  1.8117  1.6793  2.9292
 1016MOL0     O33981   6.012   8.670   0.643 -0.3661 -0.2305 -0.6152
 1016MOL0     C33982   6.013   8.576   0.563 -0.1268  0.2928  0.7694
 1016MOL0     O33983   6.105   8.475   0.566  0.4001  0.0714  0.4955
 1016MOL0     C33984   6.211   8.495   0.647 -0.6220  0.5500  0.2224
 1016MOL0     C33985   6.244   8.402   0.754 -0.2625 -0.8190  0.5412
 1016MOL0     C33986   6.365   8.408   0.826  0.4669  0.0695 -1.3682
 1016MOL0     C33987   6.460   8.506   0.796  0.0211  0.2081  0.0837
 1016MOL0     O33988   6.585   8.508   0.855  0.1336  0.9175  0.2762
 1016MOL0     C33989   6.594   8.613   0.944 -0.1135 -0.4116 -0.1429
 1016MOL0     C33990   6.691   8.722   0.891 -0.2059  0.1413  0.1995
 1016MOL0     C33991   6.814   8.665   0.806  0.8859  0.3058 -0.4947
 1016MOL0     C33992   6.891   8.759   0.717  0.2209 -0.7058 -0.5342
 1016MOL0     C33993   6.994   8.677   0.637 -0.0511 -0.2186  0.4676
 1016MOL0     C33994   7.085   8.770   0.558  1.5282  0.2712  0.9531
 1016MOL0     C33995   7.155   8.700   0.438 -0.6415  0.6333 -0.7036
 1016MOL0     C33996   7.256   8.607   0.499  0.0687  0.5955 -0.0893
 1016MOL0     N33997   7.359   8.562   0.402 -0.6177  0.4339 -0.0744
 1016MOL0     C33998   7.343   8.433   0.341  0.3798 -0.3920  0.5884
 1016MOL0     C33999   7.411   8.431   0.221  0.6157  0.2456  0.7390
 1016MOL0     C34000   7.437   8.308   0.138 -0.1613 -0.5463  0.0854
 1016MOL0     C34001   7.565   8.233   0.190 -0.1042 -0.1755  0.0122
 1016MOL0     C34002   7.692   8.321   0.182 -0.9666  0.3268  0.2185
 1016MOL0     C34003   7.810   8.231   0.189 -0.3272  0.3005 -0.5693
 1016MOL0     O34004   7.848   8.174   0.059  1.1127  0.1331 -0.3702
 1016MOL0     C34005   7.970   8.108   0.058 -0.3148 -0.0219 -0.1624
 1016MOL0     C34006   7.994   7.975   0.048  1.3227 -0.0552 -0.8929
 1016MOL0     C34007   8.124   7.916   0.053  0.4614 -0.1602 -0.4043
 1016MOL0     C34008   8.240   8.002   0.050 -0.4039 -0.6841 -0.1487
 1016MOL0     C34009   8.379   7.945   0.063  0.0897 -0.7276 -0.4710
 1016MOL0     O34010   8.489   8.032   0.056 -0.1674 -0.5039 -0.2290
 1016MOL0     C34011   8.615   7.989   0.072  0.2932  0.6037 -0.4496
 1016MOL0     C34012   8.681   8.047   0.174 -0.5822 -0.3432 -0.3036
 1016MOL0     C34013   8.827   8.026   0.192  0.3329 -0.0299  0.1483
 1016MOL0     C34014   8.895   7.938   0.107  0.7818 -0.4932 -1.1108
 1016MOL0     O34015   9.022   7.921   0.142  0.5917  0.5786 -0.1293
 1016MOL0     C34016   9.105   7.906   0.029  0.6519  0.8364 -0.7715
 1016MOL0     C34017   9.238   7.904   0.093  0.6197  0.0349 -0.3863
 1016MOL0     C34018   9.270   7.775   0.173  0.5496 -1.0653 -0.1283
 1016MOL0     C34019   9.408   7.796   0.235 -0.2875 -0.5146  0.2388
 1016MOL0     C34020   9.468   7.661   0.273 -0.2559 -0.0281  0.5417
 1016MOL0     C34021   9.607   7.690   0.339  0.0079 -0.2553  0.0098
 1016MOL0     C34022   9.699   7.570   0.370 -0.0587  0.3009  0.2559
 1016MOL0     C34023   9.836   7.612   0.414 -0.6008  0.4046  0.0216
 1016MOL0    Cl34024   9.841   7.730   0.551 -0.1436 -0.2293 -0.3578
 1016MOL0     C34025   8.819   7.881   0.008  0.5016  0.3526  0.0812
 1016MOL0     C34026   8.683   7.907  -0.016 -0.1811 -0.0697  0.5165
 1016MOL0     O34027   8.380   7.828   0.090  0.1371  0.2922  0.1270
 1016MOL0     C34028   8.206   8.146   0.047  0.1528  0.3970  0.2741
 1016MOL0     C34029   8.077   8.191   0.045 -0.5736 -0.8627 -0.6965
 1016MOL0     N34030   7.460   8.557   0.198 -0.3788  0.5287  0.3959
 1016MOL0     N34031   7.428   8.635   0.303  0.4501 -0.6701  0.1211
 1016MOL0     C34032   6.433   8.598   0.691  0.3672  0.5846  0.3686
 1016MOL0     C34033   6.306   8.597   0.626 -0.4212 -0.4752 -0.9140
 1016MOL0     C34034   5.898   8.569   0.469  0.0046 -0.2886 -0.8499
 1016MOL0     C34035   5.881   8.446   0.397 -0.3054  0.8184  0.9421
 1016MOL0     C34036   5.783   8.436   0.307 -0.3946 -0.6406  0.0465
 1016MOL0     C34037   5.694   8.538   0.284  0.2757 -0.4678 -0.8508
 1016MOL0     O34038   5.601   8.510   0.185  0.1785  0.0212 -0.4478
 1016MOL0     C34039   5.472   8.571   0.208 -0.4736  0.8640 -0.8401
 1016MOL0     C34040   5.363   8.529   0.106  0.1555  0.8144  0.1068
 1016MOL0     C34041   5.410   8.496  -0.035 -0.1376  0.0314  0.6898
 1016MOL0     C34042   5.300   8.417  -0.108 -0.0932 -0.0613  0.4763
 1016MOL0     C34043   5.170   8.483  -0.126  0.0460 -0.7465  0.5423
 1016MOL0     C34044   5.078   8.551  -0.163 -1.4795 -0.2883  0.3525
 1016MOL0     C34045   5.699   8.657   0.359  0.0011 -0.7239 -0.2809
 1016MOL0     C34046   5.798   8.674   0.457  0.4723  0.8639  0.7328
 1016MOL0     H34047   6.183   8.313   0.766 -0.9431 -0.1084  2.7437
 1016MOL0     H34048   6.397   8.326   0.890 -1.5141  0.0564 -0.3293
 1016MOL0     H34049   6.635   8.593   1.044 -2.3234  2.2068  1.4229
 1016MOL0     H34050   6.500   8.662   0.971  0.8466  1.7516 -0.4950
 1016MOL0     H34051   6.726   8.777   0.979  0.3455 -1.0193  0.7451
 1016MOL0     H34052   6.628   8.794   0.838  2.5203  1.5267 -1.3731
 1016MOL0     H34053   6.777   8.582   0.746  0.7937  0.4478 -0.6349
 1016MOL0     H34054   6.894   8.608   0.855  2.1721  0.1739 -2.6223
 1016MOL0     H34055   6.834   8.817   0.644  1.6918  0.0702 -1.0960
 1016MOL0     H34056   6.927   8.834   0.787 -0.5103 -2.4019  1.8074
 1016MOL0     H34057   6.934   8.619   0.567  0.3989 -0.4266  0.2488
 1016MOL0     H34058   7.053   8.615   0.705  0.3831  0.9022  1.1454
 1016MOL0     H34059   7.158   8.813   0.627 -0.8224  1.4196  2.8711
 1016MOL0     H34060   7.020   8.847   0.516  1.4112 -0.6640 -0.6707
 1016MOL0     H34061   7.085   8.654   0.366  0.3249  0.4994 -1.5856
 1016MOL0     H34062   7.204   8.779   0.380 -0.9390  0.0361 -1.8156
 1016MOL0     H34063   7.219   8.516   0.547  1.4462  1.7113  3.4324
 1016MOL0     H34064   7.297   8.656   0.588  0.0680 -1.6681  1.2547
 1016MOL0     H34065   7.298   8.343   0.380  0.2002 -0.2866  0.6234
 1016MOL0     H34066   7.473   8.341   0.040 -0.0929 -1.6276 -0.2633
 1016MOL0     H34067   7.348   8.246   0.129 -0.2747 -0.9437  2.9994
 1016MOL0     H34068   7.575   8.150   0.120 -0.3216  2.1025 -2.9565
 1016MOL0     H34069   7.568   8.197   0.293  4.3137  1.6013  0.7323
 1016MOL0     H34070   7.689   8.390   0.097  1.8889  2.9581  1.9882
 1016MOL0     H34071   7.696   8.400   0.258 -1.4901  1.7820 -1.2004
 1016MOL0     H34072   7.787   8.154   0.263  3.2480 -1.2078 -0.8365
 1016MOL0     H34073   7.888   8.293   0.235 -1.1547  1.8190 -1.1268
 1016MOL0     H34074   7.909   7.907   0.049  0.2183  1.2697 -0.0574
 1016MOL0     H34075   8.132   7.808   0.057  2.3390 -0.3511 -4.5246
 1016MOL0     H34076   8.634   8.126   0.232  1.2931  3.3023 -3.3492
 1016MOL0     H34077   8.876   8.066   0.280  3.3595 -1.2239 -0.8447
 1016MOL0     H34078   9.102   7.995  -0.034  1.9944  0.3039 -1.6292
 1016MOL0     H34079   9.081   7.816  -0.029 -0.0994 -0.3117  1.2055
 1016MOL0     H34080   9.249   7.999   0.145  2.2649 -0.2591 -0.1631
 1016MOL0     H34081   9.317   7.906   0.017  0.2213  2.6839 -0.8305
 1016MOL0     H34082   9.255   7.682   0.117  0.7301 -2.5115  2.0993
 1016MOL0     H34083   9.192   7.770   0.250  2.0255 -2.2421  1.3595
 1016MOL0     H34084   9.479   7.841   0.166 -0.9368  0.4610  0.1871
 1016MOL0     H34085   9.391   7.862   0.321 -4.6182  0.1849 -0.9184
 1016MOL0     H34086   9.494   7.593   0.192  0.0413 -0.0736  0.6744
 1016MOL0     H34087   9.407   7.604   0.344 -1.3372 -2.9836 -2.4689
 1016MOL0     H34088   9.586   7.749   0.429 -0.0390 -0.1997 -0.0371
 1016MOL0     H34089   9.656   7.757   0.268 -0.6005  0.8361  0.6075
 1016MOL0     H34090   9.643   7.522   0.451  1.2497 -0.1111  0.9355
 1016MOL0     H34091   9.707   7.488   0.298  1.3567  0.7479 -0.1355
 1016MOL0     H34092   9.888   7.652   0.326  0.3429 -1.0365 -0.1037
 1016MOL0     H34093   9.899   7.525   0.430  1.5901  1.3550 -2.6074
 1016MOL0     H34094   8.865   7.799  -0.047  0.9693 -0.0669  1.0668
 1016MOL0     H34095   8.631   7.849  -0.092  0.0869 -0.5747  0.7124
 1016MOL0     H34096   8.289   8.215   0.057  0.4954 -0.0930  0.8799
 1016MOL0     H34097   8.061   8.298   0.035  1.3980 -0.3796  0.6566
 1016MOL0     H34098   6.513   8.667   0.664  0.1507  0.3804 -0.8174
 1016MOL0     H34099   6.298   8.676   0.553 -0.5703  0.0082 -0.3842
 1016MOL0     H34100   5.945   8.359   0.411 -2.9774 -0.9251  3.3494
 1016MOL0     H34101   5.756   8.340   0.265  0.3779  0.3088 -2.8331
 1016MOL0     H34102   5.486   8.680   0.206  0.5217  0.7576 -0.3217
 1016MOL0     H34103   5.439   8.550   0.310  0.1264  1.0893 -0.5907
 1016MOL0     H34104   5.312   8.442   0.149  0.9305  0.1214 -0.3432
 1016MOL0     H34105   5.280   8.600   0.107 -0.7055 -0.1261 -1.1568
 1016MOL0     H34106   5.500   8.435  -0.023  0.0683 -0.3403 -2.1588
 1016MOL0     H34107   5.428   8.590  -0.089 -1.6126 -0.8757 -1.4852
 1016MOL0     H34108   5.339   8.387  -0.206  2.0323  0.9536  0.9553
 1016MOL0     H34109   5.276   8.323  -0.057  0.8580  2.2369  5.8456
 1016MOL0     H34110   4.995   8.604  -0.206  0.8760  2.6432 -0.9477
 1016MOL0     H34111   5.628   8.736   0.338  0.1532 -0.5417 -0.1141
 1016MOL0     H34112   5.798   8.765   0.516 -1.3628  0.0723  2.0488
 1017MOL0     O34113   1.780   9.073   7.384 -0.0966 -0.4102 -0.7408
 1017MOL0     C34114   1.809   9.173   7.450 -2.1171  0.0377 -0.3653
 1017MOL0     O34115   1.739   9.222   7.557 -0.4339 -0.3786  0.2921
 1017MOL0     C34116   1.615   9.186   7.588 -0.3310  0.2586  0.2579
 1017MOL0     C34117   1.529   9.126   7.501  0.3297  0.5120 -0.1401
 1017MOL0     C34118   1.407   9.077   7.538 -0.9212 -0.2769  1.1512
 1017MOL0     C34119   1.361   9.087   7.669 -0.3772  0.2217 -0.2456
 1017MOL0     O34120   1.244   9.050   7.731  0.1882 -0.1411  0.7683
 1017MOL0     C34121   1.140   8.992   7.636 -0.2813  0.7045  0.0752
 1017MOL0     C34122   1.159   8.846   7.611  0.1774  0.2991  0.3223
 1017MOL0     C34123   1.066   8.777   7.513 -0.1064  0.1890  0.3839
 1017MOL0     C34124   0.908   8.787   7.536 -0.4738 -0.7255 -0.1319
 1017MOL0     C34125   0.868   8.760   7.687 -0.6926 -0.1177  0.6345
 1017MOL0     C34126   0.724   8.734   7.709  0.0585  0.4739 -0.7313
 1017MOL0     C34127   0.700   8.701   7.855  0.0312  0.0602 -1.3150
 1017MOL0     C34128   0.559   8.728   7.915 -0.2149 -0.2652 -0.4554
 1017MOL0     N34129   0.468   8.619   7.887 -0.6674 -0.5530  0.3452
 1017MOL0     C34130   0.472   8.504   7.952 -0.3222  0.5810 -0.4243
 1017MOL0     C34131   0.383   8.427   7.875  1.0493 -0.1811  0.4376
 1017MOL0     C34132   0.365   8.275   7.889 -0.2445 -0.1295 -0.2473
 1017MOL0     C34133   0.226   8.222   7.853  0.1716  0.4132  0.0575
 1017MOL0     C34134   0.115   8.269   7.954 -0.0285  0.6426  1.0161
 1017MOL0     C34135  -0.007   8.173   7.962 -0.0258 -0.1823  0.1473
 1017MOL0     O34136  -0.050   8.124   7.836  0.9043  0.3991 -0.0332
 1017MOL0     C34137  -0.160   8.041   7.830 -0.4533 -0.4377  0.0662
 1017MOL0     C34138  -0.223   8.030   7.703  0.1849 -0.6682 -1.0197
 1017MOL0     C34139  -0.329   7.934   7.679  0.0826  0.2888 -1.2033
 1017MOL0     C34140  -0.369   7.848   7.783 -0.3093  0.4688  0.0091
 1017MOL0     C34141  -0.493   7.765   7.758  0.0155  1.0195 -0.4797
 1017MOL0     O34142  -0.510   7.700   7.634 -0.3453  0.8190  0.0110
 1017MOL0     C34143  -0.634   7.660   7.590 -0.7106 -0.2678  0.4710
 1017MOL0     C34144  -0.625   7.547   7.497 -0.3022 -0.9663  0.5361
 1017MOL0     C34145  -0.743   7.491   7.448 -0.8057 -0.0098 -0.4344
 1017MOL0     C34146  -0.868   7.529   7.494 -0.9124  0.6473 -0.0583
 1017MOL0     O34147  -0.977   7.464   7.449 -0.7061  0.2039 -0.0516
 1017MOL0     C34148  -1.104   7.511   7.480  0.4858 -0.3300  0.3928
 1017MOL0     C34149  -1.217   7.419   7.420 -0.3367  0.3319  0.3696
 1017MOL0     C34150  -1.365   7.451   7.437 -0.3782  0.5339 -0.2238
 1017MOL0     C34151  -1.447   7.340   7.373 -0.3689 -0.0706  0.1813
 1017MOL0     C34152  -1.579   7.334   7.440 -0.3605  0.8188 -0.5600
 1017MOL0     C34153  -1.694   7.427   7.409  0.5025  0.3606 -0.9781
 1017MOL0     C34154  -1.813   7.396   7.508  1.4831 -0.3868  0.2616
 1017MOL0     C34155  -1.799   7.437   7.660 -0.1210  0.7926  0.6909
 1017MOL0    Cl34156  -1.690   7.591   7.669  0.1413 -0.5367 -0.1873
 1017MOL0     C34157  -0.861   7.641   7.580 -0.3016 -0.0044  0.0579
 1017MOL0     C34158  -0.757   7.715   7.620  0.6307 -0.1736  0.5663
 1017MOL0     O34159  -0.573   7.764   7.851 -0.3350  0.2106 -0.2661
 1017MOL0     C34160  -0.311   7.858   7.917 -1.0046 -0.5363  0.0277
 1017MOL0     C34161  -0.206   7.955   7.938  0.2494 -0.3498  0.0373
 1017MOL0     N34162   0.323   8.502   7.766 -0.2812  0.7026 -0.1514
 1017MOL0     N34163   0.386   8.622   7.781 -0.8319 -0.3838 -0.6998
 1017MOL0     C34164   1.443   9.159   7.760  0.7406 -0.0495 -0.5493
 1017MOL0     C34165   1.567   9.202   7.718 -0.1535 -0.1095 -0.2803
 1017MOL0     C34166   1.954   9.214   7.434  0.5221 -0.7794  0.5961
 1017MOL0     C34167   2.045   9.142   7.356  0.2907 -0.4050  0.0398
 1017MOL0     C34168   2.167   9.207   7.344  1.0059 -0.1640  1.1575
 1017MOL0     C34169   2.211   9.311   7.407 -0.1794 -0.7576  0.6389
 1017MOL0     O34170   2.336   9.359   7.381  0.4232  0.1655 -0.5413
 1017MOL0     C34171   2.396   9.460   7.465  0.2294  0.0599 -0.3250
 1017MOL0     C34172   2.512   9.538   7.404 -1.0866 -0.4069  0.2778
 1017MOL0     C34173   2.652   9.460   7.401  0.0459 -0.1982  0.7655
 1017MOL0     C34174   2.663   9.360   7.293  1.2361 -0.0350  0.1563
 1017MOL0     C34175   2.700   9.411   7.161 -0.3320 -0.4909 -0.3594
 1017MOL0     C34176   2.721   9.450   7.048  0.2493 -0.1439 -0.4593
 1017MOL0     C34177   2.114   9.378   7.481 -0.1724  0.0660 -0.5365
 1017MOL0     C34178   1.986   9.329   7.495 -0.4386  0.4939 -0.4876
 1017MOL0     H34179   1.544   9.092   7.399 -0.0626  0.5914 -0.2260
 1017MOL0     H34180   1.356   9.026   7.457 -0.8792 -1.8333  2.0656
 1017MOL0     H34181   1.147   9.044   7.539 -0.5049 -1.5004 -1.1815
 1017MOL0     H34182   1.042   9.009   7.680 -0.5689 -0.8509  0.0663
 1017MOL0     H34183   1.147   8.794   7.706 -4.5320 -2.1506 -1.3402
 1017MOL0     H34184   1.258   8.827   7.568  0.7111  0.8961  1.2313
 1017MOL0     H34185   1.097   8.674   7.495  1.1514  0.7233 -0.6583
 1017MOL0     H34186   1.086   8.822   7.415  1.0559 -0.8010  0.1528
 1017MOL0     H34187   0.879   8.892   7.522 -0.0984 -0.6530 -0.3588
 1017MOL0     H34188   0.868   8.722   7.458 -0.6121 -1.2928  0.3987
 1017MOL0     H34189   0.898   8.845   7.749 -1.6071 -0.8091  2.0825
 1017MOL0     H34190   0.924   8.675   7.727 -0.0964 -2.1986 -3.9703
 1017MOL0     H34191   0.695   8.651   7.645  2.0164  0.1036 -1.2240
 1017MOL0     H34192   0.680   8.826   7.670 -1.1959 -0.0575 -0.6049
 1017MOL0     H34193   0.731   8.598   7.873  2.5213  0.9552  0.1741
 1017MOL0     H34194   0.774   8.762   7.909  2.4803 -2.3447 -1.7243
 1017MOL0     H34195   0.518   8.819   7.870  0.2786 -1.3735 -3.4242
 1017MOL0     H34196   0.563   8.743   8.023 -1.0758 -1.4524 -0.2454
 1017MOL0     H34197   0.524   8.477   8.043  0.3104 -0.7130 -1.1344
 1017MOL0     H34198   0.378   8.255   7.996  1.9292 -1.3226 -0.6737
 1017MOL0     H34199   0.450   8.228   7.839 -2.1381 -2.6111 -1.3791
 1017MOL0     H34200   0.231   8.114   7.863 -3.4178  0.3553  4.5384
 1017MOL0     H34201   0.187   8.245   7.753  1.4053 -2.0957 -1.0837
 1017MOL0     H34202   0.157   8.283   8.054  1.0530 -1.9700  1.0275
 1017MOL0     H34203   0.079   8.366   7.918  0.0126  0.9127  1.6956
 1017MOL0     H34204  -0.096   8.228   7.995 -0.7987  0.9741 -3.4830
 1017MOL0     H34205   0.018   8.088   8.026  1.4452  0.4833  0.4970
 1017MOL0     H34206  -0.193   8.094   7.621 -0.5427 -0.6078 -1.2452
 1017MOL0     H34207  -0.388   7.939   7.588 -1.7454 -0.3004 -0.0777
 1017MOL0     H34208  -0.526   7.507   7.477  0.5137  0.5158  1.4376
 1017MOL0     H34209  -0.728   7.408   7.379  2.2359  1.0613 -1.2424
 1017MOL0     H34210  -1.113   7.613   7.442  2.2858  0.0122  0.7893
 1017MOL0     H34211  -1.116   7.514   7.589 -2.1003 -1.3665  0.2021
 1017MOL0     H34212  -1.208   7.316   7.457 -1.6952  0.1832  0.3548
 1017MOL0     H34213  -1.201   7.412   7.312 -1.7399  0.0032  0.1606
 1017MOL0     H34214  -1.391   7.545   7.389 -2.7267  0.1331  0.1641
 1017MOL0     H34215  -1.393   7.455   7.543 -1.0884  1.7765 -0.4426
 1017MOL0     H34216  -1.456   7.361   7.266  1.0342 -0.7876 -0.0947
 1017MOL0     H34217  -1.399   7.243   7.385 -1.1724 -0.1717  3.8289
 1017MOL0     H34218  -1.573   7.341   7.549  1.1062  0.0752 -0.5836
 1017MOL0     H34219  -1.618   7.238   7.406 -0.3694  1.6816 -3.1966
 1017MOL0     H34220  -1.732   7.396   7.312  1.0843 -2.2120 -0.4420
 1017MOL0     H34221  -1.669   7.533   7.418 -3.8183  1.7144 -2.2661
 1017MOL0     H34222  -1.903   7.446   7.472  1.2052 -0.2235  1.1681
 1017MOL0     H34223  -1.837   7.290   7.495  0.5168  0.1140 -3.0483
 1017MOL0     H34224  -1.752   7.345   7.697 -1.4316 -0.9097 -1.6362
 1017MOL0     H34225  -1.894   7.459   7.709 -0.6256 -0.7820  0.4778
 1017MOL0     H34226  -0.952   7.687   7.618  1.2837  2.0329  1.6564
 1017MOL0     H34227  -0.778   7.793   7.693 -0.1465 -0.2415  0.4210
 1017MOL0     H34228  -0.349   7.784   7.987  4.1710 -2.2443  1.5318
 1017MOL0     H34229  -0.154   7.961   8.033 -0.2738 -1.9988  0.4760
 1017MOL0     H34230   1.403   9.165   7.861  2.3263 -0.4364  0.1308
 1017MOL0     H34231   1.636   9.238   7.794 -1.0357 -1.7944  1.4034
 1017MOL0     H34232   2.029   9.049   7.302  1.9597 -0.2301 -0.8126
 1017MOL0     H34233   2.237   9.158   7.277 -1.4685  3.1235 -4.5005
 1017MOL0     H34234   2.440   9.401   7.545 -0.0077 -1.6501 -1.3956
 1017MOL0     H34235   2.328   9.531   7.513  1.6003  0.0787  1.6788
 1017MOL0     H34236   2.490   9.567   7.300  0.3175  1.6536  0.4876
 1017MOL0     H34237   2.534   9.630   7.460 -1.2600  0.0023 -0.3111
 1017MOL0     H34238   2.661   9.404   7.495  0.8889 -0.3065  0.6286
 1017MOL0     H34239   2.744   9.519   7.400  1.3187 -1.9417 -2.8223
 1017MOL0     H34240   2.744   9.290   7.317  0.2542 -1.1000  0.4087
 1017MOL0     H34241   2.573   9.299   7.282  3.1287 -2.8299 -0.7711
 1017MOL0     H34242   2.734   9.475   6.944 -2.6247 -0.1705 -0.9112
 1017MOL0     H34243   2.148   9.466   7.534 -0.1761 -0.8291  1.0433
 1017MOL0     H34244   1.913   9.383   7.553 -2.8559 -3.2653  0.2832
 1018MOL0     O34245   0.030   2.608   3.758 -0.0748  0.3334  0.0050
 1018MOL0     C34246   0.063   2.697   3.835 -0.0441 -0.8487  0.8918
 1018MOL0     O34247  -0.020   2.803   3.864 -0.2607 -0.5758  0.2391
 1018MOL0     C34248  -0.128   2.839   3.784  0.8990  0.2948  0.6888
 1018MOL0     C34249  -0.118   2.892   3.656  1.3400 -0.7319  0.0866
 1018MOL0     C34250  -0.231   2.926   3.579 -0.0818 -0.1077 -0.0862
 1018MOL0     C34251  -0.361   2.885   3.613  0.1640  0.2205  0.2666
 1018MOL0     O34252  -0.461   2.916   3.518 -0.3883 -0.1150 -0.3098
 1018MOL0     C34253  -0.595   2.926   3.576 -1.2437  0.3521  0.0074
 1018MOL0     C34254  -0.673   3.009   3.479 -0.4556  0.1968 -0.8107
 1018MOL0     C34255  -0.809   3.059   3.543  0.8173 -0.3713  0.1678
 1018MOL0     C34256  -0.889   3.125   3.429  0.1207 -0.1426  0.5582
 1018MOL0     C34257  -1.033   3.153   3.485  1.2986  0.3210  0.6278
 1018MOL0     C34258  -1.106   3.243   3.388 -0.3087  0.8878  0.4460
 1018MOL0     C34259  -1.266   3.221   3.389 -0.0874 -0.3954  0.0126
 1018MOL0     C34260  -1.342   3.262   3.519 -0.5324  0.2091 -0.1820
 1018MOL0     N34261  -1.323   3.408   3.558  0.3150 -0.0083  1.2129
 1018MOL0     C34262  -1.317   3.523   3.473  0.3593 -0.7447 -0.2655
 1018MOL0     C34263  -1.267   3.616   3.563  0.4596  0.4559 -0.4644
 1018MOL0     C34264  -1.242   3.756   3.529  0.1549  0.4398 -0.1430
 1018MOL0     C34265  -1.368   3.842   3.544 -0.1132  0.9624 -0.9261
 1018MOL0     C34266  -1.428   3.848   3.680 -0.4118 -0.2294 -0.5016
 1018MOL0     C34267  -1.541   3.950   3.688 -0.1861  0.5360  0.0435
 1018MOL0     O34268  -1.596   3.949   3.825  0.1570 -0.4484  0.1283
 1018MOL0     C34269  -1.715   4.014   3.843 -0.1271  0.6276  0.5039
 1018MOL0     C34270  -1.738   4.047   3.977 -0.0170  0.1328 -0.4582
 1018MOL0     C34271  -1.840   4.126   4.021 -0.3361  0.0252  0.0686
 1018MOL0     C34272  -1.924   4.188   3.924  0.1203 -1.1430 -0.0202
 1018MOL0     C34273  -2.023   4.288   3.965  0.4194 -0.9578  0.2372
 1018MOL0     O34274  -2.050   4.301   4.099 -0.4988  0.1473  0.6087
 1018MOL0     C34275  -2.145   4.390   4.143 -0.1991 -0.4749  0.0689
 1018MOL0     C34276  -2.224   4.334   4.247 -0.2512 -0.1686 -0.2444
 1018MOL0     C34277  -2.310   4.413   4.315  0.0732 -0.3308 -0.3110
 1018MOL0     C34278  -2.332   4.550   4.281  0.0724  0.8502  0.5578
 1018MOL0     O34279  -2.423   4.629   4.353  0.2272 -0.2504  0.5535
 1018MOL0     C34280  -2.542   4.554   4.386  0.2918  0.7919 -0.2281
 1018MOL0     C34281  -2.653   4.652   4.412 -0.5504  0.2864  1.6961
 1018MOL0     C34282  -2.773   4.573   4.455 -0.3973  0.0214  0.4746
 1018MOL0     C34283  -2.897   4.669   4.469  0.1090  1.1764 -0.7867
 1018MOL0     C34284  -3.029   4.583   4.490 -0.0478 -0.1162  0.4740
 1018MOL0     C34285  -3.074   4.574   4.634  0.6492 -0.5223 -0.6449
 1018MOL0     C34286  -3.220   4.540   4.640  0.7649  0.1850 -0.0662
 1018MOL0     C34287  -3.254   4.485   4.777 -0.0121  0.7539  0.8951
 1018MOL0    Cl34288  -3.435   4.433   4.766  0.2285 -0.0520  0.0388
 1018MOL0     C34289  -2.270   4.601   4.171 -0.7176 -0.1613 -0.8101
 1018MOL0     C34290  -2.170   4.523   4.109 -0.1342  0.4732  0.1890
 1018MOL0     O34291  -2.084   4.347   3.879 -0.0025 -0.6245 -0.7420
 1018MOL0     C34292  -1.899   4.162   3.791 -0.4314 -0.7105  0.5224
 1018MOL0     C34293  -1.802   4.072   3.751 -0.4115  0.2481 -0.5409
 1018MOL0     N34294  -1.237   3.549   3.679  0.1895 -0.6705  0.1776
 1018MOL0     N34295  -1.276   3.428   3.682  0.2495 -0.3053  0.6313
 1018MOL0     C34296  -0.382   2.811   3.735 -0.3139 -0.5338  1.3319
 1018MOL0     C34297  -0.266   2.800   3.817 -0.2097 -0.6995 -0.5695
 1018MOL0     C34298   0.197   2.694   3.896  0.0752 -0.5353 -0.3163
 1018MOL0     C34299   0.284   2.582   3.886  0.1237  0.2504 -0.4584
 1018MOL0     C34300   0.410   2.579   3.939 -0.8653  0.4778 -0.0648
 1018MOL0     C34301   0.458   2.701   4.000 -0.7368  0.0731 -0.0860
 1018MOL0     O34302   0.586   2.721   4.046 -0.1306  0.5150  0.4296
 1018MOL0     C34303   0.677   2.607   4.077 -0.3873 -0.7897 -0.2638
 1018MOL0     C34304   0.702   2.594   4.226 -0.7626  0.6434 -0.5830
 1018MOL0     C34305   0.579   2.592   4.317  0.5534 -0.0661  0.5301
 1018MOL0     C34306   0.554   2.729   4.373 -0.3168 -0.9141  0.9377
 1018MOL0     C34307   0.451   2.737   4.476 -0.9828 -0.2537 -0.0607
 1018MOL0     C34308   0.363   2.733   4.554 -0.1850 -0.1210 -0.0428
 1018MOL0     C34309   0.377   2.811   4.006  0.4490 -0.4453  0.2785
 1018MOL0     C34310   0.246   2.812   3.945  0.1707 -0.2965  0.1696
 1018MOL0     H34311  -0.020   2.922   3.620  2.1534  2.0882  3.9204
 1018MOL0     H34312  -0.210   2.987   3.492 -0.5941  2.0616  1.2596
 1018MOL0     H34313  -0.592   2.984   3.668  1.1551 -2.7355  2.0574
 1018MOL0     H34314  -0.640   2.827   3.588  2.1785 -1.6297 -1.8629
 1018MOL0     H34315  -0.696   2.946   3.392  0.3671 -0.6791 -0.4091
 1018MOL0     H34316  -0.619   3.102   3.457 -1.4578  1.3127  1.1723
 1018MOL0     H34317  -0.791   3.129   3.625 -1.4440 -1.0027  1.2773
 1018MOL0     H34318  -0.870   2.976   3.580 -1.3359  2.3375  3.2782
 1018MOL0     H34319  -0.832   3.213   3.399  1.1604 -1.0875 -0.3366
 1018MOL0     H34320  -0.904   3.054   3.347 -0.8600 -0.9338  1.3873
 1018MOL0     H34321  -1.027   3.216   3.574 -0.4529  1.4271  0.0248
 1018MOL0     H34322  -1.092   3.066   3.514 -1.7798  2.4091  1.1543
 1018MOL0     H34323  -1.056   3.246   3.291 -0.8187  0.8997  0.1767
 1018MOL0     H34324  -1.099   3.345   3.427 -1.5926  1.1116  0.1575
 1018MOL0     H34325  -1.314   3.287   3.315 -1.0874  1.4680  2.1929
 1018MOL0     H34326  -1.286   3.117   3.361 -0.3628  0.2067 -2.2659
 1018MOL0     H34327  -1.300   3.190   3.590  0.7213  2.0927  1.0570
 1018MOL0     H34328  -1.446   3.234   3.497 -0.0347 -1.0496 -1.0421
 1018MOL0     H34329  -1.348   3.523   3.369 -0.1738  0.7610 -0.1383
 1018MOL0     H34330  -1.210   3.773   3.426  1.1927  3.1026  0.5405
 1018MOL0     H34331  -1.165   3.782   3.601 -1.2646 -1.8078  2.3823
 1018MOL0     H34332  -1.440   3.800   3.472 -0.6441 -2.9136  1.5571
 1018MOL0     H34333  -1.336   3.945   3.524 -1.8631  1.5211 -1.0013
 1018MOL0     H34334  -1.467   3.750   3.708 -0.2465  0.2217  1.4717
 1018MOL0     H34335  -1.345   3.871   3.748  0.2285  0.6916 -1.5522
 1018MOL0     H34336  -1.612   3.917   3.611 -0.9470  1.1131  0.4795
 1018MOL0     H34337  -1.500   4.050   3.672 -0.6773  0.9477  1.2616
 1018MOL0     H34338  -1.668   4.005   4.049  0.1243  1.5646  0.2674
 1018MOL0     H34339  -1.855   4.162   4.123  0.2359  1.7368 -0.4083
 1018MOL0     H34340  -2.209   4.231   4.274 -2.1618  0.2458  2.9079
 1018MOL0     H34341  -2.368   4.367   4.394  2.3816 -1.9837  0.5224
 1018MOL0     H34342  -2.532   4.502   4.482  1.2373  0.4280 -0.5135
 1018MOL0     H34343  -2.569   4.478   4.312  0.3153 -0.1558  0.6984
 1018MOL0     H34344  -2.669   4.709   4.320  2.3561 -3.0824 -1.1789
 1018MOL0     H34345  -2.621   4.722   4.490 -1.0899  2.5980 -0.0506
 1018MOL0     H34346  -2.752   4.519   4.547 -1.2165 -1.7555 -0.3411
 1018MOL0     H34347  -2.799   4.503   4.375  2.8503 -0.7948  0.0230
 1018MOL0     H34348  -2.883   4.723   4.563 -3.7884 -1.1659  1.4176
 1018MOL0     H34349  -2.906   4.732   4.380  0.9253 -1.0931 -2.5824
 1018MOL0     H34350  -3.010   4.485   4.447  3.6405 -0.1167  1.7252
 1018MOL0     H34351  -3.111   4.635   4.440  1.8821  2.1667 -0.5207
 1018MOL0     H34352  -3.055   4.668   4.687 -2.0653  0.9050 -2.0115
 1018MOL0     H34353  -3.021   4.499   4.694  1.3218  0.8585  0.5699
 1018MOL0     H34354  -3.283   4.629   4.629 -0.7725 -0.2289  3.7875
 1018MOL0     H34355  -3.243   4.465   4.563 -1.3518 -0.2502  0.9275
 1018MOL0     H34356  -3.245   4.561   4.855 -3.2709  0.6601  1.4910
 1018MOL0     H34357  -3.181   4.404   4.790  0.5813  0.4570 -2.9211
 1018MOL0     H34358  -2.303   4.700   4.142 -3.6871 -1.3457 -1.8666
 1018MOL0     H34359  -2.114   4.559   4.023 -1.4726  0.2764 -0.7935
 1018MOL0     H34360  -1.968   4.195   3.714 -0.6678 -0.7885  0.6985
 1018MOL0     H34361  -1.791   4.059   3.644 -2.0104  3.3192 -1.1958
 1018MOL0     H34362  -0.482   2.780   3.764 -0.9640  1.5444  1.5051
 1018MOL0     H34363  -0.282   2.757   3.915 -0.3982  2.6106  0.9886
 1018MOL0     H34364   0.238   2.495   3.841  0.2980 -0.4069  0.5984
 1018MOL0     H34365   0.474   2.493   3.922 -0.4761  0.9837 -1.2571
 1018MOL0     H34366   0.774   2.618   4.028 -1.1520 -0.9148 -1.8705
 1018MOL0     H34367   0.635   2.512   4.046 -0.9069 -0.3350 -0.9784
 1018MOL0     H34368   0.761   2.503   4.237 -1.4658 -0.1967 -2.9932
 1018MOL0     H34369   0.776   2.665   4.265  2.1406 -2.0035 -0.8171
 1018MOL0     H34370   0.600   2.517   4.393  3.5472  0.2105  0.0808
 1018MOL0     H34371   0.490   2.550   4.269 -0.0238  0.5460  1.0393
 1018MOL0     H34372   0.636   2.785   4.419 -1.9032  2.8594 -0.3902
 1018MOL0     H34373   0.525   2.783   4.282 -0.2504 -1.9895  0.2516
 1018MOL0     H34374   0.283   2.732   4.625 -1.4719  1.2907 -1.3931
 1018MOL0     H34375   0.409   2.902   4.056 -0.7400 -1.0213  2.2283
 1018MOL0     H34376   0.200   2.910   3.939  1.0586  0.1028 -0.4650
 1019MOL0     O34377   1.625   8.885   1.076 -0.2395 -0.9081 -0.2826
 1019MOL0     C34378   1.564   8.902   0.969  0.5972 -0.3566  0.3762
 1019MOL0     O34379   1.555   9.027   0.895 -0.0624 -0.0818  0.0979
 1019MOL0     C34380   1.657   9.128   0.910 -0.2064  0.2817 -0.2116
 1019MOL0     C34381   1.801   9.103   0.911  0.6373 -0.1023 -0.1426
 1019MOL0     C34382   1.884   9.217   0.898 -0.4427  0.0433  0.5157
 1019MOL0     C34383   1.842   9.349   0.891  0.8374 -0.1478 -0.7210
 1019MOL0     O34384   1.928   9.451   0.864 -0.2511  0.4398  0.6124
 1019MOL0     C34385   1.946   9.531   0.982  0.0951  0.0911 -0.2508
 1019MOL0     C34386   2.059   9.634   0.969  0.0393  0.3138  0.0056
 1019MOL0     C34387   2.047   9.705   0.835  0.7280  0.0572  0.1233
 1019MOL0     C34388   2.122   9.829   0.839  0.4750 -0.4298  0.1221
 1019MOL0     C34389   2.177   9.874   0.705  0.2569  0.6376 -1.1759
 1019MOL0     C34390   2.256  10.002   0.728 -1.1480 -0.1266  0.2749
 1019MOL0     C34391   2.323  10.035   0.593 -1.0543  0.3179 -0.2398
 1019MOL0     C34392   2.416  10.160   0.605 -0.1442  0.4146  0.2803
 1019MOL0     N34393   2.352  10.273   0.667 -0.1031  0.3736  0.0481
 1019MOL0     C34394   2.227  10.317   0.641  0.8463 -0.2321  0.3102
 1019MOL0     C34395   2.213  10.405   0.740  0.4914  0.1435  0.2837
 1019MOL0     C34396   2.070  10.451   0.753 -0.1698 -0.5941 -0.4973
 1019MOL0     C34397   1.984  10.364   0.838 -0.1161 -0.1884  0.1600
 1019MOL0     C34398   1.909  10.256   0.755 -1.0696 -0.4468  0.0148
 1019MOL0     C34399   1.841  10.165   0.859  0.1413  1.3602 -0.9583
 1019MOL0     O34400   1.736  10.092   0.796 -0.0705  0.2875  0.6700
 1019MOL0     C34401   1.689   9.983   0.864  0.0028 -0.1573  0.5641
 1019MOL0     C34402   1.688   9.961   1.002 -0.5393 -0.2090  0.6418
 1019MOL0     C34403   1.634   9.844   1.050 -0.5840 -0.0229 -0.0580
 1019MOL0     C34404   1.562   9.755   0.971 -0.8083 -0.0153  0.5021
 1019MOL0     C34405   1.491   9.642   1.035 -0.2940 -0.5983 -0.2114
 1019MOL0     O34406   1.522   9.619   1.164  0.3139  0.4004  1.1780
 1019MOL0     C34407   1.505   9.491   1.207  0.4894  0.1563 -0.4442
 1019MOL0     C34408   1.374   9.467   1.262 -1.2002 -0.2275  0.5076
 1019MOL0     C34409   1.353   9.341   1.323  0.2604  0.3121  0.4409
 1019MOL0     C34410   1.456   9.246   1.323  0.2625  0.3044 -0.6406
 1019MOL0     O34411   1.437   9.125   1.380  0.2142  0.8700  0.6057
 1019MOL0     C34412   1.443   9.015   1.290 -0.6741  0.6074  0.3536
 1019MOL0     C34413   1.307   8.944   1.276  0.4967 -0.4269 -0.1209
 1019MOL0     C34414   1.200   9.025   1.199  0.2785 -0.4626 -0.4647
 1019MOL0     C34415   1.242   9.038   1.057 -0.1642  0.3037 -0.8731
 1019MOL0     C34416   1.142   9.117   0.975 -0.4118  0.0073  0.2323
 1019MOL0     C34417   1.130   9.268   1.009 -1.2045 -0.1832  0.6394
 1019MOL0     C34418   1.083   9.347   0.894  0.2385 -0.4479  1.2288
 1019MOL0     C34419   1.198   9.376   0.798 -0.7186  0.7759  1.0369
 1019MOL0    Cl34420   1.127   9.443   0.642  0.3726  0.4154 -0.1914
 1019MOL0     C34421   1.579   9.278   1.265  0.2541  0.2530 -0.6858
 1019MOL0     C34422   1.607   9.402   1.208  0.0782 -0.4923 -0.0468
 1019MOL0     O34423   1.422   9.575   0.963 -0.3616  1.1381 -0.2692
 1019MOL0     C34424   1.562   9.781   0.834 -0.2760 -0.2917 -0.1397
 1019MOL0     C34425   1.619   9.894   0.781 -0.0154 -0.1288  0.2420
 1019MOL0     N34426   2.305  10.398   0.832 -0.2998  0.1160  0.2384
 1019MOL0     N34427   2.400  10.328   0.784  1.1235 -0.1025 -0.3770
 1019MOL0     C34428   1.703   9.375   0.891 -0.1212  0.8213  0.8365
 1019MOL0     C34429   1.611   9.266   0.905 -0.4812  0.2421  0.1138
 1019MOL0     C34430   1.498   8.782   0.906  0.6031 -0.1749 -1.1696
 1019MOL0     C34431   1.394   8.791   0.812  0.3134 -0.3962 -0.2718
 1019MOL0     C34432   1.338   8.684   0.747 -0.6120  0.3212  0.0370
 1019MOL0     C34433   1.383   8.561   0.782  0.2672 -0.7163 -0.0815
 1019MOL0     O34434   1.323   8.450   0.724  0.0926 -0.5611 -0.1853
 1019MOL0     C34435   1.379   8.321   0.726 -0.0595 -0.0423  0.5520
 1019MOL0     C34436   1.495   8.317   0.625  0.6947 -0.1133  0.7179
 1019MOL0     C34437   1.436   8.368   0.487 -0.1090  0.1579 -0.3629
 1019MOL0     C34438   1.521   8.325   0.367 -0.0656 -1.1763  0.3912
 1019MOL0     C34439   1.520   8.411   0.245 -1.6018 -0.4564 -0.0234
 1019MOL0     C34440   1.497   8.485   0.146 -0.3180 -0.3477  0.2545
 1019MOL0     C34441   1.484   8.544   0.881  0.2903 -0.7053  0.6759
 1019MOL0     C34442   1.547   8.654   0.940 -0.1543 -0.4030  0.6942
 1019MOL0     H34443   1.844   9.005   0.924  2.8730  0.8305 -0.0707
 1019MOL0     H34444   1.992   9.224   0.889 -0.6474  3.0714 -1.2591
 1019MOL0     H34445   1.972   9.464   1.064  2.6221 -0.2535 -1.2417
 1019MOL0     H34446   1.855   9.576   1.022 -1.3192 -3.9655  1.5716
 1019MOL0     H34447   2.157   9.586   0.973 -0.1408  0.0167  1.7993
 1019MOL0     H34448   2.036   9.700   1.053 -0.7757 -0.5654  0.4883
 1019MOL0     H34449   1.942   9.736   0.827 -0.3793 -2.6856  2.4884
 1019MOL0     H34450   2.080   9.644   0.750  1.9677  0.1926  0.4943
 1019MOL0     H34451   2.048   9.905   0.866 -0.8592 -2.1822  1.5860
 1019MOL0     H34452   2.193   9.827   0.922 -2.7955 -2.1664  3.0857
 1019MOL0     H34453   2.098   9.903   0.635 -0.9232  0.5914  0.1031
 1019MOL0     H34454   2.230   9.792   0.656  0.1784  1.7367 -3.2171
 1019MOL0     H34455   2.330  10.003   0.808 -2.6721  4.9317  2.0192
 1019MOL0     H34456   2.188  10.085   0.752  2.5608  3.3987 -0.3575
 1019MOL0     H34457   2.380   9.944   0.571 -0.8088  0.8127 -1.7810
 1019MOL0     H34458   2.254  10.062   0.513  0.5623  1.1521 -1.4105
 1019MOL0     H34459   2.446  10.189   0.504 -1.8390 -0.0620 -0.4028
 1019MOL0     H34460   2.508  10.145   0.663 -1.0587 -0.2969  1.5920
 1019MOL0     H34461   2.151  10.297   0.566  0.4700 -0.3810  0.7205
 1019MOL0     H34462   2.026  10.468   0.654 -1.2191 -2.3200 -0.3756
 1019MOL0     H34463   2.077  10.535   0.823  0.5149 -0.7833 -0.3271
 1019MOL0     H34464   1.904  10.422   0.885  1.4424  1.4955  0.8405
 1019MOL0     H34465   2.039  10.318   0.921 -0.3000  2.4835  1.8708
 1019MOL0     H34466   1.833  10.320   0.710 -1.1928  0.6202  1.6289
 1019MOL0     H34467   1.976  10.211   0.681 -0.2323  1.5233 -0.4866
 1019MOL0     H34468   1.810  10.231   0.940  0.3574 -0.5976  0.8277
 1019MOL0     H34469   1.911  10.091   0.899 -2.3018 -0.5755  0.0239
 1019MOL0     H34470   1.719  10.044   1.065 -1.8351  1.6754 -1.0477
 1019MOL0     H34471   1.643   9.835   1.158  0.4436  2.5399  0.1500
 1019MOL0     H34472   1.292   9.538   1.261 -2.3084 -1.4873 -0.3186
 1019MOL0     H34473   1.253   9.324   1.363 -0.1775  3.5569  1.0515
 1019MOL0     H34474   1.518   8.942   1.323 -0.6329 -0.3681 -1.7266
 1019MOL0     H34475   1.490   9.044   1.196  4.4915 -1.3402  1.9633
 1019MOL0     H34476   1.273   8.923   1.378 -0.5113  2.8546  0.3234
 1019MOL0     H34477   1.313   8.842   1.236 -3.9168 -0.8786 -0.1332
 1019MOL0     H34478   1.189   9.124   1.246  2.6060  0.0601 -0.8897
 1019MOL0     H34479   1.104   8.973   1.204 -0.4611  0.8172 -0.8922
 1019MOL0     H34480   1.343   9.073   1.035  0.1279  0.2501  0.3262
 1019MOL0     H34481   1.239   8.940   1.007  2.9328 -1.5098  2.1140
 1019MOL0     H34482   1.040   9.076   0.980  0.1486 -2.3539 -3.6284
 1019MOL0     H34483   1.167   9.099   0.870 -0.9461  0.2399  0.0596
 1019MOL0     H34484   1.224   9.321   1.029  0.6109 -2.6572 -0.8373
 1019MOL0     H34485   1.065   9.286   1.096 -1.1733  0.9549  0.4375
 1019MOL0     H34486   1.002   9.298   0.839  1.3596 -0.8643 -0.1137
 1019MOL0     H34487   1.048   9.444   0.931 -3.4265 -1.1240 -0.0439
 1019MOL0     H34488   1.260   9.288   0.779  0.9574  2.0041  0.5680
 1019MOL0     H34489   1.272   9.448   0.834  1.4703 -1.7873  2.0081
 1019MOL0     H34490   1.643   9.190   1.266 -0.6623 -0.4426  1.0476
 1019MOL0     H34491   1.707   9.423   1.173  1.2023 -3.9243  0.7465
 1019MOL0     H34492   1.514   9.712   0.766  0.0002  1.4065 -2.1589
 1019MOL0     H34493   1.614   9.919   0.676 -2.9257  1.1625  0.5887
 1019MOL0     H34494   1.668   9.476   0.872  2.3232  2.3826  3.6409
 1019MOL0     H34495   1.503   9.279   0.915 -1.0917 -3.7788  0.6429
 1019MOL0     H34496   1.357   8.887   0.775  4.2642  0.3316 -3.0429
 1019MOL0     H34497   1.272   8.693   0.661 -0.5895 -4.0437 -0.6525
 1019MOL0     H34498   1.304   8.252   0.687 -0.1713 -1.8799  3.7023
 1019MOL0     H34499   1.397   8.286   0.828  0.0078  2.5175  1.4729
 1019MOL0     H34500   1.588   8.371   0.645  0.3000  1.0608 -0.5159
 1019MOL0     H34501   1.526   8.213   0.611  0.3893  0.2201 -3.9043
 1019MOL0     H34502   1.423   8.477   0.488 -1.5526 -0.0097  0.7183
 1019MOL0     H34503   1.336   8.326   0.474 -1.8355  2.6948  3.0520
 1019MOL0     H34504   1.624   8.325   0.403 -0.5994 -1.2286  2.0393
 1019MOL0     H34505   1.492   8.220   0.355  0.0220 -1.5382  2.7938
 1019MOL0     H34506   1.515   8.545   0.059 -1.7295 -0.6536 -0.2750
 1019MOL0     H34507   1.516   8.443   0.905 -1.5528 -1.4383  0.1752
 1019MOL0     H34508   1.611   8.644   1.026 -1.8476  0.6785  2.1598
 1020MOL0     O34509   7.326   3.111   6.877 -0.8186 -0.1069  0.2296
 1020MOL0     C34510   7.231   3.166   6.824 -0.1448  0.3699  0.5023
 1020MOL0     O34511   7.238   3.274   6.733  0.9277 -0.4159  0.2785
 1020MOL0     C34512   7.360   3.324   6.703 -0.0952 -1.2365  0.0928
 1020MOL0     C34513   7.417   3.310   6.573  0.4409 -0.7647  0.1421
 1020MOL0     C34514   7.544   3.363   6.550  0.3424  0.0082  1.5408
 1020MOL0     C34515   7.617   3.424   6.645 -1.4325 -0.7625  0.5140
 1020MOL0     O34516   7.738   3.483   6.603 -0.7642  0.8137  0.0108
 1020MOL0     C34517   7.832   3.415   6.510  0.0639 -0.4642 -0.8149
 1020MOL0     C34518   7.861   3.270   6.542 -0.1815 -1.1244 -0.2778
 1020MOL0     C34519   7.949   3.211   6.442  0.4096  0.5456 -0.8349
 1020MOL0     C34520   7.868   3.179   6.315  0.3281  0.2961 -0.9673
 1020MOL0     C34521   7.947   3.095   6.202 -0.0799 -0.0994 -0.1265
 1020MOL0     C34522   7.995   2.954   6.252 -0.0095 -0.0758 -0.3764
 1020MOL0     C34523   8.059   2.874   6.140 -0.0752  0.3901 -0.0795
 1020MOL0     C34524   8.172   2.786   6.204 -0.9506 -0.1727 -0.1596
 1020MOL0     N34525   8.289   2.871   6.236  0.7963  0.4330 -0.1944
 1020MOL0     C34526   8.407   2.859   6.166  0.5305  0.6203 -0.0856
 1020MOL0     C34527   8.487   2.931   6.245  0.5528 -0.3112  0.1320
 1020MOL0     C34528   8.646   2.939   6.248 -0.3030 -0.8756 -0.0044
 1020MOL0     C34529   8.690   3.088   6.237  0.1522  0.4409 -0.3616
 1020MOL0     C34530   8.842   3.111   6.253 -0.6457 -0.5219 -0.2614
 1020MOL0     C34531   8.902   3.060   6.386  0.4595 -0.1263 -0.0243
 1020MOL0     O34532   9.027   3.120   6.404 -0.2484  0.1646  0.5897
 1020MOL0     C34533   9.123   3.047   6.477  0.6146  0.0385 -0.0670
 1020MOL0     C34534   9.091   2.929   6.545 -0.9128  0.5876  0.0117
 1020MOL0     C34535   9.193   2.851   6.601 -0.0083  0.9502  0.7182
 1020MOL0     C34536   9.325   2.905   6.610  0.6759 -0.0164 -0.9552
 1020MOL0     C34537   9.425   2.836   6.697 -0.5893  0.1616  0.7153
 1020MOL0     O34538   9.557   2.864   6.675 -0.1428 -0.0755  0.6016
 1020MOL0     C34539   9.664   2.822   6.749 -0.2081 -0.1139 -0.0793
 1020MOL0     C34540   9.789   2.890   6.728 -0.6134  0.8595  0.2019
 1020MOL0     C34541   9.909   2.851   6.796  0.3057 -0.8555  0.5807
 1020MOL0     C34542   9.902   2.753   6.888 -0.0480  0.0931 -0.6758
 1020MOL0     O34543  10.025   2.718   6.938  0.1689  0.3375 -0.5351
 1020MOL0     C34544  10.033   2.649   7.060 -0.2555 -0.5489 -0.5149
 1020MOL0     C34545  10.172   2.601   7.086 -0.5790  0.6737  0.0729
 1020MOL0     C34546  10.271   2.725   7.092  0.4475  0.2196 -0.1390
 1020MOL0     C34547  10.418   2.694   7.111 -0.0399 -0.2858  0.2491
 1020MOL0     C34548  10.525   2.798   7.097  0.1290  0.1682  0.8594
 1020MOL0     C34549  10.659   2.750   7.140  0.4384 -0.4906 -0.1307
 1020MOL0     C34550  10.737   2.686   7.018 -0.6910  0.3505 -0.4538
 1020MOL0     C34551  10.879   2.640   7.071  0.1240  0.6139 -1.1431
 1020MOL0    Cl34552  10.997   2.780   7.107  0.2082  0.2718 -0.1003
 1020MOL0     C34553   9.777   2.698   6.933 -0.4233  0.6059  0.4784
 1020MOL0     C34554   9.663   2.739   6.862 -0.4126  0.2221  0.2430
 1020MOL0     O34555   9.381   2.753   6.782 -0.2462 -0.0675  1.0952
 1020MOL0     C34556   9.350   3.033   6.558  0.1052  0.4521 -0.0644
 1020MOL0     C34557   9.252   3.095   6.484  0.0642  0.1269  0.9529
 1020MOL0     N34558   8.412   2.994   6.345  0.6556  0.1186 -0.6905
 1020MOL0     N34559   8.296   2.945   6.345  0.2867  0.2928 -0.2356
 1020MOL0     C34560   7.568   3.444   6.773  0.3509  0.4904  0.3433
 1020MOL0     C34561   7.440   3.393   6.803 -0.5467 -0.3098  0.0536
 1020MOL0     C34562   7.100   3.102   6.835 -0.0471 -0.6986 -0.3231
 1020MOL0     C34563   7.085   3.008   6.947 -1.3854 -0.0457  1.0341
 1020MOL0     C34564   6.963   2.944   6.961  0.6263  0.5252  0.2765
 1020MOL0     C34565   6.853   2.981   6.880 -0.3098 -0.9003  0.3575
 1020MOL0     O34566   6.746   2.904   6.918  0.1909  0.4952 -0.4315
 1020MOL0     C34567   6.614   2.930   6.873  0.0847 -0.5886 -0.5752
 1020MOL0     C34568   6.533   2.838   6.956 -0.2301  0.6256  0.8311
 1020MOL0     C34569   6.383   2.875   6.971  0.1343  0.0236  0.9099
 1020MOL0     C34570   6.324   2.837   7.101 -0.3424 -0.7049 -0.5078
 1020MOL0     C34571   6.307   2.700   7.110 -0.3246  0.2788 -0.3278
 1020MOL0     C34572   6.286   2.581   7.118  0.4741 -0.6946  0.8423
 1020MOL0     C34573   6.863   3.086   6.787  0.8385  0.7496 -0.1087
 1020MOL0     C34574   6.988   3.144   6.754  0.3883  0.2253 -1.0931
 1020MOL0     H34575   7.376   3.246   6.496  1.5197 -1.4582  0.1212
 1020MOL0     H34576   7.586   3.358   6.450 -2.1193  0.0283  0.4300
 1020MOL0     H34577   7.929   3.466   6.508 -0.9320  1.5387 -1.6298
 1020MOL0     H34578   7.787   3.424   6.410 -2.0706 -2.4359 -0.1205
 1020MOL0     H34579   7.771   3.210   6.554 -0.5782 -0.1976  1.8214
 1020MOL0     H34580   7.922   3.270   6.632 -0.2366  0.8022 -0.1932
 1020MOL0     H34581   7.984   3.118   6.487 -3.4248 -0.9243 -0.4607
 1020MOL0     H34582   8.029   3.282   6.420  0.6084  1.5906  2.7335
 1020MOL0     H34583   7.785   3.116   6.351  1.8014 -0.1813  1.9208
 1020MOL0     H34584   7.841   3.274   6.268  2.6129  0.9459 -1.1040
 1020MOL0     H34585   8.043   3.145   6.182 -0.3232  0.0045 -1.1147
 1020MOL0     H34586   7.891   3.082   6.109  1.9230  1.3038 -1.6268
 1020MOL0     H34587   7.914   2.893   6.291  1.0462 -0.5811  1.0934
 1020MOL0     H34588   8.069   2.967   6.331  1.3913 -1.0165 -1.4883
 1020MOL0     H34589   7.980   2.815   6.093 -0.7668  1.9362 -0.9456
 1020MOL0     H34590   8.109   2.940   6.068  1.0058  0.6925  0.9183
 1020MOL0     H34591   8.207   2.730   6.117 -1.7019  2.0337 -2.0037
 1020MOL0     H34592   8.154   2.727   6.294  1.1887  0.2020  0.5790
 1020MOL0     H34593   8.438   2.798   6.081  2.5508 -0.1715  1.1398
 1020MOL0     H34594   8.695   2.883   6.168 -0.0358 -0.0144 -0.4589
 1020MOL0     H34595   8.686   2.905   6.344  1.3267  2.0965  0.5138
 1020MOL0     H34596   8.632   3.131   6.319  0.3734 -2.2788  1.3690
 1020MOL0     H34597   8.644   3.133   6.149 -0.5329 -1.5938 -1.1120
 1020MOL0     H34598   8.908   3.077   6.173  2.1794  4.0743 -0.2597
 1020MOL0     H34599   8.852   3.220   6.245 -1.7179 -0.3924 -0.0243
 1020MOL0     H34600   8.900   2.952   6.366 -0.5363 -0.2543  0.6941
 1020MOL0     H34601   8.839   3.092   6.470  0.2667  0.7316 -0.4853
 1020MOL0     H34602   8.987   2.902   6.561 -0.8058 -0.7823 -1.4177
 1020MOL0     H34603   9.165   2.753   6.639 -2.3215  0.3080 -2.2396
 1020MOL0     H34604   9.798   2.963   6.648  0.5226  0.8729  0.3266
 1020MOL0     H34605  10.003   2.889   6.756 -1.5602  0.9092 -2.5873
 1020MOL0     H34606   9.966   2.563   7.062 -0.8348 -0.1070 -0.9010
 1020MOL0     H34607   9.996   2.714   7.140 -0.0563  0.7141 -1.4206
 1020MOL0     H34608  10.203   2.532   7.007 -0.3876 -0.8633  1.4421
 1020MOL0     H34609  10.186   2.539   7.175  2.6812 -0.6145 -1.1724
 1020MOL0     H34610  10.251   2.792   7.176  1.5718  0.4270 -0.0263
 1020MOL0     H34611  10.279   2.778   6.996  2.9745  0.2669  0.0143
 1020MOL0     H34612  10.427   2.650   7.211  0.2637  0.3558  0.5104
 1020MOL0     H34613  10.443   2.622   7.033  1.5966 -0.8652  1.2435
 1020MOL0     H34614  10.489   2.885   7.151  1.5226  0.3545  1.5292
 1020MOL0     H34615  10.519   2.828   6.992 -0.6837 -0.8126  0.6048
 1020MOL0     H34616  10.650   2.677   7.221  0.2185 -1.4463 -1.0046
 1020MOL0     H34617  10.714   2.837   7.178 -2.8431  0.2969  3.4559
 1020MOL0     H34618  10.688   2.594   6.985  0.4604 -1.3790  2.2921
 1020MOL0     H34619  10.754   2.762   6.942  0.3258  2.1952  1.5237
 1020MOL0     H34620  10.921   2.560   7.008  0.5347 -0.5199  0.5104
 1020MOL0     H34621  10.860   2.598   7.170  1.8823  0.7534 -0.7150
 1020MOL0     H34622   9.764   2.624   7.012 -1.2105 -0.0784 -0.2826
 1020MOL0     H34623   9.564   2.711   6.895 -0.1823 -1.6998 -0.5962
 1020MOL0     H34624   9.448   3.078   6.563  0.5056 -0.5267  3.3040
 1020MOL0     H34625   9.273   3.188   6.432 -3.5765  0.6496  0.1477
 1020MOL0     H34626   7.634   3.492   6.845  3.1607  1.0567 -2.3979
 1020MOL0     H34627   7.400   3.400   6.903 -1.4590  0.0307 -0.3173
 1020MOL0     H34628   7.164   2.976   7.015  1.9686  0.8111 -2.1091
 1020MOL0     H34629   6.949   2.872   7.041  0.6518  1.6075  1.2866
 1020MOL0     H34630   6.595   2.918   6.765  2.0257  0.7187 -1.1220
 1020MOL0     H34631   6.591   3.035   6.891  3.3438  0.3523 -1.1949
 1020MOL0     H34632   6.557   2.736   6.926 -1.8176  0.3761  0.2881
 1020MOL0     H34633   6.582   2.855   7.053  2.6655 -0.3446 -0.3802
 1020MOL0     H34634   6.329   2.839   6.884 -0.1504 -0.8041  1.4191
 1020MOL0     H34635   6.373   2.984   6.967  1.7457  0.1583 -0.7949
 1020MOL0     H34636   6.378   2.871   7.190 -3.7759  1.8010  0.8280
 1020MOL0     H34637   6.221   2.872   7.113 -0.8993 -2.3657 -0.1538
 1020MOL0     H34638   6.260   2.478   7.110  1.3733 -0.8070 -1.3829
 1020MOL0     H34639   6.773   3.097   6.728  1.1373 -2.4526 -1.3617
 1020MOL0     H34640   6.982   3.198   6.660 -1.7688  0.2556 -0.9910
 1021MOL0     O34641   2.329   4.358   1.004  0.1056  0.1343 -0.1644
 1021MOL0     C34642   2.302   4.467   1.063 -0.2380  0.6990  0.1163
 1021MOL0     O34643   2.185   4.524   1.063 -0.4244  0.4338 -0.1573
 1021MOL0     C34644   2.074   4.476   1.008  0.1674 -0.1714 -0.5347
 1021MOL0     C34645   2.049   4.450   0.871  0.3645 -0.5346 -0.0862
 1021MOL0     C34646   1.915   4.409   0.842  0.3893 -0.4069  0.4143
 1021MOL0     C34647   1.820   4.371   0.935  1.1090  0.1051  0.0338
 1021MOL0     O34648   1.708   4.309   0.896  0.1104  0.5681  0.6918
 1021MOL0     C34649   1.588   4.333   0.978  0.2864  0.6907  0.2319
 1021MOL0     C34650   1.458   4.299   0.894 -0.1038 -0.0876  0.1611
 1021MOL0     C34651   1.334   4.385   0.944 -0.6762 -0.0473  0.0626
 1021MOL0     C34652   1.280   4.363   1.090  1.1067  0.3415 -0.2195
 1021MOL0     C34653   1.169   4.460   1.137  0.1012 -0.5021 -1.3965
 1021MOL0     C34654   1.050   4.467   1.049 -0.1623  1.7828  0.7871
 1021MOL0     C34655   0.949   4.356   1.085  0.3141  0.4457 -0.0763
 1021MOL0     C34656   0.972   4.228   1.010  0.2001  0.0631  0.0893
 1021MOL0     N34657   0.848   4.152   1.006 -0.4454  0.1365  0.2977
 1021MOL0     C34658   0.796   4.087   1.118  0.1627  0.0061 -0.6160
 1021MOL0     C34659   0.669   4.043   1.091  0.2707 -0.4821  0.8371
 1021MOL0     C34660   0.596   3.973   1.196  0.0705  0.2412 -0.1630
 1021MOL0     C34661   0.453   3.943   1.174  0.5978 -0.0307 -0.3240
 1021MOL0     C34662   0.391   3.849   1.281 -0.1043  0.2616 -0.2008
 1021MOL0     C34663   0.256   3.797   1.241  0.0569  0.2646 -0.3930
 1021MOL0     O34664   0.194   3.743   1.358 -0.0364 -0.3680  0.2930
 1021MOL0     C34665   0.057   3.716   1.368 -0.3960 -0.1679 -0.4868
 1021MOL0     C34666   0.011   3.660   1.494 -0.6779 -1.2897  0.3035
 1021MOL0     C34667  -0.124   3.642   1.513  0.7326 -0.0911  0.3634
 1021MOL0     C34668  -0.225   3.674   1.411 -0.6979 -0.4648  0.4243
 1021MOL0     C34669  -0.373   3.666   1.437 -0.2534  0.0244 -0.3272
 1021MOL0     O34670  -0.459   3.682   1.328 -0.1568  0.5105  0.0802
 1021MOL0     C34671  -0.593   3.666   1.320  0.5409  0.1010  0.4619
 1021MOL0     C34672  -0.664   3.717   1.212 -0.2025  0.4916  0.7600
 1021MOL0     C34673  -0.803   3.706   1.200 -0.4430  0.2572  0.3359
 1021MOL0     C34674  -0.880   3.647   1.299 -0.9905  0.5161  0.0831
 1021MOL0     O34675  -1.014   3.640   1.308 -0.5196  0.3396  0.5183
 1021MOL0     C34676  -1.093   3.696   1.209  0.8070  0.2673 -0.7241
 1021MOL0     C34677  -1.236   3.646   1.268 -0.0151  0.1316 -0.0051
 1021MOL0     C34678  -1.290   3.506   1.210 -0.1089  0.3009 -0.8164
 1021MOL0     C34679  -1.387   3.443   1.316 -0.4899  0.3329 -0.1495
 1021MOL0     C34680  -1.431   3.306   1.284 -0.2082  0.8405  0.0276
 1021MOL0     C34681  -1.500   3.275   1.146 -0.2838  0.4232 -0.0017
 1021MOL0     C34682  -1.620   3.364   1.106 -0.1845  1.4442  0.2930
 1021MOL0     C34683  -1.723   3.298   1.019  1.1907 -0.9864 -0.0317
 1021MOL0    Cl34684  -1.816   3.160   1.098 -0.1537  0.3307 -0.4299
 1021MOL0     C34685  -0.811   3.585   1.404 -0.8106 -0.1147 -0.0684
 1021MOL0     C34686  -0.673   3.599   1.417  0.3170  0.0043 -0.1431
 1021MOL0     O34687  -0.401   3.644   1.552  0.4767 -0.4311 -0.0481
 1021MOL0     C34688  -0.178   3.730   1.288  0.7341  1.1132  0.3684
 1021MOL0     C34689  -0.039   3.747   1.276 -0.1270  0.8678  0.0143
 1021MOL0     N34690   0.648   4.064   0.957 -0.6853 -0.0990 -0.4613
 1021MOL0     N34691   0.747   4.146   0.916  0.0766  0.2567  0.0174
 1021MOL0     C34692   1.851   4.405   1.067 -0.0493 -0.4795  0.1355
 1021MOL0     C34693   1.980   4.460   1.103  0.0956  0.3888  0.2244
 1021MOL0     C34694   2.412   4.537   1.128 -0.8879 -0.5654 -0.1613
 1021MOL0     C34695   2.403   4.648   1.209 -0.1632  0.6394  1.0422
 1021MOL0     C34696   2.518   4.703   1.268  0.0772 -0.6819  0.1128
 1021MOL0     C34697   2.646   4.653   1.234  0.5942  0.0451  0.3805
 1021MOL0     O34698   2.765   4.691   1.285  0.5972  0.1792 -0.0748
 1021MOL0     C34699   2.796   4.656   1.421 -0.2365 -0.5988 -0.4832
 1021MOL0     C34700   2.872   4.527   1.420  0.7184 -0.2333 -0.8243
 1021MOL0     C34701   2.926   4.509   1.567 -0.1171  0.3356 -0.4932
 1021MOL0     C34702   2.985   4.374   1.610 -0.4096 -0.0170 -0.5872
 1021MOL0     C34703   3.123   4.370   1.561  0.5716  0.5818  0.7839
 1021MOL0     C34704   3.231   4.382   1.501 -0.4763  0.6062  0.5147
 1021MOL0     C34705   2.648   4.535   1.162 -0.1131 -0.4280 -0.0033
 1021MOL0     C34706   2.545   4.478   1.105  0.0857  0.3971  1.3104
 1021MOL0     H34707   2.125   4.487   0.804 -0.4031 -1.8012 -1.7069
 1021MOL0     H34708   1.890   4.393   0.738  4.0998 -0.8457 -0.5676
 1021MOL0     H34709   1.596   4.440   1.003 -1.5599  1.0897 -0.7109
 1021MOL0     H34710   1.593   4.279   1.073  0.5611  3.9653  2.2466
 1021MOL0     H34711   1.443   4.192   0.907 -0.9509 -0.0364 -0.3149
 1021MOL0     H34712   1.458   4.329   0.788 -0.5727  1.2560  0.5169
 1021MOL0     H34713   1.257   4.358   0.870  0.6244 -0.6582 -1.1097
 1021MOL0     H34714   1.368   4.488   0.926  0.1695  0.0979  2.2203
 1021MOL0     H34715   1.252   4.258   1.100  4.5016 -0.5269  1.7343
 1021MOL0     H34716   1.358   4.369   1.166 -0.2120 -2.2249  1.4819
 1021MOL0     H34717   1.212   4.561   1.132  0.0254 -0.4474 -0.9702
 1021MOL0     H34718   1.142   4.437   1.240 -0.6762  3.5781 -0.4995
 1021MOL0     H34719   1.072   4.457   0.943 -0.3484 -1.1793  0.9429
 1021MOL0     H34720   1.000   4.562   1.071 -2.6183  0.1961  2.6238
 1021MOL0     H34721   0.959   4.331   1.191  2.9637  3.1475  0.4463
 1021MOL0     H34722   0.846   4.387   1.065  0.1853 -1.6573 -3.3384
 1021MOL0     H34723   1.053   4.168   1.053  0.9239  1.3069  0.5192
 1021MOL0     H34724   1.006   4.252   0.908 -1.7228  1.8053 -0.2214
 1021MOL0     H34725   0.853   4.065   1.208  0.1096  0.8127 -0.3783
 1021MOL0     H34726   0.599   4.035   1.286 -2.9948  2.5144 -1.4625
 1021MOL0     H34727   0.651   3.879   1.211 -1.5476 -0.6875  0.1265
 1021MOL0     H34728   0.441   3.888   1.081 -2.4804  1.5697 -0.9970
 1021MOL0     H34729   0.404   4.039   1.160  3.7491  1.8835  0.7270
 1021MOL0     H34730   0.461   3.766   1.293  1.9145  1.7833 -0.7860
 1021MOL0     H34731   0.384   3.908   1.373 -0.3022  0.8280 -0.5706
 1021MOL0     H34732   0.262   3.723   1.161 -1.9895  0.9269 -1.2147
 1021MOL0     H34733   0.204   3.888   1.211  2.3505  2.0266  0.6272
 1021MOL0     H34734   0.088   3.643   1.569  1.1533 -1.3402 -1.4939
 1021MOL0     H34735  -0.155   3.608   1.611  2.2160 -2.5226  0.0849
 1021MOL0     H34736  -0.626   3.785   1.136  0.9377  0.8665  1.6272
 1021MOL0     H34737  -0.864   3.756   1.125 -2.1824 -1.1949  0.6990
 1021MOL0     H34738  -1.076   3.651   1.111  0.0458 -0.4086 -0.5555
 1021MOL0     H34739  -1.088   3.805   1.202  0.7486  0.2042 -1.8355
 1021MOL0     H34740  -1.315   3.719   1.251 -1.2295 -1.4153 -1.2528
 1021MOL0     H34741  -1.225   3.629   1.375  1.3496  0.2372 -0.1022
 1021MOL0     H34742  -1.214   3.437   1.172  0.2921 -0.4951  1.3151
 1021MOL0     H34743  -1.357   3.528   1.127 -3.8903 -2.5682  1.1702
 1021MOL0     H34744  -1.350   3.444   1.418 -0.5488 -0.0214 -0.1238
 1021MOL0     H34745  -1.475   3.506   1.330  0.0489  1.1725 -0.4896
 1021MOL0     H34746  -1.494   3.275   1.368  2.5609 -2.1236  1.2082
 1021MOL0     H34747  -1.337   3.250   1.290  2.8329  5.2172 -1.4815
 1021MOL0     H34748  -1.522   3.168   1.142  1.5510  0.0532 -1.4945
 1021MOL0     H34749  -1.425   3.280   1.067 -0.6323 -0.1573 -0.3736
 1021MOL0     H34750  -1.655   3.382   1.208 -2.5741  0.1597 -0.2199
 1021MOL0     H34751  -1.578   3.455   1.062 -1.6774  1.8716 -0.3175
 1021MOL0     H34752  -1.667   3.274   0.928 -2.2168  1.8371 -3.2209
 1021MOL0     H34753  -1.800   3.374   1.000  0.8642 -1.2781  0.1132
 1021MOL0     H34754  -0.870   3.519   1.467  0.7040 -0.6203  0.8728
 1021MOL0     H34755  -0.636   3.551   1.507 -2.5685  1.1647  1.8019
 1021MOL0     H34756  -0.248   3.756   1.209  0.1374 -0.2611  0.4080
 1021MOL0     H34757  -0.002   3.775   1.178 -1.0416  1.0374 -0.2966
 1021MOL0     H34758   1.783   4.391   1.150  1.1905  1.6375  1.6031
 1021MOL0     H34759   2.007   4.482   1.206 -0.4576  0.9689  0.2475
 1021MOL0     H34760   2.305   4.688   1.232 -0.7699  0.3651 -0.8527
 1021MOL0     H34761   2.505   4.792   1.329 -1.3183 -0.8207  0.0523
 1021MOL0     H34762   2.707   4.661   1.485 -1.4227  1.3050 -2.1549
 1021MOL0     H34763   2.857   4.737   1.462 -1.5398  0.3470 -0.3530
 1021MOL0     H34764   2.800   4.446   1.406 -2.1021  1.8146  0.7431
 1021MOL0     H34765   2.952   4.534   1.345  1.1033  2.6098 -0.2403
 1021MOL0     H34766   2.853   4.538   1.643 -0.3402  4.8338 -2.0890
 1021MOL0     H34767   3.001   4.585   1.590  0.8174 -1.3945  2.7699
 1021MOL0     H34768   2.979   4.363   1.719 -0.1016  1.2606 -0.4210
 1021MOL0     H34769   2.924   4.296   1.563  1.6285 -1.4413 -1.0196
 1021MOL0     H34770   3.323   4.406   1.452 -1.4173  0.5265 -1.3831
 1021MOL0     H34771   2.750   4.503   1.143  0.0138  0.0629 -0.1855
 1021MOL0     H34772   2.565   4.383   1.057  2.0699  0.9587  0.9049
 1022MOL0     O34773  10.932  10.923  11.036 -0.6416 -0.4363  0.0477
 1022MOL0     C34774  10.967  10.814  11.091 -0.6576 -0.0880  0.2136
 1022MOL0     O34775  10.884  10.715  11.137  1.2924 -0.0804  0.5786
 1022MOL0     C34776  10.747  10.734  11.117  0.5089  0.1521  1.0202
 1022MOL0     C34777  10.699  10.735  10.987 -0.1363 -0.8072 -0.4915
 1022MOL0     C34778  10.565  10.727  10.957  0.9789  0.0880 -0.2942
 1022MOL0     C34779  10.475  10.706  11.059  0.1435  1.0865 -0.0142
 1022MOL0     O34780  10.345  10.689  11.015 -0.4071 -0.2135 -0.1784
 1022MOL0     C34781  10.237  10.664  11.108  0.0174  0.1801  0.1993
 1022MOL0     C34782  10.119  10.636  11.010 -0.5112 -0.3493 -0.2555
 1022MOL0     C34783  10.007  10.576  11.077 -0.5532 -0.5148 -0.6491
 1022MOL0     C34784   9.892  10.535  10.997  0.5779 -0.1006  0.4322
 1022MOL0     C34785   9.939  10.413  10.900  0.8887 -0.1083 -0.0183
 1022MOL0     C34786   9.850  10.396  10.766 -1.0338  0.2891 -0.0537
 1022MOL0     C34787   9.897  10.495  10.657 -0.2566  0.0416 -0.0258
 1022MOL0     C34788   9.833  10.473  10.520  0.1946 -0.3377 -1.0762
 1022MOL0     N34789   9.701  10.539  10.489 -0.8571 -0.0043  0.1140
 1022MOL0     C34790   9.687  10.672  10.452  0.1143 -0.1874 -0.0131
 1022MOL0     C34791   9.554  10.691  10.448 -0.6295 -0.2904 -0.4434
 1022MOL0     C34792   9.475  10.816  10.410  0.5658 -0.1580 -0.1072
 1022MOL0     C34793   9.524  10.935  10.496 -0.1076  0.1797 -0.7521
 1022MOL0     C34794   9.414  11.056  10.478 -0.6281  0.1738 -0.8418
 1022MOL0     C34795   9.320  11.055  10.591 -0.5127  0.0752 -0.3136
 1022MOL0     O34796   9.241  11.169  10.556  0.0540 -0.1494 -1.0915
 1022MOL0     C34797   9.115  11.186  10.608  0.1452 -0.3791  0.5501
 1022MOL0     C34798   9.038  11.272  10.533 -0.4692 -0.0901  0.3379
 1022MOL0     C34799   8.916  11.315  10.587  0.2418 -0.3443  0.5866
 1022MOL0     C34800   8.856  11.262  10.705  0.5573 -0.0889 -0.0437
 1022MOL0     C34801   8.728  11.315  10.754  0.3830 -0.0366 -0.1310
 1022MOL0     O34802   8.655  11.399  10.674  1.0107 -0.2391 -0.4847
 1022MOL0     C34803   8.551  11.457  10.739 -0.7793  0.6158 -0.3313
 1022MOL0     C34804   8.439  11.384  10.778  0.6878 -0.3368  0.2239
 1022MOL0     C34805   8.336  11.457  10.840 -0.7533  0.5130 -0.6858
 1022MOL0     C34806   8.357  11.594  10.874 -0.0719 -0.6341 -0.0712
 1022MOL0     O34807   8.257  11.658  10.943  0.3795  0.2614 -0.2247
 1022MOL0     C34808   8.251  11.805  10.947  1.0163 -0.8109  0.0428
 1022MOL0     C34809   8.161  11.835  11.064 -0.1875 -0.6988  0.2162
 1022MOL0     C34810   8.128  11.987  11.063 -0.2966  0.2709 -0.6673
 1022MOL0     C34811   8.035  12.014  11.182 -0.2013 -0.4212 -0.0687
 1022MOL0     C34812   8.021  12.167  11.203  0.5222  0.4176 -0.1337
 1022MOL0     C34813   7.884  12.194  11.273 -0.1506 -0.1789  0.1522
 1022MOL0     C34814   7.772  12.219  11.171  0.6363  0.2936  0.4578
 1022MOL0     C34815   7.631  12.214  11.233 -0.5089  0.4260 -0.0411
 1022MOL0    Cl34816   7.615  12.346  11.357 -0.1475  0.5229  0.4331
 1022MOL0     C34817   8.465  11.660  10.821  0.2978  0.9259  0.4644
 1022MOL0     C34818   8.565  11.595  10.760 -0.6993  0.1923 -1.0137
 1022MOL0     O34819   8.704  11.285  10.873  0.8570 -0.3888 -0.8557
 1022MOL0     C34820   8.933  11.174  10.773  0.2294 -0.8434 -0.5101
 1022MOL0     C34821   9.064  11.145  10.727 -0.0495  0.6621 -0.2245
 1022MOL0     N34822   9.494  10.568  10.470 -0.2363  1.0495  0.0119
 1022MOL0     N34823   9.581  10.482  10.514  0.3736  0.3753  0.3743
 1022MOL0     C34824  10.516  10.707  11.194  0.3525  0.0770  0.1675
 1022MOL0     C34825  10.653  10.722  11.217  0.0361  0.1208  0.8199
 1022MOL0     C34826  11.112  10.805  11.125 -0.4506  0.7060 -0.5312
 1022MOL0     C34827  11.181  10.687  11.162 -0.5530  0.6516 -0.8888
 1022MOL0     C34828  11.321  10.678  11.163 -0.2117 -0.1174 -0.1420
 1022MOL0     C34829  11.397  10.794  11.161 -0.3234  0.2336  0.2886
 1022MOL0     O34830  11.535  10.768  11.168  0.1979 -0.1881 -0.0271
 1022MOL0     C34831  11.623  10.884  11.170 -0.3613  0.0962 -0.5698
 1022MOL0     C34832  11.773  10.857  11.154  0.5575 -0.3219  0.0494
 1022MOL0     C34833  11.830  10.790  11.274 -0.2135 -0.5833 -0.4301
 1022MOL0     C34834  11.982  10.796  11.277 -0.3332 -0.5745 -0.5022
 1022MOL0     C34835  12.033  10.740  11.404  0.2266  0.3885 -0.6128
 1022MOL0     C34836  12.065  10.700  11.512 -0.5467 -0.4721 -0.2930
 1022MOL0     C34837  11.334  10.920  11.155 -1.4479  0.7207  0.8828
 1022MOL0     C34838  11.201  10.914  11.132  0.5416 -0.3390 -0.6655
 1022MOL0     H34839  10.776  10.745  10.911 -0.3289  2.1146 -0.3978
 1022MOL0     H34840  10.544  10.711  10.852 -0.3775 -0.9549  0.1150
 1022MOL0     H34841  10.216  10.757  11.161 -1.7795  0.5925 -1.1308
 1022MOL0     H34842  10.266  10.584  11.177 -0.9104  0.2070  0.6344
 1022MOL0     H34843  10.146  10.572  10.925  0.2217 -1.9287  1.1095
 1022MOL0     H34844  10.098  10.739  10.979  4.8709  1.9728  2.3749
 1022MOL0     H34845   9.972  10.645  11.154 -2.0544 -0.2440 -1.5369
 1022MOL0     H34846  10.054  10.493  11.131 -1.4509 -0.5057  0.1693
 1022MOL0     H34847   9.809  10.505  11.062 -1.2807  0.9579 -1.3660
 1022MOL0     H34848   9.849  10.618  10.941 -2.1133 -2.1578 -0.7498
 1022MOL0     H34849   9.943  10.317  10.952 -0.4529  0.9404  2.1911
 1022MOL0     H34850  10.041  10.434  10.869  0.8287  1.8941  0.9398
 1022MOL0     H34851   9.746  10.420  10.790 -0.8990  0.5676  0.2699
 1022MOL0     H34852   9.848  10.296  10.722 -3.2344  0.5323 -0.6284
 1022MOL0     H34853   9.887  10.598  10.694 -0.1774  0.2712 -0.6363
 1022MOL0     H34854  10.005  10.482  10.651 -0.4645 -2.4966  0.4192
 1022MOL0     H34855   9.814  10.367  10.500 -4.0872  0.6171 -3.5226
 1022MOL0     H34856   9.905  10.501  10.443  1.5304 -0.2137  0.1879
 1022MOL0     H34857   9.771  10.737  10.430  0.9008 -0.4574  1.9947
 1022MOL0     H34858   9.371  10.789  10.429  0.7726 -0.1501  1.1202
 1022MOL0     H34859   9.470  10.829  10.302  1.6600 -2.2034 -0.4555
 1022MOL0     H34860   9.625  10.959  10.462  0.2778 -3.7419 -2.9544
 1022MOL0     H34861   9.534  10.909  10.602  0.3184  0.2582 -0.7729
 1022MOL0     H34862   9.466  11.151  10.465  0.9291 -0.1182  2.3184
 1022MOL0     H34863   9.369  11.046  10.379 -0.5775  2.2888 -1.1222
 1022MOL0     H34864   9.357  11.080  10.690 -2.2763  0.3546  0.3053
 1022MOL0     H34865   9.265  10.962  10.610  2.5696 -1.4314  2.2995
 1022MOL0     H34866   9.076  11.302  10.436  1.3929  0.7083  1.2691
 1022MOL0     H34867   8.864  11.399  10.542 -0.4979  0.0239  2.0642
 1022MOL0     H34868   8.421  11.285  10.739 -1.6477  0.3297 -0.4951
 1022MOL0     H34869   8.246  11.401  10.865  0.7062 -1.8565 -0.3764
 1022MOL0     H34870   8.213  11.835  10.849 -0.7930 -1.1128  0.6025
 1022MOL0     H34871   8.348  11.852  10.965  2.5579 -4.2540  1.5951
 1022MOL0     H34872   8.197  11.808  11.163 -0.4521  4.3253  1.9701
 1022MOL0     H34873   8.061  11.794  11.046 -2.4833  4.7042 -1.3650
 1022MOL0     H34874   8.078  12.012  10.968 -2.4563 -0.1768  0.2865
 1022MOL0     H34875   8.214  12.052  11.081 -1.5583  1.7849  0.1595
 1022MOL0     H34876   7.943  11.959  11.158 -0.1982 -0.4727  0.0393
 1022MOL0     H34877   8.084  11.975  11.271 -3.0991 -0.8886  1.4216
 1022MOL0     H34878   8.040  12.227  11.113  1.2910  0.9321  0.3681
 1022MOL0     H34879   8.091  12.202  11.279 -1.2256  0.5622  1.4842
 1022MOL0     H34880   7.896  12.279  11.340 -0.7886 -1.5586  2.1295
 1022MOL0     H34881   7.868  12.112  11.344  0.3066 -0.1079  0.3426
 1022MOL0     H34882   7.779  12.312  11.114 -0.6871  0.4315  0.5014
 1022MOL0     H34883   7.768  12.144  11.091 -0.3505 -1.3051  1.9357
 1022MOL0     H34884   7.612  12.122  11.289  5.0427  0.3948  2.4975
 1022MOL0     H34885   7.556  12.235  11.157  0.6649 -2.4365 -2.1550
 1022MOL0     H34886   8.480  11.762  10.855  0.6923  0.3397  2.1284
 1022MOL0     H34887   8.661  11.644  10.747 -0.0775 -0.2959  1.2842
 1022MOL0     H34888   8.901  11.130  10.867  0.9487 -0.7004 -0.1925
 1022MOL0     H34889   9.125  11.081  10.789  0.1385 -0.2817 -1.3488
 1022MOL0     H34890  10.446  10.689  11.275  2.1274 -1.5468  1.4240
 1022MOL0     H34891  10.693  10.705  11.316  2.9382 -1.0271 -0.4520
 1022MOL0     H34892  11.121  10.598  11.177 -0.9617  0.9409 -0.7987
 1022MOL0     H34893  11.377  10.586  11.181  0.5808  0.7539  2.1755
 1022MOL0     H34894  11.612  10.940  11.262  3.1535  2.7513 -1.5204
 1022MOL0     H34895  11.594  10.948  11.086  1.2275  0.5671 -0.7971
 1022MOL0     H34896  11.782  10.800  11.061  1.0492  0.1297 -0.1851
 1022MOL0     H34897  11.822  10.953  11.134  0.0567 -0.3118 -1.2754
 1022MOL0     H34898  11.799  10.685  11.277 -0.0520 -0.6250 -0.0528
 1022MOL0     H34899  11.802  10.832  11.371  2.7394 -0.0669  0.2799
 1022MOL0     H34900  12.029  10.737  11.197  2.7495  0.0589  0.6946
 1022MOL0     H34901  12.014  10.898  11.251 -1.8476  0.2453  0.6858
 1022MOL0     H34902  12.075  10.679  11.617 -0.3470  3.7291  0.7311
 1022MOL0     H34903  11.381  11.018  11.159 -0.6819  0.4618 -0.9037
 1022MOL0     H34904  11.159  11.014  11.129 -1.1176 -1.0148 -1.6907
 1023MOL0     O34905   1.258   8.047   4.891 -0.2240  0.0139  0.1063
 1023MOL0     C34906   1.263   7.933   4.942 -0.2720  0.3591  0.6016
 1023MOL0     O34907   1.378   7.866   4.973  0.0660  0.3732  0.3696
 1023MOL0     C34908   1.504   7.904   4.939  0.9555 -0.6278 -0.1854
 1023MOL0     C34909   1.599   7.810   4.920 -0.8814 -0.5240  0.0205
 1023MOL0     C34910   1.728   7.839   4.879 -0.2653 -0.5272  0.3843
 1023MOL0     C34911   1.766   7.973   4.850 -0.9077  0.0037  0.0184
 1023MOL0     O34912   1.898   8.005   4.836 -0.4224 -0.0852  0.3272
 1023MOL0     C34913   1.987   7.918   4.749  0.0541 -0.8262  0.6533
 1023MOL0     C34914   2.123   7.993   4.713  0.4765 -0.2072 -0.2490
 1023MOL0     C34915   2.244   7.899   4.690 -0.1368 -0.6138  0.7518
 1023MOL0     C34916   2.367   7.963   4.630 -0.6117 -0.3850  0.4922
 1023MOL0     C34917   2.476   7.857   4.618  0.6678  0.7832 -0.4152
 1023MOL0     C34918   2.617   7.917   4.592 -0.0771  1.3534  0.3285
 1023MOL0     C34919   2.733   7.811   4.597  0.7616  0.0217  0.8417
 1023MOL0     C34920   2.738   7.720   4.465 -0.1138 -0.6258  0.2503
 1023MOL0     N34921   2.815   7.784   4.359  0.0927  0.3954 -0.0747
 1023MOL0     C34922   2.947   7.832   4.360 -0.6585  0.2429  0.4670
 1023MOL0     C34923   2.961   7.901   4.245  0.7005 -0.0515 -0.7941
 1023MOL0     C34924   3.077   7.985   4.204  0.0872 -1.0084 -0.9471
 1023MOL0     C34925   3.167   7.893   4.119  0.6569 -0.8381  0.1970
 1023MOL0     C34926   3.303   7.955   4.077  0.0128 -0.0635 -0.5061
 1023MOL0     C34927   3.410   7.857   4.019  0.1035 -0.1919  1.0514
 1023MOL0     O34928   3.372   7.785   3.899  1.0194  0.1858 -0.2045
 1023MOL0     C34929   3.467   7.711   3.833 -0.6567 -0.5160 -0.2353
 1023MOL0     C34930   3.419   7.603   3.759 -0.2410 -0.7842 -0.5995
 1023MOL0     C34931   3.497   7.519   3.680  0.1005  0.2326 -0.4115
 1023MOL0     C34932   3.633   7.554   3.675 -0.4459  0.1546  0.9624
 1023MOL0     C34933   3.720   7.482   3.596 -0.7474 -0.3754  0.4481
 1023MOL0     O34934   3.858   7.512   3.602 -0.2910 -0.6221 -0.3793
 1023MOL0     C34935   3.955   7.459   3.524 -0.5618 -0.4331 -0.1589
 1023MOL0     C34936   3.943   7.473   3.383 -0.0939  0.8528  0.5029
 1023MOL0     C34937   4.045   7.428   3.302  0.3157  0.8525  0.9256
 1023MOL0     C34938   4.155   7.345   3.353  0.3418 -0.4688  0.2946
 1023MOL0     O34939   4.260   7.277   3.289  0.4629 -0.3157 -0.2056
 1023MOL0     C34940   4.310   7.336   3.167  0.4281 -0.4277  0.0538
 1023MOL0     C34941   4.460   7.296   3.170  0.2165 -0.2793  0.0483
 1023MOL0     C34942   4.495   7.142   3.181 -0.0914  0.0462 -0.2450
 1023MOL0     C34943   4.627   7.123   3.243 -0.3114 -0.2478 -0.0456
 1023MOL0     C34944   4.618   6.988   3.317 -0.1593 -0.3389 -1.0308
 1023MOL0     C34945   4.753   6.963   3.387  0.0529 -0.1789 -0.4087
 1023MOL0     C34946   4.771   6.833   3.467 -0.3748  1.1828  0.2820
 1023MOL0     C34947   4.776   6.708   3.368 -0.0494  0.1201 -0.4897
 1023MOL0    Cl34948   4.815   6.557   3.476  0.0786  0.2730  0.0139
 1023MOL0     C34949   4.159   7.333   3.492  0.0507 -0.5227  0.5441
 1023MOL0     C34950   4.066   7.386   3.571  1.5524  0.1431 -0.3141
 1023MOL0     O34951   3.671   7.403   3.516  0.2657 -0.7730 -0.5209
 1023MOL0     C34952   3.691   7.656   3.759  0.4469 -0.3335 -0.3484
 1023MOL0     C34953   3.601   7.733   3.841 -0.2387  0.2379  0.3052
 1023MOL0     N34954   2.843   7.891   4.176  0.1253  0.3498  0.0118
 1023MOL0     N34955   2.756   7.830   4.244 -0.6430 -0.0594 -0.0366
 1023MOL0     C34956   1.671   8.075   4.873  0.6053  0.1345  0.3865
 1023MOL0     C34957   1.541   8.039   4.910 -0.2725 -0.2710  0.6543
 1023MOL0     C34958   1.129   7.874   4.979 -0.0511 -0.7507 -0.7823
 1023MOL0     C34959   1.010   7.950   4.979  1.3376 -0.4345  0.1424
 1023MOL0     C34960   0.883   7.897   5.022 -0.3124  0.1556  0.3209
 1023MOL0     C34961   0.882   7.756   5.058  0.6392  0.0214 -0.4024
 1023MOL0     O34962   0.758   7.707   5.087  0.0875 -0.0687 -0.4487
 1023MOL0     C34963   0.754   7.573   5.135  0.8528  0.0262  0.1274
 1023MOL0     C34964   0.610   7.541   5.172  0.5611 -0.3667  0.0775
 1023MOL0     C34965   0.508   7.539   5.064  0.1009 -0.1475  1.1327
 1023MOL0     C34966   0.363   7.504   5.114  0.4729  0.3325  0.9192
 1023MOL0     C34967   0.344   7.362   5.122  0.0258 -0.0146  0.3449
 1023MOL0     C34968   0.327   7.242   5.130 -0.4251  1.0664 -0.8445
 1023MOL0     C34969   0.998   7.683   5.052 -0.0414 -0.5503 -0.2668
 1023MOL0     C34970   1.124   7.737   5.018 -0.5586 -0.7926  0.8197
 1023MOL0     H34971   1.565   7.708   4.933 -1.2359 -0.2342  1.5041
 1023MOL0     H34972   1.799   7.759   4.865  0.1916 -0.0677  0.0210
 1023MOL0     H34973   1.946   7.895   4.650 -0.5421 -0.8264  0.8923
 1023MOL0     H34974   2.022   7.826   4.794  0.0179 -2.2367 -2.0005
 1023MOL0     H34975   2.155   8.058   4.795  0.1113 -1.4689  0.9244
 1023MOL0     H34976   2.106   8.058   4.626 -0.3438  0.1949  0.2050
 1023MOL0     H34977   2.211   7.819   4.623  0.2675 -0.2946  0.1517
 1023MOL0     H34978   2.284   7.863   4.785  1.3063 -0.6841  0.1575
 1023MOL0     H34979   2.346   7.996   4.528  0.9197 -2.0042 -0.4256
 1023MOL0     H34980   2.391   8.050   4.691 -0.2931  0.7891 -1.2130
 1023MOL0     H34981   2.444   7.793   4.535 -1.0685 -1.7106  2.0187
 1023MOL0     H34982   2.471   7.789   4.704  1.2295 -0.3018 -1.2088
 1023MOL0     H34983   2.625   7.999   4.665  0.0122  1.2419  0.4445
 1023MOL0     H34984   2.608   7.968   4.496  1.1974  0.7197 -0.1445
 1023MOL0     H34985   2.823   7.872   4.607 -0.4266  2.1599 -0.7150
 1023MOL0     H34986   2.712   7.744   4.681 -1.4526 -5.3323 -3.3273
 1023MOL0     H34987   2.641   7.684   4.430 -0.6404 -0.6975  1.7443
 1023MOL0     H34988   2.792   7.631   4.498  3.1841  1.5363  1.2382
 1023MOL0     H34989   3.035   7.836   4.424 -1.7787  4.3163  2.1142
 1023MOL0     H34990   3.145   8.019   4.282 -3.5863  3.3044  0.8246
 1023MOL0     H34991   3.044   8.077   4.155 -2.5271 -0.5434  1.4351
 1023MOL0     H34992   3.107   7.882   4.028  0.3217 -1.5953  0.4993
 1023MOL0     H34993   3.185   7.797   4.168 -0.6206  0.1395  2.7732
 1023MOL0     H34994   3.284   8.030   4.000 -1.0830  2.7592  2.2920
 1023MOL0     H34995   3.350   8.004   4.163 -1.6983 -0.2606  0.6101
 1023MOL0     H34996   3.437   7.795   4.106 -0.7391  0.7769  2.0330
 1023MOL0     H34997   3.498   7.916   3.994  1.9105 -2.4658  1.6673
 1023MOL0     H34998   3.310   7.599   3.765 -0.2715 -0.4503 -0.9243
 1023MOL0     H34999   3.463   7.427   3.634 -1.5566  0.6719 -0.1159
 1023MOL0     H35000   3.861   7.528   3.338  0.1715 -1.3023 -2.9639
 1023MOL0     H35001   4.054   7.448   3.195 -1.2325  2.2394  1.0277
 1023MOL0     H35002   4.302   7.444   3.184  2.1221 -0.5326  1.9871
 1023MOL0     H35003   4.266   7.306   3.071  0.7274  2.4222 -1.0507
 1023MOL0     H35004   4.513   7.347   3.250 -2.8348 -0.4709  2.3646
 1023MOL0     H35005   4.494   7.327   3.070  1.6556 -1.0541  0.2640
 1023MOL0     H35006   4.489   7.092   3.084 -1.0172 -1.0268  0.3446
 1023MOL0     H35007   4.423   7.093   3.247  1.9879 -0.1749  2.0133
 1023MOL0     H35008   4.704   7.130   3.166 -0.2574  0.1851  0.0479
 1023MOL0     H35009   4.652   7.196   3.320 -0.2069  1.2063 -1.3997
 1023MOL0     H35010   4.579   6.911   3.250 -1.7185  1.2762 -2.0509
 1023MOL0     H35011   4.543   6.999   3.396 -0.3843 -1.1287 -1.1254
 1023MOL0     H35012   4.775   7.048   3.453 -0.1429 -2.0181  2.1845
 1023MOL0     H35013   4.839   6.962   3.320  0.3528 -1.1969 -0.0190
 1023MOL0     H35014   4.871   6.840   3.510  0.5476 -0.3552 -1.4753
 1023MOL0     H35015   4.698   6.817   3.547 -0.3539 -0.1129  0.0701
 1023MOL0     H35016   4.850   6.722   3.289 -0.2088  3.5490 -0.1559
 1023MOL0     H35017   4.682   6.694   3.315 -0.3259  1.0738 -0.2705
 1023MOL0     H35018   4.244   7.285   3.539  0.0388  0.7970  1.9863
 1023MOL0     H35019   4.073   7.369   3.678 -0.8166 -1.2632 -0.3242
 1023MOL0     H35020   3.797   7.677   3.769 -0.0495  3.0629 -1.0297
 1023MOL0     H35021   3.640   7.810   3.907 -1.7027  2.1245 -0.9259
 1023MOL0     H35022   1.701   8.177   4.854  0.4528  0.1397  0.1742
 1023MOL0     H35023   1.471   8.122   4.916  0.7193  0.7069 -0.6316
 1023MOL0     H35024   1.014   8.054   4.947  0.2680  0.7114  3.3220
 1023MOL0     H35025   0.790   7.951   5.017  0.1524  0.9399  0.0765
 1023MOL0     H35026   0.812   7.556   5.225 -0.3227 -4.9085  0.2072
 1023MOL0     H35027   0.777   7.500   5.057 -0.9082  0.8376 -1.2439
 1023MOL0     H35028   0.611   7.439   5.212 -0.5443 -0.8087 -0.9862
 1023MOL0     H35029   0.577   7.605   5.255  1.0883 -2.0826  1.6852
 1023MOL0     H35030   0.546   7.453   5.007 -0.7748 -0.3472  0.8396
 1023MOL0     H35031   0.510   7.631   5.005 -2.1185 -0.8785 -0.1887
 1023MOL0     H35032   0.335   7.559   5.204 -1.7065  1.9899 -0.6424
 1023MOL0     H35033   0.296   7.541   5.035 -2.7461  2.4169  4.2916
 1023MOL0     H35034   0.301   7.140   5.114 -1.8784  1.6969 -3.0050
 1023MOL0     H35035   0.992   7.577   5.076  2.7621 -0.8844 -0.7139
 1023MOL0     H35036   1.217   7.682   5.016  0.6421  1.1395  1.1332
 1024MOL0     O35037   8.705   1.445   0.163 -0.0159  0.0934 -0.4443
 1024MOL0     C35038   8.738   1.390   0.066 -0.2458 -0.5021  0.4562
 1024MOL0     O35039   8.657   1.325  -0.017  0.4752  0.4179  0.4066
 1024MOL0     C35040   8.523   1.335  -0.005  0.8276  0.0753 -0.0948
 1024MOL0     C35041   8.465   1.461  -0.002 -0.1863  0.4345 -0.1571
 1024MOL0     C35042   8.331   1.480   0.037 -0.9503 -0.1229  0.0104
 1024MOL0     C35043   8.250   1.371   0.066  0.9958  0.3848 -0.1879
 1024MOL0     O35044   8.113   1.402   0.094 -0.7332  0.2230  0.5863
 1024MOL0     C35045   8.027   1.308   0.164 -0.9578  1.0857  0.8562
 1024MOL0     C35046   8.049   1.323   0.317  0.2551  0.2818 -0.3940
 1024MOL0     C35047   7.985   1.452   0.374 -0.7980  0.5356  0.6598
 1024MOL0     C35048   7.952   1.435   0.523 -0.2149  0.5693  0.2307
 1024MOL0     C35049   7.875   1.559   0.573 -0.0989  0.5825  1.5365
 1024MOL0     C35050   7.842   1.559   0.726  0.2132  0.6667  0.6754
 1024MOL0     C35051   7.740   1.675   0.759  0.3254  0.1459  0.4709
 1024MOL0     C35052   7.658   1.644   0.882  0.0915  0.0410 -0.4736
 1024MOL0     N35053   7.551   1.743   0.910 -0.6657  0.4755  0.0839
 1024MOL0     C35054   7.452   1.775   0.818  0.2246  0.2654 -0.2344
 1024MOL0     C35055   7.373   1.867   0.892 -0.1051  0.0061  0.6148
 1024MOL0     C35056   7.264   1.957   0.849  0.1697  0.7784  0.4425
 1024MOL0     C35057   7.137   1.870   0.857 -0.3677  0.5841 -0.0815
 1024MOL0     C35058   7.033   1.978   0.876  0.1179  0.0013  1.4489
 1024MOL0     C35059   6.887   1.911   0.887 -0.2407 -0.2995 -0.0661
 1024MOL0     O35060   6.802   2.026   0.855 -0.0888  0.4774 -0.7757
 1024MOL0     C35061   6.664   1.995   0.829  0.0942 -0.0773 -0.2453
 1024MOL0     C35062   6.623   1.872   0.789  1.1134 -0.0658  0.4077
 1024MOL0     C35063   6.488   1.855   0.748  0.0704 -0.2064 -0.1961
 1024MOL0     C35064   6.391   1.954   0.758 -0.2361  0.6330  0.1142
 1024MOL0     C35065   6.245   1.936   0.717 -0.4275  0.1658 -0.3617
 1024MOL0     O35066   6.166   2.045   0.699  0.3395 -0.1470  1.0801
 1024MOL0     C35067   6.044   2.027   0.647  0.7301 -0.1431  0.0652
 1024MOL0     C35068   5.945   2.021   0.751  0.0085 -0.4153  0.9713
 1024MOL0     C35069   5.810   2.019   0.717 -1.3566  0.4582 -0.4290
 1024MOL0     C35070   5.776   2.024   0.583  0.8738 -0.6452  1.0929
 1024MOL0     O35071   5.640   2.052   0.560  0.7861  0.1921 -0.0278
 1024MOL0     C35072   5.573   1.987   0.451 -0.0931  0.3237 -0.5213
 1024MOL0     C35073   5.438   2.054   0.425  0.0924 -1.0092  0.2428
 1024MOL0     C35074   5.331   2.050   0.530  0.2933  0.2640 -0.4180
 1024MOL0     C35075   5.202   2.123   0.482  0.4796  0.4419 -0.3894
 1024MOL0     C35076   5.079   2.060   0.537  1.1704  1.3719  0.0245
 1024MOL0     C35077   4.946   2.136   0.519 -1.0928 -0.6385  0.0395
 1024MOL0     C35078   4.904   2.142   0.372  1.1274  0.7160 -0.1626
 1024MOL0     C35079   4.779   2.227   0.357 -0.2123  0.7560  0.0211
 1024MOL0    Cl35080   4.627   2.168   0.443 -0.2228  0.1837 -0.3301
 1024MOL0     C35081   5.870   2.011   0.481  0.7657  0.4176 -0.3283
 1024MOL0     C35082   6.004   2.019   0.509  0.4109 -0.2079  0.0712
 1024MOL0     O35083   6.214   1.821   0.682 -0.0093 -0.3776 -0.5043
 1024MOL0     C35084   6.436   2.084   0.784 -0.1730 -0.1480 -0.1201
 1024MOL0     C35085   6.579   2.101   0.803  0.5523  0.5093  0.1503
 1024MOL0     N35086   7.433   1.883   1.017 -0.7315 -0.3217 -0.4988
 1024MOL0     N35087   7.539   1.807   1.032  0.0797  0.4227  0.5199
 1024MOL0     C35088   8.303   1.243   0.064 -0.5236  0.2985 -0.2554
 1024MOL0     C35089   8.438   1.225   0.015 -0.5263  0.3173  0.2104
 1024MOL0     C35090   8.880   1.377   0.046  0.6518 -0.1696  0.4862
 1024MOL0     C35091   8.928   1.342  -0.081 -0.5823  0.7375 -0.6525
 1024MOL0     C35092   9.063   1.332  -0.096 -0.5890 -0.5097 -0.3081
 1024MOL0     C35093   9.163   1.360   0.003 -0.0174 -0.3865 -0.1230
 1024MOL0     O35094   9.292   1.347  -0.033 -0.1965 -0.0868 -0.3915
 1024MOL0     C35095   9.390   1.323   0.073 -0.4244  0.3680 -0.9107
 1024MOL0     C35096   9.531   1.351   0.005 -0.4949  0.7340  0.3471
 1024MOL0     C35097   9.531   1.481  -0.080 -0.3667  0.6498 -0.4433
 1024MOL0     C35098   9.620   1.581  -0.009 -0.1252 -0.8893  0.0155
 1024MOL0     C35099   9.588   1.607   0.134 -0.2095  0.5006 -0.6658
 1024MOL0     C35100   9.569   1.637   0.250  0.4529 -0.4589  0.0146
 1024MOL0     C35101   9.114   1.420   0.115  0.2257  0.6955  0.1182
 1024MOL0     C35102   8.967   1.419   0.138 -0.0453 -0.0325  1.1358
 1024MOL0     H35103   8.533   1.545  -0.016  1.3747 -0.6922  0.4430
 1024MOL0     H35104   8.280   1.576   0.027  0.2908  0.3820 -2.1062
 1024MOL0     H35105   8.034   1.203   0.132  1.2841  0.9661  1.5554
 1024MOL0     H35106   7.926   1.342   0.139 -0.4648  1.4173 -0.7549
 1024MOL0     H35107   8.155   1.308   0.341 -0.9025 -1.3590  5.3131
 1024MOL0     H35108   7.992   1.246   0.370  0.2144  0.0862 -0.7221
 1024MOL0     H35109   7.892   1.467   0.319 -0.8530 -0.8033  0.3534
 1024MOL0     H35110   8.063   1.528   0.360  0.5364 -1.2697 -2.8072
 1024MOL0     H35111   7.889   1.346   0.535  2.5710 -1.3305  1.9768
 1024MOL0     H35112   8.045   1.420   0.579  0.2341  1.5068 -0.2387
 1024MOL0     H35113   7.777   1.551   0.526  1.2294 -3.0649 -1.0719
 1024MOL0     H35114   7.922   1.648   0.529 -2.2769  0.5362 -1.1025
 1024MOL0     H35115   7.936   1.573   0.781  1.4434  2.3013 -1.6752
 1024MOL0     H35116   7.795   1.463   0.751 -1.1825  0.8115 -1.2423
 1024MOL0     H35117   7.802   1.761   0.787  1.2335  0.1259 -1.3342
 1024MOL0     H35118   7.681   1.696   0.669  0.1206 -2.0273  0.0440
 1024MOL0     H35119   7.719   1.645   0.973 -0.8091 -0.2529  0.1423
 1024MOL0     H35120   7.606   1.549   0.866 -2.6993  1.5060 -0.8154
 1024MOL0     H35121   7.443   1.735   0.717  0.9171 -0.0170 -0.1865
 1024MOL0     H35122   7.293   1.990   0.749 -0.5657 -1.9871 -0.7768
 1024MOL0     H35123   7.264   2.043   0.917  1.2715 -0.9633  2.7774
 1024MOL0     H35124   7.130   1.809   0.948 -2.4722  1.3346  0.3213
 1024MOL0     H35125   7.130   1.803   0.771 -0.3611 -2.2840  2.0201
 1024MOL0     H35126   7.036   2.033   0.970 -0.9856  0.5123  1.2055
 1024MOL0     H35127   7.033   2.052   0.795 -0.4465 -0.4331  1.0400
 1024MOL0     H35128   6.864   1.869   0.985  1.4438  3.9045  2.4318
 1024MOL0     H35129   6.891   1.842   0.803 -0.5303  1.2210 -1.3887
 1024MOL0     H35130   6.689   1.788   0.770  3.2161  1.7021 -0.6595
 1024MOL0     H35131   6.463   1.755   0.715  2.9243 -0.5843 -1.5332
 1024MOL0     H35132   5.976   2.017   0.854  0.1577 -0.6063  0.9207
 1024MOL0     H35133   5.740   2.004   0.799 -1.3044  3.4275  0.2865
 1024MOL0     H35134   5.564   1.882   0.477  3.5528  0.2625  0.9897
 1024MOL0     H35135   5.632   1.992   0.359  0.8721  0.0841  0.0708
 1024MOL0     H35136   5.388   2.022   0.334  2.7719  0.6180 -1.9644
 1024MOL0     H35137   5.456   2.160   0.407  1.4591 -1.1469  0.6655
 1024MOL0     H35138   5.368   2.095   0.622  0.4157 -1.5272  0.4552
 1024MOL0     H35139   5.321   1.941   0.543  1.0035  0.3006  0.5223
 1024MOL0     H35140   5.206   2.227   0.515  2.4949 -0.0948  1.3022
 1024MOL0     H35141   5.187   2.118   0.374  1.2838 -1.5423 -0.4597
 1024MOL0     H35142   5.094   2.045   0.644  0.6312  0.0573 -0.0613
 1024MOL0     H35143   5.077   1.967   0.478  0.1213  2.7382 -2.2435
 1024MOL0     H35144   4.963   2.239   0.552 -1.3498  0.3784 -2.7834
 1024MOL0     H35145   4.868   2.095   0.584 -0.2540 -1.6896  0.4077
 1024MOL0     H35146   4.984   2.181   0.309  0.8134  0.6519 -0.6080
 1024MOL0     H35147   4.896   2.037   0.342  1.0473  0.1728  1.6599
 1024MOL0     H35148   4.746   2.223   0.252 -0.7541 -0.9578  0.2269
 1024MOL0     H35149   4.794   2.334   0.373 -1.4261  1.3646 -2.3238
 1024MOL0     H35150   5.847   2.016   0.375 -0.4484  0.9150 -0.0582
 1024MOL0     H35151   6.084   2.026   0.437 -0.6274 -1.0804 -1.2157
 1024MOL0     H35152   6.371   2.171   0.785  0.5109  0.3608  0.4641
 1024MOL0     H35153   6.626   2.197   0.825  1.7794 -0.3053  1.2621
 1024MOL0     H35154   8.248   1.149   0.067 -1.2610  0.7440  0.7197
 1024MOL0     H35155   8.487   1.131  -0.006 -1.8484  0.1511 -2.5669
 1024MOL0     H35156   8.869   1.311  -0.166  1.7881 -0.5811 -1.9044
 1024MOL0     H35157   9.117   1.298  -0.184 -0.1600  1.4625 -0.8607
 1024MOL0     H35158   9.381   1.220   0.110  2.6662  1.4254  3.7181
 1024MOL0     H35159   9.365   1.393   0.154 -2.4954  1.4808 -2.4150
 1024MOL0     H35160   9.598   1.347   0.090  0.1922 -1.0790 -0.2231
 1024MOL0     H35161   9.550   1.267  -0.064 -1.2223 -0.3932  1.4730
 1024MOL0     H35162   9.428   1.518  -0.086 -1.5690 -2.3813 -0.1282
 1024MOL0     H35163   9.583   1.463  -0.175 -2.9176 -1.5852 -1.5567
 1024MOL0     H35164   9.718   1.533  -0.004 -0.8632 -2.3663  2.2447
 1024MOL0     H35165   9.610   1.676  -0.062 -4.0872 -1.0451  0.1822
 1024MOL0     H35166   9.547   1.644   0.354  0.1875 -0.8834 -0.0110
 1024MOL0     H35167   9.169   1.453   0.202  0.7565  3.0514 -1.0343
 1024MOL0     H35168   8.919   1.441   0.232 -2.8436 -0.7652 -0.0109
  11.30996  11.30996  11.30996
